Protein in INSANE! Membrane UpperLeaflet>POPC=1.0 LowerLeaflet>POPC=1.0
244992
    1AU     AUC    1   3.206  34.047   7.508
    1AU     AUC    2   3.476  34.061   7.327
    1AU     AUC    3   3.482  34.045   7.675
    1AU     AUC    4   2.920  34.040   7.338
    1AU     AUC    5   2.950  34.078   7.698
    1AU     AUC    6   3.028  34.323   7.512
    1AU     AUC    7   3.395  34.328   7.498
    1AU     AUC    8   3.020  33.774   7.512
    1AU     AUC    9   3.368  33.756   7.504
    1AU     AUC   10   3.212  33.877   7.789
    1AU     AUC   11   3.207  34.223   7.782
    1AU     AUC   12   3.197  33.879   7.229
    1AU     AUC   13   3.215  34.204   7.228
    1AU     AUC   14   3.784  34.067   7.149
    1AU     AUC   15   3.810  34.019   7.508
    1AU     AUC   16   3.769  34.025   7.845
    1AU     AUC   17   2.619  34.029   7.165
    1AU     AUC   18   2.600  34.073   7.527
    1AU     AUC   19   2.653  34.096   7.892
    1AU     AUC   20   2.853  34.627   7.500
    1AU     AUC   21   3.207  34.653   7.473
    1AU     AUC   22   3.580  34.614   7.488
    1AU     AUC   23   2.814  33.493   7.520
    1AU     AUC   24   3.174  33.443   7.499
    1AU     AUC   25   3.529  33.455   7.490
    1AU     AUC   26   3.202  33.705   8.080
    1AU     AUC   27   3.246  34.076   8.120
    1AU     AUC   28   3.231  34.411   8.064
    1AU     AUC   29   3.221  33.701   6.953
    1AU     AUC   30   3.206  34.044   6.894
    1AU     AUC   31   3.195  34.372   6.927
    1AU     AUC   32   3.497  33.858   7.998
    1AU     AUC   33   3.533  34.229   7.985
    1AU     AUC   34   3.522  33.910   6.993
    1AU     AUC   35   3.518  34.234   7.028
    1AU     AUC   36   2.908  33.902   8.024
    1AU     AUC   37   2.932  34.260   8.007
    1AU     AUC   38   2.901  33.850   7.046
    1AU     AUC   39   2.881  34.178   7.001
    1AU     AUC   40   3.736  34.332   7.347
    1AU     AUC   41   3.711  34.342   7.678
    1AU     AUC   42   2.725  34.341   7.323
    1AU     AUC   43   2.721  34.383   7.698
    1AU     AUC   44   3.666  33.742   7.318
    1AU     AUC   45   3.650  33.698   7.684
    1AU     AUC   46   2.686  33.731   7.355
    1AU     AUC   47   2.746  33.786   7.711
    1AU     AUC   48   3.022  34.574   7.788
    1AU     AUC   49   3.390  34.531   7.757
    1AU     AUC   50   2.998  33.579   7.808
    1AU     AUC   51   3.342  33.535   7.786
    1AU     AUC   52   3.029  34.483   7.195
    1AU     AUC   53   3.410  34.529   7.203
    1AU     AUC   54   3.011  33.564   7.218
    1AU     AUC   55   3.398  33.583   7.202
    1AU    AUSL   56   3.791  33.997   8.186
    1AU    AUSL   57   3.496  33.543   8.176
    1AU     AUL   58   3.833  33.579   8.323
    1AU       S   59   3.814  33.148   8.163
    1AU     LIG   60   3.630  32.869   8.403
    1AU     LIG   61   3.802  32.536   8.644
    1AU     LIG   62   4.034  32.308   8.943
    1AU     LIG   63   4.222  32.169   9.325
    1AU     LIG   64   4.424  31.809   9.531
    1AU       S   65   4.052  33.972   8.245
    1AU     LIG   66   4.066  33.897   8.691
    1AU     LIG   67   4.002  33.745   9.137
    1AU     LIG   68   4.181  33.710   9.580
    1AU     LIG   69   4.488  33.729   9.935
    1AU     LIG   70   4.845  33.860  10.209
    1AU    AUSL   71   3.409  33.902   8.385
    1AU    AUSL   72   3.109  34.231   8.416
    1AU     AUL   73   3.328  34.197   8.734
    1AU       S   74   3.575  33.852   8.570
    1AU     LIG   75   3.382  33.708   8.930
    1AU     LIG   76   3.552  33.547   9.338
    1AU     LIG   77   3.780  33.420   9.734
    1AU     LIG   78   3.963  33.364  10.161
    1AU     LIG   79   3.830  33.230  10.593
    1AU       S   80   2.946  33.960   8.677
    1AU     LIG   81   2.925  33.851   9.148
    1AU     LIG   82   2.609  33.920   9.492
    1AU     LIG   83   2.414  33.938   9.928
    1AU     LIG   84   2.238  34.201  10.290
    1AU     LIG   85   2.244  34.483  10.683
    1AU    AUSL   86   3.510  34.323   8.332
    1AU    AUSL   87   3.860  34.403   8.059
    1AU     AUL   88   3.801  34.279   8.468
    1AU       S   89   3.373  34.621   8.477
    1AU     LIG   90   3.623  34.590   8.855
    1AU     LIG   91   3.893  34.645   9.254
    1AU     LIG   92   3.888  34.659   9.751
    1AU     LIG   93   3.849  34.707  10.238
    1AU     LIG   94   3.780  34.880  10.688
    1AU       S   95   3.913  34.660   8.234
    1AU     LIG   96   4.294  34.418   8.306
    1AU     LIG   97   4.616  34.528   8.634
    1AU     LIG   98   4.869  34.734   8.981
    1AU     LIG   99   5.099  34.992   9.298
    1AU     LIG  100   5.430  35.255   9.503
    1AU    AUSL  101   3.737  34.200   6.754
    1AU    AUSL  102   3.511  34.509   6.968
    1AU     AUL  103   3.643  34.574   6.619
    1AU       S  104   3.717  34.221   6.331
    1AU     LIG  105   4.129  34.035   6.180
    1AU     LIG  106   4.247  33.711   5.887
    1AU     LIG  107   4.221  33.667   5.429
    1AU     LIG  108   4.372  33.699   4.994
    1AU     LIG  109   4.799  33.702   4.790
    1AU       S  110   3.977  34.761   6.889
    1AU     LIG  111   4.089  34.912   6.483
    1AU     LIG  112   4.299  35.088   6.091
    1AU     LIG  113   4.535  35.190   5.699
    1AU     LIG  114   4.808  35.505   5.492
    1AU     LIG  115   4.964  35.800   5.157
    1AU    AUSL  116   3.507  33.868   6.617
    1AU    AUSL  117   3.847  33.819   6.915
    1AU     AUL  118   3.951  33.952   6.648
    1AU       S  119   3.834  33.501   6.630
    1AU     LIG  120   4.077  33.219   6.313
    1AU     LIG  121   4.377  32.827   6.283
    1AU     LIG  122   4.729  32.566   6.062
    1AU     LIG  123   5.194  32.638   5.906
    1AU     LIG  124   5.418  32.926   5.611
    1AU       S  125   3.639  34.022   6.304
    1AU     LIG  126   3.772  33.640   6.128
    1AU     LIG  127   3.843  33.425   5.702
    1AU     LIG  128   3.804  33.458   5.210
    1AU     LIG  129   3.895  33.543   4.730
    1AU     LIG  130   3.917  33.371   4.267
    1AU    AUSL  131   3.310  34.246   6.689
    1AU    AUSL  132   3.095  33.841   6.736
    1AU     AUL  133   3.240  33.857   6.447
    1AU       S  134   2.804  33.871   6.301
    1AU     LIG  135   2.898  33.695   5.911
    1AU     LIG  136   2.640  33.458   5.605
    1AU     LIG  137   2.442  33.457   5.185
    1AU     LIG  138   2.230  33.237   4.817
    1AU     LIG  139   2.239  33.077   4.359
    1AU       S  140   3.388  34.286   6.344
    1AU     LIG  141   3.420  34.067   5.878
    1AU     LIG  142   3.746  33.908   5.538
    1AU     LIG  143   3.918  33.944   5.089
    1AU     LIG  144   4.053  34.208   4.724
    1AU     LIG  145   4.066  34.544   4.385
    1AU    AUSL  146   2.708  34.153   8.285
    1AU    AUSL  147   2.973  34.503   8.125
    1AU     AUL  148   2.856  34.457   8.476
    1AU       S  149   2.770  34.078   8.738
    1AU     LIG  150   2.431  33.883   8.961
    1AU     LIG  151   2.160  33.729   9.327
    1AU     LIG  152   1.994  33.691   9.763
    1AU     LIG  153   1.677  33.779  10.101
    1AU     LIG  154   1.308  33.633  10.382
    1AU       S  155   2.529  34.735   8.256
    1AU     LIG  156   2.605  34.943   8.632
    1AU     LIG  157   2.437  35.271   8.933
    1AU     LIG  158   2.202  35.452   9.301
    1AU     LIG  159   2.065  35.528   9.752
    1AU     LIG  160   1.999  35.741  10.181
    1AU    AUSL  161   3.023  33.864   8.204
    1AU    AUSL  162   2.560  33.794   8.109
    1AU     AUL  163   2.584  33.849   8.386
    1AU       S  164   2.390  33.424   8.247
    1AU     LIG  165   1.976  33.398   8.150
    1AU     LIG  166   1.780  33.004   8.282
    1AU     LIG  167   1.563  32.632   8.458
    1AU     LIG  168   1.322  32.351   8.741
    1AU     LIG  169   1.136  32.259   9.160
    1AU       S  170   3.005  33.784   8.582
    1AU     LIG  171   2.746  33.506   8.799
    1AU     LIG  172   2.591  33.454   9.237
    1AU     LIG  173   2.461  33.465   9.689
    1AU     LIG  174   2.292  33.356  10.111
    1AU     LIG  175   2.329  33.111  10.520
    1AU    AUSL  176   2.670  33.897   6.779
    1AU    AUSL  177   2.887  33.544   6.959
    1AU     AUL  178   2.919  33.546   6.626
    1AU       S  179   2.627  33.795   6.365
    1AU     LIG  180   2.385  33.746   5.971
    1AU     LIG  181   2.153  33.670   5.566
    1AU     LIG  182   1.927  33.499   5.187
    1AU     LIG  183   1.585  33.489   4.869
    1AU     LIG  184   1.323  33.764   4.590
    1AU       S  185   2.515  33.394   6.789
    1AU     LIG  186   2.482  32.939   6.708
    1AU     LIG  187   2.105  32.683   6.576
    1AU     LIG  188   1.780  32.546   6.246
    1AU     LIG  189   1.643  32.440   5.798
    1AU     LIG  190   1.644  32.347   5.326
    1AU    AUSL  191   2.899  34.218   6.608
    1AU    AUSL  192   2.554  34.299   6.914
    1AU     AUL  193   2.466  34.130   6.627
    1AU       S  194   2.564  34.570   6.675
    1AU     LIG  195   2.202  34.728   6.489
    1AU     LIG  196   2.031  35.007   6.137
    1AU     LIG  197   1.780  35.061   5.717
    1AU     LIG  198   1.417  35.158   5.400
    1AU     LIG  199   1.134  35.314   5.028
    1AU       S  200   2.863  34.150   6.361
    1AU     LIG  201   2.680  34.172   5.922
    1AU     LIG  202   2.584  33.957   5.500
    1AU     LIG  203   2.476  33.961   5.021
    1AU     LIG  204   2.437  34.156   4.561
    1AU     LIG  205   2.344  34.338   4.108
    1AU    AUSL  206   4.004  34.505   7.508
    1AU    AUSL  207   3.897  34.353   7.112
    1AU     AUL  208   4.275  34.609   7.291
    1AU       S  209   3.999  34.538   6.942
    1AU     LIG  210   4.166  34.407   6.557
    1AU     LIG  211   4.437  34.599   6.233
    1AU     LIG  212   4.772  34.864   6.032
    1AU     LIG  213   5.059  35.140   5.765
    1AU     LIG  214   5.303  35.338   5.405
    1AU       S  215   4.436  34.334   7.647
    1AU     LIG  216   4.848  34.513   7.609
    1AU     LIG  217   5.306  34.638   7.591
    1AU     LIG  218   5.764  34.817   7.595
    1AU     LIG  219   5.958  35.179   7.854
    1AU     LIG  220   6.042  35.662   7.819
    1AU    AUSL  221   4.162  34.113   7.343
    1AU    AUSL  222   4.120  33.780   7.668
    1AU     AUL  223   4.488  33.842   7.577
    1AU       S  224   4.282  34.159   7.351
    1AU     LIG  225   4.717  34.163   7.207
    1AU     LIG  226   5.151  34.391   7.160
    1AU     LIG  227   5.608  34.602   7.141
    1AU     LIG  228   6.090  34.689   7.006
    1AU     LIG  229   6.455  34.633   6.678
    1AU       S  230   4.337  33.400   7.611
    1AU     LIG  231   4.732  33.344   7.752
    1AU     LIG  232   4.990  33.001   7.796
    1AU     LIG  233   5.449  32.978   7.856
    1AU     LIG  234   5.864  33.007   8.093
    1AU     LIG  235   6.327  32.930   8.191
    1AU    AUSL  236   3.939  34.153   7.735
    1AU    AUSL  237   3.772  34.739   7.776
    1AU     AUL  238   4.080  34.584   7.809
    1AU       S  239   3.978  34.929   8.113
    1AU     LIG  240   4.365  34.921   8.370
    1AU     LIG  241   4.623  35.133   8.701
    1AU     LIG  242   4.792  35.597   8.698
    1AU     LIG  243   5.032  36.018   8.666
    1AU     LIG  244   5.043  36.436   8.861
    1AU       S  245   4.274  34.178   7.831
    1AU     LIG  246   4.699  34.192   8.054
    1AU     LIG  247   5.169  34.292   8.019
    1AU     LIG  248   5.632  34.433   7.935
    1AU     LIG  249   6.059  34.656   7.990
    1AU     LIG  250   6.432  34.966   8.042
    1AU    AUSL  251   2.523  34.600   7.540
    1AU    AUSL  252   2.597  34.373   7.941
    1AU     AUL  253   2.274  34.686   7.798
    1AU       S  254   2.442  34.511   8.191
    1AU     LIG  255   2.380  34.450   8.652
    1AU     LIG  256   2.222  34.777   8.974
    1AU     LIG  257   1.902  35.014   9.254
    1AU     LIG  258   1.494  35.196   9.448
    1AU     LIG  259   1.099  35.482   9.479
    1AU       S  260   2.496  34.968   7.473
    1AU     LIG  261   2.041  34.917   7.375
    1AU     LIG  262   1.642  35.230   7.388
    1AU     LIG  263   1.277  35.581   7.394
    1AU     LIG  264   0.845  35.795   7.366
    1AU     LIG  265   0.384  35.944   7.451
    1AU    AUSL  266   2.494  34.232   7.320
    1AU    AUSL  267   2.640  34.670   7.141
    1AU     AUL  268   2.337  34.539   7.162
    1AU       S  269   2.138  34.097   6.982
    1AU     LIG  270   1.842  34.470   7.037
    1AU     LIG  271   1.383  34.638   6.983
    1AU     LIG  272   0.922  34.761   6.857
    1AU     LIG  273   0.445  34.852   6.839
    1AU     LIG  274   0.096  35.094   6.641
    1AU       S  275   2.446  34.949   6.922
    1AU     LIG  276   2.426  35.193   6.505
    1AU     LIG  277   2.217  35.517   6.212
    1AU     LIG  278   2.025  35.963   6.159
    1AU     LIG  279   1.721  36.341   6.063
    1AU     LIG  280   1.379  36.600   5.867
    1AU    AUSL  281   2.273  34.248   7.710
    1AU    AUSL  282   2.245  33.905   7.392
    1AU     AUL  283   2.100  34.246   7.430
    1AU       S  284   1.975  33.813   7.598
    1AU     LIG  285   1.642  33.668   7.316
    1AU     LIG  286   1.172  33.557   7.389
    1AU     LIG  287   0.719  33.437   7.275
    1AU     LIG  288   0.253  33.471   7.239
    1AU     LIG  289  44.819  33.407   7.140
    1AU       S  290   2.149  34.191   7.935
    1AU     LIG  291   1.733  34.340   7.789
    1AU     LIG  292   1.228  34.351   7.871
    1AU     LIG  293   0.826  34.568   8.055
    1AU     LIG  294   0.530  34.860   8.258
    1AU     LIG  295   0.110  34.997   8.202
    1AU    AUSL  296   3.867  33.460   7.526
    1AU    AUSL  297   3.749  33.725   7.872
    1AU     AUL  298   4.062  33.615   7.909
    1AU       S  299   4.047  33.297   7.514
    1AU     LIG  300   4.345  32.916   7.609
    1AU     LIG  301   4.742  32.721   7.428
    1AU     LIG  302   5.188  32.654   7.491
    1AU     LIG  303   5.428  32.438   7.836
    1AU     LIG  304   5.757  32.166   8.015
    1AU       S  305   3.973  33.180   7.996
    1AU     LIG  306   4.157  32.810   8.259
    1AU     LIG  307   4.327  32.531   8.582
    1AU     LIG  308   4.546  32.284   8.920
    1AU     LIG  309   4.915  32.307   9.214
    1AU     LIG  310   5.319  32.397   9.458
    1AU    AUSL  311   3.853  33.839   7.330
    1AU    AUSL  312   3.803  33.433   7.110
    1AU     AUL  313   4.079  33.656   7.147
    1AU       S  314   4.323  33.406   7.423
    1AU     LIG  315   4.643  33.195   7.241
    1AU     LIG  316   5.073  33.134   7.309
    1AU     LIG  317   5.476  33.005   7.183
    1AU     LIG  318   5.965  32.970   7.151
    1AU     LIG  319   6.329  33.224   6.844
    1AU       S  320   3.953  33.363   6.774
    1AU     LIG  321   4.002  32.899   6.772
    1AU     LIG  322   4.122  32.463   6.595
    1AU     LIG  323   4.472  32.205   6.375
    1AU     LIG  324   4.796  31.891   6.218
    1AU     LIG  325   5.135  31.655   5.970
    1AU    AUSL  326   2.419  33.540   7.558
    1AU    AUSL  327   2.568  33.764   7.161
    1AU     AUL  328   2.203  33.638   7.231
    1AU       S  329   2.400  33.518   6.837
    1AU     LIG  330   2.020  33.191   6.792
    1AU     LIG  331   1.646  32.929   6.588
    1AU     LIG  332   1.279  32.651   6.403
    1AU     LIG  333   0.834  32.497   6.254
    1AU     LIG  334   0.594  32.467   5.841
    1AU       S  335   2.021  33.502   7.645
    1AU     LIG  336   1.826  33.190   7.373
    1AU     LIG  337   1.352  33.066   7.373
    1AU     LIG  338   0.891  32.986   7.547
    1AU     LIG  339   0.498  32.783   7.777
    1AU     LIG  340   0.059  32.620   7.727
    1AU    AUSL  341   2.538  33.931   7.713
    1AU    AUSL  342   2.744  33.541   7.824
    1AU     AUL  343   2.348  33.717   7.895
    1AU       S  344   2.452  33.283   7.997
    1AU     LIG  345   2.124  32.984   7.873
    1AU     LIG  346   1.866  32.587   7.988
    1AU     LIG  347   1.705  32.197   8.219
    1AU     LIG  348   1.482  31.903   8.525
    1AU     LIG  349   1.178  31.693   8.812
    1AU       S  350   1.935  33.803   7.734
    1AU     LIG  351   1.470  33.906   7.730
    1AU     LIG  352   1.020  33.840   7.799
    1AU     LIG  353   0.808  33.435   7.784
    1AU     LIG  354   0.370  33.276   7.723
    1AU     LIG  355  44.957  33.233   7.972
    1AU    AUSL  356   3.183  34.852   7.995
    1AU    AUSL  357   2.762  34.758   7.856
    1AU     AUL  358   2.984  34.848   8.241
    1AU       S  359   2.637  34.943   7.951
    1AU     LIG  360   2.678  35.280   8.236
    1AU     LIG  361   2.310  35.466   8.466
    1AU     LIG  362   2.142  35.898   8.592
    1AU     LIG  363   1.991  36.319   8.777
    1AU     LIG  364   1.626  36.576   8.999
    1AU       S  365   3.184  35.202   7.978
    1AU     LIG  366   3.410  35.279   8.320
    1AU     LIG  367   3.465  35.685   8.554
    1AU     LIG  368   3.524  36.148   8.676
    1AU     LIG  369   3.380  36.545   8.855
    1AU     LIG  370   3.293  36.717   9.283
    1AU    AUSL  371   2.996  34.987   7.601
    1AU    AUSL  372   3.372  34.966   7.239
    1AU     AUL  373   3.057  35.208   7.351
    1AU       S  374   3.029  35.272   7.816
    1AU     LIG  375   3.105  35.671   8.124
    1AU     LIG  376   3.419  36.042   8.196
    1AU     LIG  377   3.305  36.497   8.319
    1AU     LIG  378   3.101  36.927   8.456
    1AU     LIG  379   2.737  37.201   8.635
    1AU       S  380   3.351  35.303   6.996
    1AU     LIG  381   3.541  35.739   7.028
    1AU     LIG  382   3.758  36.160   6.987
    1AU     LIG  383   3.844  36.548   6.753
    1AU     LIG  384   3.665  36.983   6.681
    1AU     LIG  385   3.874  37.427   6.669
    1AU    AUSL  386   3.387  34.790   7.621
    1AU    AUSL  387   3.453  34.534   7.986
    1AU     AUL  388   3.527  34.889   7.995
    1AU       S  389   3.797  34.777   8.353
    1AU     LIG  390   4.094  34.659   8.710
    1AU     LIG  391   4.362  34.794   9.040
    1AU     LIG  392   4.600  35.125   9.245
    1AU     LIG  393   4.612  35.547   9.453
    1AU     LIG  394   4.529  35.942   9.702
    1AU       S  395   3.408  35.202   7.680
    1AU     LIG  396   3.550  35.580   7.891
    1AU     LIG  397   3.780  35.982   7.829
    1AU     LIG  398   3.783  36.396   8.017
    1AU     LIG  399   3.910  36.692   8.323
    1AU     LIG  400   4.034  37.116   8.395
    1AU    AUSL  401   3.163  33.401   7.944
    1AU    AUSL  402   3.577  33.337   7.805
    1AU     AUL  403   3.362  33.252   8.188
    1AU       S  404   3.218  32.847   8.019
    1AU     LIG  405   3.033  32.643   8.349
    1AU     LIG  406   2.955  32.194   8.342
    1AU     LIG  407   2.946  31.735   8.433
    1AU     LIG  408   3.050  31.308   8.614
    1AU     LIG  409   3.174  31.003   8.962
    1AU       S  410   3.715  33.146   7.871
    1AU     LIG  411   3.773  32.683   7.937
    1AU     LIG  412   3.993  32.317   8.216
    1AU     LIG  413   4.219  32.032   8.540
    1AU     LIG  414   4.596  31.813   8.716
    1AU     LIG  415   4.769  31.484   9.019
    1AU    AUSL  416   2.850  33.168   7.689
    1AU    AUSL  417   2.871  33.481   8.238
    1AU     AUL  418   2.899  33.200   8.040
    1AU       S  419   2.967  32.783   7.855
    1AU     LIG  420   2.650  32.516   8.028
    1AU     LIG  421   2.520  32.069   8.042
    1AU     LIG  422   2.525  31.607   8.040
    1AU     LIG  423   2.396  31.216   8.217
    1AU     LIG  424   2.263  30.908   8.514
    1AU       S  425   2.583  33.350   8.347
    1AU     LIG  426   2.395  32.903   8.322
    1AU     LIG  427   2.082  32.568   8.452
    1AU     LIG  428   1.836  32.250   8.709
    1AU     LIG  429   1.606  32.043   9.050
    1AU     LIG  430   1.732  31.957   9.488
    1AU    AUSL  431   3.272  33.109   7.634
    1AU    AUSL  432   3.037  33.328   7.334
    1AU     AUL  433   2.913  32.995   7.445
    1AU       S  434   3.254  32.875   7.178
    1AU     LIG  435   2.806  32.676   7.075
    1AU     LIG  436   2.661  32.243   7.164
    1AU     LIG  437   2.587  31.804   7.008
    1AU     LIG  438   2.676  31.350   6.912
    1AU     LIG  439   2.374  31.024   6.829
    1AU       S  440   3.279  32.866   7.765
    1AU     LIG  441   3.148  32.342   7.873
    1AU     LIG  442   2.995  31.878   7.930
    1AU     LIG  443   3.023  31.402   8.042
    1AU     LIG  444   3.314  31.076   8.230
    1AU     LIG  445   3.697  30.795   8.335
    1AU    AUSL  446   3.197  34.772   6.879
    1AU    AUSL  447   3.709  34.716   7.290
    1AU     AUL  448   3.534  34.884   6.948
    1AU       S  449   3.174  35.053   6.694
    1AU     LIG  450   3.445  35.414   6.518
    1AU     LIG  451   3.527  35.879   6.492
    1AU     LIG  452   3.479  36.285   6.248
    1AU     LIG  453   3.362  36.627   5.945
    1AU     LIG  454   3.270  36.833   5.528
    1AU       S  455   3.930  34.886   7.178
    1AU     LIG  456   4.391  34.994   6.940
    1AU     LIG  457   4.603  35.059   6.503
    1AU     LIG  458   4.796  35.366   6.168
    1AU     LIG  459   5.125  35.736   6.120
    1AU     LIG  460   5.475  36.043   6.016
    1AU    AUSL  461   3.029  34.715   7.293
    1AU    AUSL  462   2.958  34.443   6.954
    1AU     AUL  463   2.887  34.879   7.045
    1AU       S  464   3.118  35.243   6.892
    1AU     LIG  465   3.101  35.708   6.769
    1AU     LIG  466   3.272  36.152   6.832
    1AU     LIG  467   3.346  36.569   6.650
    1AU     LIG  468   3.139  37.000   6.554
    1AU     LIG  469   2.827  37.365   6.625
    1AU       S  470   2.756  34.676   6.656
    1AU     LIG  471   2.653  34.816   6.228
    1AU     LIG  472   2.481  35.153   5.944
    1AU     LIG  473   2.197  35.367   5.618
    1AU     LIG  474   2.076  35.604   5.201
    1AU     LIG  475   1.959  35.949   4.882
    1AU    AUSL  476   3.219  33.277   6.940
    1AU    AUSL  477   2.629  33.337   7.249
    1AU     AUL  478   2.887  33.170   7.001
    1AU       S  479   2.444  33.284   7.064
    1AU     LIG  480   2.247  32.925   7.177
    1AU     LIG  481   1.848  32.730   7.026
    1AU     LIG  482   1.620  32.419   6.729
    1AU     LIG  483   1.270  32.138   6.525
    1AU     LIG  484   0.987  32.007   6.168
    1AU       S  485   3.259  32.881   6.940
    1AU     LIG  486   3.108  32.549   6.670
    1AU     LIG  487   2.881  32.161   6.705
    1AU     LIG  488   2.945  31.706   6.640
    1AU     LIG  489   3.048  31.361   6.340
    1AU     LIG  490   3.039  30.949   6.074
    1AU    AUSL  491   3.465  33.302   7.319
    1AU    AUSL  492   3.451  33.620   6.949
    1AU     AUL  493   3.577  33.215   6.999
    1AU       S  494   3.438  32.859   7.263
    1AU     LIG  495   3.217  32.382   7.148
    1AU     LIG  496   3.071  31.912   7.111
    1AU     LIG  497   3.181  31.456   7.031
    1AU     LIG  498   3.461  31.126   6.827
    1AU     LIG  499   3.697  30.758   6.618
    1AU       S  500   3.594  33.424   6.596
    1AU     LIG  501   3.576  33.010   6.517
    1AU     LIG  502   3.863  32.754   6.267
    1AU     LIG  503   4.140  32.451   6.021
    1AU     LIG  504   4.340  32.400   5.586
    1AU     LIG  505   4.284  32.347   5.104
    2AU     AUC  506  40.681  19.260   7.507
    2AU     AUC  507  40.964  19.268   7.332
    2AU     AUC  508  40.939  19.245   7.680
    2AU     AUC  509  40.399  19.257   7.335
    2AU     AUC  510  40.410  19.295   7.687
    2AU     AUC  511  40.517  19.541   7.507
    2AU     AUC  512  40.881  19.532   7.501
    2AU     AUC  513  40.489  18.993   7.506
    2AU     AUC  514  40.840  18.965   7.501
    2AU     AUC  515  40.674  19.079   7.781
    2AU     AUC  516  40.688  19.445   7.783
    2AU     AUC  517  40.678  19.095   7.226
    2AU     AUC  518  40.702  19.419   7.228
    2AU     AUC  519  41.278  19.268   7.165
    2AU     AUC  520  41.283  19.228   7.528
    2AU     AUC  521  41.221  19.211   7.880
    2AU     AUC  522  40.096  19.254   7.164
    2AU     AUC  523  40.074  19.289   7.528
    2AU     AUC  524  40.116  19.326   7.867
    2AU     AUC  525  40.354  19.851   7.478
    2AU     AUC  526  40.715  19.851   7.472
    2AU     AUC  527  41.096  19.799   7.493
    2AU     AUC  528  40.287  18.717   7.505
    2AU     AUC  529  40.638  18.657   7.487
    2AU     AUC  530  41.006  18.663   7.482
    2AU     AUC  531  40.650  18.893   8.066
    2AU     AUC  532  40.669  19.261   8.104
    2AU     AUC  533  40.702  19.625   8.057
    2AU     AUC  534  40.703  18.921   6.947
    2AU     AUC  535  40.699  19.251   6.895
    2AU     AUC  536  40.688  19.581   6.933
    2AU     AUC  537  40.933  19.023   8.002
    2AU     AUC  538  40.988  19.411   7.993
    2AU     AUC  539  41.020  19.114   7.004
    2AU     AUC  540  41.014  19.441   7.038
    2AU     AUC  541  40.366  19.127   8.013
    2AU     AUC  542  40.392  19.501   7.988
    2AU     AUC  543  40.382  19.076   7.039
    2AU     AUC  544  40.365  19.396   6.997
    2AU     AUC  545  41.227  19.548   7.341
    2AU     AUC  546  41.174  19.538   7.705
    2AU     AUC  547  40.195  19.560   7.324
    2AU     AUC  548  40.213  19.611   7.682
    2AU     AUC  549  41.154  18.951   7.333
    2AU     AUC  550  41.119  18.905   7.687
    2AU     AUC  551  40.156  18.961   7.354
    2AU     AUC  552  40.205  19.009   7.712
    2AU     AUC  553  40.537  19.794   7.774
    2AU     AUC  554  40.896  19.730   7.794
    2AU     AUC  555  40.473  18.785   7.799
    2AU     AUC  556  40.798  18.726   7.774
    2AU     AUC  557  40.507  19.702   7.192
    2AU     AUC  558  40.895  19.736   7.202
    2AU     AUC  559  40.478  18.790   7.205
    2AU     AUC  560  40.874  18.802   7.205
    2AU    AUSL  561  41.191  19.111   8.261
    2AU    AUSL  562  40.948  18.713   8.165
    2AU     AUL  563  41.163  18.708   8.490
    2AU       S  564  41.293  18.439   8.140
    2AU     LIG  565  41.151  18.206   8.507
    2AU     LIG  566  41.363  17.913   8.787
    2AU     LIG  567  41.643  17.672   9.068
    2AU     LIG  568  41.972  17.716   9.397
    2AU     LIG  569  42.263  17.560   9.734
    2AU       S  570  41.377  19.070   8.332
    2AU     LIG  571  41.370  19.057   8.805
    2AU     LIG  572  41.564  18.912   9.240
    2AU     LIG  573  41.811  18.825   9.659
    2AU     LIG  574  42.204  18.846   9.932
    2AU     LIG  575  42.454  18.965  10.309
    2AU    AUSL  576  40.776  19.038   8.401
    2AU    AUSL  577  40.519  19.446   8.423
    2AU     AUL  578  40.748  19.372   8.724
    2AU       S  579  40.800  18.975   8.522
    2AU     LIG  580  40.884  18.916   8.927
    2AU     LIG  581  41.113  18.654   9.217
    2AU     LIG  582  41.346  18.600   9.615
    2AU     LIG  583  41.476  18.623  10.062
    2AU     LIG  584  41.418  18.646  10.535
    2AU       S  585  40.330  19.203   8.631
    2AU     LIG  586  40.359  19.152   9.089
    2AU     LIG  587  40.086  19.087   9.471
    2AU     LIG  588  39.892  19.111   9.908
    2AU     LIG  589  39.727  19.387  10.273
    2AU     LIG  590  39.675  19.626  10.687
    2AU    AUSL  591  40.877  19.418   8.215
    2AU    AUSL  592  41.310  19.503   8.118
    2AU     AUL  593  41.139  19.436   8.470
    2AU       S  594  40.804  19.801   8.528
    2AU     LIG  595  41.140  19.805   8.840
    2AU     LIG  596  41.272  19.878   9.304
    2AU     LIG  597  41.283  19.972   9.790
    2AU     LIG  598  41.381  19.937  10.264
    2AU     LIG  599  41.523  19.931  10.721
    2AU       S  600  41.426  19.765   8.304
    2AU     LIG  601  41.856  19.697   8.314
    2AU     LIG  602  42.264  19.899   8.411
    2AU     LIG  603  42.542  20.119   8.711
    2AU     LIG  604  42.765  20.365   9.040
    2AU     LIG  605  43.021  20.734   9.191
    2AU    AUSL  606  41.238  19.405   6.754
    2AU    AUSL  607  41.026  19.735   6.961
    2AU     AUL  608  41.061  19.803   6.610
    2AU       S  609  41.221  19.453   6.357
    2AU     LIG  610  41.586  19.296   6.140
    2AU     LIG  611  41.682  19.015   5.795
    2AU     LIG  612  41.761  18.916   5.352
    2AU     LIG  613  42.091  18.963   5.011
    2AU     LIG  614  42.553  18.977   4.840
    2AU       S  615  41.443  19.954   6.838
    2AU     LIG  616  41.609  20.092   6.419
    2AU     LIG  617  41.967  20.208   6.129
    2AU     LIG  618  42.161  20.228   5.702
    2AU     LIG  619  42.358  20.344   5.296
    2AU     LIG  620  42.487  20.663   4.982
    2AU    AUSL  621  41.006  19.067   6.615
    2AU    AUSL  622  41.349  19.026   6.935
    2AU     AUL  623  41.436  19.147   6.639
    2AU       S  624  41.486  18.687   6.699
    2AU     LIG  625  41.646  18.312   6.422
    2AU     LIG  626  41.877  17.900   6.361
    2AU     LIG  627  42.150  17.608   6.124
    2AU     LIG  628  42.395  17.565   5.720
    2AU     LIG  629  42.608  17.600   5.285
    2AU       S  630  41.121  19.239   6.302
    2AU     LIG  631  41.236  18.899   6.043
    2AU     LIG  632  41.311  18.708   5.595
    2AU     LIG  633  41.366  18.666   5.113
    2AU     LIG  634  41.482  18.485   4.675
    2AU     LIG  635  41.527  18.473   4.189
    2AU    AUSL  636  40.813  19.433   6.744
    2AU    AUSL  637  40.587  19.050   6.720
    2AU     AUL  638  40.729  19.065   6.452
    2AU       S  639  40.278  19.093   6.309
    2AU     LIG  640  40.330  18.762   6.067
    2AU     LIG  641  40.096  18.668   5.677
    2AU     LIG  642  39.857  18.634   5.258
    2AU     LIG  643  39.816  18.359   4.853
    2AU     LIG  644  39.847  18.218   4.393
    2AU       S  645  40.900  19.475   6.323
    2AU     LIG  646  41.081  19.380   5.842
    2AU     LIG  647  41.320  19.202   5.459
    2AU     LIG  648  41.473  19.179   5.003
    2AU     LIG  649  41.422  19.345   4.553
    2AU     LIG  650  41.502  19.551   4.123
    2AU    AUSL  651  40.129  19.388   8.236
    2AU    AUSL  652  40.456  19.731   8.114
    2AU     AUL  653  40.284  19.680   8.453
    2AU       S  654  40.111  19.282   8.661
    2AU     LIG  655  39.928  18.919   8.868
    2AU     LIG  656  39.684  18.828   9.258
    2AU     LIG  657  39.481  18.888   9.689
    2AU     LIG  658  39.155  18.984  10.029
    2AU     LIG  659  38.959  19.016  10.461
    2AU       S  660  40.029  20.017   8.196
    2AU     LIG  661  40.108  20.179   8.586
    2AU     LIG  662  39.913  20.384   8.957
    2AU     LIG  663  39.743  20.569   9.350
    2AU     LIG  664  39.532  20.666   9.757
    2AU     LIG  665  39.431  21.025  10.040
    2AU    AUSL  666  40.434  19.104   8.163
    2AU    AUSL  667  40.020  18.970   8.126
    2AU     AUL  668  39.913  19.199   8.255
    2AU       S  669  39.917  18.742   8.373
    2AU     LIG  670  39.484  18.706   8.209
    2AU     LIG  671  39.145  18.409   8.310
    2AU     LIG  672  38.908  18.031   8.513
    2AU     LIG  673  38.716  17.624   8.710
    2AU     LIG  674  38.402  17.401   9.003
    2AU       S  675  40.297  19.046   8.539
    2AU     LIG  676  40.415  18.726   8.830
    2AU     LIG  677  40.176  18.628   9.229
    2AU     LIG  678  39.944  18.619   9.652
    2AU     LIG  679  39.827  18.500  10.090
    2AU     LIG  680  39.775  18.355  10.542
    2AU    AUSL  681  40.181  19.169   6.777
    2AU    AUSL  682  40.352  18.784   6.945
    2AU     AUL  683  40.391  18.773   6.617
    2AU       S  684  40.074  19.077   6.455
    2AU     LIG  685  39.832  18.794   6.194
    2AU     LIG  686  39.627  18.851   5.757
    2AU     LIG  687  39.451  18.982   5.328
    2AU     LIG  688  39.156  19.138   4.977
    2AU     LIG  689  38.764  19.143   4.694
    2AU       S  690  39.970  18.678   6.765
    2AU     LIG  691  39.968  18.361   6.483
    2AU     LIG  692  39.590  18.152   6.307
    2AU     LIG  693  39.384  17.736   6.320
    2AU     LIG  694  39.184  17.494   5.976
    2AU     LIG  695  38.838  17.608   5.673
    2AU    AUSL  696  40.440  19.457   6.568
    2AU    AUSL  697  39.984  19.523   6.919
    2AU     AUL  698  40.103  19.517   6.590
    2AU       S  699  39.713  19.708   6.755
    2AU     LIG  700  39.355  19.825   6.547
    2AU     LIG  701  39.264  19.929   6.101
    2AU     LIG  702  39.032  20.060   5.708
    2AU     LIG  703  38.741  20.140   5.351
    2AU     LIG  704  38.515  20.471   5.104
    2AU       S  705  40.361  19.308   6.258
    2AU     LIG  706  40.045  19.173   5.887
    2AU     LIG  707  39.949  19.116   5.435
    2AU     LIG  708  39.794  19.183   4.993
    2AU     LIG  709  39.762  19.437   4.588
    2AU     LIG  710  39.943  19.551   4.161
    2AU    AUSL  711  41.528  19.723   7.500
    2AU    AUSL  712  41.385  19.527   7.127
    2AU     AUL  713  41.757  19.704   7.158
    2AU       S  714  41.480  19.798   6.822
    2AU     LIG  715  41.868  19.697   6.643
    2AU     LIG  716  42.248  19.899   6.452
    2AU     LIG  717  42.495  20.055   6.073
    2AU     LIG  718  42.679  20.314   5.708
    2AU     LIG  719  42.874  20.438   5.277
    2AU       S  720  41.858  19.835   7.594
    2AU     LIG  721  42.315  19.939   7.515
    2AU     LIG  722  42.529  20.301   7.364
    2AU     LIG  723  42.956  20.449   7.324
    2AU     LIG  724  43.306  20.552   7.034
    2AU     LIG  725  43.653  20.836   7.114
    2AU    AUSL  726  41.661  19.322   7.395
    2AU    AUSL  727  41.571  19.021   7.736
    2AU     AUL  728  41.821  19.202   7.814
    2AU       S  729  41.984  19.432   7.447
    2AU     LIG  730  42.392  19.223   7.412
    2AU     LIG  731  42.792  19.218   7.160
    2AU     LIG  732  43.123  19.427   6.927
    2AU     LIG  733  43.491  19.701   6.865
    2AU     LIG  734  43.904  19.929   6.854
    2AU       S  735  41.859  18.764   7.615
    2AU     LIG  736  42.324  18.603   7.729
    2AU     LIG  737  42.805  18.433   7.788
    2AU     LIG  738  43.226  18.180   7.860
    2AU     LIG  739  43.608  17.960   8.082
    2AU     LIG  740  44.051  18.140   8.239
    2AU    AUSL  741  41.370  19.388   7.720
    2AU    AUSL  742  41.300  19.847   7.827
    2AU     AUL  743  41.583  19.601   7.892
    2AU       S  744  41.474  19.996   8.121
    2AU     LIG  745  41.853  20.211   8.254
    2AU     LIG  746  42.274  20.417   8.364
    2AU     LIG  747  42.523  20.674   8.690
    2AU     LIG  748  42.651  21.030   8.985
    2AU     LIG  749  42.674  21.488   8.894
    2AU       S  750  41.963  19.609   7.633
    2AU     LIG  751  42.299  19.519   7.849
    2AU     LIG  752  42.717  19.516   7.709
    2AU     LIG  753  43.071  19.647   7.957
    2AU     LIG  754  43.513  19.760   8.113
    2AU     LIG  755  43.891  19.784   7.829
    2AU    AUSL  756  40.026  19.833   7.514
    2AU    AUSL  757  40.080  19.644   7.911
    2AU     AUL  758  39.787  19.938   7.750
    2AU       S  759  39.923  19.795   8.163
    2AU     LIG  760  39.807  19.733   8.600
    2AU     LIG  761  39.620  19.954   8.986
    2AU     LIG  762  39.385  20.194   9.336
    2AU     LIG  763  39.113  20.349   9.697
    2AU     LIG  764  38.674  20.369   9.875
    2AU       S  765  40.007  20.218   7.440
    2AU     LIG  766  39.558  20.359   7.626
    2AU     LIG  767  39.119  20.518   7.789
    2AU     LIG  768  38.816  20.863   7.620
    2AU     LIG  769  38.359  21.074   7.690
    2AU     LIG  770  37.930  20.904   7.542
    2AU    AUSL  771  39.980  19.444   7.325
    2AU    AUSL  772  40.108  19.895   7.105
    2AU     AUL  773  39.802  19.772   7.211
    2AU       S  774  39.610  19.261   6.971
    2AU     LIG  775  39.321  19.654   7.045
    2AU     LIG  776  39.004  19.990   6.932
    2AU     LIG  777  38.581  20.147   6.767
    2AU     LIG  778  38.147  20.322   6.875
    2AU     LIG  779  37.657  20.289   6.852
    2AU       S  780  39.930  20.152   6.936
    2AU     LIG  781  39.676  20.378   6.576
    2AU     LIG  782  39.693  20.730   6.254
    2AU     LIG  783  39.517  21.182   6.260
    2AU     LIG  784  39.373  21.632   6.245
    2AU     LIG  785  38.972  21.872   6.168
    2AU    AUSL  786  39.761  19.485   7.699
    2AU    AUSL  787  39.727  19.120   7.401
    2AU     AUL  788  39.577  19.431   7.417
    2AU       S  789  39.521  19.031   7.679
    2AU     LIG  790  39.201  19.097   7.357
    2AU     LIG  791  38.729  19.108   7.307
    2AU     LIG  792  38.403  18.818   7.132
    2AU     LIG  793  37.986  18.620   7.158
    2AU     LIG  794  37.642  18.341   7.186
    2AU       S  795  39.585  19.519   7.910
    2AU     LIG  796  39.099  19.692   7.919
    2AU     LIG  797  38.721  19.951   8.148
    2AU     LIG  798  38.382  20.290   8.246
    2AU     LIG  799  37.892  20.359   8.230
    2AU     LIG  800  37.412  20.461   8.365
    2AU    AUSL  801  41.376  18.676   7.550
    2AU    AUSL  802  41.190  18.929   7.883
    2AU     AUL  803  41.518  18.811   7.949
    2AU       S  804  41.641  18.568   7.544
    2AU     LIG  805  42.005  18.307   7.435
    2AU     LIG  806  42.291  17.957   7.539
    2AU     LIG  807  42.519  17.559   7.462
    2AU     LIG  808  42.954  17.418   7.508
    2AU     LIG  809  43.398  17.341   7.608
    2AU       S  810  41.409  18.372   7.977
    2AU     LIG  811  41.622  18.113   8.323
    2AU     LIG  812  41.859  17.851   8.624
    2AU     LIG  813  42.128  17.588   8.911
    2AU     LIG  814  42.456  17.568   9.247
    2AU     LIG  815  42.832  17.735   9.482
    2AU    AUSL  816  41.351  19.054   7.351
    2AU    AUSL  817  41.284  18.639   7.137
    2AU     AUL  818  41.562  18.838   7.166
    2AU       S  819  41.911  18.895   7.440
    2AU     LIG  820  42.268  18.702   7.234
    2AU     LIG  821  42.568  18.337   7.330
    2AU     LIG  822  43.038  18.316   7.290
    2AU     LIG  823  43.412  18.149   7.028
    2AU     LIG  824  43.822  18.151   6.785
    2AU       S  825  41.479  18.486   6.862
    2AU     LIG  826  41.468  18.020   6.830
    2AU     LIG  827  41.621  17.582   6.680
    2AU     LIG  828  41.839  17.269   6.387
    2AU     LIG  829  42.188  17.089   6.126
    2AU     LIG  830  42.470  16.717   6.211
    2AU    AUSL  831  39.922  18.757   7.547
    2AU    AUSL  832  40.026  18.997   7.133
    2AU     AUL  833  39.675  18.828   7.262
    2AU       S  834  39.860  18.827   6.839
    2AU     LIG  835  39.498  18.533   6.661
    2AU     LIG  836  39.236  18.145   6.687
    2AU     LIG  837  38.833  17.928   6.611
    2AU     LIG  838  38.574  17.792   6.236
    2AU     LIG  839  38.339  17.663   5.864
    2AU       S  840  39.508  18.796   7.697
    2AU     LIG  841  39.302  18.406   7.688
    2AU     LIG  842  38.893  18.297   7.855
    2AU     LIG  843  38.481  18.190   7.655
    2AU     LIG  844  38.060  18.166   7.460
    2AU     LIG  845  37.680  17.962   7.528
    2AU    AUSL  846  39.990  19.136   7.745
    2AU    AUSL  847  40.240  18.757   7.830
    2AU     AUL  848  39.914  18.713   7.881
    2AU       S  849  39.942  18.515   8.288
    2AU     LIG  850  39.623  18.229   8.076
    2AU     LIG  851  39.225  17.968   8.087
    2AU     LIG  852  39.099  17.589   8.332
    2AU     LIG  853  38.975  17.182   8.524
    2AU     LIG  854  38.704  16.971   8.838
    2AU       S  855  39.582  19.041   7.852
    2AU     LIG  856  39.048  18.868   7.803
    2AU     LIG  857  38.695  18.649   7.537
    2AU     LIG  858  38.217  18.640   7.600
    2AU     LIG  859  37.734  18.531   7.668
    2AU     LIG  860  37.284  18.537   7.902
    2AU    AUSL  861  40.693  20.063   7.978
    2AU    AUSL  862  40.297  19.994   7.802
    2AU     AUL  863  40.488  20.051   8.228
    2AU       S  864  40.178  20.170   7.899
    2AU     LIG  865  40.176  20.521   8.173
    2AU     LIG  866  39.930  20.711   8.540
    2AU     LIG  867  39.676  21.045   8.785
    2AU     LIG  868  39.291  21.341   8.794
    2AU     LIG  869  38.796  21.383   8.799
    2AU       S  870  40.657  20.413   7.992
    2AU     LIG  871  40.946  20.426   8.333
    2AU     LIG  872  41.091  20.847   8.511
    2AU     LIG  873  40.890  21.270   8.665
    2AU     LIG  874  40.773  21.701   8.831
    2AU     LIG  875  40.673  22.005   9.161
    2AU    AUSL  876  40.585  20.201   7.572
    2AU    AUSL  877  40.867  20.099   7.240
    2AU     AUL  878  40.973  20.377   7.424
    2AU       S  879  40.544  20.445   7.678
    2AU     LIG  880  40.508  20.903   7.921
    2AU     LIG  881  40.760  21.253   8.173
    2AU     LIG  882  40.642  21.722   8.322
    2AU     LIG  883  40.553  22.217   8.310
    2AU     LIG  884  40.500  22.615   8.591
    2AU       S  885  40.632  20.369   7.107
    2AU     LIG  886  41.009  20.668   7.001
    2AU     LIG  887  41.416  20.976   6.941
    2AU     LIG  888  41.551  21.460   6.901
    2AU     LIG  889  41.333  21.899   6.793
    2AU     LIG  890  41.225  22.377   6.854
    2AU    AUSL  891  40.944  19.968   7.641
    2AU    AUSL  892  40.985  19.800   8.105
    2AU     AUL  893  41.070  20.137   7.923
    2AU       S  894  41.221  19.941   8.327
    2AU     LIG  895  41.558  20.064   8.661
    2AU     LIG  896  41.966  20.245   8.750
    2AU     LIG  897  42.245  20.432   9.037
    2AU     LIG  898  42.326  20.791   9.306
    2AU     LIG  899  42.132  21.134   9.567
    2AU       S  900  40.823  20.516   7.836
    2AU     LIG  901  41.034  20.849   8.000
    2AU     LIG  902  41.351  21.165   8.136
    2AU     LIG  903  41.550  21.621   8.161
    2AU     LIG  904  41.532  22.064   8.351
    2AU     LIG  905  41.533  22.561   8.415
    2AU    AUSL  906  40.622  18.557   7.931
    2AU    AUSL  907  41.032  18.546   7.766
    2AU     AUL  908  40.830  18.405   8.145
    2AU       S  909  40.592  18.048   7.968
    2AU     LIG  910  40.599  17.652   8.150
    2AU     LIG  911  40.348  17.280   8.218
    2AU     LIG  912  40.205  16.884   8.396
    2AU     LIG  913  40.484  16.597   8.621
    2AU     LIG  914  40.595  16.154   8.739
    2AU       S  915  41.183  18.342   7.833
    2AU     LIG  916  41.136  17.943   8.076
    2AU     LIG  917  41.419  17.639   8.356
    2AU     LIG  918  41.718  17.358   8.641
    2AU     LIG  919  42.121  17.106   8.701
    2AU     LIG  920  42.264  16.641   8.666
    2AU    AUSL  921  40.300  18.388   7.654
    2AU    AUSL  922  40.390  18.701   8.246
    2AU     AUL  923  40.296  18.416   8.009
    2AU       S  924  40.395  17.990   7.806
    2AU     LIG  925  40.404  17.521   7.675
    2AU     LIG  926  40.158  17.119   7.762
    2AU     LIG  927  39.968  16.724   7.967
    2AU     LIG  928  39.736  16.374   8.216
    2AU     LIG  929  39.816  15.955   8.425
    2AU       S  930  40.156  18.584   8.440
    2AU     LIG  931  39.811  18.253   8.662
    2AU     LIG  932  39.416  18.004   8.601
    2AU     LIG  933  39.206  17.680   8.858
    2AU     LIG  934  39.207  17.510   9.300
    2AU     LIG  935  39.400  17.477   9.735
    2AU    AUSL  936  40.727  18.308   7.599
    2AU    AUSL  937  40.497  18.557   7.313
    2AU     AUL  938  40.371  18.220   7.403
    2AU       S  939  40.732  18.105   7.159
    2AU     LIG  940  40.394  17.762   7.229
    2AU     LIG  941  40.224  17.329   7.181
    2AU     LIG  942  40.014  16.938   6.963
    2AU     LIG  943  40.003  16.471   6.751
    2AU     LIG  944  39.917  15.991   6.573
    2AU       S  945  40.731  18.107   7.725
    2AU     LIG  946  40.878  17.673   7.712
    2AU     LIG  947  40.755  17.216   7.897
    2AU     LIG  948  40.649  16.786   8.136
    2AU     LIG  949  40.782  16.323   8.277
    2AU     LIG  950  40.851  15.842   8.324
    2AU    AUSL  951  40.671  19.943   6.875
    2AU    AUSL  952  41.245  19.931   7.274
    2AU     AUL  953  41.023  20.120   6.960
    2AU       S  954  40.599  20.313   6.847
    2AU     LIG  955  40.958  20.416   6.558
    2AU     LIG  956  41.198  20.805   6.399
    2AU     LIG  957  41.175  21.128   6.018
    2AU     LIG  958  40.997  21.464   5.691
    2AU     LIG  959  40.864  21.899   5.504
    2AU       S  960  41.458  20.057   7.117
    2AU     LIG  961  41.874  20.197   6.847
    2AU     LIG  962  42.112  20.528   6.552
    2AU     LIG  963  42.449  20.904   6.476
    2AU     LIG  964  42.879  21.054   6.264
    2AU     LIG  965  42.958  21.439   5.981
    2AU    AUSL  966  40.481  19.925   7.276
    2AU    AUSL  967  40.409  19.617   6.953
    2AU     AUL  968  40.340  19.925   6.833
    2AU       S  969  40.404  20.289   7.142
    2AU     LIG  970  40.419  20.814   7.092
    2AU     LIG  971  40.525  21.258   6.889
    2AU     LIG  972  40.663  21.722   6.789
    2AU     LIG  973  40.646  22.155   6.558
    2AU     LIG  974  40.287  22.455   6.469
    2AU       S  975  39.900  19.933   6.688
    2AU     LIG  976  40.073  20.150   6.338
    2AU     LIG  977  39.940  20.381   5.935
    2AU     LIG  978  39.927  20.449   5.455
    2AU     LIG  979  39.715  20.559   5.043
    2AU     LIG  980  39.433  20.824   4.770
    2AU    AUSL  981  40.683  18.518   6.921
    2AU    AUSL  982  40.091  18.565   7.212
    2AU     AUL  983  40.343  18.406   6.968
    2AU       S  984  39.893  18.533   6.974
    2AU     LIG  985  39.515  18.336   7.148
    2AU     LIG  986  39.354  17.896   7.118
    2AU     LIG  987  39.224  17.573   6.783
    2AU     LIG  988  38.929  17.473   6.409
    2AU     LIG  989  38.682  17.297   6.056
    2AU       S  990  40.715  18.112   6.953
    2AU     LIG  991  40.329  17.887   6.749
    2AU     LIG  992  40.278  17.403   6.656
    2AU     LIG  993  40.266  16.935   6.521
    2AU     LIG  994  40.384  16.481   6.387
    2AU     LIG  995  40.404  16.231   5.983
    2AU    AUSL  996  40.923  18.523   7.301
    2AU    AUSL  997  40.946  18.840   6.959
    2AU     AUL  998  41.022  18.465   6.938
    2AU       S  999  40.972  18.118   7.245
    2AU     LIG 1000  40.875  17.620   7.176
    2AU     LIG 1001  40.681  17.197   6.966
    2AU     LIG 1002  40.676  16.722   6.780
    2AU     LIG 1003  40.820  16.264   6.625
    2AU     LIG 1004  40.905  15.779   6.603
    2AU       S 1005  41.256  18.673   6.607
    2AU     LIG 1006  41.141  18.243   6.502
    2AU     LIG 1007  41.362  17.862   6.325
    2AU     LIG 1008  41.622  17.573   6.038
    2AU     LIG 1009  41.913  17.356   5.729
    2AU     LIG 1010  42.156  17.332   5.315
    3AU     AUC 1011  22.815  44.793   7.512
    3AU     AUC 1012  23.106  44.799   7.344
    3AU     AUC 1013  23.088  44.786   7.687
    3AU     AUC 1014  22.525  44.788   7.341
    3AU     AUC 1015  22.553  44.825   7.697
    3AU     AUC 1016  22.637   0.072   7.513
    3AU     AUC 1017  23.008   0.070   7.510
    3AU     AUC 1018  22.622  44.523   7.511
    3AU     AUC 1019  22.975  44.502   7.510
    3AU     AUC 1020  22.812  44.620   7.794
    3AU     AUC 1021  22.807  44.964   7.783
    3AU     AUC 1022  22.810  44.630   7.236
    3AU     AUC 1023  22.836  44.952   7.239
    3AU     AUC 1024  23.421  44.803   7.177
    3AU     AUC 1025  23.428  44.762   7.533
    3AU     AUC 1026  23.367  44.765   7.870
    3AU     AUC 1027  22.220  44.786   7.169
    3AU     AUC 1028  22.203  44.819   7.529
    3AU     AUC 1029  22.254  44.846   7.888
    3AU     AUC 1030  22.466   0.381   7.488
    3AU     AUC 1031  22.822   0.393   7.471
    3AU     AUC 1032  23.199   0.354   7.504
    3AU     AUC 1033  22.409  44.244   7.512
    3AU     AUC 1034  22.766  44.191   7.499
    3AU     AUC 1035  23.133  44.198   7.494
    3AU     AUC 1036  22.792  44.445   8.083
    3AU     AUC 1037  22.835  44.817   8.126
    3AU     AUC 1038  22.825   0.153   8.070
    3AU     AUC 1039  22.834  44.456   6.958
    3AU     AUC 1040  22.836  44.791   6.907
    3AU     AUC 1041  22.824   0.110   6.948
    3AU     AUC 1042  23.091  44.596   8.007
    3AU     AUC 1043  23.126  44.967   8.004
    3AU     AUC 1044  23.151  44.646   7.015
    3AU     AUC 1045  23.154  44.980   7.059
    3AU     AUC 1046  22.503  44.651   8.023
    3AU     AUC 1047  22.532   0.012   8.004
    3AU     AUC 1048  22.511  44.611   7.048
    3AU     AUC 1049  22.493  44.929   7.009
    3AU     AUC 1050  23.359   0.080   7.375
    3AU     AUC 1051  23.317   0.083   7.707
    3AU     AUC 1052  22.316   0.092   7.338
    3AU     AUC 1053  22.333   0.136   7.695
    3AU     AUC 1054  23.286  44.483   7.332
    3AU     AUC 1055  23.264  44.448   7.686
    3AU     AUC 1056  22.282  44.485   7.348
    3AU     AUC 1057  22.348  44.535   7.708
    3AU     AUC 1058  22.637   0.326   7.780
    3AU     AUC 1059  22.999   0.273   7.766
    3AU     AUC 1060  22.595  44.324   7.806
    3AU     AUC 1061  22.940  44.281   7.788
    3AU     AUC 1062  22.635   0.229   7.203
    3AU     AUC 1063  23.027   0.271   7.213
    3AU     AUC 1064  22.608  44.320   7.215
    3AU     AUC 1065  22.998  44.332   7.213
    3AU    AUSL 1066  23.376  44.730   8.207
    3AU    AUSL 1067  23.089  44.278   8.179
    3AU     AUL 1068  23.414  44.309   8.333
    3AU       S 1069  23.410  43.885   8.152
    3AU     LIG 1070  23.291  43.738   8.523
    3AU     LIG 1071  23.296  43.318   8.739
    3AU     LIG 1072  23.422  43.062   9.102
    3AU     LIG 1073  23.796  42.855   9.266
    3AU     LIG 1074  23.944  42.729   9.689
    3AU       S 1075  23.639  44.698   8.279
    3AU     LIG 1076  23.616  44.563   8.730
    3AU     LIG 1077  23.724  44.368   9.161
    3AU     LIG 1078  23.975  44.243   9.560
    3AU     LIG 1079  24.333  44.278   9.887
    3AU     LIG 1080  24.659  44.370  10.230
    3AU    AUSL 1081  22.985  44.636   8.388
    3AU    AUSL 1082  22.690  44.975   8.411
    3AU     AUL 1083  22.899  44.926   8.743
    3AU       S 1084  23.140  44.577   8.574
    3AU     LIG 1085  23.209  44.192   8.781
    3AU     LIG 1086  23.364  43.998   9.182
    3AU     LIG 1087  23.503  44.022   9.638
    3AU     LIG 1088  23.493  43.922  10.108
    3AU     LIG 1089  23.459  43.732  10.545
    3AU       S 1090  22.505  44.712   8.674
    3AU     LIG 1091  22.433  44.581   9.145
    3AU     LIG 1092  22.200  44.533   9.554
    3AU     LIG 1093  22.022  44.698   9.961
    3AU     LIG 1094  22.013  44.995  10.344
    3AU     LIG 1095  22.055   0.261  10.746
    3AU    AUSL 1096  23.097   0.058   8.356
    3AU    AUSL 1097  23.452   0.142   8.102
    3AU     AUL 1098  23.386   0.006   8.498
    3AU       S 1099  22.970   0.350   8.493
    3AU     LIG 1100  23.226   0.333   8.863
    3AU     LIG 1101  23.437   0.383   9.293
    3AU     LIG 1102  23.450   0.349   9.784
    3AU     LIG 1103  23.496   0.479  10.248
    3AU     LIG 1104  23.623   0.618  10.692
    3AU       S 1105  23.510   0.403   8.292
    3AU     LIG 1106  23.909   0.261   8.320
    3AU     LIG 1107  24.237   0.413   8.619
    3AU     LIG 1108  24.507   0.593   8.968
    3AU     LIG 1109  24.736   0.745   9.354
    3AU     LIG 1110  24.944   0.945   9.742
    3AU    AUSL 1111  23.379  44.928   6.802
    3AU    AUSL 1112  23.172   0.274   6.984
    3AU     AUL 1113  23.293   0.309   6.651
    3AU       S 1114  23.341  44.965   6.352
    3AU     LIG 1115  23.712  44.800   6.132
    3AU     LIG 1116  23.834  44.475   5.842
    3AU     LIG 1117  23.908  44.346   5.403
    3AU     LIG 1118  24.202  44.177   5.066
    3AU     LIG 1119  24.606  44.202   4.813
    3AU       S 1120  23.611   0.515   6.914
    3AU     LIG 1121  23.580   0.793   6.562
    3AU     LIG 1122  23.852   0.878   6.205
    3AU     LIG 1123  24.230   1.053   5.990
    3AU     LIG 1124  24.355   1.276   5.592
    3AU     LIG 1125  24.247   1.510   5.194
    3AU    AUSL 1126  23.139  44.612   6.629
    3AU    AUSL 1127  23.476  44.527   6.921
    3AU     AUL 1128  23.588  44.704   6.665
    3AU       S 1129  23.493  44.247   6.659
    3AU     LIG 1130  23.732  44.001   6.298
    3AU     LIG 1131  24.041  43.632   6.179
    3AU     LIG 1132  24.376  43.400   5.913
    3AU     LIG 1133  24.729  43.286   5.626
    3AU     LIG 1134  24.949  43.254   5.208
    3AU       S 1135  23.263  44.769   6.337
    3AU     LIG 1136  23.360  44.414   6.079
    3AU     LIG 1137  23.452  44.188   5.649
    3AU     LIG 1138  23.533  44.064   5.192
    3AU     LIG 1139  23.509  43.949   4.738
    3AU     LIG 1140  23.594  43.935   4.276
    3AU    AUSL 1141  22.956  44.984   6.751
    3AU    AUSL 1142  22.720  44.595   6.736
    3AU     AUL 1143  22.858  44.612   6.461
    3AU       S 1144  22.409  44.638   6.317
    3AU     LIG 1145  22.438  44.287   6.089
    3AU     LIG 1146  22.214  44.165   5.699
    3AU     LIG 1147  22.014  44.092   5.266
    3AU     LIG 1148  21.912  43.803   4.885
    3AU     LIG 1149  21.897  43.747   4.409
    3AU       S 1150  23.028   0.038   6.379
    3AU     LIG 1151  23.087  44.893   5.903
    3AU     LIG 1152  23.417  44.703   5.612
    3AU     LIG 1153  23.513  44.598   5.148
    3AU     LIG 1154  23.493  44.771   4.686
    3AU     LIG 1155  23.621   0.079   4.334
    3AU    AUSL 1156  22.291  44.908   8.270
    3AU    AUSL 1157  22.573   0.266   8.128
    3AU     AUL 1158  22.449   0.214   8.470
    3AU       S 1159  22.339  44.837   8.725
    3AU     LIG 1160  21.972  44.672   8.907
    3AU     LIG 1161  21.768  44.469   9.289
    3AU     LIG 1162  21.667  44.381   9.748
    3AU     LIG 1163  21.326  44.478  10.064
    3AU     LIG 1164  20.945  44.625  10.302
    3AU       S 1165  22.143   0.499   8.226
    3AU     LIG 1166  22.197   0.676   8.628
    3AU     LIG 1167  22.073   0.906   9.034
    3AU     LIG 1168  21.790   1.129   9.343
    3AU     LIG 1169  21.580   1.172   9.765
    3AU     LIG 1170  21.624   1.457  10.147
    3AU    AUSL 1171  22.602  44.610   8.201
    3AU    AUSL 1172  22.153  44.537   8.105
    3AU     AUL 1173  22.158  44.607   8.371
    3AU       S 1174  21.969  44.175   8.258
    3AU     LIG 1175  21.606  43.927   8.359
    3AU     LIG 1176  21.378  43.565   8.517
    3AU     LIG 1177  21.001  43.570   8.786
    3AU     LIG 1178  20.553  43.608   8.850
    3AU     LIG 1179  20.212  43.568   9.111
    3AU       S 1180  22.571  44.533   8.582
    3AU     LIG 1181  22.260  44.264   8.786
    3AU     LIG 1182  22.135  44.120   9.217
    3AU     LIG 1183  22.057  44.056   9.683
    3AU     LIG 1184  21.981  44.091  10.150
    3AU     LIG 1185  21.822  43.835  10.543
    3AU    AUSL 1186  22.312  44.711   6.785
    3AU    AUSL 1187  22.488  44.319   6.956
    3AU     AUL 1188  22.513  44.319   6.632
    3AU       S 1189  22.201  44.624   6.467
    3AU     LIG 1190  21.943  44.371   6.210
    3AU     LIG 1191  21.753  44.382   5.774
    3AU     LIG 1192  21.602  44.403   5.321
    3AU     LIG 1193  21.261  44.323   4.999
    3AU     LIG 1194  20.931  44.467   4.682
    3AU       S 1195  22.096  44.156   6.754
    3AU     LIG 1196  22.095  43.634   6.738
    3AU     LIG 1197  22.055  43.210   6.485
    3AU     LIG 1198  21.776  42.980   6.173
    3AU     LIG 1199  21.593  42.750   5.809
    3AU     LIG 1200  21.378  42.582   5.425
    3AU    AUSL 1201  22.577  44.998   6.581
    3AU    AUSL 1202  22.105   0.059   6.928
    3AU     AUL 1203  22.230   0.063   6.601
    3AU       S 1204  21.821   0.241   6.757
    3AU     LIG 1205  21.576   0.522   6.479
    3AU     LIG 1206  21.485   0.621   6.031
    3AU     LIG 1207  21.048   0.714   5.871
    3AU     LIG 1208  20.725   0.902   5.583
    3AU     LIG 1209  20.410   1.228   5.423
    3AU       S 1210  22.489  44.855   6.269
    3AU     LIG 1211  22.190  44.702   5.882
    3AU     LIG 1212  22.083  44.594   5.436
    3AU     LIG 1213  22.007  44.586   4.976
    3AU     LIG 1214  22.087  44.830   4.560
    3AU     LIG 1215  21.986   0.188   4.265
    3AU    AUSL 1216  23.601   0.253   7.559
    3AU    AUSL 1217  23.536   0.100   7.153
    3AU     AUL 1218  23.858   0.367   7.352
    3AU       S 1219  23.674   0.278   6.941
    3AU     LIG 1220  23.935   0.421   6.533
    3AU     LIG 1221  24.258   0.556   6.186
    3AU     LIG 1222  24.591   0.704   5.859
    3AU     LIG 1223  24.939   0.791   5.543
    3AU     LIG 1224  25.223   0.973   5.189
    3AU       S 1225  24.033   0.118   7.718
    3AU     LIG 1226  24.424   0.322   7.572
    3AU     LIG 1227  24.858   0.515   7.476
    3AU     LIG 1228  25.220   0.805   7.370
    3AU     LIG 1229  25.617   1.043   7.493
    3AU     LIG 1230  25.962   1.335   7.278
    3AU    AUSL 1231  23.789  44.870   7.410
    3AU    AUSL 1232  23.726  44.532   7.704
    3AU     AUL 1233  24.099  44.618   7.739
    3AU       S 1234  23.932  44.924   7.454
    3AU     LIG 1235  24.384  44.844   7.395
    3AU     LIG 1236  24.823   0.023   7.309
    3AU     LIG 1237  25.271   0.208   7.266
    3AU     LIG 1238  25.678   0.146   7.025
    3AU     LIG 1239  26.081   0.396   6.980
    3AU       S 1240  23.956  44.233   7.529
    3AU     LIG 1241  24.405  44.183   7.638
    3AU     LIG 1242  24.659  43.812   7.798
    3AU     LIG 1243  25.121  43.760   7.904
    3AU     LIG 1244  25.546  43.843   8.064
    3AU     LIG 1245  25.914  43.685   8.292
    3AU    AUSL 1246  23.535  44.898   7.776
    3AU    AUSL 1247  23.372   0.485   7.834
    3AU     AUL 1248  23.661   0.348   7.856
    3AU       S 1249  23.554   0.697   8.153
    3AU     LIG 1250  23.934   0.779   8.414
    3AU     LIG 1251  24.333   0.954   8.628
    3AU     LIG 1252  24.384   1.426   8.779
    3AU     LIG 1253  24.711   1.803   8.763
    3AU     LIG 1254  24.930   2.174   8.970
    3AU       S 1255  23.851  44.948   7.906
    3AU     LIG 1256  24.380  44.955   8.001
    3AU     LIG 1257  24.822   0.069   7.818
    3AU     LIG 1258  25.315   0.072   7.768
    3AU     LIG 1259  25.755   0.162   7.960
    3AU     LIG 1260  26.018   0.536   8.169
    3AU    AUSL 1261  22.135   0.355   7.533
    3AU    AUSL 1262  22.214   0.138   7.921
    3AU     AUL 1263  21.893   0.448   7.770
    3AU       S 1264  22.064   0.290   8.166
    3AU     LIG 1265  21.955   0.198   8.598
    3AU     LIG 1266  21.755   0.527   8.881
    3AU     LIG 1267  21.460   0.838   9.086
    3AU     LIG 1268  21.171   0.990   9.445
    3AU     LIG 1269  20.729   0.971   9.664
    3AU       S 1270  22.131   0.742   7.460
    3AU     LIG 1271  21.775   0.958   7.649
    3AU     LIG 1272  21.437   1.307   7.637
    3AU     LIG 1273  21.002   1.501   7.772
    3AU     LIG 1274  20.579   1.757   7.805
    3AU     LIG 1275  20.246   1.820   7.470
    3AU    AUSL 1276  22.100  44.974   7.333
    3AU    AUSL 1277  22.236   0.423   7.128
    3AU     AUL 1278  21.924   0.303   7.213
    3AU       S 1279  21.737  44.787   6.970
    3AU     LIG 1280  21.398   0.102   7.035
    3AU     LIG 1281  20.972   0.304   6.948
    3AU     LIG 1282  20.620   0.626   6.909
    3AU     LIG 1283  20.152   0.658   6.806
    3AU     LIG 1284  19.723   0.571   6.637
    3AU       S 1285  22.063   0.686   6.957
    3AU     LIG 1286  21.800   0.980   6.677
    3AU     LIG 1287  21.825   1.267   6.280
    3AU     LIG 1288  21.535   1.604   6.100
    3AU     LIG 1289  21.095   1.829   6.164
    3AU     LIG 1290  20.971   2.275   6.236
    3AU    AUSL 1291  21.877   0.000   7.718
    3AU    AUSL 1292  21.847  44.647   7.396
    3AU     AUL 1293  21.703  44.967   7.427
    3AU       S 1294  21.564  44.547   7.608
    3AU     LIG 1295  21.249  44.394   7.288
    3AU     LIG 1296  20.778  44.307   7.179
    3AU     LIG 1297  20.290  44.306   7.273
    3AU     LIG 1298  19.802  44.227   7.183
    3AU     LIG 1299  19.339  44.113   7.119
    3AU       S 1300  21.775  44.940   7.965
    3AU     LIG 1301  21.397   0.149   7.858
    3AU     LIG 1302  20.992   0.368   7.961
    3AU     LIG 1303  20.524   0.395   8.026
    3AU     LIG 1304  20.120   0.633   8.199
    3AU     LIG 1305  19.667   0.773   8.323
    3AU    AUSL 1306  23.487  44.204   7.541
    3AU    AUSL 1307  23.350  44.462   7.887
    3AU     AUL 1308  23.677  44.342   7.922
    3AU       S 1309  23.770  44.068   7.529
    3AU     LIG 1310  24.128  43.762   7.660
    3AU     LIG 1311  24.415  43.389   7.566
    3AU     LIG 1312  24.678  42.983   7.503
    3AU     LIG 1313  24.995  42.775   7.196
    3AU     LIG 1314  25.493  42.780   7.222
    3AU       S 1315  23.549  43.921   8.009
    3AU     LIG 1316  23.809  43.988   8.427
    3AU     LIG 1317  24.121  43.747   8.712
    3AU     LIG 1318  24.318  43.333   8.844
    3AU     LIG 1319  24.689  43.118   9.071
    3AU     LIG 1320  25.013  43.201   9.414
    3AU    AUSL 1321  23.501  44.581   7.333
    3AU    AUSL 1322  23.399  44.150   7.130
    3AU     AUL 1323  23.651  44.305   7.136
    3AU       S 1324  24.028  44.402   7.340
    3AU     LIG 1325  24.224  43.982   7.195
    3AU     LIG 1326  24.631  43.772   7.280
    3AU     LIG 1327  25.090  43.722   7.177
    3AU     LIG 1328  25.490  43.633   6.941
    3AU     LIG 1329  25.967  43.633   6.781
    3AU       S 1330  23.570  44.026   6.766
    3AU     LIG 1331  23.601  43.589   6.912
    3AU     LIG 1332  23.900  43.216   6.841
    3AU     LIG 1333  24.045  42.846   6.625
    3AU     LIG 1334  24.456  42.724   6.398
    3AU     LIG 1335  24.888  42.539   6.295
    3AU    AUSL 1336  22.025  44.283   7.557
    3AU    AUSL 1337  22.148  44.527   7.128
    3AU     AUL 1338  21.801  44.355   7.256
    3AU       S 1339  22.008  44.355   6.843
    3AU     LIG 1340  21.544  44.265   6.828
    3AU     LIG 1341  21.238  43.912   6.664
    3AU     LIG 1342  20.987  43.777   6.267
    3AU     LIG 1343  20.663  43.609   5.931
    3AU     LIG 1344  20.236  43.448   5.756
    3AU       S 1345  21.589  44.268   7.671
    3AU     LIG 1346  21.457  43.919   7.447
    3AU     LIG 1347  21.031  43.851   7.290
    3AU     LIG 1348  20.570  43.849   7.406
    3AU     LIG 1349  20.288  43.473   7.412
    3AU     LIG 1350  19.855  43.381   7.596
    3AU    AUSL 1351  22.140  44.681   7.712
    3AU    AUSL 1352  22.350  44.291   7.821
    3AU     AUL 1353  21.954  44.448   7.885
    3AU       S 1354  22.040  44.018   8.015
    3AU     LIG 1355  21.707  43.740   7.902
    3AU     LIG 1356  21.317  43.520   8.005
    3AU     LIG 1357  21.041  43.207   8.214
    3AU     LIG 1358  20.922  42.789   8.443
    3AU     LIG 1359  20.480  42.741   8.672
    3AU       S 1360  21.542  44.584   7.749
    3AU     LIG 1361  21.083  44.508   7.789
    3AU     LIG 1362  20.652  44.453   7.650
    3AU     LIG 1363  20.269  44.244   7.787
    3AU     LIG 1364  19.807  44.236   7.807
    3AU     LIG 1365  19.378  44.175   7.997
    3AU    AUSL 1366  22.799   0.600   7.987
    3AU    AUSL 1367  22.394   0.519   7.827
    3AU     AUL 1368  22.596   0.607   8.229
    3AU       S 1369  22.253   0.713   7.934
    3AU     LIG 1370  21.990   0.972   8.230
    3AU     LIG 1371  21.755   1.025   8.652
    3AU     LIG 1372  21.526   1.342   8.931
    3AU     LIG 1373  21.173   1.655   8.962
    3AU     LIG 1374  21.037   2.094   8.840
    3AU       S 1375  22.819   0.954   7.969
    3AU     LIG 1376  23.140   1.090   8.243
    3AU     LIG 1377  23.293   1.439   8.546
    3AU     LIG 1378  23.388   1.803   8.826
    3AU     LIG 1379  23.204   2.178   9.031
    3AU     LIG 1380  22.786   2.392   9.145
    3AU    AUSL 1381  22.647   0.743   7.574
    3AU    AUSL 1382  22.984   0.664   7.225
    3AU     AUL 1383  22.902   0.995   7.357
    3AU       S 1384  22.650   0.991   7.754
    3AU     LIG 1385  22.559   1.441   7.953
    3AU     LIG 1386  22.719   1.853   8.183
    3AU     LIG 1387  22.749   2.315   8.365
    3AU     LIG 1388  22.618   2.798   8.366
    3AU     LIG 1389  22.566   3.197   8.639
    3AU       S 1390  22.747   0.924   6.935
    3AU     LIG 1391  23.068   1.342   7.011
    3AU     LIG 1392  23.488   1.617   7.047
    3AU     LIG 1393  23.611   2.050   6.880
    3AU     LIG 1394  23.807   2.474   6.769
    3AU     LIG 1395  23.854   2.957   6.662
    3AU    AUSL 1396  23.017   0.526   7.625
    3AU    AUSL 1397  23.044   0.261   8.004
    3AU     AUL 1398  23.106   0.590   8.063
    3AU       S 1399  23.405   0.513   8.400
    3AU     LIG 1400  23.704   0.477   8.758
    3AU     LIG 1401  24.009   0.728   8.971
    3AU     LIG 1402  24.295   1.031   9.169
    3AU     LIG 1403  24.446   1.057   9.632
    3AU     LIG 1404  24.480   1.306  10.027
    3AU       S 1405  23.093   0.918   7.755
    3AU     LIG 1406  23.026   1.375   7.773
    3AU     LIG 1407  23.226   1.674   8.080
    3AU     LIG 1408  23.454   2.096   8.137
    3AU     LIG 1409  23.664   2.524   8.260
    3AU     LIG 1410  23.550   2.987   8.407
    3AU    AUSL 1411  22.757  44.142   7.945
    3AU    AUSL 1412  23.170  44.086   7.795
    3AU     AUL 1413  22.959  43.984   8.178
    3AU       S 1414  22.798  43.586   8.010
    3AU     LIG 1415  22.561  43.290   8.261
    3AU     LIG 1416  22.484  42.872   8.383
    3AU     LIG 1417  22.679  42.581   8.641
    3AU     LIG 1418  22.680  42.146   8.744
    3AU     LIG 1419  22.581  41.909   9.152
    3AU       S 1420  23.314  43.884   7.863
    3AU     LIG 1421  23.304  43.430   8.032
    3AU     LIG 1422  23.635  43.142   8.186
    3AU     LIG 1423  24.104  43.147   8.385
    3AU     LIG 1424  24.375  42.839   8.676
    3AU     LIG 1425  24.820  42.674   8.819
    3AU    AUSL 1426  22.435  43.914   7.680
    3AU    AUSL 1427  22.462  44.222   8.236
    3AU     AUL 1428  22.490  43.935   8.020
    3AU       S 1429  22.583  43.515   7.821
    3AU     LIG 1430  22.189  43.505   7.970
    3AU     LIG 1431  22.162  43.033   8.002
    3AU     LIG 1432  22.114  42.604   8.154
    3AU     LIG 1433  22.048  42.099   8.160
    3AU     LIG 1434  21.970  41.668   8.405
    3AU       S 1435  22.189  44.105   8.328
    3AU     LIG 1436  22.050  43.693   8.436
    3AU     LIG 1437  21.791  43.675   8.814
    3AU     LIG 1438  21.710  43.454   9.213
    3AU     LIG 1439  21.710  43.111   9.526
    3AU     LIG 1440  21.420  42.940   9.858
    3AU    AUSL 1441  22.859  43.859   7.632
    3AU    AUSL 1442  22.620  44.075   7.326
    3AU     AUL 1443  22.489  43.745   7.430
    3AU       S 1444  22.834  43.636   7.164
    3AU     LIG 1445  22.433  43.364   7.053
    3AU     LIG 1446  22.069  43.016   7.033
    3AU     LIG 1447  21.836  42.609   6.902
    3AU     LIG 1448  21.815  42.177   6.683
    3AU     LIG 1449  21.863  41.699   6.673
    3AU       S 1450  22.879  43.639   7.746
    3AU     LIG 1451  22.934  43.134   7.860
    3AU     LIG 1452  22.806  42.704   8.017
    3AU     LIG 1453  22.947  42.245   8.006
    3AU     LIG 1454  23.242  41.876   8.053
    3AU     LIG 1455  23.435  41.576   8.356
    3AU    AUSL 1456  22.807   0.449   6.872
    3AU    AUSL 1457  23.355   0.485   7.309
    3AU     AUL 1458  23.151   0.643   6.954
    3AU       S 1459  22.750   0.784   6.749
    3AU     LIG 1460  23.126   1.038   6.611
    3AU     LIG 1461  23.087   1.466   6.441
    3AU     LIG 1462  23.192   1.659   6.019
    3AU     LIG 1463  22.998   1.987   5.728
    3AU     LIG 1464  22.635   2.311   5.719
    3AU       S 1465  23.572   0.649   7.138
    3AU     LIG 1466  23.997   0.806   6.885
    3AU     LIG 1467  24.259   0.955   6.524
    3AU     LIG 1468  24.454   1.366   6.413
    3AU     LIG 1469  24.730   1.660   6.178
    3AU     LIG 1470  24.878   2.083   6.109
    3AU    AUSL 1471  22.619   0.454   7.274
    3AU    AUSL 1472  22.532   0.140   6.970
    3AU     AUL 1473  22.462   0.437   6.843
    3AU       S 1474  22.533   0.817   7.107
    3AU     LIG 1475  22.553   1.319   7.178
    3AU     LIG 1476  22.660   1.761   6.998
    3AU     LIG 1477  22.706   2.199   6.780
    3AU     LIG 1478  22.687   2.688   6.667
    3AU     LIG 1479  22.633   3.022   6.318
    3AU       S 1480  22.029   0.481   6.704
    3AU     LIG 1481  22.000   0.724   6.280
    3AU     LIG 1482  21.859   0.948   5.873
    3AU     LIG 1483  21.966   1.086   5.425
    3AU     LIG 1484  21.836   1.372   5.070
    3AU     LIG 1485  21.491   1.629   4.867
    3AU    AUSL 1486  22.811  44.044   6.933
    3AU    AUSL 1487  22.217  44.103   7.222
    3AU     AUL 1488  22.471  43.937   6.987
    3AU       S 1489  22.019  44.053   6.986
    3AU     LIG 1490  21.638  43.791   6.985
    3AU     LIG 1491  21.256  43.487   6.992
    3AU     LIG 1492  21.073  43.159   6.710
    3AU     LIG 1493  20.952  42.728   6.517
    3AU     LIG 1494  20.734  42.573   6.137
    3AU       S 1495  22.842  43.645   6.937
    3AU     LIG 1496  22.789  43.311   6.658
    3AU     LIG 1497  22.528  42.984   6.441
    3AU     LIG 1498  22.556  42.536   6.289
    3AU     LIG 1499  22.680  42.094   6.116
    3AU     LIG 1500  22.985  41.928   5.800
    3AU    AUSL 1501  23.044  44.060   7.320
    3AU    AUSL 1502  23.067  44.370   6.963
    3AU     AUL 1503  23.159  43.980   6.975
    3AU       S 1504  23.006  43.640   7.248
    3AU     LIG 1505  22.932  43.181   7.336
    3AU     LIG 1506  23.050  42.747   7.207
    3AU     LIG 1507  22.948  42.341   6.950
    3AU     LIG 1508  23.243  41.961   6.827
    3AU     LIG 1509  23.408  41.523   6.624
    3AU       S 1510  23.276  44.173   6.578
    3AU     LIG 1511  23.244  43.683   6.537
    3AU     LIG 1512  23.275  43.254   6.255
    3AU     LIG 1513  23.532  42.919   5.949
    3AU     LIG 1514  23.868  42.859   5.567
    3AU     LIG 1515  23.941  42.902   5.084
    4AU     AUC 1516  15.342  14.193   7.511
    4AU     AUC 1517  15.620  14.202   7.337
    4AU     AUC 1518  15.621  14.182   7.686
    4AU     AUC 1519  15.055  14.188   7.336
    4AU     AUC 1520  15.081  14.229   7.694
    4AU     AUC 1521  15.167  14.475   7.505
    4AU     AUC 1522  15.535  14.467   7.504
    4AU     AUC 1523  15.152  13.926   7.513
    4AU     AUC 1524  15.501  13.903   7.513
    4AU     AUC 1525  15.342  14.024   7.792
    4AU     AUC 1526  15.339  14.366   7.779
    4AU     AUC 1527  15.337  14.026   7.232
    4AU     AUC 1528  15.361  14.345   7.235
    4AU     AUC 1529  15.933  14.205   7.165
    4AU     AUC 1530  15.953  14.148   7.526
    4AU     AUC 1531  15.903  14.150   7.859
    4AU     AUC 1532  14.752  14.177   7.161
    4AU     AUC 1533  14.732  14.223   7.522
    4AU     AUC 1534  14.782  14.257   7.882
    4AU     AUC 1535  14.996  14.782   7.479
    4AU     AUC 1536  15.351  14.795   7.466
    4AU     AUC 1537  15.724  14.747   7.496
    4AU     AUC 1538  14.943  13.646   7.516
    4AU     AUC 1539  15.302  13.595   7.504
    4AU     AUC 1540  15.657  13.597   7.502
    4AU     AUC 1541  15.320  13.855   8.085
    4AU     AUC 1542  15.370  14.225   8.123
    4AU     AUC 1543  15.362  14.558   8.064
    4AU     AUC 1544  15.365  13.850   6.956
    4AU     AUC 1545  15.358  14.183   6.895
    4AU     AUC 1546  15.344  14.501   6.937
    4AU     AUC 1547  15.621  13.998   8.008
    4AU     AUC 1548  15.664  14.364   7.995
    4AU     AUC 1549  15.673  14.049   7.003
    4AU     AUC 1550  15.671  14.374   7.043
    4AU     AUC 1551  15.033  14.059   8.019
    4AU     AUC 1552  15.063  14.421   7.996
    4AU     AUC 1553  15.043  14.000   7.042
    4AU     AUC 1554  15.020  14.317   6.999
    4AU     AUC 1555  15.878  14.467   7.362
    4AU     AUC 1556  15.849  14.465   7.697
    4AU     AUC 1557  14.850  14.487   7.326
    4AU     AUC 1558  14.861  14.540   7.686
    4AU     AUC 1559  15.804  13.883   7.332
    4AU     AUC 1560  15.780  13.832   7.698
    4AU     AUC 1561  14.819  13.883   7.349
    4AU     AUC 1562  14.878  13.940   7.707
    4AU     AUC 1563  15.171  14.728   7.773
    4AU     AUC 1564  15.535  14.671   7.759
    4AU     AUC 1565  15.125  13.729   7.810
    4AU     AUC 1566  15.468  13.680   7.795
    4AU     AUC 1567  15.163  14.629   7.197
    4AU     AUC 1568  15.545  14.671   7.209
    4AU     AUC 1569  15.144  13.717   7.217
    4AU     AUC 1570  15.534  13.732   7.212
    4AU    AUSL 1571  15.904  14.124   8.205
    4AU    AUSL 1572  15.606  13.695   8.184
    4AU     AUL 1573  15.934  13.712   8.344
    4AU       S 1574  15.918  13.278   8.196
    4AU     LIG 1575  15.831  13.039   8.519
    4AU     LIG 1576  15.945  12.680   8.763
    4AU     LIG 1577  16.265  12.442   8.985
    4AU     LIG 1578  16.585  12.288   9.262
    4AU     LIG 1579  16.716  12.240   9.700
    4AU       S 1580  16.172  14.091   8.271
    4AU     LIG 1581  16.136  14.010   8.743
    4AU     LIG 1582  16.231  13.896   9.219
    4AU     LIG 1583  16.464  13.827   9.642
    4AU     LIG 1584  16.791  13.797   9.995
    4AU     LIG 1585  17.208  13.863  10.214
    4AU    AUSL 1586  15.515  14.050   8.398
    4AU    AUSL 1587  15.228  14.393   8.409
    4AU     AUL 1588  15.440  14.350   8.744
    4AU       S 1589  15.660  13.989   8.574
    4AU     LIG 1590  15.499  13.843   8.933
    4AU     LIG 1591  15.751  13.687   9.309
    4AU     LIG 1592  16.015  13.550   9.690
    4AU     LIG 1593  16.087  13.336  10.125
    4AU     LIG 1594  16.023  13.134  10.566
    4AU       S 1595  15.052  14.130   8.665
    4AU     LIG 1596  15.045  14.011   9.130
    4AU     LIG 1597  14.743  14.037   9.484
    4AU     LIG 1598  14.518  14.053   9.893
    4AU     LIG 1599  14.393  14.357  10.242
    4AU     LIG 1600  14.356  14.691  10.583
    4AU    AUSL 1601  15.637  14.467   8.347
    4AU    AUSL 1602  15.989  14.524   8.077
    4AU     AUL 1603  15.919  14.400   8.486
    4AU       S 1604  15.522  14.760   8.483
    4AU     LIG 1605  15.792  14.720   8.854
    4AU     LIG 1606  16.038  14.814   9.257
    4AU     LIG 1607  16.008  14.975   9.716
    4AU     LIG 1608  16.010  15.010  10.194
    4AU     LIG 1609  15.939  15.005  10.668
    4AU       S 1610  16.064  14.777   8.264
    4AU     LIG 1611  16.425  14.517   8.356
    4AU     LIG 1612  16.751  14.643   8.688
    4AU     LIG 1613  17.026  14.940   8.970
    4AU     LIG 1614  17.283  15.280   9.196
    4AU     LIG 1615  17.611  15.611   9.311
    4AU    AUSL 1616  15.891  14.332   6.777
    4AU    AUSL 1617  15.673  14.654   6.988
    4AU     AUL 1618  15.795  14.712   6.649
    4AU       S 1619  15.850  14.386   6.335
    4AU     LIG 1620  16.227  14.242   6.136
    4AU     LIG 1621  16.324  13.939   5.825
    4AU     LIG 1622  16.417  13.804   5.397
    4AU     LIG 1623  16.769  13.727   5.090
    4AU     LIG 1624  17.059  13.898   4.760
    4AU       S 1625  16.122  14.920   6.895
    4AU     LIG 1626  16.232  15.084   6.504
    4AU     LIG 1627  16.432  15.274   6.119
    4AU     LIG 1628  16.693  15.507   5.810
    4AU     LIG 1629  16.856  15.692   5.408
    4AU     LIG 1630  16.751  15.962   5.032
    4AU    AUSL 1631  15.664  14.003   6.617
    4AU    AUSL 1632  16.013  13.952   6.931
    4AU     AUL 1633  16.077  14.079   6.621
    4AU       S 1634  16.184  13.627   6.711
    4AU     LIG 1635  16.302  13.200   6.476
    4AU     LIG 1636  16.492  12.773   6.380
    4AU     LIG 1637  16.751  12.501   6.086
    4AU     LIG 1638  17.075  12.564   5.744
    4AU     LIG 1639  17.493  12.610   5.527
    4AU       S 1640  15.758  14.246   6.315
    4AU     LIG 1641  15.855  13.867   6.102
    4AU     LIG 1642  15.940  13.641   5.667
    4AU     LIG 1643  15.991  13.596   5.189
    4AU     LIG 1644  16.022  13.509   4.716
    4AU     LIG 1645  16.034  13.539   4.235
    4AU    AUSL 1646  15.467  14.380   6.720
    4AU    AUSL 1647  15.248  13.984   6.730
    4AU     AUL 1648  15.408  13.991   6.452
    4AU       S 1649  14.974  14.007   6.291
    4AU     LIG 1650  14.880  13.846   5.881
    4AU     LIG 1651  14.687  13.605   5.534
    4AU     LIG 1652  14.571  13.352   5.170
    4AU     LIG 1653  14.503  13.171   4.757
    4AU     LIG 1654  14.266  13.282   4.382
    4AU       S 1655  15.515  14.445   6.387
    4AU     LIG 1656  15.481  14.247   5.928
    4AU     LIG 1657  15.866  14.149   5.643
    4AU     LIG 1658  16.032  14.123   5.188
    4AU     LIG 1659  15.983  14.312   4.736
    4AU     LIG 1660  16.079  14.546   4.324
    4AU    AUSL 1661  14.829  14.322   8.263
    4AU    AUSL 1662  15.102  14.667   8.114
    4AU     AUL 1663  14.974  14.625   8.459
    4AU       S 1664  14.885  14.252   8.728
    4AU     LIG 1665  14.565  14.006   8.902
    4AU     LIG 1666  14.300  13.885   9.273
    4AU     LIG 1667  14.115  13.785   9.684
    4AU     LIG 1668  13.730  13.829   9.937
    4AU     LIG 1669  13.420  13.856  10.280
    4AU       S 1670  14.669  14.916   8.217
    4AU     LIG 1671  14.756  15.057   8.633
    4AU     LIG 1672  14.744  15.457   8.894
    4AU     LIG 1673  14.598  15.634   9.321
    4AU     LIG 1674  14.426  15.719   9.774
    4AU     LIG 1675  14.163  15.838  10.160
    4AU    AUSL 1676  15.139  14.025   8.199
    4AU    AUSL 1677  14.686  13.953   8.103
    4AU     AUL 1678  14.693  14.035   8.370
    4AU       S 1679  14.509  13.606   8.263
    4AU     LIG 1680  14.089  13.612   8.168
    4AU     LIG 1681  13.848  13.261   8.359
    4AU     LIG 1682  13.597  12.924   8.584
    4AU     LIG 1683  13.337  12.582   8.793
    4AU     LIG 1684  12.973  12.405   9.014
    4AU       S 1685  15.102  13.954   8.584
    4AU     LIG 1686  14.917  13.639   8.801
    4AU     LIG 1687  14.723  13.590   9.219
    4AU     LIG 1688  14.589  13.571   9.677
    4AU     LIG 1689  14.535  13.375  10.117
    4AU     LIG 1690  14.496  13.243  10.575
    4AU    AUSL 1691  14.830  14.060   6.768
    4AU    AUSL 1692  15.024  13.703   6.955
    4AU     AUL 1693  15.072  13.691   6.625
    4AU       S 1694  14.774  13.942   6.380
    4AU     LIG 1695  14.419  13.922   6.136
    4AU     LIG 1696  14.254  13.696   5.784
    4AU     LIG 1697  14.183  13.690   5.331
    4AU     LIG 1698  13.797  13.726   5.051
    4AU     LIG 1699  13.566  14.034   4.776
    4AU       S 1700  14.650  13.571   6.769
    4AU     LIG 1701  14.366  13.272   6.551
    4AU     LIG 1702  14.110  12.884   6.502
    4AU     LIG 1703  13.911  12.564   6.202
    4AU     LIG 1704  13.704  12.303   5.854
    4AU     LIG 1705  13.750  12.042   5.452
    4AU    AUSL 1706  15.069  14.375   6.585
    4AU    AUSL 1707  14.663  14.432   6.915
    4AU     AUL 1708  14.678  14.329   6.598
    4AU       S 1709  14.398  14.672   6.719
    4AU     LIG 1710  14.122  14.865   6.441
    4AU     LIG 1711  14.049  14.900   5.991
    4AU     LIG 1712  13.752  14.921   5.630
    4AU     LIG 1713  13.395  15.090   5.362
    4AU     LIG 1714  13.210  15.465   5.130
    4AU       S 1715  15.044  14.267   6.310
    4AU     LIG 1716  14.701  14.331   6.002
    4AU     LIG 1717  14.526  14.108   5.604
    4AU     LIG 1718  14.499  14.127   5.123
    4AU     LIG 1719  14.548  14.416   4.716
    4AU     LIG 1720  14.587  14.678   4.303
    4AU    AUSL 1721  16.102  14.614   7.541
    4AU    AUSL 1722  16.058  14.502   7.123
    4AU     AUL 1723  16.361  14.756   7.350
    4AU       S 1724  16.170  14.678   6.945
    4AU     LIG 1725  16.296  14.568   6.545
    4AU     LIG 1726  16.601  14.794   6.267
    4AU     LIG 1727  16.909  15.085   6.046
    4AU     LIG 1728  17.135  15.274   5.674
    4AU     LIG 1729  17.522  15.270   5.415
    4AU       S 1730  16.605  14.478   7.663
    4AU     LIG 1731  17.054  14.539   7.559
    4AU     LIG 1732  17.469  14.761   7.484
    4AU     LIG 1733  17.760  15.160   7.413
    4AU     LIG 1734  18.100  15.505   7.580
    4AU     LIG 1735  18.475  15.760   7.705
    4AU    AUSL 1736  16.299  14.251   7.366
    4AU    AUSL 1737  16.257  13.888   7.676
    4AU     AUL 1738  16.565  13.921   7.462
    4AU       S 1739  16.511  14.360   7.529
    4AU     LIG 1740  16.852  14.237   7.210
    4AU     LIG 1741  17.323  14.320   7.159
    4AU     LIG 1742  17.768  14.483   7.052
    4AU     LIG 1743  18.137  14.800   6.932
    4AU     LIG 1744  18.475  15.171   6.869
    4AU       S 1745  16.451  13.490   7.641
    4AU     LIG 1746  16.873  13.589   7.747
    4AU     LIG 1747  17.202  13.269   7.711
    4AU     LIG 1748  17.626  13.105   7.644
    4AU     LIG 1749  18.006  13.162   7.887
    4AU     LIG 1750  18.236  13.080   8.265
    4AU    AUSL 1751  16.095  14.261   7.771
    4AU    AUSL 1752  15.924  14.877   7.818
    4AU     AUL 1753  16.231  14.670   7.847
    4AU       S 1754  16.112  15.057   8.091
    4AU     LIG 1755  16.516  15.003   8.259
    4AU     LIG 1756  16.692  15.151   8.632
    4AU     LIG 1757  16.950  15.442   8.832
    4AU     LIG 1758  17.290  15.719   8.906
    4AU     LIG 1759  17.377  16.063   9.168
    4AU       S 1760  16.452  14.265   7.859
    4AU     LIG 1761  16.904  14.251   7.987
    4AU     LIG 1762  17.342  14.430   7.960
    4AU     LIG 1763  17.738  14.664   7.946
    4AU     LIG 1764  18.175  14.708   8.156
    4AU     LIG 1765  18.547  14.937   8.125
    4AU    AUSL 1766  14.670  14.762   7.517
    4AU    AUSL 1767  14.735  14.548   7.916
    4AU     AUL 1768  14.425  14.853   7.764
    4AU       S 1769  14.580  14.692   8.163
    4AU     LIG 1770  14.452  14.498   8.555
    4AU     LIG 1771  14.070  14.527   8.858
    4AU     LIG 1772  13.779  14.820   9.089
    4AU     LIG 1773  13.501  15.073   9.383
    4AU     LIG 1774  13.214  15.185   9.748
    4AU       S 1775  14.647  15.127   7.439
    4AU     LIG 1776  14.163  15.061   7.376
    4AU     LIG 1777  13.691  15.237   7.457
    4AU     LIG 1778  13.312  15.532   7.584
    4AU     LIG 1779  12.988  15.875   7.688
    4AU     LIG 1780  12.690  16.149   7.515
    4AU    AUSL 1781  14.624  14.380   7.324
    4AU    AUSL 1782  14.762  14.812   7.105
    4AU     AUL 1783  14.457  14.686   7.186
    4AU       S 1784  14.253  14.234   6.971
    4AU     LIG 1785  13.962  14.631   6.935
    4AU     LIG 1786  13.497  14.684   6.780
    4AU     LIG 1787  13.063  14.937   6.787
    4AU     LIG 1788  12.674  15.251   6.809
    4AU     LIG 1789  12.193  15.243   6.572
    4AU       S 1790  14.602  15.070   6.922
    4AU     LIG 1791  14.476  15.260   6.494
    4AU     LIG 1792  14.236  15.505   6.166
    4AU     LIG 1793  14.041  15.937   6.038
    4AU     LIG 1794  13.827  16.294   5.811
    4AU     LIG 1795  13.347  16.458   5.779
    4AU    AUSL 1796  14.404  14.406   7.706
    4AU    AUSL 1797  14.377  14.051   7.384
    4AU     AUL 1798  14.214  14.380   7.424
    4AU       S 1799  14.109  13.948   7.593
    4AU     LIG 1800  13.870  13.913   7.216
    4AU     LIG 1801  13.441  13.728   7.116
    4AU     LIG 1802  12.971  13.555   7.137
    4AU     LIG 1803  12.485  13.571   7.184
    4AU     LIG 1804  12.060  13.360   7.135
    4AU       S 1805  14.279  14.347   7.925
    4AU     LIG 1806  13.936  14.689   7.939
    4AU     LIG 1807  13.534  14.970   8.100
    4AU     LIG 1808  13.031  15.041   8.125
    4AU     LIG 1809  12.575  15.227   8.249
    4AU     LIG 1810  12.105  15.118   8.225
    4AU    AUSL 1811  15.982  13.588   7.540
    4AU    AUSL 1812  15.884  13.854   7.888
    4AU     AUL 1813  16.187  13.739   7.927
    4AU       S 1814  16.145  13.403   7.534
    4AU     LIG 1815  16.421  12.990   7.563
    4AU     LIG 1816  16.887  12.924   7.450
    4AU     LIG 1817  17.317  12.740   7.436
    4AU     LIG 1818  17.745  12.547   7.469
    4AU     LIG 1819  18.153  12.599   7.681
    4AU       S 1820  16.088  13.309   8.029
    4AU     LIG 1821  16.294  12.959   8.271
    4AU     LIG 1822  16.439  12.835   8.682
    4AU     LIG 1823  16.775  12.595   8.905
    4AU     LIG 1824  17.065  12.486   9.264
    4AU     LIG 1825  17.501  12.472   9.451
    4AU    AUSL 1826  15.991  13.971   7.346
    4AU    AUSL 1827  15.939  13.564   7.121
    4AU     AUL 1828  16.217  13.785   7.179
    4AU       S 1829  16.412  13.457   7.410
    4AU     LIG 1830  16.870  13.413   7.274
    4AU     LIG 1831  17.314  13.225   7.220
    4AU     LIG 1832  17.711  12.966   7.165
    4AU     LIG 1833  18.141  13.050   7.067
    4AU     LIG 1834  18.588  12.985   6.941
    4AU       S 1835  16.141  13.407   6.898
    4AU     LIG 1836  16.075  12.905   6.872
    4AU     LIG 1837  16.271  12.445   6.711
    4AU     LIG 1838  16.589  12.163   6.446
    4AU     LIG 1839  16.856  11.755   6.347
    4AU     LIG 1840  17.252  11.504   6.471
    4AU    AUSL 1841  14.558  13.690   7.552
    4AU    AUSL 1842  14.697  13.920   7.142
    4AU     AUL 1843  14.351  13.768   7.237
    4AU       S 1844  14.533  13.711   6.822
    4AU     LIG 1845  14.088  13.602   6.845
    4AU     LIG 1846  13.797  13.269   6.743
    4AU     LIG 1847  13.605  12.951   6.448
    4AU     LIG 1848  13.411  12.649   6.139
    4AU     LIG 1849  13.167  12.495   5.768
    4AU       S 1850  14.154  13.642   7.646
    4AU     LIG 1851  13.911  13.418   7.312
    4AU     LIG 1852  13.502  13.195   7.188
    4AU     LIG 1853  13.035  13.038   7.285
    4AU     LIG 1854  12.682  12.711   7.400
    4AU     LIG 1855  12.312  12.484   7.206
    4AU    AUSL 1856  14.667  14.086   7.706
    4AU    AUSL 1857  14.874  13.694   7.826
    4AU     AUL 1858  14.483  13.867   7.886
    4AU       S 1859  14.552  13.437   8.023
    4AU     LIG 1860  14.175  13.152   7.956
    4AU     LIG 1861  13.877  12.795   8.136
    4AU     LIG 1862  13.637  12.442   8.385
    4AU     LIG 1863  13.515  12.098   8.714
    4AU     LIG 1864  13.305  11.669   8.761
    4AU       S 1865  14.071  13.933   7.724
    4AU     LIG 1866  13.641  13.742   7.639
    4AU     LIG 1867  13.185  13.723   7.576
    4AU     LIG 1868  12.745  13.594   7.627
    4AU     LIG 1869  12.430  13.460   7.940
    4AU     LIG 1870  12.048  13.213   8.014
    4AU    AUSL 1871  15.336  14.996   7.985
    4AU    AUSL 1872  14.924  14.923   7.818
    4AU     AUL 1873  15.125  15.013   8.216
    4AU       S 1874  14.788  15.128   7.917
    4AU     LIG 1875  14.768  15.437   8.296
    4AU     LIG 1876  14.392  15.638   8.554
    4AU     LIG 1877  14.262  16.122   8.655
    4AU     LIG 1878  13.893  16.451   8.730
    4AU     LIG 1879  13.459  16.466   8.886
    4AU       S 1880  15.381  15.339   7.953
    4AU     LIG 1881  15.322  15.489   8.333
    4AU     LIG 1882  15.512  15.847   8.553
    4AU     LIG 1883  15.630  16.165   8.882
    4AU     LIG 1884  15.755  16.545   9.135
    4AU     LIG 1885  15.789  16.987   9.304
    4AU    AUSL 1886  15.186  15.144   7.574
    4AU    AUSL 1887  15.507  15.072   7.230
    4AU     AUL 1888  15.404  15.432   7.370
    4AU       S 1889  15.216  15.406   7.795
    4AU     LIG 1890  15.448  15.824   7.936
    4AU     LIG 1891  15.485  16.228   8.187
    4AU     LIG 1892  15.269  16.627   8.286
    4AU     LIG 1893  15.254  17.110   8.241
    4AU     LIG 1894  15.210  17.561   8.382
    4AU       S 1895  15.227  15.293   6.979
    4AU     LIG 1896  15.644  15.575   6.965
    4AU     LIG 1897  15.832  16.024   6.886
    4AU     LIG 1898  15.987  16.446   6.667
    4AU     LIG 1899  16.254  16.847   6.536
    4AU     LIG 1900  16.370  17.284   6.495
    4AU    AUSL 1901  15.558  14.924   7.625
    4AU    AUSL 1902  15.586  14.661   7.991
    4AU     AUL 1903  15.653  14.982   8.062
    4AU       S 1904  15.970  14.897   8.377
    4AU     LIG 1905  16.270  14.846   8.724
    4AU     LIG 1906  16.522  14.959   9.086
    4AU     LIG 1907  16.770  15.289   9.295
    4AU     LIG 1908  16.807  15.655   9.590
    4AU     LIG 1909  16.627  15.932   9.939
    4AU       S 1910  15.645  15.276   7.718
    4AU     LIG 1911  15.836  15.518   8.076
    4AU     LIG 1912  15.944  15.998   8.130
    4AU     LIG 1913  16.150  16.463   8.032
    4AU     LIG 1914  16.229  16.961   8.063
    4AU     LIG 1915  16.211  17.251   8.461
    4AU    AUSL 1916  15.281  13.540   7.949
    4AU    AUSL 1917  15.699  13.470   7.829
    4AU     AUL 1918  15.470  13.399   8.207
    4AU       S 1919  15.317  13.009   8.008
    4AU     LIG 1920  15.419  12.804   8.331
    4AU     LIG 1921  15.436  12.384   8.376
    4AU     LIG 1922  15.323  11.975   8.535
    4AU     LIG 1923  15.280  11.531   8.651
    4AU     LIG 1924  15.369  11.152   8.889
    4AU       S 1925  15.831  13.284   7.903
    4AU     LIG 1926  15.848  12.810   8.038
    4AU     LIG 1927  16.090  12.482   8.317
    4AU     LIG 1928  16.493  12.349   8.543
    4AU     LIG 1929  16.694  12.000   8.812
    4AU     LIG 1930  16.974  11.589   8.800
    4AU    AUSL 1931  14.971  13.320   7.682
    4AU    AUSL 1932  14.994  13.641   8.243
    4AU     AUL 1933  15.000  13.353   8.036
    4AU       S 1934  15.096  12.933   7.845
    4AU     LIG 1935  15.010  12.555   8.109
    4AU     LIG 1936  14.948  12.093   8.201
    4AU     LIG 1937  14.961  11.611   8.247
    4AU     LIG 1938  14.723  11.172   8.311
    4AU     LIG 1939  14.503  10.818   8.558
    4AU       S 1940  14.707  13.527   8.359
    4AU     LIG 1941  14.389  13.157   8.429
    4AU     LIG 1942  14.105  12.836   8.594
    4AU     LIG 1943  13.851  12.534   8.841
    4AU     LIG 1944  13.623  12.349   9.193
    4AU     LIG 1945  13.735  12.306   9.656
    4AU    AUSL 1946  15.395  13.265   7.630
    4AU    AUSL 1947  15.161  13.486   7.334
    4AU     AUL 1948  15.053  13.141   7.425
    4AU       S 1949  15.447  13.031   7.219
    4AU     LIG 1950  15.188  12.629   7.155
    4AU     LIG 1951  14.946  12.266   6.974
    4AU     LIG 1952  14.659  11.904   6.867
    4AU     LIG 1953  14.531  11.458   6.764
    4AU     LIG 1954  14.787  11.069   6.627
    4AU       S 1955  15.411  13.044   7.759
    4AU     LIG 1956  15.452  12.547   7.855
    4AU     LIG 1957  15.407  12.070   7.981
    4AU     LIG 1958  15.496  11.643   8.195
    4AU     LIG 1959  15.533  11.198   8.254
    4AU     LIG 1960  15.686  10.907   8.567
    4AU    AUSL 1961  15.336  14.863   6.864
    4AU    AUSL 1962  15.875  14.876   7.296
    4AU     AUL 1963  15.662  15.041   6.952
    4AU       S 1964  15.265  15.237   6.772
    4AU     LIG 1965  15.507  15.502   6.491
    4AU     LIG 1966  15.625  15.958   6.422
    4AU     LIG 1967  15.730  16.356   6.171
    4AU     LIG 1968  15.749  16.696   5.816
    4AU     LIG 1969  15.698  17.051   5.480
    4AU       S 1970  16.082  15.049   7.138
    4AU     LIG 1971  16.537  15.157   6.952
    4AU     LIG 1972  16.746  15.246   6.532
    4AU     LIG 1973  16.968  15.570   6.253
    4AU     LIG 1974  17.188  16.006   6.184
    4AU     LIG 1975  17.336  16.346   5.882
    4AU    AUSL 1976  15.138  14.863   7.267
    4AU    AUSL 1977  15.077  14.544   6.963
    4AU     AUL 1978  15.015  14.851   6.838
    4AU       S 1979  15.045  15.227   7.118
    4AU     LIG 1980  15.156  15.759   7.028
    4AU     LIG 1981  15.315  16.176   6.859
    4AU     LIG 1982  15.110  16.623   6.806
    4AU     LIG 1983  14.808  17.018   6.794
    4AU     LIG 1984  14.757  17.495   6.641
    4AU       S 1985  14.624  14.805   6.626
    4AU     LIG 1986  14.564  14.855   6.164
    4AU     LIG 1987  14.467  15.181   5.818
    4AU     LIG 1988  14.486  15.450   5.409
    4AU     LIG 1989  14.411  15.758   5.049
    4AU     LIG 1990  14.105  16.006   4.789
    4AU    AUSL 1991  15.352  13.434   6.947
    4AU    AUSL 1992  14.757  13.492   7.231
    4AU     AUL 1993  15.017  13.327   6.991
    4AU       S 1994  14.561  13.428   7.000
    4AU     LIG 1995  14.215  13.116   7.021
    4AU     LIG 1996  13.858  12.805   6.945
    4AU     LIG 1997  13.668  12.483   6.650
    4AU     LIG 1998  13.524  12.168   6.325
    4AU     LIG 1999  13.554  11.748   6.102
    4AU       S 2000  15.407  13.064   7.060
    4AU     LIG 2001  15.502  12.774   6.730
    4AU     LIG 2002  15.272  12.399   6.588
    4AU     LIG 2003  15.123  11.960   6.573
    4AU     LIG 2004  15.274  11.587   6.314
    4AU     LIG 2005  15.447  11.175   6.138
    4AU    AUSL 2006  15.589  13.468   7.321
    4AU    AUSL 2007  15.601  13.772   6.956
    4AU     AUL 2008  15.678  13.408   6.928
    4AU       S 2009  15.704  13.119   7.299
    4AU     LIG 2010  15.711  12.611   7.163
    4AU     LIG 2011  15.461  12.195   7.020
    4AU     LIG 2012  15.536  11.771   6.805
    4AU     LIG 2013  15.507  11.296   6.669
    4AU     LIG 2014  15.689  10.883   6.505
    4AU       S 2015  15.930  13.604   6.605
    4AU     LIG 2016  15.796  13.160   6.514
    4AU     LIG 2017  15.962  12.733   6.396
    4AU     LIG 2018  16.210  12.400   6.158
    4AU     LIG 2019  16.416  12.180   5.788
    4AU     LIG 2020  16.489  12.097   5.314
    5AU     AUC 2021  41.169   5.260   7.515
    5AU     AUC 2022  41.438   5.273   7.337
    5AU     AUC 2023  41.449   5.257   7.689
    5AU     AUC 2024  40.883   5.251   7.340
    5AU     AUC 2025  40.911   5.293   7.700
    5AU     AUC 2026  40.991   5.536   7.513
    5AU     AUC 2027  41.354   5.539   7.504
    5AU     AUC 2028  40.983   4.989   7.519
    5AU     AUC 2029  41.332   4.970   7.516
    5AU     AUC 2030  41.174   5.096   7.799
    5AU     AUC 2031  41.169   5.440   7.788
    5AU     AUC 2032  41.160   5.090   7.236
    5AU     AUC 2033  41.175   5.415   7.231
    5AU     AUC 2034  41.746   5.277   7.161
    5AU     AUC 2035  41.777   5.226   7.525
    5AU     AUC 2036  41.733   5.235   7.855
    5AU     AUC 2037  40.583   5.235   7.165
    5AU     AUC 2038  40.561   5.284   7.526
    5AU     AUC 2039  40.612   5.315   7.890
    5AU     AUC 2040  40.816   5.839   7.493
    5AU     AUC 2041  41.169   5.864   7.474
    5AU     AUC 2042  41.534   5.830   7.492
    5AU     AUC 2043  40.779   4.707   7.528
    5AU     AUC 2044  41.138   4.660   7.511
    5AU     AUC 2045  41.491   4.668   7.507
    5AU     AUC 2046  41.159   4.931   8.092
    5AU     AUC 2047  41.202   5.299   8.128
    5AU     AUC 2048  41.188   5.633   8.068
    5AU     AUC 2049  41.186   4.910   6.961
    5AU     AUC 2050  41.170   5.250   6.899
    5AU     AUC 2051  41.158   5.581   6.929
    5AU     AUC 2052  41.457   5.078   8.012
    5AU     AUC 2053  41.491   5.446   7.995
    5AU     AUC 2054  41.489   5.119   7.002
    5AU     AUC 2055  41.478   5.442   7.036
    5AU     AUC 2056  40.867   5.124   8.028
    5AU     AUC 2057  40.890   5.482   8.005
    5AU     AUC 2058  40.865   5.057   7.050
    5AU     AUC 2059  40.845   5.386   7.001
    5AU     AUC 2060  41.687   5.542   7.356
    5AU     AUC 2061  41.663   5.545   7.698
    5AU     AUC 2062  40.686   5.550   7.317
    5AU     AUC 2063  40.683   5.596   7.691
    5AU     AUC 2064  41.629   4.956   7.333
    5AU     AUC 2065  41.615   4.910   7.700
    5AU     AUC 2066  40.650   4.939   7.359
    5AU     AUC 2067  40.709   5.001   7.715
    5AU     AUC 2068  40.986   5.792   7.785
    5AU     AUC 2069  41.353   5.748   7.765
    5AU     AUC 2070  40.961   4.798   7.818
    5AU     AUC 2071  41.308   4.755   7.803
    5AU     AUC 2072  40.989   5.694   7.193
    5AU     AUC 2073  41.369   5.745   7.205
    5AU     AUC 2074  40.974   4.775   7.224
    5AU     AUC 2075  41.364   4.797   7.215
    5AU    AUSL 2076  41.740   5.215   8.202
    5AU    AUSL 2077  41.453   4.775   8.194
    5AU     AUL 2078  41.785   4.805   8.345
    5AU       S 2079  41.752   4.362   8.218
    5AU     LIG 2080  41.737   4.263   8.611
    5AU     LIG 2081  41.922   3.890   8.785
    5AU     LIG 2082  42.151   3.536   8.981
    5AU     LIG 2083  42.396   3.388   9.345
    5AU     LIG 2084  42.502   3.486   9.796
    5AU       S 2085  42.010   5.193   8.264
    5AU     LIG 2086  42.002   5.107   8.715
    5AU     LIG 2087  42.092   4.915   9.140
    5AU     LIG 2088  42.336   4.796   9.526
    5AU     LIG 2089  42.674   4.847   9.848
    5AU     LIG 2090  42.896   4.957  10.252
    5AU    AUSL 2091  41.357   5.130   8.403
    5AU    AUSL 2092  41.059   5.461   8.416
    5AU     AUL 2093  41.268   5.431   8.741
    5AU       S 2094  41.519   5.083   8.586
    5AU     LIG 2095  41.511   4.704   8.768
    5AU     LIG 2096  41.733   4.531   9.155
    5AU     LIG 2097  41.910   4.494   9.609
    5AU     LIG 2098  41.952   4.288  10.051
    5AU     LIG 2099  41.894   4.166  10.514
    5AU       S 2100  40.888   5.189   8.686
    5AU     LIG 2101  40.790   5.065   9.164
    5AU     LIG 2102  40.519   5.018   9.563
    5AU     LIG 2103  40.345   5.073  10.005
    5AU     LIG 2104  40.283   5.391  10.365
    5AU     LIG 2105  40.228   5.726  10.711
    5AU    AUSL 2106  41.464   5.548   8.344
    5AU    AUSL 2107  41.809   5.617   8.068
    5AU     AUL 2108  41.755   5.503   8.478
    5AU       S 2109  41.324   5.852   8.478
    5AU     LIG 2110  41.573   5.822   8.854
    5AU     LIG 2111  41.864   5.865   9.244
    5AU     LIG 2112  41.865   5.877   9.744
    5AU     LIG 2113  41.807   5.990  10.224
    5AU     LIG 2114  41.890   6.130  10.683
    5AU       S 2115  41.871   5.889   8.253
    5AU     LIG 2116  42.249   5.648   8.318
    5AU     LIG 2117  42.555   5.763   8.668
    5AU     LIG 2118  42.825   5.952   9.013
    5AU     LIG 2119  43.112   6.244   9.243
    5AU     LIG 2120  43.508   6.361   9.481
    5AU    AUSL 2121  41.696   5.403   6.764
    5AU    AUSL 2122  41.472   5.718   6.974
    5AU     AUL 2123  41.592   5.782   6.636
    5AU       S 2124  41.652   5.446   6.333
    5AU     LIG 2125  42.060   5.348   6.169
    5AU     LIG 2126  42.207   5.034   5.892
    5AU     LIG 2127  42.257   4.919   5.464
    5AU     LIG 2128  42.519   4.975   5.088
    5AU     LIG 2129  42.954   4.904   4.897
    5AU       S 2130  41.963   5.936   6.851
    5AU     LIG 2131  42.146   6.033   6.439
    5AU     LIG 2132  42.375   6.153   6.027
    5AU     LIG 2133  42.601   6.422   5.690
    5AU     LIG 2134  42.624   6.781   5.362
    5AU     LIG 2135  42.628   7.085   4.992
    5AU    AUSL 2136  41.472   5.067   6.618
    5AU    AUSL 2137  41.827   5.028   6.927
    5AU     AUL 2138  41.895   5.164   6.629
    5AU       S 2139  41.963   4.710   6.691
    5AU     LIG 2140  42.090   4.404   6.354
    5AU     LIG 2141  42.349   4.014   6.275
    5AU     LIG 2142  42.649   3.743   6.037
    5AU     LIG 2143  43.052   3.770   5.758
    5AU     LIG 2144  43.457   3.986   5.591
    5AU       S 2145  41.576   5.270   6.303
    5AU     LIG 2146  41.765   4.904   6.154
    5AU     LIG 2147  41.857   4.679   5.738
    5AU     LIG 2148  41.855   4.666   5.252
    5AU     LIG 2149  41.884   4.461   4.806
    5AU     LIG 2150  41.953   4.386   4.330
    5AU    AUSL 2151  41.273   5.446   6.701
    5AU    AUSL 2152  41.060   5.044   6.745
    5AU     AUL 2153  41.202   5.065   6.454
    5AU       S 2154  40.764   5.059   6.310
    5AU     LIG 2155  40.777   4.805   5.950
    5AU     LIG 2156  40.524   4.564   5.654
    5AU     LIG 2157  40.329   4.583   5.227
    5AU     LIG 2158  40.373   4.551   4.741
    5AU     LIG 2159  40.328   4.379   4.277
    5AU       S 2160  41.325   5.506   6.359
    5AU     LIG 2161  41.414   5.353   5.863
    5AU     LIG 2162  41.777   5.167   5.588
    5AU     LIG 2163  41.948   5.177   5.138
    5AU     LIG 2164  41.960   5.397   4.714
    5AU     LIG 2165  41.874   5.625   4.303
    5AU    AUSL 2166  40.661   5.380   8.281
    5AU    AUSL 2167  40.926   5.728   8.120
    5AU     AUL 2168  40.804   5.685   8.470
    5AU       S 2169  40.723   5.309   8.737
    5AU     LIG 2170  40.346   5.120   8.877
    5AU     LIG 2171  40.107   4.964   9.251
    5AU     LIG 2172  40.013   4.820   9.693
    5AU     LIG 2173  39.779   4.782  10.102
    5AU     LIG 2174  39.463   5.006  10.385
    5AU       S 2175  40.480   5.953   8.237
    5AU     LIG 2176  40.541   6.102   8.654
    5AU     LIG 2177  40.332   6.434   8.931
    5AU     LIG 2178  40.208   6.702   9.303
    5AU     LIG 2179  40.031   6.860   9.712
    5AU     LIG 2180  40.098   7.025  10.163
    5AU    AUSL 2181  40.977   5.088   8.212
    5AU    AUSL 2182  40.520   5.015   8.112
    5AU     AUL 2183  40.537   5.079   8.385
    5AU       S 2184  40.337   4.654   8.272
    5AU     LIG 2185  39.923   4.587   8.125
    5AU     LIG 2186  39.566   4.285   8.126
    5AU     LIG 2187  39.423   3.953   8.470
    5AU     LIG 2188  39.240   3.683   8.840
    5AU     LIG 2189  39.076   3.467   9.242
    5AU       S 2190  40.951   5.012   8.593
    5AU     LIG 2191  40.674   4.732   8.791
    5AU     LIG 2192  40.497   4.629   9.209
    5AU     LIG 2193  40.427   4.518   9.664
    5AU     LIG 2194  40.249   4.552  10.095
    5AU     LIG 2195  40.248   4.351  10.522
    5AU    AUSL 2196  40.635   5.103   6.781
    5AU    AUSL 2197  40.845   4.749   6.961
    5AU     AUL 2198  40.894   4.745   6.632
    5AU       S 2199  40.574   4.980   6.397
    5AU     LIG 2200  40.285   4.750   6.137
    5AU     LIG 2201  40.031   4.702   5.743
    5AU     LIG 2202  39.922   4.892   5.339
    5AU     LIG 2203  39.663   5.033   4.983
    5AU     LIG 2204  39.240   5.147   4.816
    5AU       S 2205  40.485   4.604   6.791
    5AU     LIG 2206  40.347   4.204   6.622
    5AU     LIG 2207  39.915   4.049   6.504
    5AU     LIG 2208  39.658   3.808   6.191
    5AU     LIG 2209  39.620   3.539   5.801
    5AU     LIG 2210  39.608   3.502   5.322
    5AU    AUSL 2211  40.865   5.421   6.605
    5AU    AUSL 2212  40.518   5.505   6.910
    5AU     AUL 2213  40.435   5.349   6.622
    5AU       S 2214  40.538   5.791   6.649
    5AU     LIG 2215  40.242   6.057   6.426
    5AU     LIG 2216  40.014   6.116   6.011
    5AU     LIG 2217  39.735   6.190   5.633
    5AU     LIG 2218  39.365   6.264   5.338
    5AU     LIG 2219  38.983   6.520   5.189
    5AU       S 2220  40.812   5.329   6.335
    5AU     LIG 2221  40.488   5.246   5.950
    5AU     LIG 2222  40.393   5.043   5.526
    5AU     LIG 2223  40.319   5.076   5.048
    5AU     LIG 2224  40.286   5.373   4.667
    5AU     LIG 2225  40.339   5.684   4.301
    5AU    AUSL 2226  41.885   5.686   7.537
    5AU    AUSL 2227  41.853   5.565   7.119
    5AU     AUL 2228  42.130   5.849   7.358
    5AU       S 2229  41.998   5.710   6.939
    5AU     LIG 2230  42.248   5.560   6.610
    5AU     LIG 2231  42.608   5.753   6.332
    5AU     LIG 2232  42.883   6.069   6.080
    5AU     LIG 2233  43.236   6.276   5.857
    5AU     LIG 2234  43.424   6.359   5.426
    5AU       S 2235  42.421   5.595   7.644
    5AU     LIG 2236  42.831   5.797   7.548
    5AU     LIG 2237  43.172   6.050   7.772
    5AU     LIG 2238  43.634   6.156   7.885
    5AU     LIG 2239  43.992   6.485   7.907
    5AU     LIG 2240  44.243   6.891   7.765
    5AU    AUSL 2241  42.116   5.343   7.363
    5AU    AUSL 2242  42.090   4.975   7.666
    5AU     AUL 2243  42.384   5.031   7.434
    5AU       S 2244  42.327   5.468   7.520
    5AU     LIG 2245  42.650   5.464   7.195
    5AU     LIG 2246  43.126   5.467   7.211
    5AU     LIG 2247  43.551   5.694   6.976
    5AU     LIG 2248  44.033   5.873   6.978
    5AU     LIG 2249  44.452   6.239   6.974
    5AU       S 2250  42.296   4.601   7.625
    5AU     LIG 2251  42.714   4.504   7.767
    5AU     LIG 2252  43.078   4.219   7.840
    5AU     LIG 2253  43.482   4.014   7.971
    5AU     LIG 2254  43.938   3.960   8.062
    5AU     LIG 2255  44.365   3.987   8.221
    5AU    AUSL 2256  41.936   5.345   7.780
    5AU    AUSL 2257  41.738   5.973   7.804
    5AU     AUL 2258  42.043   5.754   7.843
    5AU       S 2259  41.935   6.144   8.094
    5AU     LIG 2260  42.313   6.157   8.380
    5AU     LIG 2261  42.652   6.305   8.681
    5AU     LIG 2262  42.982   6.597   8.874
    5AU     LIG 2263  43.305   6.972   8.840
    5AU     LIG 2264  43.546   7.399   8.855
    5AU       S 2265  42.300   5.359   7.837
    5AU     LIG 2266  42.800   5.284   7.694
    5AU     LIG 2267  43.231   5.528   7.723
    5AU     LIG 2268  43.673   5.629   7.855
    5AU     LIG 2269  44.089   5.886   7.904
    5AU     LIG 2270  44.261   6.161   8.229
    5AU    AUSL 2271  40.487   5.808   7.527
    5AU    AUSL 2272  40.557   5.593   7.929
    5AU     AUL 2273  40.239   5.903   7.771
    5AU       S 2274  40.393   5.729   8.168
    5AU     LIG 2275  40.314   5.621   8.609
    5AU     LIG 2276  40.154   5.923   8.958
    5AU     LIG 2277  39.901   6.253   9.216
    5AU     LIG 2278  39.507   6.344   9.498
    5AU     LIG 2279  39.117   6.324   9.790
    5AU       S 2280  40.475   6.191   7.455
    5AU     LIG 2281  40.021   6.229   7.416
    5AU     LIG 2282  39.658   6.570   7.434
    5AU     LIG 2283  39.236   6.805   7.373
    5AU     LIG 2284  38.810   6.921   7.220
    5AU     LIG 2285  38.479   7.167   7.048
    5AU    AUSL 2286  40.453   5.435   7.315
    5AU    AUSL 2287  40.597   5.879   7.127
    5AU     AUL 2288  40.291   5.737   7.157
    5AU       S 2289  40.111   5.279   6.972
    5AU     LIG 2290  39.733   5.546   7.000
    5AU     LIG 2291  39.358   5.730   6.729
    5AU     LIG 2292  39.018   6.059   6.799
    5AU     LIG 2293  38.567   6.138   6.744
    5AU     LIG 2294  38.126   6.280   6.728
    5AU       S 2295  40.402   6.144   6.924
    5AU     LIG 2296  40.633   6.408   6.624
    5AU     LIG 2297  40.510   6.753   6.306
    5AU     LIG 2298  40.276   7.178   6.247
    5AU     LIG 2299  39.952   7.553   6.315
    5AU     LIG 2300  39.577   7.852   6.235
    5AU    AUSL 2301  40.232   5.460   7.703
    5AU    AUSL 2302  40.207   5.108   7.393
    5AU     AUL 2303  40.053   5.440   7.418
    5AU       S 2304  39.947   5.007   7.598
    5AU     LIG 2305  39.585   5.052   7.349
    5AU     LIG 2306  39.187   4.964   7.534
    5AU     LIG 2307  38.812   4.710   7.458
    5AU     LIG 2308  38.352   4.679   7.364
    5AU     LIG 2309  38.043   4.720   7.006
    5AU       S 2310  40.106   5.394   7.921
    5AU     LIG 2311  39.730   5.638   8.000
    5AU     LIG 2312  39.231   5.628   8.098
    5AU     LIG 2313  38.888   5.907   8.354
    5AU     LIG 2314  38.467   6.044   8.546
    5AU     LIG 2315  37.998   6.075   8.487
    5AU    AUSL 2316  41.814   4.671   7.543
    5AU    AUSL 2317  41.723   4.936   7.891
    5AU     AUL 2318  42.029   4.832   7.922
    5AU       S 2319  41.985   4.490   7.546
    5AU     LIG 2320  42.290   4.103   7.639
    5AU     LIG 2321  42.746   3.963   7.547
    5AU     LIG 2322  43.207   3.785   7.572
    5AU     LIG 2323  43.535   3.497   7.804
    5AU     LIG 2324  43.971   3.468   7.958
    5AU       S 2325  41.934   4.411   8.057
    5AU     LIG 2326  42.173   4.117   8.345
    5AU     LIG 2327  42.417   3.834   8.634
    5AU     LIG 2328  42.669   3.600   8.956
    5AU     LIG 2329  42.874   3.597   9.398
    5AU     LIG 2330  43.207   3.579   9.746
    5AU    AUSL 2331  41.817   5.052   7.342
    5AU    AUSL 2332  41.771   4.641   7.125
    5AU     AUL 2333  42.038   4.863   7.169
    5AU       S 2334  42.245   4.549   7.412
    5AU     LIG 2335  42.667   4.402   7.266
    5AU     LIG 2336  43.080   4.142   7.189
    5AU     LIG 2337  43.488   3.962   7.012
    5AU     LIG 2338  43.887   4.005   6.782
    5AU     LIG 2339  44.356   4.015   6.717
    5AU       S 2340  41.971   4.509   6.854
    5AU     LIG 2341  42.073   4.058   6.747
    5AU     LIG 2342  42.201   3.618   6.575
    5AU     LIG 2343  42.432   3.299   6.325
    5AU     LIG 2344  42.581   2.835   6.359
    5AU     LIG 2345  42.818   2.516   6.090
    5AU    AUSL 2346  40.387   4.749   7.564
    5AU    AUSL 2347  40.532   4.970   7.163
    5AU     AUL 2348  40.174   4.838   7.227
    5AU       S 2349  40.365   4.727   6.828
    5AU     LIG 2350  39.989   4.568   6.615
    5AU     LIG 2351  39.551   4.373   6.685
    5AU     LIG 2352  39.317   4.009   6.508
    5AU     LIG 2353  38.905   3.948   6.277
    5AU     LIG 2354  38.644   3.807   5.904
    5AU       S 2355  40.017   4.688   7.640
    5AU     LIG 2356  39.752   4.304   7.598
    5AU     LIG 2357  39.408   4.008   7.681
    5AU     LIG 2358  38.958   4.103   7.720
    5AU     LIG 2359  38.535   3.954   7.746
    5AU     LIG 2360  38.332   3.587   7.529
    5AU    AUSL 2361  40.500   5.145   7.713
    5AU    AUSL 2362  40.709   4.759   7.833
    5AU     AUL 2363  40.315   4.931   7.904
    5AU       S 2364  40.419   4.505   8.020
    5AU     LIG 2365  40.169   4.201   7.866
    5AU     LIG 2366  39.836   3.883   7.952
    5AU     LIG 2367  39.575   3.554   8.185
    5AU     LIG 2368  39.297   3.305   8.487
    5AU     LIG 2369  39.205   3.098   8.894
    5AU       S 2370  39.907   4.980   7.728
    5AU     LIG 2371  39.556   4.736   7.813
    5AU     LIG 2372  39.265   4.500   7.694
    5AU     LIG 2373  38.928   4.629   7.943
    5AU     LIG 2374  38.490   4.687   7.880
    5AU     LIG 2375  38.141   4.418   7.851
    5AU    AUSL 2376  41.142   6.074   7.991
    5AU    AUSL 2377  40.724   5.978   7.837
    5AU     AUL 2378  40.933   6.074   8.230
    5AU       S 2379  40.591   6.173   7.935
    5AU     LIG 2380  40.550   6.460   8.290
    5AU     LIG 2381  40.439   6.823   8.594
    5AU     LIG 2382  40.090   6.977   8.880
    5AU     LIG 2383  39.678   7.228   9.011
    5AU     LIG 2384  39.470   7.653   8.858
    5AU       S 2385  41.133   6.434   7.979
    5AU     LIG 2386  41.332   6.467   8.354
    5AU     LIG 2387  41.395   6.880   8.577
    5AU     LIG 2388  41.460   7.316   8.739
    5AU     LIG 2389  41.500   7.731   8.970
    5AU     LIG 2390  41.447   7.902   9.402
    5AU    AUSL 2391  40.982   6.204   7.598
    5AU    AUSL 2392  41.322   6.174   7.245
    5AU     AUL 2393  40.980   6.422   7.356
    5AU       S 2394  41.197   6.501   7.764
    5AU     LIG 2395  41.243   6.923   8.039
    5AU     LIG 2396  41.168   7.291   8.316
    5AU     LIG 2397  41.206   7.712   8.544
    5AU     LIG 2398  40.965   8.142   8.480
    5AU     LIG 2399  40.859   8.517   8.743
    5AU       S 2400  41.294   6.496   7.018
    5AU     LIG 2401  41.603   6.830   6.940
    5AU     LIG 2402  41.617   7.296   6.835
    5AU     LIG 2403  41.885   7.673   6.858
    5AU     LIG 2404  42.119   8.072   6.843
    5AU     LIG 2405  42.273   8.513   6.817
    5AU    AUSL 2406  41.363   5.993   7.622
    5AU    AUSL 2407  41.409   5.755   7.996
    5AU     AUL 2408  41.473   6.112   8.010
    5AU       S 2409  41.754   5.998   8.356
    5AU     LIG 2410  42.047   5.888   8.723
    5AU     LIG 2411  42.318   6.088   9.014
    5AU     LIG 2412  42.609   6.392   9.214
    5AU     LIG 2413  42.640   6.688   9.587
    5AU     LIG 2414  42.605   6.912  10.009
    5AU       S 2415  41.423   6.395   7.651
    5AU     LIG 2416  41.656   6.634   7.989
    5AU     LIG 2417  41.689   7.091   8.211
    5AU     LIG 2418  41.635   7.566   8.285
    5AU     LIG 2419  41.956   7.929   8.310
    5AU     LIG 2420  42.278   8.308   8.237
    5AU    AUSL 2421  41.126   4.625   7.958
    5AU    AUSL 2422  41.543   4.548   7.840
    5AU     AUL 2423  41.310   4.491   8.227
    5AU       S 2424  41.204   4.082   8.038
    5AU     LIG 2425  41.022   3.771   8.313
    5AU     LIG 2426  40.927   3.318   8.313
    5AU     LIG 2427  40.848   2.848   8.293
    5AU     LIG 2428  40.819   2.416   8.509
    5AU     LIG 2429  40.696   2.161   8.895
    5AU       S 2430  41.675   4.374   7.922
    5AU     LIG 2431  41.781   3.906   8.028
    5AU     LIG 2432  42.035   3.616   8.342
    5AU     LIG 2433  42.351   3.314   8.560
    5AU     LIG 2434  42.546   3.078   8.923
    5AU     LIG 2435  42.841   2.723   9.084
    5AU    AUSL 2436  40.815   4.385   7.700
    5AU    AUSL 2437  40.829   4.703   8.248
    5AU     AUL 2438  40.865   4.413   8.045
    5AU       S 2439  40.956   3.992   7.865
    5AU     LIG 2440  40.726   3.597   7.911
    5AU     LIG 2441  40.536   3.169   8.001
    5AU     LIG 2442  40.309   2.853   8.273
    5AU     LIG 2443  40.320   2.409   8.387
    5AU     LIG 2444  40.505   1.981   8.386
    5AU       S 2445  40.544   4.575   8.342
    5AU     LIG 2446  40.302   4.155   8.369
    5AU     LIG 2447  39.937   3.863   8.455
    5AU     LIG 2448  39.715   3.522   8.693
    5AU     LIG 2449  39.577   3.392   9.116
    5AU     LIG 2450  39.497   3.489   9.577
    5AU    AUSL 2451  41.238   4.337   7.648
    5AU    AUSL 2452  40.998   4.544   7.342
    5AU     AUL 2453  40.881   4.212   7.461
    5AU       S 2454  41.231   4.100   7.201
    5AU     LIG 2455  40.808   3.852   7.133
    5AU     LIG 2456  40.658   3.404   7.097
    5AU     LIG 2457  40.432   3.023   6.900
    5AU     LIG 2458  40.270   2.601   6.716
    5AU     LIG 2459  40.475   2.278   6.457
    5AU       S 2460  41.258   4.111   7.774
    5AU     LIG 2461  41.259   3.594   7.864
    5AU     LIG 2462  41.267   3.097   7.979
    5AU     LIG 2463  41.517   2.653   8.027
    5AU     LIG 2464  41.824   2.342   8.241
    5AU     LIG 2465  41.953   1.905   8.393
    5AU    AUSL 2466  41.164   5.984   6.881
    5AU    AUSL 2467  41.685   5.951   7.270
    5AU     AUL 2468  41.522   6.102   6.964
    5AU       S 2469  41.148   6.239   6.704
    5AU     LIG 2470  41.482   6.507   6.549
    5AU     LIG 2471  41.550   6.962   6.436
    5AU     LIG 2472  41.351   7.378   6.350
    5AU     LIG 2473  41.430   7.751   6.069
    5AU     LIG 2474  41.365   7.893   5.619
    5AU       S 2475  41.986   6.095   6.997
    5AU     LIG 2476  42.468   5.967   6.861
    5AU     LIG 2477  42.854   6.134   6.598
    5AU     LIG 2478  43.136   6.474   6.390
    5AU     LIG 2479  43.308   6.940   6.364
    5AU     LIG 2480  43.310   7.436   6.310
    5AU    AUSL 2481  40.979   5.925   7.292
    5AU    AUSL 2482  40.921   5.655   6.948
    5AU     AUL 2483  40.846   6.088   7.040
    5AU       S 2484  41.084   6.453   6.899
    5AU     LIG 2485  41.133   6.890   6.717
    5AU     LIG 2486  41.077   7.354   6.791
    5AU     LIG 2487  41.327   7.731   6.736
    5AU     LIG 2488  41.234   8.187   6.578
    5AU     LIG 2489  41.052   8.490   6.254
    5AU       S 2490  40.731   5.879   6.650
    5AU     LIG 2491  40.714   6.079   6.232
    5AU     LIG 2492  40.462   6.356   5.929
    5AU     LIG 2493  40.193   6.449   5.525
    5AU     LIG 2494  40.050   6.768   5.182
    5AU     LIG 2495  40.103   7.231   5.029
    5AU    AUSL 2496  41.184   4.496   6.949
    5AU    AUSL 2497  40.591   4.543   7.253
    5AU     AUL 2498  40.853   4.374   7.013
    5AU       S 2499  40.395   4.472   7.044
    5AU     LIG 2500  39.982   4.250   7.016
    5AU     LIG 2501  39.629   3.932   6.935
    5AU     LIG 2502  39.390   3.574   6.734
    5AU     LIG 2503  39.127   3.474   6.350
    5AU     LIG 2504  38.852   3.093   6.210
    5AU       S 2505  41.234   4.082   6.972
    5AU     LIG 2506  41.106   3.641   6.786
    5AU     LIG 2507  40.841   3.254   6.637
    5AU     LIG 2508  40.622   2.866   6.443
    5AU     LIG 2509  40.474   2.610   6.077
    5AU     LIG 2510  40.669   2.376   5.733
    5AU    AUSL 2511  41.426   4.520   7.325
    5AU    AUSL 2512  41.425   4.836   6.961
    5AU     AUL 2513  41.521   4.451   6.964
    5AU       S 2514  41.448   4.117   7.286
    5AU     LIG 2515  41.251   3.621   7.294
    5AU     LIG 2516  41.150   3.183   7.062
    5AU     LIG 2517  41.260   2.699   6.933
    5AU     LIG 2518  41.320   2.216   6.814
    5AU     LIG 2519  41.284   1.739   6.733
    5AU       S 2520  41.717   4.671   6.615
    5AU     LIG 2521  41.636   4.230   6.527
    5AU     LIG 2522  41.854   3.880   6.296
    5AU     LIG 2523  42.126   3.614   5.988
    5AU     LIG 2524  42.122   3.491   5.498
    5AU     LIG 2525  42.319   3.238   5.119
    6AU     AUC 2526  14.053  42.991   7.502
    6AU     AUC 2527  14.334  43.007   7.326
    6AU     AUC 2528  14.313  42.976   7.676
    6AU     AUC 2529  13.771  42.991   7.330
    6AU     AUC 2530  13.782  43.021   7.682
    6AU     AUC 2531  13.889  43.273   7.505
    6AU     AUC 2532  14.252  43.269   7.500
    6AU     AUC 2533  13.864  42.722   7.502
    6AU     AUC 2534  14.218  42.700   7.495
    6AU     AUC 2535  14.049  42.810   7.776
    6AU     AUC 2536  14.048  43.159   7.778
    6AU     AUC 2537  14.049  42.831   7.223
    6AU     AUC 2538  14.073  43.152   7.228
    6AU     AUC 2539  14.645  43.015   7.156
    6AU     AUC 2540  14.657  42.966   7.518
    6AU     AUC 2541  14.599  42.943   7.874
    6AU     AUC 2542  13.475  42.985   7.156
    6AU     AUC 2543  13.447  43.023   7.518
    6AU     AUC 2544  13.490  43.050   7.862
    6AU     AUC 2545  13.729  43.585   7.491
    6AU     AUC 2546  14.091  43.599   7.485
    6AU     AUC 2547  14.464  43.545   7.501
    6AU     AUC 2548  13.667  42.445   7.502
    6AU     AUC 2549  14.025  42.391   7.479
    6AU     AUC 2550  14.388  42.403   7.474
    6AU     AUC 2551  14.025  42.629   8.059
    6AU     AUC 2552  14.058  43.001   8.112
    6AU     AUC 2553  14.069  43.335   8.072
    6AU     AUC 2554  14.077  42.658   6.941
    6AU     AUC 2555  14.063  42.994   6.888
    6AU     AUC 2556  14.054  43.327   6.930
    6AU     AUC 2557  14.311  42.771   8.003
    6AU     AUC 2558  14.363  43.123   8.011
    6AU     AUC 2559  14.385  42.864   6.992
    6AU     AUC 2560  14.374  43.182   7.028
    6AU     AUC 2561  13.738  42.854   8.007
    6AU     AUC 2562  13.770  43.229   7.987
    6AU     AUC 2563  13.754  42.806   7.036
    6AU     AUC 2564  13.740  43.134   6.995
    6AU     AUC 2565  14.594  43.287   7.338
    6AU     AUC 2566  14.557  43.264   7.687
    6AU     AUC 2567  13.581  43.298   7.312
    6AU     AUC 2568  13.584  43.339   7.675
    6AU     AUC 2569  14.529  42.696   7.322
    6AU     AUC 2570  14.499  42.644   7.678
    6AU     AUC 2571  13.535  42.691   7.353
    6AU     AUC 2572  13.578  42.737   7.706
    6AU     AUC 2573  13.908  43.525   7.784
    6AU     AUC 2574  14.262  43.450   7.772
    6AU     AUC 2575  13.849  42.516   7.791
    6AU     AUC 2576  14.181  42.464   7.769
    6AU     AUC 2577  13.892  43.439   7.199
    6AU     AUC 2578  14.265  43.482   7.212
    6AU     AUC 2579  13.862  42.520   7.202
    6AU     AUC 2580  14.256  42.542   7.196
    6AU    AUSL 2581  14.572  42.836   8.260
    6AU    AUSL 2582  14.324  42.455   8.164
    6AU     AUL 2583  14.518  42.455   8.535
    6AU       S 2584  14.665  42.241   8.164
    6AU     LIG 2585  14.520  41.948   8.494
    6AU     LIG 2586  14.746  41.645   8.760
    6AU     LIG 2587  15.003  41.312   8.971
    6AU     LIG 2588  15.258  41.006   9.227
    6AU     LIG 2589  15.194  40.779   9.640
    6AU       S 2590  14.757  42.758   8.302
    6AU     LIG 2591  14.864  42.754   8.752
    6AU     LIG 2592  14.911  42.608   9.196
    6AU     LIG 2593  15.082  42.659   9.626
    6AU     LIG 2594  15.423  42.767   9.927
    6AU     LIG 2595  15.680  42.738  10.320
    6AU    AUSL 2596  14.155  42.788   8.384
    6AU    AUSL 2597  13.909  43.166   8.399
    6AU     AUL 2598  14.100  43.107   8.748
    6AU       S 2599  14.171  42.731   8.510
    6AU     LIG 2600  14.208  42.634   8.929
    6AU     LIG 2601  14.435  42.411   9.277
    6AU     LIG 2602  14.603  42.223   9.685
    6AU     LIG 2603  14.583  42.087  10.150
    6AU     LIG 2604  14.750  42.216  10.578
    6AU       S 2605  13.705  42.912   8.622
    6AU     LIG 2606  13.734  42.887   9.091
    6AU     LIG 2607  13.459  42.869   9.473
    6AU     LIG 2608  13.290  42.903   9.914
    6AU     LIG 2609  13.324  43.205  10.293
    6AU     LIG 2610  13.314  43.412  10.723
    6AU    AUSL 2611  14.325  43.197   8.361
    6AU    AUSL 2612  14.697  43.225   8.119
    6AU     AUL 2613  14.598  43.123   8.526
    6AU       S 2614  14.243  43.505   8.496
    6AU     LIG 2615  14.522  43.494   8.864
    6AU     LIG 2616  14.752  43.654   9.261
    6AU     LIG 2617  14.705  43.717   9.748
    6AU     LIG 2618  14.649  43.763  10.229
    6AU     LIG 2619  14.566  43.683  10.697
    6AU       S 2620  14.779  43.483   8.295
    6AU     LIG 2621  15.196  43.420   8.353
    6AU     LIG 2622  15.474  43.630   8.658
    6AU     LIG 2623  15.729  43.853   8.954
    6AU     LIG 2624  16.002  44.073   9.256
    6AU     LIG 2625  16.172  44.168   9.690
    6AU    AUSL 2626  14.593  43.160   6.745
    6AU    AUSL 2627  14.365  43.460   6.969
    6AU     AUL 2628  14.418  43.563   6.616
    6AU       S 2629  14.564  43.218   6.350
    6AU     LIG 2630  14.938  43.047   6.131
    6AU     LIG 2631  15.038  42.820   5.727
    6AU     LIG 2632  15.334  42.761   5.354
    6AU     LIG 2633  15.755  42.684   5.116
    6AU     LIG 2634  16.026  42.559   4.744
    6AU       S 2635  14.817  43.698   6.844
    6AU     LIG 2636  14.908  43.934   6.454
    6AU     LIG 2637  15.225  44.129   6.158
    6AU     LIG 2638  15.541  44.102   5.799
    6AU     LIG 2639  15.717  44.363   5.442
    6AU     LIG 2640  15.633  44.790   5.239
    6AU    AUSL 2641  14.370  42.814   6.607
    6AU    AUSL 2642  14.717  42.782   6.918
    6AU     AUL 2643  14.787  42.902   6.614
    6AU       S 2644  14.855  42.445   6.670
    6AU     LIG 2645  14.995  42.047   6.402
    6AU     LIG 2646  15.232  41.661   6.261
    6AU     LIG 2647  15.477  41.371   5.968
    6AU     LIG 2648  15.832  41.327   5.645
    6AU     LIG 2649  16.213  41.371   5.347
    6AU       S 2650  14.465  43.034   6.288
    6AU     LIG 2651  14.512  42.629   6.110
    6AU     LIG 2652  14.607  42.363   5.713
    6AU     LIG 2653  14.774  42.287   5.266
    6AU     LIG 2654  14.754  42.210   4.786
    6AU     LIG 2655  14.773  42.219   4.298
    6AU    AUSL 2656  14.167  43.184   6.700
    6AU    AUSL 2657  13.952  42.791   6.722
    6AU     AUL 2658  14.111  42.788   6.445
    6AU       S 2659  13.684  42.838   6.287
    6AU     LIG 2660  13.779  42.649   5.905
    6AU     LIG 2661  13.516  42.412   5.600
    6AU     LIG 2662  13.270  42.387   5.201
    6AU     LIG 2663  13.042  42.194   4.822
    6AU     LIG 2664  13.029  41.963   4.394
    6AU       S 2665  14.219  43.233   6.351
    6AU     LIG 2666  14.172  43.000   5.906
    6AU     LIG 2667  14.524  42.854   5.585
    6AU     LIG 2668  14.757  42.799   5.157
    6AU     LIG 2669  14.815  43.008   4.722
    6AU     LIG 2670  14.825  43.356   4.385
    6AU    AUSL 2671  13.509  43.120   8.241
    6AU    AUSL 2672  13.803  43.477   8.136
    6AU     AUL 2673  13.686  43.410   8.471
    6AU       S 2674  13.508  43.008   8.656
    6AU     LIG 2675  13.282  42.693   8.868
    6AU     LIG 2676  13.054  42.619   9.269
    6AU     LIG 2677  12.841  42.487   9.652
    6AU     LIG 2678  12.575  42.494  10.009
    6AU     LIG 2679  12.303  42.688  10.324
    6AU       S 2680  13.411  43.707   8.205
    6AU     LIG 2681  13.496  43.885   8.595
    6AU     LIG 2682  13.350  44.139   8.954
    6AU     LIG 2683  13.173  44.097   9.387
    6AU     LIG 2684  12.976  44.298   9.754
    6AU     LIG 2685  12.745  44.656   9.940
    6AU    AUSL 2686  13.804  42.827   8.152
    6AU    AUSL 2687  13.388  42.707   8.120
    6AU     AUL 2688  13.290  42.934   8.258
    6AU       S 2689  13.295  42.479   8.377
    6AU     LIG 2690  12.865  42.490   8.223
    6AU     LIG 2691  12.525  42.167   8.182
    6AU     LIG 2692  12.358  41.820   8.461
    6AU     LIG 2693  12.077  41.510   8.695
    6AU     LIG 2694  11.679  41.355   8.899
    6AU       S 2695  13.677  42.770   8.532
    6AU     LIG 2696  13.737  42.447   8.849
    6AU     LIG 2697  13.526  42.400   9.260
    6AU     LIG 2698  13.341  42.410   9.702
    6AU     LIG 2699  13.154  42.288  10.130
    6AU     LIG 2700  13.131  41.980  10.517
    6AU    AUSL 2701  13.527  42.860   6.768
    6AU    AUSL 2702  13.735  42.505   6.945
    6AU     AUL 2703  13.753  42.507   6.618
    6AU       S 2704  13.501  42.779   6.343
    6AU     LIG 2705  13.267  42.687   5.978
    6AU     LIG 2706  13.067  42.697   5.574
    6AU     LIG 2707  12.859  42.702   5.173
    6AU     LIG 2708  12.450  42.616   4.977
    6AU     LIG 2709  12.231  42.711   4.589
    6AU       S 2710  13.349  42.335   6.772
    6AU     LIG 2711  13.071  41.946   6.723
    6AU     LIG 2712  12.721  41.755   6.479
    6AU     LIG 2713  12.527  41.430   6.184
    6AU     LIG 2714  12.583  41.238   5.738
    6AU     LIG 2715  12.754  41.102   5.295
    6AU    AUSL 2716  13.761  43.179   6.604
    6AU    AUSL 2717  13.418  43.261   6.903
    6AU     AUL 2718  13.327  43.100   6.613
    6AU       S 2719  13.450  43.535   6.665
    6AU     LIG 2720  13.051  43.550   6.581
    6AU     LIG 2721  12.876  43.766   6.203
    6AU     LIG 2722  12.736  43.992   5.803
    6AU     LIG 2723  12.462  44.124   5.425
    6AU     LIG 2724  12.328  44.163   4.965
    6AU       S 2725  13.734  43.106   6.357
    6AU     LIG 2726  13.554  43.127   5.911
    6AU     LIG 2727  13.521  42.914   5.486
    6AU     LIG 2728  13.348  42.883   5.031
    6AU     LIG 2729  13.334  43.053   4.561
    6AU     LIG 2730  13.241  43.260   4.120
    6AU    AUSL 2731  14.883  43.466   7.503
    6AU    AUSL 2732  14.750  43.271   7.118
    6AU     AUL 2733  15.127  43.444   7.143
    6AU       S 2734  14.819  43.554   6.845
    6AU     LIG 2735  15.110  43.446   6.499
    6AU     LIG 2736  15.474  43.654   6.231
    6AU     LIG 2737  15.888  43.736   5.986
    6AU     LIG 2738  16.038  43.961   5.587
    6AU     LIG 2739  16.241  44.280   5.302
    6AU       S 2740  15.139  43.615   7.579
    6AU     LIG 2741  15.532  43.758   7.383
    6AU     LIG 2742  15.943  43.924   7.500
    6AU     LIG 2743  16.282  44.185   7.719
    6AU     LIG 2744  16.695  44.417   7.812
    6AU     LIG 2745  17.108  44.624   7.869
    6AU    AUSL 2746  15.031  43.074   7.388
    6AU    AUSL 2747  14.949  42.760   7.714
    6AU     AUL 2748  15.210  42.938   7.783
    6AU       S 2749  15.360  43.247   7.477
    6AU     LIG 2750  15.672  43.326   7.151
    6AU     LIG 2751  16.159  43.259   7.161
    6AU     LIG 2752  16.581  43.152   6.952
    6AU     LIG 2753  16.978  43.382   7.006
    6AU     LIG 2754  17.286  43.681   6.796
    6AU       S 2755  15.218  42.528   7.539
    6AU     LIG 2756  15.566  42.469   7.825
    6AU     LIG 2757  15.912  42.142   7.750
    6AU     LIG 2758  16.357  42.018   7.836
    6AU     LIG 2759  16.800  41.976   7.995
    6AU     LIG 2760  17.128  42.266   8.113
    6AU    AUSL 2761  14.740  43.122   7.716
    6AU    AUSL 2762  14.667  43.583   7.846
    6AU     AUL 2763  14.957  43.317   7.895
    6AU       S 2764  14.869  43.734   8.082
    6AU     LIG 2765  15.162  43.942   8.330
    6AU     LIG 2766  15.359  44.161   8.700
    6AU     LIG 2767  15.657  44.503   8.879
    6AU     LIG 2768  15.905  44.905   9.037
    6AU     LIG 2769  16.289   0.149   9.225
    6AU       S 2770  15.324  43.384   7.636
    6AU     LIG 2771  15.563  43.253   7.973
    6AU     LIG 2772  15.978  43.083   7.993
    6AU     LIG 2773  16.403  43.255   7.926
    6AU     LIG 2774  16.846  43.419   7.959
    6AU     LIG 2775  17.271  43.598   7.858
    6AU    AUSL 2776  13.382  43.567   7.517
    6AU    AUSL 2777  13.467  43.350   7.894
    6AU     AUL 2778  13.149  43.660   7.764
    6AU       S 2779  13.304  43.524   8.174
    6AU     LIG 2780  13.198  43.425   8.598
    6AU     LIG 2781  13.085  43.683   8.985
    6AU     LIG 2782  12.735  43.860   9.254
    6AU     LIG 2783  12.542  44.043   9.645
    6AU     LIG 2784  12.213  44.275   9.890
    6AU       S 2785  13.371  43.938   7.445
    6AU     LIG 2786  12.900  43.972   7.431
    6AU     LIG 2787  12.492  44.263   7.519
    6AU     LIG 2788  12.130  44.507   7.757
    6AU     LIG 2789  11.671  44.572   7.777
    6AU     LIG 2790  11.283  44.786   7.654
    6AU    AUSL 2791  13.350  43.188   7.307
    6AU    AUSL 2792  13.505  43.630   7.122
    6AU     AUL 2793  13.193  43.497   7.145
    6AU       S 2794  13.004  43.044   6.967
    6AU     LIG 2795  12.638  43.354   7.048
    6AU     LIG 2796  12.202  43.583   6.968
    6AU     LIG 2797  11.772  43.805   6.841
    6AU     LIG 2798  11.401  43.836   6.549
    6AU     LIG 2799  10.939  43.952   6.516
    6AU       S 2800  13.309  43.906   6.908
    6AU     LIG 2801  13.283  44.000   6.450
    6AU     LIG 2802  13.017  44.271   6.168
    6AU     LIG 2803  12.738  44.652   6.193
    6AU     LIG 2804  12.449   0.018   6.187
    6AU     LIG 2805  12.155   0.352   6.142
    6AU    AUSL 2806  13.132  43.213   7.692
    6AU    AUSL 2807  13.102  42.861   7.386
    6AU     AUL 2808  12.962  43.197   7.412
    6AU       S 2809  12.873  42.777   7.642
    6AU     LIG 2810  12.431  42.760   7.446
    6AU     LIG 2811  11.980  42.655   7.574
    6AU     LIG 2812  11.578  42.401   7.370
    6AU     LIG 2813  11.167  42.313   7.186
    6AU     LIG 2814  11.001  41.954   6.958
    6AU       S 2815  12.997  43.222   7.938
    6AU     LIG 2816  12.583  43.209   8.198
    6AU     LIG 2817  12.133  43.397   8.239
    6AU     LIG 2818  11.752  43.671   8.382
    6AU     LIG 2819  11.366  43.960   8.405
    6AU     LIG 2820  11.041  44.339   8.405
    6AU    AUSL 2821  14.746  42.418   7.528
    6AU    AUSL 2822  14.573  42.666   7.877
    6AU     AUL 2823  14.918  42.538   7.903
    6AU       S 2824  15.016  42.306   7.497
    6AU     LIG 2825  15.380  42.050   7.589
    6AU     LIG 2826  15.708  41.766   7.466
    6AU     LIG 2827  16.151  41.664   7.524
    6AU     LIG 2828  16.489  41.349   7.528
    6AU     LIG 2829  16.776  41.176   7.839
    6AU       S 2830  14.751  42.151   8.071
    6AU     LIG 2831  15.017  41.907   8.370
    6AU     LIG 2832  15.271  41.645   8.677
    6AU     LIG 2833  15.530  41.375   8.978
    6AU     LIG 2834  15.852  41.223   9.300
    6AU     LIG 2835  16.150  41.347   9.665
    6AU    AUSL 2836  14.726  42.800   7.335
    6AU    AUSL 2837  14.665  42.390   7.113
    6AU     AUL 2838  14.931  42.598   7.138
    6AU       S 2839  15.291  42.645   7.401
    6AU     LIG 2840  15.709  42.402   7.343
    6AU     LIG 2841  16.041  42.078   7.226
    6AU     LIG 2842  16.370  41.767   7.068
    6AU     LIG 2843  16.804  41.601   7.013
    6AU     LIG 2844  17.237  41.818   7.015
    6AU       S 2845  14.861  42.254   6.829
    6AU     LIG 2846  14.759  41.819   6.842
    6AU     LIG 2847  14.971  41.437   6.657
    6AU     LIG 2848  15.184  41.143   6.345
    6AU     LIG 2849  15.357  40.749   6.133
    6AU     LIG 2850  15.623  40.412   5.924
    6AU    AUSL 2851  13.284  42.488   7.539
    6AU    AUSL 2852  13.416  42.718   7.146
    6AU     AUL 2853  13.050  42.587   7.237
    6AU       S 2854  13.250  42.492   6.837
    6AU     LIG 2855  12.784  42.361   6.811
    6AU     LIG 2856  12.391  42.155   6.582
    6AU     LIG 2857  12.245  41.854   6.234
    6AU     LIG 2858  11.885  41.636   6.018
    6AU     LIG 2859  11.729  41.390   5.656
    6AU       S 2860  12.865  42.522   7.666
    6AU     LIG 2861  12.540  42.220   7.618
    6AU     LIG 2862  12.258  41.889   7.774
    6AU     LIG 2863  11.785  41.851   7.757
    6AU     LIG 2864  11.434  41.547   7.817
    6AU     LIG 2865  11.129  41.301   7.577
    6AU    AUSL 2866  13.360  42.865   7.736
    6AU    AUSL 2867  13.602  42.483   7.824
    6AU     AUL 2868  13.268  42.461   7.879
    6AU       S 2869  13.305  42.261   8.287
    6AU     LIG 2870  12.995  42.041   7.998
    6AU     LIG 2871  12.658  41.688   8.036
    6AU     LIG 2872  12.406  41.345   8.282
    6AU     LIG 2873  12.210  41.014   8.585
    6AU     LIG 2874  12.219  40.574   8.773
    6AU       S 2875  12.929  42.770   7.820
    6AU     LIG 2876  12.466  42.630   7.937
    6AU     LIG 2877  12.097  42.345   7.948
    6AU     LIG 2878  11.644  42.359   7.867
    6AU     LIG 2879  11.202  42.299   7.721
    6AU     LIG 2880  10.862  41.942   7.756
    6AU    AUSL 2881  14.080  43.767   8.002
    6AU    AUSL 2882  13.666  43.717   7.804
    6AU     AUL 2883  13.860  43.823   8.215
    6AU       S 2884  13.526  43.907   7.909
    6AU     LIG 2885  13.289  44.185   8.220
    6AU     LIG 2886  13.273  44.500   8.559
    6AU     LIG 2887  13.163  44.964   8.596
    6AU     LIG 2888  12.834   0.190   8.789
    6AU     LIG 2889  12.435   0.183   9.000
    6AU       S 2890  14.173  44.139   7.985
    6AU     LIG 2891  14.189  44.221   8.396
    6AU     LIG 2892  14.129  44.666   8.555
    6AU     LIG 2893  14.024   0.087   8.773
    6AU     LIG 2894  14.216   0.390   9.073
    6AU     LIG 2895  14.129   0.631   9.472
    6AU    AUSL 2896  13.949  43.956   7.612
    6AU    AUSL 2897  14.244  43.894   7.270
    6AU     AUL 2898  14.147  44.237   7.412
    6AU       S 2899  13.969  44.180   7.830
    6AU     LIG 2900  13.970  44.646   7.817
    6AU     LIG 2901  13.887   0.008   8.120
    6AU     LIG 2902  13.880   0.461   8.263
    6AU     LIG 2903  13.931   0.849   8.521
    6AU     LIG 2904  13.729   1.268   8.560
    6AU       S 2905  14.116  44.210   6.946
    6AU     LIG 2906  14.523  44.329   7.109
    6AU     LIG 2907  14.763  44.685   6.985
    6AU     LIG 2908  14.797   0.134   6.824
    6AU     LIG 2909  14.761   0.638   6.833
    6AU     LIG 2910  14.845   1.072   6.607
    6AU    AUSL 2911  14.321  43.717   7.650
    6AU    AUSL 2912  14.312  43.420   8.017
    6AU     AUL 2913  14.401  43.748   8.079
    6AU       S 2914  14.703  43.623   8.390
    6AU     LIG 2915  14.962  43.730   8.744
    6AU     LIG 2916  15.217  43.856   9.091
    6AU     LIG 2917  15.489  44.187   9.244
    6AU     LIG 2918  15.723  44.415   9.557
    6AU     LIG 2919  15.734  44.564  10.007
    6AU       S 2920  14.413  44.035   7.726
    6AU     LIG 2921  14.474  44.487   7.811
    6AU     LIG 2922  14.728  44.766   8.089
    6AU     LIG 2923  14.824   0.221   8.271
    6AU     LIG 2924  14.846   0.716   8.364
    6AU     LIG 2925  14.701   1.183   8.417
    6AU    AUSL 2926  14.001  42.301   7.920
    6AU    AUSL 2927  14.420  42.282   7.767
    6AU     AUL 2928  14.210  42.144   8.138
    6AU       S 2929  13.963  41.798   7.966
    6AU     LIG 2930  13.773  41.676   8.327
    6AU     LIG 2931  13.647  41.239   8.439
    6AU     LIG 2932  13.649  40.774   8.467
    6AU     LIG 2933  13.797  40.409   8.692
    6AU     LIG 2934  13.918  40.334   9.143
    6AU       S 2935  14.587  42.100   7.850
    6AU     LIG 2936  14.624  41.670   8.076
    6AU     LIG 2937  14.938  41.391   8.354
    6AU     LIG 2938  15.286  41.124   8.589
    6AU     LIG 2939  15.630  40.873   8.840
    6AU     LIG 2940  16.027  40.576   8.804
    6AU    AUSL 2941  13.691  42.120   7.645
    6AU    AUSL 2942  13.761  42.425   8.237
    6AU     AUL 2943  13.655  42.155   7.998
    6AU       S 2944  13.789  41.740   7.817
    6AU     LIG 2945  13.580  41.364   7.945
    6AU     LIG 2946  13.395  40.942   8.055
    6AU     LIG 2947  13.377  40.461   8.116
    6AU     LIG 2948  13.328  39.980   8.152
    6AU     LIG 2949  13.305  39.525   8.284
    6AU       S 2950  13.535  42.305   8.431
    6AU     LIG 2951  13.308  41.832   8.494
    6AU     LIG 2952  12.864  41.653   8.505
    6AU     LIG 2953  12.574  41.393   8.768
    6AU     LIG 2954  12.545  41.132   9.158
    6AU     LIG 2955  12.768  40.976   9.556
    6AU    AUSL 2956  14.121  42.044   7.596
    6AU    AUSL 2957  13.893  42.285   7.306
    6AU     AUL 2958  13.776  41.942   7.402
    6AU       S 2959  14.130  41.845   7.139
    6AU     LIG 2960  13.706  41.604   7.056
    6AU     LIG 2961  13.543  41.178   7.000
    6AU     LIG 2962  13.517  40.704   6.973
    6AU     LIG 2963  13.522  40.222   6.889
    6AU     LIG 2964  13.571  39.762   6.788
    6AU       S 2965  14.130  41.829   7.734
    6AU     LIG 2966  14.098  41.335   7.836
    6AU     LIG 2967  13.913  40.932   8.046
    6AU     LIG 2968  13.900  40.440   8.151
    6AU     LIG 2969  14.019  39.954   8.108
    6AU     LIG 2970  14.334  39.577   8.166
    6AU    AUSL 2971  14.057  43.738   6.903
    6AU    AUSL 2972  14.592  43.659   7.273
    6AU     AUL 2973  14.405  43.853   6.983
    6AU       S 2974  14.041  43.989   6.709
    6AU     LIG 2975  14.477  44.227   6.610
    6AU     LIG 2976  14.497  44.704   6.550
    6AU     LIG 2977  14.425   0.072   6.268
    6AU     LIG 2978  14.285   0.414   5.971
    6AU     LIG 2979  14.057   0.821   5.993
    6AU       S 2980  14.827  43.810   7.161
    6AU     LIG 2981  14.953  44.179   6.895
    6AU     LIG 2982  15.335  44.265   6.655
    6AU     LIG 2983  15.615  44.597   6.459
    6AU     LIG 2984  16.001  44.893   6.402
    6AU     LIG 2985  16.225   0.187   6.107
    6AU    AUSL 2986  13.875  43.678   7.313
    6AU    AUSL 2987  13.827  43.399   6.955
    6AU     AUL 2988  13.742  43.830   7.053
    6AU       S 2989  13.937  44.226   6.991
    6AU     LIG 2990  14.169  44.698   6.972
    6AU     LIG 2991  14.273   0.138   6.786
    6AU     LIG 2992  14.237   0.622   6.803
    6AU     LIG 2993  13.988   1.018   6.746
    6AU     LIG 2994  13.579   1.236   6.811
    6AU       S 2995  13.635  43.640   6.645
    6AU     LIG 2996  13.460  43.592   6.181
    6AU     LIG 2997  13.261  43.907   5.880
    6AU     LIG 2998  13.118  44.185   5.508
    6AU     LIG 2999  12.962  44.501   5.177
    6AU     LIG 3000  12.836  44.837   4.870
    6AU    AUSL 3001  14.076  42.253   6.910
    6AU    AUSL 3002  13.484  42.287   7.226
    6AU     AUL 3003  13.748  42.129   6.969
    6AU       S 3004  13.302  42.240   7.054
    6AU     LIG 3005  12.926  42.093   7.230
    6AU     LIG 3006  12.575  41.889   6.986
    6AU     LIG 3007  12.284  41.625   6.705
    6AU     LIG 3008  12.031  41.346   6.407
    6AU     LIG 3009  11.634  41.135   6.187
    6AU       S 3010  14.133  41.837   6.920
    6AU     LIG 3011  14.068  41.373   6.788
    6AU     LIG 3012  13.835  40.977   6.623
    6AU     LIG 3013  13.634  40.568   6.488
    6AU     LIG 3014  13.623  40.118   6.391
    6AU     LIG 3015  13.625  39.876   6.014
    6AU    AUSL 3016  14.319  42.257   7.296
    6AU    AUSL 3017  14.319  42.589   6.952
    6AU     AUL 3018  14.412  42.209   6.933
    6AU       S 3019  14.353  41.855   7.234
    6AU     LIG 3020  14.120  41.391   7.310
    6AU     LIG 3021  13.995  40.949   7.112
    6AU     LIG 3022  13.982  40.512   6.864
    6AU     LIG 3023  14.049  40.053   6.690
    6AU     LIG 3024  14.430  39.750   6.544
    6AU       S 3025  14.621  42.424   6.591
    6AU     LIG 3026  14.482  42.015   6.463
    6AU     LIG 3027  14.701  41.634   6.265
    6AU     LIG 3028  14.946  41.370   5.937
    6AU     LIG 3029  15.186  41.141   5.587
    6AU     LIG 3030  15.293  40.967   5.147
    7AU     AUC 3031  18.487  26.711   7.514
    7AU     AUC 3032  18.758  26.722   7.336
    7AU     AUC 3033  18.764  26.710   7.685
    7AU     AUC 3034  18.200  26.701   7.342
    7AU     AUC 3035  18.229  26.744   7.701
    7AU     AUC 3036  18.307  26.986   7.512
    7AU     AUC 3037  18.675  26.992   7.502
    7AU     AUC 3038  18.299  26.440   7.522
    7AU     AUC 3039  18.647  26.422   7.519
    7AU     AUC 3040  18.489  26.547   7.799
    7AU     AUC 3041  18.485  26.891   7.785
    7AU     AUC 3042  18.480  26.538   7.237
    7AU     AUC 3043  18.499  26.861   7.233
    7AU     AUC 3044  19.070  26.722   7.160
    7AU     AUC 3045  19.093  26.677   7.521
    7AU     AUC 3046  19.047  26.689   7.854
    7AU     AUC 3047  17.899  26.687   7.167
    7AU     AUC 3048  17.878  26.736   7.527
    7AU     AUC 3049  17.930  26.764   7.891
    7AU     AUC 3050  18.131  27.291   7.493
    7AU     AUC 3051  18.488  27.316   7.468
    7AU     AUC 3052  18.858  27.277   7.486
    7AU     AUC 3053  18.092  26.157   7.530
    7AU     AUC 3054  18.452  26.111   7.516
    7AU     AUC 3055  18.809  26.118   7.514
    7AU     AUC 3056  18.475  26.381   8.093
    7AU     AUC 3057  18.519  26.751   8.126
    7AU     AUC 3058  18.506  27.085   8.062
    7AU     AUC 3059  18.506  26.356   6.965
    7AU     AUC 3060  18.492  26.695   6.900
    7AU     AUC 3061  18.481  27.024   6.930
    7AU     AUC 3062  18.773  26.530   8.012
    7AU     AUC 3063  18.809  26.901   7.988
    7AU     AUC 3064  18.810  26.562   7.004
    7AU     AUC 3065  18.804  26.888   7.037
    7AU     AUC 3066  18.182  26.573   8.028
    7AU     AUC 3067  18.208  26.932   8.006
    7AU     AUC 3068  18.184  26.506   7.052
    7AU     AUC 3069  18.164  26.833   7.004
    7AU     AUC 3070  19.016  26.990   7.353
    7AU     AUC 3071  18.988  27.002   7.686
    7AU     AUC 3072  18.002  27.002   7.323
    7AU     AUC 3073  17.999  27.050   7.694
    7AU     AUC 3074  18.949  26.402   7.336
    7AU     AUC 3075  18.927  26.360   7.704
    7AU     AUC 3076  17.967  26.391   7.359
    7AU     AUC 3077  18.024  26.452   7.716
    7AU     AUC 3078  18.301  27.244   7.782
    7AU     AUC 3079  18.669  27.200   7.755
    7AU     AUC 3080  18.274  26.247   7.820
    7AU     AUC 3081  18.620  26.205   7.806
    7AU     AUC 3082  18.311  27.140   7.194
    7AU     AUC 3083  18.693  27.187   7.203
    7AU     AUC 3084  18.290  26.225   7.229
    7AU     AUC 3085  18.681  26.246   7.221
    7AU    AUSL 3086  19.062  26.672   8.198
    7AU    AUSL 3087  18.768  26.223   8.198
    7AU     AUL 3088  19.106  26.265   8.346
    7AU       S 3089  19.076  25.824   8.218
    7AU     LIG 3090  18.935  25.551   8.465
    7AU     LIG 3091  19.127  25.167   8.588
    7AU     LIG 3092  19.364  24.968   8.949
    7AU     LIG 3093  19.648  24.773   9.252
    7AU     LIG 3094  19.685  24.807   9.722
    7AU       S 3095  19.330  26.651   8.256
    7AU     LIG 3096  19.314  26.574   8.717
    7AU     LIG 3097  19.401  26.392   9.161
    7AU     LIG 3098  19.703  26.341   9.544
    7AU     LIG 3099  20.068  26.380   9.868
    7AU     LIG 3100  20.336  26.541  10.231
    7AU    AUSL 3101  18.679  26.586   8.397
    7AU    AUSL 3102  18.378  26.912   8.416
    7AU     AUL 3103  18.597  26.893   8.739
    7AU       S 3104  18.831  26.538   8.576
    7AU     LIG 3105  18.643  26.332   8.905
    7AU     LIG 3106  18.875  26.125   9.265
    7AU     LIG 3107  19.065  25.943   9.666
    7AU     LIG 3108  19.142  25.931  10.133
    7AU     LIG 3109  19.018  25.836  10.580
    7AU       S 3110  18.221  26.644   8.679
    7AU     LIG 3111  18.194  26.522   9.142
    7AU     LIG 3112  17.848  26.551   9.469
    7AU     LIG 3113  17.707  26.608   9.920
    7AU     LIG 3114  17.777  26.906  10.304
    7AU     LIG 3115  17.896  27.244  10.632
    7AU    AUSL 3116  18.780  27.004   8.332
    7AU    AUSL 3117  19.130  27.073   8.058
    7AU     AUL 3118  19.068  26.957   8.467
    7AU       S 3119  18.648  27.304   8.469
    7AU     LIG 3120  18.959  27.304   8.812
    7AU     LIG 3121  19.107  27.340   9.266
    7AU     LIG 3122  19.120  27.358   9.751
    7AU     LIG 3123  19.143  27.336  10.231
    7AU     LIG 3124  19.358  27.345  10.652
    7AU       S 3125  19.175  27.343   8.238
    7AU     LIG 3126  19.542  27.111   8.342
    7AU     LIG 3127  19.901  27.274   8.578
    7AU     LIG 3128  20.194  27.527   8.858
    7AU     LIG 3129  20.538  27.743   9.079
    7AU     LIG 3130  20.656  27.899   9.505
    7AU    AUSL 3131  19.022  26.837   6.774
    7AU    AUSL 3132  18.800  27.163   6.971
    7AU     AUL 3133  18.953  27.208   6.632
    7AU       S 3134  18.981  26.881   6.316
    7AU     LIG 3135  19.310  26.651   6.088
    7AU     LIG 3136  19.307  26.429   5.674
    7AU     LIG 3137  19.509  26.396   5.251
    7AU     LIG 3138  19.907  26.424   4.975
    7AU     LIG 3139  20.274  26.300   4.685
    7AU       S 3140  19.276  27.435   6.892
    7AU     LIG 3141  19.349  27.585   6.474
    7AU     LIG 3142  19.567  27.649   6.051
    7AU     LIG 3143  19.869  27.581   5.682
    7AU     LIG 3144  20.039  27.830   5.329
    7AU     LIG 3145  20.096  28.167   5.013
    7AU    AUSL 3146  18.791  26.508   6.618
    7AU    AUSL 3147  19.156  26.463   6.931
    7AU     AUL 3148  19.200  26.582   6.612
    7AU       S 3149  19.323  26.137   6.716
    7AU     LIG 3150  19.433  25.675   6.511
    7AU     LIG 3151  19.623  25.235   6.402
    7AU     LIG 3152  19.895  24.927   6.135
    7AU     LIG 3153  20.173  24.897   5.736
    7AU     LIG 3154  20.369  25.157   5.369
    7AU       S 3155  18.876  26.756   6.311
    7AU     LIG 3156  18.880  26.356   6.110
    7AU     LIG 3157  18.862  26.142   5.691
    7AU     LIG 3158  18.997  26.180   5.234
    7AU     LIG 3159  19.048  26.082   4.758
    7AU     LIG 3160  19.186  25.934   4.306
    7AU    AUSL 3161  18.598  26.891   6.703
    7AU    AUSL 3162  18.381  26.491   6.748
    7AU     AUL 3163  18.527  26.505   6.454
    7AU       S 3164  18.090  26.517   6.312
    7AU     LIG 3165  18.296  26.320   5.993
    7AU     LIG 3166  18.154  26.125   5.596
    7AU     LIG 3167  17.911  26.134   5.187
    7AU     LIG 3168  17.598  25.982   4.862
    7AU     LIG 3169  17.371  25.712   4.532
    7AU       S 3170  18.635  26.959   6.390
    7AU     LIG 3171  18.574  26.751   5.936
    7AU     LIG 3172  18.843  26.632   5.548
    7AU     LIG 3173  19.083  26.684   5.131
    7AU     LIG 3174  19.141  26.919   4.712
    7AU     LIG 3175  19.326  27.221   4.377
    7AU    AUSL 3176  17.980  26.828   8.281
    7AU    AUSL 3177  18.248  27.178   8.118
    7AU     AUL 3178  18.125  27.135   8.473
    7AU       S 3179  18.040  26.759   8.738
    7AU     LIG 3180  17.718  26.506   8.909
    7AU     LIG 3181  17.468  26.291   9.241
    7AU     LIG 3182  17.318  26.343   9.676
    7AU     LIG 3183  16.971  26.359   9.983
    7AU     LIG 3184  16.590  26.391  10.263
    7AU       S 3185  17.797  27.399   8.242
    7AU     LIG 3186  17.813  27.545   8.655
    7AU     LIG 3187  17.621  27.760   9.033
    7AU     LIG 3188  17.359  28.044   9.305
    7AU     LIG 3189  17.308  28.295   9.712
    7AU     LIG 3190  17.151  28.617  10.030
    7AU    AUSL 3191  18.295  26.538   8.213
    7AU    AUSL 3192  17.831  26.467   8.108
    7AU     AUL 3193  17.854  26.531   8.387
    7AU       S 3194  17.650  26.108   8.257
    7AU     LIG 3195  17.241  25.978   8.117
    7AU     LIG 3196  17.048  25.567   8.196
    7AU     LIG 3197  16.839  25.323   8.539
    7AU     LIG 3198  16.569  25.140   8.877
    7AU     LIG 3199  16.119  25.129   9.054
    7AU       S 3200  18.271  26.467   8.585
    7AU     LIG 3201  18.074  26.153   8.797
    7AU     LIG 3202  17.936  26.081   9.240
    7AU     LIG 3203  17.764  26.088   9.684
    7AU     LIG 3204  17.595  25.962  10.107
    7AU     LIG 3205  17.633  25.863  10.572
    7AU    AUSL 3206  17.957  26.554   6.785
    7AU    AUSL 3207  18.163  26.199   6.965
    7AU     AUL 3208  18.207  26.195   6.638
    7AU       S 3209  17.915  26.443   6.382
    7AU     LIG 3210  17.710  26.423   5.988
    7AU     LIG 3211  17.630  26.318   5.570
    7AU     LIG 3212  17.355  26.291   5.208
    7AU     LIG 3213  16.905  26.326   5.058
    7AU     LIG 3214  16.562  26.446   4.757
    7AU       S 3215  17.794  26.052   6.792
    7AU     LIG 3216  17.524  25.696   6.628
    7AU     LIG 3217  17.293  25.287   6.563
    7AU     LIG 3218  17.118  24.968   6.270
    7AU     LIG 3219  16.846  24.843   5.921
    7AU     LIG 3220  16.678  24.593   5.557
    7AU    AUSL 3221  18.189  26.869   6.608
    7AU    AUSL 3222  17.834  26.956   6.912
    7AU     AUL 3223  17.750  26.785   6.631
    7AU       S 3224  17.861  27.223   6.666
    7AU     LIG 3225  17.439  27.274   6.629
    7AU     LIG 3226  17.154  27.452   6.287
    7AU     LIG 3227  16.972  27.560   5.849
    7AU     LIG 3228  16.711  27.731   5.472
    7AU     LIG 3229  16.517  27.920   5.067
    7AU       S 3230  18.147  26.792   6.362
    7AU     LIG 3231  18.063  26.788   5.894
    7AU     LIG 3232  18.049  26.606   5.465
    7AU     LIG 3233  17.966  26.621   5.000
    7AU     LIG 3234  17.964  26.892   4.604
    7AU     LIG 3235  17.790  27.225   4.306
    7AU    AUSL 3236  19.258  27.151   7.522
    7AU    AUSL 3237  19.190  27.024   7.112
    7AU     AUL 3238  19.508  27.302   7.335
    7AU       S 3239  19.297  27.186   6.953
    7AU     LIG 3240  19.443  27.067   6.554
    7AU     LIG 3241  19.800  27.310   6.355
    7AU     LIG 3242  20.086  27.637   6.146
    7AU     LIG 3243  20.294  27.880   5.788
    7AU     LIG 3244  20.466  28.115   5.411
    7AU       S 3245  19.719  26.999   7.649
    7AU     LIG 3246  20.043  27.309   7.591
    7AU     LIG 3247  20.488  27.494   7.626
    7AU     LIG 3248  20.736  27.895   7.656
    7AU     LIG 3249  21.020  28.217   7.837
    7AU     LIG 3250  21.473  28.335   7.793
    7AU    AUSL 3251  19.436  26.774   7.349
    7AU    AUSL 3252  19.400  26.427   7.677
    7AU     AUL 3253  19.711  26.448   7.480
    7AU       S 3254  19.645  26.886   7.451
    7AU     LIG 3255  20.117  26.825   7.407
    7AU     LIG 3256  20.548  27.038   7.369
    7AU     LIG 3257  20.855  27.243   7.081
    7AU     LIG 3258  21.329  27.231   7.023
    7AU     LIG 3259  21.728  27.409   6.886
    7AU       S 3260  19.614  26.016   7.663
    7AU     LIG 3261  20.089  25.895   7.698
    7AU     LIG 3262  20.569  25.761   7.762
    7AU     LIG 3263  20.996  25.832   8.001
    7AU     LIG 3264  21.439  25.730   7.959
    7AU     LIG 3265  21.848  25.782   8.213
    7AU    AUSL 3266  19.235  26.803   7.758
    7AU    AUSL 3267  19.053  27.415   7.778
    7AU     AUL 3268  19.364  27.225   7.831
    7AU       S 3269  19.252  27.607   8.087
    7AU     LIG 3270  19.697  27.558   8.161
    7AU     LIG 3271  20.037  27.750   8.417
    7AU     LIG 3272  20.231  28.051   8.734
    7AU     LIG 3273  20.323  28.519   8.821
    7AU     LIG 3274  20.705  28.798   8.931
    7AU       S 3275  19.583  26.820   7.834
    7AU     LIG 3276  19.963  26.983   8.067
    7AU     LIG 3277  20.377  27.025   7.866
    7AU     LIG 3278  20.825  27.091   7.824
    7AU     LIG 3279  21.270  27.104   7.949
    7AU     LIG 3280  21.710  27.188   8.014
    7AU    AUSL 3281  17.796  27.265   7.532
    7AU    AUSL 3282  17.880  27.042   7.929
    7AU     AUL 3283  17.547  27.351   7.786
    7AU       S 3284  17.732  27.195   8.175
    7AU     LIG 3285  17.601  27.062   8.577
    7AU     LIG 3286  17.344  27.363   8.846
    7AU     LIG 3287  17.088  27.594   9.193
    7AU     LIG 3288  16.712  27.675   9.503
    7AU     LIG 3289  16.355  27.767   9.829
    7AU       S 3290  17.763  27.628   7.457
    7AU     LIG 3291  17.296  27.562   7.339
    7AU     LIG 3292  16.847  27.825   7.321
    7AU     LIG 3293  16.438  28.101   7.462
    7AU     LIG 3294  16.167  28.401   7.740
    7AU     LIG 3295  15.776  28.543   7.989
    7AU    AUSL 3296  17.773  26.892   7.319
    7AU    AUSL 3297  17.922  27.329   7.133
    7AU     AUL 3298  17.619  27.200   7.149
    7AU       S 3299  17.414  26.757   6.983
    7AU     LIG 3300  17.128  27.129   7.030
    7AU     LIG 3301  16.755  27.388   6.943
    7AU     LIG 3302  16.289  27.483   6.899
    7AU     LIG 3303  15.841  27.648   6.815
    7AU     LIG 3304  15.399  27.819   6.761
    7AU       S 3305  17.727  27.606   6.901
    7AU     LIG 3306  17.436  27.824   6.561
    7AU     LIG 3307  17.270  28.230   6.298
    7AU     LIG 3308  17.066  28.694   6.235
    7AU     LIG 3309  16.775  28.991   5.951
    7AU     LIG 3310  16.322  29.177   6.039
    7AU    AUSL 3311  17.548  26.910   7.714
    7AU    AUSL 3312  17.523  26.566   7.391
    7AU     AUL 3313  17.390  26.918   7.431
    7AU       S 3314  17.248  26.490   7.589
    7AU     LIG 3315  16.989  26.306   7.241
    7AU     LIG 3316  16.597  26.071   7.289
    7AU     LIG 3317  16.147  25.942   7.385
    7AU     LIG 3318  15.691  25.947   7.297
    7AU     LIG 3319  15.402  25.624   7.126
    7AU       S 3320  17.444  26.845   7.986
    7AU     LIG 3321  17.159  27.116   8.248
    7AU     LIG 3322  16.677  27.221   8.128
    7AU     LIG 3323  16.288  27.506   8.214
    7AU     LIG 3324  15.809  27.473   8.122
    7AU     LIG 3325  15.375  27.667   8.188
    7AU    AUSL 3326  19.135  26.116   7.551
    7AU    AUSL 3327  19.030  26.391   7.892
    7AU     AUL 3328  19.341  26.283   7.923
    7AU       S 3329  19.313  25.921   7.548
    7AU     LIG 3330  19.697  25.534   7.554
    7AU     LIG 3331  20.178  25.390   7.598
    7AU     LIG 3332  20.498  25.037   7.745
    7AU     LIG 3333  20.925  24.927   7.570
    7AU     LIG 3334  21.322  24.873   7.346
    7AU       S 3335  19.248  25.862   8.057
    7AU     LIG 3336  19.470  25.561   8.355
    7AU     LIG 3337  19.650  25.284   8.668
    7AU     LIG 3338  19.943  25.026   8.911
    7AU     LIG 3339  20.367  24.894   9.041
    7AU     LIG 3340  20.828  24.863   9.145
    7AU    AUSL 3341  19.129  26.492   7.345
    7AU    AUSL 3342  19.087  26.080   7.133
    7AU     AUL 3343  19.365  26.309   7.186
    7AU       S 3344  19.559  25.987   7.427
    7AU     LIG 3345  19.940  25.892   7.213
    7AU     LIG 3346  20.404  25.768   7.254
    7AU     LIG 3347  20.832  25.701   7.030
    7AU     LIG 3348  21.310  25.646   6.958
    7AU     LIG 3349  21.780  25.593   6.915
    7AU       S 3350  19.284  25.939   6.903
    7AU     LIG 3351  19.155  25.473   6.930
    7AU     LIG 3352  19.303  25.019   6.795
    7AU     LIG 3353  19.600  24.723   6.530
    7AU     LIG 3354  19.874  24.401   6.268
    7AU     LIG 3355  20.200  24.060   6.142
    7AU    AUSL 3356  17.698  26.203   7.565
    7AU    AUSL 3357  17.847  26.421   7.165
    7AU     AUL 3358  17.493  26.276   7.253
    7AU       S 3359  17.678  26.192   6.844
    7AU     LIG 3360  17.240  26.061   6.857
    7AU     LIG 3361  16.988  25.685   6.715
    7AU     LIG 3362  16.775  25.313   6.467
    7AU     LIG 3363  16.454  25.069   6.190
    7AU     LIG 3364  16.289  24.784   5.853
    7AU       S 3365  17.258  26.210   7.658
    7AU     LIG 3366  17.057  25.851   7.494
    7AU     LIG 3367  16.654  25.598   7.494
    7AU     LIG 3368  16.241  25.521   7.713
    7AU     LIG 3369  15.923  25.166   7.743
    7AU     LIG 3370  15.660  24.950   7.418
    7AU    AUSL 3371  17.818  26.598   7.710
    7AU    AUSL 3372  18.022  26.209   7.832
    7AU     AUL 3373  17.621  26.379   7.886
    7AU       S 3374  17.728  25.953   8.008
    7AU     LIG 3375  17.464  25.584   7.860
    7AU     LIG 3376  17.290  25.140   7.993
    7AU     LIG 3377  16.953  24.904   8.258
    7AU     LIG 3378  16.519  24.683   8.393
    7AU     LIG 3379  16.241  24.362   8.634
    7AU       S 3380  17.209  26.511   7.735
    7AU     LIG 3381  16.742  26.426   7.674
    7AU     LIG 3382  16.299  26.439   7.514
    7AU     LIG 3383  15.919  26.254   7.739
    7AU     LIG 3384  15.635  25.843   7.807
    7AU     LIG 3385  15.327  25.528   8.044
    7AU    AUSL 3386  18.458  27.526   7.985
    7AU    AUSL 3387  18.036  27.430   7.843
    7AU     AUL 3388  18.248  27.521   8.228
    7AU       S 3389  17.899  27.633   7.941
    7AU     LIG 3390  17.641  27.871   8.274
    7AU     LIG 3391  17.433  28.075   8.665
    7AU     LIG 3392  17.236  28.470   8.881
    7AU     LIG 3393  17.024  28.911   8.856
    7AU     LIG 3394  16.879  29.246   8.573
    7AU       S 3395  18.451  27.876   7.976
    7AU     LIG 3396  18.714  27.939   8.317
    7AU     LIG 3397  18.875  28.362   8.449
    7AU     LIG 3398  18.999  28.810   8.576
    7AU     LIG 3399  18.836  29.100   8.919
    7AU     LIG 3400  18.660  29.446   9.180
    7AU    AUSL 3401  18.278  27.654   7.590
    7AU    AUSL 3402  18.651  27.621   7.225
    7AU     AUL 3403  18.324  27.862   7.331
    7AU       S 3404  18.352  27.952   7.787
    7AU     LIG 3405  18.545  28.361   8.006
    7AU     LIG 3406  18.716  28.759   8.151
    7AU     LIG 3407  18.576  29.182   8.204
    7AU     LIG 3408  18.436  29.623   8.253
    7AU     LIG 3409  18.076  29.896   8.402
    7AU       S 3410  18.622  27.935   6.982
    7AU     LIG 3411  18.983  28.200   6.995
    7AU     LIG 3412  19.163  28.643   6.935
    7AU     LIG 3413  19.108  29.041   6.681
    7AU     LIG 3414  19.210  29.498   6.755
    7AU     LIG 3415  19.368  29.955   6.684
    7AU    AUSL 3416  18.669  27.458   7.613
    7AU    AUSL 3417  18.729  27.210   7.982
    7AU     AUL 3418  18.799  27.570   7.979
    7AU       S 3419  19.070  27.463   8.334
    7AU     LIG 3420  19.439  27.540   8.627
    7AU     LIG 3421  19.764  27.819   8.849
    7AU     LIG 3422  20.062  27.924   9.209
    7AU     LIG 3423  20.158  28.005   9.671
    7AU     LIG 3424  20.008  28.138  10.106
    7AU       S 3425  18.692  27.878   7.655
    7AU     LIG 3426  19.004  28.121   7.934
    7AU     LIG 3427  19.199  28.550   8.100
    7AU     LIG 3428  19.165  29.019   8.091
    7AU     LIG 3429  19.030  29.404   8.313
    7AU     LIG 3430  19.097  29.841   8.473
    7AU    AUSL 3431  18.438  26.076   7.963
    7AU    AUSL 3432  18.857  26.000   7.842
    7AU     AUL 3433  18.626  25.932   8.221
    7AU       S 3434  18.505  25.526   8.036
    7AU     LIG 3435  18.678  25.177   8.235
    7AU     LIG 3436  18.605  24.799   8.467
    7AU     LIG 3437  18.411  24.409   8.608
    7AU     LIG 3438  18.422  24.102   8.935
    7AU     LIG 3439  18.732  23.814   9.121
    7AU       S 3440  18.996  25.816   7.922
    7AU     LIG 3441  19.127  25.348   8.027
    7AU     LIG 3442  19.482  25.059   8.233
    7AU     LIG 3443  19.648  24.754   8.582
    7AU     LIG 3444  19.978  24.505   8.867
    7AU     LIG 3445  20.256  24.096   8.869
    7AU    AUSL 3446  18.126  25.832   7.703
    7AU    AUSL 3447  18.139  26.156   8.248
    7AU     AUL 3448  18.173  25.863   8.047
    7AU       S 3449  18.282  25.440   7.866
    7AU     LIG 3450  17.872  25.266   7.957
    7AU     LIG 3451  17.712  24.831   7.937
    7AU     LIG 3452  17.732  24.374   8.043
    7AU     LIG 3453  17.706  23.889   8.149
    7AU     LIG 3454  17.623  23.434   8.388
    7AU       S 3455  17.858  26.031   8.350
    7AU     LIG 3456  17.652  25.591   8.343
    7AU     LIG 3457  17.359  25.259   8.484
    7AU     LIG 3458  17.133  24.953   8.752
    7AU     LIG 3459  16.949  24.902   9.173
    7AU     LIG 3460  16.969  24.807   9.636
    7AU    AUSL 3461  18.550  25.789   7.654
    7AU    AUSL 3462  18.312  25.996   7.351
    7AU     AUL 3463  18.199  25.654   7.454
    7AU       S 3464  18.589  25.549   7.244
    7AU     LIG 3465  18.329  25.163   7.374
    7AU     LIG 3466  18.047  24.777   7.226
    7AU     LIG 3467  18.008  24.332   7.004
    7AU     LIG 3468  17.926  23.891   6.822
    7AU     LIG 3469  17.614  23.661   6.527
    7AU       S 3470  18.570  25.596   7.777
    7AU     LIG 3471  18.728  25.176   7.718
    7AU     LIG 3472  18.612  24.767   7.926
    7AU     LIG 3473  18.524  24.325   7.911
    7AU     LIG 3474  18.801  23.931   8.035
    7AU     LIG 3475  18.904  23.628   8.381
    7AU    AUSL 3476  18.481  27.416   6.870
    7AU    AUSL 3477  18.996  27.385   7.286
    7AU     AUL 3478  18.820  27.528   6.934
    7AU       S 3479  18.458  27.678   6.673
    7AU     LIG 3480  18.879  27.894   6.562
    7AU     LIG 3481  19.007  28.356   6.505
    7AU     LIG 3482  18.972  28.753   6.273
    7AU     LIG 3483  19.043  28.959   5.868
    7AU     LIG 3484  18.781  29.223   5.579
    7AU       S 3485  19.206  27.594   7.161
    7AU     LIG 3486  19.545  27.855   6.888
    7AU     LIG 3487  19.807  27.941   6.471
    7AU     LIG 3488  20.199  28.146   6.243
    7AU     LIG 3489  20.514  28.518   6.343
    7AU     LIG 3490  20.947  28.764   6.319
    7AU    AUSL 3491  18.309  27.373   7.287
    7AU    AUSL 3492  18.239  27.092   6.957
    7AU     AUL 3493  18.168  27.529   7.030
    7AU       S 3494  18.410  27.885   6.870
    7AU     LIG 3495  18.521  28.330   6.699
    7AU     LIG 3496  18.692  28.753   6.729
    7AU     LIG 3497  18.610  29.221   6.747
    7AU     LIG 3498  18.294  29.560   6.613
    7AU     LIG 3499  17.907  29.816   6.788
    7AU       S 3500  18.041  27.322   6.645
    7AU     LIG 3501  17.861  27.627   6.350
    7AU     LIG 3502  17.545  27.820   6.041
    7AU     LIG 3503  17.418  27.942   5.592
    7AU     LIG 3504  17.397  28.138   5.150
    7AU     LIG 3505  17.346  28.548   4.921
    7AU    AUSL 3506  18.501  25.942   6.963
    7AU    AUSL 3507  17.906  25.993   7.256
    7AU     AUL 3508  18.170  25.826   7.014
    7AU       S 3509  17.715  25.926   7.041
    7AU     LIG 3510  17.361  25.638   7.122
    7AU     LIG 3511  17.056  25.278   7.026
    7AU     LIG 3512  16.926  24.899   6.754
    7AU     LIG 3513  16.705  24.675   6.403
    7AU     LIG 3514  16.645  24.388   6.038
    7AU       S 3515  18.556  25.549   7.070
    7AU     LIG 3516  18.455  25.144   6.855
    7AU     LIG 3517  18.263  24.709   6.739
    7AU     LIG 3518  18.243  24.287   6.534
    7AU     LIG 3519  18.503  24.064   6.209
    7AU     LIG 3520  18.917  23.891   6.121
    7AU    AUSL 3521  18.739  25.983   7.336
    7AU    AUSL 3522  18.746  26.282   6.964
    7AU     AUL 3523  18.824  25.907   6.953
    7AU       S 3524  18.849  25.624   7.327
    7AU     LIG 3525  18.835  25.128   7.204
    7AU     LIG 3526  18.540  24.738   7.158
    7AU     LIG 3527  18.575  24.324   6.960
    7AU     LIG 3528  18.867  23.956   6.940
    7AU     LIG 3529  18.927  23.645   6.607
    7AU       S 3530  19.056  26.109   6.618
    7AU     LIG 3531  18.920  25.674   6.516
    7AU     LIG 3532  19.107  25.250   6.378
    7AU     LIG 3533  19.333  24.880   6.129
    7AU     LIG 3534  19.613  24.607   5.840
    7AU     LIG 3535  19.802  24.567   5.411
    8AU     AUC 3536  16.425  34.687   7.510
    8AU     AUC 3537  16.707  34.694   7.332
    8AU     AUC 3538  16.687  34.670   7.681
    8AU     AUC 3539  16.141  34.689   7.342
    8AU     AUC 3540  16.161  34.724   7.693
    8AU     AUC 3541  16.264  34.975   7.512
    8AU     AUC 3542  16.627  34.962   7.507
    8AU     AUC 3543  16.231  34.417   7.517
    8AU     AUC 3544  16.585  34.392   7.504
    8AU     AUC 3545  16.423  34.510   7.787
    8AU     AUC 3546  16.425  34.856   7.784
    8AU     AUC 3547  16.416  34.522   7.235
    8AU     AUC 3548  16.441  34.846   7.239
    8AU     AUC 3549  17.010  34.700   7.160
    8AU     AUC 3550  17.028  34.651   7.518
    8AU     AUC 3551  16.976  34.634   7.875
    8AU     AUC 3552  15.840  34.680   7.170
    8AU     AUC 3553  15.819  34.729   7.529
    8AU     AUC 3554  15.865  34.759   7.876
    8AU     AUC 3555  16.106  35.286   7.495
    8AU     AUC 3556  16.467  35.293   7.491
    8AU     AUC 3557  16.842  35.233   7.507
    8AU     AUC 3558  16.026  34.140   7.525
    8AU     AUC 3559  16.387  34.083   7.497
    8AU     AUC 3560  16.748  34.093   7.487
    8AU     AUC 3561  16.398  34.332   8.073
    8AU     AUC 3562  16.438  34.700   8.122
    8AU     AUC 3563  16.453  35.033   8.080
    8AU     AUC 3564  16.438  34.344   6.959
    8AU     AUC 3565  16.427  34.684   6.903
    8AU     AUC 3566  16.419  35.017   6.941
    8AU     AUC 3567  16.690  34.466   8.011
    8AU     AUC 3568  16.744  34.817   8.017
    8AU     AUC 3569  16.743  34.550   7.000
    8AU     AUC 3570  16.740  34.874   7.037
    8AU     AUC 3571  16.110  34.553   8.014
    8AU     AUC 3572  16.150  34.928   7.994
    8AU     AUC 3573  16.121  34.495   7.051
    8AU     AUC 3574  16.105  34.823   7.009
    8AU     AUC 3575  16.966  34.976   7.344
    8AU     AUC 3576  16.937  34.954   7.693
    8AU     AUC 3577  15.951  34.995   7.324
    8AU     AUC 3578  15.962  35.044   7.685
    8AU     AUC 3579  16.892  34.380   7.318
    8AU     AUC 3580  16.870  34.336   7.679
    8AU     AUC 3581  15.902  34.386   7.365
    8AU     AUC 3582  15.952  34.436   7.716
    8AU     AUC 3583  16.292  35.224   7.789
    8AU     AUC 3584  16.644  35.144   7.779
    8AU     AUC 3585  16.208  34.219   7.805
    8AU     AUC 3586  16.552  34.163   7.784
    8AU     AUC 3587  16.259  35.138   7.210
    8AU     AUC 3588  16.630  35.177   7.219
    8AU     AUC 3589  16.225  34.208   7.223
    8AU     AUC 3590  16.613  34.224   7.206
    8AU    AUSL 3591  16.957  34.533   8.261
    8AU    AUSL 3592  16.713  34.150   8.183
    8AU     AUL 3593  16.934  34.194   8.561
    8AU       S 3594  17.028  33.956   8.189
    8AU     LIG 3595  16.882  33.674   8.523
    8AU     LIG 3596  17.045  33.275   8.687
    8AU     LIG 3597  17.317  33.004   8.965
    8AU     LIG 3598  17.604  32.980   9.329
    8AU     LIG 3599  17.891  32.986   9.707
    8AU       S 3600  17.169  34.456   8.278
    8AU     LIG 3601  17.407  34.495   8.642
    8AU     LIG 3602  17.674  34.555   9.024
    8AU     LIG 3603  17.922  34.501   9.425
    8AU     LIG 3604  18.071  34.496   9.879
    8AU     LIG 3605  18.192  34.400  10.332
    8AU    AUSL 3606  16.539  34.489   8.392
    8AU    AUSL 3607  16.297  34.872   8.406
    8AU     AUL 3608  16.490  34.797   8.760
    8AU       S 3609  16.557  34.424   8.518
    8AU     LIG 3610  16.574  34.286   8.942
    8AU     LIG 3611  16.740  34.036   9.337
    8AU     LIG 3612  16.943  33.828   9.749
    8AU     LIG 3613  17.151  33.782  10.199
    8AU     LIG 3614  17.085  33.762  10.681
    8AU       S 3615  16.087  34.625   8.631
    8AU     LIG 3616  16.141  34.548   9.092
    8AU     LIG 3617  15.883  34.545   9.480
    8AU     LIG 3618  15.713  34.601   9.911
    8AU     LIG 3619  15.618  34.913  10.259
    8AU     LIG 3620  15.510  35.261  10.567
    8AU    AUSL 3621  16.714  34.895   8.372
    8AU    AUSL 3622  17.080  34.919   8.122
    8AU     AUL 3623  16.990  34.795   8.533
    8AU       S 3624  16.644  35.188   8.511
    8AU     LIG 3625  16.942  35.176   8.874
    8AU     LIG 3626  17.044  35.295   9.340
    8AU     LIG 3627  17.030  35.352   9.835
    8AU     LIG 3628  17.029  35.407  10.325
    8AU     LIG 3629  17.130  35.474  10.803
    8AU       S 3630  17.164  35.160   8.305
    8AU     LIG 3631  17.520  34.911   8.364
    8AU     LIG 3632  17.928  35.015   8.564
    8AU     LIG 3633  18.112  35.280   8.919
    8AU     LIG 3634  18.334  35.588   9.181
    8AU     LIG 3635  18.667  35.735   9.484
    8AU    AUSL 3636  16.952  34.850   6.757
    8AU    AUSL 3637  16.731  35.155   6.981
    8AU     AUL 3638  16.784  35.250   6.621
    8AU       S 3639  16.954  34.888   6.383
    8AU     LIG 3640  17.347  34.783   6.196
    8AU     LIG 3641  17.499  34.470   5.890
    8AU     LIG 3642  17.577  34.368   5.448
    8AU     LIG 3643  17.775  34.372   5.038
    8AU     LIG 3644  18.187  34.251   4.823
    8AU       S 3645  17.172  35.378   6.842
    8AU     LIG 3646  17.344  35.388   6.408
    8AU     LIG 3647  17.587  35.433   6.022
    8AU     LIG 3648  17.773  35.700   5.692
    8AU     LIG 3649  17.802  36.065   5.388
    8AU     LIG 3650  17.871  36.357   5.020
    8AU    AUSL 3651  16.728  34.510   6.623
    8AU    AUSL 3652  17.058  34.459   6.915
    8AU     AUL 3653  17.194  34.625   6.686
    8AU       S 3654  17.074  34.180   6.627
    8AU     LIG 3655  17.575  34.077   6.703
    8AU     LIG 3656  17.860  33.684   6.592
    8AU     LIG 3657  18.044  33.367   6.245
    8AU     LIG 3658  18.366  33.362   5.873
    8AU     LIG 3659  18.428  33.259   5.403
    8AU       S 3660  16.885  34.610   6.334
    8AU     LIG 3661  17.044  34.313   6.087
    8AU     LIG 3662  17.102  34.236   5.619
    8AU     LIG 3663  17.196  34.171   5.148
    8AU     LIG 3664  17.224  33.915   4.732
    8AU     LIG 3665  17.388  33.790   4.296
    8AU    AUSL 3666  16.527  34.883   6.708
    8AU    AUSL 3667  16.314  34.480   6.737
    8AU     AUL 3668  16.451  34.526   6.450
    8AU       S 3669  16.017  34.514   6.308
    8AU     LIG 3670  16.066  34.320   5.922
    8AU     LIG 3671  15.842  34.040   5.651
    8AU     LIG 3672  15.607  34.029   5.264
    8AU     LIG 3673  15.413  34.092   4.840
    8AU     LIG 3674  15.281  33.860   4.429
    8AU       S 3675  16.676  34.908   6.316
    8AU     LIG 3676  16.900  34.795   5.879
    8AU     LIG 3677  17.217  34.738   5.544
    8AU     LIG 3678  17.325  34.685   5.093
    8AU     LIG 3679  17.253  34.891   4.661
    8AU     LIG 3680  17.359  35.053   4.220
    8AU    AUSL 3681  15.896  34.833   8.248
    8AU    AUSL 3682  16.189  35.175   8.134
    8AU     AUL 3683  16.065  35.126   8.467
    8AU       S 3684  15.907  34.737   8.691
    8AU     LIG 3685  15.669  34.410   8.890
    8AU     LIG 3686  15.448  34.326   9.302
    8AU     LIG 3687  15.270  34.392   9.741
    8AU     LIG 3688  14.970  34.408  10.115
    8AU     LIG 3689  14.583  34.412  10.403
    8AU       S 3690  15.787  35.428   8.200
    8AU     LIG 3691  15.805  35.559   8.621
    8AU     LIG 3692  15.660  35.797   8.997
    8AU     LIG 3693  15.639  36.171   9.277
    8AU     LIG 3694  15.373  36.345   9.621
    8AU     LIG 3695  15.303  36.651   9.974
    8AU    AUSL 3696  16.184  34.527   8.169
    8AU    AUSL 3697  15.759  34.435   8.124
    8AU     AUL 3698  15.689  34.638   8.298
    8AU       S 3699  15.625  34.163   8.337
    8AU     LIG 3700  15.184  34.100   8.172
    8AU     LIG 3701  14.890  33.724   8.228
    8AU     LIG 3702  14.640  33.354   8.446
    8AU     LIG 3703  14.489  33.064   8.804
    8AU     LIG 3704  14.263  32.877   9.149
    8AU       S 3705  16.064  34.473   8.546
    8AU     LIG 3706  16.095  34.127   8.806
    8AU     LIG 3707  15.913  34.084   9.247
    8AU     LIG 3708  15.710  34.093   9.698
    8AU     LIG 3709  15.581  33.868  10.119
    8AU     LIG 3710  15.484  33.691  10.566
    8AU    AUSL 3711  15.891  34.537   6.782
    8AU    AUSL 3712  16.105  34.188   6.965
    8AU     AUL 3713  16.142  34.184   6.630
    8AU       S 3714  15.856  34.445   6.378
    8AU     LIG 3715  15.565  34.344   6.071
    8AU     LIG 3716  15.360  34.241   5.687
    8AU     LIG 3717  15.237  34.390   5.279
    8AU     LIG 3718  14.939  34.323   4.933
    8AU     LIG 3719  14.552  34.302   4.653
    8AU       S 3720  15.730  34.036   6.790
    8AU     LIG 3721  15.426  33.669   6.708
    8AU     LIG 3722  15.162  33.402   6.442
    8AU     LIG 3723  15.003  33.297   5.993
    8AU     LIG 3724  14.974  33.204   5.517
    8AU     LIG 3725  14.876  32.864   5.195
    8AU    AUSL 3726  16.119  34.861   6.617
    8AU    AUSL 3727  15.783  34.938   6.919
    8AU     AUL 3728  15.675  34.758   6.649
    8AU       S 3729  15.778  35.197   6.673
    8AU     LIG 3730  15.381  35.266   6.565
    8AU     LIG 3731  15.222  35.477   6.166
    8AU     LIG 3732  15.105  35.668   5.747
    8AU     LIG 3733  14.762  35.748   5.429
    8AU     LIG 3734  14.534  35.905   5.045
    8AU       S 3735  16.061  34.806   6.369
    8AU     LIG 3736  15.812  34.796   5.956
    8AU     LIG 3737  15.750  34.543   5.547
    8AU     LIG 3738  15.699  34.508   5.073
    8AU     LIG 3739  15.646  34.726   4.654
    8AU     LIG 3740  15.598  35.011   4.268
    8AU    AUSL 3741  17.264  35.157   7.510
    8AU    AUSL 3742  17.120  34.961   7.125
    8AU     AUL 3743  17.500  35.141   7.169
    8AU       S 3744  17.191  35.226   6.860
    8AU     LIG 3745  17.540  35.003   6.679
    8AU     LIG 3746  17.859  35.127   6.356
    8AU     LIG 3747  18.101  35.437   6.063
    8AU     LIG 3748  18.286  35.760   5.758
    8AU     LIG 3749  18.536  35.948   5.408
    8AU       S 3750  17.637  35.240   7.600
    8AU     LIG 3751  18.073  35.330   7.446
    8AU     LIG 3752  18.531  35.425   7.413
    8AU     LIG 3753  18.926  35.631   7.549
    8AU     LIG 3754  19.164  35.938   7.826
    8AU     LIG 3755  19.307  36.394   7.770
    8AU    AUSL 3756  17.396  34.759   7.392
    8AU    AUSL 3757  17.317  34.440   7.708
    8AU     AUL 3758  17.555  34.621   7.828
    8AU       S 3759  17.704  34.831   7.443
    8AU     LIG 3760  18.021  34.927   7.145
    8AU     LIG 3761  18.440  35.107   6.988
    8AU     LIG 3762  18.912  35.222   7.082
    8AU     LIG 3763  19.383  35.175   7.139
    8AU     LIG 3764  19.721  35.546   7.102
    8AU       S 3765  17.550  34.282   7.494
    8AU     LIG 3766  17.821  34.067   7.741
    8AU     LIG 3767  18.148  33.884   7.974
    8AU     LIG 3768  18.578  33.728   7.877
    8AU     LIG 3769  19.050  33.817   7.986
    8AU     LIG 3770  19.448  33.742   8.261
    8AU    AUSL 3771  17.117  34.810   7.721
    8AU    AUSL 3772  17.051  35.275   7.857
    8AU     AUL 3773  17.338  35.033   7.892
    8AU       S 3774  17.249  35.436   8.118
    8AU     LIG 3775  17.678  35.368   8.205
    8AU     LIG 3776  17.963  35.559   8.521
    8AU     LIG 3777  18.134  35.920   8.803
    8AU     LIG 3778  18.316  36.389   8.836
    8AU     LIG 3779  18.532  36.843   8.808
    8AU       S 3780  17.716  35.013   7.630
    8AU     LIG 3781  17.935  34.954   8.032
    8AU     LIG 3782  18.383  34.785   8.161
    8AU     LIG 3783  18.824  35.025   8.164
    8AU     LIG 3784  19.262  35.240   8.059
    8AU     LIG 3785  19.567  35.625   8.039
    8AU    AUSL 3786  15.761  35.278   7.523
    8AU    AUSL 3787  15.843  35.061   7.901
    8AU     AUL 3788  15.523  35.370   7.757
    8AU       S 3789  15.690  35.229   8.158
    8AU     LIG 3790  15.559  35.098   8.559
    8AU     LIG 3791  15.402  35.338   8.939
    8AU     LIG 3792  15.084  35.500   9.269
    8AU     LIG 3793  14.728  35.596   9.585
    8AU     LIG 3794  14.421  35.783   9.895
    8AU       S 3795  15.758  35.645   7.435
    8AU     LIG 3796  15.293  35.574   7.340
    8AU     LIG 3797  14.837  35.757   7.342
    8AU     LIG 3798  14.497  36.065   7.486
    8AU     LIG 3799  14.133  36.316   7.663
    8AU     LIG 3800  13.746  36.536   7.708
    8AU    AUSL 3801  15.717  34.895   7.328
    8AU    AUSL 3802  15.866  35.320   7.119
    8AU     AUL 3803  15.567  35.194   7.155
    8AU       S 3804  15.342  34.781   6.993
    8AU     LIG 3805  15.060  35.177   7.062
    8AU     LIG 3806  14.623  35.415   6.998
    8AU     LIG 3807  14.226  35.648   6.791
    8AU     LIG 3808  13.756  35.691   6.685
    8AU     LIG 3809  13.333  35.841   6.535
    8AU       S 3810  15.654  35.593   6.890
    8AU     LIG 3811  15.564  35.749   6.441
    8AU     LIG 3812  15.288  36.017   6.120
    8AU     LIG 3813  15.012  36.416   6.004
    8AU     LIG 3814  14.775  36.844   6.079
    8AU     LIG 3815  14.710  37.325   6.016
    8AU    AUSL 3816  15.500  34.921   7.714
    8AU    AUSL 3817  15.467  34.569   7.391
    8AU     AUL 3818  15.327  34.919   7.440
    8AU       S 3819  15.204  34.485   7.602
    8AU     LIG 3820  14.885  34.319   7.284
    8AU     LIG 3821  14.445  34.190   7.378
    8AU     LIG 3822  14.037  34.073   7.176
    8AU     LIG 3823  13.578  34.024   7.155
    8AU     LIG 3824  13.177  34.044   6.985
    8AU       S 3825  15.382  34.899   7.949
    8AU     LIG 3826  14.976  35.121   7.770
    8AU     LIG 3827  14.524  35.392   7.810
    8AU     LIG 3828  14.079  35.515   8.065
    8AU     LIG 3829  13.647  35.745   8.197
    8AU     LIG 3830  13.144  35.659   8.246
    8AU    AUSL 3831  17.105  34.098   7.520
    8AU    AUSL 3832  16.945  34.359   7.880
    8AU     AUL 3833  17.289  34.195   7.881
    8AU       S 3834  17.398  33.994   7.467
    8AU     LIG 3835  17.700  33.640   7.500
    8AU     LIG 3836  18.134  33.515   7.617
    8AU     LIG 3837  18.508  33.296   7.456
    8AU     LIG 3838  18.817  32.926   7.482
    8AU     LIG 3839  19.176  32.601   7.490
    8AU       S 3840  17.107  33.845   8.106
    8AU     LIG 3841  17.338  33.534   8.302
    8AU     LIG 3842  17.559  33.316   8.619
    8AU     LIG 3843  17.840  33.082   8.884
    8AU     LIG 3844  18.114  32.932   9.226
    8AU     LIG 3845  18.442  33.058   9.540
    8AU    AUSL 3846  17.100  34.478   7.326
    8AU    AUSL 3847  17.008  34.068   7.108
    8AU     AUL 3848  17.259  34.227   7.091
    8AU       S 3849  17.606  34.333   7.348
    8AU     LIG 3850  17.834  33.987   7.156
    8AU     LIG 3851  18.164  33.643   7.125
    8AU     LIG 3852  18.642  33.718   7.177
    8AU     LIG 3853  19.146  33.804   7.187
    8AU     LIG 3854  19.491  33.871   6.881
    8AU       S 3855  17.085  34.013   6.690
    8AU     LIG 3856  17.301  33.662   6.857
    8AU     LIG 3857  17.512  33.267   6.660
    8AU     LIG 3858  17.612  32.875   6.387
    8AU     LIG 3859  17.848  32.474   6.248
    8AU     LIG 3860  18.014  32.158   5.913
    8AU    AUSL 3861  15.633  34.197   7.557
    8AU    AUSL 3862  15.789  34.414   7.167
    8AU     AUL 3863  15.423  34.297   7.232
    8AU       S 3864  15.620  34.165   6.844
    8AU     LIG 3865  15.153  34.096   6.796
    8AU     LIG 3866  14.831  33.786   6.588
    8AU     LIG 3867  14.659  33.392   6.377
    8AU     LIG 3868  14.265  33.201   6.234
    8AU     LIG 3869  13.954  33.256   5.892
    8AU       S 3870  15.200  34.198   7.639
    8AU     LIG 3871  14.863  33.883   7.591
    8AU     LIG 3872  14.523  33.692   7.848
    8AU     LIG 3873  14.064  33.561   7.863
    8AU     LIG 3874  13.588  33.401   7.821
    8AU     LIG 3875  13.236  33.200   7.566
    8AU    AUSL 3876  15.741  34.583   7.730
    8AU    AUSL 3877  15.947  34.181   7.840
    8AU     AUL 3878  15.564  34.316   7.894
    8AU       S 3879  15.659  33.933   8.114
    8AU     LIG 3880  15.328  33.738   7.844
    8AU     LIG 3881  14.976  33.404   7.838
    8AU     LIG 3882  14.757  33.034   8.053
    8AU     LIG 3883  14.418  32.856   8.346
    8AU     LIG 3884  14.161  32.635   8.690
    8AU       S 3885  15.173  34.510   7.756
    8AU     LIG 3886  14.706  34.642   7.666
    8AU     LIG 3887  14.235  34.513   7.701
    8AU     LIG 3888  14.030  34.080   7.723
    8AU     LIG 3889  13.564  34.014   7.813
    8AU     LIG 3890  13.138  33.989   8.038
    8AU    AUSL 3891  16.472  35.464   8.011
    8AU    AUSL 3892  16.054  35.420   7.804
    8AU     AUL 3893  16.240  35.527   8.209
    8AU       S 3894  15.910  35.614   7.897
    8AU     LIG 3895  15.848  35.936   8.250
    8AU     LIG 3896  15.601  36.149   8.622
    8AU     LIG 3897  15.345  36.428   8.941
    8AU     LIG 3898  15.035  36.743   9.092
    8AU     LIG 3899  14.718  37.060   8.916
    8AU       S 3900  16.580  35.843   7.997
    8AU     LIG 3901  16.689  36.277   8.190
    8AU     LIG 3902  16.821  36.671   8.446
    8AU     LIG 3903  16.890  36.924   8.842
    8AU     LIG 3904  16.803  37.106   9.256
    8AU     LIG 3905  16.390  37.206   9.449
    8AU    AUSL 3906  16.351  35.652   7.621
    8AU    AUSL 3907  16.615  35.565   7.272
    8AU     AUL 3908  16.631  35.913   7.405
    8AU       S 3909  16.368  35.856   7.785
    8AU     LIG 3910  16.418  36.304   7.742
    8AU     LIG 3911  16.459  36.722   7.981
    8AU     LIG 3912  16.360  37.103   8.229
    8AU     LIG 3913  16.218  37.549   8.104
    8AU     LIG 3914  16.083  37.970   8.264
    8AU       S 3915  16.388  35.885   7.023
    8AU     LIG 3916  16.723  36.263   7.051
    8AU     LIG 3917  16.886  36.709   7.033
    8AU     LIG 3918  17.070  37.092   6.851
    8AU     LIG 3919  17.298  37.484   6.761
    8AU     LIG 3920  17.215  37.948   6.803
    8AU    AUSL 3921  16.709  35.406   7.658
    8AU    AUSL 3922  16.693  35.110   8.023
    8AU     AUL 3923  16.781  35.429   8.100
    8AU       S 3924  17.100  35.305   8.401
    8AU     LIG 3925  17.479  35.322   8.687
    8AU     LIG 3926  17.725  35.603   8.982
    8AU     LIG 3927  17.920  35.902   9.289
    8AU     LIG 3928  17.863  36.211   9.652
    8AU     LIG 3929  17.794  36.382  10.097
    8AU       S 3930  16.822  35.726   7.764
    8AU     LIG 3931  16.927  36.202   7.740
    8AU     LIG 3932  16.966  36.652   7.942
    8AU     LIG 3933  17.038  37.051   8.184
    8AU     LIG 3934  17.175  37.497   8.295
    8AU     LIG 3935  16.967  37.815   8.573
    8AU    AUSL 3936  16.376  34.037   7.938
    8AU    AUSL 3937  16.794  33.973   7.784
    8AU     AUL 3938  16.576  33.848   8.151
    8AU       S 3939  16.368  33.467   7.998
    8AU     LIG 3940  16.332  33.173   8.293
    8AU     LIG 3941  16.241  32.740   8.265
    8AU     LIG 3942  16.299  32.298   8.282
    8AU     LIG 3943  16.335  31.899   8.510
    8AU     LIG 3944  16.397  31.761   8.960
    8AU       S 3945  16.957  33.799   7.869
    8AU     LIG 3946  16.887  33.379   8.090
    8AU     LIG 3947  17.204  33.026   8.267
    8AU     LIG 3948  17.536  32.804   8.546
    8AU     LIG 3949  17.914  32.590   8.772
    8AU     LIG 3950  18.213  32.226   8.853
    8AU    AUSL 3951  16.057  33.815   7.687
    8AU    AUSL 3952  16.107  34.128   8.247
    8AU     AUL 3953  16.097  33.845   8.037
    8AU       S 3954  16.162  33.413   7.852
    8AU     LIG 3955  15.995  32.976   7.869
    8AU     LIG 3956  15.827  32.545   7.998
    8AU     LIG 3957  15.790  32.094   8.099
    8AU     LIG 3958  15.525  31.761   8.326
    8AU     LIG 3959  15.372  31.294   8.338
    8AU       S 3960  15.823  34.019   8.390
    8AU     LIG 3961  15.401  33.686   8.436
    8AU     LIG 3962  15.140  33.279   8.345
    8AU     LIG 3963  14.912  32.906   8.563
    8AU     LIG 3964  14.837  32.733   9.018
    8AU     LIG 3965  14.657  32.652   9.430
    8AU    AUSL 3966  16.479  33.742   7.636
    8AU    AUSL 3967  16.250  33.972   7.338
    8AU     AUL 3968  16.122  33.637   7.447
    8AU       S 3969  16.472  33.515   7.190
    8AU     LIG 3970  16.057  33.273   7.109
    8AU     LIG 3971  15.885  32.827   7.077
    8AU     LIG 3972  15.833  32.349   7.004
    8AU     LIG 3973  15.843  31.911   6.792
    8AU     LIG 3974  15.564  31.683   6.443
    8AU       S 3975  16.491  33.519   7.763
    8AU     LIG 3976  16.503  32.999   7.839
    8AU     LIG 3977  16.293  32.525   7.794
    8AU     LIG 3978  16.260  32.024   7.870
    8AU     LIG 3979  16.429  31.614   8.059
    8AU     LIG 3980  16.860  31.433   8.187
    8AU    AUSL 3981  16.420  35.427   6.905
    8AU    AUSL 3982  16.973  35.351   7.278
    8AU     AUL 3983  16.762  35.557   6.982
    8AU       S 3984  16.383  35.795   6.810
    8AU     LIG 3985  16.713  36.018   6.608
    8AU     LIG 3986  16.804  36.480   6.557
    8AU     LIG 3987  16.809  36.926   6.397
    8AU     LIG 3988  16.600  37.198   6.055
    8AU     LIG 3989  16.511  37.197   5.580
    8AU       S 3990  17.195  35.492   7.140
    8AU     LIG 3991  17.635  35.522   6.867
    8AU     LIG 3992  17.817  35.641   6.453
    8AU     LIG 3993  18.046  35.949   6.176
    8AU     LIG 3994  18.302  36.354   6.141
    8AU     LIG 3995  18.361  36.827   6.163
    8AU    AUSL 3996  16.227  35.388   7.319
    8AU    AUSL 3997  16.191  35.086   6.963
    8AU     AUL 3998  16.096  35.476   6.976
    8AU       S 3999  16.190  35.851   7.215
    8AU     LIG 4000  16.229  36.339   7.144
    8AU     LIG 4001  16.413  36.669   6.852
    8AU     LIG 4002  16.497  37.117   6.751
    8AU     LIG 4003  16.331  37.496   6.540
    8AU     LIG 4004  16.314  37.915   6.344
    8AU       S 4005  15.929  35.301   6.598
    8AU     LIG 4006  15.743  35.333   6.177
    8AU     LIG 4007  15.615  35.684   5.887
    8AU     LIG 4008  15.474  36.008   5.563
    8AU     LIG 4009  15.500  36.358   5.236
    8AU     LIG 4010  15.394  36.631   4.863
    8AU    AUSL 4011  16.433  33.916   6.947
    8AU    AUSL 4012  15.842  33.986   7.254
    8AU     AUL 4013  16.099  33.812   7.007
    8AU       S 4014  15.650  33.924   7.075
    8AU     LIG 4015  15.212  33.779   7.186
    8AU     LIG 4016  14.920  33.445   6.960
    8AU     LIG 4017  14.662  33.081   6.786
    8AU     LIG 4018  14.215  32.974   6.692
    8AU     LIG 4019  14.074  32.686   6.358
    8AU       S 4020  16.474  33.520   6.957
    8AU     LIG 4021  16.442  33.079   6.822
    8AU     LIG 4022  16.267  32.644   6.758
    8AU     LIG 4023  16.112  32.277   6.540
    8AU     LIG 4024  16.036  31.897   6.315
    8AU     LIG 4025  16.045  31.703   5.907
    8AU    AUSL 4026  16.677  33.941   7.326
    8AU    AUSL 4027  16.661  34.262   6.953
    8AU     AUL 4028  16.791  33.856   7.003
    8AU       S 4029  16.673  33.501   7.280
    8AU     LIG 4030  16.455  33.035   7.336
    8AU     LIG 4031  16.287  32.575   7.261
    8AU     LIG 4032  16.299  32.151   6.999
    8AU     LIG 4033  16.580  31.815   6.904
    8AU     LIG 4034  16.706  31.368   6.866
    8AU       S 4035  16.772  34.056   6.590
    8AU     LIG 4036  16.863  33.571   6.572
    8AU     LIG 4037  17.107  33.202   6.326
    8AU     LIG 4038  17.293  32.914   5.968
    8AU     LIG 4039  17.570  32.871   5.571
    8AU     LIG 4040  17.804  32.734   5.168
    9AU     AUC 4041  30.653  40.460   7.516
    9AU     AUC 4042  30.939  40.468   7.344
    9AU     AUC 4043  30.915  40.455   7.689
    9AU     AUC 4044  30.367  40.456   7.344
    9AU     AUC 4045  30.392  40.496   7.699
    9AU     AUC 4046  30.483  40.745   7.512
    9AU     AUC 4047  30.850  40.738   7.509
    9AU     AUC 4048  30.460  40.189   7.520
    9AU     AUC 4049  30.813  40.170   7.517
    9AU     AUC 4050  30.648  40.288   7.798
    9AU     AUC 4051  30.648  40.632   7.788
    9AU     AUC 4052  30.648  40.292   7.242
    9AU     AUC 4053  30.674  40.613   7.243
    9AU     AUC 4054  31.251  40.472   7.177
    9AU     AUC 4055  31.259  40.436   7.537
    9AU     AUC 4056  31.202  40.433   7.887
    9AU     AUC 4057  30.067  40.445   7.170
    9AU     AUC 4058  30.044  40.492   7.528
    9AU     AUC 4059  30.091  40.525   7.885
    9AU     AUC 4060  30.319  41.053   7.488
    9AU     AUC 4061  30.678  41.064   7.481
    9AU     AUC 4062  31.058  41.015   7.505
    9AU     AUC 4063  30.254  39.911   7.525
    9AU     AUC 4064  30.613  39.858   7.509
    9AU     AUC 4065  30.979  39.871   7.506
    9AU     AUC 4066  30.625  40.112   8.091
    9AU     AUC 4067  30.667  40.483   8.131
    9AU     AUC 4068  30.671  40.816   8.077
    9AU     AUC 4069  30.676  40.113   6.966
    9AU     AUC 4070  30.666  40.446   6.906
    9AU     AUC 4071  30.655  40.773   6.945
    9AU     AUC 4072  30.919  40.258   8.021
    9AU     AUC 4073  30.967  40.617   8.018
    9AU     AUC 4074  30.987  40.316   7.016
    9AU     AUC 4075  30.980  40.637   7.048
    9AU     AUC 4076  30.337  40.326   8.023
    9AU     AUC 4077  30.372  40.692   8.001
    9AU     AUC 4078  30.353  40.265   7.052
    9AU     AUC 4079  30.334  40.587   7.008
    9AU     AUC 4080  31.198  40.751   7.354
    9AU     AUC 4081  31.162  40.747   7.695
    9AU     AUC 4082  30.168  40.758   7.330
    9AU     AUC 4083  30.180  40.809   7.688
    9AU     AUC 4084  31.129  40.156   7.346
    9AU     AUC 4085  31.094  40.120   7.699
    9AU     AUC 4086  30.129  40.148   7.359
    9AU     AUC 4087  30.184  40.204   7.714
    9AU     AUC 4088  30.499  40.996   7.783
    9AU     AUC 4089  30.855  40.930   7.772
    9AU     AUC 4090  30.433  39.993   7.815
    9AU     AUC 4091  30.773  39.944   7.796
    9AU     AUC 4092  30.480  40.903   7.208
    9AU     AUC 4093  30.858  40.941   7.218
    9AU     AUC 4094  30.456  39.981   7.226
    9AU     AUC 4095  30.848  40.000   7.225
    9AU    AUSL 4096  31.204  40.357   8.248
    9AU    AUSL 4097  30.929  39.938   8.189
    9AU     AUL 4098  31.220  39.960   8.422
    9AU       S 4099  31.271  39.598   8.147
    9AU     LIG 4100  31.138  39.437   8.520
    9AU     LIG 4101  31.328  39.092   8.762
    9AU     LIG 4102  31.588  38.783   9.007
    9AU     LIG 4103  31.865  38.767   9.377
    9AU     LIG 4104  32.001  38.621   9.801
    9AU       S 4105  31.449  40.332   8.299
    9AU     LIG 4106  31.464  40.270   8.758
    9AU     LIG 4107  31.515  40.121   9.210
    9AU     LIG 4108  31.700  40.079   9.647
    9AU     LIG 4109  32.010  40.081  10.005
    9AU     LIG 4110  32.395  40.017  10.278
    9AU    AUSL 4111  30.795  40.290   8.400
    9AU    AUSL 4112  30.521  40.651   8.416
    9AU     AUL 4113  30.722  40.602   8.759
    9AU       S 4114  30.882  40.233   8.554
    9AU     LIG 4115  30.782  40.084   8.920
    9AU     LIG 4116  31.033  39.930   9.283
    9AU     LIG 4117  31.248  39.816   9.692
    9AU     LIG 4118  31.251  39.627  10.136
    9AU     LIG 4119  31.273  39.448  10.583
    9AU       S 4120  30.332  40.394   8.658
    9AU     LIG 4121  30.352  40.295   9.123
    9AU     LIG 4122  30.070  40.280   9.501
    9AU     LIG 4123  29.808  40.299   9.900
    9AU     LIG 4124  29.705  40.608  10.261
    9AU     LIG 4125  29.678  40.975  10.576
    9AU    AUSL 4126  30.933  40.705   8.366
    9AU    AUSL 4127  31.301  40.754   8.125
    9AU     AUL 4128  31.200  40.633   8.530
    9AU       S 4129  30.832  41.007   8.498
    9AU     LIG 4130  31.113  41.000   8.863
    9AU     LIG 4131  31.255  41.126   9.297
    9AU     LIG 4132  31.217  41.198   9.772
    9AU     LIG 4133  31.188  41.182  10.251
    9AU     LIG 4134  31.333  41.105  10.697
    9AU       S 4135  31.370  40.998   8.298
    9AU     LIG 4136  31.720  40.768   8.424
    9AU     LIG 4137  32.101  40.971   8.632
    9AU     LIG 4138  32.442  41.234   8.845
    9AU     LIG 4139  32.682  41.537   9.122
    9AU     LIG 4140  33.015  41.544   9.465
    9AU    AUSL 4141  31.201  40.603   6.773
    9AU    AUSL 4142  30.977  40.915   6.984
    9AU     AUL 4143  31.038  40.997   6.628
    9AU       S 4144  31.178  40.656   6.355
    9AU     LIG 4145  31.535  40.480   6.144
    9AU     LIG 4146  31.631  40.204   5.795
    9AU     LIG 4147  31.730  40.160   5.338
    9AU     LIG 4148  31.916  40.131   4.898
    9AU     LIG 4149  32.284  40.094   4.576
    9AU       S 4150  31.411  41.166   6.865
    9AU     LIG 4151  31.656  41.347   6.511
    9AU     LIG 4152  31.950  41.518   6.155
    9AU     LIG 4153  32.171  41.787   5.815
    9AU     LIG 4154  32.076  42.040   5.394
    9AU     LIG 4155  32.038  42.293   4.964
    9AU    AUSL 4156  30.973  40.263   6.632
    9AU    AUSL 4157  31.319  40.221   6.942
    9AU     AUL 4158  31.388  40.342   6.633
    9AU       S 4159  31.430  39.886   6.703
    9AU     LIG 4160  31.586  39.554   6.375
    9AU     LIG 4161  31.850  39.158   6.263
    9AU     LIG 4162  32.126  38.824   6.024
    9AU     LIG 4163  32.556  38.736   5.816
    9AU     LIG 4164  32.923  38.913   5.540
    9AU       S 4165  31.060  40.496   6.323
    9AU     LIG 4166  31.170  40.108   6.153
    9AU     LIG 4167  31.207  39.924   5.712
    9AU     LIG 4168  31.283  39.936   5.232
    9AU     LIG 4169  31.448  39.916   4.776
    9AU     LIG 4170  31.487  39.709   4.329
    9AU    AUSL 4171  30.773  40.634   6.726
    9AU    AUSL 4172  30.554  40.245   6.740
    9AU     AUL 4173  30.720  40.231   6.469
    9AU       S 4174  30.286  40.273   6.307
    9AU     LIG 4175  30.348  40.076   5.923
    9AU     LIG 4176  30.098  39.810   5.632
    9AU     LIG 4177  29.885  39.766   5.220
    9AU     LIG 4178  29.785  39.615   4.782
    9AU     LIG 4179  29.624  39.472   4.359
    9AU       S 4180  30.833  40.674   6.355
    9AU     LIG 4181  30.929  40.493   5.862
    9AU     LIG 4182  31.245  40.393   5.496
    9AU     LIG 4183  31.396  40.417   5.033
    9AU     LIG 4184  31.475  40.735   4.677
    9AU     LIG 4185  31.531  41.059   4.328
    9AU    AUSL 4186  30.123  40.597   8.263
    9AU    AUSL 4187  30.412  40.939   8.129
    9AU     AUL 4188  30.289  40.898   8.469
    9AU       S 4189  30.156  40.524   8.723
    9AU     LIG 4190  29.897  40.184   8.889
    9AU     LIG 4191  29.646  40.072   9.289
    9AU     LIG 4192  29.413  40.002   9.703
    9AU     LIG 4193  29.172  39.890  10.098
    9AU     LIG 4194  28.767  39.920  10.342
    9AU       S 4195  29.996  41.176   8.208
    9AU     LIG 4196  30.041  41.348   8.606
    9AU     LIG 4197  29.934  41.560   9.016
    9AU     LIG 4198  29.703  41.731   9.383
    9AU     LIG 4199  29.691  41.967   9.798
    9AU     LIG 4200  29.494  42.292  10.077
    9AU    AUSL 4201  30.424  40.295   8.193
    9AU    AUSL 4202  29.987  40.217   8.110
    9AU     AUL 4203  29.965  40.329   8.354
    9AU       S 4204  29.826  39.874   8.270
    9AU     LIG 4205  29.398  39.882   8.142
    9AU     LIG 4206  29.088  39.561   8.243
    9AU     LIG 4207  28.900  39.240   8.537
    9AU     LIG 4208  28.719  39.035   8.924
    9AU     LIG 4209  28.658  38.944   9.383
    9AU       S 4210  30.363  40.228   8.582
    9AU     LIG 4211  30.308  39.877   8.819
    9AU     LIG 4212  30.108  39.830   9.241
    9AU     LIG 4213  29.900  39.818   9.675
    9AU     LIG 4214  29.689  39.803  10.099
    9AU     LIG 4215  29.440  39.611  10.459
    9AU    AUSL 4216  30.134  40.322   6.779
    9AU    AUSL 4217  30.334  39.963   6.967
    9AU     AUL 4218  30.365  39.956   6.641
    9AU       S 4219  30.072  40.209   6.383
    9AU     LIG 4220  29.839  40.099   6.002
    9AU     LIG 4221  29.611  40.004   5.607
    9AU     LIG 4222  29.449  40.033   5.175
    9AU     LIG 4223  29.147  39.920   4.843
    9AU     LIG 4224  28.768  40.024   4.591
    9AU       S 4225  29.956  39.801   6.790
    9AU     LIG 4226  29.794  39.370   6.716
    9AU     LIG 4227  29.438  39.157   6.530
    9AU     LIG 4228  29.199  38.942   6.183
    9AU     LIG 4229  29.001  38.656   5.847
    9AU     LIG 4230  29.046  38.528   5.379
    9AU    AUSL 4231  30.374  40.640   6.601
    9AU    AUSL 4232  29.989  40.706   6.924
    9AU     AUL 4233  29.986  40.597   6.608
    9AU       S 4234  29.707  40.942   6.737
    9AU     LIG 4235  29.447  41.074   6.424
    9AU     LIG 4236  29.403  41.381   6.093
    9AU     LIG 4237  29.267  41.728   5.814
    9AU     LIG 4238  28.898  41.721   5.510
    9AU     LIG 4239  28.792  41.756   5.050
    9AU       S 4240  30.356  40.519   6.330
    9AU     LIG 4241  30.104  40.541   5.928
    9AU     LIG 4242  30.019  40.308   5.525
    9AU     LIG 4243  29.901  40.275   5.061
    9AU     LIG 4244  29.872  40.478   4.617
    9AU     LIG 4245  29.844  40.623   4.152
    9AU    AUSL 4246  31.493  40.941   7.516
    9AU    AUSL 4247  31.360  40.738   7.137
    9AU     AUL 4248  31.734  40.926   7.184
    9AU       S 4249  31.428  41.000   6.874
    9AU     LIG 4250  31.638  40.817   6.550
    9AU     LIG 4251  32.011  41.013   6.329
    9AU     LIG 4252  32.362  41.208   6.074
    9AU     LIG 4253  32.639  41.477   5.811
    9AU     LIG 4254  33.034  41.525   5.549
    9AU       S 4255  31.874  41.033   7.611
    9AU     LIG 4256  32.211  41.232   7.365
    9AU     LIG 4257  32.609  41.485   7.498
    9AU     LIG 4258  33.020  41.610   7.656
    9AU     LIG 4259  33.365  41.737   7.411
    9AU     LIG 4260  33.329  41.980   7.042
    9AU    AUSL 4261  31.630  40.540   7.415
    9AU    AUSL 4262  31.544  40.232   7.747
    9AU     AUL 4263  31.772  40.428   7.857
    9AU       S 4264  31.936  40.624   7.467
    9AU     LIG 4265  32.371  40.672   7.330
    9AU     LIG 4266  32.808  40.498   7.172
    9AU     LIG 4267  33.282  40.465   7.027
    9AU     LIG 4268  33.534  40.748   6.747
    9AU     LIG 4269  33.967  40.857   6.641
    9AU       S 4270  31.802  40.029   7.603
    9AU     LIG 4271  32.161  39.834   7.793
    9AU     LIG 4272  32.460  39.484   7.705
    9AU     LIG 4273  32.893  39.296   7.701
    9AU     LIG 4274  33.309  39.177   7.897
    9AU     LIG 4275  33.764  39.337   7.907
    9AU    AUSL 4276  31.344  40.602   7.739
    9AU    AUSL 4277  31.258  41.085   7.837
    9AU     AUL 4278  31.556  40.850   7.898
    9AU       S 4279  31.452  41.261   8.113
    9AU     LIG 4280  31.896  41.181   8.177
    9AU     LIG 4281  32.257  41.411   8.390
    9AU     LIG 4282  32.444  41.747   8.686
    9AU     LIG 4283  32.616  42.172   8.827
    9AU     LIG 4284  32.737  42.628   8.811
    9AU       S 4285  31.946  40.809   7.652
    9AU     LIG 4286  32.307  40.569   7.831
    9AU     LIG 4287  32.776  40.623   7.721
    9AU     LIG 4288  33.234  40.653   7.873
    9AU     LIG 4289  33.397  41.045   8.102
    9AU     LIG 4290  33.839  41.276   8.108
    9AU    AUSL 4291  29.985  41.033   7.521
    9AU    AUSL 4292  30.059  40.816   7.907
    9AU     AUL 4293  29.735  41.122   7.757
    9AU       S 4294  29.899  40.978   8.158
    9AU     LIG 4295  29.789  40.880   8.578
    9AU     LIG 4296  29.604  41.184   8.891
    9AU     LIG 4297  29.325  41.400   9.214
    9AU     LIG 4298  28.935  41.437   9.498
    9AU     LIG 4299  28.533  41.548   9.729
    9AU       S 4300  29.957  41.400   7.441
    9AU     LIG 4301  29.462  41.357   7.364
    9AU     LIG 4302  29.007  41.631   7.375
    9AU     LIG 4303  28.560  41.913   7.393
    9AU     LIG 4304  28.067  42.043   7.461
    9AU     LIG 4305  27.788  42.445   7.515
    9AU    AUSL 4306  29.937  40.648   7.331
    9AU    AUSL 4307  30.083  41.087   7.111
    9AU     AUL 4308  29.773  40.956   7.200
    9AU       S 4309  29.588  40.492   6.971
    9AU     LIG 4310  29.282  40.843   7.008
    9AU     LIG 4311  28.861  41.022   6.851
    9AU     LIG 4312  28.461  41.136   6.622
    9AU     LIG 4313  28.002  41.199   6.782
    9AU     LIG 4314  27.556  41.314   6.930
    9AU       S 4315  29.916  41.341   6.938
    9AU     LIG 4316  29.656  41.515   6.594
    9AU     LIG 4317  29.577  41.831   6.252
    9AU     LIG 4318  29.578  42.155   5.920
    9AU     LIG 4319  29.393  42.583   5.949
    9AU     LIG 4320  28.958  42.716   5.866
    9AU    AUSL 4321  29.717  40.676   7.715
    9AU    AUSL 4322  29.689  40.319   7.392
    9AU     AUL 4323  29.530  40.640   7.430
    9AU       S 4324  29.402  40.196   7.594
    9AU     LIG 4325  29.073  39.971   7.309
    9AU     LIG 4326  28.626  39.815   7.179
    9AU     LIG 4327  28.156  39.877   7.190
    9AU     LIG 4328  27.709  39.890   7.125
    9AU     LIG 4329  27.262  39.881   7.042
    9AU       S 4330  29.604  40.629   7.942
    9AU     LIG 4331  29.174  40.808   7.835
    9AU     LIG 4332  28.788  41.061   8.051
    9AU     LIG 4333  28.416  41.052   8.377
    9AU     LIG 4334  27.926  40.997   8.385
    9AU     LIG 4335  27.446  41.064   8.313
    9AU    AUSL 4336  31.345  39.883   7.565
    9AU    AUSL 4337  31.164  40.143   7.894
    9AU     AUL 4338  31.478  40.000   7.960
    9AU       S 4339  31.645  39.782   7.557
    9AU     LIG 4340  31.942  39.417   7.560
    9AU     LIG 4341  32.282  39.112   7.395
    9AU     LIG 4342  32.745  39.012   7.289
    9AU     LIG 4343  33.175  38.903   7.460
    9AU     LIG 4344  33.567  38.659   7.325
    9AU       S 4345  31.400  39.554   7.957
    9AU     LIG 4346  31.606  39.287   8.326
    9AU     LIG 4347  31.839  39.015   8.625
    9AU     LIG 4348  32.127  38.781   8.920
    9AU     LIG 4349  32.529  38.897   9.156
    9AU     LIG 4350  32.861  39.118   9.426
    9AU    AUSL 4351  31.333  40.258   7.357
    9AU    AUSL 4352  31.256  39.839   7.152
    9AU     AUL 4353  31.530  40.026   7.172
    9AU       S 4354  31.882  40.118   7.438
    9AU     LIG 4355  32.177  39.777   7.282
    9AU     LIG 4356  32.547  39.496   7.188
    9AU     LIG 4357  33.013  39.467   7.219
    9AU     LIG 4358  33.455  39.571   7.101
    9AU     LIG 4359  33.876  39.403   6.982
    9AU       S 4360  31.453  39.683   6.852
    9AU     LIG 4361  31.532  39.219   6.768
    9AU     LIG 4362  31.677  38.790   6.583
    9AU     LIG 4363  31.950  38.463   6.359
    9AU     LIG 4364  32.381  38.346   6.190
    9AU     LIG 4365  32.688  38.006   6.098
    9AU    AUSL 4366  29.863  39.958   7.560
    9AU    AUSL 4367  30.011  40.185   7.155
    9AU     AUL 4368  29.650  40.050   7.229
    9AU       S 4369  29.857  39.952   6.835
    9AU     LIG 4370  29.425  39.731   6.810
    9AU     LIG 4371  29.055  39.505   6.575
    9AU     LIG 4372  28.780  39.229   6.281
    9AU     LIG 4373  28.579  38.933   5.952
    9AU     LIG 4374  28.260  38.654   5.727
    9AU       S 4375  29.463  39.919   7.641
    9AU     LIG 4376  29.128  39.650   7.716
    9AU     LIG 4377  28.825  39.436   7.448
    9AU     LIG 4378  28.351  39.400   7.363
    9AU     LIG 4379  28.060  39.035   7.478
    9AU     LIG 4380  27.884  38.583   7.478
    9AU    AUSL 4381  29.978  40.354   7.714
    9AU    AUSL 4382  30.179  39.959   7.837
    9AU     AUL 4383  29.783  40.140   7.889
    9AU       S 4384  29.881  39.723   8.041
    9AU     LIG 4385  29.569  39.455   7.904
    9AU     LIG 4386  29.231  39.143   7.987
    9AU     LIG 4387  29.053  38.811   8.283
    9AU     LIG 4388  28.882  38.468   8.582
    9AU     LIG 4389  28.519  38.229   8.772
    9AU       S 4390  29.373  40.251   7.735
    9AU     LIG 4391  28.949  40.392   7.592
    9AU     LIG 4392  28.548  40.225   7.446
    9AU     LIG 4393  28.268  39.883   7.665
    9AU     LIG 4394  27.854  39.781   7.834
    9AU     LIG 4395  27.445  39.692   8.029
    9AU    AUSL 4396  30.668  41.252   8.000
    9AU    AUSL 4397  30.256  41.187   7.813
    9AU     AUL 4398  30.448  41.291   8.216
    9AU       S 4399  30.116  41.368   7.903
    9AU     LIG 4400  29.877  41.650   8.183
    9AU     LIG 4401  29.706  41.769   8.601
    9AU     LIG 4402  29.605  42.173   8.834
    9AU     LIG 4403  29.314  42.561   8.870
    9AU     LIG 4404  28.869  42.531   8.975
    9AU       S 4405  30.756  41.620   7.970
    9AU     LIG 4406  31.078  41.686   8.285
    9AU     LIG 4407  31.089  42.004   8.623
    9AU     LIG 4408  31.100  42.303   9.000
    9AU     LIG 4409  31.134  42.743   9.152
    9AU     LIG 4410  30.987  43.147   9.342
    9AU    AUSL 4411  30.534  41.416   7.598
    9AU    AUSL 4412  30.829  41.340   7.255
    9AU     AUL 4413  30.766  41.699   7.395
    9AU       S 4414  30.546  41.653   7.799
    9AU     LIG 4415  30.676  42.129   7.816
    9AU     LIG 4416  30.662  42.610   7.971
    9AU     LIG 4417  30.764  43.041   8.177
    9AU     LIG 4418  30.551  43.389   8.429
    9AU     LIG 4419  30.406  43.837   8.335
    9AU       S 4420  30.542  41.580   7.020
    9AU     LIG 4421  30.980  41.841   6.984
    9AU     LIG 4422  31.103  42.295   7.006
    9AU     LIG 4423  31.155  42.730   6.794
    9AU     LIG 4424  31.363  43.168   6.691
    9AU     LIG 4425  31.584  43.614   6.679
    9AU    AUSL 4426  30.903  41.192   7.647
    9AU    AUSL 4427  30.906  40.909   8.012
    9AU     AUL 4428  30.986  41.229   8.078
    9AU       S 4429  31.286  41.138   8.405
    9AU     LIG 4430  31.651  41.235   8.659
    9AU     LIG 4431  31.997  41.505   8.833
    9AU     LIG 4432  32.217  41.784   9.151
    9AU     LIG 4433  32.258  41.998   9.565
    9AU     LIG 4434  32.203  42.300   9.913
    9AU       S 4435  31.005  41.519   7.733
    9AU     LIG 4436  31.155  41.959   7.856
    9AU     LIG 4437  31.035  42.302   8.180
    9AU     LIG 4438  31.273  42.723   8.291
    9AU     LIG 4439  31.282  43.217   8.355
    9AU     LIG 4440  31.302  43.619   8.632
    9AU    AUSL 4441  30.594  39.808   7.953
    9AU    AUSL 4442  31.010  39.759   7.798
    9AU     AUL 4443  30.806  39.642   8.175
    9AU       S 4444  30.612  39.252   8.022
    9AU     LIG 4445  30.337  39.070   8.331
    9AU     LIG 4446  30.285  38.617   8.413
    9AU     LIG 4447  30.386  38.173   8.495
    9AU     LIG 4448  30.450  37.900   8.874
    9AU     LIG 4449  30.526  37.515   9.110
    9AU       S 4450  31.157  39.547   7.859
    9AU     LIG 4451  31.143  39.119   8.104
    9AU     LIG 4452  31.441  38.793   8.359
    9AU     LIG 4453  31.768  38.491   8.605
    9AU     LIG 4454  32.098  38.111   8.634
    9AU     LIG 4455  32.566  38.112   8.566
    9AU    AUSL 4456  30.280  39.588   7.689
    9AU    AUSL 4457  30.310  39.902   8.250
    9AU     AUL 4458  30.320  39.614   8.045
    9AU       S 4459  30.399  39.190   7.850
    9AU     LIG 4460  30.281  38.745   7.908
    9AU     LIG 4461  30.181  38.281   8.022
    9AU     LIG 4462  29.970  37.933   8.254
    9AU     LIG 4463  29.897  37.492   8.307
    9AU     LIG 4464  29.908  37.116   8.519
    9AU       S 4465  30.053  39.817   8.380
    9AU     LIG 4466  29.838  39.375   8.390
    9AU     LIG 4467  29.416  39.166   8.475
    9AU     LIG 4468  29.187  38.867   8.778
    9AU     LIG 4469  28.953  38.597   9.096
    9AU     LIG 4470  28.857  38.479   9.544
    9AU    AUSL 4471  30.704  39.521   7.645
    9AU    AUSL 4472  30.478  39.743   7.339
    9AU     AUL 4473  30.347  39.409   7.445
    9AU       S 4474  30.709  39.304   7.197
    9AU     LIG 4475  30.290  39.027   7.120
    9AU     LIG 4476  30.057  38.600   6.962
    9AU     LIG 4477  29.707  38.240   6.866
    9AU     LIG 4478  29.637  37.756   6.754
    9AU     LIG 4479  29.849  37.377   6.637
    9AU       S 4480  30.714  39.316   7.770
    9AU     LIG 4481  30.790  38.833   7.836
    9AU     LIG 4482  30.670  38.436   8.080
    9AU     LIG 4483  30.688  37.959   8.124
    9AU     LIG 4484  30.823  37.493   8.146
    9AU     LIG 4485  30.970  37.066   8.278
    9AU    AUSL 4486  30.651  41.155   6.888
    9AU    AUSL 4487  31.188  41.124   7.291
    9AU     AUL 4488  30.981  41.316   6.971
    9AU       S 4489  30.586  41.533   6.811
    9AU     LIG 4490  30.814  41.805   6.518
    9AU     LIG 4491  30.988  42.246   6.506
    9AU     LIG 4492  30.825  42.667   6.382
    9AU     LIG 4493  30.809  43.007   6.055
    9AU     LIG 4494  30.631  43.303   5.715
    9AU       S 4495  31.402  41.265   7.163
    9AU     LIG 4496  31.840  41.404   7.003
    9AU     LIG 4497  32.117  41.591   6.646
    9AU     LIG 4498  32.431  41.680   6.285
    9AU     LIG 4499  32.631  41.978   5.984
    9AU     LIG 4500  32.718  42.440   6.063
    9AU    AUSL 4501  30.452  41.143   7.290
    9AU    AUSL 4502  30.403  40.826   6.971
    9AU     AUL 4503  30.336  41.144   6.859
    9AU       S 4504  30.367  41.512   7.158
    9AU     LIG 4505  30.513  42.050   7.101
    9AU     LIG 4506  30.642  42.457   6.852
    9AU     LIG 4507  30.587  42.927   6.778
    9AU     LIG 4508  30.345  43.312   6.652
    9AU     LIG 4509  30.486  43.747   6.617
    9AU       S 4510  29.952  41.081   6.634
    9AU     LIG 4511  29.901  41.294   6.200
    9AU     LIG 4512  29.794  41.621   5.834
    9AU     LIG 4513  29.766  41.949   5.467
    9AU     LIG 4514  29.760  42.244   5.077
    9AU     LIG 4515  29.405  42.356   4.755
    9AU    AUSL 4516  30.670  39.704   6.948
    9AU    AUSL 4517  30.071  39.757   7.250
    9AU     AUL 4518  30.341  39.585   7.003
    9AU       S 4519  29.898  39.701   7.063
    9AU     LIG 4520  29.560  39.508   7.250
    9AU     LIG 4521  29.212  39.276   7.016
    9AU     LIG 4522  28.981  38.990   6.693
    9AU     LIG 4523  28.791  38.697   6.364
    9AU     LIG 4524  28.558  38.401   6.083
    9AU       S 4525  30.718  39.285   6.976
    9AU     LIG 4526  30.628  38.830   6.799
    9AU     LIG 4527  30.427  38.403   6.630
    9AU     LIG 4528  30.380  38.059   6.278
    9AU     LIG 4529  30.319  37.717   5.955
    9AU     LIG 4530  30.300  37.321   5.696
    9AU    AUSL 4531  30.904  39.720   7.335
    9AU    AUSL 4532  30.916  40.038   6.978
    9AU     AUL 4533  31.006  39.654   6.979
    9AU       S 4534  30.935  39.314   7.291
    9AU     LIG 4535  30.736  38.838   7.321
    9AU     LIG 4536  30.524  38.440   7.146
    9AU     LIG 4537  30.537  37.976   7.006
    9AU     LIG 4538  30.761  37.573   6.844
    9AU     LIG 4539  30.763  37.250   6.511
    9AU       S 4540  31.201  39.860   6.623
    9AU     LIG 4541  31.111  39.421   6.538
    9AU     LIG 4542  31.335  39.069   6.305
    9AU     LIG 4543  31.603  38.751   6.051
    9AU     LIG 4544  31.807  38.608   5.634
    9AU     LIG 4545  32.006  38.481   5.206
   10AU     AUC 4546  22.148   8.401   7.508
   10AU     AUC 4547  22.443   8.395   7.328
   10AU     AUC 4548  22.407   8.396   7.679
   10AU     AUC 4549  21.861   8.401   7.341
   10AU     AUC 4550  21.887   8.446   7.692
   10AU     AUC 4551  21.984   8.684   7.508
   10AU     AUC 4552  22.344   8.670   7.494
   10AU     AUC 4553  21.949   8.129   7.513
   10AU     AUC 4554  22.305   8.111   7.512
   10AU     AUC 4555  22.139   8.235   7.789
   10AU     AUC 4556  22.153   8.587   7.785
   10AU     AUC 4557  22.140   8.227   7.237
   10AU     AUC 4558  22.177   8.549   7.229
   10AU     AUC 4559  22.758   8.388   7.160
   10AU     AUC 4560  22.755   8.378   7.520
   10AU     AUC 4561  22.693   8.380   7.878
   10AU     AUC 4562  21.555   8.407   7.170
   10AU     AUC 4563  21.540   8.454   7.527
   10AU     AUC 4564  21.585   8.486   7.878
   10AU     AUC 4565  21.827   9.004   7.478
   10AU     AUC 4566  22.183   9.001   7.460
   10AU     AUC 4567  22.549   8.950   7.480
   10AU     AUC 4568  21.734   7.853   7.522
   10AU     AUC 4569  22.087   7.793   7.505
   10AU     AUC 4570  22.468   7.809   7.509
   10AU     AUC 4571  22.112   8.062   8.083
   10AU     AUC 4572  22.155   8.431   8.120
   10AU     AUC 4573  22.172   8.771   8.063
   10AU     AUC 4574  22.159   8.038   6.964
   10AU     AUC 4575  22.163   8.371   6.906
   10AU     AUC 4576  22.172   8.705   6.923
   10AU     AUC 4577  22.409   8.204   8.014
   10AU     AUC 4578  22.458   8.564   8.007
   10AU     AUC 4579  22.485   8.221   7.015
   10AU     AUC 4580  22.496   8.566   7.020
   10AU     AUC 4581  21.825   8.277   8.012
   10AU     AUC 4582  21.869   8.648   7.992
   10AU     AUC 4583  21.841   8.207   7.052
   10AU     AUC 4584  21.831   8.530   7.005
   10AU     AUC 4585  22.687   8.671   7.314
   10AU     AUC 4586  22.641   8.691   7.681
   10AU     AUC 4587  21.664   8.715   7.332
   10AU     AUC 4588  21.685   8.772   7.687
   10AU     AUC 4589  22.633   8.081   7.344
   10AU     AUC 4590  22.596   8.071   7.689
   10AU     AUC 4591  21.613   8.105   7.358
   10AU     AUC 4592  21.668   8.159   7.709
   10AU     AUC 4593  22.004   8.949   7.770
   10AU     AUC 4594  22.355   8.877   7.767
   10AU     AUC 4595  21.918   7.942   7.807
   10AU     AUC 4596  22.265   7.895   7.792
   10AU     AUC 4597  21.984   8.833   7.195
   10AU     AUC 4598  22.365   8.857   7.167
   10AU     AUC 4599  21.935   7.914   7.228
   10AU     AUC 4600  22.323   7.928   7.228
   10AU    AUSL 4601  22.684   8.292   8.258
   10AU    AUSL 4602  22.427   7.884   8.182
   10AU     AUL 4603  22.665   7.882   8.476
   10AU       S 4604  22.769   7.588   8.140
   10AU     LIG 4605  22.624   7.364   8.489
   10AU     LIG 4606  22.791   6.970   8.667
   10AU     LIG 4607  23.046   6.604   8.847
   10AU     LIG 4608  23.265   6.423   9.226
   10AU     LIG 4609  23.337   6.523   9.690
   10AU       S 4610  22.874   8.251   8.324
   10AU     LIG 4611  22.835   8.224   8.802
   10AU     LIG 4612  23.025   8.070   9.219
   10AU     LIG 4613  23.296   8.052   9.617
   10AU     LIG 4614  23.596   8.182   9.975
   10AU     LIG 4615  23.833   8.271  10.383
   10AU    AUSL 4616  22.270   8.227   8.395
   10AU    AUSL 4617  22.002   8.600   8.409
   10AU     AUL 4618  22.218   8.553   8.749
   10AU       S 4619  22.326   8.175   8.534
   10AU     LIG 4620  22.308   8.022   8.911
   10AU     LIG 4621  22.555   7.841   9.266
   10AU     LIG 4622  22.703   7.609   9.664
   10AU     LIG 4623  22.798   7.458  10.111
   10AU     LIG 4624  22.749   7.564  10.578
   10AU       S 4625  21.820   8.361   8.638
   10AU     LIG 4626  21.869   8.250   9.091
   10AU     LIG 4627  21.599   8.249   9.475
   10AU     LIG 4628  21.481   8.248   9.933
   10AU     LIG 4629  21.539   8.481  10.341
   10AU     LIG 4630  21.528   8.890  10.585
   10AU    AUSL 4631  22.411   8.637   8.338
   10AU    AUSL 4632  22.789   8.683   8.111
   10AU     AUL 4633  22.684   8.614   8.515
   10AU       S 4634  22.297   8.961   8.496
   10AU     LIG 4635  22.544   8.966   8.864
   10AU     LIG 4636  22.775   9.076   9.272
   10AU     LIG 4637  22.725   9.088   9.769
   10AU     LIG 4638  22.722   9.103  10.257
   10AU     LIG 4639  22.832   9.060  10.726
   10AU       S 4640  22.848   8.975   8.275
   10AU     LIG 4641  23.218   8.817   8.387
   10AU     LIG 4642  23.504   9.044   8.691
   10AU     LIG 4643  23.746   9.312   8.989
   10AU     LIG 4644  23.949   9.519   9.359
   10AU     LIG 4645  24.321   9.511   9.661
   10AU    AUSL 4646  22.700   8.466   6.780
   10AU    AUSL 4647  22.555   8.877   6.823
   10AU     AUL 4648  22.812   8.785   6.538
   10AU       S 4649  22.535   8.507   6.320
   10AU     LIG 4650  22.974   8.519   6.111
   10AU     LIG 4651  23.093   8.308   5.708
   10AU     LIG 4652  23.314   8.208   5.301
   10AU     LIG 4653  23.695   8.179   5.007
   10AU     LIG 4654  23.992   8.194   4.626
   10AU       S 4655  22.913   9.108   6.861
   10AU     LIG 4656  23.040   9.310   6.455
   10AU     LIG 4657  23.247   9.532   6.077
   10AU     LIG 4658  23.525   9.738   5.751
   10AU     LIG 4659  23.650   9.789   5.290
   10AU     LIG 4660  23.526  10.067   4.915
   10AU    AUSL 4661  22.444   8.161   6.623
   10AU    AUSL 4662  22.823   8.088   6.929
   10AU     AUL 4663  22.875   8.249   6.615
   10AU       S 4664  22.830   7.795   6.708
   10AU     LIG 4665  22.977   7.468   6.361
   10AU     LIG 4666  23.290   7.115   6.342
   10AU     LIG 4667  23.637   6.820   6.170
   10AU     LIG 4668  24.089   6.857   5.976
   10AU     LIG 4669  24.436   7.038   5.683
   10AU       S 4670  22.570   8.312   6.276
   10AU     LIG 4671  22.432   7.947   6.079
   10AU     LIG 4672  22.414   7.798   5.619
   10AU     LIG 4673  22.604   7.801   5.169
   10AU     LIG 4674  22.830   7.696   4.748
   10AU     LIG 4675  22.985   7.631   4.291
   10AU    AUSL 4676  22.282   8.551   6.757
   10AU    AUSL 4677  22.036   8.175   6.748
   10AU     AUL 4678  22.171   8.199   6.462
   10AU       S 4679  21.724   8.219   6.321
   10AU     LIG 4680  21.908   7.949   6.061
   10AU     LIG 4681  21.692   7.777   5.689
   10AU     LIG 4682  21.408   7.622   5.341
   10AU     LIG 4683  21.145   7.563   4.944
   10AU     LIG 4684  21.153   7.577   4.466
   10AU       S 4685  22.356   8.633   6.432
   10AU     LIG 4686  22.197   8.416   5.977
   10AU     LIG 4687  22.560   8.290   5.693
   10AU     LIG 4688  22.783   8.306   5.264
   10AU     LIG 4689  22.795   8.541   4.833
   10AU     LIG 4690  22.879   8.863   4.481
   10AU    AUSL 4691  21.607   8.551   8.245
   10AU    AUSL 4692  21.930   8.894   8.114
   10AU     AUL 4693  21.771   8.843   8.452
   10AU       S 4694  21.631   8.475   8.711
   10AU     LIG 4695  21.402   8.126   8.874
   10AU     LIG 4696  21.178   8.025   9.273
   10AU     LIG 4697  21.023   8.119   9.705
   10AU     LIG 4698  20.657   8.116  10.011
   10AU     LIG 4699  20.224   8.265  10.163
   10AU       S 4700  21.497   9.163   8.196
   10AU     LIG 4701  21.555   9.286   8.604
   10AU     LIG 4702  21.375   9.566   8.917
   10AU     LIG 4703  21.159   9.540   9.327
   10AU     LIG 4704  21.044   9.783   9.704
   10AU     LIG 4705  21.034  10.223   9.870
   10AU    AUSL 4706  21.908   8.247   8.178
   10AU    AUSL 4707  21.473   8.167   8.100
   10AU     AUL 4708  21.444   8.286   8.336
   10AU       S 4709  21.301   7.826   8.246
   10AU     LIG 4710  20.892   7.691   8.075
   10AU     LIG 4711  20.642   7.308   8.110
   10AU     LIG 4712  20.358   7.134   8.441
   10AU     LIG 4713  19.936   7.093   8.696
   10AU     LIG 4714  19.828   7.037   9.156
   10AU       S 4715  21.831   8.182   8.571
   10AU     LIG 4716  21.818   7.831   8.786
   10AU     LIG 4717  21.643   7.788   9.223
   10AU     LIG 4718  21.442   7.792   9.661
   10AU     LIG 4719  21.210   7.806  10.075
   10AU     LIG 4720  21.073   7.726  10.513
   10AU    AUSL 4721  21.628   8.296   6.785
   10AU    AUSL 4722  21.808   7.901   6.972
   10AU     AUL 4723  21.836   7.903   6.637
   10AU       S 4724  21.516   8.205   6.471
   10AU     LIG 4725  21.385   7.877   6.170
   10AU     LIG 4726  21.181   7.880   5.740
   10AU     LIG 4727  20.983   7.920   5.300
   10AU     LIG 4728  20.613   7.897   4.986
   10AU     LIG 4729  20.260   8.173   4.790
   10AU       S 4730  21.428   7.780   6.810
   10AU     LIG 4731  21.472   7.387   6.640
   10AU     LIG 4732  21.187   7.039   6.560
   10AU     LIG 4733  20.993   6.803   6.219
   10AU     LIG 4734  20.905   6.830   5.752
   10AU     LIG 4735  20.796   6.789   5.270
   10AU    AUSL 4736  21.904   8.577   6.580
   10AU    AUSL 4737  21.454   8.666   6.925
   10AU     AUL 4738  21.561   8.646   6.605
   10AU       S 4739  21.190   8.907   6.728
   10AU     LIG 4740  20.951   9.263   6.520
   10AU     LIG 4741  20.891   9.384   6.058
   10AU     LIG 4742  20.591   9.351   5.671
   10AU     LIG 4743  20.172   9.455   5.444
   10AU     LIG 4744  19.903   9.574   5.047
   10AU       S 4745  21.797   8.431   6.267
   10AU     LIG 4746  21.551   8.270   5.860
   10AU     LIG 4747  21.460   8.165   5.407
   10AU     LIG 4748  21.465   8.364   4.976
   10AU     LIG 4749  21.496   8.704   4.630
   10AU     LIG 4750  21.545   9.014   4.253
   10AU    AUSL 4751  22.965   8.902   7.473
   10AU    AUSL 4752  22.904   8.682   7.079
   10AU     AUL 4753  23.267   9.004   7.201
   10AU       S 4754  22.996   8.775   6.953
   10AU     LIG 4755  23.320   8.892   6.675
   10AU     LIG 4756  23.525   9.164   6.369
   10AU     LIG 4757  23.753   9.365   6.025
   10AU     LIG 4758  23.987   9.458   5.625
   10AU     LIG 4759  24.396   9.358   5.389
   10AU       S 4760  23.321   9.033   7.649
   10AU     LIG 4761  23.773   9.086   7.473
   10AU     LIG 4762  24.247   9.041   7.580
   10AU     LIG 4763  24.693   9.222   7.552
   10AU     LIG 4764  24.893   9.614   7.661
   10AU     LIG 4765  25.072  10.047   7.763
   10AU    AUSL 4766  23.118   8.497   7.398
   10AU    AUSL 4767  23.038   8.199   7.738
   10AU     AUL 4768  23.292   8.383   7.822
   10AU       S 4769  23.336   8.601   7.416
   10AU     LIG 4770  23.735   8.532   7.243
   10AU     LIG 4771  24.181   8.705   7.208
   10AU     LIG 4772  24.651   8.867   7.188
   10AU     LIG 4773  25.123   8.998   7.126
   10AU     LIG 4774  25.464   9.181   6.827
   10AU       S 4775  23.319   7.972   7.590
   10AU     LIG 4776  23.682   7.756   7.784
   10AU     LIG 4777  23.930   7.363   7.913
   10AU     LIG 4778  24.414   7.309   7.862
   10AU     LIG 4779  24.914   7.286   7.881
   10AU     LIG 4780  25.365   7.398   7.941
   10AU    AUSL 4781  22.828   8.563   7.712
   10AU    AUSL 4782  22.759   9.021   7.816
   10AU     AUL 4783  23.034   8.773   7.887
   10AU       S 4784  22.952   9.195   8.085
   10AU     LIG 4785  23.270   9.336   8.330
   10AU     LIG 4786  23.422   9.581   8.690
   10AU     LIG 4787  23.583  10.015   8.820
   10AU     LIG 4788  23.918  10.364   8.717
   10AU     LIG 4789  24.320  10.617   8.770
   10AU       S 4790  23.409   8.790   7.623
   10AU     LIG 4791  23.802   8.617   7.737
   10AU     LIG 4792  24.253   8.527   7.688
   10AU     LIG 4793  24.665   8.712   7.688
   10AU     LIG 4794  25.085   8.901   7.725
   10AU     LIG 4795  25.499   9.078   7.888
   10AU    AUSL 4796  21.491   9.008   7.518
   10AU    AUSL 4797  21.565   8.791   7.902
   10AU     AUL 4798  21.246   9.101   7.747
   10AU       S 4799  21.417   8.952   8.143
   10AU     LIG 4800  21.275   8.837   8.553
   10AU     LIG 4801  21.120   9.104   8.924
   10AU     LIG 4802  20.732   9.284   9.151
   10AU     LIG 4803  20.252   9.319   9.213
   10AU     LIG 4804  19.885   9.444   9.488
   10AU       S 4805  21.490   9.369   7.435
   10AU     LIG 4806  20.996   9.374   7.357
   10AU     LIG 4807  20.573   9.627   7.508
   10AU     LIG 4808  20.182   9.945   7.519
   10AU     LIG 4809  19.797  10.155   7.310
   10AU     LIG 4810  19.323  10.209   7.406
   10AU    AUSL 4811  21.443   8.621   7.337
   10AU    AUSL 4812  21.598   9.037   7.110
   10AU     AUL 4813  21.276   8.933   7.197
   10AU       S 4814  21.018   8.534   7.001
   10AU     LIG 4815  20.771   9.011   7.002
   10AU     LIG 4816  20.361   9.330   6.875
   10AU     LIG 4817  19.821   9.395   6.791
   10AU     LIG 4818  19.342   9.585   6.738
   10AU     LIG 4819  18.849   9.645   6.658
   10AU       S 4820  21.440   9.302   6.936
   10AU     LIG 4821  21.283   9.649   6.672
   10AU     LIG 4822  21.073   9.854   6.303
   10AU     LIG 4823  20.923  10.194   6.009
   10AU     LIG 4824  20.578  10.512   6.019
   10AU     LIG 4825  20.271  10.860   6.123
   10AU    AUSL 4826  21.219   8.651   7.722
   10AU    AUSL 4827  21.180   8.302   7.380
   10AU     AUL 4828  21.044   8.630   7.456
   10AU       S 4829  20.867   8.179   7.576
   10AU     LIG 4830  20.433   7.883   7.573
   10AU     LIG 4831  19.957   7.728   7.588
   10AU     LIG 4832  19.544   7.765   7.303
   10AU     LIG 4833  19.252   7.467   7.046
   10AU     LIG 4834  18.773   7.404   6.988
   10AU       S 4835  21.105   8.605   7.959
   10AU     LIG 4836  20.693   8.838   7.803
   10AU     LIG 4837  20.321   9.167   7.932
   10AU     LIG 4838  19.854   9.363   8.144
   10AU     LIG 4839  19.464   9.364   8.407
   10AU     LIG 4840  18.981   9.326   8.368
   10AU    AUSL 4841  22.855   7.831   7.579
   10AU    AUSL 4842  22.663   8.095   7.891
   10AU     AUL 4843  22.997   7.977   7.957
   10AU       S 4844  23.176   7.732   7.584
   10AU     LIG 4845  23.531   7.452   7.406
   10AU     LIG 4846  23.917   7.167   7.439
   10AU     LIG 4847  24.114   6.898   7.760
   10AU     LIG 4848  24.501   6.649   7.758
   10AU     LIG 4849  24.814   6.561   7.431
   10AU       S 4850  22.881   7.537   7.985
   10AU     LIG 4851  23.104   7.255   8.319
   10AU     LIG 4852  23.321   6.982   8.638
   10AU     LIG 4853  23.592   6.715   8.924
   10AU     LIG 4854  24.043   6.680   9.095
   10AU     LIG 4855  24.473   6.479   9.181
   10AU    AUSL 4856  22.849   8.186   7.336
   10AU    AUSL 4857  22.735   7.744   7.182
   10AU     AUL 4858  23.023   7.902   7.176
   10AU       S 4859  23.365   8.085   7.412
   10AU     LIG 4860  23.704   7.881   7.196
   10AU     LIG 4861  23.987   7.537   7.068
   10AU     LIG 4862  24.380   7.309   7.159
   10AU     LIG 4863  24.835   7.401   7.031
   10AU     LIG 4864  25.278   7.377   6.854
   10AU       S 4865  22.910   7.597   6.833
   10AU     LIG 4866  22.974   7.153   6.789
   10AU     LIG 4867  23.133   6.730   6.655
   10AU     LIG 4868  23.424   6.425   6.461
   10AU     LIG 4869  23.772   6.290   6.207
   10AU     LIG 4870  24.142   6.034   6.245
   10AU    AUSL 4871  21.331   7.934   7.560
   10AU    AUSL 4872  21.500   8.143   7.155
   10AU     AUL 4873  21.136   8.044   7.217
   10AU       S 4874  21.339   7.905   6.836
   10AU     LIG 4875  20.992   7.506   6.768
   10AU     LIG 4876  20.697   7.160   6.555
   10AU     LIG 4877  20.492   6.909   6.203
   10AU     LIG 4878  20.049   6.863   6.061
   10AU     LIG 4879  19.592   6.832   5.936
   10AU       S 4880  20.937   7.909   7.623
   10AU     LIG 4881  20.787   7.476   7.611
   10AU     LIG 4882  20.359   7.302   7.562
   10AU     LIG 4883  19.918   7.223   7.638
   10AU     LIG 4884  19.607   6.934   7.806
   10AU     LIG 4885  19.294   6.824   7.535
   10AU    AUSL 4886  21.468   8.321   7.709
   10AU    AUSL 4887  21.661   7.913   7.820
   10AU     AUL 4888  21.263   8.111   7.882
   10AU       S 4889  21.379   7.685   8.001
   10AU     LIG 4890  21.271   7.348   7.770
   10AU     LIG 4891  20.997   6.978   7.919
   10AU     LIG 4892  20.593   6.783   8.116
   10AU     LIG 4893  20.568   6.429   8.399
   10AU     LIG 4894  20.354   6.261   8.778
   10AU       S 4895  20.865   8.243   7.723
   10AU     LIG 4896  20.433   8.359   7.773
   10AU     LIG 4897  20.013   8.224   7.631
   10AU     LIG 4898  19.573   8.012   7.759
   10AU     LIG 4899  19.175   7.726   7.825
   10AU     LIG 4900  18.691   7.621   7.926
   10AU    AUSL 4901  22.172   9.223   7.975
   10AU    AUSL 4902  21.768   9.155   7.807
   10AU     AUL 4903  21.956   9.216   8.223
   10AU       S 4904  21.635   9.346   7.908
   10AU     LIG 4905  21.644   9.681   8.264
   10AU     LIG 4906  21.430  10.040   8.584
   10AU     LIG 4907  21.154  10.420   8.794
   10AU     LIG 4908  20.828  10.808   8.758
   10AU     LIG 4909  20.347  10.952   8.798
   10AU       S 4910  22.138   9.568   7.983
   10AU     LIG 4911  22.372   9.516   8.354
   10AU     LIG 4912  22.398   9.809   8.714
   10AU     LIG 4913  22.310  10.289   8.755
   10AU     LIG 4914  22.177  10.719   8.958
   10AU     LIG 4915  22.205  11.175   9.125
   10AU    AUSL 4916  22.047   9.360   7.563
   10AU    AUSL 4917  22.348   9.280   7.218
   10AU     AUL 4918  22.421   9.550   7.417
   10AU       S 4919  22.013   9.604   7.689
   10AU     LIG 4920  21.982  10.036   7.965
   10AU     LIG 4921  22.034  10.365   8.310
   10AU     LIG 4922  22.041  10.816   8.473
   10AU     LIG 4923  22.005  11.273   8.502
   10AU     LIG 4924  21.864  11.700   8.568
   10AU       S 4925  22.106   9.486   7.078
   10AU     LIG 4926  22.414   9.790   6.969
   10AU     LIG 4927  22.692  10.132   6.831
   10AU     LIG 4928  22.838  10.580   6.711
   10AU     LIG 4929  23.085  10.957   6.496
   10AU     LIG 4930  22.918  11.403   6.469
   10AU    AUSL 4931  22.403   9.124   7.615
   10AU    AUSL 4932  22.411   8.888   8.015
   10AU     AUL 4933  22.524   9.271   7.916
   10AU       S 4934  22.702   9.115   8.317
   10AU     LIG 4935  22.992   9.141   8.723
   10AU     LIG 4936  23.219   9.305   9.073
   10AU     LIG 4937  23.448   9.671   9.220
   10AU     LIG 4938  23.574   9.906   9.598
   10AU     LIG 4939  23.427  10.211   9.942
   10AU       S 4940  22.309   9.669   7.845
   10AU     LIG 4941  22.768   9.736   7.987
   10AU     LIG 4942  22.949  10.198   8.080
   10AU     LIG 4943  23.106  10.638   8.277
   10AU     LIG 4944  22.992  11.042   8.565
   10AU     LIG 4945  22.770  11.485   8.670
   10AU    AUSL 4946  22.084   7.769   7.951
   10AU    AUSL 4947  22.498   7.716   7.782
   10AU     AUL 4948  22.301   7.590   8.161
   10AU       S 4949  22.099   7.196   8.034
   10AU     LIG 4950  22.156   6.804   8.239
   10AU     LIG 4951  21.942   6.388   8.285
   10AU     LIG 4952  21.882   5.918   8.341
   10AU     LIG 4953  21.904   5.574   8.650
   10AU     LIG 4954  21.818   5.665   9.098
   10AU       S 4955  22.652   7.487   7.853
   10AU     LIG 4956  22.682   7.055   8.084
   10AU     LIG 4957  23.027   6.721   8.285
   10AU     LIG 4958  23.403   6.456   8.500
   10AU     LIG 4959  23.714   6.145   8.717
   10AU     LIG 4960  24.176   6.124   8.902
   10AU    AUSL 4961  21.768   7.533   7.706
   10AU    AUSL 4962  21.788   7.856   8.239
   10AU     AUL 4963  21.816   7.571   8.052
   10AU       S 4964  21.886   7.138   7.884
   10AU     LIG 4965  21.736   6.725   7.935
   10AU     LIG 4966  21.372   6.499   7.869
   10AU     LIG 4967  21.252   6.033   7.826
   10AU     LIG 4968  21.222   5.649   8.136
   10AU     LIG 4969  21.475   5.357   8.426
   10AU       S 4970  21.504   7.749   8.358
   10AU     LIG 4971  21.194   7.324   8.305
   10AU     LIG 4972  20.879   6.985   8.485
   10AU     LIG 4973  20.553   6.793   8.801
   10AU     LIG 4974  20.386   6.764   9.247
   10AU     LIG 4975  20.388   6.727   9.729
   10AU    AUSL 4976  22.189   7.463   7.657
   10AU    AUSL 4977  21.942   7.632   7.325
   10AU     AUL 4978  21.805   7.330   7.467
   10AU       S 4979  22.152   7.238   7.193
   10AU     LIG 4980  21.843   6.875   7.216
   10AU     LIG 4981  21.663   6.452   7.019
   10AU     LIG 4982  21.370   6.070   6.943
   10AU     LIG 4983  21.384   5.629   6.759
   10AU     LIG 4984  21.523   5.290   6.484
   10AU       S 4985  22.196   7.259   7.779
   10AU     LIG 4986  22.214   6.767   7.723
   10AU     LIG 4987  22.248   6.274   7.866
   10AU     LIG 4988  22.229   5.783   8.005
   10AU     LIG 4989  22.488   5.384   8.198
   10AU     LIG 4990  22.754   5.117   8.504
   10AU    AUSL 4991  22.168   9.042   6.884
   10AU    AUSL 4992  22.616   8.964   7.238
   10AU     AUL 4993  22.462   9.218   6.886
   10AU       S 4994  22.056   9.457   6.821
   10AU     LIG 4995  22.146   9.810   6.540
   10AU     LIG 4996  22.499  10.063   6.366
   10AU     LIG 4997  22.641  10.494   6.222
   10AU     LIG 4998  22.512  10.736   5.831
   10AU     LIG 4999  22.218  10.889   5.485
   10AU       S 5000  22.852   9.183   7.116
   10AU     LIG 5001  23.297   9.414   6.911
   10AU     LIG 5002  23.457   9.648   6.529
   10AU     LIG 5003  23.768   9.844   6.228
   10AU     LIG 5004  23.882  10.315   6.183
   10AU     LIG 5005  24.002  10.784   6.182
   10AU    AUSL 5006  21.976   9.064   7.275
   10AU    AUSL 5007  21.881   8.743   6.961
   10AU     AUL 5008  21.838   9.051   6.831
   10AU       S 5009  21.887   9.431   7.124
   10AU     LIG 5010  21.911   9.927   6.999
   10AU     LIG 5011  22.190  10.271   6.802
   10AU     LIG 5012  22.197  10.759   6.737
   10AU     LIG 5013  22.160  11.259   6.704
   10AU     LIG 5014  22.016  11.706   6.535
   10AU       S 5015  21.409   9.089   6.681
   10AU     LIG 5016  21.400   9.332   6.279
   10AU     LIG 5017  21.329   9.615   5.903
   10AU     LIG 5018  21.355   9.677   5.430
   10AU     LIG 5019  21.385   9.917   5.029
   10AU     LIG 5020  21.242  10.333   4.879
   10AU    AUSL 5021  22.144   7.641   6.938
   10AU    AUSL 5022  21.541   7.716   7.265
   10AU     AUL 5023  21.791   7.525   7.005
   10AU       S 5024  21.352   7.653   7.090
   10AU     LIG 5025  21.128   7.281   7.235
   10AU     LIG 5026  20.847   6.946   7.015
   10AU     LIG 5027  20.610   6.667   6.720
   10AU     LIG 5028  20.542   6.210   6.607
   10AU     LIG 5029  20.345   5.937   6.242
   10AU       S 5030  22.163   7.239   6.958
   10AU     LIG 5031  22.122   6.941   6.641
   10AU     LIG 5032  21.944   6.516   6.600
   10AU     LIG 5033  21.826   6.068   6.689
   10AU     LIG 5034  21.938   5.669   6.477
   10AU     LIG 5035  22.133   5.639   6.057
   10AU    AUSL 5036  22.360   7.668   7.337
   10AU    AUSL 5037  22.408   7.959   6.987
   10AU     AUL 5038  22.490   7.564   7.021
   10AU       S 5039  22.338   7.214   7.284
   10AU     LIG 5040  22.311   6.744   7.096
   10AU     LIG 5041  22.162   6.269   7.054
   10AU     LIG 5042  22.199   5.788   6.936
   10AU     LIG 5043  22.456   5.439   6.726
   10AU     LIG 5044  22.383   4.939   6.757
   10AU       S 5045  22.617   7.737   6.621
   10AU     LIG 5046  22.528   7.300   6.578
   10AU     LIG 5047  22.777   6.965   6.346
   10AU     LIG 5048  23.109   6.688   6.130
   10AU     LIG 5049  23.313   6.522   5.742
   10AU     LIG 5050  23.211   6.434   5.273
   11POPC   NC3 5051  21.717  15.508   9.402
   11POPC   PO4 5052  22.434  15.285   9.483
   11POPC   GL1 5053  22.348  15.242   9.064
   11POPC   GL2 5054  21.986  15.171   9.121
   11POPC   C1A 5055  22.197  15.017   8.692
   11POPC   D2A 5056  21.983  14.829   8.355
   11POPC   C3A 5057  22.077  14.963   7.954
   11POPC   C4A 5058  22.220  15.073   7.510
   11POPC   C1B 5059  21.993  15.498   8.776
   11POPC   C2B 5060  21.963  15.369   8.341
   11POPC   C3B 5061  22.155  15.460   7.950
   11POPC   C4B 5062  21.981  15.519   7.521
   12POPC   NC3 5063  39.713  40.296   9.501
   12POPC   PO4 5064  40.331  40.240   9.754
   12POPC   GL1 5065  40.204  40.124   9.307
   12POPC   GL2 5066  39.909  39.899   9.223
   12POPC   C1A 5067  40.259  40.182   8.848
   12POPC   D2A 5068  40.367  40.269   8.400
   12POPC   C3A 5069  40.093  40.059   8.085
   12POPC   C4A 5070  40.003  40.238   7.680
   12POPC   C1B 5071  39.906  39.777   8.783
   12POPC   C2B 5072  39.708  39.897   8.405
   12POPC   C3B 5073  39.650  39.713   8.015
   12POPC   C4B 5074  39.923  39.725   7.654
   13POPC   NC3 5075  30.080  32.080   9.893
   13POPC   PO4 5076  29.679  31.567   9.717
   13POPC   GL1 5077  29.668  31.926   9.337
   13POPC   GL2 5078  29.927  32.210   9.284
   13POPC   C1A 5079  29.701  32.088   8.864
   13POPC   D2A 5080  29.756  32.389   8.480
   13POPC   C3A 5081  29.745  32.217   8.081
   13POPC   C4A 5082  29.746  32.038   7.652
   13POPC   C1B 5083  29.990  32.498   8.906
   13POPC   C2B 5084  30.248  32.523   8.555
   13POPC   C3B 5085  30.212  32.526   8.132
   13POPC   C4B 5086  29.994  32.501   7.740
   14POPC   NC3 5087  13.379  10.100   9.813
   14POPC   PO4 5088  13.715   9.668   9.531
   14POPC   GL1 5089  13.786   9.833   9.101
   14POPC   GL2 5090  13.643   9.517   9.048
   14POPC   C1A 5091  13.649   9.889   8.692
   14POPC   D2A 5092  13.437   9.989   8.340
   14POPC   C3A 5093  13.677   9.855   7.997
   14POPC   C4A 5094  13.614   9.859   7.578
   14POPC   C1B 5095  13.396   9.454   8.697
   14POPC   C2B 5096  13.559   9.467   8.345
   14POPC   C3B 5097  13.393   9.453   7.969
   14POPC   C4B 5098  13.230   9.508   7.597
   15POPC   NC3 5099  19.780  17.266   9.370
   15POPC   PO4 5100  19.732  17.928   9.442
   15POPC   GL1 5101  19.759  17.684   9.087
   15POPC   GL2 5102  20.114  17.536   9.065
   15POPC   C1A 5103  19.596  17.497   8.734
   15POPC   D2A 5104  19.725  17.467   8.330
   15POPC   C3A 5105  19.414  17.364   8.027
   15POPC   C4A 5106  19.712  17.533   7.790
   15POPC   C1B 5107  20.039  17.234   8.707
   15POPC   C2B 5108  20.091  17.108   8.248
   15POPC   C3B 5109  20.166  17.282   7.809
   15POPC   C4B 5110  20.084  17.175   7.382
   16POPC   NC3 5111  31.027   9.457   9.420
   16POPC   PO4 5112  30.680  10.007   9.460
   16POPC   GL1 5113  30.710   9.719   9.132
   16POPC   GL2 5114  30.435   9.522   9.040
   16POPC   C1A 5115  30.922   9.551   8.761
   16POPC   D2A 5116  30.809   9.426   8.334
   16POPC   C3A 5117  30.699   9.726   8.052
   16POPC   C4A 5118  30.588   9.576   7.671
   16POPC   C1B 5119  30.503   9.841   8.695
   16POPC   C2B 5120  30.339  10.010   8.326
   16POPC   C3B 5121  30.316  10.222   7.984
   16POPC   C4B 5122  30.278   9.983   7.641
   17POPC   NC3 5123  32.938  31.126   9.376
   17POPC   PO4 5124  33.401  31.696   9.575
   17POPC   GL1 5125  33.329  31.513   9.151
   17POPC   GL2 5126  32.972  31.503   9.029
   17POPC   C1A 5127  33.369  31.582   8.709
   17POPC   D2A 5128  32.958  31.660   8.501
   17POPC   C3A 5129  33.036  31.753   8.077
   17POPC   C4A 5130  33.345  31.683   7.722
   17POPC   C1B 5131  33.074  31.178   8.694
   17POPC   C2B 5132  33.150  31.252   8.224
   17POPC   C3B 5133  33.009  31.310   7.779
   17POPC   C4B 5134  32.766  31.351   7.381
   18POPC   NC3 5135  44.737  29.542   9.437
   18POPC   PO4 5136  44.526  28.944   9.439
   18POPC   GL1 5137  44.569  29.080   9.053
   18POPC   GL2 5138  44.492  29.447   8.997
   18POPC   C1A 5139  44.442  29.079   8.656
   18POPC   D2A 5140  44.613  29.315   8.335
   18POPC   C3A 5141  44.688  29.060   8.005
   18POPC   C4A 5142  44.922  29.017   7.659
   18POPC   C1B 5143  44.913  29.382   8.765
   18POPC   C2B 5144   0.118  29.577   8.396
   18POPC   C3B 5145  44.935  29.528   7.985
   18POPC   C4B 5146   0.131  29.503   7.582
   19POPC   NC3 5147  32.045  14.351   9.455
   19POPC   PO4 5148  32.731  14.380   9.410
   19POPC   GL1 5149  32.467  14.521   9.078
   19POPC   GL2 5150  32.190  14.267   8.975
   19POPC   C1A 5151  32.553  14.385   8.648
   19POPC   D2A 5152  32.289  14.314   8.280
   19POPC   C3A 5153  32.346  14.333   7.832
   19POPC   C4A 5154  32.287  14.094   7.455
   19POPC   C1B 5155  32.057  14.595   8.673
   19POPC   C2B 5156  31.781  14.711   8.315
   19POPC   C3B 5157  31.805  14.783   7.850
   19POPC   C4B 5158  32.020  14.529   7.509
   20POPC   NC3 5159   1.099  38.501   9.616
   20POPC   PO4 5160   0.569  38.946   9.508
   20POPC   GL1 5161   0.991  38.796   9.229
   20POPC   GL2 5162   0.890  38.801   8.918
   20POPC   C1A 5163   1.335  38.563   8.903
   20POPC   D2A 5164   1.323  38.250   8.533
   20POPC   C3A 5165   1.377  38.525   8.177
   20POPC   C4A 5166   1.529  38.609   7.799
   20POPC   C1B 5167   0.875  38.391   8.770
   20POPC   C2B 5168   0.881  38.476   8.331
   20POPC   C3B 5169   1.000  38.343   7.909
   20POPC   C4B 5170   1.131  38.568   7.492
   21POPC   NC3 5171  16.199  21.271   9.357
   21POPC   PO4 5172  15.554  21.496   9.621
   21POPC   GL1 5173  15.700  21.517   9.203
   21POPC   GL2 5174  15.437  21.763   9.180
   21POPC   C1A 5175  15.938  21.471   8.768
   21POPC   D2A 5176  16.091  21.644   8.341
   21POPC   C3A 5177  16.242  21.402   7.987
   21POPC   C4A 5178  16.154  21.008   7.738
   21POPC   C1B 5179  15.426  21.613   8.781
   21POPC   C2B 5180  15.585  21.454   8.388
   21POPC   C3B 5181  15.734  21.346   7.989
   21POPC   C4B 5182  15.603  21.544   7.641
   22POPC   NC3 5183  27.410  37.598   9.374
   22POPC   PO4 5184  27.863  37.934   9.583
   22POPC   GL1 5185  27.717  37.955   9.142
   22POPC   GL2 5186  27.386  38.043   9.095
   22POPC   C1A 5187  27.669  37.673   8.779
   22POPC   D2A 5188  27.863  37.547   8.380
   22POPC   C3A 5189  27.761  37.647   7.960
   22POPC   C4A 5190  27.879  37.336   7.670
   22POPC   C1B 5191  27.420  38.140   8.720
   22POPC   C2B 5192  27.683  38.021   8.393
   22POPC   C3B 5193  27.434  38.053   8.044
   22POPC   C4B 5194  27.322  37.943   7.641
   23POPC   NC3 5195  32.086  22.784   9.486
   23POPC   PO4 5196  32.721  22.561   9.539
   23POPC   GL1 5197  32.495  22.814   9.153
   23POPC   GL2 5198  32.124  22.984   9.032
   23POPC   C1A 5199  32.517  23.005   8.735
   23POPC   D2A 5200  32.246  23.141   8.433
   23POPC   C3A 5201  32.527  23.172   8.078
   23POPC   C4A 5202  32.633  23.045   7.665
   23POPC   C1B 5203  31.776  23.021   8.715
   23POPC   C2B 5204  31.704  23.255   8.309
   23POPC   C3B 5205  32.019  23.207   7.991
   23POPC   C4B 5206  32.173  22.841   7.794
   24POPC   NC3 5207  25.732  33.154   9.615
   24POPC   PO4 5208  26.361  32.862   9.653
   24POPC   GL1 5209  26.266  33.068   9.243
   24POPC   GL2 5210  25.897  33.098   9.152
   24POPC   C1A 5211  26.235  33.048   8.782
   24POPC   D2A 5212  26.167  33.324   8.418
   24POPC   C3A 5213  26.104  33.113   8.061
   24POPC   C4A 5214  26.290  33.078   7.685
   24POPC   C1B 5215  25.625  33.101   8.791
   24POPC   C2B 5216  25.643  33.203   8.384
   24POPC   C3B 5217  25.635  32.901   8.088
   24POPC   C4B 5218  25.687  33.106   7.754
   25POPC   NC3 5219   2.474  13.654   9.369
   25POPC   PO4 5220   2.944  14.044   9.544
   25POPC   GL1 5221   2.905  13.846   9.143
   25POPC   GL2 5222   3.011  13.493   9.246
   25POPC   C1A 5223   2.724  13.642   8.739
   25POPC   D2A 5224   2.452  13.557   8.347
   25POPC   C3A 5225   2.655  13.347   7.979
   25POPC   C4A 5226   2.810  13.621   7.640
   25POPC   C1B 5227   3.228  13.559   8.865
   25POPC   C2B 5228   3.090  13.440   8.446
   25POPC   C3B 5229   3.138  13.510   8.025
   25POPC   C4B 5230   3.159  13.207   7.718
   26POPC   NC3 5231   2.644  39.065   9.271
   26POPC   PO4 5232   2.607  38.482   9.566
   26POPC   GL1 5233   2.733  38.370   9.145
   26POPC   GL2 5234   2.912  38.660   9.087
   26POPC   C1A 5235   2.493  38.289   8.782
   26POPC   D2A 5236   2.617  38.193   8.374
   26POPC   C3A 5237   2.890  38.256   8.078
   26POPC   C4A 5238   2.818  38.268   7.645
   26POPC   C1B 5239   2.780  38.681   8.665
   26POPC   C2B 5240   2.681  38.716   8.231
   26POPC   C3B 5241   2.778  38.740   7.810
   26POPC   C4B 5242   2.816  38.863   7.389
   27POPC   NC3 5243  16.409   5.028   9.494
   27POPC   PO4 5244  17.068   4.851   9.492
   27POPC   GL1 5245  16.855   5.079   9.159
   27POPC   GL2 5246  16.549   4.985   9.012
   27POPC   C1A 5247  16.783   5.362   8.784
   27POPC   D2A 5248  16.699   5.150   8.416
   27POPC   C3A 5249  16.834   5.311   8.041
   27POPC   C4A 5250  16.796   5.138   7.653
   27POPC   C1B 5251  16.360   4.791   8.671
   27POPC   C2B 5252  16.484   4.692   8.279
   27POPC   C3B 5253  16.424   4.979   7.966
   27POPC   C4B 5254  16.300   4.824   7.594
   28POPC   NC3 5255   6.966   5.553   9.398
   28POPC   PO4 5256   7.058   6.053   9.879
   28POPC   GL1 5257   7.190   6.047   9.391
   28POPC   GL2 5258   7.563   5.995   9.256
   28POPC   C1A 5259   7.161   6.035   8.933
   28POPC   D2A 5260   7.264   6.253   8.560
   28POPC   C3A 5261   7.181   6.194   8.109
   28POPC   C4A 5262   7.337   6.069   7.718
   28POPC   C1B 5263   7.667   5.956   8.768
   28POPC   C2B 5264   7.561   5.871   8.288
   28POPC   C3B 5265   7.396   5.602   7.917
   28POPC   C4B 5266   7.499   5.525   7.463
   29POPC   NC3 5267   0.607   2.383   9.393
   29POPC   PO4 5268   0.089   1.982   9.709
   29POPC   GL1 5269   0.170   2.066   9.267
   29POPC   GL2 5270   0.486   1.949   9.153
   29POPC   C1A 5271   0.193   2.113   8.804
   29POPC   D2A 5272   0.359   1.877   8.465
   29POPC   C3A 5273   0.324   2.014   8.053
   29POPC   C4A 5274   0.236   1.878   7.657
   29POPC   C1B 5275   0.687   1.665   8.843
   29POPC   C2B 5276   0.760   1.531   8.442
   29POPC   C3B 5277   0.556   1.545   8.066
   29POPC   C4B 5278   0.720   1.813   7.783
   30POPC   NC3 5279  19.016  30.916   9.541
   30POPC   PO4 5280  18.607  30.445   9.285
   30POPC   GL1 5281  18.896  30.732   9.051
   30POPC   GL2 5282  19.239  30.718   9.072
   30POPC   C1A 5283  19.018  30.891   8.639
   30POPC   D2A 5284  19.219  30.917   8.249
   30POPC   C3A 5285  18.965  30.732   7.938
   30POPC   C4A 5286  19.004  30.734   7.505
   30POPC   C1B 5287  19.248  30.419   8.723
   30POPC   C2B 5288  19.052  30.348   8.310
   30POPC   C3B 5289  19.222  30.285   7.890
   30POPC   C4B 5290  19.421  30.436   7.502
   31POPC   NC3 5291  31.236  42.455   9.756
   31POPC   PO4 5292  31.722  42.590   9.523
   31POPC   GL1 5293  31.605  42.513   9.096
   31POPC   GL2 5294  31.842  42.737   8.998
   31POPC   C1A 5295  31.525  42.263   8.701
   31POPC   D2A 5296  31.491  42.082   8.265
   31POPC   C3A 5297  31.444  42.398   7.917
   31POPC   C4A 5298  31.074  42.503   7.670
   31POPC   C1B 5299  31.757  42.669   8.539
   31POPC   C2B 5300  31.882  42.405   8.221
   31POPC   C3B 5301  31.922  42.442   7.807
   31POPC   C4B 5302  31.706  42.658   7.507
   32POPC   NC3 5303  29.327  11.615   9.762
   32POPC   PO4 5304  28.829  11.251   9.413
   32POPC   GL1 5305  28.930  11.113   9.042
   32POPC   GL2 5306  29.266  11.019   9.078
   32POPC   C1A 5307  28.892  11.063   8.624
   32POPC   D2A 5308  28.753  11.119   8.213
   32POPC   C3A 5309  28.964  11.395   7.952
   32POPC   C4A 5310  29.004  11.165   7.602
   32POPC   C1B 5311  29.364  11.237   8.711
   32POPC   C2B 5312  29.340  11.506   8.380
   32POPC   C3B 5313  29.479  11.305   8.040
   32POPC   C4B 5314  29.524  11.292   7.606
   33POPC   NC3 5315  25.731  29.078   9.497
   33POPC   PO4 5316  25.025  29.067   9.550
   33POPC   GL1 5317  25.244  28.946   9.199
   33POPC   GL2 5318  25.402  29.267   9.126
   33POPC   C1A 5319  25.239  28.856   8.767
   33POPC   D2A 5320  25.477  28.947   8.397
   33POPC   C3A 5321  25.241  28.905   8.006
   33POPC   C4A 5322  25.308  28.985   7.544
   33POPC   C1B 5323  25.277  29.370   8.713
   33POPC   C2B 5324  25.120  29.318   8.298
   33POPC   C3B 5325  25.063  29.421   7.874
   33POPC   C4B 5326  25.337  29.491   7.527
   34POPC   NC3 5327  21.664  21.083   9.369
   34POPC   PO4 5328  21.326  21.640   9.595
   34POPC   GL1 5329  21.268  21.413   9.239
   34POPC   GL2 5330  21.591  21.547   9.155
   34POPC   C1A 5331  21.193  21.447   8.787
   34POPC   D2A 5332  21.138  21.226   8.393
   34POPC   C3A 5333  21.262  21.387   7.983
   34POPC   C4A 5334  21.473  21.263   7.621
   34POPC   C1B 5335  21.640  21.745   8.771
   34POPC   C2B 5336  21.521  21.612   8.376
   34POPC   C3B 5337  21.569  21.809   7.980
   34POPC   C4B 5338  21.387  21.761   7.594
   35POPC   NC3 5339  41.750  38.691   9.446
   35POPC   PO4 5340  41.307  38.224   9.550
   35POPC   GL1 5341  41.563  38.325   9.124
   35POPC   GL2 5342  41.826  38.583   8.970
   35POPC   C1A 5343  41.667  38.193   8.675
   35POPC   D2A 5344  41.502  38.364   8.256
   35POPC   C3A 5345  41.766  38.459   7.905
   35POPC   C4A 5346  41.892  38.165   7.569
   35POPC   C1B 5347  41.513  38.684   8.654
   35POPC   C2B 5348  41.388  38.973   8.327
   35POPC   C3B 5349  41.243  38.991   7.870
   35POPC   C4B 5350  41.265  38.893   7.409
   36POPC   NC3 5351  20.206  20.619   9.657
   36POPC   PO4 5352  19.573  20.655   9.446
   36POPC   GL1 5353  19.852  20.739   9.135
   36POPC   GL2 5354  20.150  20.532   9.161
   36POPC   C1A 5355  19.743  20.703   8.705
   36POPC   D2A 5356  19.879  20.855   8.295
   36POPC   C3A 5357  19.655  20.694   7.897
   36POPC   C4A 5358  19.763  20.373   7.626
   36POPC   C1B 5359  20.252  20.627   8.743
   36POPC   C2B 5360  20.286  20.526   8.318
   36POPC   C3B 5361  20.166  20.617   7.895
   36POPC   C4B 5362  20.061  20.766   7.500
   37POPC   NC3 5363   3.580  22.414   9.567
   37POPC   PO4 5364   3.594  21.855   9.202
   37POPC   GL1 5365   3.512  22.164   8.991
   37POPC   GL2 5366   3.277  22.334   9.152
   37POPC   C1A 5367   3.573  22.206   8.561
   37POPC   D2A 5368   3.618  22.147   8.120
   37POPC   C3A 5369   3.331  22.021   7.802
   37POPC   C4A 5370   3.531  22.153   7.419
   37POPC   C1B 5371   3.218  22.529   8.744
   37POPC   C2B 5372   3.350  22.619   8.319
   37POPC   C3B 5373   3.175  22.493   7.928
   37POPC   C4B 5374   2.930  22.319   7.587
   38POPC   NC3 5375  26.215   3.445   9.696
   38POPC   PO4 5376  25.662   3.477   9.477
   38POPC   GL1 5377  26.005   3.545   9.182
   38POPC   GL2 5378  26.278   3.292   9.205
   38POPC   C1A 5379  25.908   3.694   8.758
   38POPC   D2A 5380  25.991   3.960   8.406
   38POPC   C3A 5381  25.991   3.743   8.003
   38POPC   C4A 5382  25.815   3.381   7.766
   38POPC   C1B 5383  26.102   3.199   8.802
   38POPC   C2B 5384  26.172   3.374   8.400
   38POPC   C3B 5385  26.154   3.134   8.039
   38POPC   C4B 5386  26.349   3.110   7.657
   39POPC   NC3 5387  27.748  40.830   9.760
   39POPC   PO4 5388  27.145  40.600   9.760
   39POPC   GL1 5389  27.523  40.544   9.411
   39POPC   GL2 5390  27.550  40.239   9.213
   39POPC   C1A 5391  27.662  40.639   8.928
   39POPC   D2A 5392  27.773  40.495   8.470
   39POPC   C3A 5393  27.667  40.701   8.044
   39POPC   C4A 5394  27.295  40.865   7.794
   39POPC   C1B 5395  27.419  40.240   8.714
   39POPC   C2B 5396  27.372  40.263   8.215
   39POPC   C3B 5397  27.420  40.356   7.753
   39POPC   C4B 5398  27.451  40.330   7.255
   40POPC   NC3 5399  42.441  39.096   9.636
   40POPC   PO4 5400  41.822  39.102   9.631
   40POPC   GL1 5401  42.133  39.037   9.209
   40POPC   GL2 5402  42.525  39.035   9.150
   40POPC   C1A 5403  42.282  39.297   8.791
   40POPC   D2A 5404  42.370  39.146   8.360
   40POPC   C3A 5405  42.247  39.339   7.955
   40POPC   C4A 5406  42.089  39.264   7.512
   40POPC   C1B 5407  42.710  38.988   8.745
   40POPC   C2B 5408  42.700  38.745   8.362
   40POPC   C3B 5409  42.713  38.977   7.996
   40POPC   C4B 5410  42.519  39.035   7.638
   41POPC   NC3 5411  29.452  14.415   9.549
   41POPC   PO4 5412  29.935  14.096   9.567
   41POPC   GL1 5413  30.001  14.141   9.146
   41POPC   GL2 5414  29.707  14.360   9.134
   41POPC   C1A 5415  29.962  14.308   8.722
   41POPC   D2A 5416  30.103  14.508   8.372
   41POPC   C3A 5417  29.902  14.294   8.089
   41POPC   C4A 5418  29.916  14.327   7.695
   41POPC   C1B 5419  29.663  14.703   8.841
   41POPC   C2B 5420  29.681  14.822   8.387
   41POPC   C3B 5421  29.841  14.800   7.957
   41POPC   C4B 5422  29.597  14.714   7.594
   42POPC   NC3 5423  15.108   7.869   9.332
   42POPC   PO4 5424  15.342   8.436   9.677
   42POPC   GL1 5425  15.135   8.360   9.237
   42POPC   GL2 5426  15.417   8.221   9.093
   42POPC   C1A 5427  15.048   8.140   8.762
   42POPC   D2A 5428  15.199   8.014   8.345
   42POPC   C3A 5429  14.912   8.135   8.026
   42POPC   C4A 5430  14.842   8.035   7.561
   42POPC   C1B 5431  15.568   8.220   8.646
   42POPC   C2B 5432  15.755   7.960   8.329
   42POPC   C3B 5433  15.651   8.066   7.915
   42POPC   C4B 5434  15.301   8.295   7.735
   43POPC   NC3 5435  20.385  13.858   9.448
   43POPC   PO4 5436  20.524  13.186   9.502
   43POPC   GL1 5437  20.560  13.456   9.164
   43POPC   GL2 5438  20.782  13.774   9.129
   43POPC   C1A 5439  20.485  13.548   8.767
   43POPC   D2A 5440  20.822  13.506   8.482
   43POPC   C3A 5441  20.694  13.580   8.079
   43POPC   C4A 5442  20.503  13.484   7.711
   43POPC   C1B 5443  20.747  13.983   8.706
   43POPC   C2B 5444  20.407  13.901   8.405
   43POPC   C3B 5445  20.283  13.947   7.998
   43POPC   C4B 5446  20.623  14.034   7.778
   44POPC   NC3 5447  32.715  10.502   9.447
   44POPC   PO4 5448  33.395  10.306   9.394
   44POPC   GL1 5449  33.065  10.373   9.098
   44POPC   GL2 5450  33.028  10.728   9.118
   44POPC   C1A 5451  32.804  10.346   8.722
   44POPC   D2A 5452  32.967  10.180   8.314
   44POPC   C3A 5453  32.770  10.317   7.916
   44POPC   C4A 5454  32.947  10.311   7.474
   44POPC   C1B 5455  33.158  10.709   8.695
   44POPC   C2B 5456  33.150  10.663   8.247
   44POPC   C3B 5457  33.250  10.476   7.867
   44POPC   C4B 5458  33.368  10.605   7.438
   45POPC   NC3 5459  21.203  14.016   9.449
   45POPC   PO4 5460  21.730  14.322   9.664
   45POPC   GL1 5461  21.598  14.278   9.255
   45POPC   GL2 5462  21.515  14.604   9.211
   45POPC   C1A 5463  21.456  14.185   8.828
   45POPC   D2A 5464  21.217  14.304   8.454
   45POPC   C3A 5465  21.445  14.279   8.050
   45POPC   C4A 5466  21.307  14.134   7.639
   45POPC   C1B 5467  21.337  14.695   8.819
   45POPC   C2B 5468  21.483  14.738   8.394
   45POPC   C3B 5469  21.582  14.803   7.986
   45POPC   C4B 5470  21.514  14.583   7.618
   46POPC   NC3 5471   0.439   9.090   9.576
   46POPC   PO4 5472   0.274   9.748   9.505
   46POPC   GL1 5473   0.450   9.614   9.165
   46POPC   GL2 5474   0.532   9.961   9.091
   46POPC   C1A 5475   0.329   9.575   8.730
   46POPC   D2A 5476   0.424   9.817   8.355
   46POPC   C3A 5477   0.326   9.717   7.922
   46POPC   C4A 5478   0.315   9.580   7.482
   46POPC   C1B 5479   0.785   9.996   8.732
   46POPC   C2B 5480   0.729  10.220   8.358
   46POPC   C3B 5481   0.646  10.114   7.960
   46POPC   C4B 5482   0.532  10.045   7.540
   47POPC   NC3 5483  14.504  38.673   9.658
   47POPC   PO4 5484  14.149  38.112   9.671
   47POPC   GL1 5485  14.182  38.332   9.240
   47POPC   GL2 5486  14.207  38.713   9.242
   47POPC   C1A 5487  14.484  38.376   8.866
   47POPC   D2A 5488  14.728  38.359   8.450
   47POPC   C3A 5489  14.507  38.326   8.042
   47POPC   C4A 5490  14.085  38.238   7.842
   47POPC   C1B 5491  14.238  38.817   8.808
   47POPC   C2B 5492  14.238  38.593   8.409
   47POPC   C3B 5493  13.980  38.692   8.082
   47POPC   C4B 5494  14.277  38.723   7.776
   48POPC   NC3 5495  13.886  10.790   9.479
   48POPC   PO4 5496  13.615  10.197   9.425
   48POPC   GL1 5497  13.727  10.416   9.101
   48POPC   GL2 5498  13.526  10.720   9.102
   48POPC   C1A 5499  13.612  10.393   8.681
   48POPC   D2A 5500  13.488  10.579   8.305
   48POPC   C3A 5501  13.595  10.356   7.945
   48POPC   C4A 5502  13.307  10.269   7.608
   48POPC   C1B 5503  13.632  10.897   8.681
   48POPC   C2B 5504  13.754  11.030   8.267
   48POPC   C3B 5505  13.698  10.865   7.852
   48POPC   C4B 5506  13.979  10.827   7.415
   49POPC   NC3 5507   0.106  42.140   9.552
   49POPC   PO4 5508   0.644  42.545   9.473
   49POPC   GL1 5509   0.422  42.299   9.163
   49POPC   GL2 5510   0.197  42.017   9.087
   49POPC   C1A 5511   0.502  42.238   8.750
   49POPC   D2A 5512   0.671  42.492   8.436
   49POPC   C3A 5513   0.456  42.412   8.089
   49POPC   C4A 5514   0.542  42.274   7.703
   49POPC   C1B 5515   0.161  41.847   8.671
   49POPC   C2B 5516   0.397  41.929   8.307
   49POPC   C3B 5517   0.277  41.890   7.900
   49POPC   C4B 5518   0.047  42.117   7.592
   50POPC   NC3 5519  21.476  26.538   9.669
   50POPC   PO4 5520  21.504  27.171   9.712
   50POPC   GL1 5521  21.583  26.919   9.260
   50POPC   GL2 5522  21.768  27.120   8.980
   50POPC   C1A 5523  21.571  26.601   8.825
   50POPC   D2A 5524  21.581  26.760   8.322
   50POPC   C3A 5525  21.510  26.668   7.843
   50POPC   C4A 5526  21.648  26.907   7.457
   50POPC   C1B 5527  21.330  27.033   8.830
   50POPC   C2B 5528  21.123  26.736   8.569
   50POPC   C3B 5529  21.085  26.649   8.132
   50POPC   C4B 5530  20.970  26.586   7.707
   51POPC   NC3 5531  39.899  39.137   9.889
   51POPC   PO4 5532  40.186  39.528   9.478
   51POPC   GL1 5533  40.047  39.405   9.100
   51POPC   GL2 5534  39.948  39.122   9.182
   51POPC   C1A 5535  40.129  39.299   8.674
   51POPC   D2A 5536  39.996  39.484   8.299
   51POPC   C3A 5537  39.946  39.284   7.921
   51POPC   C4A 5538  40.280  39.340   7.652
   51POPC   C1B 5539  39.827  38.908   8.823
   51POPC   C2B 5540  40.035  38.808   8.465
   51POPC   C3B 5541  39.979  38.781   8.043
   51POPC   C4B 5542  40.076  38.868   7.638
   52POPC   NC3 5543   8.174  40.381   9.477
   52POPC   PO4 5544   8.715  39.939   9.423
   52POPC   GL1 5545   8.280  39.845   9.169
   52POPC   GL2 5546   8.088  40.132   9.047
   52POPC   C1A 5547   7.943  39.710   8.804
   52POPC   D2A 5548   7.812  39.841   8.369
   52POPC   C3A 5549   8.167  39.991   8.152
   52POPC   C4A 5550   8.341  39.763   7.841
   52POPC   C1B 5551   7.783  40.228   8.744
   52POPC   C2B 5552   7.864  40.366   8.383
   52POPC   C3B 5553   7.744  40.264   8.027
   52POPC   C4B 5554   7.968  40.417   7.768
   53POPC   NC3 5555  40.243  30.069   9.426
   53POPC   PO4 5556  39.806  29.522   9.427
   53POPC   GL1 5557  40.009  29.723   9.112
   53POPC   GL2 5558  40.382  29.637   9.139
   53POPC   C1A 5559  39.805  30.003   8.822
   53POPC   D2A 5560  39.707  29.960   8.405
   53POPC   C3A 5561  39.934  30.232   8.136
   53POPC   C4A 5562  40.104  30.213   7.714
   53POPC   C1B 5563  40.234  29.468   8.733
   53POPC   C2B 5564  39.998  29.455   8.353
   53POPC   C3B 5565  40.025  29.688   7.970
   53POPC   C4B 5566  40.158  29.491   7.583
   54POPC   NC3 5567   1.053   5.736   9.444
   54POPC   PO4 5568   1.678   5.990   9.487
   54POPC   GL1 5569   1.358   5.993   9.122
   54POPC   GL2 5570   1.456   5.657   9.107
   54POPC   C1A 5571   1.031   5.745   8.799
   54POPC   D2A 5572   1.097   5.596   8.373
   54POPC   C3A 5573   0.991   5.886   8.060
   54POPC   C4A 5574   1.102   5.881   7.646
   54POPC   C1B 5575   1.515   5.748   8.692
   54POPC   C2B 5576   1.416   5.994   8.345
   54POPC   C3B 5577   1.576   5.796   7.947
   54POPC   C4B 5578   1.648   6.005   7.572
   55POPC   NC3 5579  27.686  21.334   9.538
   55POPC   PO4 5580  27.238  21.763   9.271
   55POPC   GL1 5581  27.343  21.339   9.148
   55POPC   GL2 5582  27.673  21.185   9.063
   55POPC   C1A 5583  27.319  21.260   8.714
   55POPC   D2A 5584  27.554  21.276   8.334
   55POPC   C3A 5585  27.418  21.432   7.912
   55POPC   C4A 5586  27.052  21.635   7.710
   55POPC   C1B 5587  27.717  20.920   8.724
   55POPC   C2B 5588  27.937  20.934   8.341
   55POPC   C3B 5589  27.908  21.211   7.979
   55POPC   C4B 5590  27.755  21.147   7.596
   56POPC   NC3 5591   2.905  11.773   9.359
   56POPC   PO4 5592   2.431  12.301   9.516
   56POPC   GL1 5593   2.483  12.089   9.150
   56POPC   GL2 5594   2.821  12.219   9.099
   56POPC   C1A 5595   2.631  11.943   8.738
   56POPC   D2A 5596   2.643  11.775   8.329
   56POPC   C3A 5597   2.916  11.863   8.024
   56POPC   C4A 5598   2.635  11.930   7.716
   56POPC   C1B 5599   3.113  12.296   8.772
   56POPC   C2B 5600   3.046  12.440   8.367
   56POPC   C3B 5601   3.168  12.329   7.983
   56POPC   C4B 5602   2.980  12.271   7.590
   57POPC   NC3 5603  22.535   3.509   9.451
   57POPC   PO4 5604  21.972   3.615   9.802
   57POPC   GL1 5605  22.077   3.399   9.290
   57POPC   GL2 5606  22.314   3.495   9.010
   57POPC   C1A 5607  21.853   3.357   8.875
   57POPC   D2A 5608  21.972   3.571   8.482
   57POPC   C3A 5609  21.887   3.412   8.074
   57POPC   C4A 5610  21.908   3.480   7.599
   57POPC   C1B 5611  22.435   3.707   8.654
   57POPC   C2B 5612  22.533   3.693   8.230
   57POPC   C3B 5613  22.277   3.731   7.857
   57POPC   C4B 5614  22.365   3.676   7.424
   58POPC   NC3 5615  24.882  28.572   9.450
   58POPC   PO4 5616  25.405  28.190   9.694
   58POPC   GL1 5617  25.402  28.108   9.245
   58POPC   GL2 5618  25.249  28.426   9.114
   58POPC   C1A 5619  25.494  28.107   8.795
   58POPC   D2A 5620  25.656  28.265   8.401
   58POPC   C3A 5621  25.416  28.230   8.009
   58POPC   C4A 5622  25.532  28.571   7.767
   58POPC   C1B 5623  25.057  28.356   8.716
   58POPC   C2B 5624  25.096  28.533   8.347
   58POPC   C3B 5625  24.840  28.491   8.013
   58POPC   C4B 5626  25.043  28.546   7.661
   59POPC   NC3 5627  41.757  21.724   9.383
   59POPC   PO4 5628  42.431  21.748   9.451
   59POPC   GL1 5629  42.193  21.589   9.106
   59POPC   GL2 5630  42.165  21.227   9.060
   59POPC   C1A 5631  42.230  21.664   8.664
   59POPC   D2A 5632  42.475  21.507   8.309
   59POPC   C3A 5633  42.230  21.345   7.955
   59POPC   C4A 5634  42.173  21.247   7.526
   59POPC   C1B 5635  42.315  21.156   8.636
   59POPC   C2B 5636  42.361  20.930   8.239
   59POPC   C3B 5637  42.237  20.809   7.792
   59POPC   C4B 5638  42.330  20.801   7.312
   60POPC   NC3 5639  19.237  13.719   9.610
   60POPC   PO4 5640  18.843  13.172   9.611
   60POPC   GL1 5641  18.906  13.526   9.275
   60POPC   GL2 5642  19.220  13.687   9.105
   60POPC   C1A 5643  18.855  13.513   8.817
   60POPC   D2A 5644  19.095  13.395   8.454
   60POPC   C3A 5645  19.029  13.405   8.002
   60POPC   C4A 5646  18.911  13.749   7.722
   60POPC   C1B 5647  19.199  13.871   8.669
   60POPC   C2B 5648  19.425  13.791   8.267
   60POPC   C3B 5649  19.453  13.672   7.829
   60POPC   C4B 5650  19.351  13.846   7.428
   61POPC   NC3 5651  44.172  10.200   9.467
   61POPC   PO4 5652  43.910  10.915   9.464
   61POPC   GL1 5653  43.837  10.552   9.241
   61POPC   GL2 5654  44.151  10.552   9.082
   61POPC   C1A 5655  43.681  10.459   8.832
   61POPC   D2A 5656  43.844  10.424   8.400
   61POPC   C3A 5657  43.608  10.699   8.135
   61POPC   C4A 5658  43.508  10.582   7.737
   61POPC   C1B 5659  44.126  10.215   8.776
   61POPC   C2B 5660  44.331  10.242   8.374
   61POPC   C3B 5661  44.305  10.595   8.161
   61POPC   C4B 5662  44.018  10.549   7.814
   62POPC   NC3 5663  30.181  21.459   9.336
   62POPC   PO4 5664  29.738  21.049   9.600
   62POPC   GL1 5665  29.804  21.230   9.120
   62POPC   GL2 5666  30.166  21.203   8.922
   62POPC   C1A 5667  29.843  21.545   8.757
   62POPC   D2A 5668  29.622  21.485   8.374
   62POPC   C3A 5669  29.712  21.578   7.962
   62POPC   C4A 5670  30.124  21.658   7.758
   62POPC   C1B 5671  29.932  21.084   8.554
   62POPC   C2B 5672  30.107  21.300   8.176
   62POPC   C3B 5673  30.173  21.157   7.740
   62POPC   C4B 5674  30.085  21.063   7.311
   63POPC   NC3 5675   5.835  16.495  10.030
   63POPC   PO4 5676   6.367  16.472   9.573
   63POPC   GL1 5677   6.060  16.719   9.240
   63POPC   GL2 5678   5.694  16.889   9.199
   63POPC   C1A 5679   5.944  16.589   8.808
   63POPC   D2A 5680   5.803  16.698   8.397
   63POPC   C3A 5681   6.018  16.516   8.066
   63POPC   C4A 5682   5.931  16.558   7.618
   63POPC   C1B 5683   5.745  17.062   8.756
   63POPC   C2B 5684   5.912  17.175   8.308
   63POPC   C3B 5685   5.859  16.980   7.908
   63POPC   C4B 5686   5.786  17.024   7.442
   64POPC   NC3 5687  36.485  26.962   9.508
   64POPC   PO4 5688  36.924  26.509   9.433
   64POPC   GL1 5689  36.816  26.795   9.106
   64POPC   GL2 5690  36.516  26.617   9.117
   64POPC   C1A 5691  36.859  27.079   8.719
   64POPC   D2A 5692  36.781  27.015   8.264
   64POPC   C3A 5693  37.090  27.085   7.920
   64POPC   C4A 5694  37.004  27.048   7.454
   64POPC   C1B 5695  36.423  26.792   8.741
   64POPC   C2B 5696  36.473  26.612   8.341
   64POPC   C3B 5697  36.341  26.750   7.960
   64POPC   C4B 5698  36.621  26.985   7.767
   65POPC   NC3 5699  33.187  42.910   9.606
   65POPC   PO4 5700  33.059  43.573   9.551
   65POPC   GL1 5701  33.178  43.284   9.210
   65POPC   GL2 5702  32.963  42.983   9.140
   65POPC   C1A 5703  33.247  43.175   8.751
   65POPC   D2A 5704  32.984  42.957   8.398
   65POPC   C3A 5705  33.148  43.002   7.948
   65POPC   C4A 5706  33.028  43.134   7.517
   65POPC   C1B 5707  32.784  43.343   8.887
   65POPC   C2B 5708  32.765  43.424   8.414
   65POPC   C3B 5709  32.648  43.161   8.022
   65POPC   C4B 5710  32.567  43.357   7.612
   66POPC   NC3 5711  29.993  12.249   9.370
   66POPC   PO4 5712  29.525  11.805   9.382
   66POPC   GL1 5713  29.784  11.914   9.058
   66POPC   GL2 5714  30.026  11.746   9.177
   66POPC   C1A 5715  29.937  12.201   8.730
   66POPC   D2A 5716  29.803  12.208   8.317
   66POPC   C3A 5717  29.774  12.389   7.914
   66POPC   C4A 5718  30.063  12.335   7.566
   66POPC   C1B 5719  30.240  11.777   8.810
   66POPC   C2B 5720  30.187  11.842   8.384
   66POPC   C3B 5721  30.177  12.060   8.004
   66POPC   C4B 5722  30.303  11.876   7.644
   67POPC   NC3 5723   9.921   4.593   9.658
   67POPC   PO4 5724   9.666   5.227   9.451
   67POPC   GL1 5725   9.749   5.104   9.079
   67POPC   GL2 5726   9.677   4.773   9.142
   67POPC   C1A 5727   9.904   4.954   8.703
   67POPC   D2A 5728   9.739   4.964   8.306
   67POPC   C3A 5729   9.797   5.313   8.057
   67POPC   C4A 5730   9.786   5.120   7.680
   67POPC   C1B 5731   9.445   4.723   8.726
   67POPC   C2B 5732   9.295   4.713   8.279
   67POPC   C3B 5733   9.376   4.799   7.810
   67POPC   C4B 5734   9.276   4.687   7.350
   68POPC   NC3 5735   3.056   2.267   9.476
   68POPC   PO4 5736   2.568   1.899   9.676
   68POPC   GL1 5737   2.659   2.061   9.231
   68POPC   GL2 5738   2.952   1.918   9.049
   68POPC   C1A 5739   2.676   2.266   8.811
   68POPC   D2A 5740   2.631   2.501   8.444
   68POPC   C3A 5741   2.712   2.234   8.104
   68POPC   C4A 5742   2.696   2.342   7.685
   68POPC   C1B 5743   3.207   1.950   8.670
   68POPC   C2B 5744   3.236   2.036   8.229
   68POPC   C3B 5745   3.089   1.893   7.843
   68POPC   C4B 5746   2.679   1.807   7.700
   69POPC   NC3 5747   6.261   5.149   9.693
   69POPC   PO4 5748   5.764   5.459   9.419
   69POPC   GL1 5749   5.852   5.084   9.179
   69POPC   GL2 5750   6.197   4.955   9.186
   69POPC   C1A 5751   5.680   4.927   8.789
   69POPC   D2A 5752   5.703   5.186   8.447
   69POPC   C3A 5753   5.666   5.074   8.055
   69POPC   C4A 5754   5.553   5.290   7.695
   69POPC   C1B 5755   6.130   5.161   8.734
   69POPC   C2B 5756   6.168   5.153   8.263
   69POPC   C3B 5757   6.122   5.125   7.840
   69POPC   C4B 5758   6.028   5.410   7.533
   70POPC   NC3 5759  14.112   7.966   9.351
   70POPC   PO4 5760  13.711   8.448   9.489
   70POPC   GL1 5761  13.656   8.208   9.129
   70POPC   GL2 5762  13.286   8.255   9.137
   70POPC   C1A 5763  13.903   8.037   8.752
   70POPC   D2A 5764  13.989   8.247   8.392
   70POPC   C3A 5765  13.894   8.029   8.059
   70POPC   C4A 5766  13.862   8.219   7.691
   70POPC   C1B 5767  13.418   8.158   8.670
   70POPC   C2B 5768  13.388   8.060   8.193
   70POPC   C3B 5769  13.288   8.037   7.730
   70POPC   C4B 5770  13.352   7.911   7.269
   71POPC   NC3 5771  35.420   2.359   9.377
   71POPC   PO4 5772  35.070   2.803   9.794
   71POPC   GL1 5773  35.194   2.840   9.343
   71POPC   GL2 5774  35.520   2.829   9.153
   71POPC   C1A 5775  35.086   2.881   8.898
   71POPC   D2A 5776  35.058   2.725   8.504
   71POPC   C3A 5777  35.420   2.859   8.282
   71POPC   C4A 5778  35.484   2.649   7.910
   71POPC   C1B 5779  35.577   2.578   8.747
   71POPC   C2B 5780  35.651   2.366   8.322
   71POPC   C3B 5781  35.758   2.234   7.863
   71POPC   C4B 5782  35.672   2.315   7.389
   72POPC   NC3 5783  15.554  10.473  10.059
   72POPC   PO4 5784  15.200  10.243   9.496
   72POPC   GL1 5785  15.245  10.555   9.126
   72POPC   GL2 5786  15.611  10.749   9.071
   72POPC   C1A 5787  15.047  10.644   8.713
   72POPC   D2A 5788  14.866  10.590   8.287
   72POPC   C3A 5789  14.819  10.844   7.919
   72POPC   C4A 5790  14.994  10.872   7.482
   72POPC   C1B 5791  15.549  10.452   8.734
   72POPC   C2B 5792  15.377  10.512   8.325
   72POPC   C3B 5793  15.276  10.613   7.914
   72POPC   C4B 5794  15.502  10.777   7.588
   73POPC   NC3 5795  43.783  17.109   9.160
   73POPC   PO4 5796  43.814  16.534   9.496
   73POPC   GL1 5797  43.986  16.605   9.067
   73POPC   GL2 5798  44.242  16.884   9.096
   73POPC   C1A 5799  43.960  16.403   8.637
   73POPC   D2A 5800  43.746  16.178   8.347
   73POPC   C3A 5801  43.837  16.403   7.982
   73POPC   C4A 5802  43.645  16.819   7.849
   73POPC   C1B 5803  44.224  16.834   8.675
   73POPC   C2B 5804  44.019  16.816   8.249
   73POPC   C3B 5805  44.160  16.787   7.803
   73POPC   C4B 5806  44.191  16.994   7.393
   74POPC   NC3 5807  17.474   5.990   9.561
   74POPC   PO4 5808  17.832   5.485   9.614
   74POPC   GL1 5809  17.645   5.665   9.180
   74POPC   GL2 5810  17.490   6.010   9.062
   74POPC   C1A 5811  17.468   5.658   8.718
   74POPC   D2A 5812  17.619   5.549   8.332
   74POPC   C3A 5813  17.410   5.629   7.964
   74POPC   C4A 5814  17.624   5.972   7.826
   74POPC   C1B 5815  17.445   6.216   8.647
   74POPC   C2B 5816  17.292   6.115   8.211
   74POPC   C3B 5817  17.182   6.195   7.762
   74POPC   C4B 5818  17.089   6.338   7.325
   75POPC   NC3 5819  22.578  19.842   9.884
   75POPC   PO4 5820  22.054  19.665   9.507
   75POPC   GL1 5821  22.117  19.797   9.136
   75POPC   GL2 5822  22.350  20.035   9.159
   75POPC   C1A 5823  22.269  19.612   8.773
   75POPC   D2A 5824  22.098  19.444   8.410
   75POPC   C3A 5825  21.888  19.705   8.146
   75POPC   C4A 5826  22.116  19.560   7.799
   75POPC   C1B 5827  22.194  20.118   8.763
   75POPC   C2B 5828  22.281  19.958   8.390
   75POPC   C3B 5829  22.359  20.074   8.005
   75POPC   C4B 5830  22.038  20.054   7.775
   76POPC   NC3 5831  18.816  12.769   9.368
   76POPC   PO4 5832  19.389  13.306   9.490
   76POPC   GL1 5833  19.383  13.190   9.101
   76POPC   GL2 5834  19.081  13.091   9.094
   76POPC   C1A 5835  19.390  12.881   8.733
   76POPC   D2A 5836  19.224  12.906   8.308
   76POPC   C3A 5837  19.333  12.705   7.936
   76POPC   C4A 5838  19.215  12.867   7.557
   76POPC   C1B 5839  18.871  12.999   8.713
   76POPC   C2B 5840  18.738  13.053   8.288
   76POPC   C3B 5841  18.804  12.956   7.862
   76POPC   C4B 5842  18.820  13.250   7.523
   77POPC   NC3 5843  32.694   6.412   9.528
   77POPC   PO4 5844  33.008   7.038   9.685
   77POPC   GL1 5845  33.058   6.936   9.271
   77POPC   GL2 5846  33.065   6.588   9.216
   77POPC   C1A 5847  33.011   6.931   8.826
   77POPC   D2A 5848  33.257   6.867   8.463
   77POPC   C3A 5849  33.035   6.925   8.068
   77POPC   C4A 5850  33.109   6.668   7.735
   77POPC   C1B 5851  32.800   6.424   8.867
   77POPC   C2B 5852  32.605   6.364   8.453
   77POPC   C3B 5853  32.738   6.481   8.051
   77POPC   C4B 5854  32.730   6.359   7.637
   78POPC   NC3 5855  35.621  39.371   9.369
   78POPC   PO4 5856  34.914  39.458   9.340
   78POPC   GL1 5857  35.214  39.319   9.085
   78POPC   GL2 5858  35.316  38.984   9.151
   78POPC   C1A 5859  35.475  39.300   8.732
   78POPC   D2A 5860  35.315  39.453   8.398
   78POPC   C3A 5861  35.521  39.356   8.076
   78POPC   C4A 5862  35.462  39.449   7.678
   78POPC   C1B 5863  35.537  38.785   8.806
   78POPC   C2B 5864  35.629  38.916   8.382
   78POPC   C3B 5865  35.443  38.861   7.997
   78POPC   C4B 5866  35.319  38.952   7.590
   79POPC   NC3 5867  25.775  11.495   9.641
   79POPC   PO4 5868  26.318  11.135   9.770
   79POPC   GL1 5869  26.096  11.150   9.370
   79POPC   GL2 5870  25.993  11.476   9.190
   79POPC   C1A 5871  26.044  11.028   8.970
   79POPC   D2A 5872  26.055  11.146   8.526
   79POPC   C3A 5873  26.282  11.163   8.154
   79POPC   C4A 5874  26.139  11.125   7.736
   79POPC   C1B 5875  25.971  11.588   8.774
   79POPC   C2B 5876  26.061  11.624   8.349
   79POPC   C3B 5877  25.948  11.526   7.957
   79POPC   C4B 5878  26.165  11.610   7.542
   80POPC   NC3 5879  34.046  36.626   9.555
   80POPC   PO4 5880  34.640  36.954   9.603
   80POPC   GL1 5881  34.504  36.726   9.237
   80POPC   GL2 5882  34.268  36.969   9.210
   80POPC   C1A 5883  34.628  36.677   8.779
   80POPC   D2A 5884  34.868  36.843   8.387
   80POPC   C3A 5885  34.699  36.680   7.968
   80POPC   C4A 5886  34.751  36.802   7.514
   80POPC   C1B 5887  34.411  37.152   8.807
   80POPC   C2B 5888  34.391  36.998   8.389
   80POPC   C3B 5889  34.615  37.168   8.043
   80POPC   C4B 5890  34.390  37.077   7.698
   81POPC   NC3 5891  29.123  30.300   9.405
   81POPC   PO4 5892  28.923  30.991   9.412
   81POPC   GL1 5893  29.035  30.709   9.101
   81POPC   GL2 5894  28.894  30.927   8.857
   81POPC   C1A 5895  29.010  30.455   8.726
   81POPC   D2A 5896  29.153  30.569   8.336
   81POPC   C3A 5897  28.946  30.399   8.056
   81POPC   C4A 5898  29.120  30.233   7.733
   81POPC   C1B 5899  29.334  30.862   8.700
   81POPC   C2B 5900  29.565  30.882   8.331
   81POPC   C3B 5901  29.345  30.906   7.942
   81POPC   C4B 5902  28.986  30.763   7.690
   82POPC   NC3 5903  39.460  21.628   9.379
   82POPC   PO4 5904  40.070  21.985   9.487
   82POPC   GL1 5905  40.031  22.132   9.079
   82POPC   GL2 5906  40.317  22.321   9.009
   82POPC   C1A 5907  39.806  22.014   8.748
   82POPC   D2A 5908  39.584  22.163   8.389
   82POPC   C3A 5909  39.834  22.172   8.035
   82POPC   C4A 5910  39.847  22.257   7.628
   82POPC   C1B 5911  40.347  21.996   8.711
   82POPC   C2B 5912  40.126  21.866   8.361
   82POPC   C3B 5913  40.022  21.696   7.966
   82POPC   C4B 5914  40.193  21.819   7.568
   83POPC   NC3 5915   2.334  28.490   9.610
   83POPC   PO4 5916   1.712  28.199   9.497
   83POPC   GL1 5917   2.045  28.370   9.192
   83POPC   GL2 5918   2.004  28.747   9.089
   83POPC   C1A 5919   1.971  28.342   8.754
   83POPC   D2A 5920   1.581  28.326   8.529
   83POPC   C3A 5921   1.631  28.207   8.128
   83POPC   C4A 5922   1.918  28.292   7.832
   83POPC   C1B 5923   1.898  28.844   8.644
   83POPC   C2B 5924   1.995  28.571   8.289
   83POPC   C3B 5925   2.269  28.623   7.951
   83POPC   C4B 5926   2.301  28.519   7.529
   84POPC   NC3 5927  26.521   0.774   9.515
   84POPC   PO4 5928  26.968   0.332   9.394
   84POPC   GL1 5929  26.814   0.580   9.053
   84POPC   GL2 5930  26.469   0.716   9.012
   84POPC   C1A 5931  26.717   0.494   8.623
   84POPC   D2A 5932  26.545   0.414   8.249
   84POPC   C3A 5933  26.847   0.547   7.984
   84POPC   C4A 5934  26.846   0.599   7.554
   84POPC   C1B 5935  26.306   0.801   8.597
   84POPC   C2B 5936  26.398   0.915   8.183
   84POPC   C3B 5937  26.367   0.677   7.811
   84POPC   C4B 5938  26.273   0.222   7.850
   85POPC   NC3 5939  31.260  44.755   9.533
   85POPC   PO4 5940  31.579  44.152   9.416
   85POPC   GL1 5941  31.681  44.464   9.112
   85POPC   GL2 5942  31.354  44.637   9.026
   85POPC   C1A 5943  31.708  44.555   8.671
   85POPC   D2A 5944  31.450  44.574   8.278
   85POPC   C3A 5945  31.640  44.532   7.880
   85POPC   C4A 5946  31.334  44.414   7.562
   85POPC   C1B 5947  31.362  44.922   8.642
   85POPC   C2B 5948  31.456   0.092   8.224
   85POPC   C3B 5949  31.318  44.924   7.847
   85POPC   C4B 5950  30.888  44.960   7.764
   86POPC   NC3 5951   9.641  43.925   9.587
   86POPC   PO4 5952   9.788  43.281   9.533
   86POPC   GL1 5953   9.744  43.615   9.187
   86POPC   GL2 5954   9.962  43.943   9.190
   86POPC   C1A 5955   9.571  43.916   8.852
   86POPC   D2A 5956   9.518  44.186   8.481
   86POPC   C3A 5957   9.549  44.022   8.089
   86POPC   C4A 5958   9.620  43.856   7.718
   86POPC   C1B 5959  10.057  44.218   8.842
   86POPC   C2B 5960   9.922  44.492   8.507
   86POPC   C3B 5961   9.970  44.372   8.086
   86POPC   C4B 5962   9.722  44.355   7.733
   87POPC   NC3 5963  34.731  42.529   9.478
   87POPC   PO4 5964  34.241  42.035   9.464
   87POPC   GL1 5965  34.419  42.283   9.134
   87POPC   GL2 5966  34.740  42.249   9.068
   87POPC   C1A 5967  34.432  42.151   8.682
   87POPC   D2A 5968  34.342  42.195   8.258
   87POPC   C3A 5969  34.486  42.574   8.085
   87POPC   C4A 5970  34.530  42.430   7.708
   87POPC   C1B 5971  35.007  42.370   8.784
   87POPC   C2B 5972  34.843  42.406   8.401
   87POPC   C3B 5973  34.831  42.175   8.041
   87POPC   C4B 5974  34.920  42.089   7.625
   88POPC   NC3 5975  29.346  16.902   9.508
   88POPC   PO4 5976  29.434  16.234   9.518
   88POPC   GL1 5977  29.211  16.390   9.111
   88POPC   GL2 5978  29.306  16.781   9.025
   88POPC   C1A 5979  29.094  16.523   8.664
   88POPC   D2A 5980  29.248  16.905   8.468
   88POPC   C3A 5981  29.384  16.858   8.069
   88POPC   C4A 5982  29.265  16.642   7.723
   88POPC   C1B 5983  28.854  16.897   8.914
   88POPC   C2B 5984  28.727  16.909   8.466
   88POPC   C3B 5985  28.906  16.681   8.129
   88POPC   C4B 5986  28.791  16.842   7.735
   89POPC   NC3 5987  30.298  17.092   9.747
   89POPC   PO4 5988  29.783  16.989   9.355
   89POPC   GL1 5989  29.891  16.712   9.064
   89POPC   GL2 5990  29.716  16.477   9.074
   89POPC   C1A 5991  29.932  16.804   8.655
   89POPC   D2A 5992  29.776  17.014   8.328
   89POPC   C3A 5993  29.891  16.810   7.962
   89POPC   C4A 5994  30.091  16.878   7.570
   89POPC   C1B 5995  30.018  16.314   8.746
   89POPC   C2B 5996  30.108  16.432   8.299
   89POPC   C3B 5997  30.090  16.362   7.844
   89POPC   C4B 5998  30.207  16.114   7.499
   90POPC   NC3 5999   0.322  38.744   9.883
   90POPC   PO4 6000   0.201  39.351   9.742
   90POPC   GL1 6001   0.304  39.310   9.235
   90POPC   GL2 6002   0.382  39.013   9.031
   90POPC   C1A 6003   0.121  39.357   8.787
   90POPC   D2A 6004   0.292  39.409   8.357
   90POPC   C3A 6005   0.387  39.065   8.039
   90POPC   C4A 6006   0.349  39.047   7.570
   90POPC   C1B 6007   0.626  39.138   8.648
   90POPC   C2B 6008   0.866  39.146   8.267
   90POPC   C3B 6009   0.967  38.841   7.972
   90POPC   C4B 6010   0.653  38.663   7.752
   91POPC   NC3 6011  15.992  29.654   9.568
   91POPC   PO4 6012  15.841  30.223   9.643
   91POPC   GL1 6013  15.724  29.962   9.265
   91POPC   GL2 6014  16.043  29.949   9.123
   91POPC   C1A 6015  15.616  29.837   8.829
   91POPC   D2A 6016  15.825  29.954   8.433
   91POPC   C3A 6017  15.894  29.963   7.989
   91POPC   C4A 6018  15.839  29.849   7.536
   91POPC   C1B 6019  16.147  30.163   8.761
   91POPC   C2B 6020  16.265  30.204   8.333
   91POPC   C3B 6021  16.373  30.167   7.925
   91POPC   C4B 6022  16.145  30.250   7.579
   92POPC   NC3 6023  36.615  35.406   9.321
   92POPC   PO4 6024  35.928  35.632   9.531
   92POPC   GL1 6025  36.092  35.330   9.221
   92POPC   GL2 6026  35.904  35.500   9.009
   92POPC   C1A 6027  36.263  35.217   8.783
   92POPC   D2A 6028  36.310  35.012   8.371
   92POPC   C3A 6029  36.256  35.125   7.898
   92POPC   C4A 6030  36.107  35.058   7.452
   92POPC   C1B 6031  35.920  35.732   8.647
   92POPC   C2B 6032  35.768  35.745   8.239
   92POPC   C3B 6033  35.939  35.521   7.888
   92POPC   C4B 6034  35.785  35.518   7.441
   93POPC   NC3 6035  43.722  34.260   9.549
   93POPC   PO4 6036  44.194  34.686   9.545
   93POPC   GL1 6037  43.996  34.479   9.185
   93POPC   GL2 6038  43.679  34.626   9.183
   93POPC   C1A 6039  44.143  34.505   8.775
   93POPC   D2A 6040  44.378  34.564   8.433
   93POPC   C3A 6041  44.066  34.538   8.166
   93POPC   C4A 6042  44.021  34.682   7.745
   93POPC   C1B 6043  43.536  34.672   8.768
   93POPC   C2B 6044  43.618  34.694   8.336
   93POPC   C3B 6045  43.557  34.585   7.908
   93POPC   C4B 6046  43.477  34.754   7.489
   94POPC   NC3 6047  33.546   6.018   9.606
   94POPC   PO4 6048  34.180   6.026   9.464
   94POPC   GL1 6049  33.868   5.919   9.174
   94POPC   GL2 6050  33.567   6.075   9.093
   94POPC   C1A 6051  33.935   5.804   8.727
   94POPC   D2A 6052  33.980   5.618   8.329
   94POPC   C3A 6053  33.879   5.953   8.093
   94POPC   C4A 6054  33.816   6.083   7.707
   94POPC   C1B 6055  33.538   5.595   8.969
   94POPC   C2B 6056  33.505   5.492   8.559
   94POPC   C3B 6057  33.426   5.825   8.259
   94POPC   C4B 6058  33.427   5.785   7.798
   95POPC   NC3 6059  31.724  14.852   9.448
   95POPC   PO4 6060  31.388  15.427   9.508
   95POPC   GL1 6061  31.297  15.499   9.122
   95POPC   GL2 6062  31.657  15.418   9.085
   95POPC   C1A 6063  31.324  15.226   8.758
   95POPC   D2A 6064  31.328  14.910   8.461
   95POPC   C3A 6065  31.365  15.020   8.032
   95POPC   C4A 6066  31.419  14.993   7.583
   95POPC   C1B 6067  31.855  15.207   8.776
   95POPC   C2B 6068  31.712  15.227   8.378
   95POPC   C3B 6069  31.682  15.419   8.019
   95POPC   C4B 6070  31.858  15.335   7.638
   96POPC   NC3 6071  32.124  35.940   9.511
   96POPC   PO4 6072  32.333  36.451   9.882
   96POPC   GL1 6073  32.457  36.270   9.375
   96POPC   GL2 6074  32.147  36.198   9.081
   96POPC   C1A 6075  32.608  36.091   8.964
   96POPC   D2A 6076  32.462  36.299   8.570
   96POPC   C3A 6077  32.416  35.957   8.276
   96POPC   C4A 6078  32.480  35.924   7.851
   96POPC   C1B 6079  32.100  35.947   8.701
   96POPC   C2B 6080  31.910  36.029   8.289
   96POPC   C3B 6081  31.977  35.999   7.850
   96POPC   C4B 6082  32.030  35.837   7.439
   97POPC   NC3 6083  11.473  16.532   9.505
   97POPC   PO4 6084  10.843  16.728   9.461
   97POPC   GL1 6085  11.090  16.532   9.153
   97POPC   GL2 6086  11.266  16.833   9.156
   97POPC   C1A 6087  11.428  16.517   8.811
   97POPC   D2A 6088  11.443  16.727   8.389
   97POPC   C3A 6089  11.443  16.496   8.025
   97POPC   C4A 6090  11.073  16.488   7.803
   97POPC   C1B 6091  11.165  16.957   8.754
   97POPC   C2B 6092  11.080  17.083   8.344
   97POPC   C3B 6093  11.197  16.976   7.924
   97POPC   C4B 6094  11.472  16.847   7.592
   98POPC   NC3 6095   8.968  31.163   9.463
   98POPC   PO4 6096   9.019  30.542   9.697
   98POPC   GL1 6097   8.927  30.583   9.244
   98POPC   GL2 6098   9.237  30.579   9.060
   98POPC   C1A 6099   8.829  30.440   8.809
   98POPC   D2A 6100   9.146  30.577   8.505
   98POPC   C3A 6101   9.042  30.432   8.107
   98POPC   C4A 6102   8.927  30.630   7.717
   98POPC   C1B 6103   8.995  30.937   8.855
   98POPC   C2B 6104   8.698  30.949   8.518
   98POPC   C3B 6105   8.804  30.949   8.095
   98POPC   C4B 6106   8.636  31.108   7.718
   99POPC   NC3 6107  28.027  23.639   9.560
   99POPC   PO4 6108  27.279  23.832   9.551
   99POPC   GL1 6109  27.629  23.786   9.268
   99POPC   GL2 6110  27.747  24.107   9.271
   99POPC   C1A 6111  27.892  23.645   8.914
   99POPC   D2A 6112  27.719  23.640   8.527
   99POPC   C3A 6113  27.880  23.685   8.117
   99POPC   C4A 6114  27.658  23.508   7.783
   99POPC   C1B 6115  27.671  24.111   8.834
   99POPC   C2B 6116  27.824  24.123   8.422
   99POPC   C3B 6117  27.581  24.108   8.061
   99POPC   C4B 6118  27.477  24.029   7.661
  100POPC   NC3 6119  36.773  36.531   9.421
  100POPC   PO4 6120  36.743  35.793   9.524
  100POPC   GL1 6121  36.775  36.078   9.172
  100POPC   GL2 6122  37.126  36.235   9.095
  100POPC   C1A 6123  36.766  36.087   8.735
  100POPC   D2A 6124  36.515  36.039   8.377
  100POPC   C3A 6125  36.794  36.060   8.064
  100POPC   C4A 6126  36.994  36.016   7.730
  100POPC   C1B 6127  37.091  36.494   8.688
  100POPC   C2B 6128  37.363  36.565   8.316
  100POPC   C3B 6129  37.207  36.465   7.901
  100POPC   C4B 6130  36.921  36.523   7.564
  101POPC   NC3 6131   2.846  15.369   9.429
  101POPC   PO4 6132   2.364  14.858   9.592
  101POPC   GL1 6133   2.701  14.885   9.221
  101POPC   GL2 6134   3.030  15.034   9.094
  101POPC   C1A 6135   2.660  14.939   8.747
  101POPC   D2A 6136   2.903  15.045   8.351
  101POPC   C3A 6137   2.603  15.106   8.037
  101POPC   C4A 6138   2.570  14.711   7.878
  101POPC   C1B 6139   2.984  15.339   8.758
  101POPC   C2B 6140   2.601  15.444   8.497
  101POPC   C3B 6141   2.719  15.616   8.124
  101POPC   C4B 6142   2.996  15.387   7.831
  102POPC   NC3 6143   3.079  18.787   9.385
  102POPC   PO4 6144   2.533  19.230   9.490
  102POPC   GL1 6145   2.650  19.017   9.159
  102POPC   GL2 6146   2.403  18.763   9.179
  102POPC   C1A 6147   2.681  19.201   8.778
  102POPC   D2A 6148   2.770  19.310   8.373
  102POPC   C3A 6149   2.583  19.139   8.033
  102POPC   C4A 6150   2.942  18.995   7.827
  102POPC   C1B 6151   2.556  18.683   8.745
  102POPC   C2B 6152   2.750  18.766   8.347
  102POPC   C3B 6153   2.689  18.570   7.947
  102POPC   C4B 6154   2.540  18.590   7.556
  103POPC   NC3 6155  32.594  38.297   9.405
  103POPC   PO4 6156  33.206  38.536   9.399
  103POPC   GL1 6157  33.009  38.246   9.118
  103POPC   GL2 6158  32.735  38.446   8.947
  103POPC   C1A 6159  33.080  38.197   8.694
  103POPC   D2A 6160  33.030  38.418   8.349
  103POPC   C3A 6161  33.030  38.240   7.982
  103POPC   C4A 6162  33.293  38.460   7.720
  103POPC   C1B 6163  33.078  38.713   8.770
  103POPC   C2B 6164  33.113  38.935   8.359
  103POPC   C3B 6165  32.975  38.792   7.945
  103POPC   C4B 6166  32.580  38.839   7.732
  104POPC   NC3 6167  21.484  40.904   9.394
  104POPC   PO4 6168  20.835  40.689   9.328
  104POPC   GL1 6169  21.178  40.674   9.054
  104POPC   GL2 6170  21.450  40.425   9.184
  104POPC   C1A 6171  21.246  40.837   8.635
  104POPC   D2A 6172  21.259  40.952   8.200
  104POPC   C3A 6173  21.072  40.751   7.856
  104POPC   C4A 6174  21.187  40.964   7.477
  104POPC   C1B 6175  21.674  40.624   8.827
  104POPC   C2B 6176  21.698  40.741   8.413
  104POPC   C3B 6177  21.853  40.626   8.029
  104POPC   C4B 6178  21.595  40.843   7.761
  105POPC   NC3 6179   1.220   7.621   9.681
  105POPC   PO4 6180   1.489   6.992   9.449
  105POPC   GL1 6181   1.367   7.416   9.199
  105POPC   GL2 6182   1.020   7.566   9.204
  105POPC   C1A 6183   1.284   7.618   8.776
  105POPC   D2A 6184   1.240   7.424   8.388
  105POPC   C3A 6185   1.480   7.539   8.028
  105POPC   C4A 6186   1.517   7.652   7.563
  105POPC   C1B 6187   0.884   7.313   8.847
  105POPC   C2B 6188   0.724   7.382   8.452
  105POPC   C3B 6189   0.874   7.508   8.040
  105POPC   C4B 6190   1.122   7.353   7.701
  106POPC   NC3 6191  39.693  26.889   9.664
  106POPC   PO4 6192  39.168  26.676   9.343
  106POPC   GL1 6193  39.534  26.833   9.143
  106POPC   GL2 6194  39.541  27.178   9.266
  106POPC   C1A 6195  39.461  26.691   8.716
  106POPC   D2A 6196  39.237  26.503   8.358
  106POPC   C3A 6197  39.426  26.690   8.000
  106POPC   C4A 6198  39.393  26.803   7.596
  106POPC   C1B 6199  39.267  27.263   8.918
  106POPC   C2B 6200  39.277  27.209   8.446
  106POPC   C3B 6201  38.988  26.958   8.165
  106POPC   C4B 6202  38.906  26.816   7.738
  107POPC   NC3 6203  33.956  37.622   9.575
  107POPC   PO4 6204  33.364  37.557   9.530
  107POPC   GL1 6205  33.664  37.615   9.161
  107POPC   GL2 6206  33.893  37.885   9.130
  107POPC   C1A 6207  33.745  37.484   8.724
  107POPC   D2A 6208  33.521  37.500   8.296
  107POPC   C3A 6209  33.724  37.580   7.903
  107POPC   C4A 6210  33.549  37.606   7.428
  107POPC   C1B 6211  33.872  38.019   8.720
  107POPC   C2B 6212  33.919  37.835   8.343
  107POPC   C3B 6213  34.124  37.903   7.986
  107POPC   C4B 6214  33.961  37.876   7.569
  108POPC   NC3 6215  11.424   4.908   9.408
  108POPC   PO4 6216  10.992   5.479   9.546
  108POPC   GL1 6217  11.110   5.243   9.175
  108POPC   GL2 6218  11.394   5.373   9.088
  108POPC   C1A 6219  11.304   5.009   8.754
  108POPC   D2A 6220  11.262   5.146   8.308
  108POPC   C3A 6221  11.244   4.927   7.888
  108POPC   C4A 6222  11.199   5.329   7.732
  108POPC   C1B 6223  11.637   5.429   8.740
  108POPC   C2B 6224  11.764   5.174   8.382
  108POPC   C3B 6225  11.647   5.232   7.963
  108POPC   C4B 6226  11.719   5.355   7.537
  109POPC   NC3 6227   3.969  41.067   9.382
  109POPC   PO4 6228   3.695  40.520   9.537
  109POPC   GL1 6229   3.558  40.697   9.167
  109POPC   GL2 6230   3.851  40.760   8.959
  109POPC   C1A 6231   3.441  40.490   8.777
  109POPC   D2A 6232   3.528  40.652   8.369
  109POPC   C3A 6233   3.191  40.612   8.097
  109POPC   C4A 6234   3.391  40.495   7.715
  109POPC   C1B 6235   3.472  41.004   8.756
  109POPC   C2B 6236   3.339  41.104   8.332
  109POPC   C3B 6237   3.435  41.001   7.894
  109POPC   C4B 6238   3.237  41.129   7.503
  110POPC   NC3 6239  11.549  38.400   9.493
  110POPC   PO4 6240  10.925  38.591   9.590
  110POPC   GL1 6241  11.093  38.407   9.213
  110POPC   GL2 6242  11.306  38.700   9.179
  110POPC   C1A 6243  11.263  38.307   8.796
  110POPC   D2A 6244  11.432  38.460   8.363
  110POPC   C3A 6245  11.382  38.165   8.009
  110POPC   C4A 6246  11.217  38.289   7.608
  110POPC   C1B 6247  11.452  38.808   8.789
  110POPC   C2B 6248  11.242  39.024   8.440
  110POPC   C3B 6249  11.004  38.883   8.102
  110POPC   C4B 6250  11.052  38.748   7.718
  111POPC   NC3 6251   4.108  27.064   9.508
  111POPC   PO4 6252   4.626  26.590   9.652
  111POPC   GL1 6253   4.412  26.816   9.222
  111POPC   GL2 6254   4.466  27.084   9.104
  111POPC   C1A 6255   4.155  26.762   8.810
  111POPC   D2A 6256   4.194  26.930   8.352
  111POPC   C3A 6257   4.184  26.679   7.980
  111POPC   C4A 6258   4.553  26.462   7.796
  111POPC   C1B 6259   4.541  27.126   8.703
  111POPC   C2B 6260   4.671  27.203   8.297
  111POPC   C3B 6261   4.562  27.021   7.905
  111POPC   C4B 6262   4.129  27.167   7.799
  112POPC   NC3 6263  22.803  38.398   9.722
  112POPC   PO4 6264  23.448  38.681   9.671
  112POPC   GL1 6265  23.299  38.644   9.191
  112POPC   GL2 6266  23.045  38.361   9.139
  112POPC   C1A 6267  23.048  38.688   8.760
  112POPC   D2A 6268  23.048  38.422   8.389
  112POPC   C3A 6269  22.802  38.529   8.020
  112POPC   C4A 6270  22.714  38.898   7.781
  112POPC   C1B 6271  22.799  38.169   8.768
  112POPC   C2B 6272  22.571  38.165   8.341
  112POPC   C3B 6273  22.571  38.091   7.885
  112POPC   C4B 6274  22.468  38.459   7.613
  113POPC   NC3 6275  14.029  14.466   9.653
  113POPC   PO4 6276  13.471  14.453   9.594
  113POPC   GL1 6277  13.387  14.507   9.139
  113POPC   GL2 6278  13.619  14.269   9.044
  113POPC   C1A 6279  13.490  14.612   8.667
  113POPC   D2A 6280  13.547  14.457   8.211
  113POPC   C3A 6281  13.379  14.619   7.789
  113POPC   C4A 6282  13.241  15.030   7.647
  113POPC   C1B 6283  13.237  14.179   8.774
  113POPC   C2B 6284  13.143  14.133   8.329
  113POPC   C3B 6285  13.370  14.065   7.947
  113POPC   C4B 6286  13.716  14.263   7.716
  114POPC   NC3 6287   8.505  42.826   9.470
  114POPC   PO4 6288   8.058  43.319   9.499
  114POPC   GL1 6289   8.345  43.234   9.159
  114POPC   GL2 6290   8.612  43.461   9.046
  114POPC   C1A 6291   8.137  43.105   8.786
  114POPC   D2A 6292   8.072  43.292   8.414
  114POPC   C3A 6293   7.972  43.025   8.108
  114POPC   C4A 6294   8.065  43.095   7.721
  114POPC   C1B 6295   8.561  43.350   8.624
  114POPC   C2B 6296   8.485  42.993   8.344
  114POPC   C3B 6297   8.482  42.861   7.914
  114POPC   C4B 6298   8.579  43.216   7.611
  115POPC   NC3 6299  11.070   3.956   9.079
  115POPC   PO4 6300  11.155   4.496   9.465
  115POPC   GL1 6301  11.352   4.422   9.112
  115POPC   GL2 6302  11.686   4.518   9.202
  115POPC   C1A 6303  11.174   4.504   8.717
  115POPC   D2A 6304  11.217   4.645   8.311
  115POPC   C3A 6305  11.000   4.448   7.972
  115POPC   C4A 6306  11.152   4.053   7.805
  115POPC   C1B 6307  11.752   4.607   8.767
  115POPC   C2B 6308  11.742   4.336   8.384
  115POPC   C3B 6309  11.623   4.268   7.940
  115POPC   C4B 6310  11.390   4.480   7.618
  116POPC   NC3 6311  20.539  30.107   9.582
  116POPC   PO4 6312  21.136  29.868   9.408
  116POPC   GL1 6313  20.951  30.094   9.114
  116POPC   GL2 6314  20.577  30.062   9.076
  116POPC   C1A 6315  20.925  30.028   8.683
  116POPC   D2A 6316  20.963  29.705   8.393
  116POPC   C3A 6317  20.897  29.928   8.014
  116POPC   C4A 6318  20.830  29.715   7.643
  116POPC   C1B 6319  20.403  30.158   8.678
  116POPC   C2B 6320  20.496  29.910   8.358
  116POPC   C3B 6321  20.400  29.820   7.946
  116POPC   C4B 6322  20.336  29.946   7.533
  117POPC   NC3 6323   0.101  10.203   9.436
  117POPC   PO4 6324   0.686  10.377   9.428
  117POPC   GL1 6325   0.471  10.711   9.253
  117POPC   GL2 6326   0.734  10.884   9.078
  117POPC   C1A 6327   0.268  10.740   8.859
  117POPC   D2A 6328   0.481  10.717   8.489
  117POPC   C3A 6329   0.301  10.461   8.164
  117POPC   C4A 6330   0.170  10.312   7.778
  117POPC   C1B 6331   0.859  10.536   8.806
  117POPC   C2B 6332   0.997  10.631   8.399
  117POPC   C3B 6333   0.753  10.697   8.052
  117POPC   C4B 6334   0.702  10.518   7.675
  118POPC   NC3 6335  13.319  31.718   9.495
  118POPC   PO4 6336  13.609  32.313   9.422
  118POPC   GL1 6337  13.558  32.092   9.057
  118POPC   GL2 6338  13.224  31.982   9.059
  118POPC   C1A 6339  13.793  32.158   8.668
  118POPC   D2A 6340  13.959  31.928   8.289
  118POPC   C3A 6341  13.760  32.166   7.967
  118POPC   C4A 6342  13.905  32.539   7.772
  118POPC   C1B 6343  13.102  32.106   8.630
  118POPC   C2B 6344  13.287  32.192   8.217
  118POPC   C3B 6345  13.389  32.538   7.916
  118POPC   C4B 6346  13.495  32.378   7.511
  119POPC   NC3 6347  30.539  44.852   9.643
  119POPC   PO4 6348  31.053  44.373   9.701
  119POPC   GL1 6349  30.886  44.586   9.246
  119POPC   GL2 6350  30.559  44.690   9.175
  119POPC   C1A 6351  30.883  44.758   8.784
  119POPC   D2A 6352  30.957  44.884   8.316
  119POPC   C3A 6353  31.018  44.540   8.009
  119POPC   C4A 6354  30.768  44.481   7.681
  119POPC   C1B 6355  30.338  44.806   8.827
  119POPC   C2B 6356  30.262  44.806   8.408
  119POPC   C3B 6357  30.494  44.743   8.052
  119POPC   C4B 6358  30.342  44.791   7.656
  120POPC   NC3 6359  43.972  36.064   9.437
  120POPC   PO4 6360  44.029  36.675   9.452
  120POPC   GL1 6361  44.065  36.432   9.061
  120POPC   GL2 6362  43.738  36.373   9.074
  120POPC   C1A 6363  44.001  36.096   8.692
  120POPC   D2A 6364  44.021  35.839   8.270
  120POPC   C3A 6365  43.842  36.023   7.874
  120POPC   C4A 6366  43.642  36.439   7.865
  120POPC   C1B 6367  43.497  36.147   8.788
  120POPC   C2B 6368  43.513  36.317   8.400
  120POPC   C3B 6369  43.367  36.076   8.119
  120POPC   C4B 6370  43.345  36.066   7.699
  121POPC   NC3 6371  38.148  33.619   9.639
  121POPC   PO4 6372  37.592  34.007   9.471
  121POPC   GL1 6373  37.668  33.887   9.079
  121POPC   GL2 6374  37.640  33.522   9.046
  121POPC   C1A 6375  37.530  33.912   8.666
  121POPC   D2A 6376  37.367  33.775   8.265
  121POPC   C3A 6377  37.600  33.910   7.891
  121POPC   C4A 6378  37.804  34.118   7.532
  121POPC   C1B 6379  37.762  33.460   8.598
  121POPC   C2B 6380  37.806  33.501   8.158
  121POPC   C3B 6381  37.549  33.403   7.814
  121POPC   C4B 6382  37.118  33.495   7.854
  122POPC   NC3 6383  36.662  23.846   9.543
  122POPC   PO4 6384  37.136  23.399   9.444
  122POPC   GL1 6385  36.897  23.532   9.119
  122POPC   GL2 6386  36.574  23.617   9.081
  122POPC   C1A 6387  37.048  23.699   8.725
  122POPC   D2A 6388  37.047  23.952   8.366
  122POPC   C3A 6389  37.140  23.729   8.018
  122POPC   C4A 6390  37.062  23.881   7.592
  122POPC   C1B 6391  36.614  23.405   8.690
  122POPC   C2B 6392  36.773  23.487   8.284
  122POPC   C3B 6393  36.677  23.635   7.854
  122POPC   C4B 6394  36.735  23.562   7.401
  123POPC   NC3 6395   2.830   5.540   9.608
  123POPC   PO4 6396   2.764   4.817   9.657
  123POPC   GL1 6397   2.639   5.101   9.307
  123POPC   GL2 6398   2.985   5.196   9.237
  123POPC   C1A 6399   2.653   5.251   8.862
  123POPC   D2A 6400   2.914   5.150   8.494
  123POPC   C3A 6401   2.724   5.001   8.113
  123POPC   C4A 6402   2.599   5.153   7.695
  123POPC   C1B 6403   3.156   4.909   8.906
  123POPC   C2B 6404   3.119   4.670   8.500
  123POPC   C3B 6405   2.994   4.572   8.038
  123POPC   C4B 6406   3.124   4.600   7.587
  124POPC   NC3 6407  11.516  24.352   9.439
  124POPC   PO4 6408  10.878  24.439   9.148
  124POPC   GL1 6409  11.301  24.571   9.029
  124POPC   GL2 6410  11.622  24.335   8.954
  124POPC   C1A 6411  11.463  24.697   8.617
  124POPC   D2A 6412  11.400  24.456   8.231
  124POPC   C3A 6413  11.468  24.532   7.782
  124POPC   C4A 6414  11.211  24.640   7.420
  124POPC   C1B 6415  11.342  24.147   8.716
  124POPC   C2B 6416  11.353  23.947   8.344
  124POPC   C3B 6417  11.137  24.090   7.995
  124POPC   C4B 6418  11.079  24.207   7.619
  125POPC   NC3 6419  24.929  23.203   9.482
  125POPC   PO4 6420  25.495  22.913   9.549
  125POPC   GL1 6421  25.330  22.878   9.140
  125POPC   GL2 6422  25.021  22.845   9.153
  125POPC   C1A 6423  25.409  22.861   8.723
  125POPC   D2A 6424  25.573  22.691   8.366
  125POPC   C3A 6425  25.493  22.875   8.017
  125POPC   C4A 6426  25.249  22.780   7.674
  125POPC   C1B 6427  24.901  23.047   8.821
  125POPC   C2B 6428  24.976  22.896   8.411
  125POPC   C3B 6429  25.037  23.091   8.032
  125POPC   C4B 6430  24.880  23.120   7.585
  126POPC   NC3 6431  36.526  26.255   9.505
  126POPC   PO4 6432  37.033  25.688   9.478
  126POPC   GL1 6433  36.756  25.781   9.139
  126POPC   GL2 6434  36.651  26.107   9.054
  126POPC   C1A 6435  36.972  25.902   8.731
  126POPC   D2A 6436  36.877  26.060   8.338
  126POPC   C3A 6437  37.168  26.145   8.041
  126POPC   C4A 6438  36.934  26.062   7.689
  126POPC   C1B 6439  36.762  26.387   8.745
  126POPC   C2B 6440  36.968  26.552   8.425
  126POPC   C3B 6441  36.842  26.570   7.986
  126POPC   C4B 6442  36.737  26.535   7.539
  127POPC   NC3 6443   0.860  13.198   9.515
  127POPC   PO4 6444   1.348  13.761   9.470
  127POPC   GL1 6445   1.277  13.577   9.080
  127POPC   GL2 6446   0.929  13.447   8.986
  127POPC   C1A 6447   1.378  13.527   8.668
  127POPC   D2A 6448   1.053  13.592   8.407
  127POPC   C3A 6449   1.170  13.506   8.051
  127POPC   C4A 6450   1.558  13.560   7.810
  127POPC   C1B 6451   1.029  13.136   8.624
  127POPC   C2B 6452   1.263  13.022   8.268
  127POPC   C3B 6453   1.365  13.090   7.849
  127POPC   C4B 6454   1.121  13.373   7.570
  128POPC   NC3 6455  24.373   2.472   9.516
  128POPC   PO4 6456  24.615   1.883   9.531
  128POPC   GL1 6457  24.373   1.947   9.105
  128POPC   GL2 6458  24.441   2.257   8.977
  128POPC   C1A 6459  24.236   1.936   8.644
  128POPC   D2A 6460  24.504   2.064   8.281
  128POPC   C3A 6461  24.328   1.842   7.912
  128POPC   C4A 6462  24.299   1.781   7.457
  128POPC   C1B 6463  24.667   2.542   8.682
  128POPC   C2B 6464  24.830   2.539   8.256
  128POPC   C3B 6465  24.730   2.421   7.863
  128POPC   C4B 6466  24.703   2.045   7.641
  129POPC   NC3 6467  26.290  37.244   9.287
  129POPC   PO4 6468  25.921  36.732   9.536
  129POPC   GL1 6469  25.921  36.916   9.151
  129POPC   GL2 6470  25.813  37.314   9.144
  129POPC   C1A 6471  26.171  36.796   8.772
  129POPC   D2A 6472  26.410  36.708   8.400
  129POPC   C3A 6473  26.180  36.767   8.022
  129POPC   C4A 6474  26.149  36.852   7.586
  129POPC   C1B 6475  25.786  37.132   8.728
  129POPC   C2B 6476  25.897  37.120   8.294
  129POPC   C3B 6477  25.807  37.118   7.847
  129POPC   C4B 6478  25.614  36.963   7.461
  130POPC   NC3 6479  36.541   8.073   9.379
  130POPC   PO4 6480  36.067   8.453   9.541
  130POPC   GL1 6481  36.137   8.273   9.151
  130POPC   GL2 6482  35.954   7.997   9.084
  130POPC   C1A 6483  36.407   8.290   8.777
  130POPC   D2A 6484  36.548   8.059   8.412
  130POPC   C3A 6485  36.263   8.044   8.065
  130POPC   C4A 6486  36.336   8.255   7.679
  130POPC   C1B 6487  35.754   7.874   8.739
  130POPC   C2B 6488  35.800   8.099   8.369
  130POPC   C3B 6489  35.684   8.503   8.232
  130POPC   C4B 6490  35.865   8.348   7.851
  131POPC   NC3 6491  14.740  10.261   9.438
  131POPC   PO4 6492  14.183  10.449   9.591
  131POPC   GL1 6493  14.245  10.464   9.178
  131POPC   GL2 6494  14.570  10.609   9.093
  131POPC   C1A 6495  14.088  10.689   8.846
  131POPC   D2A 6496  14.008  10.638   8.441
  131POPC   C3A 6497  14.238  10.799   8.111
  131POPC   C4A 6498  14.090  10.560   7.823
  131POPC   C1B 6499  14.579  10.336   8.752
  131POPC   C2B 6500  14.412  10.334   8.344
  131POPC   C3B 6501  14.556  10.380   7.947
  131POPC   C4B 6502  14.854  10.402   7.640
  132POPC   NC3 6503  12.034  35.222   9.665
  132POPC   PO4 6504  12.480  34.872   9.491
  132POPC   GL1 6505  12.342  35.319   9.250
  132POPC   GL2 6506  11.996  35.310   9.155
  132POPC   C1A 6507  12.257  35.586   8.837
  132POPC   D2A 6508  12.083  35.455   8.415
  132POPC   C3A 6509  12.092  35.494   7.963
  132POPC   C4A 6510  12.184  35.148   7.626
  132POPC   C1B 6511  11.953  35.116   8.765
  132POPC   C2B 6512  11.692  35.104   8.395
  132POPC   C3B 6513  11.791  35.069   7.933
  132POPC   C4B 6514  11.704  35.220   7.498
  133POPC   NC3 6515  25.880  27.206   9.218
  133POPC   PO4 6516  26.016  27.707   9.646
  133POPC   GL1 6517  25.939  27.753   9.209
  133POPC   GL2 6518  26.267  27.907   9.190
  133POPC   C1A 6519  25.804  27.707   8.754
  133POPC   D2A 6520  25.967  27.431   8.420
  133POPC   C3A 6521  25.763  27.479   8.018
  133POPC   C4A 6522  25.757  27.289   7.576
  133POPC   C1B 6523  26.291  27.649   8.841
  133POPC   C2B 6524  26.447  27.634   8.459
  133POPC   C3B 6525  26.371  27.617   8.047
  133POPC   C4B 6526  26.171  27.533   7.694
  134POPC   NC3 6527   2.868  25.619   9.437
  134POPC   PO4 6528   2.668  24.940   9.476
  134POPC   GL1 6529   2.784  25.212   9.127
  134POPC   GL2 6530   2.544  25.495   9.037
  134POPC   C1A 6531   2.912  25.314   8.705
  134POPC   D2A 6532   2.658  25.283   8.323
  134POPC   C3A 6533   2.831  25.206   7.940
  134POPC   C4A 6534   2.957  25.512   7.666
  134POPC   C1B 6535   2.418  25.138   8.756
  134POPC   C2B 6536   2.229  24.981   8.360
  134POPC   C3B 6537   2.316  25.004   7.911
  134POPC   C4B 6538   2.488  25.264   7.579
  135POPC   NC3 6539  14.963  37.202   9.564
  135POPC   PO4 6540  15.600  37.125   9.531
  135POPC   GL1 6541  15.345  37.208   9.165
  135POPC   GL2 6542  15.061  37.380   9.102
  135POPC   C1A 6543  15.251  37.039   8.747
  135POPC   D2A 6544  15.390  36.893   8.356
  135POPC   C3A 6545  15.315  36.683   7.973
  135POPC   C4A 6546  15.387  36.845   7.576
  135POPC   C1B 6547  14.910  37.498   8.711
  135POPC   C2B 6548  15.041  37.288   8.335
  135POPC   C3B 6549  15.214  37.189   7.936
  135POPC   C4B 6550  15.020  37.236   7.533
  136POPC   NC3 6551  29.465   1.664   9.557
  136POPC   PO4 6552  30.138   1.755   9.517
  136POPC   GL1 6553  29.799   1.828   9.184
  136POPC   GL2 6554  29.654   2.172   9.037
  136POPC   C1A 6555  29.890   1.780   8.754
  136POPC   D2A 6556  29.790   2.023   8.420
  136POPC   C3A 6557  29.773   1.814   8.037
  136POPC   C4A 6558  29.624   1.603   7.687
  136POPC   C1B 6559  29.953   2.395   8.749
  136POPC   C2B 6560  30.177   2.380   8.347
  136POPC   C3B 6561  30.075   2.308   7.917
  136POPC   C4B 6562  30.046   2.376   7.469
  137POPC   NC3 6563  35.815  25.258   9.674
  137POPC   PO4 6564  35.310  25.589   9.631
  137POPC   GL1 6565  35.443  25.297   9.259
  137POPC   GL2 6566  35.155  25.087   9.238
  137POPC   C1A 6567  35.617  25.153   8.799
  137POPC   D2A 6568  35.764  25.344   8.402
  137POPC   C3A 6569  35.716  25.110   8.027
  137POPC   C4A 6570  35.532  25.197   7.660
  137POPC   C1B 6571  35.133  25.310   8.846
  137POPC   C2B 6572  34.991  25.187   8.456
  137POPC   C3B 6573  35.155  25.199   8.032
  137POPC   C4B 6574  35.064  24.982   7.656
  138POPC   NC3 6575  20.247  33.071   9.475
  138POPC   PO4 6576  19.623  32.865   9.508
  138POPC   GL1 6577  19.852  33.014   9.145
  138POPC   GL2 6578  19.953  33.366   9.191
  138POPC   C1A 6579  19.788  32.936   8.710
  138POPC   D2A 6580  19.969  32.939   8.293
  138POPC   C3A 6581  19.653  32.962   7.957
  138POPC   C4A 6582  19.651  32.771   7.538
  138POPC   C1B 6583  19.749  33.438   8.845
  138POPC   C2B 6584  19.833  33.410   8.426
  138POPC   C3B 6585  19.785  33.448   7.983
  138POPC   C4B 6586  19.814  33.271   7.558
  139POPC   NC3 6587  27.735  39.017   9.474
  139POPC   PO4 6588  27.607  39.679   9.427
  139POPC   GL1 6589  27.565  39.390   9.072
  139POPC   GL2 6590  27.380  39.057   9.122
  139POPC   C1A 6591  27.695  39.420   8.638
  139POPC   D2A 6592  27.517  39.253   8.267
  139POPC   C3A 6593  27.750  39.294   7.858
  139POPC   C4A 6594  27.804  39.480   7.416
  139POPC   C1B 6595  27.704  38.923   8.791
  139POPC   C2B 6596  27.891  38.922   8.359
  139POPC   C3B 6597  27.624  38.828   7.996
  139POPC   C4B 6598  27.231  39.027   7.903
  140POPC   NC3 6599  39.510  29.155   9.544
  140POPC   PO4 6600  39.071  28.700   9.395
  140POPC   GL1 6601  39.277  28.909   9.049
  140POPC   GL2 6602  39.193  29.227   9.121
  140POPC   C1A 6603  39.311  29.123   8.630
  140POPC   D2A 6604  39.047  29.327   8.318
  140POPC   C3A 6605  39.210  29.147   7.957
  140POPC   C4A 6606  39.185  28.711   7.841
  140POPC   C1B 6607  38.846  29.102   8.843
  140POPC   C2B 6608  38.628  29.068   8.487
  140POPC   C3B 6609  38.746  28.957   8.077
  140POPC   C4B 6610  38.652  28.672   7.790
  141POPC   NC3 6611  31.759  33.048   9.458
  141POPC   PO4 6612  31.209  32.776   9.532
  141POPC   GL1 6613  31.304  32.878   9.101
  141POPC   GL2 6614  31.137  32.657   8.885
  141POPC   C1A 6615  31.481  33.101   8.731
  141POPC   D2A 6616  31.577  33.022   8.332
  141POPC   C3A 6617  31.272  33.142   8.004
  141POPC   C4A 6618  31.583  33.165   7.699
  141POPC   C1B 6619  31.123  32.841   8.489
  141POPC   C2B 6620  31.287  32.655   8.147
  141POPC   C3B 6621  31.359  32.658   7.734
  141POPC   C4B 6622  31.255  32.899   7.423
  142POPC   NC3 6623  14.500  25.885   9.345
  142POPC   PO4 6624  13.764  25.850   9.331
  142POPC   GL1 6625  14.134  25.927   9.015
  142POPC   GL2 6626  14.276  26.246   9.038
  142POPC   C1A 6627  14.260  26.040   8.570
  142POPC   D2A 6628  14.369  26.399   8.292
  142POPC   C3A 6629  14.187  26.258   7.936
  142POPC   C4A 6630  14.267  25.809   7.900
  142POPC   C1B 6631  14.657  26.315   8.754
  142POPC   C2B 6632  14.789  26.119   8.361
  142POPC   C3B 6633  14.688  26.104   7.922
  142POPC   C4B 6634  14.925  26.254   7.580
  143POPC   NC3 6635   1.847  23.891   9.687
  143POPC   PO4 6636   2.062  24.543   9.686
  143POPC   GL1 6637   2.144  24.594   9.190
  143POPC   GL2 6638   1.941  24.335   8.972
  143POPC   C1A 6639   2.295  24.632   8.766
  143POPC   D2A 6640   1.978  24.510   8.458
  143POPC   C3A 6641   2.090  24.552   8.059
  143POPC   C4A 6642   2.042  24.613   7.649
  143POPC   C1B 6643   2.226  24.111   8.724
  143POPC   C2B 6644   2.446  24.283   8.375
  143POPC   C3B 6645   2.496  24.213   7.952
  143POPC   C4B 6646   2.182  24.125   7.668
  144POPC   NC3 6647  25.977  37.963   9.568
  144POPC   PO4 6648  26.387  38.547   9.519
  144POPC   GL1 6649  26.072  38.499   9.188
  144POPC   GL2 6650  25.857  38.214   9.162
  144POPC   C1A 6651  25.861  38.604   8.801
  144POPC   D2A 6652  26.049  38.808   8.471
  144POPC   C3A 6653  25.966  38.646   8.086
  144POPC   C4A 6654  26.139  38.880   7.780
  144POPC   C1B 6655  26.004  38.097   8.766
  144POPC   C2B 6656  25.913  38.242   8.394
  144POPC   C3B 6657  25.936  38.083   7.996
  144POPC   C4B 6658  26.019  38.106   7.551
  145POPC   NC3 6659  36.169  10.161   9.526
  145POPC   PO4 6660  36.203  10.794   9.701
  145POPC   GL1 6661  36.288  10.676   9.259
  145POPC   GL2 6662  36.062  10.442   9.136
  145POPC   C1A 6663  36.198  10.784   8.799
  145POPC   D2A 6664  36.081  10.590   8.378
  145POPC   C3A 6665  36.185  10.794   7.978
  145POPC   C4A 6666  36.187  10.760   7.477
  145POPC   C1B 6667  36.228  10.259   8.764
  145POPC   C2B 6668  36.382  10.081   8.383
  145POPC   C3B 6669  36.374  10.297   8.014
  145POPC   C4B 6670  36.337  10.235   7.568
  146POPC   NC3 6671  26.557   2.563   9.372
  146POPC   PO4 6672  27.197   2.820   9.471
  146POPC   GL1 6673  27.038   2.909   9.059
  146POPC   GL2 6674  26.748   3.087   9.141
  146POPC   C1A 6675  26.746   2.701   8.751
  146POPC   D2A 6676  26.766   2.579   8.316
  146POPC   C3A 6677  26.469   2.679   7.975
  146POPC   C4A 6678  26.754   2.598   7.642
  146POPC   C1B 6679  26.644   3.192   8.709
  146POPC   C2B 6680  26.628   3.098   8.263
  146POPC   C3B 6681  26.803   3.056   7.846
  146POPC   C4B 6682  26.740   3.012   7.348
  147POPC   NC3 6683  23.269  40.736   9.484
  147POPC   PO4 6684  23.888  41.054   9.467
  147POPC   GL1 6685  23.807  40.849   9.130
  147POPC   GL2 6686  23.468  40.943   9.071
  147POPC   C1A 6687  23.760  40.746   8.725
  147POPC   D2A 6688  23.535  40.650   8.368
  147POPC   C3A 6689  23.703  40.729   7.959
  147POPC   C4A 6690  23.734  40.888   7.538
  147POPC   C1B 6691  23.279  40.563   8.827
  147POPC   C2B 6692  23.250  40.227   8.474
  147POPC   C3B 6693  23.377  40.319   8.009
  147POPC   C4B 6694  23.592  40.398   7.575
  148POPC   NC3 6695  44.572  41.084   9.447
  148POPC   PO4 6696  44.820  40.396   9.557
  148POPC   GL1 6697  44.789  40.486   9.086
  148POPC   GL2 6698  44.513  40.708   9.073
  148POPC   C1A 6699  44.803  40.630   8.638
  148POPC   D2A 6700  44.648  40.919   8.320
  148POPC   C3A 6701  44.774  40.957   7.914
  148POPC   C4A 6702   0.034  40.821   7.622
  148POPC   C1B 6703  44.332  40.871   8.725
  148POPC   C2B 6704  44.162  41.049   8.368
  148POPC   C3B 6705  44.269  40.914   7.933
  148POPC   C4B 6706  44.493  40.655   7.610
  149POPC   NC3 6707  19.986  22.404   9.807
  149POPC   PO4 6708  19.913  23.124   9.633
  149POPC   GL1 6709  20.092  22.923   9.266
  149POPC   GL2 6710  19.954  22.669   9.028
  149POPC   C1A 6711  20.178  23.082   8.834
  149POPC   D2A 6712  19.951  22.862   8.493
  149POPC   C3A 6713  19.973  23.016   8.075
  149POPC   C4A 6714  19.962  22.891   7.646
  149POPC   C1B 6715  19.558  22.725   8.777
  149POPC   C2B 6716  19.393  22.835   8.345
  149POPC   C3B 6717  19.513  22.803   7.903
  149POPC   C4B 6718  19.522  23.080   7.509
  150POPC   NC3 6719   1.003  29.428   9.513
  150POPC   PO4 6720   0.762  30.117   9.428
  150POPC   GL1 6721   0.854  29.919   9.039
  150POPC   GL2 6722   1.186  29.866   9.136
  150POPC   C1A 6723   0.977  29.629   8.689
  150POPC   D2A 6724   1.131  29.576   8.301
  150POPC   C3A 6725   0.905  29.811   8.033
  150POPC   C4A 6726   1.091  30.045   7.769
  150POPC   C1B 6727   1.536  29.688   8.933
  150POPC   C2B 6728   1.587  29.758   8.501
  150POPC   C3B 6729   1.576  29.725   8.058
  150POPC   C4B 6730   1.604  30.034   7.735
  151POPC   NC3 6731  24.309  38.718   9.333
  151POPC   PO4 6732  24.710  38.128   9.521
  151POPC   GL1 6733  24.626  38.314   9.151
  151POPC   GL2 6734  24.781  38.630   9.182
  151POPC   C1A 6735  24.502  38.286   8.734
  151POPC   D2A 6736  24.280  38.399   8.372
  151POPC   C3A 6737  24.522  38.436   8.075
  151POPC   C4A 6738  24.359  38.262   7.775
  151POPC   C1B 6739  24.660  38.848   8.793
  151POPC   C2B 6740  24.470  38.868   8.395
  151POPC   C3B 6741  24.635  38.922   7.994
  151POPC   C4B 6742  24.723  38.659   7.626
  152POPC   NC3 6743  33.344  28.897   9.330
  152POPC   PO4 6744  33.848  29.252   9.645
  152POPC   GL1 6745  33.763  29.249   9.216
  152POPC   GL2 6746  34.033  28.996   9.131
  152POPC   C1A 6747  33.959  29.391   8.826
  152POPC   D2A 6748  34.099  29.130   8.479
  152POPC   C3A 6749  33.997  29.295   8.081
  152POPC   C4A 6750  33.901  29.311   7.637
  152POPC   C1B 6751  33.727  28.898   8.770
  152POPC   C2B 6752  33.604  29.041   8.329
  152POPC   C3B 6753  33.718  28.913   7.899
  152POPC   C4B 6754  33.716  28.826   7.432
  153POPC   NC3 6755  32.099  44.227   9.402
  153POPC   PO4 6756  32.369  44.831   9.355
  153POPC   GL1 6757  32.086  44.808   9.053
  153POPC   GL2 6758  32.210  44.506   8.952
  153POPC   C1A 6759  32.009  44.977   8.664
  153POPC   D2A 6760  31.889  44.816   8.275
  153POPC   C3A 6761  32.158  44.693   7.955
  153POPC   C4A 6762  32.286   0.002   7.668
  153POPC   C1B 6763  32.066  44.215   8.657
  153POPC   C2B 6764  31.927  44.285   8.258
  153POPC   C3B 6765  32.000  44.142   7.865
  153POPC   C4B 6766  31.979  44.413   7.494
  154POPC   NC3 6767  11.434  18.170   9.430
  154POPC   PO4 6768  10.970  18.678   9.396
  154POPC   GL1 6769  11.230  18.478   9.078
  154POPC   GL2 6770  11.557  18.627   8.990
  154POPC   C1A 6771  11.252  18.087   8.813
  154POPC   D2A 6772  11.083  17.932   8.421
  154POPC   C3A 6773  11.314  17.951   8.028
  154POPC   C4A 6774  11.147  17.996   7.646
  154POPC   C1B 6775  11.320  18.534   8.583
  154POPC   C2B 6776  11.156  18.408   8.199
  154POPC   C3B 6777  11.338  18.462   7.812
  154POPC   C4B 6778  11.728  18.652   7.664
  155POPC   NC3 6779  29.905  16.215   9.471
  155POPC   PO4 6780  29.755  15.523   9.548
  155POPC   GL1 6781  29.904  15.749   9.190
  155POPC   GL2 6782  29.644  15.981   9.111
  155POPC   C1A 6783  29.979  15.804   8.735
  155POPC   D2A 6784  29.803  15.998   8.349
  155POPC   C3A 6785  29.973  15.855   7.956
  155POPC   C4A 6786  30.348  15.696   7.785
  155POPC   C1B 6787  29.506  16.178   8.733
  155POPC   C2B 6788  29.580  16.489   8.437
  155POPC   C3B 6789  29.593  16.374   8.024
  155POPC   C4B 6790  29.668  16.150   7.667
  156POPC   NC3 6791  14.577   8.604   9.384
  156POPC   PO4 6792  14.585   7.940   9.330
  156POPC   GL1 6793  14.513   8.219   9.017
  156POPC   GL2 6794  14.743   8.502   8.927
  156POPC   C1A 6795  14.469   8.151   8.590
  156POPC   D2A 6796  14.467   8.398   8.220
  156POPC   C3A 6797  14.413   8.133   7.893
  156POPC   C4A 6798  14.312   8.091   7.488
  156POPC   C1B 6799  14.739   8.755   8.570
  156POPC   C2B 6800  14.904   8.657   8.163
  156POPC   C3B 6801  14.749   8.517   7.736
  156POPC   C4B 6802  14.628   8.445   7.258
  157POPC   NC3 6803  36.182   2.183   9.518
  157POPC   PO4 6804  35.515   2.037   9.694
  157POPC   GL1 6805  35.770   2.090   9.154
  157POPC   GL2 6806  36.071   2.230   9.042
  157POPC   C1A 6807  35.858   1.998   8.672
  157POPC   D2A 6808  36.076   1.755   8.323
  157POPC   C3A 6809  36.201   2.009   7.970
  157POPC   C4A 6810  36.078   2.020   7.523
  157POPC   C1B 6811  36.369   2.360   8.759
  157POPC   C2B 6812  36.516   2.181   8.380
  157POPC   C3B 6813  36.511   2.403   8.043
  157POPC   C4B 6814  36.262   2.446   7.694
  158POPC   NC3 6815  28.673   6.855   9.477
  158POPC   PO4 6816  28.337   6.302   9.374
  158POPC   GL1 6817  28.413   6.631   9.107
  158POPC   GL2 6818  28.244   6.949   9.218
  158POPC   C1A 6819  28.576   6.726   8.728
  158POPC   D2A 6820  28.344   6.669   8.363
  158POPC   C3A 6821  28.578   6.589   8.027
  158POPC   C4A 6822  28.442   6.700   7.633
  158POPC   C1B 6823  28.289   7.139   8.805
  158POPC   C2B 6824  28.501   7.164   8.426
  158POPC   C3B 6825  28.402   7.069   8.003
  158POPC   C4B 6826  28.419   7.201   7.576
  159POPC   NC3 6827  41.290  28.020   9.381
  159POPC   PO4 6828  41.548  28.664   9.532
  159POPC   GL1 6829  41.576  28.399   9.199
  159POPC   GL2 6830  41.253  28.468   9.073
  159POPC   C1A 6831  41.715  28.238   8.829
  159POPC   D2A 6832  41.849  28.414   8.464
  159POPC   C3A 6833  41.794  28.186   8.107
  159POPC   C4A 6834  41.788  28.315   7.688
  159POPC   C1B 6835  41.266  28.339   8.643
  159POPC   C2B 6836  41.170  28.178   8.231
  159POPC   C3B 6837  41.230  28.411   7.857
  159POPC   C4B 6838  41.334  28.578   7.477
  160POPC   NC3 6839  16.145   3.458   9.624
  160POPC   PO4 6840  15.488   3.222   9.640
  160POPC   GL1 6841  15.691   3.482   9.310
  160POPC   GL2 6842  15.983   3.319   9.162
  160POPC   C1A 6843  15.683   3.607   8.860
  160POPC   D2A 6844  15.860   3.476   8.440
  160POPC   C3A 6845  15.779   3.650   7.966
  160POPC   C4A 6846  15.815   3.605   7.474
  160POPC   C1B 6847  16.394   3.308   8.939
  160POPC   C2B 6848  16.437   3.373   8.490
  160POPC   C3B 6849  16.222   3.428   8.096
  160POPC   C4B 6850  16.041   3.237   7.735
  161POPC   NC3 6851   9.605  42.181   9.535
  161POPC   PO4 6852  10.094  42.633   9.709
  161POPC   GL1 6853  10.004  42.335   9.169
  161POPC   GL2 6854   9.605  42.288   9.060
  161POPC   C1A 6855   9.845  42.421   8.666
  161POPC   D2A 6856   9.728  42.653   8.280
  161POPC   C3A 6857   9.702  42.297   8.039
  161POPC   C4A 6858   9.964  42.236   7.711
  161POPC   C1B 6859   9.434  41.977   8.861
  161POPC   C2B 6860   9.543  41.932   8.440
  161POPC   C3B 6861   9.298  41.994   8.060
  161POPC   C4B 6862   9.452  42.009   7.643
  162POPC   NC3 6863   2.255  12.821   9.509
  162POPC   PO4 6864   1.583  12.829   9.573
  162POPC   GL1 6865   1.835  12.823   9.177
  162POPC   GL2 6866   2.098  12.514   9.155
  162POPC   C1A 6867   1.816  13.091   8.788
  162POPC   D2A 6868   1.711  13.226   8.355
  162POPC   C3A 6869   1.893  12.987   8.016
  162POPC   C4A 6870   2.312  12.988   7.840
  162POPC   C1B 6871   2.172  12.697   8.765
  162POPC   C2B 6872   2.263  12.771   8.341
  162POPC   C3B 6873   2.171  12.522   7.995
  162POPC   C4B 6874   2.022  12.617   7.615
  163POPC   NC3 6875  34.046  21.825   9.954
  163POPC   PO4 6876  33.607  22.097   9.542
  163POPC   GL1 6877  33.764  21.997   9.153
  163POPC   GL2 6878  34.000  21.765   9.208
  163POPC   C1A 6879  33.693  22.164   8.742
  163POPC   D2A 6880  33.659  22.340   8.357
  163POPC   C3A 6881  33.547  22.124   8.001
  163POPC   C4A 6882  33.821  21.916   7.715
  163POPC   C1B 6883  34.148  21.931   8.807
  163POPC   C2B 6884  34.122  22.083   8.375
  163POPC   C3B 6885  34.273  21.976   7.954
  163POPC   C4B 6886  34.251  21.695   7.546
  164POPC   NC3 6887  11.238  11.053   9.649
  164POPC   PO4 6888  11.319  10.391   9.580
  164POPC   GL1 6889  11.393  10.415   9.168
  164POPC   GL2 6890  11.405  10.771   9.202
  164POPC   C1A 6891  11.258  10.330   8.748
  164POPC   D2A 6892  11.497  10.112   8.418
  164POPC   C3A 6893  11.351  10.252   8.050
  164POPC   C4A 6894  11.032  10.601   8.006
  164POPC   C1B 6895  11.507  10.819   8.781
  164POPC   C2B 6896  11.448  10.643   8.371
  164POPC   C3B 6897  11.606  10.696   7.954
  164POPC   C4B 6898  11.695  10.890   7.574
  165POPC   NC3 6899   5.457  28.790   9.417
  165POPC   PO4 6900   5.170  28.150   9.601
  165POPC   GL1 6901   5.298  28.073   9.221
  165POPC   GL2 6902   5.272  28.412   9.127
  165POPC   C1A 6903   5.057  27.990   8.866
  165POPC   D2A 6904   5.125  28.178   8.513
  165POPC   C3A 6905   5.010  28.188   8.096
  165POPC   C4A 6906   5.267  28.224   7.758
  165POPC   C1B 6907   5.266  28.657   8.769
  165POPC   C2B 6908   5.062  28.663   8.384
  165POPC   C3B 6909   5.276  28.655   8.015
  165POPC   C4B 6910   5.311  28.877   7.626
  166POPC   NC3 6911  32.536  33.559   9.595
  166POPC   PO4 6912  32.122  34.183   9.461
  166POPC   GL1 6913  32.376  33.996   9.113
  166POPC   GL2 6914  32.268  33.633   9.142
  166POPC   C1A 6915  32.361  34.010   8.625
  166POPC   D2A 6916  32.469  34.116   8.186
  166POPC   C3A 6917  32.137  34.050   7.941
  166POPC   C4A 6918  31.914  33.676   7.859
  166POPC   C1B 6919  32.413  33.507   8.713
  166POPC   C2B 6920  32.325  33.613   8.252
  166POPC   C3B 6921  32.372  33.433   7.830
  166POPC   C4B 6922  32.520  33.417   7.408
  167POPC   NC3 6923  42.888  12.493   9.273
  167POPC   PO4 6924  43.078  13.111   9.613
  167POPC   GL1 6925  43.243  12.942   9.164
  167POPC   GL2 6926  43.555  13.117   9.104
  167POPC   C1A 6927  43.048  12.882   8.711
  167POPC   D2A 6928  42.802  13.029   8.370
  167POPC   C3A 6929  43.007  12.895   8.000
  167POPC   C4A 6930  42.816  12.788   7.631
  167POPC   C1B 6931  43.539  12.843   8.748
  167POPC   C2B 6932  43.555  12.761   8.329
  167POPC   C3B 6933  43.594  12.649   7.924
  167POPC   C4B 6934  43.341  12.741   7.597
  168POPC   NC3 6935  40.736  37.234   9.557
  168POPC   PO4 6936  40.345  37.834   9.529
  168POPC   GL1 6937  40.428  37.517   9.205
  168POPC   GL2 6938  40.802  37.428   9.111
  168POPC   C1A 6939  40.540  37.641   8.761
  168POPC   D2A 6940  40.813  37.589   8.419
  168POPC   C3A 6941  40.677  37.775   8.047
  168POPC   C4A 6942  40.870  37.848   7.704
  168POPC   C1B 6943  40.961  37.207   8.755
  168POPC   C2B 6944  41.174  37.214   8.361
  168POPC   C3B 6945  41.062  37.399   7.953
  168POPC   C4B 6946  40.923  37.380   7.518
  169POPC   NC3 6947  25.149  38.012   9.628
  169POPC   PO4 6948  25.394  38.649   9.571
  169POPC   GL1 6949  25.291  38.531   9.163
  169POPC   GL2 6950  25.320  38.171   9.185
  169POPC   C1A 6951  25.018  38.389   8.807
  169POPC   D2A 6952  24.919  38.165   8.437
  169POPC   C3A 6953  24.983  38.226   7.992
  169POPC   C4A 6954  25.176  38.388   7.627
  169POPC   C1B 6955  25.506  38.237   8.815
  169POPC   C2B 6956  25.424  38.437   8.469
  169POPC   C3B 6957  25.490  38.408   8.050
  169POPC   C4B 6958  25.690  38.515   7.668
  170POPC   NC3 6959  31.539  37.183   9.490
  170POPC   PO4 6960  32.001  36.576   9.369
  170POPC   GL1 6961  31.705  36.829   9.168
  170POPC   GL2 6962  31.800  37.139   9.051
  170POPC   C1A 6963  31.419  36.885   8.826
  170POPC   D2A 6964  31.475  36.665   8.494
  170POPC   C3A 6965  31.386  36.816   8.110
  170POPC   C4A 6966  31.481  36.853   7.699
  170POPC   C1B 6967  31.863  37.047   8.673
  170POPC   C2B 6968  31.677  37.124   8.355
  170POPC   C3B 6969  31.790  37.161   7.962
  170POPC   C4B 6970  32.059  37.471   7.859
  171POPC   NC3 6971  27.460  27.434   9.579
  171POPC   PO4 6972  28.077  27.237   9.397
  171POPC   GL1 6973  27.775  27.646   9.202
  171POPC   GL2 6974  27.331  27.655   9.174
  171POPC   C1A 6975  27.596  27.638   8.763
  171POPC   D2A 6976  27.437  27.378   8.454
  171POPC   C3A 6977  27.738  27.484   8.164
  171POPC   C4A 6978  27.744  27.640   7.756
  171POPC   C1B 6979  27.160  27.896   8.888
  171POPC   C2B 6980  27.316  28.030   8.504
  171POPC   C3B 6981  27.335  27.778   8.129
  171POPC   C4B 6982  27.246  27.803   7.711
  172POPC   NC3 6983  11.570  23.369   9.455
  172POPC   PO4 6984  11.249  23.978   9.546
  172POPC   GL1 6985  11.446  23.876   9.164
  172POPC   GL2 6986  11.236  23.614   9.155
  172POPC   C1A 6987  11.504  23.653   8.744
  172POPC   D2A 6988  11.663  23.505   8.360
  172POPC   C3A 6989  11.753  23.834   8.049
  172POPC   C4A 6990  11.485  23.879   7.674
  172POPC   C1B 6991  11.031  23.400   8.801
  172POPC   C2B 6992  11.125  23.453   8.393
  172POPC   C3B 6993  11.295  23.563   8.016
  172POPC   C4B 6994  11.094  23.496   7.663
  173POPC   NC3 6995  11.688   1.796   9.612
  173POPC   PO4 6996  11.104   2.138   9.432
  173POPC   GL1 6997  11.261   1.930   9.082
  173POPC   GL2 6998  11.595   2.058   9.160
  173POPC   C1A 6999  11.193   1.884   8.623
  173POPC   D2A 7000  11.448   1.986   8.250
  173POPC   C3A 7001  11.175   1.865   7.913
  173POPC   C4A 7002  10.875   1.779   7.602
  173POPC   C1B 7003  11.678   1.858   8.773
  173POPC   C2B 7004  11.927   1.816   8.424
  173POPC   C3B 7005  11.852   1.725   8.016
  173POPC   C4B 7006  11.589   1.719   7.659
  174POPC   NC3 7007  34.238  38.354   9.516
  174POPC   PO4 7008  34.782  38.761   9.637
  174POPC   GL1 7009  34.644  38.547   9.266
  174POPC   GL2 7010  34.591  38.206   9.179
  174POPC   C1A 7011  34.533  38.599   8.845
  174POPC   D2A 7012  34.684  38.514   8.458
  174POPC   C3A 7013  34.648  38.858   8.143
  174POPC   C4A 7014  34.598  38.675   7.746
  174POPC   C1B 7015  34.380  38.108   8.804
  174POPC   C2B 7016  34.470  37.977   8.387
  174POPC   C3B 7017  34.593  38.169   7.985
  174POPC   C4B 7018  34.270  38.300   7.707
  175POPC   NC3 7019   3.243   9.342   9.471
  175POPC   PO4 7020   3.805   9.752   9.484
  175POPC   GL1 7021   3.422   9.785   9.236
  175POPC   GL2 7022   3.599   9.964   9.025
  175POPC   C1A 7023   3.156   9.817   8.839
  175POPC   D2A 7024   3.387   9.783   8.476
  175POPC   C3A 7025   3.323   9.797   8.082
  175POPC   C4A 7026   3.476   9.596   7.727
  175POPC   C1B 7027   3.824   9.929   8.654
  175POPC   C2B 7028   3.689  10.137   8.267
  175POPC   C3B 7029   3.706  10.066   7.841
  175POPC   C4B 7030   4.066  10.152   7.628
  176POPC   NC3 7031  30.220  15.269   9.550
  176POPC   PO4 7032  29.778  14.763   9.531
  176POPC   GL1 7033  29.851  15.126   9.193
  176POPC   GL2 7034  30.161  15.322   9.057
  176POPC   C1A 7035  29.732  15.221   8.774
  176POPC   D2A 7036  29.455  15.274   8.422
  176POPC   C3A 7037  29.697  15.318   8.018
  176POPC   C4A 7038  29.792  15.180   7.566
  176POPC   C1B 7039  30.349  15.465   8.664
  176POPC   C2B 7040  30.195  15.458   8.233
  176POPC   C3B 7041  30.214  15.186   7.856
  176POPC   C4B 7042  30.275  15.199   7.403
  177POPC   NC3 7043  42.233  36.653   9.146
  177POPC   PO4 7044  42.499  36.165   9.561
  177POPC   GL1 7045  42.479  36.191   9.147
  177POPC   GL2 7046  42.135  36.133   9.103
  177POPC   C1A 7047  42.513  35.945   8.764
  177POPC   D2A 7048  42.508  36.088   8.337
  177POPC   C3A 7049  42.139  36.062   8.109
  177POPC   C4A 7050  42.175  35.769   7.785
  177POPC   C1B 7051  42.106  36.238   8.642
  177POPC   C2B 7052  41.995  36.526   8.320
  177POPC   C3B 7053  42.055  36.507   7.870
  177POPC   C4B 7054  42.316  36.234   7.618
  178POPC   NC3 7055  23.201  34.807   9.427
  178POPC   PO4 7056  23.056  35.445   9.467
  178POPC   GL1 7057  22.953  35.224   9.113
  178POPC   GL2 7058  22.682  35.451   9.008
  178POPC   C1A 7059  23.054  35.248   8.687
  178POPC   D2A 7060  22.826  35.377   8.338
  178POPC   C3A 7061  22.993  35.361   7.930
  178POPC   C4A 7062  23.138  35.638   7.620
  178POPC   C1B 7063  22.564  35.748   8.697
  178POPC   C2B 7064  22.416  35.693   8.269
  178POPC   C3B 7065  22.606  35.684   7.844
  178POPC   C4B 7066  22.705  35.802   7.390
  179POPC   NC3 7067  35.682  27.898   9.450
  179POPC   PO4 7068  36.082  27.528   9.861
  179POPC   GL1 7069  36.114  27.657   9.331
  179POPC   GL2 7070  35.889  27.540   9.119
  179POPC   C1A 7071  36.323  27.623   8.851
  179POPC   D2A 7072  36.253  27.884   8.468
  179POPC   C3A 7073  36.286  27.731   8.063
  179POPC   C4A 7074  36.102  27.848   7.697
  179POPC   C1B 7075  35.820  27.709   8.745
  179POPC   C2B 7076  35.890  27.541   8.381
  179POPC   C3B 7077  35.781  27.618   8.003
  179POPC   C4B 7078  35.797  27.394   7.644
  180POPC   NC3 7079  19.578  36.756   9.363
  180POPC   PO4 7080  19.267  37.197   9.588
  180POPC   GL1 7081  19.295  37.162   9.166
  180POPC   GL2 7082  19.396  37.423   8.997
  180POPC   C1A 7083  19.039  37.017   8.837
  180POPC   D2A 7084  18.855  37.018   8.420
  180POPC   C3A 7085  19.042  36.744   8.097
  180POPC   C4A 7086  18.902  36.674   7.671
  180POPC   C1B 7087  19.197  37.423   8.576
  180POPC   C2B 7088  19.246  37.218   8.168
  180POPC   C3B 7089  19.030  37.171   7.791
  180POPC   C4B 7090  19.151  37.046   7.386
  181POPC   NC3 7091  24.424  36.953   9.737
  181POPC   PO4 7092  24.112  36.719   9.181
  181POPC   GL1 7093  24.536  36.783   9.107
  181POPC   GL2 7094  24.575  37.099   9.248
  181POPC   C1A 7095  24.750  36.798   8.704
  181POPC   D2A 7096  24.630  36.604   8.310
  181POPC   C3A 7097  24.308  36.726   8.014
  181POPC   C4A 7098  24.668  36.703   7.770
  181POPC   C1B 7099  24.787  37.290   8.871
  181POPC   C2B 7100  25.008  37.179   8.472
  181POPC   C3B 7101  24.909  37.072   8.054
  181POPC   C4B 7102  24.524  37.192   7.870
  182POPC   NC3 7103  26.511  20.197   9.684
  182POPC   PO4 7104  26.038  19.756   9.450
  182POPC   GL1 7105  26.132  19.729   9.061
  182POPC   GL2 7106  26.007  20.098   9.046
  182POPC   C1A 7107  25.908  19.692   8.709
  182POPC   D2A 7108  25.784  19.863   8.354
  182POPC   C3A 7109  25.898  19.618   8.020
  182POPC   C4A 7110  26.296  19.566   7.823
  182POPC   C1B 7111  26.018  20.231   8.620
  182POPC   C2B 7112  26.025  20.266   8.184
  182POPC   C3B 7113  25.780  20.079   7.839
  182POPC   C4B 7114  25.638  20.200   7.408
  183POPC   NC3 7115  40.704  13.372   9.391
  183POPC   PO4 7116  40.867  14.001   9.598
  183POPC   GL1 7117  40.973  13.839   9.199
  183POPC   GL2 7118  41.186  13.524   9.206
  183POPC   C1A 7119  40.844  13.829   8.758
  183POPC   D2A 7120  40.886  14.000   8.327
  183POPC   C3A 7121  40.682  13.718   8.003
  183POPC   C4A 7122  40.516  13.682   7.551
  183POPC   C1B 7123  41.031  13.305   8.832
  183POPC   C2B 7124  40.872  13.410   8.419
  183POPC   C3B 7125  41.006  13.306   8.016
  183POPC   C4B 7126  41.307  13.360   7.710
  184POPC   NC3 7127   1.010  27.817   9.448
  184POPC   PO4 7128   1.490  27.265   9.528
  184POPC   GL1 7129   1.189  27.374   9.239
  184POPC   GL2 7130   1.385  27.653   9.122
  184POPC   C1A 7131   1.012  27.471   8.824
  184POPC   D2A 7132   1.268  27.415   8.460
  184POPC   C3A 7133   1.051  27.430   8.067
  184POPC   C4A 7134   1.235  27.531   7.677
  184POPC   C1B 7135   1.481  27.890   8.779
  184POPC   C2B 7136   1.287  27.919   8.378
  184POPC   C3B 7137   1.508  27.709   8.076
  184POPC   C4B 7138   1.617  27.896   7.683
  185POPC   NC3 7139  35.101  25.993   9.662
  185POPC   PO4 7140  35.585  25.853   9.201
  185POPC   GL1 7141  35.255  26.136   9.142
  185POPC   GL2 7142  34.925  26.037   9.130
  185POPC   C1A 7143  35.168  26.304   8.732
  185POPC   D2A 7144  35.329  26.103   8.350
  185POPC   C3A 7145  35.289  26.133   7.902
  185POPC   C4A 7146  35.568  25.977   7.595
  185POPC   C1B 7147  34.978  25.801   8.726
  185POPC   C2B 7148  35.303  25.597   8.442
  185POPC   C3B 7149  35.444  25.633   8.012
  185POPC   C4B 7150  35.209  25.592   7.623
  186POPC   NC3 7151   8.544   6.266   9.300
  186POPC   PO4 7152   7.882   6.397   9.428
  186POPC   GL1 7153   8.151   6.539   9.113
  186POPC   GL2 7154   8.243   6.907   9.130
  186POPC   C1A 7155   8.272   6.606   8.713
  186POPC   D2A 7156   8.294   6.984   8.525
  186POPC   C3A 7157   8.453   6.809   8.145
  186POPC   C4A 7158   8.329   6.520   7.752
  186POPC   C1B 7159   7.877   6.951   8.854
  186POPC   C2B 7160   7.783   7.031   8.394
  186POPC   C3B 7161   7.931   6.781   8.014
  186POPC   C4B 7162   7.934   6.793   7.559
  187POPC   NC3 7163  41.510  27.331   9.539
  187POPC   PO4 7164  41.987  26.957   9.324
  187POPC   GL1 7165  41.659  27.202   9.076
  187POPC   GL2 7166  41.499  27.596   9.112
  187POPC   C1A 7167  41.671  27.388   8.670
  187POPC   D2A 7168  41.693  27.209   8.274
  187POPC   C3A 7169  41.679  27.447   7.901
  187POPC   C4A 7170  41.977  27.802   7.780
  187POPC   C1B 7171  41.394  27.817   8.720
  187POPC   C2B 7172  41.456  27.743   8.263
  187POPC   C3B 7173  41.449  27.929   7.824
  187POPC   C4B 7174  41.416  28.087   7.386
  188POPC   NC3 7175   7.404  24.074   9.444
  188POPC   PO4 7176   7.683  23.433   9.480
  188POPC   GL1 7177   7.452  23.633   9.172
  188POPC   GL2 7178   7.685  23.857   9.051
  188POPC   C1A 7179   7.159  23.592   8.828
  188POPC   D2A 7180   7.064  23.510   8.387
  188POPC   C3A 7181   7.264  23.802   8.100
  188POPC   C4A 7182   7.457  23.717   7.689
  188POPC   C1B 7183   7.668  23.512   8.727
  188POPC   C2B 7184   7.682  23.553   8.277
  188POPC   C3B 7185   7.924  23.655   7.919
  188POPC   C4B 7186   7.927  23.659   7.474
  189POPC   NC3 7187   3.840  15.278   9.498
  189POPC   PO4 7188   4.550  15.358   9.436
  189POPC   GL1 7189   4.383  15.370   9.009
  189POPC   GL2 7190   4.032  15.277   9.002
  189POPC   C1A 7191   4.257  15.425   8.564
  189POPC   D2A 7192   3.974  15.244   8.246
  189POPC   C3A 7193   4.154  15.416   7.905
  189POPC   C4A 7194   4.521  15.271   7.690
  189POPC   C1B 7195   4.038  14.949   8.675
  189POPC   C2B 7196   4.235  14.712   8.375
  189POPC   C3B 7197   4.246  14.863   7.946
  189POPC   C4B 7198   4.049  15.046   7.586
  190POPC   NC3 7199  30.308  18.579   9.324
  190POPC   PO4 7200  30.810  18.202   9.332
  190POPC   GL1 7201  31.017  18.523   9.073
  190POPC   GL2 7202  30.706  18.630   9.035
  190POPC   C1A 7203  30.984  18.500   8.623
  190POPC   D2A 7204  30.938  18.057   8.477
  190POPC   C3A 7205  31.037  17.911   8.058
  190POPC   C4A 7206  30.861  18.063   7.696
  190POPC   C1B 7207  30.481  18.379   8.692
  190POPC   C2B 7208  30.516  18.266   8.239
  190POPC   C3B 7209  30.533  18.464   7.825
  190POPC   C4B 7210  30.482  18.240   7.404
  191POPC   NC3 7211  33.356  18.089   9.486
  191POPC   PO4 7212  33.176  18.690   9.765
  191POPC   GL1 7213  32.985  18.386   9.353
  191POPC   GL2 7214  32.807  18.533   9.101
  191POPC   C1A 7215  33.044  18.148   8.897
  191POPC   D2A 7216  33.002  18.329   8.456
  191POPC   C3A 7217  32.981  18.052   8.108
  191POPC   C4A 7218  33.308  17.812   7.906
  191POPC   C1B 7219  33.173  18.651   8.813
  191POPC   C2B 7220  33.519  18.497   8.569
  191POPC   C3B 7221  33.416  18.540   8.141
  191POPC   C4B 7222  33.039  18.520   7.895
  192POPC   NC3 7223  40.720   7.767   9.440
  192POPC   PO4 7224  41.001   8.406   9.357
  192POPC   GL1 7225  40.711   8.169   9.096
  192POPC   GL2 7226  41.013   7.955   9.043
  192POPC   C1A 7227  40.477   8.179   8.697
  192POPC   D2A 7228  40.483   8.169   8.238
  192POPC   C3A 7229  40.815   8.174   7.970
  192POPC   C4A 7230  40.550   8.234   7.646
  192POPC   C1B 7231  40.757   7.757   8.753
  192POPC   C2B 7232  40.765   7.684   8.321
  192POPC   C3B 7233  41.104   7.743   8.031
  192POPC   C4B 7234  41.110   7.880   7.605
  193POPC   NC3 7235  25.009  37.254   9.481
  193POPC   PO4 7236  25.592  37.671   9.638
  193POPC   GL1 7237  25.441  37.667   9.240
  193POPC   GL2 7238  25.080  37.696   9.226
  193POPC   C1A 7239  25.646  37.737   8.837
  193POPC   D2A 7240  25.503  37.934   8.425
  193POPC   C3A 7241  25.487  37.763   8.033
  193POPC   C4A 7242  25.531  38.029   7.688
  193POPC   C1B 7243  25.144  37.849   8.813
  193POPC   C2B 7244  25.065  37.681   8.418
  193POPC   C3B 7245  24.982  37.590   8.020
  193POPC   C4B 7246  25.070  37.837   7.659
  194POPC   NC3 7247  40.654  12.977   9.806
  194POPC   PO4 7248  41.253  13.089   9.514
  194POPC   GL1 7249  40.980  12.892   9.188
  194POPC   GL2 7250  40.606  12.937   9.152
  194POPC   C1A 7251  40.846  12.803   8.749
  194POPC   D2A 7252  41.045  12.900   8.387
  194POPC   C3A 7253  40.894  12.786   7.998
  194POPC   C4A 7254  40.623  12.480   7.809
  194POPC   C1B 7255  40.533  13.192   8.763
  194POPC   C2B 7256  40.515  13.015   8.323
  194POPC   C3B 7257  40.520  13.195   7.893
  194POPC   C4B 7258  40.446  13.136   7.450
  195POPC   NC3 7259  12.228   6.283   9.512
  195POPC   PO4 7260  11.841   6.766   9.414
  195POPC   GL1 7261  12.151   6.838   9.123
  195POPC   GL2 7262  12.272   6.519   9.073
  195POPC   C1A 7263  12.064   6.968   8.721
  195POPC   D2A 7264  11.849   6.836   8.353
  195POPC   C3A 7265  12.075   6.643   8.027
  195POPC   C4A 7266  12.213   6.845   7.678
  195POPC   C1B 7267  11.978   6.456   8.786
  195POPC   C2B 7268  11.995   6.298   8.400
  195POPC   C3B 7269  11.835   6.106   8.058
  195POPC   C4B 7270  11.842   6.342   7.667
  196POPC   NC3 7271   9.898  33.539   9.536
  196POPC   PO4 7272   9.585  34.036   9.466
  196POPC   GL1 7273   9.725  33.907   9.119
  196POPC   GL2 7274   9.670  33.560   9.089
  196POPC   C1A 7275   9.882  33.862   8.735
  196POPC   D2A 7276   9.763  33.662   8.376
  196POPC   C3A 7277   9.658  33.967   8.095
  196POPC   C4A 7278   9.701  33.880   7.684
  196POPC   C1B 7279   9.403  33.625   8.756
  196POPC   C2B 7280   9.247  33.713   8.327
  196POPC   C3B 7281   9.371  33.539   7.906
  196POPC   C4B 7282   9.326  33.236   7.544
  197POPC   NC3 7283  38.248  40.235   9.899
  197POPC   PO4 7284  37.869  39.983   9.394
  197POPC   GL1 7285  37.602  40.086   9.102
  197POPC   GL2 7286  37.326  39.870   9.203
  197POPC   C1A 7287  37.756  40.084   8.688
  197POPC   D2A 7288  38.033  40.117   8.338
  197POPC   C3A 7289  37.803  40.053   7.954
  197POPC   C4A 7290  37.881  39.863   7.554
  197POPC   C1B 7291  37.399  39.728   8.793
  197POPC   C2B 7292  37.358  39.922   8.389
  197POPC   C3B 7293  37.385  39.744   7.992
  197POPC   C4B 7294  37.375  39.894   7.590
  198POPC   NC3 7295  39.685   9.263   9.460
  198POPC   PO4 7296  40.149   8.833   9.357
  198POPC   GL1 7297  40.080   9.105   9.050
  198POPC   GL2 7298  39.781   9.031   9.015
  198POPC   C1A 7299  40.015   9.121   8.577
  198POPC   D2A 7300  40.127   8.890   8.220
  198POPC   C3A 7301  40.245   9.014   7.836
  198POPC   C4A 7302  39.965   8.990   7.507
  198POPC   C1B 7303  39.806   9.493   8.867
  198POPC   C2B 7304  39.713   9.606   8.469
  198POPC   C3B 7305  39.862   9.341   8.122
  198POPC   C4B 7306  39.891   9.471   7.688
  199POPC   NC3 7307  38.427  14.253   9.720
  199POPC   PO4 7308  38.139  14.804   9.582
  199POPC   GL1 7309  38.411  14.586   9.250
  199POPC   GL2 7310  38.553  14.256   9.194
  199POPC   C1A 7311  38.496  14.666   8.794
  199POPC   D2A 7312  38.552  14.388   8.431
  199POPC   C3A 7313  38.365  14.484   8.044
  199POPC   C4A 7314  38.382  14.250   7.664
  199POPC   C1B 7315  38.624  13.931   8.861
  199POPC   C2B 7316  38.630  13.804   8.441
  199POPC   C3B 7317  38.573  13.950   8.028
  199POPC   C4B 7318  38.822  13.958   7.620
  200POPC   NC3 7319  33.460  30.649   9.487
  200POPC   PO4 7320  33.936  30.341   9.790
  200POPC   GL1 7321  33.902  30.548   9.274
  200POPC   GL2 7322  33.605  30.645   9.024
  200POPC   C1A 7323  34.004  30.473   8.795
  200POPC   D2A 7324  33.978  30.743   8.444
  200POPC   C3A 7325  34.143  30.569   8.078
  200POPC   C4A 7326  34.123  30.638   7.643
  200POPC   C1B 7327  33.501  30.508   8.618
  200POPC   C2B 7328  33.288  30.784   8.351
  200POPC   C3B 7329  33.399  30.797   7.970
  200POPC   C4B 7330  33.684  30.454   7.860
  201POPC   NC3 7331  31.525   6.648  10.056
  201POPC   PO4 7332  31.408   6.994   9.454
  201POPC   GL1 7333  31.259   6.885   9.062
  201POPC   GL2 7334  31.430   6.576   9.113
  201POPC   C1A 7335  31.376   6.768   8.648
  201POPC   D2A 7336  31.575   6.844   8.261
  201POPC   C3A 7337  31.275   6.840   7.930
  201POPC   C4A 7338  31.427   6.785   7.512
  201POPC   C1B 7339  31.719   6.427   8.848
  201POPC   C2B 7340  31.766   6.389   8.473
  201POPC   C3B 7341  31.759   6.205   8.131
  201POPC   C4B 7342  31.688   6.512   7.844
  202POPC   NC3 7343  10.071  42.945   9.363
  202POPC   PO4 7344  10.712  43.000   9.553
  202POPC   GL1 7345  10.606  43.119   9.134
  202POPC   GL2 7346  10.941  43.272   9.106
  202POPC   C1A 7347  10.359  43.222   8.739
  202POPC   D2A 7348  10.388  43.148   8.286
  202POPC   C3A 7349  10.105  43.057   7.954
  202POPC   C4A 7350  10.238  43.155   7.506
  202POPC   C1B 7351  10.751  43.522   8.831
  202POPC   C2B 7352  10.799  43.371   8.484
  202POPC   C3B 7353  10.812  43.342   8.060
  202POPC   C4B 7354  10.661  43.052   7.767
  203POPC   NC3 7355  40.890  44.213   9.387
  203POPC   PO4 7356  40.626  43.607   9.556
  203POPC   GL1 7357  40.727  43.765   9.156
  203POPC   GL2 7358  41.049  43.610   9.088
  203POPC   C1A 7359  40.559  44.033   8.795
  203POPC   D2A 7360  40.304  44.142   8.441
  203POPC   C3A 7361  40.536  44.258   8.082
  203POPC   C4A 7362  40.607  44.055   7.691
  203POPC   C1B 7363  40.951  43.731   8.692
  203POPC   C2B 7364  40.691  43.800   8.329
  203POPC   C3B 7365  40.883  43.704   7.967
  203POPC   C4B 7366  41.271  43.562   7.839
  204POPC   NC3 7367  24.600  29.233   9.626
  204POPC   PO4 7368  24.389  28.641   9.418
  204POPC   GL1 7369  24.479  29.067   9.162
  204POPC   GL2 7370  24.816  29.254   9.118
  204POPC   C1A 7371  24.421  29.398   8.809
  204POPC   D2A 7372  24.611  29.464   8.348
  204POPC   C3A 7373  24.398  29.235   7.994
  204POPC   C4A 7374  24.377  29.070   7.543
  204POPC   C1B 7375  24.821  29.121   8.675
  204POPC   C2B 7376  24.735  28.937   8.258
  204POPC   C3B 7377  24.801  29.003   7.793
  204POPC   C4B 7378  24.822  29.364   7.422
  205POPC   NC3 7379   8.124  25.772   9.538
  205POPC   PO4 7380   8.370  26.412   9.387
  205POPC   GL1 7381   8.264  26.041   9.110
  205POPC   GL2 7382   8.330  25.625   9.110
  205POPC   C1A 7383   8.204  26.218   8.696
  205POPC   D2A 7384   8.429  26.317   8.324
  205POPC   C3A 7385   8.169  26.257   7.955
  205POPC   C4A 7386   8.151  26.230   7.500
  205POPC   C1B 7387   8.303  25.714   8.702
  205POPC   C2B 7388   8.450  25.799   8.286
  205POPC   C3B 7389   8.319  25.765   7.848
  205POPC   C4B 7390   8.405  25.815   7.378
  206POPC   NC3 7391  19.162   5.829   9.422
  206POPC   PO4 7392  18.626   5.493   9.567
  206POPC   GL1 7393  18.723   5.771   9.165
  206POPC   GL2 7394  18.870   6.131   9.130
  206POPC   C1A 7395  18.947   5.675   8.745
  206POPC   D2A 7396  19.189   5.682   8.331
  206POPC   C3A 7397  18.952   5.724   7.928
  206POPC   C4A 7398  18.696   6.078   7.830
  206POPC   C1B 7399  19.221   6.093   8.791
  206POPC   C2B 7400  19.441   6.142   8.391
  206POPC   C3B 7401  19.352   6.071   7.967
  206POPC   C4B 7402  19.452   5.666   7.862
  207POPC   NC3 7403  22.453  19.390   9.467
  207POPC   PO4 7404  21.920  19.018   9.514
  207POPC   GL1 7405  22.184  19.020   9.178
  207POPC   GL2 7406  22.087  19.301   9.103
  207POPC   C1A 7407  22.302  19.076   8.715
  207POPC   D2A 7408  22.556  19.133   8.354
  207POPC   C3A 7409  22.358  19.100   7.963
  207POPC   C4A 7410  22.492  18.781   7.651
  207POPC   C1B 7411  21.785  19.228   8.784
  207POPC   C2B 7412  21.786  19.029   8.412
  207POPC   C3B 7413  21.800  19.187   8.010
  207POPC   C4B 7414  21.943  19.063   7.622
  208POPC   NC3 7415   7.785  39.179   9.529
  208POPC   PO4 7416   7.203  39.485   9.451
  208POPC   GL1 7417   7.523  39.397   9.132
  208POPC   GL2 7418   7.690  39.037   9.043
  208POPC   C1A 7419   7.402  39.292   8.739
  208POPC   D2A 7420   7.642  39.308   8.419
  208POPC   C3A 7421   7.446  39.546   8.133
  208POPC   C4A 7422   7.137  39.454   7.813
  208POPC   C1B 7423   7.639  38.821   8.619
  208POPC   C2B 7424   7.652  38.786   8.149
  208POPC   C3B 7425   7.479  38.926   7.750
  208POPC   C4B 7426   7.569  38.894   7.267
  209POPC   NC3 7427  44.927  25.066   9.436
  209POPC   PO4 7428  44.308  25.585   9.460
  209POPC   GL1 7429  44.576  25.340   9.196
  209POPC   GL2 7430  44.941  25.477   9.158
  209POPC   C1A 7431  44.423  25.157   8.833
  209POPC   D2A 7432  44.533  24.942   8.477
  209POPC   C3A 7433  44.454  25.142   8.086
  209POPC   C4A 7434  44.539  25.077   7.642
  209POPC   C1B 7435  44.866  25.431   8.737
  209POPC   C2B 7436  44.879  25.288   8.338
  209POPC   C3B 7437  44.815  25.502   7.965
  209POPC   C4B 7438   0.140  25.742   7.802
  210POPC   NC3 7439   9.259   7.547   9.747
  210POPC   PO4 7440   9.663   7.067   9.587
  210POPC   GL1 7441   9.759   7.407   9.252
  210POPC   GL2 7442   9.465   7.480   9.259
  210POPC   C1A 7443   9.880   7.567   8.810
  210POPC   D2A 7444  10.028   7.354   8.419
  210POPC   C3A 7445   9.875   7.521   8.019
  210POPC   C4A 7446   9.648   7.392   7.636
  210POPC   C1B 7447   9.380   7.637   8.846
  210POPC   C2B 7448   9.510   7.540   8.408
  210POPC   C3B 7449   9.369   7.624   7.975
  210POPC   C4B 7450   9.268   7.748   7.529
  211POPC   NC3 7451   1.642  39.186   9.449
  211POPC   PO4 7452   2.326  39.267   9.541
  211POPC   GL1 7453   2.114  39.146   9.207
  211POPC   GL2 7454   2.161  39.492   9.105
  211POPC   C1A 7455   1.849  38.915   8.902
  211POPC   D2A 7456   1.700  39.039   8.512
  211POPC   C3A 7457   1.860  38.847   8.119
  211POPC   C4A 7458   1.830  39.175   7.827
  211POPC   C1B 7459   2.188  39.301   8.730
  211POPC   C2B 7460   2.187  39.136   8.378
  211POPC   C3B 7461   2.318  39.248   8.042
  211POPC   C4B 7462   2.295  38.923   7.790
  212POPC   NC3 7463  25.468  32.292   9.604
  212POPC   PO4 7464  24.848  32.103   9.476
  212POPC   GL1 7465  25.220  32.019   9.202
  212POPC   GL2 7466  25.539  32.238   9.120
  212POPC   C1A 7467  25.157  32.190   8.779
  212POPC   D2A 7468  25.019  32.367   8.394
  212POPC   C3A 7469  25.165  32.194   7.994
  212POPC   C4A 7470  25.035  32.313   7.574
  212POPC   C1B 7471  25.668  32.205   8.726
  212POPC   C2B 7472  25.543  32.436   8.366
  212POPC   C3B 7473  25.650  32.360   7.977
  212POPC   C4B 7474  25.630  32.003   7.725
  213POPC   NC3 7475  10.195  27.509   9.402
  213POPC   PO4 7476  10.870  27.470   9.441
  213POPC   GL1 7477  10.622  27.703   9.135
  213POPC   GL2 7478  10.714  28.051   9.066
  213POPC   C1A 7479  10.489  27.512   8.751
  213POPC   D2A 7480  10.262  27.290   8.446
  213POPC   C3A 7481  10.422  27.399   8.065
  213POPC   C4A 7482  10.226  27.545   7.709
  213POPC   C1B 7483  10.852  27.861   8.684
  213POPC   C2B 7484  10.850  27.785   8.263
  213POPC   C3B 7485  10.642  27.828   7.890
  213POPC   C4B 7486  10.682  27.574   7.507
  214POPC   NC3 7487   7.979  21.769   9.560
  214POPC   PO4 7488   8.579  22.083   9.353
  214POPC   GL1 7489   8.227  22.035   9.147
  214POPC   GL2 7490   8.188  21.694   9.113
  214POPC   C1A 7491   8.087  22.281   8.815
  214POPC   D2A 7492   8.328  22.355   8.439
  214POPC   C3A 7493   8.100  22.357   8.036
  214POPC   C4A 7494   8.392  22.376   7.664
  214POPC   C1B 7495   8.108  21.730   8.698
  214POPC   C2B 7496   7.908  22.003   8.413
  214POPC   C3B 7497   7.774  21.941   8.027
  214POPC   C4B 7498   7.980  22.049   7.636
  215POPC   NC3 7499  17.621   6.948   9.316
  215POPC   PO4 7500  17.303   6.410   9.558
  215POPC   GL1 7501  17.645   6.436   9.290
  215POPC   GL2 7502  17.374   6.565   9.063
  215POPC   C1A 7503  17.854   6.484   8.899
  215POPC   D2A 7504  17.959   6.804   8.589
  215POPC   C3A 7505  17.760   6.618   8.252
  215POPC   C4A 7506  17.834   6.453   7.856
  215POPC   C1B 7507  17.458   6.763   8.673
  215POPC   C2B 7508  17.262   6.762   8.290
  215POPC   C3B 7509  17.221   6.958   7.913
  215POPC   C4B 7510  17.359   6.658   7.629
  216POPC   NC3 7511   2.200   0.192   9.657
  216POPC   PO4 7512   1.841   0.693   9.434
  216POPC   GL1 7513   1.933   0.376   9.156
  216POPC   GL2 7514   2.261   0.312   9.164
  216POPC   C1A 7515   1.846   0.363   8.745
  216POPC   D2A 7516   2.030   0.290   8.378
  216POPC   C3A 7517   1.815   0.271   8.023
  216POPC   C4A 7518   1.586   0.568   7.809
  216POPC   C1B 7519   2.297   0.586   8.780
  216POPC   C2B 7520   2.252   0.747   8.345
  216POPC   C3B 7521   2.231   0.565   7.933
  216POPC   C4B 7522   2.319   0.696   7.500
  217POPC   NC3 7523  36.233   9.485   9.491
  217POPC   PO4 7524  35.780   9.934   9.413
  217POPC   GL1 7525  35.990   9.729   9.088
  217POPC   GL2 7526  35.962   9.355   9.052
  217POPC   C1A 7527  35.986   9.832   8.659
  217POPC   D2A 7528  35.873  10.115   8.304
  217POPC   C3A 7529  36.022   9.965   7.881
  217POPC   C4A 7530  36.281   9.670   7.659
  217POPC   C1B 7531  36.267   9.390   8.689
  217POPC   C2B 7532  36.207   9.594   8.272
  217POPC   C3B 7533  35.821   9.563   8.083
  217POPC   C4B 7534  35.877   9.333   7.706
  218POPC   NC3 7535  36.539   8.704   9.659
  218POPC   PO4 7536  37.171   9.044   9.551
  218POPC   GL1 7537  36.976   9.015   9.169
  218POPC   GL2 7538  36.621   8.967   9.212
  218POPC   C1A 7539  36.853   9.254   8.801
  218POPC   D2A 7540  36.980   9.074   8.411
  218POPC   C3A 7541  37.176   9.160   8.019
  218POPC   C4A 7542  37.034   8.974   7.604
  218POPC   C1B 7543  36.692   8.743   8.811
  218POPC   C2B 7544  36.526   8.837   8.391
  218POPC   C3B 7545  36.718   8.886   7.982
  218POPC   C4B 7546  36.553   8.838   7.537
  219POPC   NC3 7547  40.282  32.877   9.444
  219POPC   PO4 7548  39.647  32.953   9.585
  219POPC   GL1 7549  39.800  33.244   9.223
  219POPC   GL2 7550  40.139  33.166   9.053
  219POPC   C1A 7551  39.735  33.144   8.760
  219POPC   D2A 7552  39.897  33.237   8.336
  219POPC   C3A 7553  39.647  33.122   7.946
  219POPC   C4A 7554  39.756  33.200   7.468
  219POPC   C1B 7555  40.450  33.193   8.715
  219POPC   C2B 7556  40.429  33.160   8.272
  219POPC   C3B 7557  40.267  32.858   7.999
  219POPC   C4B 7558  40.338  32.862   7.584
  220POPC   NC3 7559  17.590  17.730   9.450
  220POPC   PO4 7560  17.506  17.078   9.593
  220POPC   GL1 7561  17.405  17.311   9.201
  220POPC   GL2 7562  17.694  17.316   9.081
  220POPC   C1A 7563  17.471  17.642   8.805
  220POPC   D2A 7564  17.710  17.696   8.420
  220POPC   C3A 7565  17.489  17.573   8.058
  220POPC   C4A 7566  17.375  17.766   7.716
  220POPC   C1B 7567  17.814  17.126   8.739
  220POPC   C2B 7568  17.663  17.191   8.355
  220POPC   C3B 7569  17.903  17.311   8.004
  220POPC   C4B 7570  17.725  17.355   7.615
  221POPC   NC3 7571  28.873   0.207   9.326
  221POPC   PO4 7572  29.109  44.656   9.574
  221POPC   GL1 7573  29.171  44.771   9.135
  221POPC   GL2 7574  28.870  44.836   8.938
  221POPC   C1A 7575  29.332  44.834   8.698
  221POPC   D2A 7576  29.254  44.603   8.294
  221POPC   C3A 7577  29.429  44.773   7.935
  221POPC   C4A 7578  29.115   0.099   7.816
  221POPC   C1B 7579  29.057  44.414   8.787
  221POPC   C2B 7580  28.985  44.132   8.450
  221POPC   C3B 7581  28.877  44.233   8.037
  221POPC   C4B 7582  28.993  44.565   7.775
  222POPC   NC3 7583  16.838  42.139   9.514
  222POPC   PO4 7584  16.453  41.823   9.262
  222POPC   GL1 7585  16.818  42.021   9.007
  222POPC   GL2 7586  16.922  42.376   9.053
  222POPC   C1A 7587  16.904  42.164   8.574
  222POPC   D2A 7588  16.736  42.508   8.319
  222POPC   C3A 7589  16.617  42.454   7.915
  222POPC   C4A 7590  16.806  42.281   7.582
  222POPC   C1B 7591  16.885  42.731   8.746
  222POPC   C2B 7592  16.794  43.023   8.370
  222POPC   C3B 7593  16.789  42.922   7.940
  222POPC   C4B 7594  17.076  42.662   7.778
  223POPC   NC3 7595  22.001  14.001   9.470
  223POPC   PO4 7596  22.502  13.483   9.532
  223POPC   GL1 7597  22.368  13.548   9.118
  223POPC   GL2 7598  22.347  13.880   9.126
  223POPC   C1A 7599  22.086  13.504   8.736
  223POPC   D2A 7600  21.957  13.234   8.342
  223POPC   C3A 7601  21.982  13.360   7.871
  223POPC   C4A 7602  21.900  13.385   7.398
  223POPC   C1B 7603  22.386  13.953   8.705
  223POPC   C2B 7604  22.206  14.058   8.297
  223POPC   C3B 7605  22.025  13.863   7.927
  223POPC   C4B 7606  22.192  13.797   7.479
  224POPC   NC3 7607  35.691  26.243   9.419
  224POPC   PO4 7608  36.271  25.752   9.408
  224POPC   GL1 7609  36.184  25.906   9.006
  224POPC   GL2 7610  36.134  26.255   9.121
  224POPC   C1A 7611  35.923  25.926   8.610
  224POPC   D2A 7612  35.823  26.184   8.233
  224POPC   C3A 7613  36.016  26.057   7.857
  224POPC   C4A 7614  36.393  25.764   7.774
  224POPC   C1B 7615  36.244  26.316   8.699
  224POPC   C2B 7616  36.361  26.112   8.303
  224POPC   C3B 7617  36.470  26.256   7.883
  224POPC   C4B 7618  36.216  26.466   7.533
  225POPC   NC3 7619  42.474  43.849   9.574
  225POPC   PO4 7620  41.963  44.234   9.379
  225POPC   GL1 7621  42.278  44.034   9.124
  225POPC   GL2 7622  42.660  44.126   9.169
  225POPC   C1A 7623  42.170  43.773   8.761
  225POPC   D2A 7624  42.054  43.521   8.390
  225POPC   C3A 7625  42.131  43.696   8.015
  225POPC   C4A 7626  42.451  43.711   7.774
  225POPC   C1B 7627  42.520  44.236   8.731
  225POPC   C2B 7628  42.338  44.058   8.361
  225POPC   C3B 7629  42.272  44.182   7.956
  225POPC   C4B 7630  42.497  44.215   7.585
  226POPC   NC3 7631  25.793  40.563   9.503
  226POPC   PO4 7632  26.372  40.946   9.423
  226POPC   GL1 7633  26.127  40.688   9.122
  226POPC   GL2 7634  25.846  40.893   9.086
  226POPC   C1A 7635  26.002  40.642   8.665
  226POPC   D2A 7636  26.110  40.962   8.366
  226POPC   C3A 7637  26.172  41.001   7.914
  226POPC   C4A 7638  26.175  40.741   7.559
  226POPC   C1B 7639  25.697  41.053   8.689
  226POPC   C2B 7640  25.557  40.767   8.391
  226POPC   C3B 7641  25.808  40.620   8.062
  226POPC   C4B 7642  25.807  40.406   7.677
  227POPC   NC3 7643  19.748   4.676   9.485
  227POPC   PO4 7644  19.598   4.011   9.377
  227POPC   GL1 7645  19.946   4.170   9.125
  227POPC   GL2 7646  20.014   4.527   9.073
  227POPC   C1A 7647  19.957   3.961   8.755
  227POPC   D2A 7648  19.801   4.130   8.413
  227POPC   C3A 7649  19.980   4.428   8.208
  227POPC   C4A 7650  20.084   4.130   7.911
  227POPC   C1B 7651  19.991   4.778   8.700
  227POPC   C2B 7652  19.801   4.894   8.309
  227POPC   C3B 7653  19.555   4.694   7.980
  227POPC   C4B 7654  19.563   4.231   7.909
  228POPC   NC3 7655  17.084  40.827   9.478
  228POPC   PO4 7656  16.494  40.713   9.622
  228POPC   GL1 7657  16.691  40.655   9.158
  228POPC   GL2 7658  17.027  40.461   9.129
  228POPC   C1A 7659  16.564  40.599   8.682
  228POPC   D2A 7660  16.618  40.816   8.232
  228POPC   C3A 7661  16.615  40.655   7.766
  228POPC   C4A 7662  16.640  40.517   7.312
  228POPC   C1B 7663  17.040  40.820   8.796
  228POPC   C2B 7664  17.080  41.030   8.374
  228POPC   C3B 7665  17.081  40.806   7.983
  228POPC   C4B 7666  17.097  40.618   7.579
  229POPC   NC3 7667   4.504   7.298   9.454
  229POPC   PO4 7668   4.143   7.934   9.405
  229POPC   GL1 7669   4.313   7.635   9.110
  229POPC   GL2 7670   3.980   7.467   9.154
  229POPC   C1A 7671   4.286   7.306   8.745
  229POPC   D2A 7672   4.090   7.230   8.307
  229POPC   C3A 7673   4.385   7.327   7.982
  229POPC   C4A 7674   4.493   7.241   7.601
  229POPC   C1B 7675   3.953   7.754   8.786
  229POPC   C2B 7676   4.181   7.706   8.438
  229POPC   C3B 7677   4.080   7.716   8.049
  229POPC   C4B 7678   3.962   7.875   7.708
  230POPC   NC3 7679  10.343  30.467   9.349
  230POPC   PO4 7680  10.885  30.862   9.490
  230POPC   GL1 7681  10.555  30.926   9.149
  230POPC   GL2 7682  10.166  30.941   9.202
  230POPC   C1A 7683  10.486  30.712   8.741
  230POPC   D2A 7684  10.534  30.443   8.371
  230POPC   C3A 7685  10.671  30.723   8.047
  230POPC   C4A 7686  10.866  31.098   7.870
  230POPC   C1B 7687  10.002  30.843   8.791
  230POPC   C2B 7688  10.087  30.717   8.375
  230POPC   C3B 7689  10.004  30.909   7.972
  230POPC   C4B 7690  10.380  30.911   7.672
  231POPC   NC3 7691  12.062  14.733   9.495
  231POPC   PO4 7692  11.877  15.381   9.537
  231POPC   GL1 7693  11.979  15.119   9.145
  231POPC   GL2 7694  12.322  14.976   9.115
  231POPC   C1A 7695  11.906  15.267   8.702
  231POPC   D2A 7696  12.040  15.672   8.468
  231POPC   C3A 7697  12.243  15.604   8.074
  231POPC   C4A 7698  12.245  15.267   7.746
  231POPC   C1B 7699  12.288  14.914   8.650
  231POPC   C2B 7700  12.465  14.713   8.257
  231POPC   C3B 7701  12.596  14.911   7.866
  231POPC   C4B 7702  12.440  14.846   7.453
  232POPC   NC3 7703  37.358  19.683   9.627
  232POPC   PO4 7704  37.929  19.463   9.528
  232POPC   GL1 7705  37.747  19.739   9.200
  232POPC   GL2 7706  37.423  19.848   9.148
  232POPC   C1A 7707  37.650  19.711   8.728
  232POPC   D2A 7708  37.724  19.612   8.284
  232POPC   C3A 7709  37.733  19.923   7.976
  232POPC   C4A 7710  37.809  19.951   7.559
  232POPC   C1B 7711  37.312  20.108   8.769
  232POPC   C2B 7712  37.343  19.957   8.356
  232POPC   C3B 7713  37.290  20.152   7.983
  232POPC   C4B 7714  37.331  20.021   7.630
  233POPC   NC3 7715   4.015  11.142   9.437
  233POPC   PO4 7716   4.548  11.487   9.451
  233POPC   GL1 7717   4.363  11.295   9.093
  233POPC   GL2 7718   4.626  11.070   9.038
  233POPC   C1A 7719   4.012  11.340   8.805
  233POPC   D2A 7720   3.993  11.573   8.438
  233POPC   C3A 7721   4.228  11.387   8.135
  233POPC   C4A 7722   4.100  11.403   7.710
  233POPC   C1B 7723   4.547  11.263   8.608
  233POPC   C2B 7724   4.693  11.167   8.173
  233POPC   C3B 7725   4.603  11.252   7.727
  233POPC   C4B 7726   4.655  10.948   7.335
  234POPC   NC3 7727  26.389   6.458   9.465
  234POPC   PO4 7728  26.110   6.939   9.800
  234POPC   GL1 7729  26.049   6.915   9.323
  234POPC   GL2 7730  25.819   6.652   9.264
  234POPC   C1A 7731  26.187   6.808   8.872
  234POPC   D2A 7732  26.342   6.855   8.412
  234POPC   C3A 7733  26.112   6.654   8.076
  234POPC   C4A 7734  26.152   6.581   7.645
  234POPC   C1B 7735  25.766   6.513   8.841
  234POPC   C2B 7736  26.049   6.387   8.543
  234POPC   C3B 7737  25.945   6.169   8.188
  234POPC   C4B 7738  25.727   6.377   7.829
  235POPC   NC3 7739  14.189  16.492   9.383
  235POPC   PO4 7740  13.605  16.745   9.498
  235POPC   GL1 7741  13.662  16.958   9.134
  235POPC   GL2 7742  14.026  16.971   9.209
  235POPC   C1A 7743  13.472  16.956   8.719
  235POPC   D2A 7744  13.187  16.664   8.497
  235POPC   C3A 7745  13.201  16.720   8.074
  235POPC   C4A 7746  13.284  17.097   7.946
  235POPC   C1B 7747  14.019  16.990   8.749
  235POPC   C2B 7748  13.861  17.092   8.329
  235POPC   C3B 7749  13.777  16.842   7.950
  235POPC   C4B 7750  14.063  16.483   7.804
  236POPC   NC3 7751  35.733  28.655   9.493
  236POPC   PO4 7752  35.248  28.096   9.513
  236POPC   GL1 7753  35.480  28.258   9.137
  236POPC   GL2 7754  35.702  28.535   9.011
  236POPC   C1A 7755  35.562  28.159   8.712
  236POPC   D2A 7756  35.545  27.978   8.313
  236POPC   C3A 7757  35.137  28.110   8.172
  236POPC   C4A 7758  34.988  28.451   7.883
  236POPC   C1B 7759  35.449  28.681   8.651
  236POPC   C2B 7760  35.349  28.583   8.217
  236POPC   C3B 7761  35.507  28.779   7.829
  236POPC   C4B 7762  35.751  28.776   7.439
  237POPC   NC3 7763  17.553   1.122   9.608
  237POPC   PO4 7764  17.643   1.672   9.276
  237POPC   GL1 7765  17.303   1.346   9.197
  237POPC   GL2 7766  17.573   1.197   9.077
  237POPC   C1A 7767  17.252   1.052   8.756
  237POPC   D2A 7768  17.570   1.231   8.400
  237POPC   C3A 7769  17.597   0.999   8.028
  237POPC   C4A 7770  17.372   0.996   7.657
  237POPC   C1B 7771  17.355   1.533   8.735
  237POPC   C2B 7772  17.304   1.680   8.306
  237POPC   C3B 7773  17.586   1.558   7.950
  237POPC   C4B 7774  17.514   1.453   7.519
  238POPC   NC3 7775  42.503  31.603   9.790
  238POPC   PO4 7776  42.045  31.234   9.562
  238POPC   GL1 7777  42.159  31.397   9.203
  238POPC   GL2 7778  42.523  31.455   9.256
  238POPC   C1A 7779  42.149  31.172   8.812
  238POPC   D2A 7780  42.073  31.155   8.366
  238POPC   C3A 7781  42.366  31.421   8.119
  238POPC   C4A 7782  42.410  31.570   7.707
  238POPC   C1B 7783  42.409  31.645   8.844
  238POPC   C2B 7784  42.235  31.789   8.460
  238POPC   C3B 7785  42.360  31.953   8.099
  238POPC   C4B 7786  42.242  32.070   7.708
  239POPC   NC3 7787   2.999  19.398   9.524
  239POPC   PO4 7788   2.683  19.923   9.562
  239POPC   GL1 7789   2.725  19.892   9.130
  239POPC   GL2 7790   2.921  19.594   9.064
  239POPC   C1A 7791   2.547  19.714   8.740
  239POPC   D2A 7792   2.369  19.595   8.355
  239POPC   C3A 7793   2.538  19.891   8.099
  239POPC   C4A 7794   2.461  20.050   7.704
  239POPC   C1B 7795   3.137  19.533   8.653
  239POPC   C2B 7796   3.070  19.699   8.228
  239POPC   C3B 7797   2.860  19.542   7.880
  239POPC   C4B 7798   2.900  19.373   7.478
  240POPC   NC3 7799  37.837  24.602   9.410
  240POPC   PO4 7800  38.521  24.385   9.484
  240POPC   GL1 7801  38.326  24.444   9.150
  240POPC   GL2 7802  38.232  24.803   9.151
  240POPC   C1A 7803  38.435  24.267   8.738
  240POPC   D2A 7804  38.502  24.562   8.390
  240POPC   C3A 7805  38.620  24.415   8.003
  240POPC   C4A 7806  38.618  24.455   7.553
  240POPC   C1B 7807  38.080  24.616   8.758
  240POPC   C2B 7808  38.012  24.427   8.340
  240POPC   C3B 7809  38.139  24.641   7.961
  240POPC   C4B 7810  38.102  24.596   7.537
  241POPC   NC3 7811  33.156   0.736   9.656
  241POPC   PO4 7812  32.997   0.083   9.455
  241POPC   GL1 7813  33.012   0.297   9.070
  241POPC   GL2 7814  32.997   0.646   9.170
  241POPC   C1A 7815  32.924   0.237   8.640
  241POPC   D2A 7816  32.987   0.456   8.257
  241POPC   C3A 7817  33.363   0.374   8.036
  241POPC   C4A 7818  33.168   0.052   7.782
  241POPC   C1B 7819  33.004   0.757   8.727
  241POPC   C2B 7820  32.819   0.928   8.314
  241POPC   C3B 7821  32.695   0.781   7.918
  241POPC   C4B 7822  33.095   0.742   7.799
  242POPC   NC3 7823   8.621  35.328   9.436
  242POPC   PO4 7824   9.165  34.944   9.451
  242POPC   GL1 7825   9.268  35.163   9.106
  242POPC   GL2 7826   8.974  35.403   9.053
  242POPC   C1A 7827   9.136  35.060   8.719
  242POPC   D2A 7828   8.852  35.225   8.472
  242POPC   C3A 7829   8.908  35.105   8.069
  242POPC   C4A 7830   8.694  35.398   7.875
  242POPC   C1B 7831   9.193  35.566   8.686
  242POPC   C2B 7832   9.318  35.349   8.295
  242POPC   C3B 7833   9.217  35.497   7.920
  242POPC   C4B 7834   9.340  35.860   7.785
  243POPC   NC3 7835  30.505  26.956   9.534
  243POPC   PO4 7836  31.066  26.662   9.496
  243POPC   GL1 7837  30.829  26.801   9.160
  243POPC   GL2 7838  30.545  26.556   9.195
  243POPC   C1A 7839  30.779  26.657   8.739
  243POPC   D2A 7840  30.957  26.613   8.347
  243POPC   C3A 7841  30.706  26.773   8.042
  243POPC   C4A 7842  30.861  26.612   7.682
  243POPC   C1B 7843  30.275  26.538   8.829
  243POPC   C2B 7844  30.304  26.745   8.429
  243POPC   C3B 7845  30.243  26.522   8.056
  243POPC   C4B 7846  30.268  26.702   7.677
  244POPC   NC3 7847  34.682  10.246   9.476
  244POPC   PO4 7848  34.766  10.954   9.475
  244POPC   GL1 7849  34.767  10.642   9.131
  244POPC   GL2 7850  34.430  10.530   9.125
  244POPC   C1A 7851  34.639  10.709   8.681
  244POPC   D2A 7852  34.730  10.522   8.262
  244POPC   C3A 7853  34.676  10.628   7.785
  244POPC   C4A 7854  34.752  10.428   7.352
  244POPC   C1B 7855  34.316  10.289   8.771
  244POPC   C2B 7856  34.400  10.089   8.381
  244POPC   C3B 7857  34.177  10.218   8.015
  244POPC   C4B 7858  34.275  10.333   7.592
  245POPC   NC3 7859  22.112   2.607   9.338
  245POPC   PO4 7860  22.508   3.064   9.328
  245POPC   GL1 7861  22.240   2.986   8.984
  245POPC   GL2 7862  22.451   2.719   8.938
  245POPC   C1A 7863  22.102   3.067   8.529
  245POPC   D2A 7864  22.348   3.212   8.164
  245POPC   C3A 7865  22.389   2.890   7.858
  245POPC   C4A 7866  22.141   2.479   7.748
  245POPC   C1B 7867  22.231   2.584   8.633
  245POPC   C2B 7868  22.264   2.436   8.225
  245POPC   C3B 7869  22.625   2.452   7.897
  245POPC   C4B 7870  22.786   2.726   7.538
  246POPC   NC3 7871   4.955  13.938   9.360
  246POPC   PO4 7872   5.395  13.462   9.519
  246POPC   GL1 7873   5.373  13.606   9.098
  246POPC   GL2 7874   5.002  13.614   8.987
  246POPC   C1A 7875   5.339  13.406   8.670
  246POPC   D2A 7876   4.976  13.520   8.431
  246POPC   C3A 7877   4.999  13.767   8.085
  246POPC   C4A 7878   4.905  13.664   7.659
  246POPC   C1B 7879   5.155  13.919   8.692
  246POPC   C2B 7880   5.189  14.184   8.361
  246POPC   C3B 7881   5.367  14.109   7.971
  246POPC   C4B 7882   5.418  13.735   7.758
  247POPC   NC3 7883  22.591  30.816   9.392
  247POPC   PO4 7884  22.978  30.357   9.490
  247POPC   GL1 7885  23.155  30.613   9.141
  247POPC   GL2 7886  22.850  30.689   8.991
  247POPC   C1A 7887  23.278  30.787   8.727
  247POPC   D2A 7888  23.443  30.824   8.323
  247POPC   C3A 7889  23.198  30.898   7.948
  247POPC   C4A 7890  23.145  30.824   7.500
  247POPC   C1B 7891  22.869  30.468   8.650
  247POPC   C2B 7892  22.902  30.694   8.325
  247POPC   C3B 7893  22.581  30.680   8.057
  247POPC   C4B 7894  22.693  30.791   7.684
  248POPC   NC3 7895  17.922  37.706   9.440
  248POPC   PO4 7896  18.572  37.794   9.492
  248POPC   GL1 7897  18.547  37.961   9.075
  248POPC   GL2 7898  18.183  38.027   9.091
  248POPC   C1A 7899  18.431  37.849   8.626
  248POPC   D2A 7900  18.203  37.761   8.208
  248POPC   C3A 7901  18.278  37.818   7.733
  248POPC   C4A 7902  18.421  37.959   7.305
  248POPC   C1B 7903  17.926  37.907   8.725
  248POPC   C2B 7904  17.698  37.674   8.387
  248POPC   C3B 7905  17.750  37.612   7.938
  248POPC   C4B 7906  18.100  37.346   7.794
  249POPC   NC3 7907   2.593  14.405   9.499
  249POPC   PO4 7908   3.144  14.597   9.325
  249POPC   GL1 7909   2.885  14.378   9.072
  249POPC   GL2 7910   2.521  14.464   8.996
  249POPC   C1A 7911   2.932  14.522   8.675
  249POPC   D2A 7912   2.654  14.569   8.366
  249POPC   C3A 7913   2.980  14.453   8.096
  249POPC   C4A 7914   3.029  14.463   7.655
  249POPC   C1B 7915   2.589  14.137   8.699
  249POPC   C2B 7916   2.564  14.061   8.257
  249POPC   C3B 7917   2.646  14.186   7.829
  249POPC   C4B 7918   2.738  14.069   7.410
  250POPC   NC3 7919   3.434   3.970   9.307
  250POPC   PO4 7920   3.478   3.383   9.564
  250POPC   GL1 7921   3.623   3.320   9.132
  250POPC   GL2 7922   3.330   3.508   9.057
  250POPC   C1A 7923   3.568   3.279   8.673
  250POPC   D2A 7924   3.624   3.545   8.293
  250POPC   C3A 7925   3.506   3.315   7.928
  250POPC   C4A 7926   3.139   3.171   7.730
  250POPC   C1B 7927   3.492   3.779   8.716
  250POPC   C2B 7928   3.729   4.028   8.445
  250POPC   C3B 7929   3.716   4.037   8.006
  250POPC   C4B 7930   3.513   3.772   7.712
  251POPC   NC3 7931  27.324  20.646   9.681
  251POPC   PO4 7932  26.674  20.487   9.368
  251POPC   GL1 7933  26.783  20.651   9.010
  251POPC   GL2 7934  26.865  20.329   8.889
  251POPC   C1A 7935  26.729  20.668   8.563
  251POPC   D2A 7936  26.487  20.374   8.378
  251POPC   C3A 7937  26.557  20.536   8.006
  251POPC   C4A 7938  26.869  20.755   7.803
  251POPC   C1B 7939  27.135  20.299   8.563
  251POPC   C2B 7940  27.064  20.423   8.165
  251POPC   C3B 7941  26.922  20.204   7.822
  251POPC   C4B 7942  26.978  20.157   7.372
  252POPC   NC3 7943  37.846  22.612   9.490
  252POPC   PO4 7944  37.488  23.046   9.843
  252POPC   GL1 7945  37.522  22.993   9.309
  252POPC   GL2 7946  37.453  22.701   9.098
  252POPC   C1A 7947  37.572  23.103   8.836
  252POPC   D2A 7948  37.736  23.003   8.403
  252POPC   C3A 7949  37.636  22.848   7.991
  252POPC   C4A 7950  37.583  23.096   7.610
  252POPC   C1B 7951  37.536  22.582   8.660
  252POPC   C2B 7952  37.290  22.596   8.275
  252POPC   C3B 7953  37.295  22.517   7.822
  252POPC   C4B 7954  37.660  22.588   7.491
  253POPC   NC3 7955  37.725  44.216   9.566
  253POPC   PO4 7956  37.410  43.515   9.527
  253POPC   GL1 7957  37.653  43.839   9.219
  253POPC   GL2 7958  38.032  43.748   9.141
  253POPC   C1A 7959  37.743  43.795   8.748
  253POPC   D2A 7960  37.973  43.817   8.386
  253POPC   C3A 7961  37.759  43.815   8.017
  253POPC   C4A 7962  37.489  43.530   7.874
  253POPC   C1B 7963  38.126  44.126   8.818
  253POPC   C2B 7964  38.125  44.273   8.350
  253POPC   C3B 7965  38.187  44.049   7.938
  253POPC   C4B 7966  37.882  44.008   7.548
  254POPC   NC3 7967  20.485  16.602   9.466
  254POPC   PO4 7968  20.884  17.060   9.229
  254POPC   GL1 7969  20.623  16.803   9.016
  254POPC   GL2 7970  20.662  16.455   9.019
  254POPC   C1A 7971  20.550  16.801   8.603
  254POPC   D2A 7972  20.587  17.100   8.340
  254POPC   C3A 7973  20.572  16.927   7.962
  254POPC   C4A 7974  20.943  16.887   7.695
  254POPC   C1B 7975  20.309  16.391   8.752
  254POPC   C2B 7976  20.092  16.460   8.351
  254POPC   C3B 7977  20.219  16.340   7.925
  254POPC   C4B 7978  20.583  16.506   7.668
  255POPC   NC3 7979  28.319  43.601   9.476
  255POPC   PO4 7980  28.191  44.202   9.462
  255POPC   GL1 7981  28.119  43.918   9.123
  255POPC   GL2 7982  28.440  44.009   8.967
  255POPC   C1A 7983  28.095  43.715   8.731
  255POPC   D2A 7984  28.377  43.887   8.413
  255POPC   C3A 7985  28.156  43.932   8.034
  255POPC   C4A 7986  28.230  43.821   7.616
  255POPC   C1B 7987  28.110  44.251   8.705
  255POPC   C2B 7988  28.197  44.398   8.256
  255POPC   C3B 7989  28.427  44.332   7.818
  255POPC   C4B 7990  28.287  44.285   7.380
  256POPC   NC3 7991  32.423  20.325   9.534
  256POPC   PO4 7992  31.822  20.673   9.553
  256POPC   GL1 7993  31.974  20.439   9.226
  256POPC   GL2 7994  32.222  20.644   9.179
  256POPC   C1A 7995  32.004  20.345   8.780
  256POPC   D2A 7996  32.245  20.436   8.389
  256POPC   C3A 7997  32.210  20.318   7.947
  256POPC   C4A 7998  32.181  20.373   7.468
  256POPC   C1B 7999  32.418  20.767   8.831
  256POPC   C2B 8000  32.339  20.917   8.462
  256POPC   C3B 8001  32.441  20.789   8.052
  256POPC   C4B 8002  32.117  20.801   7.747
  257POPC   NC3 8003  26.303  23.073   9.475
  257POPC   PO4 8004  26.902  22.725   9.495
  257POPC   GL1 8005  26.746  22.668   9.118
  257POPC   GL2 8006  26.369  22.614   9.166
  257POPC   C1A 8007  26.911  22.939   8.785
  257POPC   D2A 8008  26.702  23.107   8.396
  257POPC   C3A 8009  26.958  23.025   8.020
  257POPC   C4A 8010  27.099  22.666   7.766
  257POPC   C1B 8011  26.408  22.942   8.842
  257POPC   C2B 8012  26.223  23.225   8.568
  257POPC   C3B 8013  26.244  23.194   8.117
  257POPC   C4B 8014  26.526  23.117   7.762
  258POPC   NC3 8015   8.149  44.873   9.453
  258POPC   PO4 8016   8.308   0.471   9.475
  258POPC   GL1 8017   8.098   0.535   9.120
  258POPC   GL2 8018   8.034   0.209   9.089
  258POPC   C1A 8019   8.021   0.605   8.682
  258POPC   D2A 8020   7.968   0.866   8.314
  258POPC   C3A 8021   8.304   0.701   8.098
  258POPC   C4A 8022   8.445   0.684   7.705
  258POPC   C1B 8023   7.809   0.100   8.752
  258POPC   C2B 8024   7.994   0.134   8.414
  258POPC   C3B 8025   8.057   0.050   8.040
  258POPC   C4B 8026   8.079   0.345   7.743
  259POPC   NC3 8027   9.294  12.073   9.562
  259POPC   PO4 8028   8.584  12.251   9.539
  259POPC   GL1 8029   8.828  11.993   9.246
  259POPC   GL2 8030   8.555  11.972   9.027
  259POPC   C1A 8031   9.016  12.035   8.809
  259POPC   D2A 8032   8.844  12.053   8.364
  259POPC   C3A 8033   9.045  12.067   7.942
  259POPC   C4A 8034   8.921  11.946   7.512
  259POPC   C1B 8035   8.513  12.259   8.718
  259POPC   C2B 8036   8.414  12.468   8.326
  259POPC   C3B 8037   8.574  12.268   7.974
  259POPC   C4B 8038   8.593  12.334   7.525
  260POPC   NC3 8039  34.903   8.645   9.663
  260POPC   PO4 8040  34.257   8.931   9.534
  260POPC   GL1 8041  34.477   9.029   9.175
  260POPC   GL2 8042  34.684   8.773   9.205
  260POPC   C1A 8043  34.667   9.185   8.802
  260POPC   D2A 8044  34.849   9.018   8.364
  260POPC   C3A 8045  34.852   9.220   7.936
  260POPC   C4A 8046  34.464   9.297   7.722
  260POPC   C1B 8047  34.646   8.670   8.752
  260POPC   C2B 8048  34.694   8.501   8.318
  260POPC   C3B 8049  34.620   8.758   7.942
  260POPC   C4B 8050  34.404   8.745   7.564
  261POPC   NC3 8051   4.073   4.570   9.485
  261POPC   PO4 8052   4.609   4.128   9.665
  261POPC   GL1 8053   4.513   4.340   9.264
  261POPC   GL2 8054   4.224   4.183   9.165
  261POPC   C1A 8055   4.501   4.573   8.838
  261POPC   D2A 8056   4.543   4.752   8.370
  261POPC   C3A 8057   4.439   4.412   8.031
  261POPC   C4A 8058   4.071   4.326   7.775
  261POPC   C1B 8059   4.356   3.964   8.808
  261POPC   C2B 8060   4.247   3.995   8.379
  261POPC   C3B 8061   4.399   3.882   7.997
  261POPC   C4B 8062   4.456   4.044   7.592
  262POPC   NC3 8063  36.873  18.794   9.659
  262POPC   PO4 8064  37.093  19.326   9.568
  262POPC   GL1 8065  36.842  19.133   9.201
  262POPC   GL2 8066  36.919  18.791   9.152
  262POPC   C1A 8067  36.775  19.281   8.751
  262POPC   D2A 8068  36.606  19.149   8.340
  262POPC   C3A 8069  36.848  19.298   7.978
  262POPC   C4A 8070  36.842  19.308   7.517
  262POPC   C1B 8071  36.612  18.797   8.831
  262POPC   C2B 8072  36.586  18.643   8.380
  262POPC   C3B 8073  36.789  18.750   7.976
  262POPC   C4B 8074  36.837  18.814   7.508
  263POPC   NC3 8075  30.992  28.003   9.500
  263POPC   PO4 8076  30.684  27.383   9.552
  263POPC   GL1 8077  30.760  27.550   9.134
  263POPC   GL2 8078  30.709  27.925   9.078
  263POPC   C1A 8079  30.691  27.375   8.693
  263POPC   D2A 8080  30.573  27.511   8.248
  263POPC   C3A 8081  30.864  27.443   7.898
  263POPC   C4A 8082  31.090  27.371   7.520
  263POPC   C1B 8083  30.368  27.759   8.816
  263POPC   C2B 8084  30.180  27.824   8.401
  263POPC   C3B 8085  30.218  27.836   7.987
  263POPC   C4B 8086  30.391  27.522   7.729
  264POPC   NC3 8087  28.080   7.657   9.550
  264POPC   PO4 8088  28.700   7.322   9.495
  264POPC   GL1 8089  28.490   7.437   9.147
  264POPC   GL2 8090  28.291   7.719   9.097
  264POPC   C1A 8091  28.640   7.583   8.755
  264POPC   D2A 8092  28.559   7.829   8.424
  264POPC   C3A 8093  28.496   7.574   8.065
  264POPC   C4A 8094  28.550   7.695   7.659
  264POPC   C1B 8095  28.120   7.629   8.683
  264POPC   C2B 8096  28.052   7.368   8.317
  264POPC   C3B 8097  28.002   7.397   7.887
  264POPC   C4B 8098  28.079   7.550   7.494
  265POPC   NC3 8099  12.761  37.836   9.508
  265POPC   PO4 8100  13.293  37.316   9.382
  265POPC   GL1 8101  13.011  37.591   9.161
  265POPC   GL2 8102  12.667  37.550   9.120
  265POPC   C1A 8103  13.001  37.813   8.771
  265POPC   D2A 8104  13.145  37.629   8.388
  265POPC   C3A 8105  13.100  37.853   7.990
  265POPC   C4A 8106  12.943  37.702   7.581
  265POPC   C1B 8107  12.684  37.410   8.747
  265POPC   C2B 8108  12.484  37.568   8.417
  265POPC   C3B 8109  12.522  37.667   8.026
  265POPC   C4B 8110  12.492  37.479   7.725
  266POPC   NC3 8111   7.686  24.875   9.476
  266POPC   PO4 8112   7.106  24.444   9.471
  266POPC   GL1 8113   7.526  24.483   9.186
  266POPC   GL2 8114   7.678  24.769   8.989
  266POPC   C1A 8115   7.656  24.324   8.765
  266POPC   D2A 8116   7.641  24.638   8.422
  266POPC   C3A 8117   7.428  24.531   8.030
  266POPC   C4A 8118   7.269  24.218   7.753
  266POPC   C1B 8119   7.261  24.674   8.803
  266POPC   C2B 8120   7.127  24.482   8.444
  266POPC   C3B 8121   6.935  24.690   8.106
  266POPC   C4B 8122   6.966  24.732   7.696
  267POPC   NC3 8123  21.661  10.732   9.489
  267POPC   PO4 8124  21.675  10.192   9.352
  267POPC   GL1 8125  21.635  10.532   9.015
  267POPC   GL2 8126  21.375  10.823   9.063
  267POPC   C1A 8127  21.600  10.558   8.572
  267POPC   D2A 8128  21.229  10.633   8.336
  267POPC   C3A 8129  21.229  10.626   7.906
  267POPC   C4A 8130  21.132  10.337   7.564
  267POPC   C1B 8131  21.590  11.047   8.733
  267POPC   C2B 8132  21.587  11.022   8.282
  267POPC   C3B 8133  21.588  11.011   7.831
  267POPC   C4B 8134  21.818  11.110   7.452
  268POPC   NC3 8135  44.711  31.853   9.602
  268POPC   PO4 8136  44.591  32.549   9.696
  268POPC   GL1 8137  44.558  32.256   9.296
  268POPC   GL2 8138  44.876  32.039   9.168
  268POPC   C1A 8139  44.583  32.265   8.825
  268POPC   D2A 8140  44.548  32.490   8.421
  268POPC   C3A 8141  44.683  32.173   8.133
  268POPC   C4A 8142  44.404  31.906   7.923
  268POPC   C1B 8143  44.779  31.757   8.813
  268POPC   C2B 8144  44.623  31.692   8.386
  268POPC   C3B 8145  44.872  31.675   8.013
  268POPC   C4B 8146   0.103  31.735   7.641
  269POPC   NC3 8147  23.658  29.476   9.558
  269POPC   PO4 8148  23.939  30.190   9.389
  269POPC   GL1 8149  23.685  29.990   9.059
  269POPC   GL2 8150  23.734  29.651   9.083
  269POPC   C1A 8151  23.459  29.777   8.697
  269POPC   D2A 8152  23.333  29.796   8.293
  269POPC   C3A 8153  23.713  29.948   8.122
  269POPC   C4A 8154  23.832  30.098   7.722
  269POPC   C1B 8155  24.027  29.796   8.718
  269POPC   C2B 8156  24.145  29.654   8.294
  269POPC   C3B 8157  24.035  29.609   7.856
  269POPC   C4B 8158  23.597  29.501   7.867
  270POPC   NC3 8159  39.487  10.134   9.472
  270POPC   PO4 8160  38.957   9.740   9.374
  270POPC   GL1 8161  39.158   9.963   9.091
  270POPC   GL2 8162  39.456   9.798   9.080
  270POPC   C1A 8163  39.078   9.872   8.666
  270POPC   D2A 8164  39.071   9.612   8.324
  270POPC   C3A 8165  38.971   9.813   7.962
  270POPC   C4A 8166  38.891   9.649   7.604
  270POPC   C1B 8167  39.560  10.044   8.735
  270POPC   C2B 8168  39.441  10.035   8.298
  270POPC   C3B 8169  39.479   9.693   8.019
  270POPC   C4B 8170  39.381   9.649   7.631
  271POPC   NC3 8171  38.225  19.858   9.483
  271POPC   PO4 8172  38.829  19.773   9.495
  271POPC   GL1 8173  38.555  19.832   9.080
  271POPC   GL2 8174  38.184  19.863   8.981
  271POPC   C1A 8175  38.518  19.771   8.607
  271POPC   D2A 8176  38.478  19.434   8.303
  271POPC   C3A 8177  38.564  19.532   7.870
  271POPC   C4A 8178  38.669  19.900   7.649
  271POPC   C1B 8179  38.051  19.973   8.554
  271POPC   C2B 8180  38.196  19.830   8.143
  271POPC   C3B 8181  38.218  20.105   7.792
  271POPC   C4B 8182  38.030  20.399   7.480
  272POPC   NC3 8183  36.476  39.884   9.450
  272POPC   PO4 8184  35.833  39.846   9.382
  272POPC   GL1 8185  35.992  40.124   9.067
  272POPC   GL2 8186  36.318  40.254   9.112
  272POPC   C1A 8187  35.906  40.023   8.666
  272POPC   D2A 8188  35.846  39.620   8.412
  272POPC   C3A 8189  35.827  39.749   7.975
  272POPC   C4A 8190  35.880  40.049   7.634
  272POPC   C1B 8191  36.416  40.053   8.732
  272POPC   C2B 8192  36.248  39.972   8.316
  272POPC   C3B 8193  36.289  40.114   7.931
  272POPC   C4B 8194  36.369  39.868   7.581
  273POPC   NC3 8195  20.187   5.551   9.471
  273POPC   PO4 8196  19.569   5.803   9.685
  273POPC   GL1 8197  19.627   5.595   9.243
  273POPC   GL2 8198  19.930   5.665   9.051
  273POPC   C1A 8199  19.516   5.641   8.764
  273POPC   D2A 8200  19.814   5.750   8.413
  273POPC   C3A 8201  19.848   5.940   8.012
  273POPC   C4A 8202  19.946   5.563   7.778
  273POPC   C1B 8203  19.850   6.063   8.817
  273POPC   C2B 8204  19.944   6.249   8.411
  273POPC   C3B 8205  20.221   6.341   8.025
  273POPC   C4B 8206  20.111   6.357   7.575
  274POPC   NC3 8207   3.679   5.488   9.442
  274POPC   PO4 8208   3.701   4.847   9.499
  274POPC   GL1 8209   3.754   5.089   9.112
  274POPC   GL2 8210   3.454   5.299   9.036
  274POPC   C1A 8211   3.893   5.341   8.753
  274POPC   D2A 8212   3.780   5.560   8.338
  274POPC   C3A 8213   3.810   5.381   7.966
  274POPC   C4A 8214   3.684   5.041   7.727
  274POPC   C1B 8215   3.424   5.214   8.579
  274POPC   C2B 8216   3.316   5.286   8.148
  274POPC   C3B 8217   3.140   5.074   7.798
  274POPC   C4B 8218   3.190   5.088   7.354
  275POPC   NC3 8219  30.835  13.567   9.561
  275POPC   PO4 8220  30.533  14.134   9.348
  275POPC   GL1 8221  30.700  13.818   9.109
  275POPC   GL2 8222  30.498  13.546   9.083
  275POPC   C1A 8223  30.654  13.755   8.660
  275POPC   D2A 8224  30.805  13.942   8.289
  275POPC   C3A 8225  30.714  13.766   7.882
  275POPC   C4A 8226  31.012  13.703   7.565
  275POPC   C1B 8227  30.532  13.269   8.766
  275POPC   C2B 8228  30.803  13.344   8.397
  275POPC   C3B 8229  30.792  13.257   7.963
  275POPC   C4B 8230  30.710  13.295   7.497
  276POPC   NC3 8231  17.205  38.724   9.471
  276POPC   PO4 8232  17.630  38.090   9.399
  276POPC   GL1 8233  17.740  38.301   9.020
  276POPC   GL2 8234  17.563  38.567   9.082
  276POPC   C1A 8235  17.572  38.260   8.618
  276POPC   D2A 8236  17.344  38.033   8.325
  276POPC   C3A 8237  17.354  38.235   7.995
  276POPC   C4A 8238  17.677  38.461   7.823
  276POPC   C1B 8239  17.388  38.718   8.692
  276POPC   C2B 8240  17.474  38.688   8.270
  276POPC   C3B 8241  17.253  38.715   7.907
  276POPC   C4B 8242  17.151  38.936   7.549
  277POPC   NC3 8243  37.681  14.784   9.633
  277POPC   PO4 8244  37.383  14.219   9.402
  277POPC   GL1 8245  37.615  14.467   9.154
  277POPC   GL2 8246  37.930  14.392   9.330
  277POPC   C1A 8247  37.371  14.549   8.787
  277POPC   D2A 8248  37.527  14.557   8.401
  277POPC   C3A 8249  37.329  14.414   8.084
  277POPC   C4A 8250  37.493  14.519   7.704
  277POPC   C1B 8251  38.087  14.381   8.903
  277POPC   C2B 8252  38.033  14.492   8.456
  277POPC   C3B 8253  37.866  14.402   8.033
  277POPC   C4B 8254  37.999  14.604   7.666
  278POPC   NC3 8255   9.838  31.950   9.601
  278POPC   PO4 8256   9.375  31.445   9.462
  278POPC   GL1 8257   9.618  31.466   9.129
  278POPC   GL2 8258   9.896  31.696   9.153
  278POPC   C1A 8259   9.829  31.331   8.783
  278POPC   D2A 8260   9.990  31.229   8.399
  278POPC   C3A 8261   9.712  31.338   8.096
  278POPC   C4A 8262   9.623  31.153   7.715
  278POPC   C1B 8263   9.658  31.852   8.817
  278POPC   C2B 8264   9.546  31.722   8.419
  278POPC   C3B 8265   9.614  31.862   8.009
  278POPC   C4B 8266   9.457  31.619   7.702
  279POPC   NC3 8267  16.597  17.637   9.532
  279POPC   PO4 8268  16.845  17.086   9.877
  279POPC   GL1 8269  16.921  17.268   9.404
  279POPC   GL2 8270  16.628  17.279   9.179
  279POPC   C1A 8271  17.003  17.513   8.959
  279POPC   D2A 8272  17.162  17.348   8.545
  279POPC   C3A 8273  17.004  17.479   8.142
  279POPC   C4A 8274  16.813  17.641   7.759
  279POPC   C1B 8275  16.507  17.567   8.842
  279POPC   C2B 8276  16.599  17.593   8.434
  279POPC   C3B 8277  16.479  17.433   8.069
  279POPC   C4B 8278  16.379  17.362   7.675
  280POPC   NC3 8279  24.397   4.936   9.707
  280POPC   PO4 8280  23.699   4.928   9.456
  280POPC   GL1 8281  23.794   4.971   9.045
  280POPC   GL2 8282  23.467   4.818   8.991
  280POPC   C1A 8283  23.768   5.214   8.674
  280POPC   D2A 8284  23.764   5.548   8.351
  280POPC   C3A 8285  23.662   5.495   7.930
  280POPC   C4A 8286  23.411   5.182   7.751
  280POPC   C1B 8287  23.582   4.743   8.556
  280POPC   C2B 8288  23.669   5.037   8.198
  280POPC   C3B 8289  23.940   5.065   7.819
  280POPC   C4B 8290  23.962   4.905   7.384
  281POPC   NC3 8291  10.755  21.934   9.533
  281POPC   PO4 8292  10.119  21.831   9.437
  281POPC   GL1 8293  10.430  21.906   9.132
  281POPC   GL2 8294  10.664  22.217   9.113
  281POPC   C1A 8295  10.435  21.996   8.728
  281POPC   D2A 8296  10.527  22.238   8.420
  281POPC   C3A 8297  10.487  21.882   8.085
  281POPC   C4A 8298  10.333  21.938   7.665
  281POPC   C1B 8299  10.941  21.976   8.800
  281POPC   C2B 8300  10.948  21.983   8.319
  281POPC   C3B 8301  10.742  22.283   7.970
  281POPC   C4B 8302  10.839  21.977   7.693
  282POPC   NC3 8303  19.438   5.260   9.625
  282POPC   PO4 8304  20.078   5.008   9.436
  282POPC   GL1 8305  19.867   5.132   9.090
  282POPC   GL2 8306  19.516   5.023   9.171
  282POPC   C1A 8307  19.967   5.304   8.662
  282POPC   D2A 8308  20.184   5.386   8.251
  282POPC   C3A 8309  20.086   5.077   7.931
  282POPC   C4A 8310  19.951   5.112   7.530
  282POPC   C1B 8311  19.520   5.029   8.728
  282POPC   C2B 8312  19.539   5.317   8.358
  282POPC   C3B 8313  19.597   5.203   7.934
  282POPC   C4B 8314  19.471   5.012   7.568
  283POPC   NC3 8315  18.510  17.557   9.799
  283POPC   PO4 8316  18.042  17.482   9.395
  283POPC   GL1 8317  18.433  17.357   9.251
  283POPC   GL2 8318  18.532  17.676   9.173
  283POPC   C1A 8319  18.516  17.329   8.791
  283POPC   D2A 8320  18.237  17.364   8.430
  283POPC   C3A 8321  18.406  17.250   8.028
  283POPC   C4A 8322  18.234  17.356   7.598
  283POPC   C1B 8323  18.741  17.803   8.801
  283POPC   C2B 8324  18.643  17.745   8.382
  283POPC   C3B 8325  18.445  17.794   7.989
  283POPC   C4B 8326  18.370  17.852   7.554
  284POPC   NC3 8327  34.058  41.030   9.512
  284POPC   PO4 8328  33.620  40.549   9.707
  284POPC   GL1 8329  33.678  40.685   9.170
  284POPC   GL2 8330  33.953  40.879   9.054
  284POPC   C1A 8331  33.861  40.508   8.709
  284POPC   D2A 8332  34.113  40.400   8.306
  284POPC   C3A 8333  33.950  40.359   7.848
  284POPC   C4A 8334  33.591  40.501   7.509
  284POPC   C1B 8335  33.849  41.024   8.644
  284POPC   C2B 8336  33.752  40.771   8.289
  284POPC   C3B 8337  33.787  40.836   7.843
  284POPC   C4B 8338  34.038  41.105   7.595
  285POPC   NC3 8339   2.358   9.465   9.520
  285POPC   PO4 8340   2.950   9.771   9.456
  285POPC   GL1 8341   2.700   9.756   9.111
  285POPC   GL2 8342   2.669   9.389   9.116
  285POPC   C1A 8343   2.529   9.933   8.698
  285POPC   D2A 8344   2.317   9.975   8.269
  285POPC   C3A 8345   2.503   9.729   7.900
  285POPC   C4A 8346   2.939   9.747   7.755
  285POPC   C1B 8347   2.793   9.469   8.703
  285POPC   C2B 8348   3.069   9.377   8.412
  285POPC   C3B 8349   3.107   9.320   7.980
  285POPC   C4B 8350   2.738   9.282   7.684
  286POPC   NC3 8351  18.210  31.172   9.561
  286POPC   PO4 8352  18.323  31.859   9.441
  286POPC   GL1 8353  18.108  31.545   9.205
  286POPC   GL2 8354  17.990  31.764   8.944
  286POPC   C1A 8355  18.161  31.258   8.855
  286POPC   D2A 8356  18.220  31.406   8.453
  286POPC   C3A 8357  18.213  31.251   8.056
  286POPC   C4A 8358  17.938  31.340   7.752
  286POPC   C1B 8359  18.437  31.725   8.802
  286POPC   C2B 8360  18.659  31.667   8.394
  286POPC   C3B 8361  18.542  31.628   7.953
  286POPC   C4B 8362  18.762  31.577   7.553
  287POPC   NC3 8363   3.209  27.787   9.527
  287POPC   PO4 8364   3.749  27.377   9.522
  287POPC   GL1 8365   3.475  27.493   9.220
  287POPC   GL2 8366   3.582  27.820   9.127
  287POPC   C1A 8367   3.470  27.448   8.816
  287POPC   D2A 8368   3.788  27.618   8.587
  287POPC   C3A 8369   3.723  27.745   8.218
  287POPC   C4A 8370   3.526  27.539   7.922
  287POPC   C1B 8371   3.604  28.078   8.737
  287POPC   C2B 8372   3.347  28.149   8.402
  287POPC   C3B 8373   3.296  27.983   8.021
  287POPC   C4B 8374   3.462  27.913   7.606
  288POPC   NC3 8375  36.137  22.824   9.494
  288POPC   PO4 8376  36.178  23.496   9.708
  288POPC   GL1 8377  36.216  23.317   9.279
  288POPC   GL2 8378  36.540  23.134   9.281
  288POPC   C1A 8379  36.125  23.285   8.816
  288POPC   D2A 8380  35.853  23.109   8.460
  288POPC   C3A 8381  35.988  22.915   8.062
  288POPC   C4A 8382  36.153  23.048   7.668
  288POPC   C1B 8383  36.566  22.918   8.876
  288POPC   C2B 8384  36.357  22.940   8.483
  288POPC   C3B 8385  36.484  22.866   8.069
  288POPC   C4B 8386  36.351  22.527   7.805
  289POPC   NC3 8387  40.579   8.615   9.375
  289POPC   PO4 8388  41.119   9.045   9.452
  289POPC   GL1 8389  40.927   8.901   9.096
  289POPC   GL2 8390  40.600   9.087   9.133
  289POPC   C1A 8391  40.880   9.093   8.688
  289POPC   D2A 8392  40.586   9.085   8.330
  289POPC   C3A 8393  40.746   9.137   7.923
  289POPC   C4A 8394  41.090   9.071   7.628
  289POPC   C1B 8395  40.432   8.871   8.772
  289POPC   C2B 8396  40.461   8.614   8.453
  289POPC   C3B 8397  40.593   8.647   8.042
  289POPC   C4B 8398  40.689   8.732   7.618
  290POPC   NC3 8399  14.806  23.555   9.414
  290POPC   PO4 8400  15.446  23.931   9.476
  290POPC   GL1 8401  15.306  23.707   9.142
  290POPC   GL2 8402  14.995  23.877   9.050
  290POPC   C1A 8403  15.454  23.706   8.731
  290POPC   D2A 8404  15.639  23.702   8.308
  290POPC   C3A 8405  15.417  23.832   7.959
  290POPC   C4A 8406  15.228  23.609   7.626
  290POPC   C1B 8407  14.961  23.549   8.748
  290POPC   C2B 8408  15.138  23.560   8.346
  290POPC   C3B 8409  14.939  23.725   8.045
  290POPC   C4B 8410  14.822  24.054   7.773
  291POPC   NC3 8411  19.846  33.628   9.616
  291POPC   PO4 8412  19.517  34.127   9.467
  291POPC   GL1 8413  19.732  33.874   9.151
  291POPC   GL2 8414  20.077  33.870   9.158
  291POPC   C1A 8415  19.738  33.925   8.691
  291POPC   D2A 8416  19.809  34.162   8.323
  291POPC   C3A 8417  19.739  33.950   7.904
  291POPC   C4A 8418  19.435  33.656   7.667
  291POPC   C1B 8419  20.188  33.700   8.716
  291POPC   C2B 8420  20.137  33.760   8.234
  291POPC   C3B 8421  20.188  33.695   7.770
  291POPC   C4B 8422  20.339  33.324   7.494
  292POPC   NC3 8423  43.565  36.806   9.417
  292POPC   PO4 8424  44.023  37.193   9.807
  292POPC   GL1 8425  44.022  37.116   9.212
  292POPC   GL2 8426  43.805  36.892   9.008
  292POPC   C1A 8427  44.156  37.003   8.701
  292POPC   D2A 8428  43.992  37.150   8.284
  292POPC   C3A 8429  43.890  36.897   7.887
  292POPC   C4A 8430  44.029  36.970   7.439
  292POPC   C1B 8431  43.614  36.984   8.612
  292POPC   C2B 8432  43.444  36.833   8.226
  292POPC   C3B 8433  43.392  36.868   7.797
  292POPC   C4B 8434  43.587  36.760   7.445
  293POPC   NC3 8435  15.639  10.376   9.395
  293POPC   PO4 8436  16.035  10.725   9.761
  293POPC   GL1 8437  16.078  10.587   9.312
  293POPC   GL2 8438  16.090  10.286   9.152
  293POPC   C1A 8439  16.054  10.658   8.826
  293POPC   D2A 8440  15.941  10.494   8.417
  293POPC   C3A 8441  15.770  10.771   8.078
  293POPC   C4A 8442  15.995  10.859   7.742
  293POPC   C1B 8443  15.932  10.094   8.755
  293POPC   C2B 8444  15.633  10.081   8.370
  293POPC   C3B 8445  15.706  10.298   7.934
  293POPC   C4B 8446  15.705  10.312   7.433
  294POPC   NC3 8447  28.837  22.608   9.372
  294POPC   PO4 8448  29.295  23.043   9.572
  294POPC   GL1 8449  29.208  22.929   9.158
  294POPC   GL2 8450  29.394  22.624   9.163
  294POPC   C1A 8451  29.106  23.135   8.738
  294POPC   D2A 8452  29.258  23.309   8.343
  294POPC   C3A 8453  28.997  23.138   8.008
  294POPC   C4A 8454  29.145  22.959   7.625
  294POPC   C1B 8455  29.178  22.598   8.746
  294POPC   C2B 8456  29.043  22.777   8.357
  294POPC   C3B 8457  28.838  22.646   7.990
  294POPC   C4B 8458  28.850  22.539   7.566
  295POPC   NC3 8459  27.066  27.973   9.554
  295POPC   PO4 8460  26.925  28.660   9.604
  295POPC   GL1 8461  26.988  28.409   9.261
  295POPC   GL2 8462  26.728  28.162   9.218
  295POPC   C1A 8463  27.019  28.371   8.825
  295POPC   D2A 8464  27.049  28.451   8.395
  295POPC   C3A 8465  27.008  28.169   8.045
  295POPC   C4A 8466  27.207  28.299   7.668
  295POPC   C1B 8467  26.653  28.004   8.804
  295POPC   C2B 8468  26.587  28.126   8.383
  295POPC   C3B 8469  26.452  28.147   7.966
  295POPC   C4B 8470  26.670  28.285   7.597
  296POPC   NC3 8471   8.910  36.285   9.460
  296POPC   PO4 8472   8.346  35.719   9.473
  296POPC   GL1 8473   8.714  35.823   9.197
  296POPC   GL2 8474   9.024  35.947   9.051
  296POPC   C1A 8475   8.699  35.770   8.727
  296POPC   D2A 8476   8.837  35.699   8.301
  296POPC   C3A 8477   9.020  36.047   8.140
  296POPC   C4A 8478   8.907  36.120   7.742
  296POPC   C1B 8479   9.067  36.260   8.729
  296POPC   C2B 8480   9.300  36.405   8.379
  296POPC   C3B 8481   9.512  36.318   7.984
  296POPC   C4B 8482   9.349  36.309   7.560
  297POPC   NC3 8483  29.396  31.037   9.291
  297POPC   PO4 8484  29.086  31.573   9.554
  297POPC   GL1 8485  29.163  31.716   9.166
  297POPC   GL2 8486  29.101  31.388   9.068
  297POPC   C1A 8487  29.345  31.749   8.773
  297POPC   D2A 8488  29.165  31.718   8.367
  297POPC   C3A 8489  29.382  31.855   8.036
  297POPC   C4A 8490  29.260  31.719   7.658
  297POPC   C1B 8491  29.114  31.317   8.660
  297POPC   C2B 8492  29.047  31.092   8.315
  297POPC   C3B 8493  29.040  31.333   7.946
  297POPC   C4B 8494  28.861  31.266   7.565
  298POPC   NC3 8495  33.842  42.679   9.562
  298POPC   PO4 8496  33.387  42.124   9.425
  298POPC   GL1 8497  33.725  42.291   9.210
  298POPC   GL2 8498  33.966  42.083   9.036
  298POPC   C1A 8499  33.590  42.368   8.822
  298POPC   D2A 8500  33.526  42.434   8.421
  298POPC   C3A 8501  33.634  42.231   8.093
  298POPC   C4A 8502  33.576  42.380   7.696
  298POPC   C1B 8503  34.069  42.489   8.803
  298POPC   C2B 8504  34.006  42.594   8.349
  298POPC   C3B 8505  34.033  42.452   7.924
  298POPC   C4B 8506  34.143  42.087   7.743
  299POPC   NC3 8507  21.882  14.741   9.557
  299POPC   PO4 8508  22.397  14.287   9.431
  299POPC   GL1 8509  22.072  14.449   9.173
  299POPC   GL2 8510  21.984  14.176   8.932
  299POPC   C1A 8511  21.838  14.636   8.812
  299POPC   D2A 8512  21.785  14.333   8.451
  299POPC   C3A 8513  21.941  14.428   8.026
  299POPC   C4A 8514  22.017  14.603   7.613
  299POPC   C1B 8515  22.310  14.465   8.717
  299POPC   C2B 8516  22.501  14.725   8.392
  299POPC   C3B 8517  22.481  14.585   7.987
  299POPC   C4B 8518  22.334  14.226   7.765
  300POPC   NC3 8519  18.414  19.167   9.476
  300POPC   PO4 8520  17.830  18.874   9.507
  300POPC   GL1 8521  18.148  18.936   9.125
  300POPC   GL2 8522  18.561  18.853   9.096
  300POPC   C1A 8523  18.210  19.212   8.766
  300POPC   D2A 8524  18.204  19.047   8.350
  300POPC   C3A 8525  18.133  19.072   7.912
  300POPC   C4A 8526  18.102  18.698   7.700
  300POPC   C1B 8527  18.710  19.226   8.838
  300POPC   C2B 8528  18.596  19.376   8.446
  300POPC   C3B 8529  18.622  19.193   8.055
  300POPC   C4B 8530  18.591  18.982   7.649
  301POPC   NC3 8531  26.486  24.829   9.306
  301POPC   PO4 8532  26.001  24.427   9.487
  301POPC   GL1 8533  25.832  24.468   9.087
  301POPC   GL2 8534  26.036  24.753   9.054
  301POPC   C1A 8535  25.891  24.524   8.612
  301POPC   D2A 8536  26.219  24.411   8.333
  301POPC   C3A 8537  26.117  24.269   7.911
  301POPC   C4A 8538  26.378  24.033   7.612
  301POPC   C1B 8539  26.257  24.865   8.687
  301POPC   C2B 8540  26.150  24.926   8.289
  301POPC   C3B 8541  26.291  24.748   7.937
  301POPC   C4B 8542  26.447  24.926   7.616
  302POPC   NC3 8543   7.765  27.392   9.373
  302POPC   PO4 8544   8.404  27.409   9.453
  302POPC   GL1 8545   8.202  27.586   9.099
  302POPC   GL2 8546   7.883  27.761   9.018
  302POPC   C1A 8547   8.336  27.649   8.690
  302POPC   D2A 8548   8.318  27.960   8.368
  302POPC   C3A 8549   8.310  27.747   7.972
  302POPC   C4A 8550   8.609  27.458   7.817
  302POPC   C1B 8551   7.880  27.422   8.708
  302POPC   C2B 8552   8.130  27.335   8.329
  302POPC   C3B 8553   8.039  27.281   7.920
  302POPC   C4B 8554   7.954  27.575   7.594
  303POPC   NC3 8555  35.051  27.695   9.661
  303POPC   PO4 8556  35.530  27.358   9.418
  303POPC   GL1 8557  35.362  27.648   9.141
  303POPC   GL2 8558  35.033  27.538   9.126
  303POPC   C1A 8559  35.304  27.718   8.703
  303POPC   D2A 8560  35.359  27.492   8.310
  303POPC   C3A 8561  35.305  27.717   7.900
  303POPC   C4A 8562  35.501  28.140   7.787
  303POPC   C1B 8563  35.099  27.258   8.733
  303POPC   C2B 8564  35.130  27.037   8.322
  303POPC   C3B 8565  35.074  27.236   7.909
  303POPC   C4B 8566  34.978  27.547   7.545
  304POPC   NC3 8567   5.603  15.594   9.663
  304POPC   PO4 8568   4.906  15.920   9.546
  304POPC   GL1 8569   5.060  16.032   9.193
  304POPC   GL2 8570   4.854  16.309   9.170
  304POPC   C1A 8571   5.251  15.890   8.842
  304POPC   D2A 8572   5.291  16.101   8.481
  304POPC   C3A 8573   5.104  15.924   8.149
  304POPC   C4A 8574   5.243  15.770   7.759
  304POPC   C1B 8575   4.921  16.301   8.759
  304POPC   C2B 8576   4.713  16.260   8.372
  304POPC   C3B 8577   4.731  16.222   7.930
  304POPC   C4B 8578   5.150  16.326   7.799
  305POPC   NC3 8579   4.981  23.044   9.653
  305POPC   PO4 8580   5.341  22.536   9.436
  305POPC   GL1 8581   5.065  22.779   9.232
  305POPC   GL2 8582   5.248  23.098   9.211
  305POPC   C1A 8583   4.931  22.802   8.844
  305POPC   D2A 8584   5.084  22.589   8.477
  305POPC   C3A 8585   5.062  22.706   8.058
  305POPC   C4A 8586   5.015  22.889   7.650
  305POPC   C1B 8587   5.095  23.303   8.858
  305POPC   C2B 8588   5.155  23.395   8.444
  305POPC   C3B 8589   5.154  23.217   8.039
  305POPC   C4B 8590   4.884  23.388   7.752
  306POPC   NC3 8591  42.005  30.777   9.528
  306POPC   PO4 8592  42.444  30.320   9.492
  306POPC   GL1 8593  42.333  30.385   9.092
  306POPC   GL2 8594  42.279  30.743   9.086
  306POPC   C1A 8595  42.603  30.432   8.734
  306POPC   D2A 8596  42.730  30.629   8.318
  306POPC   C3A 8597  42.594  30.465   7.911
  306POPC   C4A 8598  42.190  30.531   7.665
  306POPC   C1B 8599  42.071  30.640   8.691
  306POPC   C2B 8600  42.169  30.665   8.249
  306POPC   C3B 8601  42.333  30.930   7.947
  306POPC   C4B 8602  42.194  31.064   7.550
  307POPC   NC3 8603  44.740  28.542   9.450
  307POPC   PO4 8604  44.121  28.360   9.547
  307POPC   GL1 8605  44.363  28.286   9.153
  307POPC   GL2 8606  44.729  28.132   9.139
  307POPC   C1A 8607  44.494  28.538   8.807
  307POPC   D2A 8608  44.755  28.717   8.494
  307POPC   C3A 8609  44.694  28.558   8.115
  307POPC   C4A 8610  44.777  28.437   7.741
  307POPC   C1B 8611  44.806  28.115   8.706
  307POPC   C2B 8612  44.500  28.175   8.380
  307POPC   C3B 8613  44.448  28.086   7.945
  307POPC   C4B 8614  44.804  27.913   7.742
  308POPC   NC3 8615  26.349  35.472   9.540
  308POPC   PO4 8616  27.033  35.330   9.461
  308POPC   GL1 8617  26.800  35.171   9.128
  308POPC   GL2 8618  26.589  35.435   9.102
  308POPC   C1A 8619  26.911  35.022   8.711
  308POPC   D2A 8620  27.125  35.218   8.376
  308POPC   C3A 8621  27.121  35.099   7.945
  308POPC   C4A 8622  27.150  35.344   7.594
  308POPC   C1B 8623  26.712  35.493   8.707
  308POPC   C2B 8624  26.621  35.317   8.336
  308POPC   C3B 8625  26.801  35.493   8.012
  308POPC   C4B 8626  26.705  35.572   7.621
  309POPC   NC3 8627  27.427   4.134   9.484
  309POPC   PO4 8628  27.473   4.703   9.215
  309POPC   GL1 8629  27.750   4.361   9.093
  309POPC   GL2 8630  27.673   3.985   9.055
  309POPC   C1A 8631  27.639   4.301   8.658
  309POPC   D2A 8632  27.337   4.322   8.315
  309POPC   C3A 8633  27.626   4.175   8.017
  309POPC   C4A 8634  27.860   4.224   7.628
  309POPC   C1B 8635  27.273   3.937   8.789
  309POPC   C2B 8636  27.069   3.880   8.371
  309POPC   C3B 8637  27.146   3.943   7.904
  309POPC   C4B 8638  27.355   4.203   7.590
  310POPC   NC3 8639  44.975  23.612   9.872
  310POPC   PO4 8640   0.433  24.023   9.553
  310POPC   GL1 8641   0.394  23.796   9.200
  310POPC   GL2 8642   0.048  23.781   9.209
  310POPC   C1A 8643   0.598  23.805   8.791
  310POPC   D2A 8644   0.519  23.845   8.355
  310POPC   C3A 8645   0.611  23.506   8.116
  310POPC   C4A 8646   0.571  23.555   7.714
  310POPC   C1B 8647   0.104  23.621   8.783
  310POPC   C2B 8648   0.163  23.432   8.378
  310POPC   C3B 8649   0.125  23.648   8.008
  310POPC   C4B 8650   0.066  23.534   7.584
  311POPC   NC3 8651  42.371  37.292   9.721
  311POPC   PO4 8652  42.019  37.833   9.629
  311POPC   GL1 8653  42.329  37.750   9.316
  311POPC   GL2 8654  42.516  37.451   9.274
  311POPC   C1A 8655  42.527  37.860   8.940
  311POPC   D2A 8656  42.512  37.939   8.552
  311POPC   C3A 8657  42.474  37.808   8.133
  311POPC   C4A 8658  42.381  37.815   7.711
  311POPC   C1B 8659  42.381  37.385   8.882
  311POPC   C2B 8660  42.260  37.499   8.480
  311POPC   C3B 8661  42.119  37.399   8.083
  311POPC   C4B 8662  42.306  37.328   7.679
  312POPC   NC3 8663   8.370  24.328   9.496
  312POPC   PO4 8664   8.129  24.924   9.613
  312POPC   GL1 8665   8.110  24.677   9.241
  312POPC   GL2 8666   8.433  24.752   9.184
  312POPC   C1A 8667   8.131  24.524   8.816
  312POPC   D2A 8668   8.099  24.420   8.377
  312POPC   C3A 8669   7.948  24.511   7.959
  312POPC   C4A 8670   7.999  24.129   7.737
  312POPC   C1B 8671   8.624  24.702   8.814
  312POPC   C2B 8672   8.446  24.809   8.458
  312POPC   C3B 8673   8.395  24.732   8.075
  312POPC   C4B 8674   8.531  24.749   7.692
  313POPC   NC3 8675  35.010  19.920   9.541
  313POPC   PO4 8676  35.492  19.538   9.508
  313POPC   GL1 8677  35.425  19.759   9.159
  313POPC   GL2 8678  35.103  19.577   9.103
  313POPC   C1A 8679  35.734  19.898   8.821
  313POPC   D2A 8680  35.558  20.073   8.453
  313POPC   C3A 8681  35.523  19.794   8.096
  313POPC   C4A 8682  35.355  19.949   7.722
  313POPC   C1B 8683  35.000  19.766   8.699
  313POPC   C2B 8684  35.072  19.944   8.274
  313POPC   C3B 8685  34.872  19.913   7.872
  313POPC   C4B 8686  34.906  19.956   7.430
  314POPC   NC3 8687   4.960  15.516   9.330
  314POPC   PO4 8688   5.418  15.105   9.580
  314POPC   GL1 8689   5.217  14.979   9.193
  314POPC   GL2 8690   5.428  14.678   9.139
  314POPC   C1A 8691   4.986  15.087   8.795
  314POPC   D2A 8692   4.760  15.266   8.440
  314POPC   C3A 8693   5.035  15.407   8.120
  314POPC   C4A 8694   5.042  15.286   7.724
  314POPC   C1B 8695   5.494  14.967   8.776
  314POPC   C2B 8696   5.356  15.156   8.407
  314POPC   C3B 8697   5.396  15.013   7.980
  314POPC   C4B 8698   5.442  14.788   7.615
  315POPC   NC3 8699   5.256  12.321   9.447
  315POPC   PO4 8700   4.984  11.815   9.739
  315POPC   GL1 8701   5.069  11.761   9.281
  315POPC   GL2 8702   5.271  11.977   9.077
  315POPC   C1A 8703   4.881  11.639   8.880
  315POPC   D2A 8704   4.974  11.512   8.454
  315POPC   C3A 8705   5.061  11.819   8.154
  315POPC   C4A 8706   4.780  11.922   7.824
  315POPC   C1B 8707   5.273  12.341   8.780
  315POPC   C2B 8708   5.118  12.376   8.372
  315POPC   C3B 8709   5.170  12.287   7.942
  315POPC   C4B 8710   5.137  12.188   7.540
  316POPC   NC3 8711  37.079  13.898   9.292
  316POPC   PO4 8712  37.551  13.390   9.519
  316POPC   GL1 8713  37.498  13.631   9.141
  316POPC   GL2 8714  37.723  13.940   9.138
  316POPC   C1A 8715  37.631  13.638   8.713
  316POPC   D2A 8716  37.923  13.556   8.394
  316POPC   C3A 8717  37.741  13.536   7.999
  316POPC   C4A 8718  37.964  13.346   7.686
  316POPC   C1B 8719  37.672  14.147   8.732
  316POPC   C2B 8720  37.665  14.040   8.311
  316POPC   C3B 8721  37.524  13.987   7.883
  316POPC   C4B 8722  37.647  13.729   7.515
  317POPC   NC3 8723  10.195   1.185   9.446
  317POPC   PO4 8724  10.931   1.197   9.510
  317POPC   GL1 8725  10.656   1.208   9.077
  317POPC   GL2 8726  10.319   1.372   9.003
  317POPC   C1A 8727  10.604   1.368   8.601
  317POPC   D2A 8728  10.286   1.398   8.249
  317POPC   C3A 8729  10.501   1.201   7.889
  317POPC   C4A 8730  10.684   1.330   7.458
  317POPC   C1B 8731  10.293   0.975   8.751
  317POPC   C2B 8732  10.293   0.876   8.283
  317POPC   C3B 8733  10.105   0.895   7.826
  317POPC   C4B 8734  10.245   1.099   7.437
  318POPC   NC3 8735  35.804  17.340   9.306
  318POPC   PO4 8736  35.395  17.857   9.329
  318POPC   GL1 8737  35.309  17.464   9.149
  318POPC   GL2 8738  35.090  17.191   9.211
  318POPC   C1A 8739  35.419  17.409   8.747
  318POPC   D2A 8740  35.396  17.708   8.397
  318POPC   C3A 8741  35.381  17.569   7.956
  318POPC   C4A 8742  35.728  17.637   7.680
  318POPC   C1B 8743  34.948  17.232   8.806
  318POPC   C2B 8744  35.010  17.373   8.406
  318POPC   C3B 8745  34.860  17.309   8.013
  318POPC   C4B 8746  34.974  17.280   7.605
  319POPC   NC3 8747  19.435  22.912   9.439
  319POPC   PO4 8748  18.777  22.859   9.486
  319POPC   GL1 8749  19.000  22.870   9.141
  319POPC   GL2 8750  18.701  22.757   8.985
  319POPC   C1A 8751  19.090  22.993   8.722
  319POPC   D2A 8752  18.855  22.803   8.370
  319POPC   C3A 8753  19.008  22.912   7.949
  319POPC   C4A 8754  19.120  22.811   7.513
  319POPC   C1B 8755  18.595  23.122   8.753
  319POPC   C2B 8756  18.511  23.302   8.344
  319POPC   C3B 8757  18.719  23.362   7.949
  319POPC   C4B 8758  18.718  23.114   7.573
  320POPC   NC3 8759   1.165   3.986   9.280
  320POPC   PO4 8760   0.713   3.556   9.453
  320POPC   GL1 8761   1.046   3.493   9.116
  320POPC   GL2 8762   1.422   3.572   9.130
  320POPC   C1A 8763   1.058   3.665   8.673
  320POPC   D2A 8764   0.802   3.774   8.285
  320POPC   C3A 8765   0.955   3.647   7.862
  320POPC   C4A 8766   1.231   3.765   7.481
  320POPC   C1B 8767   1.563   3.726   8.720
  320POPC   C2B 8768   1.414   3.507   8.348
  320POPC   C3B 8769   1.459   3.635   7.945
  320POPC   C4B 8770   1.569   3.405   7.605
  321POPC   NC3 8771  37.504  18.019   9.633
  321POPC   PO4 8772  37.703  17.362   9.570
  321POPC   GL1 8773  37.555  17.531   9.136
  321POPC   GL2 8774  37.874  17.447   9.013
  321POPC   C1A 8775  37.554  17.589   8.641
  321POPC   D2A 8776  37.842  17.510   8.257
  321POPC   C3A 8777  37.606  17.580   7.870
  321POPC   C4A 8778  37.170  17.481   7.948
  321POPC   C1B 8779  37.940  17.163   8.671
  321POPC   C2B 8780  38.100  17.026   8.263
  321POPC   C3B 8781  38.168  17.301   7.883
  321POPC   C4B 8782  38.056  17.616   7.553
  322POPC   NC3 8783  26.005  41.233   9.438
  322POPC   PO4 8784  26.184  41.848   9.550
  322POPC   GL1 8785  26.176  41.641   9.179
  322POPC   GL2 8786  25.861  41.774   9.123
  322POPC   C1A 8787  26.087  41.353   8.814
  322POPC   D2A 8788  25.975  41.452   8.396
  322POPC   C3A 8789  26.207  41.762   8.150
  322POPC   C4A 8790  26.328  41.649   7.733
  322POPC   C1B 8791  26.042  41.848   8.727
  322POPC   C2B 8792  25.773  41.909   8.407
  322POPC   C3B 8793  25.689  41.791   8.035
  322POPC   C4B 8794  25.877  41.916   7.678
  323POPC   NC3 8795   4.631   5.592   9.154
  323POPC   PO4 8796   4.066   5.777   9.546
  323POPC   GL1 8797   4.028   5.743   9.099
  323POPC   GL2 8798   4.289   5.999   9.041
  323POPC   C1A 8799   4.137   5.777   8.631
  323POPC   D2A 8800   4.465   5.703   8.353
  323POPC   C3A 8801   4.289   5.612   7.976
  323POPC   C4A 8802   3.974   5.898   7.999
  323POPC   C1B 8803   4.502   6.213   8.701
  323POPC   C2B 8804   4.473   6.372   8.277
  323POPC   C3B 8805   4.558   6.061   7.950
  323POPC   C4B 8806   4.381   5.944   7.551
  324POPC   NC3 8807  10.358  35.774   9.410
  324POPC   PO4 8808  10.081  36.340   9.522
  324POPC   GL1 8809  10.433  36.284   9.187
  324POPC   GL2 8810  10.730  36.520   9.194
  324POPC   C1A 8811  10.552  36.022   8.802
  324POPC   D2A 8812  10.268  35.749   8.542
  324POPC   C3A 8813  10.305  35.876   8.113
  324POPC   C4A 8814  10.441  35.845   7.691
  324POPC   C1B 8815  10.616  36.553   8.742
  324POPC   C2B 8816  10.481  36.317   8.370
  324POPC   C3B 8817  10.614  36.302   7.955
  324POPC   C4B 8818  10.873  36.182   7.634
  325POPC   NC3 8819  44.131  24.797   9.588
  325POPC   PO4 8820  43.852  24.145   9.539
  325POPC   GL1 8821  43.824  24.480   9.265
  325POPC   GL2 8822  44.164  24.502   9.146
  325POPC   C1A 8823  43.716  24.465   8.841
  325POPC   D2A 8824  43.603  24.562   8.446
  325POPC   C3A 8825  43.892  24.402   8.151
  325POPC   C4A 8826  43.843  24.451   7.705
  325POPC   C1B 8827  44.120  24.756   8.773
  325POPC   C2B 8828  44.024  24.880   8.355
  325POPC   C3B 8829  44.116  24.813   7.923
  325POPC   C4B 8830  44.056  24.846   7.475
  326POPC   NC3 8831   6.502  13.392   9.582
  326POPC   PO4 8832   6.768  14.061   9.524
  326POPC   GL1 8833   6.669  13.722   9.191
  326POPC   GL2 8834   6.402  13.466   9.102
  326POPC   C1A 8835   6.792  13.548   8.777
  326POPC   D2A 8836   6.864  13.755   8.399
  326POPC   C3A 8837   6.814  13.570   7.974
  326POPC   C4A 8838   6.899  13.632   7.510
  326POPC   C1B 8839   6.281  13.610   8.698
  326POPC   C2B 8840   6.393  13.542   8.264
  326POPC   C3B 8841   6.383  13.870   7.906
  326POPC   C4B 8842   6.480  13.915   7.445
  327POPC   NC3 8843   6.429  11.705   9.496
  327POPC   PO4 8844   6.357  12.340   9.615
  327POPC   GL1 8845   6.499  12.192   9.201
  327POPC   GL2 8846   6.554  12.494   9.053
  327POPC   C1A 8847   6.638  12.109   8.740
  327POPC   D2A 8848   6.617  11.782   8.415
  327POPC   C3A 8849   6.633  11.922   8.011
  327POPC   C4A 8850   6.431  11.931   7.626
  327POPC   C1B 8851   6.542  12.620   8.618
  327POPC   C2B 8852   6.619  12.404   8.216
  327POPC   C3B 8853   6.443  12.454   7.789
  327POPC   C4B 8854   6.340  12.504   7.343
  328POPC   NC3 8855  36.415  37.464   9.464
  328POPC   PO4 8856  37.017  37.737   9.611
  328POPC   GL1 8857  36.852  37.572   9.230
  328POPC   GL2 8858  37.180  37.634   9.126
  328POPC   C1A 8859  36.759  37.603   8.799
  328POPC   D2A 8860  36.617  37.986   8.591
  328POPC   C3A 8861  36.879  38.081   8.225
  328POPC   C4A 8862  36.902  37.811   7.847
  328POPC   C1B 8863  37.258  37.467   8.733
  328POPC   C2B 8864  37.047  37.501   8.329
  328POPC   C3B 8865  37.244  37.431   7.931
  328POPC   C4B 8866  37.451  37.796   7.827
  329POPC   NC3 8867  28.872  29.595   9.391
  329POPC   PO4 8868  29.432  29.963   9.524
  329POPC   GL1 8869  29.304  29.869   9.117
  329POPC   GL2 8870  29.350  30.186   8.966
  329POPC   C1A 8871  29.128  29.832   8.692
  329POPC   D2A 8872  29.234  30.053   8.324
  329POPC   C3A 8873  28.926  29.878   8.058
  329POPC   C4A 8874  28.753  29.867   7.711
  329POPC   C1B 8875  29.630  29.941   8.690
  329POPC   C2B 8876  29.640  29.737   8.287
  329POPC   C3B 8877  29.396  29.804   7.887
  329POPC   C4B 8878  29.509  30.024   7.507
  330POPC   NC3 8879  13.332   9.843   9.304
  330POPC   PO4 8880  12.723   9.778   9.591
  330POPC   GL1 8881  12.829   9.872   9.157
  330POPC   GL2 8882  12.726   9.558   9.093
  330POPC   C1A 8883  12.954   9.750   8.695
  330POPC   D2A 8884  13.016   9.664   8.266
  330POPC   C3A 8885  13.143   9.901   7.922
  330POPC   C4A 8886  12.832   9.812   7.640
  330POPC   C1B 8887  12.485   9.418   8.778
  330POPC   C2B 8888  12.587   9.364   8.360
  330POPC   C3B 8889  12.513   9.577   7.982
  330POPC   C4B 8890  12.552   9.373   7.615
  331POPC   NC3 8891  33.909  11.597   9.734
  331POPC   PO4 8892  33.905  12.215   9.498
  331POPC   GL1 8893  33.897  12.224   9.093
  331POPC   GL2 8894  33.765  11.909   9.116
  331POPC   C1A 8895  34.055  12.133   8.677
  331POPC   D2A 8896  33.884  12.362   8.329
  331POPC   C3A 8897  34.122  12.319   7.959
  331POPC   C4A 8898  34.114  12.014   7.660
  331POPC   C1B 8899  33.568  12.007   8.743
  331POPC   C2B 8900  33.700  11.878   8.337
  331POPC   C3B 8901  33.673  12.024   7.914
  331POPC   C4B 8902  33.684  11.817   7.477
  332POPC   NC3 8903   5.749   3.314   9.570
  332POPC   PO4 8904   6.037   3.932   9.548
  332POPC   GL1 8905   5.994   3.623   9.237
  332POPC   GL2 8906   5.619   3.592   9.140
  332POPC   C1A 8907   6.004   3.655   8.817
  332POPC   D2A 8908   5.996   3.691   8.394
  332POPC   C3A 8909   6.300   3.493   8.141
  332POPC   C4A 8910   6.202   3.384   7.701
  332POPC   C1B 8911   5.531   3.738   8.665
  332POPC   C2B 8912   5.520   3.728   8.189
  332POPC   C3B 8913   5.769   3.687   7.778
  332POPC   C4B 8914   5.608   3.607   7.331
  333POPC   NC3 8915   8.623  30.344   9.601
  333POPC   PO4 8916   8.072  29.975   9.554
  333POPC   GL1 8917   8.232  29.881   9.161
  333POPC   GL2 8918   8.105  29.560   9.162
  333POPC   C1A 8919   8.331  29.840   8.708
  333POPC   D2A 8920   8.459  30.045   8.304
  333POPC   C3A 8921   8.350  29.837   7.898
  333POPC   C4A 8922   8.383  29.950   7.456
  333POPC   C1B 8923   7.873  29.420   8.808
  333POPC   C2B 8924   7.957  29.604   8.427
  333POPC   C3B 8925   7.939  29.563   8.020
  333POPC   C4B 8926   8.086  29.490   7.636
  334POPC   NC3 8927  36.371  29.786   9.613
  334POPC   PO4 8928  35.924  30.257   9.550
  334POPC   GL1 8929  36.144  29.991   9.218
  334POPC   GL2 8930  36.020  29.620   9.217
  334POPC   C1A 8931  36.246  29.815   8.807
  334POPC   D2A 8932  36.038  29.815   8.442
  334POPC   C3A 8933  36.138  30.033   8.071
  334POPC   C4A 8934  36.333  30.030   7.660
  334POPC   C1B 8935  35.725  29.607   8.819
  334POPC   C2B 8936  35.581  29.589   8.363
  334POPC   C3B 8937  35.869  29.533   8.050
  334POPC   C4B 8938  35.974  29.683   7.684
  335POPC   NC3 8939  39.475  38.494   9.527
  335POPC   PO4 8940  38.902  38.286   9.551
  335POPC   GL1 8941  39.194  38.242   9.190
  335POPC   GL2 8942  39.215  38.593   9.081
  335POPC   C1A 8943  39.089  38.203   8.764
  335POPC   D2A 8944  39.126  38.464   8.402
  335POPC   C3A 8945  39.019  38.261   8.021
  335POPC   C4A 8946  39.216  38.253   7.620
  335POPC   C1B 8947  39.266  38.896   8.707
  335POPC   C2B 8948  39.092  39.013   8.332
  335POPC   C3B 8949  39.057  38.775   7.989
  335POPC   C4B 8950  38.843  38.675   7.646
  336POPC   NC3 8951  12.773  19.173   9.504
  336POPC   PO4 8952  12.861  18.546   9.316
  336POPC   GL1 8953  12.847  18.953   9.063
  336POPC   GL2 8954  12.577  19.271   9.062
  336POPC   C1A 8955  13.025  19.248   8.788
  336POPC   D2A 8956  13.123  19.122   8.386
  336POPC   C3A 8957  12.908  19.174   8.006
  336POPC   C4A 8958  12.787  18.817   7.735
  336POPC   C1B 8959  12.547  19.108   8.663
  336POPC   C2B 8960  12.567  19.381   8.332
  336POPC   C3B 8961  12.529  19.540   7.896
  336POPC   C4B 8962  12.737  19.305   7.553
  337POPC   NC3 8963  35.533  43.336   9.406
  337POPC   PO4 8964  35.087  42.871   9.539
  337POPC   GL1 8965  35.319  42.946   9.174
  337POPC   GL2 8966  35.102  43.251   9.141
  337POPC   C1A 8967  35.267  42.988   8.735
  337POPC   D2A 8968  35.554  43.138   8.426
  337POPC   C3A 8969  35.494  42.900   8.068
  337POPC   C4A 8970  35.239  42.937   7.714
  337POPC   C1B 8971  35.260  43.530   8.821
  337POPC   C2B 8972  35.239  43.621   8.389
  337POPC   C3B 8973  35.256  43.360   8.018
  337POPC   C4B 8974  35.653  43.260   7.772
  338POPC   NC3 8975  32.446   3.478   9.386
  338POPC   PO4 8976  31.836   3.384   9.333
  338POPC   GL1 8977  32.061   3.576   9.023
  338POPC   GL2 8978  32.374   3.777   8.995
  338POPC   C1A 8979  32.046   3.694   8.606
  338POPC   D2A 8980  32.093   3.755   8.191
  338POPC   C3A 8981  31.810   3.467   8.040
  338POPC   C4A 8982  31.811   3.542   7.647
  338POPC   C1B 8983  32.493   3.430   8.734
  338POPC   C2B 8984  32.331   3.344   8.338
  338POPC   C3B 8985  32.313   3.418   7.880
  338POPC   C4B 8986  32.511   3.646   7.540
  339POPC   NC3 8987  35.583  35.941   9.479
  339POPC   PO4 8988  35.112  36.294   9.397
  339POPC   GL1 8989  35.235  35.971   9.103
  339POPC   GL2 8990  35.614  35.925   8.997
  339POPC   C1A 8991  35.144  35.991   8.695
  339POPC   D2A 8992  35.114  35.802   8.299
  339POPC   C3A 8993  35.235  35.990   7.934
  339POPC   C4A 8994  35.140  36.304   7.639
  339POPC   C1B 8995  35.631  36.244   8.767
  339POPC   C2B 8996  35.489  36.189   8.373
  339POPC   C3B 8997  35.655  36.251   8.018
  339POPC   C4B 8998  35.703  35.932   7.745
  340POPC   NC3 8999  10.702  43.489   9.494
  340POPC   PO4 9000  10.681  44.116   9.431
  340POPC   GL1 9001  10.468  43.851   9.129
  340POPC   GL2 9002  10.274  43.522   9.147
  340POPC   C1A 9003  10.423  43.885   8.703
  340POPC   D2A 9004  10.402  43.666   8.343
  340POPC   C3A 9005  10.573  43.931   8.023
  340POPC   C4A 9006  10.840  44.122   7.720
  340POPC   C1B 9007  10.002  43.615   8.761
  340POPC   C2B 9008   9.956  43.930   8.419
  340POPC   C3B 9009  10.064  43.860   7.989
  340POPC   C4B 9010  10.354  43.502   7.857
  341POPC   NC3 9011  40.396  34.645   9.511
  341POPC   PO4 9012  39.838  34.256   9.469
  341POPC   GL1 9013  39.826  34.519   9.092
  341POPC   GL2 9014  39.992  34.812   9.180
  341POPC   C1A 9015  39.881  34.472   8.669
  341POPC   D2A 9016  39.759  34.473   8.246
  341POPC   C3A 9017  40.040  34.191   7.997
  341POPC   C4A 9018  40.201  34.203   7.572
  341POPC   C1B 9019  40.291  34.759   8.783
  341POPC   C2B 9020  40.261  34.574   8.338
  341POPC   C3B 9021  40.365  34.613   7.892
  341POPC   C4B 9022  40.362  34.670   7.454
  342POPC   NC3 9023  10.076  24.983   9.784
  342POPC   PO4 9024   9.596  25.432   9.498
  342POPC   GL1 9025   9.377  25.231   9.154
  342POPC   GL2 9026   9.654  25.015   9.104
  342POPC   C1A 9027   9.461  25.297   8.708
  342POPC   D2A 9028   9.787  25.485   8.457
  342POPC   C3A 9029   9.661  25.354   8.054
  342POPC   C4A 9030   9.710  25.385   7.626
  342POPC   C1B 9031   9.857  24.942   8.712
  342POPC   C2B 9032   9.724  24.915   8.286
  342POPC   C3B 9033   9.973  24.973   7.895
  342POPC   C4B 9034  10.302  25.103   7.602
  343POPC   NC3 9035  27.666  19.056   9.539
  343POPC   PO4 9036  27.072  18.832   9.649
  343POPC   GL1 9037  27.214  18.971   9.227
  343POPC   GL2 9038  27.398  19.279   9.165
  343POPC   C1A 9039  27.379  18.902   8.806
  343POPC   D2A 9040  27.295  19.058   8.403
  343POPC   C3A 9041  27.543  18.906   8.104
  343POPC   C4A 9042  27.308  18.923   7.769
  343POPC   C1B 9043  27.261  19.434   8.766
  343POPC   C2B 9044  27.188  19.574   8.335
  343POPC   C3B 9045  27.360  19.419   7.935
  343POPC   C4B 9046  27.282  19.351   7.485
  344POPC   NC3 9047  33.379  38.013   9.457
  344POPC   PO4 9048  32.767  37.871   9.439
  344POPC   GL1 9049  32.936  37.643   9.118
  344POPC   GL2 9050  33.208  37.774   9.046
  344POPC   C1A 9051  32.889  37.734   8.656
  344POPC   D2A 9052  33.034  37.704   8.256
  344POPC   C3A 9053  32.792  37.764   7.866
  344POPC   C4A 9054  32.899  37.497   7.473
  344POPC   C1B 9055  33.403  37.832   8.672
  344POPC   C2B 9056  33.433  38.036   8.284
  344POPC   C3B 9057  33.463  37.998   7.850
  344POPC   C4B 9058  33.128  37.968   7.550
  345POPC   NC3 9059  21.562   1.796   9.530
  345POPC   PO4 9060  22.098   2.158   9.428
  345POPC   GL1 9061  22.216   2.222   9.018
  345POPC   GL2 9062  21.981   1.950   8.953
  345POPC   C1A 9063  22.389   2.073   8.625
  345POPC   D2A 9064  22.181   1.929   8.242
  345POPC   C3A 9065  22.369   2.000   7.843
  345POPC   C4A 9066  22.594   1.755   7.510
  345POPC   C1B 9067  21.909   2.213   8.604
  345POPC   C2B 9068  21.728   2.195   8.231
  345POPC   C3B 9069  21.836   2.058   7.853
  345POPC   C4B 9070  21.775   1.700   7.565
  346POPC   NC3 9071  37.603  25.549   9.609
  346POPC   PO4 9072  37.500  24.826   9.675
  346POPC   GL1 9073  37.737  25.105   9.293
  346POPC   GL2 9074  37.673  25.468   9.113
  346POPC   C1A 9075  37.895  25.110   8.839
  346POPC   D2A 9076  37.702  25.275   8.465
  346POPC   C3A 9077  37.840  25.112   8.045
  346POPC   C4A 9078  37.713  24.993   7.643
  346POPC   C1B 9079  37.305  25.468   8.828
  346POPC   C2B 9080  37.270  25.646   8.413
  346POPC   C3B 9081  37.392  25.411   8.085
  346POPC   C4B 9082  37.633  25.480   7.744
  347POPC   NC3 9083  27.709  33.318   9.519
  347POPC   PO4 9084  27.161  32.946   9.609
  347POPC   GL1 9085  27.400  33.011   9.224
  347POPC   GL2 9086  27.418  33.356   9.102
  347POPC   C1A 9087  27.610  32.921   8.830
  347POPC   D2A 9088  27.600  32.741   8.417
  347POPC   C3A 9089  27.662  32.989   8.045
  347POPC   C4A 9090  27.549  32.983   7.625
  347POPC   C1B 9091  27.210  33.270   8.729
  347POPC   C2B 9092  27.170  33.110   8.316
  347POPC   C3B 9093  27.229  33.308   7.926
  347POPC   C4B 9094  27.217  33.623   7.607
  348POPC   NC3 9095  15.664  20.436   9.228
  348POPC   PO4 9096  16.217  20.792   9.364
  348POPC   GL1 9097  16.041  20.699   8.966
  348POPC   GL2 9098  15.735  20.911   8.968
  348POPC   C1A 9099  15.901  20.394   8.638
  348POPC   D2A 9100  15.801  20.285   8.216
  348POPC   C3A 9101  15.970  20.485   7.824
  348POPC   C4A 9102  16.034  20.636   7.383
  348POPC   C1B 9103  15.479  20.731   8.610
  348POPC   C2B 9104  15.452  20.698   8.144
  348POPC   C3B 9105  15.611  20.832   7.713
  348POPC   C4B 9106  15.511  20.768   7.244
  349POPC   NC3 9107   1.636  19.863   9.493
  349POPC   PO4 9108   0.956  19.951   9.521
  349POPC   GL1 9109   1.221  19.833   9.164
  349POPC   GL2 9110   1.383  20.152   9.083
  349POPC   C1A 9111   1.470  19.729   8.775
  349POPC   D2A 9112   1.544  19.694   8.303
  349POPC   C3A 9113   1.174  19.543   8.081
  349POPC   C4A 9114   0.905  19.711   7.773
  349POPC   C1B 9115   0.990  20.146   8.816
  349POPC   C2B 9116   0.901  20.183   8.364
  349POPC   C3B 9117   1.186  20.083   8.012
  349POPC   C4B 9118   1.496  19.815   7.781
  350POPC   NC3 9119  33.416  40.923   9.552
  350POPC   PO4 9120  32.965  40.505   9.383
  350POPC   GL1 9121  33.184  40.664   9.070
  350POPC   GL2 9122  32.939  40.851   8.886
  350POPC   C1A 9123  33.411  40.755   8.715
  350POPC   D2A 9124  33.210  40.625   8.366
  350POPC   C3A 9125  32.900  40.912   8.158
  350POPC   C4A 9126  32.996  41.116   7.771
  350POPC   C1B 9127  32.601  40.807   8.576
  350POPC   C2B 9128  32.377  40.932   8.188
  350POPC   C3B 9129  32.477  41.041   7.750
  350POPC   C4B 9130  32.731  41.019   7.339
  351POPC   NC3 9131  10.609  11.271   9.547
  351POPC   PO4 9132  10.567  11.922   9.597
  351POPC   GL1 9133  10.594  11.643   9.213
  351POPC   GL2 9134  10.285  11.427   9.186
  351POPC   C1A 9135  10.651  11.382   8.821
  351POPC   D2A 9136  10.540  11.129   8.441
  351POPC   C3A 9137  10.758  11.079   8.059
  351POPC   C4A 9138  10.922  11.407   7.800
  351POPC   C1B 9139  10.270  11.042   8.894
  351POPC   C2B 9140  10.116  10.878   8.507
  351POPC   C3B 9141  10.087  11.149   8.144
  351POPC   C4B 9142  10.319  11.237   7.788
  352POPC   NC3 9143  36.373  15.934   9.468
  352POPC   PO4 9144  35.711  15.908   9.550
  352POPC   GL1 9145  35.986  15.737   9.224
  352POPC   GL2 9146  35.954  16.056   9.038
  352POPC   C1A 9147  36.312  15.753   8.836
  352POPC   D2A 9148  36.154  15.901   8.435
  352POPC   C3A 9149  36.335  16.079   8.096
  352POPC   C4A 9150  36.281  15.899   7.728
  352POPC   C1B 9151  35.831  15.671   8.765
  352POPC   C2B 9152  35.681  15.663   8.388
  352POPC   C3B 9153  35.930  15.572   8.058
  352POPC   C4B 9154  35.875  15.608   7.661
  353POPC   NC3 9155  30.640   2.909   9.551
  353POPC   PO4 9156  30.529   2.295   9.434
  353POPC   GL1 9157  30.729   2.585   9.166
  353POPC   GL2 9158  30.487   2.874   9.080
  353POPC   C1A 9159  30.966   2.621   8.784
  353POPC   D2A 9160  31.067   2.585   8.350
  353POPC   C3A 9161  30.966   2.931   8.113
  353POPC   C4A 9162  31.049   2.962   7.705
  353POPC   C1B 9163  30.440   2.591   8.759
  353POPC   C2B 9164  30.526   2.784   8.384
  353POPC   C3B 9165  30.565   2.587   8.016
  353POPC   C4B 9166  30.440   2.654   7.606
  354POPC   NC3 9167   9.219  34.459   9.544
  354POPC   PO4 9168   8.619  34.136   9.230
  354POPC   GL1 9169   8.853  34.503   9.100
  354POPC   GL2 9170   8.776  34.884   9.134
  354POPC   C1A 9171   8.971  34.450   8.685
  354POPC   D2A 9172   9.067  34.713   8.362
  354POPC   C3A 9173   8.956  34.573   7.962
  354POPC   C4A 9174   9.172  34.540   7.573
  354POPC   C1B 9175   8.615  34.858   8.705
  354POPC   C2B 9176   8.428  34.998   8.281
  354POPC   C3B 9177   8.475  34.909   7.841
  354POPC   C4B 9178   8.845  34.921   7.584
  355POPC   NC3 9179  44.710   2.407   9.840
  355POPC   PO4 9180  44.359   2.015   9.441
  355POPC   GL1 9181  44.607   1.944   9.068
  355POPC   GL2 9182  44.820   1.703   9.123
  355POPC   C1A 9183  44.712   2.218   8.696
  355POPC   D2A 9184  44.524   2.413   8.387
  355POPC   C3A 9185  44.612   2.214   8.056
  355POPC   C4A 9186  44.757   2.166   7.647
  355POPC   C1B 9187  44.867   1.716   8.701
  355POPC   C2B 9188  44.670   1.808   8.351
  355POPC   C3B 9189  44.860   1.787   7.984
  355POPC   C4B 9190  44.804   1.623   7.606
  356POPC   NC3 9191  32.322  10.717   9.717
  356POPC   PO4 9192  32.017  10.206   9.550
  356POPC   GL1 9193  32.161  10.464   9.163
  356POPC   GL2 9194  32.422  10.709   9.125
  356POPC   C1A 9195  32.286  10.504   8.693
  356POPC   D2A 9196  32.118  10.556   8.270
  356POPC   C3A 9197  32.345  10.579   7.882
  356POPC   C4A 9198  32.429  10.342   7.475
  356POPC   C1B 9199  32.663  10.864   8.782
  356POPC   C2B 9200  32.639  10.698   8.360
  356POPC   C3B 9201  32.766  10.843   7.975
  356POPC   C4B 9202  32.760  10.779   7.524
  357POPC   NC3 9203  14.334  39.678   9.390
  357POPC   PO4 9204  14.467  39.122   9.694
  357POPC   GL1 9205  14.619  39.043   9.287
  357POPC   GL2 9206  14.350  39.217   9.146
  357POPC   C1A 9207  14.754  39.053   8.858
  357POPC   D2A 9208  14.657  38.864   8.471
  357POPC   C3A 9209  14.619  39.060   8.066
  357POPC   C4A 9210  14.531  39.156   7.619
  357POPC   C1B 9211  14.346  39.319   8.706
  357POPC   C2B 9212  14.181  39.099   8.358
  357POPC   C3B 9213  14.114  39.174   7.940
  357POPC   C4B 9214  13.987  39.200   7.530
  358POPC   NC3 9215  37.059  30.499   9.478
  358POPC   PO4 9216  36.619  30.940   9.323
  358POPC   GL1 9217  36.813  30.737   9.010
  358POPC   GL2 9218  37.144  30.793   9.065
  358POPC   C1A 9219  36.632  30.607   8.622
  358POPC   D2A 9220  36.810  30.514   8.227
  358POPC   C3A 9221  36.733  30.774   7.904
  358POPC   C4A 9222  37.030  30.959   7.674
  358POPC   C1B 9223  37.166  30.470   8.750
  358POPC   C2B 9224  37.337  30.505   8.357
  358POPC   C3B 9225  37.254  30.612   7.959
  358POPC   C4B 9226  37.227  30.391   7.560
  359POPC   NC3 9227   9.429  29.477   9.444
  359POPC   PO4 9228  10.069  29.504   9.728
  359POPC   GL1 9229   9.896  29.256   9.308
  359POPC   GL2 9230   9.580  29.209   9.052
  359POPC   C1A 9231  10.014  29.261   8.827
  359POPC   D2A 9232   9.763  29.297   8.465
  359POPC   C3A 9233   9.734  29.028   8.091
  359POPC   C4A 9234   9.742  29.158   7.625
  359POPC   C1B 9235   9.337  29.470   8.753
  359POPC   C2B 9236   9.144  29.476   8.345
  359POPC   C3B 9237   9.383  29.387   8.006
  359POPC   C4B 9238   9.591  29.628   7.724
  360POPC   NC3 9239  36.240  42.012   9.284
  360POPC   PO4 9240  35.845  41.577   9.536
  360POPC   GL1 9241  35.868  41.715   9.093
  360POPC   GL2 9242  36.137  41.515   9.093
  360POPC   C1A 9243  36.104  41.707   8.643
  360POPC   D2A 9244  36.449  41.652   8.335
  360POPC   C3A 9245  36.321  41.572   7.910
  360POPC   C4A 9246  35.974  41.513   7.614
  360POPC   C1B 9247  36.018  41.186   8.805
  360POPC   C2B 9248  35.995  41.015   8.397
  360POPC   C3B 9249  36.058  41.120   7.957
  360POPC   C4B 9250  35.924  41.019   7.505
  361POPC   NC3 9251  27.228   2.496   9.817
  361POPC   PO4 9252  27.853   2.729   9.568
  361POPC   GL1 9253  27.812   2.852   9.129
  361POPC   GL2 9254  27.804   2.549   8.967
  361POPC   C1A 9255  27.507   2.958   8.820
  361POPC   D2A 9256  27.189   2.831   8.533
  361POPC   C3A 9257  27.237   2.944   8.087
  361POPC   C4A 9258  27.591   3.077   7.802
  361POPC   C1B 9259  27.560   2.412   8.661
  361POPC   C2B 9260  27.489   2.509   8.263
  361POPC   C3B 9261  27.481   2.549   7.876
  361POPC   C4B 9262  27.748   2.616   7.590
  362POPC   NC3 9263  29.441  32.961   9.564
  362POPC   PO4 9264  29.007  33.423   9.553
  362POPC   GL1 9265  29.105  33.192   9.175
  362POPC   GL2 9266  29.424  33.314   9.145
  362POPC   C1A 9267  29.082  32.896   8.780
  362POPC   D2A 9268  29.305  32.730   8.392
  362POPC   C3A 9269  29.207  32.827   7.939
  362POPC   C4A 9270  28.898  33.114   7.769
  362POPC   C1B 9271  29.317  33.335   8.720
  362POPC   C2B 9272  29.168  33.219   8.319
  362POPC   C3B 9273  29.484  33.242   8.021
  362POPC   C4B 9274  29.510  33.360   7.592
  363POPC   NC3 9275  13.741  19.417   9.557
  363POPC   PO4 9276  13.511  20.013   9.453
  363POPC   GL1 9277  13.822  19.818   9.195
  363POPC   GL2 9278  14.072  20.090   9.179
  363POPC   C1A 9279  13.691  19.611   8.807
  363POPC   D2A 9280  13.326  19.573   8.514
  363POPC   C3A 9281  13.400  19.414   8.085
  363POPC   C4A 9282  13.586  19.634   7.779
  363POPC   C1B 9283  13.821  20.125   8.774
  363POPC   C2B 9284  13.721  19.908   8.369
  363POPC   C3B 9285  13.852  20.030   7.951
  363POPC   C4B 9286  13.911  19.934   7.479
  364POPC   NC3 9287  20.489  41.000   9.418
  364POPC   PO4 9288  20.404  40.458   9.672
  364POPC   GL1 9289  20.361  40.560   9.170
  364POPC   GL2 9290  20.403  40.861   8.954
  364POPC   C1A 9291  20.543  40.406   8.779
  364POPC   D2A 9292  20.854  40.493   8.465
  364POPC   C3A 9293  20.666  40.517   8.079
  364POPC   C4A 9294  20.479  40.462   7.652
  364POPC   C1B 9295  20.756  40.938   8.708
  364POPC   C2B 9296  20.728  41.007   8.257
  364POPC   C3B 9297  20.467  40.939   7.908
  364POPC   C4B 9298  20.668  40.977   7.544
  365POPC   NC3 9299   3.004   8.595   9.404
  365POPC   PO4 9300   2.463   9.026   9.451
  365POPC   GL1 9301   2.684   8.871   9.122
  365POPC   GL2 9302   3.040   9.021   9.123
  365POPC   C1A 9303   2.725   8.944   8.712
  365POPC   D2A 9304   2.593   8.749   8.359
  365POPC   C3A 9305   2.495   9.051   8.067
  365POPC   C4A 9306   2.461   8.833   7.687
  365POPC   C1B 9307   3.246   8.977   8.737
  365POPC   C2B 9308   3.102   8.841   8.361
  365POPC   C3B 9309   2.949   8.846   7.932
  365POPC   C4B 9310   2.908   8.847   7.473
  366POPC   NC3 9311  41.206  34.373   9.837
  366POPC   PO4 9312  41.561  34.571   9.323
  366POPC   GL1 9313  41.785  34.328   9.090
  366POPC   GL2 9314  41.483  34.286   8.890
  366POPC   C1A 9315  41.989  34.201   8.731
  366POPC   D2A 9316  41.929  34.472   8.329
  366POPC   C3A 9317  41.851  34.285   8.000
  366POPC   C4A 9318  41.719  34.329   7.624
  366POPC   C1B 9319  41.643  34.634   8.695
  366POPC   C2B 9320  41.490  34.824   8.354
  366POPC   C3B 9321  41.634  34.785   7.954
  366POPC   C4B 9322  41.542  34.787   7.526
  367POPC   NC3 9323  43.462  15.016   9.372
  367POPC   PO4 9324  42.873  15.359   9.438
  367POPC   GL1 9325  43.079  15.254   9.094
  367POPC   GL2 9326  43.003  14.889   9.108
  367POPC   C1A 9327  43.256  15.433   8.702
  367POPC   D2A 9328  43.110  15.235   8.310
  367POPC   C3A 9329  43.053  15.364   7.869
  367POPC   C4A 9330  43.026  15.341   7.390
  367POPC   C1B 9331  43.303  14.932   8.753
  367POPC   C2B 9332  43.448  14.852   8.346
  367POPC   C3B 9333  43.267  14.871   7.947
  367POPC   C4B 9334  43.426  15.095   7.615
  368POPC   NC3 9335  42.775  24.454   9.901
  368POPC   PO4 9336  42.208  24.504   9.542
  368POPC   GL1 9337  42.114  24.574   9.157
  368POPC   GL2 9338  42.455  24.470   9.083
  368POPC   C1A 9339  42.069  24.516   8.739
  368POPC   D2A 9340  42.304  24.646   8.365
  368POPC   C3A 9341  42.123  24.674   7.975
  368POPC   C4A 9342  42.120  24.416   7.647
  368POPC   C1B 9343  42.600  24.290   8.729
  368POPC   C2B 9344  42.773  24.377   8.333
  368POPC   C3B 9345  42.568  24.411   7.962
  368POPC   C4B 9346  42.568  24.682   7.637
  369POPC   NC3 9347  23.335  36.566   9.544
  369POPC   PO4 9348  23.980  36.765   9.687
  369POPC   GL1 9349  23.630  36.745   9.202
  369POPC   GL2 9350  23.762  36.978   8.931
  369POPC   C1A 9351  23.577  36.568   8.748
  369POPC   D2A 9352  23.804  36.684   8.362
  369POPC   C3A 9353  23.632  36.748   7.941
  369POPC   C4A 9354  23.789  36.675   7.530
  369POPC   C1B 9355  23.390  37.048   8.785
  369POPC   C2B 9356  23.582  37.150   8.423
  369POPC   C3B 9357  23.758  37.220   8.047
  369POPC   C4B 9358  23.453  37.268   7.775
  370POPC   NC3 9359   1.698  22.933   9.604
  370POPC   PO4 9360   2.296  22.804   9.489
  370POPC   GL1 9361   2.343  22.900   9.058
  370POPC   GL2 9362   2.102  23.177   9.041
  370POPC   C1A 9363   2.192  22.834   8.624
  370POPC   D2A 9364   2.333  22.850   8.222
  370POPC   C3A 9365   2.061  22.899   7.859
  370POPC   C4A 9366   2.074  22.800   7.421
  370POPC   C1B 9367   1.754  23.112   8.737
  370POPC   C2B 9368   1.717  23.008   8.291
  370POPC   C3B 9369   1.617  23.225   7.920
  370POPC   C4B 9370   1.742  23.157   7.538
  371POPC   NC3 9371  35.199  32.558   9.568
  371POPC   PO4 9372  34.828  32.052   9.842
  371POPC   GL1 9373  35.107  32.052   9.394
  371POPC   GL2 9374  35.021  32.355   9.153
  371POPC   C1A 9375  35.342  32.061   8.943
  371POPC   D2A 9376  35.102  32.186   8.546
  371POPC   C3A 9377  35.319  32.211   8.146
  371POPC   C4A 9378  35.336  32.033   7.720
  371POPC   C1B 9379  35.268  32.577   8.818
  371POPC   C2B 9380  35.456  32.625   8.441
  371POPC   C3B 9381  35.600  32.670   8.057
  371POPC   C4B 9382  35.353  32.533   7.703
  372POPC   NC3 9383  38.920  40.070   9.817
  372POPC   PO4 9384  39.443  39.858   9.498
  372POPC   GL1 9385  39.426  39.781   9.059
  372POPC   GL2 9386  39.419  40.141   9.067
  372POPC   C1A 9387  39.265  39.902   8.661
  372POPC   D2A 9388  39.283  40.170   8.305
  372POPC   C3A 9389  39.115  39.918   8.011
  372POPC   C4A 9390  39.164  39.793   7.603
  372POPC   C1B 9391  39.739  40.267   8.809
  372POPC   C2B 9392  39.856  40.430   8.416
  372POPC   C3B 9393  39.659  40.438   8.044
  372POPC   C4B 9394  39.513  40.128   7.792
  373POPC   NC3 9395  20.932  19.743   9.569
  373POPC   PO4 9396  20.339  20.175   9.531
  373POPC   GL1 9397  20.449  19.880   9.218
  373POPC   GL2 9398  20.804  19.861   9.088
  373POPC   C1A 9399  20.314  19.687   8.842
  373POPC   D2A 9400  20.551  19.659   8.481
  373POPC   C3A 9401  20.371  19.728   8.074
  373POPC   C4A 9402  20.429  19.573   7.659
  373POPC   C1B 9403  20.956  19.930   8.671
  373POPC   C2B 9404  20.995  19.802   8.224
  373POPC   C3B 9405  20.836  19.837   7.812
  373POPC   C4B 9406  20.833  19.639   7.378
  374POPC   NC3 9407  25.830  37.302   9.808
  374POPC   PO4 9408  26.328  37.646   9.514
  374POPC   GL1 9409  26.217  37.765   9.121
  374POPC   GL2 9410  26.378  38.086   9.109
  374POPC   C1A 9411  26.127  37.572   8.729
  374POPC   D2A 9412  25.940  37.678   8.370
  374POPC   C3A 9413  26.112  37.517   8.018
  374POPC   C4A 9414  25.861  37.629   7.689
  374POPC   C1B 9415  26.500  38.026   8.665
  374POPC   C2B 9416  26.445  37.844   8.266
  374POPC   C3B 9417  26.392  37.907   7.816
  374POPC   C4B 9418  26.362  37.703   7.392
  375POPC   NC3 9419   6.917  29.706   9.885
  375POPC   PO4 9420   6.583  29.174   9.501
  375POPC   GL1 9421   6.627  29.245   9.082
  375POPC   GL2 9422   6.438  29.552   9.140
  375POPC   C1A 9423   6.919  29.201   8.738
  375POPC   D2A 9424   6.983  29.049   8.358
  375POPC   C3A 9425   6.730  29.136   8.075
  375POPC   C4A 9426   6.734  29.230   7.663
  375POPC   C1B 9427   6.262  29.464   8.780
  375POPC   C2B 9428   6.425  29.393   8.398
  375POPC   C3B 9429   6.463  29.551   7.984
  375POPC   C4B 9430   6.304  29.487   7.557
  376POPC   NC3 9431  43.857  28.123   9.240
  376POPC   PO4 9432  43.944  27.514   9.451
  376POPC   GL1 9433  43.770  27.412   9.073
  376POPC   GL2 9434  43.553  27.703   9.071
  376POPC   C1A 9435  43.968  27.454   8.676
  376POPC   D2A 9436  44.093  27.799   8.398
  376POPC   C3A 9437  43.981  27.753   7.979
  376POPC   C4A 9438  44.015  27.405   7.704
  376POPC   C1B 9439  43.659  27.877   8.682
  376POPC   C2B 9440  43.614  27.964   8.291
  376POPC   C3B 9441  43.423  27.854   7.963
  376POPC   C4B 9442  43.608  27.731   7.623
  377POPC   NC3 9443  42.771  14.204   9.564
  377POPC   PO4 9444  43.309  14.607   9.514
  377POPC   GL1 9445  43.377  14.509   9.099
  377POPC   GL2 9446  43.084  14.298   9.138
  377POPC   C1A 9447  43.243  14.435   8.673
  377POPC   D2A 9448  42.990  14.692   8.405
  377POPC   C3A 9449  43.031  14.435   8.080
  377POPC   C4A 9450  43.240  14.166   7.872
  377POPC   C1B 9451  42.808  14.095   8.862
  377POPC   C2B 9452  42.867  14.092   8.447
  377POPC   C3B 9453  42.833  13.931   8.048
  377POPC   C4B 9454  42.722  14.183   7.705
  378POPC   NC3 9455  39.553  30.683   9.811
  378POPC   PO4 9456  39.110  30.219   9.538
  378POPC   GL1 9457  39.059  30.513   9.173
  378POPC   GL2 9458  39.392  30.558   9.002
  378POPC   C1A 9459  38.990  30.812   8.808
  378POPC   D2A 9460  39.006  30.829   8.364
  378POPC   C3A 9461  39.173  30.600   8.052
  378POPC   C4A 9462  39.027  30.765   7.724
  378POPC   C1B 9463  39.471  30.859   8.647
  378POPC   C2B 9464  39.543  30.896   8.222
  378POPC   C3B 9465  39.487  30.973   7.774
  378POPC   C4B 9466  39.493  31.158   7.336
  379POPC   NC3 9467  31.173   8.449   9.504
  379POPC   PO4 9468  31.789   8.308   9.458
  379POPC   GL1 9469  31.808   8.248   9.048
  379POPC   GL2 9470  31.527   8.067   9.074
  379POPC   C1A 9471  31.798   8.268   8.592
  379POPC   D2A 9472  31.550   8.110   8.299
  379POPC   C3A 9473  31.543   8.192   7.857
  379POPC   C4A 9474  31.175   8.432   7.767
  379POPC   C1B 9475  31.624   7.769   8.748
  379POPC   C2B 9476  31.364   7.641   8.423
  379POPC   C3B 9477  31.514   7.704   8.016
  379POPC   C4B 9478  31.438   7.683   7.616
  380POPC   NC3 9479  23.174   4.803   9.448
  380POPC   PO4 9480  22.817   5.385   9.566
  380POPC   GL1 9481  23.038   5.207   9.150
  380POPC   GL2 9482  22.952   4.919   8.993
  380POPC   C1A 9483  23.255   5.192   8.702
  380POPC   D2A 9484  23.282   5.399   8.290
  380POPC   C3A 9485  22.983   5.349   7.952
  380POPC   C4A 9486  22.607   5.231   7.697
  380POPC   C1B 9487  23.080   4.720   8.659
  380POPC   C2B 9488  23.154   4.886   8.276
  380POPC   C3B 9489  22.815   4.883   8.026
  380POPC   C4B 9490  22.987   4.863   7.612
  381POPC   NC3 9491  23.350  25.183   9.221
  381POPC   PO4 9492  22.806  25.182   9.502
  381POPC   GL1 9493  22.728  25.178   9.081
  381POPC   GL2 9494  22.673  25.533   9.042
  381POPC   C1A 9495  22.876  25.225   8.647
  381POPC   D2A 9496  22.687  25.397   8.270
  381POPC   C3A 9497  22.785  25.123   7.912
  381POPC   C4A 9498  22.871  24.867   7.536
  381POPC   C1B 9499  23.111  25.647   8.822
  381POPC   C2B 9500  23.370  25.500   8.462
  381POPC   C3B 9501  23.147  25.509   8.048
  381POPC   C4B 9502  23.293  25.606   7.646
  382POPC   NC3 9503  28.712   6.093   9.538
  382POPC   PO4 9504  29.098   5.503   9.566
  382POPC   GL1 9505  29.115   5.524   9.151
  382POPC   GL2 9506  28.912   5.819   9.151
  382POPC   C1A 9507  29.145   5.652   8.744
  382POPC   D2A 9508  28.953   5.831   8.417
  382POPC   C3A 9509  28.959   5.634   8.038
  382POPC   C4A 9510  28.911   5.836   7.661
  382POPC   C1B 9511  28.987   6.162   8.832
  382POPC   C2B 9512  28.721   6.297   8.465
  382POPC   C3B 9513  28.676   6.089   8.059
  382POPC   C4B 9514  28.629   6.244   7.644
  383POPC   NC3 9515   5.738  40.400   9.841
  383POPC   PO4 9516   6.135  40.887   9.558
  383POPC   GL1 9517   5.933  40.750   9.145
  383POPC   GL2 9518   5.693  40.473   9.055
  383POPC   C1A 9519   5.736  40.937   8.760
  383POPC   D2A 9520   5.579  40.837   8.316
  383POPC   C3A 9521   5.868  40.999   7.988
  383POPC   C4A 9522   5.991  40.902   7.557
  383POPC   C1B 9523   5.844  40.432   8.641
  383POPC   C2B 9524   6.076  40.691   8.351
  383POPC   C3B 9525   6.187  40.586   7.915
  383POPC   C4B 9526   5.776  40.465   7.743
  384POPC   NC3 9527  23.133  33.291   9.577
  384POPC   PO4 9528  22.817  32.757   9.464
  384POPC   GL1 9529  22.879  33.010   9.118
  384POPC   GL2 9530  22.785  33.320   9.217
  384POPC   C1A 9531  22.744  33.131   8.699
  384POPC   D2A 9532  22.834  32.882   8.366
  384POPC   C3A 9533  22.747  32.939   7.960
  384POPC   C4A 9534  23.087  33.103   7.800
  384POPC   C1B 9535  23.089  33.451   8.934
  384POPC   C2B 9536  23.067  33.512   8.539
  384POPC   C3B 9537  22.844  33.414   8.161
  384POPC   C4B 9538  22.934  33.586   7.757
  385POPC   NC3 9539  32.277  13.382   9.543
  385POPC   PO4 9540  31.868  13.918   9.469
  385POPC   GL1 9541  32.191  13.769   9.183
  385POPC   GL2 9542  32.094  13.431   9.070
  385POPC   C1A 9543  32.361  13.821   8.763
  385POPC   D2A 9544  32.165  13.806   8.357
  385POPC   C3A 9545  32.340  13.833   7.971
  385POPC   C4A 9546  32.508  13.468   7.767
  385POPC   C1B 9547  32.127  13.336   8.625
  385POPC   C2B 9548  32.106  13.298   8.167
  385POPC   C3B 9549  31.980  13.498   7.808
  385POPC   C4B 9550  31.948  13.727   7.444
  386POPC   NC3 9551  15.581   6.080   9.429
  386POPC   PO4 9552  16.160   5.592   9.485
  386POPC   GL1 9553  15.990   5.716   9.087
  386POPC   GL2 9554  15.731   5.487   8.961
  386POPC   C1A 9555  16.050   5.826   8.673
  386POPC   D2A 9556  15.962   5.668   8.315
  386POPC   C3A 9557  16.192   5.978   8.118
  386POPC   C4A 9558  16.217   5.951   7.719
  386POPC   C1B 9559  15.585   5.911   8.795
  386POPC   C2B 9560  15.624   6.168   8.408
  386POPC   C3B 9561  15.705   6.033   8.003
  386POPC   C4B 9562  15.810   5.649   7.807
  387POPC   NC3 9563  33.359  25.037   9.619
  387POPC   PO4 9564  32.812  25.184   9.559
  387POPC   GL1 9565  33.028  25.224   9.197
  387POPC   GL2 9566  32.928  25.567   9.127
  387POPC   C1A 9567  33.112  25.195   8.772
  387POPC   D2A 9568  32.861  25.108   8.436
  387POPC   C3A 9569  32.911  25.279   8.037
  387POPC   C4A 9570  33.279  25.256   7.739
  387POPC   C1B 9571  32.754  25.549   8.707
  387POPC   C2B 9572  32.436  25.576   8.391
  387POPC   C3B 9573  32.565  25.684   7.992
  387POPC   C4B 9574  32.894  25.652   7.695
  388POPC   NC3 9575  42.404  24.103   9.433
  388POPC   PO4 9576  42.317  23.517   9.659
  388POPC   GL1 9577  42.483  23.631   9.236
  388POPC   GL2 9578  42.118  23.680   9.205
  388POPC   C1A 9579  42.505  23.764   8.778
  388POPC   D2A 9580  42.291  23.633   8.369
  388POPC   C3A 9581  42.521  23.752   8.006
  388POPC   C4A 9582  42.466  24.028   7.639
  388POPC   C1B 9583  42.010  23.810   8.813
  388POPC   C2B 9584  42.176  24.106   8.479
  388POPC   C3B 9585  42.137  24.080   8.032
  388POPC   C4B 9586  42.126  23.663   7.702
  389POPC   NC3 9587  12.463  10.253   9.580
  389POPC   PO4 9588  13.125  10.459   9.692
  389POPC   GL1 9589  13.095  10.386   9.217
  389POPC   GL2 9590  12.712  10.400   9.147
  389POPC   C1A 9591  13.154  10.601   8.780
  389POPC   D2A 9592  12.977  10.705   8.366
  389POPC   C3A 9593  13.141  10.621   7.925
  389POPC   C4A 9594  13.010  10.724   7.482
  389POPC   C1B 9595  12.814  10.230   8.747
  389POPC   C2B 9596  12.967  10.197   8.304
  389POPC   C3B 9597  12.791  10.279   7.872
  389POPC   C4B 9598  12.825  10.266   7.421
  390POPC   NC3 9599  31.286  35.564   9.724
  390POPC   PO4 9600  31.620  34.971   9.564
  390POPC   GL1 9601  31.716  35.224   9.186
  390POPC   GL2 9602  31.781  35.560   9.352
  390POPC   C1A 9603  31.682  35.094   8.710
  390POPC   D2A 9604  31.533  35.181   8.252
  390POPC   C3A 9605  31.426  35.130   7.787
  390POPC   C4A 9606  31.194  34.977   7.373
  390POPC   C1B 9607  31.682  35.741   8.946
  390POPC   C2B 9608  31.457  35.769   8.553
  390POPC   C3B 9609  31.447  35.683   8.114
  390POPC   C4B 9610  31.710  35.571   7.754
  391POPC   NC3 9611   2.544  39.721   9.362
  391POPC   PO4 9612   3.052  40.122   9.652
  391POPC   GL1 9613   2.906  40.087   9.199
  391POPC   GL2 9614   2.545  40.209   9.171
  391POPC   C1A 9615   2.872  40.271   8.767
  391POPC   D2A 9616   2.773  40.419   8.389
  391POPC   C3A 9617   2.832  40.205   8.033
  391POPC   C4A 9618   2.946  40.240   7.627
  391POPC   C1B 9619   2.336  40.021   8.823
  391POPC   C2B 9620   2.469  39.972   8.400
  391POPC   C3B 9621   2.376  39.899   7.990
  391POPC   C4B 9622   2.573  39.887   7.622
  392POPC   NC3 9623  22.632   4.186   9.424
  392POPC   PO4 9624  23.360   4.288   9.461
  392POPC   GL1 9625  23.208   4.364   9.068
  392POPC   GL2 9626  22.883   4.415   9.061
  392POPC   C1A 9627  23.077   4.229   8.641
  392POPC   D2A 9628  23.295   4.389   8.287
  392POPC   C3A 9629  22.997   4.412   7.974
  392POPC   C4A 9630  22.958   4.109   7.693
  392POPC   C1B 9631  22.608   4.165   8.785
  392POPC   C2B 9632  22.588   4.290   8.370
  392POPC   C3B 9633  22.532   4.165   7.970
  392POPC   C4B 9634  22.453   4.158   7.552
  393POPC   NC3 9635  40.795  35.077   9.424
  393POPC   PO4 9636  41.185  35.603   9.435
  393POPC   GL1 9637  40.917  35.529   9.083
  393POPC   GL2 9638  40.527  35.563   9.107
  393POPC   C1A 9639  41.114  35.269   8.769
  393POPC   D2A 9640  40.999  35.098   8.382
  393POPC   C3A 9641  40.926  35.433   8.099
  393POPC   C4A 9642  40.830  35.705   7.767
  393POPC   C1B 9643  40.595  35.320   8.691
  393POPC   C2B 9644  40.466  35.094   8.289
  393POPC   C3B 9645  40.540  35.186   7.841
  393POPC   C4B 9646  40.471  35.191   7.371
  394POPC   NC3 9647  15.016  31.055   9.605
  394POPC   PO4 9648  15.170  31.639   9.649
  394POPC   GL1 9649  15.143  31.414   9.202
  394POPC   GL2 9650  14.915  31.140   9.120
  394POPC   C1A 9651  15.068  31.498   8.722
  394POPC   D2A 9652  14.967  31.608   8.264
  394POPC   C3A 9653  15.277  31.628   7.916
  394POPC   C4A 9654  15.665  31.766   7.707
  394POPC   C1B 9655  14.690  31.156   8.768
  394POPC   C2B 9656  14.846  31.100   8.376
  394POPC   C3B 9657  14.620  31.146   8.017
  394POPC   C4B 9658  14.798  31.493   7.778
  395POPC   NC3 9659  22.795  34.148   9.775
  395POPC   PO4 9660  22.672  34.728   9.430
  395POPC   GL1 9661  22.818  34.735   9.031
  395POPC   GL2 9662  23.086  34.506   9.031
  395POPC   C1A 9663  22.788  34.572   8.626
  395POPC   D2A 9664  22.982  34.409   8.282
  395POPC   C3A 9665  22.666  34.541   8.000
  395POPC   C4A 9666  22.613  34.456   7.588
  395POPC   C1B 9667  23.326  34.456   8.712
  395POPC   C2B 9668  23.252  34.817   8.503
  395POPC   C3B 9669  23.037  34.908   8.156
  395POPC   C4B 9670  23.164  34.643   7.839
  396POPC   NC3 9671   5.381   5.709   9.483
  396POPC   PO4 9672   4.737   6.023   9.327
  396POPC   GL1 9673   5.158   6.040   9.110
  396POPC   GL2 9674   5.141   5.689   9.035
  396POPC   C1A 9675   5.400   5.937   8.687
  396POPC   D2A 9676   5.411   5.589   8.398
  396POPC   C3A 9677   5.396   5.714   8.018
  396POPC   C4A 9678   5.153   6.036   7.852
  396POPC   C1B 9679   4.948   5.721   8.607
  396POPC   C2B 9680   4.922   5.683   8.162
  396POPC   C3B 9681   4.769   5.623   7.767
  396POPC   C4B 9682   4.774   5.486   7.337
  397POPC   NC3 9683   6.368  26.686   9.601
  397POPC   PO4 9684   5.640  26.644   9.541
  397POPC   GL1 9685   5.959  26.698   9.212
  397POPC   GL2 9686   6.170  27.023   9.233
  397POPC   C1A 9687   5.977  26.512   8.786
  397POPC   D2A 9688   5.777  26.466   8.389
  397POPC   C3A 9689   6.022  26.477   8.019
  397POPC   C4A 9690   5.951  26.369   7.549
  397POPC   C1B 9691   6.051  27.004   8.776
  397POPC   C2B 9692   5.933  26.972   8.302
  397POPC   C3B 9693   6.031  27.184   7.893
  397POPC   C4B 9694   6.040  27.134   7.398
  398POPC   NC3 9695  34.909  33.473   9.850
  398POPC   PO4 9696  34.682  32.848   9.551
  398POPC   GL1 9697  34.567  33.146   9.226
  398POPC   GL2 9698  34.279  33.035   9.083
  398POPC   C1A 9699  34.670  33.249   8.789
  398POPC   D2A 9700  34.876  33.476   8.440
  398POPC   C3A 9701  34.827  33.238   8.068
  398POPC   C4A 9702  34.598  33.148   7.693
  398POPC   C1B 9703  34.312  32.789   8.751
  398POPC   C2B 9704  34.467  32.848   8.324
  398POPC   C3B 9705  34.323  32.755   7.929
  398POPC   C4B 9706  34.346  32.779   7.448
  399POPC   NC3 9707  12.474   4.192   9.527
  399POPC   PO4 9708  13.117   4.465   9.542
  399POPC   GL1 9709  12.864   4.418   9.189
  399POPC   GL2 9710  12.830   4.082   9.183
  399POPC   C1A 9711  12.913   4.329   8.735
  399POPC   D2A 9712  13.122   4.105   8.427
  399POPC   C3A 9713  12.909   4.260   8.103
  399POPC   C4A 9714  13.073   4.482   7.803
  399POPC   C1B 9715  12.518   4.041   8.869
  399POPC   C2B 9716  12.546   3.958   8.427
  399POPC   C3B 9717  12.458   4.013   7.987
  399POPC   C4B 9718  12.614   4.256   7.672
  400POPC   NC3 9719  38.891  42.469   9.429
  400POPC   PO4 9720  38.293  42.141   9.586
  400POPC   GL1 9721  38.171  42.157   9.177
  400POPC   GL2 9722  38.504  42.255   9.112
  400POPC   C1A 9723  38.117  42.331   8.775
  400POPC   D2A 9724  38.257  42.496   8.407
  400POPC   C3A 9725  38.442  42.192   8.168
  400POPC   C4A 9726  38.345  42.370   7.774
  400POPC   C1B 9727  38.570  42.595   8.836
  400POPC   C2B 9728  38.766  42.447   8.485
  400POPC   C3B 9729  38.754  42.571   8.061
  400POPC   C4B 9730  38.851  42.445   7.656
  401POPC   NC3 9731  31.802   3.874   9.406
  401POPC   PO4 9732  31.416   4.518   9.466
  401POPC   GL1 9733  31.418   4.384   9.104
  401POPC   GL2 9734  31.682   4.214   9.063
  401POPC   C1A 9735  31.474   4.590   8.756
  401POPC   D2A 9736  31.346   4.346   8.456
  401POPC   C3A 9737  31.474   4.444   8.073
  401POPC   C4A 9738  31.333   4.339   7.695
  401POPC   C1B 9739  31.634   3.990   8.716
  401POPC   C2B 9740  31.769   4.101   8.322
  401POPC   C3B 9741  31.661   3.957   7.923
  401POPC   C4B 9742  31.652   3.991   7.478
  402POPC   NC3 9743  24.583  22.479   9.869
  402POPC   PO4 9744  24.498  23.007   9.491
  402POPC   GL1 9745  24.495  22.920   9.124
  402POPC   GL2 9746  24.622  22.543   9.167
  402POPC   C1A 9747  24.427  23.212   8.776
  402POPC   D2A 9748  24.205  23.250   8.423
  402POPC   C3A 9749  24.511  23.314   8.100
  402POPC   C4A 9750  24.394  23.234   7.700
  402POPC   C1B 9751  24.598  22.658   8.721
  402POPC   C2B 9752  24.449  22.805   8.336
  402POPC   C3B 9753  24.628  22.837   7.937
  402POPC   C4B 9754  24.791  22.559   7.615
  403POPC   NC3 9755  19.771  44.501   9.675
  403POPC   PO4 9756  19.783  43.855   9.615
  403POPC   GL1 9757  19.725  43.611   9.231
  403POPC   GL2 9758  19.438  43.727   9.074
  403POPC   C1A 9759  19.863  43.807   8.813
  403POPC   D2A 9760  19.728  44.020   8.438
  403POPC   C3A 9761  20.030  43.926   8.144
  403POPC   C4A 9762  20.168  43.627   7.889
  403POPC   C1B 9763  19.266  43.896   8.707
  403POPC   C2B 9764  19.323  43.745   8.304
  403POPC   C3B 9765  19.607  43.698   7.946
  403POPC   C4B 9766  19.520  43.891   7.545
  404POPC   NC3 9767   0.172  27.851   9.578
  404POPC   PO4 9768   0.707  27.475   9.461
  404POPC   GL1 9769   0.335  27.539   9.197
  404POPC   GL2 9770   0.211  27.858   9.063
  404POPC   C1A 9771   0.400  27.452   8.793
  404POPC   D2A 9772   0.666  27.482   8.428
  404POPC   C3A 9773   0.477  27.426   8.017
  404POPC   C4A 9774   0.270  27.687   7.708
  404POPC   C1B 9775   0.662  27.884   8.867
  404POPC   C2B 9776   0.776  27.993   8.426
  404POPC   C3B 9777   0.656  27.923   7.999
  404POPC   C4B 9778   0.763  27.689   7.639
  405POPC   NC3 9779  17.727  29.514   9.492
  405POPC   PO4 9780  17.040  29.264   9.577
  405POPC   GL1 9781  17.285  29.343   9.217
  405POPC   GL2 9782  17.278  29.712   9.207
  405POPC   C1A 9783  17.490  29.126   8.841
  405POPC   D2A 9784  17.466  29.213   8.373
  405POPC   C3A 9785  17.338  29.050   7.950
  405POPC   C4A 9786  17.522  28.933   7.517
  405POPC   C1B 9787  17.260  29.564   8.762
  405POPC   C2B 9788  17.146  29.623   8.331
  405POPC   C3B 9789  17.303  29.603   7.917
  405POPC   C4B 9790  17.695  29.375   7.775
  406POPC   NC3 9791  11.830  39.990   9.344
  406POPC   PO4 9792  12.324  39.692   9.688
  406POPC   GL1 9793  12.289  39.760   9.180
  406POPC   GL2 9794  12.221  40.128   9.042
  406POPC   C1A 9795  12.114  39.787   8.698
  406POPC   D2A 9796  12.186  40.153   8.374
  406POPC   C3A 9797  12.208  40.199   7.892
  406POPC   C4A 9798  12.320  40.024   7.451
  406POPC   C1B 9799  11.825  40.236   8.733
  406POPC   C2B 9800  11.647  40.138   8.300
  406POPC   C3B 9801  11.768  39.938   7.890
  406POPC   C4B 9802  11.810  40.194   7.524
  407POPC   NC3 9803   4.633  18.828   9.448
  407POPC   PO4 9804   5.342  19.085   9.458
  407POPC   GL1 9805   5.289  19.141   9.033
  407POPC   GL2 9806   4.989  18.964   9.069
  407POPC   C1A 9807   5.149  19.087   8.583
  407POPC   D2A 9808   4.868  19.064   8.201
  407POPC   C3A 9809   5.104  19.305   7.869
  407POPC   C4A 9810   5.183  19.316   7.399
  407POPC   C1B 9811   5.247  18.650   8.860
  407POPC   C2B 9812   5.291  18.602   8.422
  407POPC   C3B 9813   5.276  18.810   8.025
  407POPC   C4B 9814   5.057  18.861   7.638
  408POPC   NC3 9815  12.190   0.375   9.572
  408POPC   PO4 9816  11.714   0.721   9.492
  408POPC   GL1 9817  11.828   0.683   9.105
  408POPC   GL2 9818  11.520   0.525   9.057
  408POPC   C1A 9819  12.040   0.442   8.787
  408POPC   D2A 9820  12.258   0.179   8.512
  408POPC   C3A 9821  12.296   0.335   8.115
  408POPC   C4A 9822  12.147   0.262   7.731
  408POPC   C1B 9823  11.560   0.433   8.632
  408POPC   C2B 9824  11.811   0.397   8.283
  408POPC   C3B 9825  11.745   0.571   7.883
  408POPC   C4B 9826  11.781   0.454   7.434
  409POPC   NC3 9827  28.756   1.848   9.468
  409POPC   PO4 9828  29.401   2.130   9.482
  409POPC   GL1 9829  29.108   2.065   9.167
  409POPC   GL2 9830  29.218   1.762   9.130
  409POPC   C1A 9831  28.863   1.864   8.794
  409POPC   D2A 9832  28.923   1.652   8.411
  409POPC   C3A 9833  28.769   1.856   8.018
  409POPC   C4A 9834  28.817   2.085   7.628
  409POPC   C1B 9835  29.384   1.854   8.729
  409POPC   C2B 9836  29.528   1.546   8.419
  409POPC   C3B 9837  29.293   1.535   8.075
  409POPC   C4B 9838  29.254   1.920   7.874
  410POPC   NC3 9839  19.182  32.895   9.425
  410POPC   PO4 9840  19.187  32.273   9.466
  410POPC   GL1 9841  19.258  32.035   9.129
  410POPC   GL2 9842  19.022  32.241   8.953
  410POPC   C1A 9843  19.381  32.012   8.703
  410POPC   D2A 9844  19.204  32.238   8.389
  410POPC   C3A 9845  19.192  32.026   8.008
  410POPC   C4A 9846  18.827  32.034   7.743
  410POPC   C1B 9847  19.413  32.510   8.810
  410POPC   C2B 9848  19.576  32.606   8.380
  410POPC   C3B 9849  19.324  32.572   8.004
  410POPC   C4B 9850  18.884  32.516   7.897
  411POPC   NC3 9851  25.216  21.195   9.417
  411POPC   PO4 9852  25.450  21.854   9.461
  411POPC   GL1 9853  25.467  21.584   9.142
  411POPC   GL2 9854  25.112  21.551   9.074
  411POPC   C1A 9855  25.478  21.410   8.743
  411POPC   D2A 9856  25.256  21.596   8.392
  411POPC   C3A 9857  25.307  21.437   7.984
  411POPC   C4A 9858  25.478  21.713   7.680
  411POPC   C1B 9859  24.978  21.287   8.702
  411POPC   C2B 9860  24.984  21.186   8.293
  411POPC   C3B 9861  24.819  21.207   7.893
  411POPC   C4B 9862  24.970  21.139   7.486
  412POPC   NC3 9863  37.993  42.526   9.520
  412POPC   PO4 9864  38.285  43.139   9.517
  412POPC   GL1 9865  38.144  43.122   9.108
  412POPC   GL2 9866  38.112  42.754   9.079
  412POPC   C1A 9867  38.380  43.112   8.733
  412POPC   D2A 9868  38.600  42.934   8.415
  412POPC   C3A 9869  38.601  43.111   8.023
  412POPC   C4A 9870  38.745  42.943   7.650
  412POPC   C1B 9871  37.941  42.810   8.680
  412POPC   C2B 9872  38.075  42.963   8.281
  412POPC   C3B 9873  38.163  42.896   7.853
  412POPC   C4B 9874  38.306  43.201   7.538
  413POPC   NC3 9875  42.542   0.655   9.340
  413POPC   PO4 9876  42.194   0.104   9.575
  413POPC   GL1 9877  42.228   0.297   9.150
  413POPC   GL2 9878  42.451   0.117   8.946
  413POPC   C1A 9879  42.248   0.556   8.743
  413POPC   D2A 9880  42.053   0.735   8.383
  413POPC   C3A 9881  42.098   0.477   8.008
  413POPC   C4A 9882  42.327   0.557   7.626
  413POPC   C1B 9883  42.642   0.284   8.557
  413POPC   C2B 9884  42.563   0.118   8.142
  413POPC   C3B 9885  42.595   0.124   7.697
  413POPC   C4B 9886  42.586   0.234   7.246
  414POPC   NC3 9887  32.979  26.561   9.795
  414POPC   PO4 9888  33.157  27.234   9.615
  414POPC   GL1 9889  33.024  26.969   9.304
  414POPC   GL2 9890  32.989  26.611   9.284
  414POPC   C1A 9891  32.929  26.980   8.894
  414POPC   D2A 9892  32.979  26.831   8.498
  414POPC   C3A 9893  32.799  26.901   8.131
  414POPC   C4A 9894  33.035  26.937   7.786
  414POPC   C1B 9895  33.128  26.488   8.891
  414POPC   C2B 9896  33.147  26.340   8.462
  414POPC   C3B 9897  33.084  26.500   8.057
  414POPC   C4B 9898  33.337  26.548   7.686
  415POPC   NC3 9899  21.593  25.638   9.488
  415POPC   PO4 9900  21.191  26.209   9.770
  415POPC   GL1 9901  21.381  26.150   9.337
  415POPC   GL2 9902  21.719  26.062   9.244
  415POPC   C1A 9903  21.315  26.132   8.883
  415POPC   D2A 9904  21.433  25.928   8.481
  415POPC   C3A 9905  21.399  26.217   8.132
  415POPC   C4A 9906  21.337  26.175   7.702
  415POPC   C1B 9907  21.815  26.104   8.823
  415POPC   C2B 9908  21.813  26.314   8.438
  415POPC   C3B 9909  21.879  26.350   8.008
  415POPC   C4B 9910  21.829  26.012   7.760
  416POPC   NC3 9911  29.726  20.571   9.393
  416POPC   PO4 9912  30.307  20.817   9.480
  416POPC   GL1 9913  30.035  20.746   9.064
  416POPC   GL2 9914  29.620  20.793   8.966
  416POPC   C1A 9915  29.935  20.522   8.681
  416POPC   D2A 9916  29.621  20.614   8.363
  416POPC   C3A 9917  29.817  20.540   7.934
  416POPC   C4A 9918  30.004  20.582   7.489
  416POPC   C1B 9919  29.427  21.128   8.743
  416POPC   C2B 9920  29.330  21.078   8.328
  416POPC   C3B 9921  29.686  21.052   8.064
  416POPC   C4B 9922  29.692  20.951   7.652
  417POPC   NC3 9923  39.429  15.705   9.557
  417POPC   PO4 9924  39.058  15.155   9.444
  417POPC   GL1 9925  39.269  15.364   9.132
  417POPC   GL2 9926  38.987  15.376   8.945
  417POPC   C1A 9927  39.374  15.213   8.699
  417POPC   D2A 9928  39.071  15.231   8.378
  417POPC   C3A 9929  39.260  15.276   8.009
  417POPC   C4A 9930  39.512  15.503   7.790
  417POPC   C1B 9931  38.948  14.939   8.787
  417POPC   C2B 9932  39.070  14.707   8.434
  417POPC   C3B 9933  39.060  14.812   8.007
  417POPC   C4B 9934  39.019  15.047   7.638
  418POPC   NC3 9935  24.358  33.725   9.698
  418POPC   PO4 9936  24.520  33.074   9.459
  418POPC   GL1 9937  24.768  32.808   9.200
  418POPC   GL2 9938  24.450  32.697   9.069
  418POPC   C1A 9939  24.856  32.697   8.756
  418POPC   D2A 9940  24.731  32.808   8.317
  418POPC   C3A 9941  24.716  33.127   7.985
  418POPC   C4A 9942  24.788  33.538   7.853
  418POPC   C1B 9943  24.235  32.628   8.717
  418POPC   C2B 9944  24.157  32.749   8.304
  418POPC   C3B 9945  24.394  32.729   7.919
  418POPC   C4B 9946  24.379  32.962   7.521
  419POPC   NC3 9947  36.909  35.089   9.725
  419POPC   PO4 9948  37.412  35.423   9.569
  419POPC   GL1 9949  37.117  35.312   9.214
  419POPC   GL2 9950  37.081  35.656   9.148
  419POPC   C1A 9951  36.868  35.302   8.745
  419POPC   D2A 9952  36.815  35.035   8.335
  419POPC   C3A 9953  36.752  35.239   7.894
  419POPC   C4A 9954  36.612  35.140   7.418
  419POPC   C1B 9955  37.242  35.686   8.740
  419POPC   C2B 9956  37.144  35.765   8.291
  419POPC   C3B 9957  37.195  35.566   7.877
  419POPC   C4B 9958  37.269  35.668   7.428
  420POPC   NC3 9959  44.525  20.962   9.676
  420POPC   PO4 9960  44.986  21.505   9.538
  420POPC   GL1 9961  44.766  21.529   9.160
  420POPC   GL2 9962  44.502  21.329   9.270
  420POPC   C1A 9963  44.683  21.632   8.706
  420POPC   D2A 9964  44.816  21.555   8.291
  420POPC   C3A 9965  44.647  21.651   7.901
  420POPC   C4A 9966  44.832  21.362   7.610
  420POPC   C1B 9967  44.470  21.187   8.831
  420POPC   C2B 9968  44.393  21.287   8.408
  420POPC   C3B 9969  44.230  21.295   8.006
  420POPC   C4B 9970  44.321  21.403   7.602
  421POPC   NC3 9971  10.348  44.424   9.506
  421POPC   PO4 9972  10.759  44.951   9.556
  421POPC   GL1 9973  10.613  44.733   9.189
  421POPC   GL2 9974  10.289  44.901   9.259
  421POPC   C1A 9975  10.631  44.459   8.771
  421POPC   D2A 9976  10.392  44.287   8.386
  421POPC   C3A 9977  10.464  44.433   7.942
  421POPC   C4A 9978  10.833  44.612   7.786
  421POPC   C1B 9979  10.209  44.723   8.870
  421POPC   C2B 9980  10.284  44.851   8.452
  421POPC   C3B 9981  10.391  44.944   8.036
  421POPC   C4B 9982  10.438  44.837   7.580
  422POPC   NC3 9983  39.449  43.448   9.546
  422POPC   PO4 9984  39.221  42.786   9.507
  422POPC   GL1 9985  39.201  43.131   9.196
  422POPC   GL2 9986  39.536  43.207   9.105
  422POPC   C1A 9987  38.981  43.113   8.784
  422POPC   D2A 9988  39.107  42.830   8.466
  422POPC   C3A 9989  39.104  42.920   8.020
  422POPC   C4A 9990  39.337  42.845   7.642
  422POPC   C1B 9991  39.422  43.391   8.735
  422POPC   C2B 9992  39.275  43.293   8.318
  422POPC   C3B 9993  39.441  43.288   7.898
  422POPC   C4B 9994  39.805  43.499   7.782
  423POPC   NC3 9995  10.517  18.570   9.428
  423POPC   PO4 9996  10.159  18.046   9.269
  423POPC   GL1 9997  10.398  18.282   9.034
  423POPC   GL2 9998  10.759  18.227   9.139
  423POPC   C1A 9999  10.268  18.324   8.647
  423POPC   D2A10000  10.155  18.432   8.270
  423POPC   C3A10001  10.286  18.096   8.018
  423POPC   C4A10002  10.689  18.072   7.833
  423POPC   C1B10003  10.803  18.500   8.775
  423POPC   C2B10004  10.673  18.450   8.357
  423POPC   C3B10005  10.688  18.582   7.947
  423POPC   C4B10006  10.896  18.524   7.557
  424POPC   NC310007  39.305  44.900   9.512
  424POPC   PO410008  39.733   0.382   9.497
  424POPC   GL110009  39.370   0.311   9.196
  424POPC   GL210010  38.994   0.289   9.288
  424POPC   C1A10011  39.298   0.537   8.807
  424POPC   D2A10012  39.458   0.726   8.429
  424POPC   C3A10013  39.248   0.633   8.061
  424POPC   C4A10014  39.490   0.620   7.686
  424POPC   C1B10015  38.819   0.360   8.855
  424POPC   C2B10016  39.008   0.313   8.429
  424POPC   C3B10017  38.945   0.174   7.995
  424POPC   C4B10018  39.267   0.161   7.701
  425POPC   NC310019   4.812  26.999   9.498
  425POPC   PO410020   4.641  26.403   9.128
  425POPC   GL110021   4.920  26.778   9.055
  425POPC   GL210022   5.294  26.731   9.145
  425POPC   C1A10023   5.011  26.919   8.677
  425POPC   D2A10024   4.946  26.768   8.266
  425POPC   C3A10025   5.103  27.121   8.032
  425POPC   C4A10026   4.966  27.262   7.641
  425POPC   C1B10027   5.555  26.811   8.803
  425POPC   C2B10028   5.433  26.870   8.390
  425POPC   C3B10029   5.453  26.729   7.991
  425POPC   C4B10030   5.755  26.803   7.723
  426POPC   NC310031  12.350  11.241   9.477
  426POPC   PO410032  11.677  11.084   9.512
  426POPC   GL110033  11.826  11.210   9.095
  426POPC   GL210034  12.097  11.418   9.064
  426POPC   C1A10035  11.940  11.147   8.662
  426POPC   D2A10036  11.977  11.400   8.271
  426POPC   C3A10037  11.912  11.216   7.899
  426POPC   C4A10038  12.233  11.018   7.656
  426POPC   C1B10039  12.314  11.543   8.685
  426POPC   C2B10040  12.470  11.558   8.274
  426POPC   C3B10041  12.387  11.463   7.870
  426POPC   C4B10042  12.283  11.651   7.496
  427POPC   NC310043  44.222  35.112   9.703
  427POPC   PO410044  43.894  35.620   9.475
  427POPC   GL110045  43.831  35.410   9.104
  427POPC   GL210046  43.888  35.087   9.293
  427POPC   C1A10047  43.755  35.611   8.686
  427POPC   D2A10048  43.739  35.368   8.301
  427POPC   C3A10049  43.883  35.482   7.891
  427POPC   C4A10050  43.763  35.125   7.682
  427POPC   C1B10051  44.127  34.987   8.945
  427POPC   C2B10052  44.028  34.946   8.520
  427POPC   C3B10053  44.106  35.044   8.101
  427POPC   C4B10054  44.261  35.143   7.692
  428POPC   NC310055  14.043  10.001   9.493
  428POPC   PO410056  14.696   9.772   9.368
  428POPC   GL110057  14.531   9.738   8.986
  428POPC   GL210058  14.302   9.971   9.055
  428POPC   C1A10059  14.473   9.872   8.557
  428POPC   D2A10060  14.580   9.874   8.119
  428POPC   C3A10061  14.606   9.466   7.887
  428POPC   C4A10062  14.797   9.355   7.474
  428POPC   C1B10063  14.074  10.176   8.758
  428POPC   C2B10064  13.924  10.161   8.337
  428POPC   C3B10065  14.126  10.084   7.967
  428POPC   C4B10066  14.169   9.740   7.745
  429POPC   NC310067  19.342  41.374   9.577
  429POPC   PO410068  18.845  41.811   9.539
  429POPC   GL110069  18.888  41.445   9.271
  429POPC   GL210070  19.185  41.508   9.062
  429POPC   C1A10071  18.732  41.332   8.855
  429POPC   D2A10072  18.741  41.714   8.583
  429POPC   C3A10073  18.833  41.593   8.148
  429POPC   C4A10074  19.008  41.657   7.732
  429POPC   C1B10075  19.166  41.381   8.583
  429POPC   C2B10076  19.355  41.533   8.186
  429POPC   C3B10077  19.574  41.627   7.807
  429POPC   C4B10078  19.384  41.813   7.397
  430POPC   NC310079  33.552   0.744   9.255
  430POPC   PO410080  33.730   0.173   9.513
  430POPC   GL110081  33.847   0.350   9.134
  430POPC   GL210082  33.519   0.311   9.033
  430POPC   C1A10083  33.936   0.513   8.734
  430POPC   D2A10084  33.823   0.687   8.373
  430POPC   C3A10085  33.868   0.488   8.016
  430POPC   C4A10086  34.081   0.402   7.678
  430POPC   C1B10087  33.405   0.454   8.615
  430POPC   C2B10088  33.343   0.824   8.346
  430POPC   C3B10089  33.550   0.894   7.957
  430POPC   C4B10090  33.554   0.586   7.591
  431POPC   NC310091  38.429  33.443  10.094
  431POPC   PO410092  38.533  33.977   9.686
  431POPC   GL110093  38.480  33.763   9.254
  431POPC   GL210094  38.262  33.474   9.179
  431POPC   C1A10095  38.590  33.633   8.821
  431POPC   D2A10096  38.327  33.517   8.462
  431POPC   C3A10097  38.465  33.547   8.060
  431POPC   C4A10098  38.489  33.757   7.683
  431POPC   C1B10099  38.094  33.754   8.866
  431POPC   C2B10100  38.006  33.923   8.462
  431POPC   C3B10101  38.105  33.900   8.053
  431POPC   C4B10102  37.999  33.650   7.694
  432POPC   NC310103  34.103   0.420   9.589
  432POPC   PO410104  34.702   0.384   9.414
  432POPC   GL110105  34.511   0.263   9.073
  432POPC   GL210106  34.266   0.072   9.222
  432POPC   C1A10107  34.589   0.452   8.683
  432POPC   D2A10108  34.768   0.594   8.315
  432POPC   C3A10109  34.461   0.586   7.985
  432POPC   C4A10110  34.511   0.648   7.558
  432POPC   C1B10111  34.124   0.061   8.784
  432POPC   C2B10112  34.253   0.227   8.382
  432POPC   C3B10113  34.598   0.123   8.138
  432POPC   C4B10114  34.541   0.159   7.710
  433POPC   NC310115  22.243  31.200   9.815
  433POPC   PO410116  21.989  30.652   9.482
  433POPC   GL110117  22.038  30.871   9.097
  433POPC   GL210118  22.323  30.754   8.977
  433POPC   C1A10119  22.028  31.026   8.648
  433POPC   D2A10120  22.142  30.941   8.191
  433POPC   C3A10121  21.819  30.859   7.864
  433POPC   C4A10122  21.741  30.464   7.564
  433POPC   C1B10123  22.435  30.710   8.581
  433POPC   C2B10124  22.274  30.396   8.369
  433POPC   C3B10125  22.060  30.448   8.006
  433POPC   C4B10126  22.227  30.630   7.641
  434POPC   NC310127  30.854  19.567   9.749
  434POPC   PO410128  30.549  18.943   9.497
  434POPC   GL110129  30.516  19.102   9.101
  434POPC   GL210130  30.281  19.340   9.249
  434POPC   C1A10131  30.726  18.967   8.690
  434POPC   D2A10132  30.616  18.766   8.303
  434POPC   C3A10133  30.744  18.966   7.918
  434POPC   C4A10134  30.938  19.152   7.559
  434POPC   C1B10135  30.390  19.522   8.845
  434POPC   C2B10136  30.500  19.334   8.467
  434POPC   C3B10137  30.373  19.270   8.084
  434POPC   C4B10138  30.512  19.409   7.671
  435POPC   NC310139  29.456  33.664   9.516
  435POPC   PO410140  28.802  33.891   9.406
  435POPC   GL110141  29.108  33.741   9.131
  435POPC   GL210142  29.371  34.010   9.127
  435POPC   C1A10143  29.038  33.768   8.699
  435POPC   D2A10144  29.073  34.100   8.414
  435POPC   C3A10145  29.180  34.004   8.000
  435POPC   C4A10146  29.116  33.577   7.903
  435POPC   C1B10147  29.545  33.799   8.767
  435POPC   C2B10148  29.415  33.674   8.338
  435POPC   C3B10149  29.627  33.726   7.946
  435POPC   C4B10150  29.630  34.098   7.737
  436POPC   NC310151  27.482   2.485   9.320
  436POPC   PO410152  27.375   1.857   9.508
  436POPC   GL110153  27.380   2.044   9.100
  436POPC   GL210154  27.755   2.066   9.130
  436POPC   C1A10155  27.471   1.899   8.684
  436POPC   D2A10156  27.707   2.045   8.320
  436POPC   C3A10157  27.503   2.035   7.929
  436POPC   C4A10158  27.182   1.784   7.807
  436POPC   C1B10159  27.997   2.141   8.736
  436POPC   C2B10160  28.137   2.346   8.362
  436POPC   C3B10161  27.946   2.304   7.943
  436POPC   C4B10162  27.812   2.128   7.508
  437POPC   NC310163  35.465  22.623   9.320
  437POPC   PO410164  35.058  21.970   9.445
  437POPC   GL110165  35.177  22.207   9.110
  437POPC   GL210166  35.231  21.868   8.966
  437POPC   C1A10167  35.395  22.276   8.713
  437POPC   D2A10168  35.318  22.060   8.325
  437POPC   C3A10169  35.500  22.312   7.986
  437POPC   C4A10170  35.432  22.362   7.537
  437POPC   C1B10171  35.623  21.786   8.757
  437POPC   C2B10172  35.776  21.813   8.323
  437POPC   C3B10173  35.553  21.804   7.948
  437POPC   C4B10174  35.563  21.871   7.536
  438POPC   NC310175   2.461   3.064   9.379
  438POPC   PO410176   3.033   2.739   9.447
  438POPC   GL110177   2.821   2.682   9.089
  438POPC   GL210178   2.469   2.596   9.143
  438POPC   C1A10179   2.932   2.880   8.705
  438POPC   D2A10180   2.735   3.012   8.353
  438POPC   C3A10181   2.849   2.824   8.004
  438POPC   C4A10182   2.726   2.898   7.593
  438POPC   C1B10183   2.402   2.841   8.753
  438POPC   C2B10184   2.198   2.775   8.342
  438POPC   C3B10185   2.350   2.756   7.920
  438POPC   C4B10186   2.302   2.666   7.469
  439POPC   NC310187  19.658  37.480   9.500
  439POPC   PO410188  20.045  36.809   9.484
  439POPC   GL110189  20.069  36.872   9.077
  439POPC   GL210190  19.823  37.137   9.069
  439POPC   C1A10191  19.978  36.630   8.717
  439POPC   D2A10192  20.151  36.408   8.338
  439POPC   C3A10193  19.876  36.497   7.996
  439POPC   C4A10194  19.947  36.772   7.697
  439POPC   C1B10195  19.556  37.006   8.703
  439POPC   C2B10196  19.548  36.804   8.265
  439POPC   C3B10197  19.461  36.880   7.813
  439POPC   C4B10198  19.507  37.290   7.649
  440POPC   NC310199  32.815   5.598   9.581
  440POPC   PO410200  33.113   6.188   9.540
  440POPC   GL110201  33.027   6.044   9.177
  440POPC   GL210202  33.192   5.760   9.275
  440POPC   C1A10203  33.172   6.047   8.754
  440POPC   D2A10204  33.123   6.325   8.403
  440POPC   C3A10205  33.086   6.130   7.983
  440POPC   C4A10206  33.237   6.193   7.549
  440POPC   C1B10207  32.997   5.588   8.934
  440POPC   C2B10208  33.022   5.612   8.505
  440POPC   C3B10209  33.001   5.613   8.062
  440POPC   C4B10210  32.887   5.783   7.664
  441POPC   NC310211  25.680   8.815   9.629
  441POPC   PO410212  26.203   9.179   9.755
  441POPC   GL110213  26.130   8.966   9.373
  441POPC   GL210214  26.258   8.603   9.319
  441POPC   C1A10215  26.010   8.880   8.958
  441POPC   D2A10216  26.180   8.919   8.563
  441POPC   C3A10217  25.889   8.896   8.195
  441POPC   C4A10218  25.989   9.007   7.748
  441POPC   C1B10219  26.314   8.459   8.873
  441POPC   C2B10220  26.290   8.439   8.412
  441POPC   C3B10221  26.360   8.785   8.093
  441POPC   C4B10222  26.327   8.596   7.729
  442POPC   NC310223  15.797  39.621   9.498
  442POPC   PO410224  16.055  38.987   9.533
  442POPC   GL110225  15.886  39.175   9.194
  442POPC   GL210226  16.130  39.417   9.123
  442POPC   C1A10227  15.962  39.060   8.778
  442POPC   D2A10228  16.108  39.194   8.388
  442POPC   C3A10229  15.914  39.109   7.997
  442POPC   C4A10230  15.966  38.785   7.686
  442POPC   C1B10231  15.998  39.578   8.714
  442POPC   C2B10232  16.197  39.693   8.328
  442POPC   C3B10233  16.007  39.644   7.957
  442POPC   C4B10234  15.877  39.484   7.589
  443POPC   NC310235  11.846  28.045   9.510
  443POPC   PO410236  11.148  28.275   9.435
  443POPC   GL110237  11.314  28.336   9.052
  443POPC   GL210238  11.017  28.537   8.999
  443POPC   C1A10239  11.475  28.590   8.698
  443POPC   D2A10240  11.436  28.448   8.250
  443POPC   C3A10241  11.466  28.753   7.943
  443POPC   C4A10242  11.307  28.823   7.543
  443POPC   C1B10243  11.059  28.316   8.593
  443POPC   C2B10244  10.918  28.277   8.159
  443POPC   C3B10245  11.159  28.326   7.774
  443POPC   C4B10246  11.605  28.284   7.741
  444POPC   NC310247  37.472   6.806   9.652
  444POPC   PO410248  37.914   6.368   9.521
  444POPC   GL110249  37.806   6.712   9.173
  444POPC   GL210250  37.468   6.935   9.159
  444POPC   C1A10251  37.799   6.692   8.706
  444POPC   D2A10252  37.549   6.613   8.325
  444POPC   C3A10253  37.557   6.600   7.873
  444POPC   C4A10254  37.984   6.633   7.712
  444POPC   C1B10255  37.300   6.771   8.769
  444POPC   C2B10256  37.133   6.877   8.361
  444POPC   C3B10257  37.371   7.073   8.022
  444POPC   C4B10258  37.671   7.061   7.696
  445POPC   NC310259   8.889  40.372   9.522
  445POPC   PO410260   9.369  39.981   9.344
  445POPC   GL110261   9.191  40.234   8.995
  445POPC   GL210262   8.804  40.266   9.016
  445POPC   C1A10263   9.002  40.118   8.565
  445POPC   D2A10264   8.679  40.153   8.239
  445POPC   C3A10265   8.949  40.076   7.946
  445POPC   C4A10266   9.283  39.832   7.893
  445POPC   C1B10267   8.497  40.047   8.729
  445POPC   C2B10268   8.562  39.686   8.429
  445POPC   C3B10269   8.805  39.591   8.044
  445POPC   C4B10270   8.783  39.743   7.606
  446POPC   NC310271  23.308  25.909   9.460
  446POPC   PO410272  22.747  26.176   9.409
  446POPC   GL110273  22.923  26.015   9.112
  446POPC   GL210274  23.230  26.227   9.068
  446POPC   C1A10275  22.688  25.940   8.752
  446POPC   D2A10276  22.685  26.153   8.390
  446POPC   C3A10277  22.736  25.883   8.067
  446POPC   C4A10278  22.703  26.155   7.738
  446POPC   C1B10279  23.129  26.153   8.673
  446POPC   C2B10280  23.160  25.946   8.334
  446POPC   C3B10281  23.182  26.087   7.929
  446POPC   C4B10282  23.528  26.150   7.698
  447POPC   NC310283  11.114  27.834   9.297
  447POPC   PO410284  11.650  27.536   9.497
  447POPC   GL110285  11.588  27.492   9.104
  447POPC   GL210286  11.598  27.862   9.080
  447POPC   C1A10287  11.490  27.250   8.745
  447POPC   D2A10288  11.304  27.399   8.350
  447POPC   C3A10289  11.364  27.166   7.972
  447POPC   C4A10290  11.438  27.462   7.630
  447POPC   C1B10291  11.373  27.765   8.718
  447POPC   C2B10292  11.334  27.950   8.365
  447POPC   C3B10293  11.362  27.847   7.988
  447POPC   C4B10294  11.092  27.814   7.699
  448POPC   NC310295  37.242  18.300   9.191
  448POPC   PO410296  36.669  18.419   9.488
  448POPC   GL110297  36.735  18.315   9.093
  448POPC   GL210298  36.653  17.998   8.974
  448POPC   C1A10299  36.851  18.343   8.681
  448POPC   D2A10300  36.676  18.078   8.407
  448POPC   C3A10301  36.857  18.209   8.059
  448POPC   C4A10302  36.789  18.344   7.663
  448POPC   C1B10303  37.025  17.846   8.727
  448POPC   C2B10304  37.172  17.845   8.306
  448POPC   C3B10305  37.294  17.996   7.897
  448POPC   C4B10306  37.237  18.198   7.510
  449POPC   NC310307  34.180  26.353   9.512
  449POPC   PO410308  34.653  25.938   9.552
  449POPC   GL110309  34.433  25.796   9.199
  449POPC   GL210310  34.415  26.148   9.113
  449POPC   C1A10311  34.348  25.807   8.751
  449POPC   D2A10312  34.413  26.058   8.409
  449POPC   C3A10313  34.418  25.895   8.011
  449POPC   C4A10314  34.811  25.880   7.799
  449POPC   C1B10315  34.116  26.271   8.810
  449POPC   C2B10316  34.156  26.489   8.446
  449POPC   C3B10317  34.315  26.473   8.041
  449POPC   C4B10318  34.090  26.218   7.755
  450POPC   NC310319   8.048  44.401   9.662
  450POPC   PO410320   8.586  44.765   9.496
  450POPC   GL110321   8.496  44.724   9.121
  450POPC   GL210322   8.298  44.466   9.198
  450POPC   C1A10323   8.310  44.882   8.757
  450POPC   D2A10324   8.406  44.808   8.330
  450POPC   C3A10325   8.564   0.154   8.067
  450POPC   C4A10326   8.426  44.943   7.730
  450POPC   C1B10327   8.395  44.369   8.778
  450POPC   C2B10328   8.228  44.329   8.378
  450POPC   C3B10329   8.187  44.445   7.979
  450POPC   C4B10330   8.529  44.430   7.733
  451POPC   NC310331  25.970   7.350   9.634
  451POPC   PO410332  26.480   7.779   9.437
  451POPC   GL110333  26.244   7.423   9.169
  451POPC   GL210334  25.901   7.383   9.124
  451POPC   C1A10335  26.188   7.289   8.698
  451POPC   D2A10336  26.022   7.500   8.301
  451POPC   C3A10337  25.965   7.249   7.967
  451POPC   C4A10338  26.349   7.084   7.869
  451POPC   C1B10339  25.751   7.586   8.727
  451POPC   C2B10340  25.569   7.720   8.331
  451POPC   C3B10341  25.741   7.777   7.911
  451POPC   C4B10342  25.708   7.834   7.477
  452POPC   NC310343  24.083  36.353   9.459
  452POPC   PO410344  23.428  36.050   9.471
  452POPC   GL110345  23.642  36.219   9.155
  452POPC   GL210346  23.892  35.982   9.197
  452POPC   C1A10347  23.460  36.082   8.775
  452POPC   D2A10348  23.314  36.254   8.418
  452POPC   C3A10349  23.606  36.266   8.111
  452POPC   C4A10350  23.521  36.297   7.709
  452POPC   C1B10351  23.880  35.820   8.829
  452POPC   C2B10352  23.809  35.913   8.413
  452POPC   C3B10353  23.660  35.709   8.052
  452POPC   C4B10354  23.818  35.858   7.670
  453POPC   NC310355  10.770  38.148   9.537
  453POPC   PO410356  10.513  37.571   9.401
  453POPC   GL110357  10.481  37.890   9.119
  453POPC   GL210358  10.615  37.575   8.908
  453POPC   C1A10359  10.328  37.940   8.702
  453POPC   D2A10360  10.415  37.590   8.442
  453POPC   C3A10361  10.610  37.617   8.081
  453POPC   C4A10362  10.439  37.563   7.706
  453POPC   C1B10363  10.952  37.430   8.632
  453POPC   C2B10364  10.970  37.211   8.233
  453POPC   C3B10365  10.985  37.375   7.795
  453POPC   C4B10366  10.799  37.579   7.383
  454POPC   NC310367  30.076  19.838   9.823
  454POPC   PO410368  29.637  20.084   9.397
  454POPC   GL110369  29.944  20.074   9.079
  454POPC   GL210370  29.964  19.718   9.113
  454POPC   C1A10371  30.133  19.947   8.670
  454POPC   D2A10372  30.085  19.596   8.387
  454POPC   C3A10373  30.160  19.721   7.960
  454POPC   C4A10374  30.067  20.104   7.716
  454POPC   C1B10375  29.675  19.720   8.738
  454POPC   C2B10376  29.680  19.882   8.307
  454POPC   C3B10377  29.660  19.802   7.874
  454POPC   C4B10378  29.522  19.484   7.654
  455POPC   NC310379  21.835  13.114   9.489
  455POPC   PO410380  21.572  13.724   9.389
  455POPC   GL110381  21.454  13.393   9.090
  455POPC   GL210382  21.077  13.360   9.063
  455POPC   C1A10383  21.563  13.422   8.634
  455POPC   D2A10384  21.760  13.728   8.348
  455POPC   C3A10385  21.515  13.754   7.955
  455POPC   C4A10386  21.537  13.710   7.521
  455POPC   C1B10387  21.180  13.724   8.816
  455POPC   C2B10388  21.247  13.804   8.405
  455POPC   C3B10389  21.037  13.971   8.063
  455POPC   C4B10390  21.011  13.736   7.670
  456POPC   NC310391  13.465  28.356   9.420
  456POPC   PO410392  13.983  28.727   9.346
  456POPC   GL110393  13.821  28.418   9.015
  456POPC   GL210394  13.471  28.334   8.906
  456POPC   C1A10395  13.889  28.245   8.585
  456POPC   D2A10396  13.524  28.175   8.274
  456POPC   C3A10397  13.608  27.973   7.856
  456POPC   C4A10398  13.994  28.175   7.681
  456POPC   C1B10399  13.598  28.661   8.632
  456POPC   C2B10400  13.534  28.793   8.240
  456POPC   C3B10401  13.725  28.574   7.937
  456POPC   C4B10402  13.444  28.415   7.668
  457POPC   NC310403  31.176   5.673   9.452
  457POPC   PO410404  31.508   6.290   9.551
  457POPC   GL110405  31.488   6.067   9.124
  457POPC   GL210406  31.157   6.077   9.094
  457POPC   C1A10407  31.646   5.910   8.692
  457POPC   D2A10408  31.683   5.636   8.308
  457POPC   C3A10409  31.572   5.803   7.894
  457POPC   C4A10410  31.846   6.077   7.649
  457POPC   C1B10411  31.261   6.268   8.702
  457POPC   C2B10412  31.288   6.163   8.300
  457POPC   C3B10413  31.192   6.290   7.895
  457POPC   C4B10414  31.369   6.257   7.488
  458POPC   NC310415  17.944  38.440   9.458
  458POPC   PO410416  18.451  38.786   9.444
  458POPC   GL110417  18.357  38.502   9.132
  458POPC   GL210418  18.090  38.745   9.092
  458POPC   C1A10419  18.145  38.390   8.712
  458POPC   D2A10420  17.931  38.442   8.307
  458POPC   C3A10421  18.099  38.223   7.983
  458POPC   C4A10422  18.440  38.291   7.694
  458POPC   C1B10423  18.412  38.839   8.771
  458POPC   C2B10424  18.579  38.726   8.378
  458POPC   C3B10425  18.341  38.688   8.012
  458POPC   C4B10426  18.096  38.658   7.660
  459POPC   NC310427  24.748  30.548   9.592
  459POPC   PO410428  25.379  30.526   9.580
  459POPC   GL110429  25.310  30.494   9.145
  459POPC   GL210430  25.601  30.312   9.090
  459POPC   C1A10431  25.104  30.681   8.754
  459POPC   D2A10432  25.314  30.840   8.374
  459POPC   C3A10433  25.247  30.637   7.976
  459POPC   C4A10434  24.982  30.737   7.636
  459POPC   C1B10435  25.560  30.480   8.670
  459POPC   C2B10436  25.666  30.479   8.234
  459POPC   C3B10437  25.743  30.538   7.789
  459POPC   C4B10438  25.607  30.417   7.349
  460POPC   NC310439  23.516  43.309   9.857
  460POPC   PO410440  23.847  43.455   9.522
  460POPC   GL110441  23.843  43.339   9.055
  460POPC   GL210442  23.654  43.626   8.953
  460POPC   C1A10443  23.753  42.992   8.708
  460POPC   D2A10444  23.873  42.701   8.294
  460POPC   C3A10445  23.691  42.766   7.851
  460POPC   C4A10446  23.890  42.993   7.500
  460POPC   C1B10447  23.736  43.486   8.537
  460POPC   C2B10448  23.899  43.572   8.121
  460POPC   C3B10449  23.696  43.509   7.723
  460POPC   C4B10450  23.456  43.708   7.402
  461POPC   NC310451  43.150  29.509   9.521
  461POPC   PO410452  43.424  30.127   9.542
  461POPC   GL110453  43.218  29.921   9.204
  461POPC   GL210454  43.426  29.605   9.103
  461POPC   C1A10455  43.071  30.124   8.805
  461POPC   D2A10456  42.884  30.132   8.376
  461POPC   C3A10457  43.084  29.904   8.025
  461POPC   C4A10458  43.122  30.151   7.646
  461POPC   C1B10459  43.009  29.599   8.868
  461POPC   C2B10460  42.883  29.603   8.427
  461POPC   C3B10461  42.778  29.407   8.034
  461POPC   C4B10462  42.915  29.501   7.663
  462POPC   NC310463  11.641   4.051   9.408
  462POPC   PO410464  12.147   4.520   9.491
  462POPC   GL110465  12.174   4.361   9.086
  462POPC   GL210466  11.971   4.096   9.020
  462POPC   C1A10467  12.200   4.340   8.625
  462POPC   D2A10468  12.508   4.466   8.343
  462POPC   C3A10469  12.272   4.520   7.980
  462POPC   C4A10470  12.072   4.235   7.681
  462POPC   C1B10471  12.088   3.834   8.656
  462POPC   C2B10472  12.022   3.880   8.205
  462POPC   C3B10473  11.821   3.787   7.792
  462POPC   C4B10474  11.688   4.020   7.408
  463POPC   NC310475   6.312  40.348   9.462
  463POPC   PO410476   6.387  39.641   9.425
  463POPC   GL110477   6.717  39.790   9.161
  463POPC   GL210478   6.642  40.148   9.098
  463POPC   C1A10479   6.900  39.869   8.759
  463POPC   D2A10480   6.684  39.866   8.404
  463POPC   C3A10481   6.947  39.822   8.115
  463POPC   C4A10482   6.905  39.901   7.715
  463POPC   C1B10483   6.476  40.409   8.743
  463POPC   C2B10484   6.388  40.303   8.323
  463POPC   C3B10485   6.562  40.154   7.971
  463POPC   C4B10486   6.622  40.307   7.578
  464POPC   NC310487  44.129  18.478   9.687
  464POPC   PO410488  43.516  18.288   9.492
  464POPC   GL110489  43.937  18.331   9.216
  464POPC   GL210490  44.168  18.648   9.204
  464POPC   C1A10491  43.952  18.215   8.756
  464POPC   D2A10492  43.623  18.354   8.455
  464POPC   C3A10493  43.689  18.441   8.005
  464POPC   C4A10494  43.935  18.201   7.743
  464POPC   C1B10495  43.971  18.706   8.795
  464POPC   C2B10496  44.046  18.651   8.342
  464POPC   C3B10497  43.991  18.828   7.915
  464POPC   C4B10498  43.939  18.665   7.483
  465POPC   NC310499  11.406   8.449   9.847
  465POPC   PO410500  11.377   9.005   9.507
  465POPC   GL110501  11.304   8.822   9.110
  465POPC   GL210502  11.588   8.618   9.073
  465POPC   C1A10503  11.109   9.001   8.726
  465POPC   D2A10504  11.338   9.103   8.327
  465POPC   C3A10505  11.210   8.977   7.945
  465POPC   C4A10506  10.888   9.221   7.769
  465POPC   C1B10507  11.600   8.862   8.701
  465POPC   C2B10508  11.687   8.674   8.340
  465POPC   C3B10509  11.724   8.829   7.945
  465POPC   C4B10510  11.630   9.218   7.758
  466POPC   NC310511   1.373   8.471   9.176
  466POPC   PO410512   1.080   8.011   9.491
  466POPC   GL110513   1.167   8.029   9.062
  466POPC   GL210514   1.494   7.914   9.167
  466POPC   C1A10515   1.114   8.264   8.643
  466POPC   D2A10516   0.981   8.523   8.279
  466POPC   C3A10517   1.172   8.321   7.933
  466POPC   C4A10518   1.185   7.899   7.845
  466POPC   C1B10519   1.594   8.018   8.765
  466POPC   C2B10520   1.483   7.960   8.376
  466POPC   C3B10521   1.839   8.082   8.174
  466POPC   C4B10522   1.705   8.029   7.809
  467POPC   NC310523  28.723   5.276   9.895
  467POPC   PO410524  28.195   5.315   9.440
  467POPC   GL110525  28.251   5.018   9.166
  467POPC   GL210526  28.529   4.885   9.296
  467POPC   C1A10527  28.201   4.823   8.783
  467POPC   D2A10528  28.408   4.931   8.417
  467POPC   C3A10529  28.186   4.901   8.052
  467POPC   C4A10530  28.337   5.007   7.670
  467POPC   C1B10531  28.640   5.100   8.857
  467POPC   C2B10532  28.736   5.333   8.462
  467POPC   C3B10533  28.661   5.189   8.033
  467POPC   C4B10534  28.639   5.412   7.637
  468POPC   NC310535  11.245  27.187   9.581
  468POPC   PO410536  11.716  26.617   9.758
  468POPC   GL110537  11.436  26.765   9.308
  468POPC   GL210538  11.174  27.003   9.127
  468POPC   C1A10539  11.357  26.676   8.801
  468POPC   D2A10540  11.149  26.878   8.392
  468POPC   C3A10541  11.206  26.647   7.989
  468POPC   C4A10542  11.589  26.752   7.771
  468POPC   C1B10543  10.975  27.268   8.795
  468POPC   C2B10544  10.804  27.295   8.387
  468POPC   C3B10545  10.918  27.388   7.937
  468POPC   C4B10546  11.042  27.167   7.546
  469POPC   NC310547   4.668  30.473   9.591
  469POPC   PO410548   5.025  29.897   9.591
  469POPC   GL110549   5.094  29.885   9.200
  469POPC   GL210550   5.341  29.596   9.183
  469POPC   C1A10551   5.337  29.971   8.842
  469POPC   D2A10552   5.241  30.045   8.446
  469POPC   C3A10553   5.486  29.828   8.165
  469POPC   C4A10554   5.594  29.981   7.788
  469POPC   C1B10555   4.997  29.547   8.868
  469POPC   C2B10556   5.051  29.553   8.454
  469POPC   C3B10557   4.980  29.762   8.089
  469POPC   C4B10558   4.962  29.840   7.665
  470POPC   NC310559  37.214   7.767   9.550
  470POPC   PO410560  36.867   8.399   9.467
  470POPC   GL110561  37.003   8.062   9.160
  470POPC   GL210562  37.361   7.979   9.125
  470POPC   C1A10563  36.923   8.212   8.747
  470POPC   D2A10564  36.931   8.497   8.400
  470POPC   C3A10565  36.681   8.389   8.044
  470POPC   C4A10566  36.828   8.382   7.615
  470POPC   C1B10567  37.232   7.819   8.737
  470POPC   C2B10568  37.032   7.895   8.349
  470POPC   C3B10569  37.090   8.085   7.967
  470POPC   C4B10570  36.969   7.858   7.634
  471POPC   NC310571  27.724  31.133   9.399
  471POPC   PO410572  27.413  31.729   9.410
  471POPC   GL110573  27.660  31.531   9.071
  471POPC   GL210574  27.804  31.191   8.910
  471POPC   C1A10575  27.658  31.578   8.641
  471POPC   D2A10576  27.792  31.450   8.274
  471POPC   C3A10577  27.559  31.769   8.072
  471POPC   C4A10578  27.276  31.728   7.740
  471POPC   C1B10579  27.382  31.156   8.748
  471POPC   C2B10580  27.150  31.072   8.344
  471POPC   C3B10581  27.295  31.251   7.991
  471POPC   C4B10582  27.694  31.186   7.832
  472POPC   NC310583  31.693  29.029   9.375
  472POPC   PO410584  31.435  29.594   9.513
  472POPC   GL110585  31.397  29.396   9.131
  472POPC   GL210586  31.192  29.073   9.198
  472POPC   C1A10587  31.491  29.221   8.731
  472POPC   D2A10588  31.322  29.314   8.328
  472POPC   C3A10589  31.600  29.351   7.988
  472POPC   C4A10590  31.590  28.973   7.762
  472POPC   C1B10591  31.031  28.953   8.782
  472POPC   C2B10592  31.232  28.779   8.394
  472POPC   C3B10593  31.142  28.869   7.968
  472POPC   C4B10594  31.113  29.295   7.821
  473POPC   NC310595   6.660   4.601   9.367
  473POPC   PO410596   6.869   3.982   9.451
  473POPC   GL110597   6.794   4.173   9.061
  473POPC   GL210598   7.010   4.448   9.049
  473POPC   C1A10599   6.565   4.380   8.723
  473POPC   D2A10600   6.275   4.321   8.381
  473POPC   C3A10601   6.397   4.336   7.932
  473POPC   C4A10602   6.265   4.279   7.448
  473POPC   C1B10603   6.999   4.660   8.691
  473POPC   C2B10604   6.887   4.556   8.259
  473POPC   C3B10605   6.904   4.424   7.833
  473POPC   C4B10606   7.089   4.507   7.412
  474POPC   NC310607  42.015   2.323   9.528
  474POPC   PO410608  41.894   2.937   9.490
  474POPC   GL110609  42.075   2.646   9.126
  474POPC   GL210610  42.390   2.427   9.177
  474POPC   C1A10611  41.973   2.595   8.666
  474POPC   D2A10612  42.103   2.760   8.243
  474POPC   C3A10613  42.005   2.564   7.823
  474POPC   C4A10614  41.894   2.720   7.419
  474POPC   C1B10615  42.471   2.584   8.768
  474POPC   C2B10616  42.578   2.838   8.413
  474POPC   C3B10617  42.488   2.948   7.964
  474POPC   C4B10618  42.425   2.736   7.568
  475POPC   NC310619  32.605  43.722   9.579
  475POPC   PO410620  32.099  43.313   9.445
  475POPC   GL110621  32.182  43.204   9.051
  475POPC   GL210622  32.444  42.978   9.056
  475POPC   C1A10623  32.024  43.069   8.685
  475POPC   D2A10624  31.790  43.136   8.321
  475POPC   C3A10625  31.717  42.879   7.995
  475POPC   C4A10626  31.683  43.144   7.615
  475POPC   C1B10627  32.508  43.040   8.604
  475POPC   C2B10628  32.270  43.322   8.318
  475POPC   C3B10629  32.119  43.265   7.913
  475POPC   C4B10630  32.161  42.873   7.724
  476POPC   NC310631   8.821  21.320   9.859
  476POPC   PO410632   9.250  21.341   9.376
  476POPC   GL110633   8.968  21.339   9.090
  476POPC   GL210634   8.745  21.133   9.260
  476POPC   C1A10635   9.048  21.311   8.679
  476POPC   D2A10636   9.024  21.510   8.307
  476POPC   C3A10637   9.277  21.404   7.984
  476POPC   C4A10638   9.206  21.380   7.565
  476POPC   C1B10639   8.720  20.963   8.823
  476POPC   C2B10640   8.813  20.978   8.362
  476POPC   C3B10641   8.968  21.013   7.947
  476POPC   C4B10642   8.829  21.066   7.518
  477POPC   NC310643  24.972   3.083   9.522
  477POPC   PO410644  24.392   2.850   9.856
  477POPC   GL110645  24.467   2.924   9.298
  477POPC   GL210646  24.235   2.716   9.034
  477POPC   C1A10647  24.519   3.090   8.830
  477POPC   D2A10648  24.392   3.181   8.381
  477POPC   C3A10649  24.559   2.951   8.005
  477POPC   C4A10650  24.440   2.765   7.592
  477POPC   C1B10651  24.154   2.471   8.608
  477POPC   C2B10652  24.304   2.528   8.180
  477POPC   C3B10653  24.225   2.331   7.781
  477POPC   C4B10654  24.357   2.290   7.378
  478POPC   NC310655  25.577  24.368   9.640
  478POPC   PO410656  24.976  24.616   9.530
  478POPC   GL110657  25.298  24.546   9.227
  478POPC   GL210658  25.373  24.217   9.153
  478POPC   C1A10659  25.437  24.629   8.818
  478POPC   D2A10660  25.375  24.790   8.414
  478POPC   C3A10661  25.703  24.604   8.123
  478POPC   C4A10662  25.527  24.267   7.841
  478POPC   C1B10663  25.067  24.267   8.810
  478POPC   C2B10664  24.963  24.019   8.419
  478POPC   C3B10665  24.967  24.067   7.975
  478POPC   C4B10666  24.991  24.398   7.675
  479POPC   NC310667  10.050   2.395   9.313
  479POPC   PO410668  10.204   1.702   9.422
  479POPC   GL110669   9.966   1.739   9.043
  479POPC   GL210670   9.982   2.061   8.916
  479POPC   C1A10671  10.004   1.628   8.638
  479POPC   D2A10672   9.754   1.551   8.304
  479POPC   C3A10673   9.723   1.862   8.034
  479POPC   C4A10674   9.961   1.967   7.664
  479POPC   C1B10675   9.646   2.027   8.596
  479POPC   C2B10676   9.685   2.324   8.275
  479POPC   C3B10677   9.687   2.345   7.850
  479POPC   C4B10678   9.672   2.412   7.388
  480POPC   NC310679  31.722  33.941   9.391
  480POPC   PO410680  31.459  33.356   9.292
  480POPC   GL110681  31.400  33.758   9.037
  480POPC   GL210682  31.127  33.964   9.172
  480POPC   C1A10683  31.662  34.055   8.747
  480POPC   D2A10684  31.845  33.889   8.353
  480POPC   C3A10685  31.555  33.552   8.174
  480POPC   C4A10686  31.412  33.630   7.744
  480POPC   C1B10687  31.138  34.117   8.774
  480POPC   C2B10688  31.294  33.917   8.420
  480POPC   C3B10689  31.369  34.059   8.007
  480POPC   C4B10690  31.313  34.139   7.569
  481POPC   NC310691  30.430  27.780   9.513
  481POPC   PO410692  29.707  27.573   9.451
  481POPC   GL110693  30.028  27.673   9.193
  481POPC   GL210694  30.255  27.377   9.269
  481POPC   C1A10695  29.862  27.694   8.783
  481POPC   D2A10696  29.733  27.567   8.388
  481POPC   C3A10697  29.710  27.789   8.021
  481POPC   C4A10698  29.882  27.668   7.617
  481POPC   C1B10699  30.095  27.236   8.915
  481POPC   C2B10700  30.162  27.289   8.504
  481POPC   C3B10701  30.077  27.337   8.083
  481POPC   C4B10702  30.020  27.184   7.665
  482POPC   NC310703  36.637   3.408   9.631
  482POPC   PO410704  37.096   3.823   9.457
  482POPC   GL110705  36.709   3.715   9.150
  482POPC   GL210706  36.601   3.339   9.126
  482POPC   C1A10707  36.751   3.655   8.682
  482POPC   D2A10708  37.197   3.553   8.517
  482POPC   C3A10709  37.281   3.524   8.086
  482POPC   C4A10710  36.971   3.613   7.780
  482POPC   C1B10711  36.972   3.241   8.895
  482POPC   C2B10712  36.934   3.061   8.498
  482POPC   C3B10713  36.861   3.208   8.093
  482POPC   C4B10714  36.576   3.310   7.736
  483POPC   NC310715  23.421  23.224   9.579
  483POPC   PO410716  23.806  23.729   9.507
  483POPC   GL110717  23.702  23.611   9.128
  483POPC   GL210718  23.427  23.395   9.096
  483POPC   C1A10719  23.628  23.877   8.768
  483POPC   D2A10720  23.596  24.081   8.361
  483POPC   C3A10721  23.591  23.782   8.036
  483POPC   C4A10722  23.656  23.887   7.617
  483POPC   C1B10723  23.689  23.332   8.703
  483POPC   C2B10724  23.724  23.279   8.260
  483POPC   C3B10725  23.610  23.309   7.842
  483POPC   C4B10726  23.278  23.557   7.631
  484POPC   NC310727  41.416  20.706   9.826
  484POPC   PO410728  41.291  20.543   9.395
  484POPC   GL110729  41.574  20.529   9.004
  484POPC   GL210730  41.856  20.768   9.061
  484POPC   C1A10731  41.540  20.553   8.534
  484POPC   D2A10732  41.403  20.484   8.109
  484POPC   C3A10733  41.495  20.765   7.800
  484POPC   C4A10734  41.324  20.992   7.451
  484POPC   C1B10735  42.000  20.754   8.630
  484POPC   C2B10736  41.881  20.719   8.169
  484POPC   C3B10737  41.890  20.424   7.793
  484POPC   C4B10738  41.899  20.287   7.351
  485POPC   NC310739  22.602  23.055   9.482
  485POPC   PO410740  23.014  22.545   9.619
  485POPC   GL110741  23.027  22.874   9.252
  485POPC   GL210742  22.660  22.865   9.037
  485POPC   C1A10743  23.071  23.092   8.840
  485POPC   D2A10744  22.823  22.869   8.529
  485POPC   C3A10745  22.966  22.823   8.117
  485POPC   C4A10746  23.121  23.129   7.863
  485POPC   C1B10747  22.559  23.246   8.834
  485POPC   C2B10748  22.742  23.421   8.482
  485POPC   C3B10749  22.627  23.191   8.136
  485POPC   C4B10750  22.638  23.150   7.720
  486POPC   NC310751  11.207  36.718   9.742
  486POPC   PO410752  11.451  37.199   9.364
  486POPC   GL110753  11.330  37.159   8.991
  486POPC   GL210754  11.118  36.854   9.067
  486POPC   C1A10755  11.565  37.111   8.603
  486POPC   D2A10756  11.381  36.870   8.256
  486POPC   C3A10757  11.549  36.713   7.893
  486POPC   C4A10758  11.380  37.024   7.646
  486POPC   C1B10759  11.056  36.886   8.652
  486POPC   C2B10760  10.919  36.652   8.300
  486POPC   C3B10761  10.978  36.739   7.854
  486POPC   C4B10762  11.223  36.544   7.492
  487POPC   NC310763  18.385  41.723   9.552
  487POPC   PO410764  18.281  41.028   9.542
  487POPC   GL110765  18.323  41.335   9.184
  487POPC   GL210766  18.469  41.701   9.060
  487POPC   C1A10767  18.180  41.343   8.767
  487POPC   D2A10768  18.391  41.378   8.399
  487POPC   C3A10769  18.217  41.296   7.992
  487POPC   C4A10770  18.514  41.455   7.736
  487POPC   C1B10771  18.186  41.851   8.732
  487POPC   C2B10772  18.023  41.744   8.313
  487POPC   C3B10773  18.169  41.829   7.890
  487POPC   C4B10774  18.545  41.960   7.659
  488POPC   NC310775  33.354  12.368   9.423
  488POPC   PO410776  32.848  11.785   9.579
  488POPC   GL110777  32.980  12.006   9.209
  488POPC   GL210778  33.270  11.894   9.212
  488POPC   C1A10779  33.116  12.234   8.806
  488POPC   D2A10780  33.186  12.017   8.399
  488POPC   C3A10781  33.164  12.276   8.064
  488POPC   C4A10782  32.804  12.292   7.781
  488POPC   C1B10783  33.157  11.706   8.814
  488POPC   C2B10784  33.358  11.496   8.471
  488POPC   C3B10785  33.328  11.643   8.035
  488POPC   C4B10786  32.956  11.824   7.892
  489POPC   NC310787   9.055   6.864   9.335
  489POPC   PO410788   8.823   7.417   9.649
  489POPC   GL110789   8.961   7.402   9.215
  489POPC   GL210790   9.045   7.746   9.209
  489POPC   C1A10791   9.032   7.288   8.755
  489POPC   D2A10792   9.014   7.285   8.290
  489POPC   C3A10793   8.708   7.283   7.983
  489POPC   C4A10794   9.031   7.298   7.677
  489POPC   C1B10795   8.815   7.749   8.836
  489POPC   C2B10796   9.055   7.763   8.462
  489POPC   C3B10797   8.907   7.743   8.061
  489POPC   C4B10798   8.752   7.739   7.672
  490POPC   NC310799  30.775   3.426   9.753
  490POPC   PO410800  31.374   3.785   9.614
  490POPC   GL110801  30.951   3.698   9.322
  490POPC   GL210802  30.769   3.337   9.263
  490POPC   C1A10803  30.735   3.676   8.883
  490POPC   D2A10804  30.522   3.743   8.468
  490POPC   C3A10805  30.753   3.706   8.074
  490POPC   C4A10806  30.484   3.715   7.720
  490POPC   C1B10807  30.859   3.152   8.865
  490POPC   C2B10808  30.808   3.306   8.453
  490POPC   C3B10809  30.470   3.284   8.176
  490POPC   C4B10810  30.556   3.089   7.817
  491POPC   NC310811  37.128  37.275   9.524
  491POPC   PO410812  37.279  36.614   9.437
  491POPC   GL110813  37.027  36.803   9.081
  491POPC   GL210814  37.036  37.137   9.046
  491POPC   C1A10815  36.624  36.719   8.813
  491POPC   D2A10816  36.359  36.544   8.476
  491POPC   C3A10817  36.505  36.468   8.053
  491POPC   C4A10818  36.534  36.807   7.789
  491POPC   C1B10819  36.895  37.105   8.638
  491POPC   C2B10820  36.867  36.790   8.313
  491POPC   C3B10821  36.985  36.943   7.916
  491POPC   C4B10822  36.757  37.303   7.750
  492POPC   NC310823   2.022  30.275   9.594
  492POPC   PO410824   2.125  29.596   9.631
  492POPC   GL110825   1.994  29.818   9.247
  492POPC   GL210826   1.680  30.015   9.284
  492POPC   C1A10827   2.023  29.853   8.780
  492POPC   D2A10828   2.234  29.985   8.409
  492POPC   C3A10829   2.034  29.981   8.055
  492POPC   C4A10830   2.260  29.907   7.744
  492POPC   C1B10831   1.621  30.182   8.837
  492POPC   C2B10832   1.778  30.252   8.410
  492POPC   C3B10833   1.818  30.436   7.957
  492POPC   C4B10834   1.689  30.495   7.511
  493POPC   NC310835  27.163   3.291   9.418
  493POPC   PO410836  26.634   3.624   9.663
  493POPC   GL110837  26.586   3.713   9.227
  493POPC   GL210838  26.901   3.588   9.080
  493POPC   C1A10839  26.418   3.636   8.802
  493POPC   D2A10840  26.636   3.609   8.401
  493POPC   C3A10841  26.483   3.523   7.973
  493POPC   C4A10842  26.721   3.468   7.567
  493POPC   C1B10843  27.158   3.364   8.783
  493POPC   C2B10844  27.082   3.321   8.394
  493POPC   C3B10845  26.989   3.481   8.033
  493POPC   C4B10846  27.221   3.414   7.684
  494POPC   NC310847  10.530   5.343   9.481
  494POPC   PO410848  10.385   4.695   9.677
  494POPC   GL110849  10.548   4.844   9.307
  494POPC   GL210850  10.228   4.989   9.229
  494POPC   C1A10851  10.854   4.862   8.965
  494POPC   D2A10852  10.815   5.091   8.576
  494POPC   C3A10853  10.787   4.932   8.137
  494POPC   C4A10854  10.717   5.151   7.735
  494POPC   C1B10855  10.338   5.196   8.823
  494POPC   C2B10856  10.324   4.972   8.396
  494POPC   C3B10857  10.245   4.990   7.944
  494POPC   C4B10858  10.146   4.777   7.540
  495POPC   NC310859   1.602  38.185   9.347
  495POPC   PO410860   2.010  37.694   9.414
  495POPC   GL110861   1.766  37.731   9.057
  495POPC   GL210862   1.570  37.427   9.127
  495POPC   C1A10863   1.817  37.992   8.656
  495POPC   D2A10864   2.161  37.992   8.326
  495POPC   C3A10865   2.080  37.873   7.893
  495POPC   C4A10866   2.166  37.567   7.557
  495POPC   C1B10867   1.747  37.309   8.758
  495POPC   C2B10868   1.870  37.545   8.450
  495POPC   C3B10869   1.701  37.596   8.085
  495POPC   C4B10870   1.682  37.598   7.671
  496POPC   NC310871  33.795  10.199   9.601
  496POPC   PO410872  33.823   9.553   9.492
  496POPC   GL110873  34.024   9.702   9.133
  496POPC   GL210874  34.163  10.059   9.236
  496POPC   C1A10875  33.879   9.644   8.695
  496POPC   D2A10876  34.059   9.672   8.285
  496POPC   C3A10877  33.808   9.510   7.951
  496POPC   C4A10878  33.507   9.644   7.671
  496POPC   C1B10879  33.853  10.118   8.903
  496POPC   C2B10880  33.897  10.134   8.456
  496POPC   C3B10881  33.688  10.008   8.053
  496POPC   C4B10882  33.884   9.983   7.648
  497POPC   NC310883  43.247   9.966   9.619
  497POPC   PO410884  43.193   9.298   9.437
  497POPC   GL110885  43.121   9.646   9.134
  497POPC   GL210886  42.948   9.992   9.211
  497POPC   C1A10887  43.208   9.596   8.699
  497POPC   D2A10888  43.369   9.795   8.365
  497POPC   C3A10889  43.186   9.785   7.983
  497POPC   C4A10890  43.322   9.587   7.621
  497POPC   C1B10891  42.818   9.946   8.780
  497POPC   C2B10892  42.895  10.032   8.348
  497POPC   C3B10893  42.741  10.064   7.932
  497POPC   C4B10894  42.867   9.873   7.570
  498POPC   NC310895  31.441   1.588   9.916
  498POPC   PO410896  31.651   1.029   9.501
  498POPC   GL110897  31.619   1.228   9.066
  498POPC   GL210898  31.258   1.184   8.953
  498POPC   C1A10899  31.650   1.080   8.630
  498POPC   D2A10900  31.891   1.007   8.255
  498POPC   C3A10901  31.850   1.287   7.953
  498POPC   C4A10902  31.477   1.420   7.755
  498POPC   C1B10903  31.185   1.473   8.625
  498POPC   C2B10904  31.162   1.459   8.180
  498POPC   C3B10905  31.024   1.208   7.843
  498POPC   C4B10906  31.034   1.463   7.463
  499POPC   NC310907  23.475   0.999   9.626
  499POPC   PO410908  23.872   1.352   9.572
  499POPC   GL110909  23.764   1.168   9.169
  499POPC   GL210910  23.549   0.869   9.120
  499POPC   C1A10911  23.913   1.178   8.752
  499POPC   D2A10912  24.110   1.297   8.311
  499POPC   C3A10913  23.960   1.012   7.935
  499POPC   C4A10914  23.647   0.814   7.631
  499POPC   C1B10915  23.479   0.940   8.660
  499POPC   C2B10916  23.630   1.174   8.294
  499POPC   C3B10917  23.505   1.256   7.870
  499POPC   C4B10918  23.375   1.212   7.420
  500POPC   NC310919   8.712  29.350   9.537
  500POPC   PO410920   9.295  28.965   9.425
  500POPC   GL110921   9.037  29.203   9.144
  500POPC   GL210922   8.853  28.878   9.094
  500POPC   C1A10923   8.877  29.206   8.698
  500POPC   D2A10924   8.775  29.045   8.285
  500POPC   C3A10925   8.887  29.273   7.909
  500POPC   C4A10926   9.093  29.588   7.641
  500POPC   C1B10927   9.248  28.880   8.810
  500POPC   C2B10928   9.347  29.015   8.424
  500POPC   C3B10929   9.208  28.892   8.022
  500POPC   C4B10930   8.820  28.764   7.818
  501POPC   NC310931  19.690  38.475   9.599
  501POPC   PO410932  20.054  37.786   9.459
  501POPC   GL110933  19.836  37.666   9.065
  501POPC   GL210934  20.029  37.863   8.862
  501POPC   C1A10935  19.531  37.802   8.686
  501POPC   D2A10936  19.552  37.601   8.253
  501POPC   C3A10937  19.885  37.683   7.990
  501POPC   C4A10938  20.214  37.918   8.135
  501POPC   C1B10939  19.894  37.445   8.638
  501POPC   C2B10940  19.960  37.111   8.407
  501POPC   C3B10941  19.852  37.163   8.007
  501POPC   C4B10942  20.013  37.283   7.600
  502POPC   NC310943  30.298  31.152   9.482
  502POPC   PO410944  31.034  31.179   9.527
  502POPC   GL110945  30.760  31.428   9.244
  502POPC   GL210946  30.455  31.362   9.041
  502POPC   C1A10947  30.926  31.513   8.848
  502POPC   D2A10948  30.988  31.752   8.489
  502POPC   C3A10949  30.999  31.461   8.188
  502POPC   C4A10950  30.852  31.389   7.813
  502POPC   C1B10951  30.458  31.578   8.626
  502POPC   C2B10952  30.481  31.614   8.169
  502POPC   C3B10953  30.394  31.612   7.733
  502POPC   C4B10954  30.238  31.665   7.284
  503POPC   NC310955  19.354  43.724   9.581
  503POPC   PO410956  18.994  44.309   9.519
  503POPC   GL110957  18.991  43.991   9.162
  503POPC   GL210958  18.977  43.594   9.250
  503POPC   C1A10959  18.801  44.120   8.754
  503POPC   D2A10960  18.885  44.335   8.346
  503POPC   C3A10961  18.842  44.085   7.982
  503POPC   C4A10962  19.110  43.781   7.812
  503POPC   C1B10963  18.765  43.598   8.866
  503POPC   C2B10964  18.831  43.704   8.442
  503POPC   C3B10965  18.723  43.573   8.050
  503POPC   C4B10966  18.641  43.683   7.631
  504POPC   NC310967   8.827  26.327   9.461
  504POPC   PO410968   8.635  25.650   9.521
  504POPC   GL110969   8.768  25.909   9.178
  504POPC   GL210970   9.119  25.897   9.039
  504POPC   C1A10971   8.700  26.075   8.778
  504POPC   D2A10972   8.976  25.978   8.471
  504POPC   C3A10973   8.844  26.064   8.085
  504POPC   C4A10974   8.614  26.156   7.720
  504POPC   C1B10975   9.229  26.310   8.778
  504POPC   C2B10976   9.421  26.532   8.416
  504POPC   C3B10977   9.267  26.464   8.003
  504POPC   C4B10978   9.176  26.115   7.713
  505POPC   NC310979  18.473   0.729   9.600
  505POPC   PO410980  17.858   0.474   9.523
  505POPC   GL110981  18.062   0.560   9.131
  505POPC   GL210982  18.405   0.610   9.114
  505POPC   C1A10983  18.043   0.541   8.694
  505POPC   D2A10984  18.290   0.334   8.409
  505POPC   C3A10985  18.185   0.391   7.987
  505POPC   C4A10986  18.525   0.423   7.697
  505POPC   C1B10987  18.434   0.853   8.743
  505POPC   C2B10988  18.596   0.775   8.347
  505POPC   C3B10989  18.517   0.895   7.982
  505POPC   C4B10990  18.216   0.813   7.682
  506POPC   NC310991  11.011  30.395   9.564
  506POPC   PO410992  11.474  30.005   9.405
  506POPC   GL110993  11.306  29.870   9.054
  506POPC   GL210994  11.360  30.237   8.973
  506POPC   C1A10995  11.325  29.665   8.649
  506POPC   D2A10996  11.525  29.862   8.269
  506POPC   C3A10997  11.284  29.923   7.906
  506POPC   C4A10998  11.216  29.575   7.630
  506POPC   C1B10999  11.339  30.259   8.554
  506POPC   C2B11000  11.653  30.364   8.270
  506POPC   C3B11001  11.706  30.212   7.872
  506POPC   C4B11002  11.565  30.282   7.487
  507POPC   NC311003  34.262  40.290   9.664
  507POPC   PO411004  34.528  40.967   9.677
  507POPC   GL111005  34.450  40.797   9.268
  507POPC   GL211006  34.752  40.756   9.101
  507POPC   C1A11007  34.332  40.649   8.851
  507POPC   D2A11008  34.453  40.745   8.477
  507POPC   C3A11009  34.219  40.916   8.178
  507POPC   C4A11010  34.324  40.735   7.823
  507POPC   C1B11011  34.814  40.979   8.747
  507POPC   C2B11012  35.008  41.000   8.336
  507POPC   C3B11013  34.941  41.012   7.888
  507POPC   C4B11014  34.829  40.601   7.748
  508POPC   NC311015   4.822   3.689   9.555
  508POPC   PO411016   5.299   3.258   9.522
  508POPC   GL111017   5.159   3.321   9.128
  508POPC   GL211018   4.798   3.300   9.154
  508POPC   C1A11019   5.151   3.407   8.706
  508POPC   D2A11020   4.896   3.213   8.426
  508POPC   C3A11021   5.001   3.416   8.072
  508POPC   C4A11022   5.303   3.492   7.762
  508POPC   C1B11023   4.776   3.675   8.903
  508POPC   C2B11024   4.732   3.738   8.457
  508POPC   C3B11025   4.915   3.946   8.093
  508POPC   C4B11026   4.848   3.766   7.719
  509POPC   NC311027  16.081  43.446   9.498
  509POPC   PO411028  15.556  43.308   9.406
  509POPC   GL111029  15.818  43.341   9.044
  509POPC   GL211030  16.128  43.138   9.065
  509POPC   C1A11031  16.094  43.547   8.759
  509POPC   D2A11032  16.266  43.494   8.358
  509POPC   C3A11033  15.987  43.593   7.984
  509POPC   C4A11034  15.897  43.396   7.591
  509POPC   C1B11035  16.247  43.049   8.609
  509POPC   C2B11036  16.339  42.816   8.217
  509POPC   C3B11037  16.121  42.583   7.890
  509POPC   C4B11038  16.299  42.411   7.504
  510POPC   NC311039  37.583  23.435   9.586
  510POPC   PO411040  37.765  24.158   9.612
  510POPC   GL111041  37.957  24.089   9.176
  510POPC   GL211042  38.072  23.733   9.192
  510POPC   C1A11043  37.812  24.032   8.757
  510POPC   D2A11044  37.545  23.764   8.489
  510POPC   C3A11045  37.657  23.791   8.056
  510POPC   C4A11046  37.503  23.605   7.688
  510POPC   C1B11047  37.887  23.522   8.815
  510POPC   C2B11048  37.957  23.463   8.357
  510POPC   C3B11049  37.922  23.362   7.901
  510POPC   C4B11050  38.154  23.327   7.488
  511POPC   NC311051  24.054  32.976   9.350
  511POPC   PO411052  23.578  33.402   9.529
  511POPC   GL111053  23.403  33.121   9.169
  511POPC   GL211054  23.587  32.807   9.130
  511POPC   C1A11055  23.248  32.967   8.737
  511POPC   D2A11056  23.281  33.124   8.294
  511POPC   C3A11057  23.571  33.071   7.958
  511POPC   C4A11058  23.462  32.792   7.615
  511POPC   C1B11059  23.706  32.706   8.694
  511POPC   C2B11060  23.634  32.626   8.249
  511POPC   C3B11061  23.896  32.685   7.863
  511POPC   C4B11062  24.014  32.597   7.454
  512POPC   NC311063  41.330  41.044   9.522
  512POPC   PO411064  41.758  40.556   9.292
  512POPC   GL111065  41.490  40.819   9.060
  512POPC   GL211066  41.126  40.827   9.110
  512POPC   C1A11067  41.481  40.658   8.647
  512POPC   D2A11068  41.661  40.863   8.267
  512POPC   C3A11069  41.878  40.622   7.946
  512POPC   C4A11070  41.795  40.719   7.516
  512POPC   C1B11071  41.162  41.032   8.720
  512POPC   C2B11072  41.149  40.894   8.271
  512POPC   C3B11073  41.362  41.110   7.893
  512POPC   C4B11074  41.436  41.057   7.361
  513POPC   NC311075   8.644   5.301   9.531
  513POPC   PO411076   7.962   5.110   9.512
  513POPC   GL111077   8.252   4.953   9.161
  513POPC   GL211078   7.985   4.812   8.973
  513POPC   C1A11079   8.409   5.021   8.686
  513POPC   D2A11080   8.342   5.270   8.295
  513POPC   C3A11081   8.224   5.043   7.933
  513POPC   C4A11082   8.422   4.686   7.758
  513POPC   C1B11083   7.989   5.274   8.834
  513POPC   C2B11084   7.928   5.561   8.480
  513POPC   C3B11085   7.870   5.434   8.047
  513POPC   C4B11086   7.974   5.363   7.602
  514POPC   NC311087   6.128   5.712   9.324
  514POPC   PO411088   5.609   6.124   9.472
  514POPC   GL111089   5.676   5.890   9.106
  514POPC   GL211090   5.956   6.081   8.997
  514POPC   C1A11091   5.773   5.578   8.776
  514POPC   D2A11092   6.073   5.617   8.437
  514POPC   C3A11093   5.894   5.558   8.025
  514POPC   C4A11094   5.727   5.795   7.665
  514POPC   C1B11095   6.283   6.040   8.692
  514POPC   C2B11096   6.207   6.124   8.268
  514POPC   C3B11097   6.181   5.978   7.860
  514POPC   C4B11098   6.351   6.270   7.575
  515POPC   NC311099  40.025  35.891   9.304
  515POPC   PO411100  39.855  36.532   9.419
  515POPC   GL111101  40.013  36.337   9.067
  515POPC   GL211102  40.324  36.232   8.962
  515POPC   C1A11103  39.819  36.275   8.686
  515POPC   D2A11104  39.743  36.236   8.264
  515POPC   C3A11105  40.137  36.351   8.043
  515POPC   C4A11106  40.090  36.375   7.588
  515POPC   C1B11107  40.250  35.840   8.702
  515POPC   C2B11108  40.088  35.864   8.293
  515POPC   C3B11109  40.038  35.902   7.849
  515POPC   C4B11110  40.289  35.596   7.637
  516POPC   NC311111  33.045  14.040   9.425
  516POPC   PO411112  32.738  13.427   9.518
  516POPC   GL111113  33.056  13.535   9.220
  516POPC   GL211114  32.796  13.757   9.086
  516POPC   C1A11115  33.272  13.537   8.809
  516POPC   D2A11116  33.329  13.705   8.385
  516POPC   C3A11117  32.979  13.660   8.062
  516POPC   C4A11118  33.005  13.500   7.631
  516POPC   C1B11119  32.936  13.936   8.717
  516POPC   C2B11120  32.695  13.976   8.376
  516POPC   C3B11121  32.767  14.164   8.039
  516POPC   C4B11122  32.740  13.951   7.679
  517POPC   NC311123   4.526  25.536   9.445
  517POPC   PO411124   4.020  25.211   9.707
  517POPC   GL111125   4.110  25.198   9.267
  517POPC   GL211126   4.389  25.021   9.306
  517POPC   C1A11127   4.287  25.247   8.816
  517POPC   D2A11128   4.204  25.400   8.353
  517POPC   C3A11129   4.499  25.431   8.001
  517POPC   C4A11130   4.576  25.123   7.691
  517POPC   C1B11131   4.477  24.755   8.981
  517POPC   C2B11132   4.491  24.798   8.549
  517POPC   C3B11133   4.393  24.916   8.140
  517POPC   C4B11134   4.087  25.064   7.860
  518POPC   NC311135   6.239  14.186   9.530
  518POPC   PO411136   5.576  14.436   9.660
  518POPC   GL111137   5.829  14.370   9.281
  518POPC   GL211138   5.758  14.137   9.053
  518POPC   C1A11139   6.013  14.536   8.895
  518POPC   D2A11140   6.100  14.563   8.473
  518POPC   C3A11141   5.859  14.806   8.196
  518POPC   C4A11142   5.856  14.599   7.808
  518POPC   C1B11143   5.600  14.279   8.666
  518POPC   C2B11144   5.737  14.287   8.263
  518POPC   C3B11145   5.875  14.104   7.897
  518POPC   C4B11146   5.634  14.110   7.525
  519POPC   NC311147  15.013  32.054   9.565
  519POPC   PO411148  15.338  32.598   9.474
  519POPC   GL111149  15.218  32.281   9.133
  519POPC   GL211150  14.871  32.180   9.087
  519POPC   C1A11151  15.295  32.073   8.707
  519POPC   D2A11152  15.122  32.104   8.272
  519POPC   C3A11153  15.326  32.135   7.869
  519POPC   C4A11154  15.616  32.318   7.574
  519POPC   C1B11155  14.802  31.957   8.693
  519POPC   C2B11156  14.629  32.006   8.282
  519POPC   C3B11157  14.778  32.161   7.872
  519POPC   C4B11158  15.034  32.556   7.820
  520POPC   NC311159  26.638  11.038   9.427
  520POPC   PO411160  27.161  11.512   9.467
  520POPC   GL111161  26.845  11.454   9.145
  520POPC   GL211162  26.495  11.508   9.308
  520POPC   C1A11163  26.881  11.188   8.742
  520POPC   D2A11164  26.769  11.033   8.312
  520POPC   C3A11165  27.020  11.139   7.935
  520POPC   C4A11166  27.021  11.316   7.504
  520POPC   C1B11167  26.412  11.358   8.888
  520POPC   C2B11168  26.525  11.464   8.493
  520POPC   C3B11169  26.654  11.534   8.110
  520POPC   C4B11170  26.580  11.349   7.756
  521POPC   NC311171   4.148  39.443   9.546
  521POPC   PO411172   4.815  39.198   9.533
  521POPC   GL111173   4.537  39.058   9.167
  521POPC   GL211174   4.163  39.063   9.167
  521POPC   C1A11175   4.410  39.052   8.719
  521POPC   D2A11176   4.250  39.303   8.386
  521POPC   C3A11177   4.430  39.159   8.050
  521POPC   C4A11178   4.612  39.297   7.707
  521POPC   C1B11179   3.956  39.325   8.817
  521POPC   C2B11180   3.747  39.286   8.384
  521POPC   C3B11181   3.914  39.103   8.007
  521POPC   C4B11182   4.105  39.359   7.691
  522POPC   NC311183  30.926  15.453   9.503
  522POPC   PO411184  30.548  14.886   9.537
  522POPC   GL111185  30.658  15.176   9.170
  522POPC   GL211186  31.009  15.058   9.137
  522POPC   C1A11187  30.850  15.432   8.806
  522POPC   D2A11188  30.774  15.605   8.379
  522POPC   C3A11189  30.967  15.383   8.016
  522POPC   C4A11190  30.693  15.331   7.661
  522POPC   C1B11191  30.872  14.913   8.710
  522POPC   C2B11192  30.871  14.908   8.227
  522POPC   C3B11193  30.951  14.848   7.777
  522POPC   C4B11194  31.070  14.642   7.369
  523POPC   NC311195  40.512  27.369   9.563
  523POPC   PO411196  41.145  27.609   9.506
  523POPC   GL111197  40.753  27.737   9.286
  523POPC   GL211198  40.794  27.441   9.122
  523POPC   C1A11199  40.621  27.813   8.837
  523POPC   D2A11200  40.928  27.752   8.489
  523POPC   C3A11201  40.748  27.663   8.110
  523POPC   C4A11202  40.404  27.759   7.846
  523POPC   C1B11203  41.179  27.277   8.900
  523POPC   C2B11204  41.220  27.294   8.476
  523POPC   C3B11205  41.157  27.258   8.075
  523POPC   C4B11206  41.136  27.520   7.770
  524POPC   NC311207   1.646   4.326   9.719
  524POPC   PO411208   1.058   4.495   9.463
  524POPC   GL111209   1.054   4.410   9.049
  524POPC   GL211210   1.429   4.426   9.106
  524POPC   C1A11211   0.979   4.183   8.639
  524POPC   D2A11212   1.283   4.018   8.326
  524POPC   C3A11213   1.148   4.103   7.920
  524POPC   C4A11214   0.961   4.468   7.782
  524POPC   C1B11215   1.363   4.529   8.677
  524POPC   C2B11216   1.110   4.577   8.321
  524POPC   C3B11217   1.393   4.535   8.041
  524POPC   C4B11218   1.480   4.708   7.673
  525POPC   NC311219   1.451   6.509   9.452
  525POPC   PO411220   2.084   6.651   9.712
  525POPC   GL111221   2.044   6.773   9.256
  525POPC   GL211222   2.125   6.514   9.104
  525POPC   C1A11223   2.063   6.932   8.802
  525POPC   D2A11224   1.908   6.751   8.416
  525POPC   C3A11225   2.088   6.753   8.016
  525POPC   C4A11226   1.908   6.768   7.611
  525POPC   C1B11227   2.275   6.443   8.706
  525POPC   C2B11228   2.138   6.305   8.302
  525POPC   C3B11229   1.823   6.318   8.008
  525POPC   C4B11230   2.107   6.319   7.682
  526POPC   NC311231  43.360  16.684   9.611
  526POPC   PO411232  43.411  17.314   9.329
  526POPC   GL111233  43.295  16.882   9.104
  526POPC   GL211234  43.464  16.566   9.128
  526POPC   C1A11235  43.055  16.547   8.812
  526POPC   D2A11236  42.908  16.278   8.416
  526POPC   C3A11237  42.869  16.538   8.016
  526POPC   C4A11238  43.119  16.923   7.829
  526POPC   C1B11239  43.544  16.671   8.693
  526POPC   C2B11240  43.393  16.566   8.280
  526POPC   C3B11241  43.336  16.415   7.869
  526POPC   C4B11242  43.318  16.613   7.485
  527POPC   NC311243  12.244  20.282   9.575
  527POPC   PO411244  12.296  20.930   9.750
  527POPC   GL111245  12.330  20.804   9.288
  527POPC   GL211246  12.055  20.561   9.196
  527POPC   C1A11247  12.239  20.863   8.799
  527POPC   D2A11248  12.006  20.786   8.386
  527POPC   C3A11249  12.204  20.829   7.959
  527POPC   C4A11250  12.378  20.465   7.842
  527POPC   C1B11251  11.951  20.411   8.784
  527POPC   C2B11252  11.862  20.174   8.419
  527POPC   C3B11253  11.899  20.394   8.038
  527POPC   C4B11254  11.842  20.578   7.652
  528POPC   NC311255  39.964   7.849   9.560
  528POPC   PO411256  40.411   7.432   9.601
  528POPC   GL111257  40.133   7.398   9.183
  528POPC   GL211258  39.910   7.688   9.099
  528POPC   C1A11259  39.982   7.429   8.669
  528POPC   D2A11260  40.165   7.312   8.237
  528POPC   C3A11261  40.014   7.432   7.789
  528POPC   C4A11262  40.074   7.415   7.305
  528POPC   C1B11263  40.283   7.765   8.895
  528POPC   C2B11264  40.272   7.774   8.444
  528POPC   C3B11265  40.389   7.726   7.999
  528POPC   C4B11266  40.390   7.721   7.569
  529POPC   NC311267  35.604   1.698   9.388
  529POPC   PO411268  35.712   1.007   9.437
  529POPC   GL111269  35.528   1.080   9.039
  529POPC   GL211270  35.321   1.364   9.111
  529POPC   C1A11271  35.494   1.184   8.594
  529POPC   D2A11272  35.709   1.365   8.233
  529POPC   C3A11273  35.601   1.214   7.849
  529POPC   C4A11274  35.394   0.854   7.705
  529POPC   C1B11275  35.048   1.394   8.752
  529POPC   C2B11276  35.152   1.449   8.317
  529POPC   C3B11277  35.107   1.265   7.920
  529POPC   C4B11278  35.174   1.448   7.520
  530POPC   NC311279   6.743   6.240   9.586
  530POPC   PO411280   6.298   6.703   9.884
  530POPC   GL111281   6.270   6.719   9.319
  530POPC   GL211282   6.365   7.001   9.059
  530POPC   C1A11283   6.244   6.592   8.806
  530POPC   D2A11284   6.452   6.627   8.377
  530POPC   C3A11285   6.289   6.582   7.968
  530POPC   C4A11286   6.188   6.778   7.551
  530POPC   C1B11287   6.721   6.876   8.732
  530POPC   C2B11288   6.977   6.650   8.398
  530POPC   C3B11289   6.941   6.626   7.946
  530POPC   C4B11290   7.062   6.933   7.642
  531POPC   NC311291  27.676  12.480   9.639
  531POPC   PO411292  27.336  13.053   9.592
  531POPC   GL111293  27.533  12.825   9.247
  531POPC   GL211294  27.342  12.512   9.202
  531POPC   C1A11295  27.576  12.893   8.799
  531POPC   D2A11296  27.511  12.715   8.386
  531POPC   C3A11297  27.620  12.945   8.005
  531POPC   C4A11298  27.909  12.841   7.666
  531POPC   C1B11299  27.146  12.589   8.778
  531POPC   C2B11300  27.078  12.405   8.377
  531POPC   C3B11301  27.158  12.638   8.006
  531POPC   C4B11302  27.424  12.632   7.646
  532POPC   NC311303  11.846  12.313   9.419
  532POPC   PO411304  12.159  11.688   9.499
  532POPC   GL111305  11.922  11.889   9.138
  532POPC   GL211306  11.626  11.721   9.024
  532POPC   C1A11307  11.888  12.157   8.758
  532POPC   D2A11308  12.088  12.355   8.392
  532POPC   C3A11309  11.982  12.276   7.969
  532POPC   C4A11310  12.150  12.137   7.559
  532POPC   C1B11311  11.821  11.663   8.669
  532POPC   C2B11312  11.841  11.893   8.289
  532POPC   C3B11313  11.926  11.750   7.862
  532POPC   C4B11314  11.757  11.838   7.447
  533POPC   NC311315  20.211  29.006   9.509
  533POPC   PO411316  20.823  29.136   9.529
  533POPC   GL111317  20.583  29.277   9.186
  533POPC   GL211318  20.745  29.595   9.204
  533POPC   C1A11319  20.407  29.164   8.769
  533POPC   D2A11320  20.455  28.865   8.424
  533POPC   C3A11321  20.393  28.899   7.954
  533POPC   C4A11322  20.670  28.983   7.562
  533POPC   C1B11323  20.610  29.627   8.767
  533POPC   C2B11324  20.483  29.415   8.340
  533POPC   C3B11325  20.577  29.360   7.899
  533POPC   C4B11326  20.423  29.449   7.458
  534POPC   NC311327  22.735  13.894   9.484
  534POPC   PO411328  23.094  13.296   9.464
  534POPC   GL111329  23.009  13.541   9.082
  534POPC   GL211330  22.824  13.797   9.005
  534POPC   C1A11331  23.120  13.692   8.636
  534POPC   D2A11332  22.989  13.514   8.266
  534POPC   C3A11333  23.273  13.659   7.981
  534POPC   C4A11334  23.194  13.843   7.569
  534POPC   C1B11335  22.637  13.508   8.681
  534POPC   C2B11336  22.364  13.562   8.313
  534POPC   C3B11337  22.467  13.614   7.905
  534POPC   C4B11338  22.851  13.450   7.761
  535POPC   NC311339  40.938  31.401   9.642
  535POPC   PO411340  40.345  31.715   9.419
  535POPC   GL111341  40.691  31.790   9.106
  535POPC   GL211342  41.037  31.615   9.165
  535POPC   C1A11343  40.810  31.611   8.690
  535POPC   D2A11344  40.780  31.329   8.332
  535POPC   C3A11345  40.573  31.515   7.977
  535POPC   C4A11346  40.693  31.894   7.739
  535POPC   C1B11347  41.311  31.576   8.793
  535POPC   C2B11348  41.283  31.754   8.385
  535POPC   C3B11349  41.071  31.632   8.024
  535POPC   C4B11350  41.024  31.231   7.834
  536POPC   NC311351  26.791  40.740   9.483
  536POPC   PO411352  26.846  40.102   9.720
  536POPC   GL111353  27.012  40.329   9.276
  536POPC   GL211354  27.171  40.574   9.075
  536POPC   C1A11355  26.754  40.594   8.839
  536POPC   D2A11356  26.470  40.549   8.478
  536POPC   C3A11357  26.576  40.783   8.121
  536POPC   C4A11358  26.649  40.860   7.672
  536POPC   C1B11359  27.236  40.702   8.634
  536POPC   C2B11360  27.073  40.699   8.231
  536POPC   C3B11361  26.940  40.483   7.882
  536POPC   C4B11362  27.030  40.537   7.442
  537POPC   NC311363  17.862  42.434   9.491
  537POPC   PO411364  17.157  42.467   9.561
  537POPC   GL111365  17.412  42.337   9.190
  537POPC   GL211366  17.580  42.021   9.264
  537POPC   C1A11367  17.324  42.413   8.728
  537POPC   D2A11368  17.245  42.702   8.354
  537POPC   C3A11369  17.534  42.619   8.011
  537POPC   C4A11370  17.430  42.318   7.724
  537POPC   C1B11371  17.700  42.056   8.834
  537POPC   C2B11372  17.730  42.293   8.445
  537POPC   C3B11373  17.733  42.081   8.050
  537POPC   C4B11374  17.691  41.909   7.632
  538POPC   NC311375  11.405  14.788   9.557
  538POPC   PO411376  11.261  15.500   9.565
  538POPC   GL111377  11.234  15.163   9.252
  538POPC   GL211378  11.486  15.093   9.052
  538POPC   C1A11379  11.032  14.921   8.906
  538POPC   D2A11380  10.974  14.990   8.464
  538POPC   C3A11381  11.287  15.106   8.132
  538POPC   C4A11382  11.166  15.163   7.679
  538POPC   C1B11383  11.372  15.250   8.657
  538POPC   C2B11384  11.566  15.523   8.359
  538POPC   C3B11385  11.744  15.392   7.992
  538POPC   C4B11386  11.662  15.069   7.727
  539POPC   NC311387   2.513  31.670   9.774
  539POPC   PO411388   2.072  31.330   9.537
  539POPC   GL111389   1.916  31.313   9.094
  539POPC   GL211390   1.641  31.539   9.047
  539POPC   C1A11391   1.870  31.196   8.661
  539POPC   D2A11392   1.738  31.267   8.237
  539POPC   C3A11393   2.043  31.386   7.883
  539POPC   C4A11394   2.349  31.164   7.645
  539POPC   C1B11395   1.904  31.715   8.739
  539POPC   C2B11396   1.945  31.735   8.285
  539POPC   C3B11397   1.835  31.845   7.856
  539POPC   C4B11398   2.027  31.863   7.429
  540POPC   NC311399  15.457   8.873   9.774
  540POPC   PO411400  14.937   8.888   9.316
  540POPC   GL111401  15.182   8.800   8.996
  540POPC   GL211402  15.378   9.085   9.051
  540POPC   C1A11403  15.235   8.603   8.601
  540POPC   D2A11404  15.405   8.482   8.202
  540POPC   C3A11405  15.302   8.806   7.880
  540POPC   C4A11406  14.945   9.054   7.840
  540POPC   C1B11407  15.175   9.133   8.629
  540POPC   C2B11408  15.317   9.229   8.231
  540POPC   C3B11409  15.481   9.300   7.838
  540POPC   C4B11410  15.277   9.190   7.466
  541POPC   NC311411  37.143  13.543   9.694
  541POPC   PO411412  36.620  13.760   9.324
  541POPC   GL111413  36.770  13.681   8.971
  541POPC   GL211414  36.743  13.339   9.020
  541POPC   C1A11415  37.098  13.615   8.670
  541POPC   D2A11416  37.339  13.659   8.300
  541POPC   C3A11417  37.193  13.587   7.915
  541POPC   C4A11418  36.961  13.908   7.755
  541POPC   C1B11419  36.613  13.419   8.596
  541POPC   C2B11420  36.718  13.694   8.273
  541POPC   C3B11421  36.678  13.475   7.919
  541POPC   C4B11422  36.916  13.293   7.595
  542POPC   NC311423  32.259   7.134   9.774
  542POPC   PO411424  32.533   7.752   9.532
  542POPC   GL111425  32.274   7.617   9.178
  542POPC   GL211426  31.922   7.750   9.193
  542POPC   C1A11427  32.079   7.426   8.782
  542POPC   D2A11428  32.287   7.335   8.380
  542POPC   C3A11429  32.152   7.193   7.957
  542POPC   C4A11430  32.071   7.373   7.539
  542POPC   C1B11431  32.099   7.930   8.821
  542POPC   C2B11432  32.041   7.812   8.411
  542POPC   C3B11433  32.031   7.686   7.994
  542POPC   C4B11434  31.910   7.873   7.625
  543POPC   NC311435  40.473  23.244   9.392
  543POPC   PO411436  39.827  22.849   9.474
  543POPC   GL111437  40.052  23.038   9.179
  543POPC   GL211438  40.340  22.832   9.099
  543POPC   C1A11439  40.103  23.165   8.767
  543POPC   D2A11440  40.055  22.927   8.404
  543POPC   C3A11441  40.161  23.109   8.041
  543POPC   C4A11442  39.923  23.167   7.749
  543POPC   C1B11443  39.993  22.654   8.833
  543POPC   C2B11444  40.044  22.400   8.461
  543POPC   C3B11445  40.218  22.549   8.054
  543POPC   C4B11446  40.068  22.710   7.632
  544POPC   NC311447  14.168   4.773   9.694
  544POPC   PO411448  14.351   5.374   9.567
  544POPC   GL111449  14.270   5.191   9.119
  544POPC   GL211450  14.510   5.157   8.921
  544POPC   C1A11451  14.116   5.380   8.708
  544POPC   D2A11452  14.393   5.263   8.347
  544POPC   C3A11453  14.315   5.461   7.947
  544POPC   C4A11454  13.972   5.493   7.693
  544POPC   C1B11455  14.163   4.876   8.735
  544POPC   C2B11456  14.005   4.735   8.365
  544POPC   C3B11457  14.211   4.667   7.981
  544POPC   C4B11458  14.482   5.005   7.834
  545POPC   NC311459   9.607  40.402   9.423
  545POPC   PO411460   9.981  39.864   9.588
  545POPC   GL111461  10.027  39.971   9.168
  545POPC   GL211462   9.771  40.091   9.064
  545POPC   C1A11463  10.070  39.854   8.729
  545POPC   D2A11464  10.052  40.072   8.343
  545POPC   C3A11465  10.135  39.833   7.968
  545POPC   C4A11466   9.751  39.676   7.749
  545POPC   C1B11467   9.609  40.135   8.679
  545POPC   C2B11468   9.451  40.178   8.283
  545POPC   C3B11469   9.624  40.215   7.905
  545POPC   C4B11470   9.477  40.171   7.507
  546POPC   NC311471  41.094  33.153   9.490
  546POPC   PO411472  40.399  33.331   9.458
  546POPC   GL111473  40.725  33.355   9.169
  546POPC   GL211474  40.757  33.013   9.073
  546POPC   C1A11475  40.908  33.434   8.795
  546POPC   D2A11476  40.962  33.141   8.467
  546POPC   C3A11477  40.866  33.362   8.113
  546POPC   C4A11478  40.565  33.287   7.773
  546POPC   C1B11479  40.916  32.694   8.762
  546POPC   C2B11480  40.874  32.610   8.322
  546POPC   C3B11481  40.786  32.847   7.969
  546POPC   C4B11482  40.870  32.769   7.553
  547POPC   NC311483  18.508  22.482   9.443
  547POPC   PO411484  18.529  21.842   9.562
  547POPC   GL111485  18.371  22.060   9.139
  547POPC   GL211486  18.337  22.392   8.985
  547POPC   C1A11487  18.345  21.992   8.678
  547POPC   D2A11488  18.047  21.960   8.353
  547POPC   C3A11489  18.085  22.158   7.968
  547POPC   C4A11490  18.205  21.909   7.640
  547POPC   C1B11491  18.643  22.407   8.637
  547POPC   C2B11492  18.698  22.300   8.213
  547POPC   C3B11493  18.640  22.260   7.804
  547POPC   C4B11494  18.666  22.586   7.538
  548POPC   NC311495  32.441  36.751   9.485
  548POPC   PO411496  32.033  37.305   9.458
  548POPC   GL111497  32.291  37.038   9.092
  548POPC   GL211498  32.394  36.648   9.002
  548POPC   C1A11499  32.354  36.984   8.638
  548POPC   D2A11500  32.203  37.170   8.281
  548POPC   C3A11501  32.249  36.921   7.907
  548POPC   C4A11502  31.951  36.684   7.742
  548POPC   C1B11503  32.028  36.576   8.718
  548POPC   C2B11504  31.964  36.667   8.291
  548POPC   C3B11505  32.228  36.396   8.057
  548POPC   C4B11506  32.472  36.402   7.693
  549POPC   NC311507  29.789   7.310   9.408
  549POPC   PO411508  30.185   7.823   9.534
  549POPC   GL111509  30.139   7.619   9.143
  549POPC   GL211510  30.148   7.243   9.080
  549POPC   C1A11511  29.946   7.653   8.770
  549POPC   D2A11512  29.953   7.434   8.416
  549POPC   C3A11513  30.071   7.549   8.037
  549POPC   C4A11514  29.724   7.756   7.872
  549POPC   C1B11515  29.858   7.108   8.776
  549POPC   C2B11516  29.923   6.917   8.364
  549POPC   C3B11517  29.691   7.161   8.079
  549POPC   C4B11518  29.786   7.258   7.708
  550POPC   NC311519  14.724   5.674   9.498
  550POPC   PO411520  13.996   5.860   9.351
  550POPC   GL111521  14.292   5.963   9.062
  550POPC   GL211522  14.430   5.664   9.080
  550POPC   C1A11523  14.195   5.887   8.628
  550POPC   D2A11524  14.013   5.735   8.261
  550POPC   C3A11525  14.216   5.961   7.941
  550POPC   C4A11526  14.599   5.881   7.782
  550POPC   C1B11527  14.610   5.607   8.689
  550POPC   C2B11528  14.609   5.743   8.291
  550POPC   C3B11529  14.828   5.465   8.030
  550POPC   C4B11530  14.727   5.416   7.624
  551POPC   NC311531  24.314  14.780   9.228
  551POPC   PO411532  24.724  14.139   9.379
  551POPC   GL111533  24.596  14.408   9.079
  551POPC   GL211534  24.322  14.211   9.023
  551POPC   C1A11535  24.371  14.539   8.639
  551POPC   D2A11536  24.198  14.392   8.212
  551POPC   C3A11537  24.366  14.602   7.808
  551POPC   C4A11538  24.207  14.910   7.443
  551POPC   C1B11539  24.675  14.153   8.672
  551POPC   C2B11540  24.710  14.302   8.275
  551POPC   C3B11541  24.527  14.102   7.919
  551POPC   C4B11542  24.120  14.149   7.703
  552POPC   NC311543   8.201  32.800   9.493
  552POPC   PO411544   8.654  33.227   9.412
  552POPC   GL111545   8.349  33.072   9.059
  552POPC   GL211546   8.148  32.715   9.005
  552POPC   C1A11547   8.469  32.964   8.625
  552POPC   D2A11548   8.493  32.658   8.282
  552POPC   C3A11549   8.395  32.862   7.871
  552POPC   C4A11550   8.509  32.883   7.435
  552POPC   C1B11551   7.964  32.973   8.705
  552POPC   C2B11552   8.078  32.974   8.271
  552POPC   C3B11553   7.929  33.090   7.891
  552POPC   C4B11554   8.031  33.067   7.485
  553POPC   NC311555   6.326  10.933   9.667
  553POPC   PO411556   6.741  10.506   9.403
  553POPC   GL111557   6.454  10.478   9.100
  553POPC   GL211558   6.300  10.806   9.125
  553POPC   C1A11559   6.533  10.329   8.674
  553POPC   D2A11560   6.895  10.236   8.384
  553POPC   C3A11561   6.803  10.356   7.947
  553POPC   C4A11562   6.822  10.316   7.456
  553POPC   C1B11563   6.520  10.842   8.731
  553POPC   C2B11564   6.805  10.772   8.395
  553POPC   C3B11565   6.757  10.898   7.976
  553POPC   C4B11566   6.496  10.667   7.699
  554POPC   NC311567  16.577   0.931   9.508
  554POPC   PO411568  16.899   1.559   9.502
  554POPC   GL111569  16.739   1.346   9.202
  554POPC   GL211570  16.898   1.040   9.142
  554POPC   C1A11571  16.849   1.417   8.767
  554POPC   D2A11572  17.025   1.254   8.362
  554POPC   C3A11573  16.958   1.442   7.969
  554POPC   C4A11574  17.000   1.317   7.559
  554POPC   C1B11575  16.530   1.039   8.875
  554POPC   C2B11576  16.552   1.083   8.461
  554POPC   C3B11577  16.672   0.956   8.047
  554POPC   C4B11578  16.304   0.955   7.794
  555POPC   NC311579  29.821   3.227   9.510
  555POPC   PO411580  30.407   3.620   9.560
  555POPC   GL111581  30.258   3.327   9.206
  555POPC   GL211582  29.921   3.325   9.028
  555POPC   C1A11583  30.343   3.315   8.733
  555POPC   D2A11584  30.000   3.307   8.392
  555POPC   C3A11585  30.051   3.643   8.090
  555POPC   C4A11586  29.977   3.631   7.620
  555POPC   C1B11587  29.845   3.673   8.752
  555POPC   C2B11588  29.565   3.652   8.403
  555POPC   C3B11589  29.577   3.437   8.014
  555POPC   C4B11590  29.510   3.758   7.744
  556POPC   NC311591  17.042   3.416   9.359
  556POPC   PO411592  16.536   3.725   9.663
  556POPC   GL111593  16.629   3.737   9.235
  556POPC   GL211594  16.292   3.728   9.208
  556POPC   C1A11595  16.780   3.611   8.800
  556POPC   D2A11596  16.942   3.501   8.392
  556POPC   C3A11597  16.679   3.648   8.063
  556POPC   C4A11598  16.591   3.290   7.783
  556POPC   C1B11599  16.169   3.764   8.799
  556POPC   C2B11600  16.341   3.878   8.425
  556POPC   C3B11601  16.219   3.943   8.028
  556POPC   C4B11602  16.294   3.724   7.637
  557POPC   NC311603  34.737  21.619   9.516
  557POPC   PO411604  34.806  21.032   9.203
  557POPC   GL111605  34.415  21.126   9.055
  557POPC   GL211606  34.371  21.420   9.246
  557POPC   C1A11607  34.432  21.147   8.605
  557POPC   D2A11608  34.823  21.279   8.382
  557POPC   C3A11609  34.844  21.213   7.917
  557POPC   C4A11610  34.460  21.229   7.674
  557POPC   C1B11611  34.559  21.579   8.866
  557POPC   C2B11612  34.388  21.641   8.461
  557POPC   C3B11613  34.516  21.553   8.088
  557POPC   C4B11614  34.697  21.743   7.773
  558POPC   NC311615  13.126   0.228   9.358
  558POPC   PO411616  12.561   0.650   9.482
  558POPC   GL111617  12.736   0.635   9.095
  558POPC   GL211618  13.094   0.706   9.145
  558POPC   C1A11619  12.531   0.591   8.686
  558POPC   D2A11620  12.745   0.402   8.341
  558POPC   C3A11621  12.758   0.532   7.920
  558POPC   C4A11622  13.094   0.248   7.771
  558POPC   C1B11623  13.045   0.668   8.696
  558POPC   C2B11624  12.945   0.871   8.317
  558POPC   C3B11625  13.177   0.821   7.958
  558POPC   C4B11626  13.129   0.690   7.543
  559POPC   NC311627  26.728  33.123   9.528
  559POPC   PO411628  26.799  32.503   9.257
  559POPC   GL111629  26.927  32.896   9.069
  559POPC   GL211630  26.838  33.268   9.074
  559POPC   C1A11631  26.791  32.960   8.649
  559POPC   D2A11632  26.485  32.900   8.326
  559POPC   C3A11633  26.724  32.924   7.947
  559POPC   C4A11634  27.166  32.783   7.900
  559POPC   C1B11635  26.576  33.411   8.752
  559POPC   C2B11636  26.676  33.386   8.337
  559POPC   C3B11637  26.526  33.431   7.946
  559POPC   C4B11638  26.811  33.307   7.606
  560POPC   NC311639  35.573  14.612   9.683
  560POPC   PO411640  35.151  14.117   9.448
  560POPC   GL111641  35.289  14.482   9.227
  560POPC   GL211642  35.652  14.538   9.190
  560POPC   C1A11643  35.303  14.511   8.781
  560POPC   D2A11644  35.364  14.233   8.416
  560POPC   C3A11645  35.239  14.481   8.030
  560POPC   C4A11646  34.940  14.698   7.727
  560POPC   C1B11647  35.727  14.233   8.828
  560POPC   C2B11648  35.889  14.274   8.403
  560POPC   C3B11649  35.683  14.235   8.003
  560POPC   C4B11650  35.603  14.489   7.625
  561POPC   NC311651  20.947  21.823   9.419
  561POPC   PO411652  20.488  21.297   9.601
  561POPC   GL111653  20.759  21.341   9.193
  561POPC   GL211654  20.723  21.644   9.010
  561POPC   C1A11655  20.812  21.099   8.791
  561POPC   D2A11656  20.523  21.004   8.469
  561POPC   C3A11657  20.692  21.206   8.111
  561POPC   C4A11658  20.445  21.285   7.769
  561POPC   C1B11659  20.697  21.548   8.579
  561POPC   C2B11660  20.901  21.666   8.217
  561POPC   C3B11661  20.851  21.602   7.750
  561POPC   C4B11662  20.985  21.641   7.311
  562POPC   NC311663  42.465  23.094   9.720
  562POPC   PO411664  43.154  23.111   9.615
  562POPC   GL111665  42.719  23.055   9.278
  562POPC   GL211666  42.303  23.158   9.248
  562POPC   C1A11667  42.508  22.920   8.852
  562POPC   D2A11668  42.365  23.133   8.456
  562POPC   C3A11669  42.479  22.959   8.052
  562POPC   C4A11670  42.742  22.615   7.873
  562POPC   C1B11671  42.102  23.300   8.863
  562POPC   C2B11672  41.870  23.363   8.455
  562POPC   C3B11673  42.015  23.252   8.017
  562POPC   C4B11674  42.326  23.203   7.648
  563POPC   NC311675  24.663  19.936   9.550
  563POPC   PO411676  24.573  19.276   9.635
  563POPC   GL111677  24.527  19.560   9.225
  563POPC   GL211678  24.370  19.925   9.140
  563POPC   C1A11679  24.398  19.540   8.798
  563POPC   D2A11680  24.221  19.670   8.424
  563POPC   C3A11681  24.415  19.564   8.074
  563POPC   C4A11682  24.427  19.642   7.668
  563POPC   C1B11683  24.505  20.049   8.732
  563POPC   C2B11684  24.676  19.924   8.352
  563POPC   C3B11685  24.575  20.059   7.948
  563POPC   C4B11686  24.800  20.038   7.586
  564POPC   NC311687  26.224   9.626   9.842
  564POPC   PO411688  25.691  10.037   9.713
  564POPC   GL111689  26.053   9.893   9.413
  564POPC   GL211690  26.163   9.523   9.343
  564POPC   C1A11691  26.312   9.899   9.009
  564POPC   D2A11692  26.309   9.730   8.569
  564POPC   C3A11693  26.347   9.773   8.111
  564POPC   C4A11694  26.164   9.814   7.710
  564POPC   C1B11695  26.182   9.369   8.930
  564POPC   C2B11696  25.947   9.365   8.526
  564POPC   C3B11697  25.945   9.394   8.075
  564POPC   C4B11698  25.763   9.487   7.677
  565POPC   NC311699  32.901   1.696   9.765
  565POPC   PO411700  32.493   2.220   9.574
  565POPC   GL111701  32.816   1.992   9.256
  565POPC   GL211702  33.037   2.232   9.126
  565POPC   C1A11703  33.081   1.813   8.846
  565POPC   D2A11704  33.301   1.812   8.435
  565POPC   C3A11705  33.027   1.759   8.100
  565POPC   C4A11706  33.060   1.786   7.685
  565POPC   C1B11707  33.331   2.261   8.799
  565POPC   C2B11708  33.421   2.400   8.407
  565POPC   C3B11709  33.302   2.211   8.064
  565POPC   C4B11710  33.419   2.153   7.671
  566POPC   NC311711  40.534  30.540   9.667
  566POPC   PO411712  40.693  29.960   9.457
  566POPC   GL111713  40.752  29.986   9.056
  566POPC   GL211714  40.556  30.279   9.065
  566POPC   C1A11715  40.696  29.723   8.707
  566POPC   D2A11716  40.808  29.955   8.386
  566POPC   C3A11717  40.876  29.933   7.956
  566POPC   C4A11718  40.727  30.310   7.721
  566POPC   C1B11719  40.306  30.047   8.795
  566POPC   C2B11720  40.220  29.903   8.431
  566POPC   C3B11721  40.403  30.009   8.056
  566POPC   C4B11722  40.476  29.873   7.627
  567POPC   NC311723  22.049  36.151   9.681
  567POPC   PO411724  22.482  35.710   9.430
  567POPC   GL111725  22.088  35.854   9.211
  567POPC   GL211726  22.017  36.229   9.188
  567POPC   C1A11727  22.057  35.927   8.771
  567POPC   D2A11728  22.310  36.157   8.479
  567POPC   C3A11729  22.191  36.113   8.073
  567POPC   C4A11730  22.093  35.826   7.797
  567POPC   C1B11731  21.941  36.426   8.801
  567POPC   C2B11732  21.805  36.292   8.393
  567POPC   C3B11733  21.902  36.505   7.988
  567POPC   C4B11734  21.998  36.324   7.576
  568POPC   NC311735  21.140  20.454   9.338
  568POPC   PO411736  21.820  20.636   9.453
  568POPC   GL111737  21.555  20.675   9.063
  568POPC   GL211738  21.223  20.823   8.954
  568POPC   C1A11739  21.611  20.806   8.626
  568POPC   D2A11740  21.441  20.633   8.257
  568POPC   C3A11741  21.524  20.931   8.005
  568POPC   C4A11742  21.835  20.918   7.717
  568POPC   C1B11743  21.262  20.422   8.696
  568POPC   C2B11744  21.083  20.278   8.325
  568POPC   C3B11745  20.989  20.335   7.917
  568POPC   C4B11746  21.312  20.557   7.730
  569POPC   NC311747  29.563   5.570   9.438
  569POPC   PO411748  29.887   6.152   9.433
  569POPC   GL111749  30.047   5.833   9.159
  569POPC   GL211750  29.906   5.518   9.014
  569POPC   C1A11751  30.153   5.877   8.728
  569POPC   D2A11752  29.989   5.628   8.388
  569POPC   C3A11753  29.924   5.941   8.078
  569POPC   C4A11754  29.908   6.114   7.655
  569POPC   C1B11755  29.644   5.785   8.760
  569POPC   C2B11756  29.472   5.817   8.344
  569POPC   C3B11757  29.378   5.960   7.934
  569POPC   C4B11758  29.404   5.843   7.511
  570POPC   NC311759  44.981  35.565   9.438
  570POPC   PO411760  44.681  35.065   9.742
  570POPC   GL111761  44.575  35.090   9.279
  570POPC   GL211762  44.900  35.137   9.106
  570POPC   C1A11763  44.488  35.339   8.870
  570POPC   D2A11764  44.211  35.425   8.507
  570POPC   C3A11765  44.366  35.485   8.073
  570POPC   C4A11766  44.675  35.720   7.808
  570POPC   C1B11767  44.953  35.244   8.643
  570POPC   C2B11768  44.882  35.455   8.222
  570POPC   C3B11769   0.018  35.310   7.782
  570POPC   C4B11770   0.173  35.134   7.341
  571POPC   NC311771  11.488   6.433   9.437
  571POPC   PO411772  10.843   6.748   9.481
  571POPC   GL111773  11.084   6.818   9.147
  571POPC   GL211774  11.399   6.981   9.211
  571POPC   C1A11775  11.115   6.639   8.745
  571POPC   D2A11776  11.247   6.819   8.343
  571POPC   C3A11777  11.067   6.516   8.060
  571POPC   C4A11778  11.156   6.578   7.647
  571POPC   C1B11779  11.572   6.833   8.804
  571POPC   C2B11780  11.535   6.450   8.526
  571POPC   C3B11781  11.561   6.506   8.081
  571POPC   C4B11782  11.642   6.801   7.775
  572POPC   NC311783  40.279  26.475   9.464
  572POPC   PO411784  40.020  27.170   9.512
  572POPC   GL111785  40.083  26.910   9.183
  572POPC   GL211786  40.377  27.117   9.116
  572POPC   C1A11787  39.967  26.761   8.757
  572POPC   D2A11788  39.738  26.932   8.362
  572POPC   C3A11789  39.945  26.798   8.004
  572POPC   C4A11790  39.931  26.700   7.605
  572POPC   C1B11791  40.259  27.219   8.696
  572POPC   C2B11792  40.202  27.157   8.264
  572POPC   C3B11793  40.163  27.317   7.855
  572POPC   C4B11794  40.164  27.137   7.433
  573POPC   NC311795  22.842  29.193   9.479
  573POPC   PO411796  23.454  28.966   9.565
  573POPC   GL111797  23.203  29.002   9.206
  573POPC   GL211798  23.235  29.375   9.180
  573POPC   C1A11799  22.951  28.958   8.836
  573POPC   D2A11800  23.089  28.980   8.404
  573POPC   C3A11801  22.770  29.073   8.098
  573POPC   C4A11802  22.514  29.070   7.769
  573POPC   C1B11803  23.066  29.457   8.765
  573POPC   C2B11804  22.913  29.494   8.359
  573POPC   C3B11805  23.091  29.451   7.965
  573POPC   C4B11806  22.833  29.423   7.610
  574POPC   NC311807   9.093   8.908   9.672
  574POPC   PO411808   8.524   9.197   9.469
  574POPC   GL111809   8.836   9.027   9.168
  574POPC   GL211810   9.194   8.877   9.147
  574POPC   C1A11811   8.987   9.162   8.750
  574POPC   D2A11812   8.714   9.310   8.433
  574POPC   C3A11813   8.817   9.191   8.006
  574POPC   C4A11814   8.615   8.993   7.679
  574POPC   C1B11815   8.938   8.660   8.811
  574POPC   C2B11816   8.780   8.783   8.389
  574POPC   C3B11817   8.942   8.658   7.991
  574POPC   C4B11818   9.366   8.597   7.864
  575POPC   NC311819   1.665  14.248   9.446
  575POPC   PO411820   2.286  14.083   9.346
  575POPC   GL111821   2.029  14.348   9.107
  575POPC   GL211822   2.092  14.159   8.846
  575POPC   C1A11823   1.722  14.505   8.801
  575POPC   D2A11824   1.756  14.731   8.417
  575POPC   C3A11825   1.721  14.575   7.968
  575POPC   C4A11826   1.707  14.841   7.599
  575POPC   C1B11827   2.158  14.357   8.451
  575POPC   C2B11828   2.178  14.308   8.007
  575POPC   C3B11829   2.218  14.139   7.558
  575POPC   C4B11830   2.292  13.974   7.138
  576POPC   NC311831  30.167  43.961   9.313
  576POPC   PO411832  29.543  44.305   9.295
  576POPC   GL111833  29.801  44.111   8.959
  576POPC   GL211834  29.843  43.778   8.980
  576POPC   C1A11835  29.897  43.965   8.523
  576POPC   D2A11836  29.714  43.809   8.194
  576POPC   C3A11837  29.928  43.976   7.869
  576POPC   C4A11838  29.954  44.135   7.432
  576POPC   C1B11839  30.110  43.537   8.652
  576POPC   C2B11840  30.093  43.456   8.207
  576POPC   C3B11841  29.860  43.466   7.842
  576POPC   C4B11842  29.893  43.628   7.484
  577POPC   NC311843  13.437  24.309   9.423
  577POPC   PO411844  13.403  23.640   9.572
  577POPC   GL111845  13.667  23.885   9.266
  577POPC   GL211846  13.583  23.709   9.032
  577POPC   C1A11847  13.692  24.174   8.851
  577POPC   D2A11848  13.585  23.959   8.461
  577POPC   C3A11849  13.668  24.095   8.061
  577POPC   C4A11850  13.567  23.865   7.686
  577POPC   C1B11851  13.331  23.587   8.706
  577POPC   C2B11852  13.481  23.362   8.399
  577POPC   C3B11853  13.452  23.573   8.068
  577POPC   C4B11854  13.138  23.597   7.749
  578POPC   NC311855   4.226   9.528   9.461
  578POPC   PO411856   4.670  10.037   9.335
  578POPC   GL111857   4.428   9.787   9.064
  578POPC   GL211858   4.098   9.906   9.097
  578POPC   C1A11859   4.321   9.776   8.649
  578POPC   D2A11860   4.205  10.038   8.343
  578POPC   C3A11861   4.359   9.912   8.018
  578POPC   C4A11862   4.477   9.861   7.639
  578POPC   C1B11863   4.000   9.482   8.875
  578POPC   C2B11864   4.023   9.394   8.466
  578POPC   C3B11865   3.885   9.667   8.152
  578POPC   C4B11866   4.016   9.646   7.746
  579POPC   NC311867   6.117   7.754   9.237
  579POPC   PO411868   5.722   8.141   9.679
  579POPC   GL111869   5.716   8.076   9.078
  579POPC   GL211870   5.671   8.375   8.898
  579POPC   C1A11871   5.801   7.955   8.639
  579POPC   D2A11872   6.126   8.082   8.340
  579POPC   C3A11873   6.222   8.031   7.916
  579POPC   C4A11874   5.975   8.172   7.577
  579POPC   C1B11875   5.948   8.478   8.619
  579POPC   C2B11876   5.822   8.785   8.364
  579POPC   C3B11877   5.800   8.803   7.946
  579POPC   C4B11878   5.487   8.676   7.663
  580POPC   NC311879  20.758  33.339   9.432
  580POPC   PO411880  20.441  32.678   9.381
  580POPC   GL111881  20.590  32.997   9.083
  580POPC   GL211882  20.444  33.346   9.052
  580POPC   C1A11883  20.744  33.048   8.680
  580POPC   D2A11884  20.839  32.823   8.288
  580POPC   C3A11885  20.670  32.986   7.916
  580POPC   C4A11886  20.857  33.145   7.543
  580POPC   C1B11887  20.228  33.188   8.744
  580POPC   C2B11888  20.373  33.314   8.367
  580POPC   C3B11889  20.244  33.246   7.988
  580POPC   C4B11890  20.126  32.885   7.781
  581POPC   NC311891   9.848   3.775   9.369
  581POPC   PO411892   9.554   4.277   9.743
  581POPC   GL111893   9.764   4.279   9.272
  581POPC   GL211894   9.520   4.266   8.975
  581POPC   C1A11895   9.966   4.463   8.869
  581POPC   D2A11896   9.814   4.445   8.429
  581POPC   C3A11897   9.950   4.575   8.005
  581POPC   C4A11898   9.728   4.495   7.611
  581POPC   C1B11899   9.840   3.997   8.745
  581POPC   C2B11900   9.802   3.919   8.332
  581POPC   C3B11901   9.665   4.145   7.979
  581POPC   C4B11902   9.849   3.982   7.599
  582POPC   NC311903  15.004  29.511   9.524
  582POPC   PO411904  15.297  28.829   9.534
  582POPC   GL111905  15.171  29.143   9.220
  582POPC   GL211906  15.365  29.359   9.024
  582POPC   C1A11907  14.938  29.115   8.814
  582POPC   D2A11908  14.962  29.299   8.420
  582POPC   C3A11909  14.917  29.036   8.063
  582POPC   C4A11910  15.151  29.174   7.716
  582POPC   C1B11911  15.455  28.965   8.849
  582POPC   C2B11912  15.338  28.922   8.461
  582POPC   C3B11913  15.419  29.161   8.144
  582POPC   C4B11914  15.632  29.002   7.785
  583POPC   NC311915  21.840  17.964   9.464
  583POPC   PO411916  22.463  18.179   9.490
  583POPC   GL111917  22.182  18.182   9.132
  583POPC   GL211918  22.072  18.519   9.283
  583POPC   C1A11919  22.164  17.909   8.736
  583POPC   D2A11920  22.336  17.929   8.284
  583POPC   C3A11921  22.137  17.857   7.871
  583POPC   C4A11922  22.050  18.032   7.455
  583POPC   C1B11923  22.014  18.669   8.854
  583POPC   C2B11924  22.145  18.648   8.412
  583POPC   C3B11925  22.069  18.686   7.972
  583POPC   C4B11926  22.023  18.563   7.539
  584POPC   NC311927   9.835  35.919   9.568
  584POPC   PO411928   9.182  35.902   9.527
  584POPC   GL111929   9.523  35.890   9.147
  584POPC   GL211930   9.828  36.128   9.108
  584POPC   C1A11931   9.650  35.789   8.696
  584POPC   D2A11932   9.482  35.848   8.289
  584POPC   C3A11933   9.803  35.859   7.970
  584POPC   C4A11934   9.770  36.023   7.545
  584POPC   C1B11935   9.673  36.293   8.720
  584POPC   C2B11936   9.900  36.191   8.341
  584POPC   C3B11937  10.045  36.309   7.922
  584POPC   C4B11938   9.893  36.528   7.535
  585POPC   NC311939  11.239  31.047   9.725
  585POPC   PO411940  11.417  30.412   9.834
  585POPC   GL111941  11.390  30.621   9.334
  585POPC   GL211942  11.519  30.907   9.203
  585POPC   C1A11943  11.122  30.809   8.910
  585POPC   D2A11944  10.925  30.883   8.487
  585POPC   C3A11945  11.184  30.767   8.133
  585POPC   C4A11946  11.217  30.439   7.823
  585POPC   C1B11947  11.594  30.691   8.771
  585POPC   C2B11948  11.643  30.871   8.341
  585POPC   C3B11949  11.659  30.747   7.907
  585POPC   C4B11950  11.334  30.922   7.650
  586POPC   NC311951  17.181  32.054   9.599
  586POPC   PO411952  16.562  32.049   9.635
  586POPC   GL111953  16.843  32.088   9.208
  586POPC   GL211954  17.063  31.806   9.146
  586POPC   C1A11955  17.058  32.237   8.795
  586POPC   D2A11956  17.093  32.365   8.330
  586POPC   C3A11957  16.756  32.367   7.961
  586POPC   C4A11958  16.729  32.621   7.554
  586POPC   C1B11959  16.856  31.781   8.713
  586POPC   C2B11960  16.789  31.946   8.277
  586POPC   C3B11961  16.795  31.867   7.821
  586POPC   C4B11962  16.684  31.704   7.404
  587POPC   NC311963  21.985  11.674   9.576
  587POPC   PO411964  21.498  11.159   9.533
  587POPC   GL111965  21.454  11.345   9.146
  587POPC   GL211966  21.458  11.669   9.274
  587POPC   C1A11967  21.146  11.301   8.817
  587POPC   D2A11968  21.103  11.102   8.444
  587POPC   C3A11969  21.136  11.189   8.007
  587POPC   C4A11970  21.127  11.399   7.618
  587POPC   C1B11971  21.417  11.733   8.820
  587POPC   C2B11972  21.422  11.507   8.413
  587POPC   C3B11973  21.412  11.655   7.978
  587POPC   C4B11974  21.597  11.583   7.567
  588POPC   NC311975  19.752  29.709   9.281
  588POPC   PO411976  20.158  30.172   9.343
  588POPC   GL111977  19.950  30.137   8.992
  588POPC   GL211978  19.600  30.151   9.022
  588POPC   C1A11979  19.880  30.214   8.574
  588POPC   D2A11980  20.080  30.128   8.203
  588POPC   C3A11981  19.910  29.900   7.878
  588POPC   C4A11982  19.569  29.980   7.683
  588POPC   C1B11983  19.590  29.829   8.665
  588POPC   C2B11984  19.541  29.928   8.231
  588POPC   C3B11985  19.239  29.725   7.953
  588POPC   C4B11986  19.312  29.573   7.505
  589POPC   NC311987  38.195   9.506   9.500
  589POPC   PO411988  38.380  10.117   9.546
  589POPC   GL111989  38.229  10.089   9.152
  589POPC   GL211990  37.928   9.892   9.204
  589POPC   C1A11991  38.453  10.023   8.765
  589POPC   D2A11992  38.628   9.863   8.379
  589POPC   C3A11993  38.434   9.836   7.973
  589POPC   C4A11994  38.487   9.422   7.799
  589POPC   C1B11995  38.111   9.649   8.862
  589POPC   C2B11996  38.212   9.500   8.457
  589POPC   C3B11997  38.038   9.499   8.066
  589POPC   C4B11998  38.032   9.613   7.654
  590POPC   NC311999   8.381   4.521   9.454
  590POPC   PO412000   7.813   4.123   9.459
  590POPC   GL112001   7.917   4.299   9.073
  590POPC   GL212002   8.271   4.308   9.026
  590POPC   C1A12003   8.014   4.420   8.631
  590POPC   D2A12004   8.317   4.205   8.362
  590POPC   C3A12005   8.156   4.238   7.943
  590POPC   C4A12006   7.910   4.583   7.845
  590POPC   C1B12007   8.619   4.045   8.781
  590POPC   C2B12008   8.803   4.035   8.378
  590POPC   C3B12009   8.688   4.218   7.976
  590POPC   C4B12010   8.510   4.111   7.585
  591POPC   NC312011  13.815  35.942   9.493
  591POPC   PO412012  13.575  36.443   9.579
  591POPC   GL112013  13.464  36.170   9.195
  591POPC   GL212014  13.150  35.995   9.121
  591POPC   C1A12015  13.564  36.136   8.764
  591POPC   D2A12016  13.691  36.446   8.458
  591POPC   C3A12017  13.820  36.212   8.080
  591POPC   C4A12018  13.869  35.879   7.722
  591POPC   C1B12019  13.075  36.021   8.669
  591POPC   C2B12020  13.319  36.133   8.285
  591POPC   C3B12021  13.401  36.035   7.840
  591POPC   C4B12022  13.386  35.708   7.553
  592POPC   NC312023  25.474  34.971   9.548
  592POPC   PO412024  25.332  35.686   9.473
  592POPC   GL112025  25.370  35.361   9.104
  592POPC   GL212026  25.296  35.002   9.016
  592POPC   C1A12027  25.197  35.394   8.713
  592POPC   D2A12028  25.351  35.156   8.399
  592POPC   C3A12029  25.325  35.438   8.082
  592POPC   C4A12030  25.376  35.339   7.701
  592POPC   C1B12031  24.926  34.968   8.673
  592POPC   C2B12032  24.863  35.177   8.258
  592POPC   C3B12033  24.876  35.341   7.809
  592POPC   C4B12034  25.042  35.024   7.484
  593POPC   NC312035  10.989  24.764   9.441
  593POPC   PO412036  10.367  24.443   9.462
  593POPC   GL112037  10.385  24.434   9.032
  593POPC   GL212038  10.492  24.063   9.011
  593POPC   C1A12039  10.356  24.724   8.644
  593POPC   D2A12040  10.158  24.641   8.250
  593POPC   C3A12041  10.460  24.710   7.916
  593POPC   C4A12042  10.953  24.616   7.909
  593POPC   C1B12043  10.460  24.219   8.606
  593POPC   C2B12044  10.650  24.379   8.270
  593POPC   C3B12045  10.592  24.219   7.886
  593POPC   C4B12046  10.248  24.145   7.585
  594POPC   NC312047   5.344  40.202   9.378
  594POPC   PO412048   5.968  40.070   9.625
  594POPC   GL112049   5.815  40.001   9.218
  594POPC   GL212050   6.097  40.134   9.035
  594POPC   C1A12051   5.791  39.707   8.862
  594POPC   D2A12052   5.738  39.881   8.473
  594POPC   C3A12053   5.724  39.681   8.102
  594POPC   C4A12054   5.565  39.988   7.859
  594POPC   C1B12055   6.227  39.933   8.651
  594POPC   C2B12056   6.215  39.827   8.196
  594POPC   C3B12057   6.080  40.076   7.847
  594POPC   C4B12058   6.129  40.276   7.420
  595POPC   NC312059  29.618   6.516   9.551
  595POPC   PO412060  28.952   6.492   9.528
  595POPC   GL112061  28.958   6.638   9.094
  595POPC   GL212062  29.314   6.568   9.117
  595POPC   C1A12063  29.087   6.636   8.642
  595POPC   D2A12064  29.225   6.293   8.353
  595POPC   C3A12065  29.067   6.386   7.948
  595POPC   C4A12066  28.941   6.681   7.655
  595POPC   C1B12067  29.368   6.979   8.934
  595POPC   C2B12068  29.447   6.965   8.498
  595POPC   C3B12069  29.456   6.710   8.134
  595POPC   C4B12070  29.364   6.930   7.756
  596POPC   NC312071  25.725  20.365   9.591
  596POPC   PO412072  25.108  19.993   9.732
  596POPC   GL112073  25.174  20.000   9.271
  596POPC   GL212074  24.883  19.969   9.065
  596POPC   C1A12075  25.399  19.822   8.896
  596POPC   D2A12076  25.290  19.914   8.472
  596POPC   C3A12077  25.390  19.788   8.063
  596POPC   C4A12078  25.391  19.737   7.647
  596POPC   C1B12079  24.913  19.633   8.735
  596POPC   C2B12080  25.029  19.515   8.300
  596POPC   C3B12081  24.907  19.652   7.892
  596POPC   C4B12082  24.932  19.571   7.418
  597POPC   NC312083  37.241  10.853   9.297
  597POPC   PO412084  37.828  10.870   9.632
  597POPC   GL112085  37.684  10.647   9.232
  597POPC   GL212086  37.553  10.271   9.275
  597POPC   C1A12087  37.696  10.803   8.807
  597POPC   D2A12088  37.808  10.509   8.493
  597POPC   C3A12089  37.683  10.627   8.105
  597POPC   C4A12090  37.968  10.603   7.751
  597POPC   C1B12091  37.438  10.346   8.846
  597POPC   C2B12092  37.407  10.181   8.441
  597POPC   C3B12093  37.371  10.172   8.039
  597POPC   C4B12094  37.517  10.359   7.699
  598POPC   NC312095  35.203  10.877   9.382
  598POPC   PO412096  35.097  10.217   9.276
  598POPC   GL112097  35.263  10.496   9.051
  598POPC   GL212098  35.573  10.544   9.242
  598POPC   C1A12099  35.162  10.601   8.653
  598POPC   D2A12100  35.334  10.343   8.355
  598POPC   C3A12101  35.144  10.375   7.963
  598POPC   C4A12102  35.110  10.100   7.605
  598POPC   C1B12103  35.704  10.569   8.806
  598POPC   C2B12104  35.605  10.779   8.461
  598POPC   C3B12105  35.635  10.621   8.049
  598POPC   C4B12106  35.895  10.439   7.744
  599POPC   NC312107  10.232  24.853   9.266
  599POPC   PO412108  10.565  25.287   9.575
  599POPC   GL112109  10.542  25.349   9.151
  599POPC   GL212110  10.293  25.614   9.156
  599POPC   C1A12111  10.718  25.297   8.742
  599POPC   D2A12112  10.560  25.472   8.354
  599POPC   C3A12113  10.627  25.205   8.006
  599POPC   C4A12114  10.997  25.122   7.795
  599POPC   C1B12115  10.191  25.366   8.772
  599POPC   C2B12116  10.171  25.156   8.361
  599POPC   C3B12117  10.157  25.419   8.010
  599POPC   C4B12118  10.406  25.583   7.727
  600POPC   NC312119   6.712  19.534   9.560
  600POPC   PO412120   6.476  20.229   9.654
  600POPC   GL112121   6.532  20.172   9.234
  600POPC   GL212122   6.398  19.838   9.192
  600POPC   C1A12123   6.501  20.187   8.796
  600POPC   D2A12124   6.426  19.903   8.459
  600POPC   C3A12125   6.646  19.920   8.083
  600POPC   C4A12126   6.512  19.990   7.680
  600POPC   C1B12127   6.500  19.572   8.830
  600POPC   C2B12128   6.371  19.366   8.416
  600POPC   C3B12129   6.355  19.501   7.974
  600POPC   C4B12130   6.463  19.490   7.543
  601POPC   NC312131  15.735  11.733   9.244
  601POPC   PO412132  16.192  11.637   9.712
  601POPC   GL112133  16.166  12.011   9.291
  601POPC   GL212134  15.867  12.233   9.224
  601POPC   C1A12135  16.182  11.993   8.750
  601POPC   D2A12136  16.348  11.948   8.287
  601POPC   C3A12137  16.156  11.794   7.925
  601POPC   C4A12138  15.757  11.744   7.788
  601POPC   C1B12139  15.734  12.211   8.761
  601POPC   C2B12140  15.822  12.042   8.322
  601POPC   C3B12141  15.883  12.236   7.898
  601POPC   C4B12142  15.618  12.210   7.505
  602POPC   NC312143  31.782  25.667   9.360
  602POPC   PO412144  31.642  26.296   9.580
  602POPC   GL112145  31.500  26.270   9.165
  602POPC   GL212146  31.401  25.968   9.172
  602POPC   C1A12147  31.718  26.099   8.793
  602POPC   D2A12148  31.595  26.200   8.410
  602POPC   C3A12149  31.552  25.952   8.052
  602POPC   C4A12150  31.637  26.110   7.678
  602POPC   C1B12151  31.269  25.830   8.788
  602POPC   C2B12152  31.429  25.611   8.438
  602POPC   C3B12153  31.261  25.511   8.047
  602POPC   C4B12154  31.396  25.630   7.664
  603POPC   NC312155  11.389   3.402   9.529
  603POPC   PO412156  11.508   3.863   9.011
  603POPC   GL112157  11.465   3.394   9.018
  603POPC   GL212158  11.118   3.262   9.125
  603POPC   C1A12159  11.523   3.123   8.655
  603POPC   D2A12160  11.352   3.305   8.260
  603POPC   C3A12161  11.525   3.334   7.818
  603POPC   C4A12162  11.354   3.666   7.565
  603POPC   C1B12163  11.017   3.265   8.712
  603POPC   C2B12164  10.840   3.382   8.336
  603POPC   C3B12165  10.956   3.579   7.968
  603POPC   C4B12166  11.000   3.300   7.641
  604POPC   NC312167  43.501  38.088   9.498
  604POPC   PO412168  42.794  37.829   9.561
  604POPC   GL112169  43.009  37.884   9.196
  604POPC   GL212170  43.258  37.672   9.132
  604POPC   C1A12171  43.005  37.968   8.774
  604POPC   D2A12172  43.245  37.875   8.436
  604POPC   C3A12173  43.089  37.798   8.038
  604POPC   C4A12174  43.411  37.792   7.724
  604POPC   C1B12175  42.898  37.486   8.842
  604POPC   C2B12176  42.794  37.520   8.453
  604POPC   C3B12177  42.656  37.328   8.105
  604POPC   C4B12178  42.791  37.492   7.713
  605POPC   NC312179  37.229  27.414   9.467
  605POPC   PO412180  36.537  27.431   9.437
  605POPC   GL112181  36.812  27.654   9.135
  605POPC   GL212182  37.195  27.676   9.057
  605POPC   C1A12183  36.834  27.629   8.697
  605POPC   D2A12184  36.581  27.468   8.392
  605POPC   C3A12185  36.712  27.454   7.960
  605POPC   C4A12186  36.588  27.752   7.610
  605POPC   C1B12187  37.319  27.416   8.733
  605POPC   C2B12188  37.130  27.396   8.333
  605POPC   C3B12189  37.216  27.601   7.967
  605POPC   C4B12190  37.055  27.528   7.578
  606POPC   NC312191  39.679  30.880   9.262
  606POPC   PO412192  40.076  30.476   9.563
  606POPC   GL112193  39.982  30.504   9.097
  606POPC   GL212194  40.039  30.889   8.917
  606POPC   C1A12195  39.842  30.486   8.640
  606POPC   D2A12196  40.029  30.759   8.320
  606POPC   C3A12197  39.902  30.680   7.881
  606POPC   C4A12198  39.900  30.877   7.486
  606POPC   C1B12199  40.321  30.585   8.748
  606POPC   C2B12200  40.382  30.381   8.406
  606POPC   C3B12201  40.377  30.531   8.006
  606POPC   C4B12202  40.356  30.652   7.568
  607POPC   NC312203  43.618  27.169   9.511
  607POPC   PO412204  44.195  26.886   9.654
  607POPC   GL112205  43.992  26.929   9.258
  607POPC   GL212206  43.760  26.652   9.288
  607POPC   C1A12207  43.842  26.944   8.838
  607POPC   D2A12208  43.694  26.898   8.425
  607POPC   C3A12209  43.949  27.069   8.127
  607POPC   C4A12210  43.876  26.930   7.724
  607POPC   C1B12211  43.735  26.444   8.909
  607POPC   C2B12212  43.854  26.362   8.482
  607POPC   C3B12213  43.882  26.539   8.069
  607POPC   C4B12214  43.958  26.427   7.648
  608POPC   NC312215  33.808  29.958   9.536
  608POPC   PO412216  33.272  30.307   9.242
  608POPC   GL112217  33.660  30.126   9.084
  608POPC   GL212218  33.576  29.768   9.073
  608POPC   C1A12219  33.949  29.941   8.768
  608POPC   D2A12220  34.019  30.120   8.381
  608POPC   C3A12221  33.958  29.846   8.046
  608POPC   C4A12222  34.109  30.135   7.778
  608POPC   C1B12223  33.447  29.973   8.652
  608POPC   C2B12224  33.534  30.065   8.219
  608POPC   C3B12225  33.536  29.975   7.760
  608POPC   C4B12226  33.403  30.133   7.367
  609POPC   NC312227  36.814  32.850   9.470
  609POPC   PO412228  37.329  33.323   9.460
  609POPC   GL112229  37.020  33.191   9.143
  609POPC   GL212230  37.073  32.814   9.027
  609POPC   C1A12231  36.814  33.152   8.725
  609POPC   D2A12232  36.989  32.877   8.404
  609POPC   C3A12233  36.851  33.090   8.050
  609POPC   C4A12234  36.669  33.301   7.721
  609POPC   C1B12235  36.675  32.657   8.789
  609POPC   C2B12236  36.485  32.783   8.377
  609POPC   C3B12237  36.587  32.670   7.947
  609POPC   C4B12238  36.989  32.576   7.856
  610POPC   NC312239   1.888  26.974   9.508
  610POPC   PO412240   1.439  26.487   9.390
  610POPC   GL112241   1.666  26.780   9.078
  610POPC   GL212242   2.044  26.812   9.073
  610POPC   C1A12243   1.796  26.938   8.651
  610POPC   D2A12244   1.696  27.141   8.237
  610POPC   C3A12245   1.878  26.929   7.854
  610POPC   C4A12246   1.973  27.101   7.394
  610POPC   C1B12247   2.293  26.691   8.756
  610POPC   C2B12248   2.371  26.842   8.349
  610POPC   C3B12249   2.308  26.680   7.968
  610POPC   C4B12250   2.144  26.618   7.566
  611POPC   NC312251  10.551  31.890   9.569
  611POPC   PO412252  10.104  32.416   9.595
  611POPC   GL112253  10.386  32.371   9.188
  611POPC   GL212254  10.633  32.116   9.124
  611POPC   C1A12255  10.505  32.434   8.737
  611POPC   D2A12256  10.282  32.288   8.355
  611POPC   C3A12257  10.506  32.350   7.979
  611POPC   C4A12258  10.726  32.487   7.642
  611POPC   C1B12259  10.817  31.985   8.733
  611POPC   C2B12260  10.824  32.048   8.299
  611POPC   C3B12261  10.945  32.077   7.875
  611POPC   C4B12262  10.688  31.958   7.552
  612POPC   NC312263   2.948  30.387   9.712
  612POPC   PO412264   2.378  30.494   9.405
  612POPC   GL112265   2.690  30.609   9.135
  612POPC   GL212266   2.971  30.399   9.081
  612POPC   C1A12267   2.700  30.903   8.786
  612POPC   D2A12268   2.819  30.933   8.352
  612POPC   C3A12269   2.653  30.847   7.935
  612POPC   C4A12270   3.036  30.856   7.673
  612POPC   C1B12271   2.812  30.426   8.674
  612POPC   C2B12272   2.744  30.437   8.237
  612POPC   C3B12273   2.847  30.366   7.799
  612POPC   C4B12274   2.573  30.279   7.445
  613POPC   NC312275  19.833  13.173   9.410
  613POPC   PO412276  19.918  13.901   9.410
  613POPC   GL112277  19.721  13.621   9.168
  613POPC   GL212278  20.037  13.501   9.041
  613POPC   C1A12279  19.664  13.691   8.737
  613POPC   D2A12280  20.019  13.561   8.509
  613POPC   C3A12281  19.895  13.556   8.112
  613POPC   C4A12282  20.001  13.615   7.718
  613POPC   C1B12283  19.764  13.210   8.788
  613POPC   C2B12284  19.573  13.274   8.409
  613POPC   C3B12285  19.546  13.177   7.974
  613POPC   C4B12286  19.801  13.175   7.609
  614POPC   NC312287  31.824  19.000   9.354
  614POPC   PO412288  32.437  19.128   9.480
  614POPC   GL112289  32.252  19.242   9.118
  614POPC   GL212290  32.133  19.542   9.150
  614POPC   C1A12291  32.413  19.207   8.718
  614POPC   D2A12292  32.486  19.068   8.313
  614POPC   C3A12293  32.181  18.854   8.094
  614POPC   C4A12294  32.323  18.841   7.690
  614POPC   C1B12295  31.956  19.439   8.719
  614POPC   C2B12296  32.024  19.334   8.274
  614POPC   C3B12297  31.817  19.154   7.875
  614POPC   C4B12298  31.931  19.192   7.428
  615POPC   NC312299  39.883  33.794   9.466
  615POPC   PO412300  40.573  34.204   9.454
  615POPC   GL112301  40.261  34.008   9.164
  615POPC   GL212302  39.937  34.034   9.016
  615POPC   C1A12303  40.243  33.645   8.882
  615POPC   D2A12304  40.372  33.636   8.468
  615POPC   C3A12305  40.081  33.668   8.133
  615POPC   C4A12306  40.088  33.318   7.857
  615POPC   C1B12307  39.731  33.681   8.843
  615POPC   C2B12308  39.658  33.735   8.444
  615POPC   C3B12309  39.591  33.621   8.036
  615POPC   C4B12310  39.819  33.687   7.674
  616POPC   NC312311  24.448  34.353   9.569
  616POPC   PO412312  24.821  33.855   9.696
  616POPC   GL112313  24.636  33.785   9.250
  616POPC   GL212314  24.365  34.010   9.160
  616POPC   C1A12315  24.806  33.662   8.798
  616POPC   D2A12316  24.751  33.758   8.337
  616POPC   C3A12317  24.379  33.544   8.144
  616POPC   C4A12318  24.193  33.499   7.705
  616POPC   C1B12319  24.399  33.973   8.690
  616POPC   C2B12320  24.388  34.158   8.278
  616POPC   C3B12321  24.397  33.983   7.869
  616POPC   C4B12322  24.165  34.023   7.509
  617POPC   NC312323  40.294  31.225   9.414
  617POPC   PO412324  40.857  30.940   9.569
  617POPC   GL112325  40.787  30.726   9.174
  617POPC   GL212326  40.437  30.768   9.211
  617POPC   C1A12327  40.829  30.551   8.704
  617POPC   D2A12328  40.857  30.437   8.225
  617POPC   C3A12329  41.010  30.710   7.882
  617POPC   C4A12330  40.811  30.902   7.502
  617POPC   C1B12331  40.552  31.030   8.821
  617POPC   C2B12332  40.552  30.873   8.385
  617POPC   C3B12333  40.577  30.994   7.968
  617POPC   C4B12334  40.302  31.149   7.689
  618POPC   NC312335  30.413   5.549   9.411
  618POPC   PO412336  30.701   6.201   9.357
  618POPC   GL112337  30.555   5.897   9.072
  618POPC   GL212338  30.828   5.693   9.076
  618POPC   C1A12339  30.534   5.552   8.715
  618POPC   D2A12340  30.487   5.727   8.305
  618POPC   C3A12341  30.334   5.652   7.885
  618POPC   C4A12342  30.319   5.858   7.480
  618POPC   C1B12343  30.830   5.995   8.676
  618POPC   C2B12344  30.776   6.148   8.259
  618POPC   C3B12345  30.826   5.843   7.936
  618POPC   C4B12346  31.106   5.825   7.606
  619POPC   NC312347  40.926  29.587   9.342
  619POPC   PO412348  40.626  29.001   9.340
  619POPC   GL112349  40.760  29.223   8.991
  619POPC   GL212350  41.111  29.220   9.035
  619POPC   C1A12351  40.678  29.231   8.546
  619POPC   D2A12352  40.501  29.526   8.238
  619POPC   C3A12353  40.647  29.430   7.832
  619POPC   C4A12354  40.545  29.127   7.507
  619POPC   C1B12355  41.131  29.446   8.661
  619POPC   C2B12356  41.008  29.505   8.230
  619POPC   C3B12357  41.167  29.301   7.846
  619POPC   C4B12358  41.082  29.153   7.452
  620POPC   NC312359  11.978  24.888   9.525
  620POPC   PO412360  11.960  24.243   9.342
  620POPC   GL112361  12.041  24.597   9.100
  620POPC   GL212362  11.735  24.817   9.095
  620POPC   C1A12363  12.268  24.542   8.729
  620POPC   D2A12364  12.359  24.514   8.300
  620POPC   C3A12365  11.955  24.420   8.090
  620POPC   C4A12366  11.864  24.220   7.702
  620POPC   C1B12367  11.892  24.954   8.722
  620POPC   C2B12368  12.053  24.924   8.322
  620POPC   C3B12369  11.881  24.893   7.920
  620POPC   C4B12370  12.114  24.678   7.634
  621POPC   NC312371  17.257   2.617   9.360
  621POPC   PO412372  17.497   3.255   9.510
  621POPC   GL112373  17.551   3.035   9.122
  621POPC   GL212374  17.675   2.705   9.090
  621POPC   C1A12375  17.491   3.021   8.676
  621POPC   D2A12376  17.621   3.284   8.324
  621POPC   C3A12377  17.499   3.219   7.910
  621POPC   C4A12378  17.572   2.921   7.576
  621POPC   C1B12379  17.557   2.500   8.730
  621POPC   C2B12380  17.536   2.465   8.305
  621POPC   C3B12381  17.469   2.536   7.890
  621POPC   C4B12382  17.730   2.381   7.619
  622POPC   NC312383  27.181  34.899   9.564
  622POPC   PO412384  26.697  34.389   9.515
  622POPC   GL112385  26.702  34.672   9.198
  622POPC   GL212386  27.047  34.697   9.116
  622POPC   C1A12387  26.642  34.582   8.792
  622POPC   D2A12388  26.555  34.289   8.465
  622POPC   C3A12389  26.621  34.545   8.138
  622POPC   C4A12390  26.533  34.537   7.713
  622POPC   C1B12391  27.166  34.571   8.707
  622POPC   C2B12392  27.141  34.700   8.285
  622POPC   C3B12393  27.042  34.606   7.861
  622POPC   C4B12394  26.950  34.779   7.473
  623POPC   NC312395  34.805  29.932   9.458
  623POPC   PO412396  34.178  30.146   9.343
  623POPC   GL112397  34.487  30.048   9.056
  623POPC   GL212398  34.811  29.866   8.959
  623POPC   C1A12399  34.454  30.058   8.639
  623POPC   D2A12400  34.697  29.797   8.418
  623POPC   C3A12401  34.707  29.958   8.023
  623POPC   C4A12402  34.719  29.762   7.650
  623POPC   C1B12403  34.446  29.593   8.839
  623POPC   C2B12404  34.214  29.625   8.445
  623POPC   C3B12405  34.395  29.581   8.038
  623POPC   C4B12406  34.236  29.672   7.639
  624POPC   NC312407  31.357  22.551   9.622
  624POPC   PO412408  31.731  23.071   9.456
  624POPC   GL112409  31.396  23.004   9.160
  624POPC   GL212410  31.266  23.349   9.139
  624POPC   C1A12411  31.209  22.808   8.767
  624POPC   D2A12412  31.386  22.838   8.388
  624POPC   C3A12413  31.795  22.768   8.228
  624POPC   C4A12414  31.610  22.924   7.866
  624POPC   C1B12415  31.343  23.294   8.693
  624POPC   C2B12416  31.200  23.305   8.259
  624POPC   C3B12417  31.334  23.341   7.809
  624POPC   C4B12418  31.402  23.393   7.344
  625POPC   NC312419  39.782   8.537   9.353
  625POPC   PO412420  40.336   8.129   9.466
  625POPC   GL112421  40.094   8.181   9.131
  625POPC   GL212422  40.226   8.471   9.019
  625POPC   C1A12423  39.928   8.088   8.721
  625POPC   D2A12424  39.757   7.918   8.332
  625POPC   C3A12425  39.955   7.987   7.921
  625POPC   C4A12426  39.834   7.828   7.505
  625POPC   C1B12427  39.979   8.606   8.677
  625POPC   C2B12428  39.995   8.389   8.283
  625POPC   C3B12429  40.155   8.482   7.880
  625POPC   C4B12430  40.250   8.590   7.433
  626POPC   NC312431  34.828  34.172   9.313
  626POPC   PO412432  34.519  33.687   9.716
  626POPC   GL112433  34.598  33.668   9.273
  626POPC   GL212434  34.353  33.902   9.219
  626POPC   C1A12435  34.678  33.778   8.822
  626POPC   D2A12436  34.418  33.826   8.466
  626POPC   C3A12437  34.598  33.755   8.084
  626POPC   C4A12438  34.810  33.630   7.711
  626POPC   C1B12439  34.104  34.031   8.858
  626POPC   C2B12440  34.093  34.227   8.439
  626POPC   C3B12441  33.992  34.050   8.043
  626POPC   C4B12442  34.158  34.057   7.641
  627POPC   NC312443  37.480  35.877   9.495
  627POPC   PO412444  37.951  36.348   9.674
  627POPC   GL112445  37.673  36.314   9.285
  627POPC   GL212446  37.684  36.019   9.042
  627POPC   C1A12447  37.562  36.467   8.861
  627POPC   D2A12448  37.459  36.128   8.578
  627POPC   C3A12449  37.637  36.142   8.178
  627POPC   C4A12450  37.484  36.005   7.808
  627POPC   C1B12451  38.060  35.892   8.798
  627POPC   C2B12452  38.218  35.769   8.414
  627POPC   C3B12453  37.999  35.798   8.035
  627POPC   C4B12454  37.969  36.034   7.670
  628POPC   NC312455  20.511  38.000   9.557
  628POPC   PO412456  20.750  37.412   9.589
  628POPC   GL112457  20.768  37.478   9.138
  628POPC   GL212458  20.539  37.807   9.086
  628POPC   C1A12459  20.888  37.686   8.736
  628POPC   D2A12460  20.576  37.967   8.552
  628POPC   C3A12461  20.704  38.038   8.149
  628POPC   C4A12462  20.647  37.782   7.797
  628POPC   C1B12463  20.388  37.518   8.775
  628POPC   C2B12464  20.469  37.337   8.373
  628POPC   C3B12465  20.336  37.422   7.957
  628POPC   C4B12466  20.547  37.342   7.538
  629POPC   NC312467  27.935  20.455   9.338
  629POPC   PO412468  28.468  20.580   9.618
  629POPC   GL112469  28.403  20.626   9.163
  629POPC   GL212470  28.094  20.866   9.100
  629POPC   C1A12471  28.631  20.580   8.765
  629POPC   D2A12472  28.522  20.684   8.371
  629POPC   C3A12473  28.470  20.528   7.952
  629POPC   C4A12474  28.673  20.607   7.497
  629POPC   C1B12475  28.112  20.586   8.706
  629POPC   C2B12476  28.052  20.439   8.263
  629POPC   C3B12477  27.964  20.683   7.882
  629POPC   C4B12478  27.738  20.618   7.499
  630POPC   NC312479  10.607  23.327   9.571
  630POPC   PO412480  10.156  22.826   9.531
  630POPC   GL112481  10.419  23.004   9.214
  630POPC   GL212482  10.761  22.880   9.288
  630POPC   C1A12483  10.308  23.098   8.784
  630POPC   D2A12484  10.263  22.810   8.419
  630POPC   C3A12485  10.266  23.038   8.028
  630POPC   C4A12486  10.406  22.759   7.719
  630POPC   C1B12487  10.836  22.943   8.861
  630POPC   C2B12488  10.727  23.081   8.455
  630POPC   C3B12489  10.765  22.838   8.078
  630POPC   C4B12490  10.807  23.069   7.690
  631POPC   NC312491  24.173  10.973   9.336
  631POPC   PO412492  23.725  10.546   9.410
  631POPC   GL112493  23.644  10.683   9.035
  631POPC   GL212494  23.907  10.869   8.935
  631POPC   C1A12495  23.475  10.589   8.638
  631POPC   D2A12496  23.458  10.226   8.363
  631POPC   C3A12497  23.422  10.353   7.958
  631POPC   C4A12498  23.464  10.814   7.873
  631POPC   C1B12499  23.935  10.895   8.524
  631POPC   C2B12500  23.801  10.609   8.210
  631POPC   C3B12501  23.867  10.524   7.750
  631POPC   C4B12502  23.880  10.671   7.310
  632POPC   NC312503  37.129   9.990   9.519
  632POPC   PO412504  36.504   9.854   9.489
  632POPC   GL112505  36.798   9.815   9.147
  632POPC   GL212506  37.049  10.084   9.042
  632POPC   C1A12507  36.580   9.804   8.777
  632POPC   D2A12508  36.696   9.610   8.420
  632POPC   C3A12509  36.643   9.788   8.023
  632POPC   C4A12510  36.797   9.439   7.820
  632POPC   C1B12511  37.096   9.839   8.671
  632POPC   C2B12512  37.167   9.700   8.222
  632POPC   C3B12513  37.136   9.822   7.785
  632POPC   C4B12514  37.175  10.118   7.430
  633POPC   NC312515  22.773  13.219   9.805
  633POPC   PO412516  23.062  12.643   9.637
  633POPC   GL112517  23.088  12.830   9.238
  633POPC   GL212518  22.762  12.691   9.094
  633POPC   C1A12519  23.229  12.775   8.825
  633POPC   D2A12520  23.332  12.840   8.416
  633POPC   C3A12521  23.054  13.033   8.097
  633POPC   C4A12522  23.138  12.851   7.712
  633POPC   C1B12523  22.761  12.929   8.682
  633POPC   C2B12524  22.851  12.674   8.386
  633POPC   C3B12525  22.763  12.618   7.974
  633POPC   C4B12526  22.532  12.898   7.759
  634POPC   NC312527  16.390  38.175   9.285
  634POPC   PO412528  16.764  38.574   9.523
  634POPC   GL112529  16.713  38.542   9.094
  634POPC   GL212530  17.029  38.618   9.013
  634POPC   C1A12531  16.720  38.389   8.651
  634POPC   D2A12532  16.985  38.471   8.291
  634POPC   C3A12533  16.867  38.314   7.872
  634POPC   C4A12534  16.987  38.012   7.503
  634POPC   C1B12535  16.907  38.891   8.681
  634POPC   C2B12536  16.966  38.993   8.255
  634POPC   C3B12537  16.775  38.818   7.879
  634POPC   C4B12538  16.785  38.580   7.466
  635POPC   NC312539   7.470  16.670   9.680
  635POPC   PO412540   7.012  17.068   9.310
  635POPC   GL112541   7.265  16.769   8.996
  635POPC   GL212542   7.542  16.559   9.118
  635POPC   C1A12543   7.448  16.746   8.580
  635POPC   D2A12544   7.290  16.936   8.199
  635POPC   C3A12545   7.302  16.628   7.909
  635POPC   C4A12546   7.748  16.596   8.017
  635POPC   C1B12547   7.555  16.269   8.750
  635POPC   C2B12548   7.424  16.215   8.299
  635POPC   C3B12549   7.552  16.170   7.858
  635POPC   C4B12550   7.368  16.325   7.480
  636POPC   NC312551  40.300  43.973   9.401
  636POPC   PO412552  39.661  43.869   9.579
  636POPC   GL112553  39.866  43.596   9.238
  636POPC   GL212554  40.220  43.521   9.200
  636POPC   C1A12555  39.842  43.729   8.792
  636POPC   D2A12556  39.794  44.005   8.426
  636POPC   C3A12557  40.039  43.929   8.058
  636POPC   C4A12558  40.129  43.856   7.631
  636POPC   C1B12559  40.402  43.525   8.803
  636POPC   C2B12560  40.228  43.618   8.430
  636POPC   C3B12561  40.263  43.453   8.021
  636POPC   C4B12562  40.501  43.537   7.694
  637POPC   NC312563  20.330  11.772   9.702
  637POPC   PO412564  20.743  12.239   9.734
  637POPC   GL112565  20.729  12.145   9.253
  637POPC   GL212566  20.482  11.888   9.145
  637POPC   C1A12567  20.668  12.199   8.778
  637POPC   D2A12568  20.490  12.137   8.371
  637POPC   C3A12569  20.667  12.220   7.952
  637POPC   C4A12570  20.564  12.105   7.540
  637POPC   C1B12571  20.351  11.744   8.702
  637POPC   C2B12572  20.428  11.626   8.237
  637POPC   C3B12573  20.270  11.725   7.794
  637POPC   C4B12574  20.205  11.741   7.304
  638POPC   NC312575  23.788  38.992   9.599
  638POPC   PO412576  24.508  39.107   9.499
  638POPC   GL112577  24.499  39.257   9.120
  638POPC   GL212578  24.118  39.277   9.088
  638POPC   C1A12579  24.800  39.366   8.812
  638POPC   D2A12580  24.856  39.199   8.412
  638POPC   C3A12581  24.824  39.413   8.026
  638POPC   C4A12582  24.521  39.315   7.716
  638POPC   C1B12583  24.311  39.291   8.658
  638POPC   C2B12584  24.339  39.340   8.224
  638POPC   C3B12585  24.102  39.165   7.936
  638POPC   C4B12586  24.211  38.765   7.741
  639POPC   NC312587  10.793  34.308   9.516
  639POPC   PO412588  10.305  34.728   9.522
  639POPC   GL112589  10.379  34.556   9.157
  639POPC   GL212590  10.688  34.749   9.158
  639POPC   C1A12591  10.374  34.756   8.763
  639POPC   D2A12592  10.391  34.610   8.394
  639POPC   C3A12593  10.394  34.866   8.063
  639POPC   C4A12594  10.490  34.684   7.719
  639POPC   C1B12595  10.807  34.495   8.838
  639POPC   C2B12596  10.931  34.404   8.421
  639POPC   C3B12597  10.838  34.613   8.089
  639POPC   C4B12598  10.996  34.813   7.718
  640POPC   NC312599  11.789  13.294   9.290
  640POPC   PO412600  12.181  13.613   9.776
  640POPC   GL112601  12.313  13.748   9.323
  640POPC   GL212602  12.012  13.773   9.183
  640POPC   C1A12603  12.362  13.627   8.843
  640POPC   D2A12604  12.174  13.551   8.413
  640POPC   C3A12605  12.033  13.754   8.048
  640POPC   C4A12606  11.975  13.545   7.638
  640POPC   C1B12607  11.847  13.691   8.774
  640POPC   C2B12608  11.698  13.912   8.450
  640POPC   C3B12609  11.733  14.166   8.120
  640POPC   C4B12610  11.821  14.063   7.696
  641POPC   NC312611  25.510   5.220   9.272
  641POPC   PO412612  25.010   5.055   9.649
  641POPC   GL112613  25.112   4.921   9.194
  641POPC   GL212614  25.032   5.243   9.078
  641POPC   C1A12615  25.243   4.953   8.714
  641POPC   D2A12616  25.261   4.691   8.340
  641POPC   C3A12617  25.247   4.992   8.068
  641POPC   C4A12618  25.344   5.075   7.705
  641POPC   C1B12619  24.934   5.403   8.715
  641POPC   C2B12620  24.861   5.198   8.351
  641POPC   C3B12621  24.959   5.414   7.995
  641POPC   C4B12622  25.033   5.461   7.529
  642POPC   NC312623  37.569  41.791   9.751
  642POPC   PO412624  37.557  42.469   9.660
  642POPC   GL112625  37.673  42.300   9.194
  642POPC   GL212626  37.502  41.980   9.182
  642POPC   C1A12627  37.606  42.360   8.724
  642POPC   D2A12628  37.461  42.373   8.293
  642POPC   C3A12629  37.808  42.520   8.051
  642POPC   C4A12630  37.877  42.511   7.625
  642POPC   C1B12631  37.830  41.913   8.835
  642POPC   C2B12632  37.879  42.057   8.371
  642POPC   C3B12633  37.638  42.010   7.949
  642POPC   C4B12634  37.663  42.068   7.470
  643POPC   NC312635  38.838  32.056   9.546
  643POPC   PO412636  38.228  32.450   9.375
  643POPC   GL112637  38.477  32.173   9.121
  643POPC   GL212638  38.781  32.346   9.133
  643POPC   C1A12639  38.615  32.157   8.678
  643POPC   D2A12640  38.687  32.082   8.245
  643POPC   C3A12641  38.680  32.145   7.805
  643POPC   C4A12642  38.474  31.982   7.435
  643POPC   C1B12643  38.787  32.662   8.832
  643POPC   C2B12644  38.897  32.538   8.452
  643POPC   C3B12645  38.745  32.587   8.092
  643POPC   C4B12646  38.610  32.638   7.714
  644POPC   NC312647  27.566  43.096   9.899
  644POPC   PO412648  27.805  43.537   9.388
  644POPC   GL112649  27.536  43.420   9.070
  644POPC   GL212650  27.256  43.353   9.198
  644POPC   C1A12651  27.538  43.207   8.668
  644POPC   D2A12652  27.626  42.939   8.283
  644POPC   C3A12653  27.847  43.072   7.912
  644POPC   C4A12654  27.943  43.486   7.916
  644POPC   C1B12655  27.103  43.483   8.793
  644POPC   C2B12656  27.271  43.538   8.402
  644POPC   C3B12657  27.269  43.262   8.087
  644POPC   C4B12658  27.482  43.354   7.725
  645POPC   NC312659  24.227  28.197   9.374
  645POPC   PO412660  24.871  28.113   9.293
  645POPC   GL112661  24.623  28.381   9.040
  645POPC   GL212662  24.793  28.710   8.977
  645POPC   C1A12663  24.330  28.306   8.723
  645POPC   D2A12664  24.487  28.188   8.332
  645POPC   C3A12665  24.377  28.237   7.921
  645POPC   C4A12666  24.728  28.119   7.648
  645POPC   C1B12667  24.413  28.808   8.728
  645POPC   C2B12668  24.215  28.653   8.346
  645POPC   C3B12669  24.293  28.742   7.927
  645POPC   C4B12670  24.548  28.591   7.585
  646POPC   NC312671  40.660   7.111   9.804
  646POPC   PO412672  41.027   7.409   9.422
  646POPC   GL112673  40.658   7.396   9.105
  646POPC   GL212674  40.547   7.070   9.104
  646POPC   C1A12675  40.484   7.343   8.666
  646POPC   D2A12676  40.663   7.184   8.278
  646POPC   C3A12677  40.752   7.366   7.869
  646POPC   C4A12678  40.545   7.236   7.478
  646POPC   C1B12679  40.896   7.056   8.761
  646POPC   C2B12680  40.925   6.775   8.398
  646POPC   C3B12681  40.767   6.785   7.951
  646POPC   C4B12682  40.993   6.948   7.593
  647POPC   NC312683  25.671  39.731   9.525
  647POPC   PO412684  25.436  40.307   9.348
  647POPC   GL112685  25.530  39.979   9.080
  647POPC   GL212686  25.276  39.780   9.168
  647POPC   C1A12687  25.554  39.883   8.641
  647POPC   D2A12688  25.442  40.236   8.379
  647POPC   C3A12689  25.420  40.249   7.957
  647POPC   C4A12690  25.236  40.148   7.538
  647POPC   C1B12691  25.044  39.844   8.780
  647POPC   C2B12692  25.110  39.827   8.342
  647POPC   C3B12693  25.115  39.844   7.917
  647POPC   C4B12694  25.013  39.603   7.579
  648POPC   NC312695  22.644  23.843   9.453
  648POPC   PO412696  22.977  23.333   9.466
  648POPC   GL112697  22.932  23.551   9.077
  648POPC   GL212698  23.099  23.868   9.154
  648POPC   C1A12699  23.196  23.582   8.691
  648POPC   D2A12700  23.237  23.458   8.251
  648POPC   C3A12701  22.896  23.591   7.978
  648POPC   C4A12702  22.769  23.633   7.564
  648POPC   C1B12703  22.848  23.993   8.791
  648POPC   C2B12704  22.973  23.911   8.373
  648POPC   C3B12705  23.162  24.060   8.004
  648POPC   C4B12706  22.772  24.091   7.845
  649POPC   NC312707   2.739  20.364   9.499
  649POPC   PO412708   2.449  20.909   9.477
  649POPC   GL112709   2.564  20.702   9.101
  649POPC   GL212710   2.896  20.632   9.086
  649POPC   C1A12711   2.579  20.304   8.838
  649POPC   D2A12712   2.805  20.138   8.478
  649POPC   C3A12713   2.766  20.349   8.066
  649POPC   C4A12714   2.852  20.346   7.636
  649POPC   C1B12715   2.832  20.713   8.645
  649POPC   C2B12716   2.521  20.741   8.304
  649POPC   C3B12717   2.653  20.826   7.871
  649POPC   C4B12718   3.002  21.150   7.765
  650POPC   NC312719  41.088   0.160   9.667
  650POPC   PO412720  40.618   0.481   9.325
  650POPC   GL112721  40.902   0.434   9.043
  650POPC   GL212722  41.066   0.737   9.022
  650POPC   C1A12723  40.769   0.304   8.644
  650POPC   D2A12724  40.464   0.254   8.320
  650POPC   C3A12725  40.537   0.504   7.947
  650POPC   C4A12726  40.558   0.233   7.663
  650POPC   C1B12727  41.231   0.565   8.647
  650POPC   C2B12728  41.198   0.673   8.216
  650POPC   C3B12729  40.958   0.798   7.871
  650POPC   C4B12730  40.833   0.589   7.452
  651POPC   NC312731  44.038  31.555   9.334
  651POPC   PO412732  44.567  31.380   9.623
  651POPC   GL112733  44.638  31.428   9.185
  651POPC   GL212734  44.886  31.208   9.017
  651POPC   C1A12735  44.482  31.338   8.756
  651POPC   D2A12736  44.505  31.154   8.337
  651POPC   C3A12737  44.453  31.395   7.974
  651POPC   C4A12738  44.617  31.599   7.589
  651POPC   C1B12739  44.957  31.270   8.550
  651POPC   C2B12740  44.971  30.983   8.183
  651POPC   C3B12741  44.901  31.191   7.771
  651POPC   C4B12742  44.872  31.288   7.301
  652POPC   NC312743  24.610  24.705   9.794
  652POPC   PO412744  24.311  24.215   9.478
  652POPC   GL112745  24.547  24.367   9.134
  652POPC   GL212746  24.587  24.753   9.206
  652POPC   C1A12747  24.568  24.167   8.716
  652POPC   D2A12748  24.639  24.424   8.347
  652POPC   C3A12749  24.424  24.382   7.964
  652POPC   C4A12750  24.492  24.439   7.529
  652POPC   C1B12751  24.430  24.702   8.777
  652POPC   C2B12752  24.207  24.759   8.412
  652POPC   C3B12753  24.291  24.875   7.984
  652POPC   C4B12754  24.711  24.810   7.809
  653POPC   NC312755  34.625   2.889   9.672
  653POPC   PO412756  34.729   2.250   9.624
  653POPC   GL112757  34.754   2.595   9.253
  653POPC   GL212758  34.695   2.976   9.187
  653POPC   C1A12759  34.608   2.606   8.799
  653POPC   D2A12760  34.242   2.610   8.476
  653POPC   C3A12761  34.328   2.462   8.031
  653POPC   C4A12762  34.750   2.340   7.872
  653POPC   C1B12763  34.452   3.117   8.835
  653POPC   C2B12764  34.590   2.988   8.442
  653POPC   C3B12765  34.500   3.127   8.047
  653POPC   C4B12766  34.415   2.884   7.684
  654POPC   NC312767  35.859  11.050   9.862
  654POPC   PO412768  36.353  11.337   9.591
  654POPC   GL112769  36.215  11.175   9.184
  654POPC   GL212770  35.884  11.002   9.304
  654POPC   C1A12771  36.166  11.449   8.792
  654POPC   D2A12772  36.125  11.604   8.385
  654POPC   C3A12773  36.341  11.295   8.139
  654POPC   C4A12774  36.244  11.227   7.719
  654POPC   C1B12775  35.788  11.096   8.865
  654POPC   C2B12776  35.977  11.113   8.458
  654POPC   C3B12777  35.840  11.184   8.062
  654POPC   C4B12778  35.777  10.959   7.706
  655POPC   NC312779  33.380  40.305   9.397
  655POPC   PO412780  33.400  39.608   9.449
  655POPC   GL112781  33.086  39.762   9.113
  655POPC   GL212782  33.052  40.129   9.053
  655POPC   C1A12783  33.091  39.856   8.640
  655POPC   D2A12784  33.117  40.111   8.254
  655POPC   C3A12785  33.094  39.839   7.878
  655POPC   C4A12786  33.347  39.579   7.602
  655POPC   C1B12787  32.907  40.370   8.681
  655POPC   C2B12788  32.727  40.435   8.234
  655POPC   C3B12789  32.648  40.156   7.878
  655POPC   C4B12790  32.393  40.193   7.501
  656POPC   NC312791   0.147   3.179   9.581
  656POPC   PO412792   0.069   3.749   9.468
  656POPC   GL112793   0.296   3.617   9.139
  656POPC   GL212794   0.365   3.269   9.132
  656POPC   C1A12795   0.173   3.534   8.743
  656POPC   D2A12796   0.256   3.392   8.332
  656POPC   C3A12797   0.364   3.635   7.991
  656POPC   C4A12798   0.390   3.456   7.616
  656POPC   C1B12799   0.655   3.408   8.807
  656POPC   C2B12800   0.802   3.259   8.420
  656POPC   C3B12801   0.677   3.250   8.006
  656POPC   C4B12802   0.854   3.238   7.587
  657POPC   NC312803  40.345  43.243   9.620
  657POPC   PO412804  39.736  43.037   9.571
  657POPC   GL112805  40.011  43.064   9.226
  657POPC   GL212806  40.286  42.860   9.272
  657POPC   C1A12807  39.946  43.237   8.789
  657POPC   D2A12808  39.777  43.412   8.369
  657POPC   C3A12809  39.891  43.111   8.089
  657POPC   C4A12810  39.901  43.022   7.672
  657POPC   C1B12811  40.383  42.977   8.844
  657POPC   C2B12812  40.306  43.099   8.415
  657POPC   C3B12813  40.337  42.884   8.009
  657POPC   C4B12814  40.413  43.033   7.623
  658POPC   NC312815  30.150   4.016   9.439
  658POPC   PO412816  29.684   4.577   9.531
  658POPC   GL112817  29.938   4.456   9.204
  658POPC   GL212818  29.805   4.145   9.067
  658POPC   C1A12819  30.030   4.514   8.772
  658POPC   D2A12820  30.014   4.729   8.368
  658POPC   C3A12821  30.062   4.448   8.033
  658POPC   C4A12822  30.101   4.069   7.815
  658POPC   C1B12823  29.632   4.147   8.659
  658POPC   C2B12824  29.770   4.086   8.226
  658POPC   C3B12825  29.610   4.255   7.821
  658POPC   C4B12826  29.538   4.493   7.426
  659POPC   NC312827  36.784  44.316   9.243
  659POPC   PO412828  36.995  44.833   9.577
  659POPC   GL112829  37.038  44.760   9.149
  659POPC   GL212830  36.838   0.012   9.051
  659POPC   C1A12831  37.174  44.611   8.742
  659POPC   D2A12832  36.937  44.809   8.410
  659POPC   C3A12833  36.839  44.560   8.040
  659POPC   C4A12834  36.618  44.544   7.646
  659POPC   C1B12835  37.233   0.121   8.812
  659POPC   C2B12836  37.432  44.959   8.440
  659POPC   C3B12837  37.220  44.969   8.026
  659POPC   C4B12838  37.017  44.854   7.652
  660POPC   NC312839   1.721  23.434   9.326
  660POPC   PO412840   2.165  24.079   9.403
  660POPC   GL112841   1.989  23.834   9.132
  660POPC   GL212842   1.654  23.949   9.214
  660POPC   C1A12843   2.033  23.616   8.740
  660POPC   D2A12844   2.128  23.305   8.450
  660POPC   C3A12845   2.087  23.384   8.022
  660POPC   C4A12846   1.913  23.665   7.719
  660POPC   C1B12847   1.638  23.940   8.770
  660POPC   C2B12848   1.872  24.008   8.383
  660POPC   C3B12849   1.779  24.142   7.980
  660POPC   C4B12850   1.657  24.071   7.579
  661POPC   NC312851  43.719  31.766   9.694
  661POPC   PO412852  43.688  31.338   9.148
  661POPC   GL112853  44.007  31.265   8.919
  661POPC   GL212854  44.060  31.652   8.838
  661POPC   C1A12855  44.046  31.282   8.508
  661POPC   D2A12856  44.097  31.591   8.284
  661POPC   C3A12857  43.933  31.401   7.956
  661POPC   C4A12858  44.126  31.517   7.578
  661POPC   C1B12859  43.664  31.642   8.579
  661POPC   C2B12860  43.651  31.866   8.228
  661POPC   C3B12861  43.899  31.898   7.902
  661POPC   C4B12862  43.662  31.687   7.612
  662POPC   NC312863   2.041   6.135   9.760
  662POPC   PO412864   2.468   6.155   9.272
  662POPC   GL112865   2.116   6.023   9.001
  662POPC   GL212866   2.014   5.675   8.875
  662POPC   C1A12867   1.838   6.145   8.686
  662POPC   D2A12868   1.895   5.853   8.353
  662POPC   C3A12869   2.106   5.891   7.956
  662POPC   C4A12870   2.552   5.936   7.852
  662POPC   C1B12871   1.829   5.369   8.583
  662POPC   C2B12872   1.881   5.396   8.151
  662POPC   C3B12873   2.148   5.411   7.798
  662POPC   C4B12874   1.929   5.597   7.456
  663POPC   NC312875   1.272  11.614   9.336
  663POPC   PO412876   0.848  12.153   9.533
  663POPC   GL112877   1.084  12.172   9.073
  663POPC   GL212878   1.273  11.875   8.899
  663POPC   C1A12879   0.968  12.174   8.621
  663POPC   D2A12880   0.963  11.822   8.299
  663POPC   C3A12881   1.005  11.955   7.867
  663POPC   C4A12882   1.250  12.288   7.721
  663POPC   C1B12883   1.713  11.768   8.748
  663POPC   C2B12884   1.724  11.766   8.324
  663POPC   C3B12885   1.473  11.839   8.020
  663POPC   C4B12886   1.507  11.818   7.611
  664POPC   NC312887  30.216  26.218   9.421
  664POPC   PO412888  29.700  25.759   9.458
  664POPC   GL112889  29.852  25.949   9.107
  664POPC   GL212890  30.150  25.740   9.146
  664POPC   C1A12891  29.807  26.136   8.685
  664POPC   D2A12892  30.026  26.054   8.310
  664POPC   C3A12893  29.771  26.129   7.966
  664POPC   C4A12894  29.904  26.348   7.626
  664POPC   C1B12895  30.288  25.952   8.774
  664POPC   C2B12896  30.458  25.766   8.398
  664POPC   C3B12897  30.315  25.720   8.010
  664POPC   C4B12898  30.262  26.069   7.817
  665POPC   NC312899  21.192  30.298   9.539
  665POPC   PO412900  21.620  29.785   9.618
  665POPC   GL112901  21.610  29.885   9.173
  665POPC   GL212902  21.492  30.185   9.139
  665POPC   C1A12903  21.453  29.935   8.714
  665POPC   D2A12904  21.326  30.083   8.312
  665POPC   C3A12905  21.376  29.696   8.071
  665POPC   C4A12906  21.485  29.645   7.659
  665POPC   C1B12907  21.762  30.339   8.776
  665POPC   C2B12908  21.850  30.112   8.357
  665POPC   C3B12909  21.721  30.054   7.916
  665POPC   C4B12910  21.294  30.108   7.739
  666POPC   NC312911  38.907  30.663   9.670
  666POPC   PO412912  38.262  30.764   9.560
  666POPC   GL112913  38.214  30.887   9.156
  666POPC   GL212914  38.572  30.764   9.104
  666POPC   C1A12915  38.344  31.072   8.780
  666POPC   D2A12916  38.509  30.779   8.477
  666POPC   C3A12917  38.289  30.809   8.077
  666POPC   C4A12918  38.186  30.630   7.663
  666POPC   C1B12919  38.693  30.409   8.835
  666POPC   C2B12920  38.849  30.338   8.422
  666POPC   C3B12921  38.681  30.455   8.015
  666POPC   C4B12922  38.523  30.195   7.691
  667POPC   NC312923  30.284  35.154   9.414
  667POPC   PO412924  30.951  35.328   9.534
  667POPC   GL112925  30.669  35.334   9.152
  667POPC   GL212926  30.579  35.005   9.010
  667POPC   C1A12927  30.678  35.444   8.724
  667POPC   D2A12928  31.071  35.437   8.484
  667POPC   C3A12929  31.001  35.402   8.060
  667POPC   C4A12930  30.688  35.605   7.800
  667POPC   C1B12931  30.951  34.994   8.770
  667POPC   C2B12932  31.079  34.941   8.338
  667POPC   C3B12933  30.955  34.917   7.878
  667POPC   C4B12934  30.565  35.113   7.820
  668POPC   NC312935   0.145  22.675   9.567
  668POPC   PO412936  44.729  23.219   9.766
  668POPC   GL112937  44.620  23.022   9.333
  668POPC   GL212938  44.380  23.135   9.075
  668POPC   C1A12939  44.800  22.884   8.909
  668POPC   D2A12940  44.764  23.091   8.476
  668POPC   C3A12941  44.889  22.877   8.095
  668POPC   C4A12942  44.864  22.636   7.730
  668POPC   C1B12943  44.347  22.833   8.708
  668POPC   C2B12944  44.496  22.650   8.333
  668POPC   C3B12945  44.401  22.770   7.912
  668POPC   C4B12946  44.548  22.959   7.501
  669POPC   NC312947  23.227  22.288   9.288
  669POPC   PO412948  23.898  22.209   9.293
  669POPC   GL112949  23.763  21.893   9.019
  669POPC   GL212950  23.577  22.174   8.890
  669POPC   C1A12951  23.939  21.934   8.600
  669POPC   D2A12952  24.156  22.291   8.414
  669POPC   C3A12953  23.932  22.372   8.055
  669POPC   C4A12954  23.766  22.554   7.699
  669POPC   C1B12955  23.592  22.389   8.518
  669POPC   C2B12956  23.232  22.440   8.285
  669POPC   C3B12957  23.276  22.396   7.865
  669POPC   C4B12958  23.615  22.076   7.751
  670POPC   NC312959  41.955  24.996   9.456
  670POPC   PO412960  41.321  25.412   9.459
  670POPC   GL112961  41.500  25.299   9.046
  670POPC   GL212962  41.869  25.317   9.016
  670POPC   C1A12963  41.609  25.401   8.599
  670POPC   D2A12964  41.565  25.414   8.162
  670POPC   C3A12965  41.337  25.051   7.972
  670POPC   C4A12966  41.421  25.136   7.551
  670POPC   C1B12967  41.898  24.987   8.743
  670POPC   C2B12968  41.810  24.939   8.298
  670POPC   C3B12969  41.828  25.092   7.870
  670POPC   C4B12970  41.929  25.172   7.416
  671POPC   NC312971  26.309  27.346   9.743
  671POPC   PO412972  26.992  27.496   9.595
  671POPC   GL112973  26.741  27.622   9.254
  671POPC   GL212974  26.447  27.384   9.240
  671POPC   C1A12975  26.796  27.511   8.839
  671POPC   D2A12976  26.947  27.692   8.448
  671POPC   C3A12977  26.891  27.523   8.025
  671POPC   C4A12978  26.723  27.795   7.701
  671POPC   C1B12979  26.409  27.158   8.826
  671POPC   C2B12980  26.385  27.131   8.374
  671POPC   C3B12981  26.550  27.136   7.963
  671POPC   C4B12982  26.609  27.339   7.556
  672POPC   NC312983  19.951  19.884   9.435
  672POPC   PO412984  19.352  20.045   9.409
  672POPC   GL112985  19.566  19.924   9.071
  672POPC   GL212986  19.582  20.300   9.011
  672POPC   C1A12987  19.750  19.604   8.785
  672POPC   D2A12988  20.027  19.508   8.445
  672POPC   C3A12989  19.865  19.642   8.065
  672POPC   C4A12990  19.718  19.586   7.662
  672POPC   C1B12991  19.972  20.167   8.835
  672POPC   C2B12992  20.105  20.018   8.450
  672POPC   C3B12993  19.981  20.149   8.058
  672POPC   C4B12994  20.060  19.964   7.677
  673POPC   NC312995  26.700  38.201   9.494
  673POPC   PO412996  27.201  38.679   9.497
  673POPC   GL112997  27.018  38.418   9.161
  673POPC   GL212998  26.668  38.528   9.090
  673POPC   C1A12999  26.925  38.312   8.712
  673POPC   D2A13000  27.017  38.009   8.397
  673POPC   C3A13001  26.900  38.058   8.004
  673POPC   C4A13002  26.840  38.389   7.734
  673POPC   C1B13003  26.378  38.506   8.736
  673POPC   C2B13004  26.398  38.395   8.275
  673POPC   C3B13005  26.341  38.412   7.812
  673POPC   C4B13006  26.489  38.241   7.388
  674POPC   NC313007  26.695  29.167   9.744
  674POPC   PO413008  26.085  29.175   9.775
  674POPC   GL113009  26.292  29.242   9.328
  674POPC   GL213010  26.003  29.353   9.165
  674POPC   C1A13011  26.329  29.169   8.846
  674POPC   D2A13012  26.247  29.314   8.420
  674POPC   C3A13013  26.069  29.105   8.041
  674POPC   C4A13014  26.200  28.991   7.603
  674POPC   C1B13015  25.796  29.254   8.775
  674POPC   C2B13016  25.696  29.450   8.385
  674POPC   C3B13017  25.571  29.291   7.998
  674POPC   C4B13018  25.757  29.224   7.626
  675POPC   NC313019  32.795  35.199   9.542
  675POPC   PO413020  33.343  35.683   9.672
  675POPC   GL113021  33.089  35.578   9.287
  675POPC   GL213022  33.081  35.245   9.122
  675POPC   C1A13023  32.962  35.666   8.835
  675POPC   D2A13024  33.017  35.386   8.460
  675POPC   C3A13025  33.194  35.511   8.027
  675POPC   C4A13026  32.988  35.772   7.711
  675POPC   C1B13027  33.261  35.005   8.796
  675POPC   C2B13028  33.349  35.008   8.361
  675POPC   C3B13029  33.080  35.014   8.030
  675POPC   C4B13030  33.181  35.122   7.581
  676POPC   NC313031  19.656  32.391   9.489
  676POPC   PO413032  19.920  31.793   9.483
  676POPC   GL113033  19.746  31.834   9.069
  676POPC   GL213034  19.743  32.187   9.036
  676POPC   C1A13035  19.860  31.937   8.617
  676POPC   D2A13036  19.683  32.126   8.254
  676POPC   C3A13037  19.862  31.983   7.891
  676POPC   C4A13038  20.217  31.963   7.604
  676POPC   C1B13039  19.954  32.438   8.720
  676POPC   C2B13040  20.087  32.440   8.285
  676POPC   C3B13041  19.831  32.486   7.928
  676POPC   C4B13042  19.504  32.258   7.657
  677POPC   NC313043   8.279  38.636   9.531
  677POPC   PO413044   8.217  38.030   9.582
  677POPC   GL113045   8.090  38.139   9.140
  677POPC   GL213046   8.370  38.313   9.135
  677POPC   C1A13047   8.238  38.187   8.665
  677POPC   D2A13048   7.997  38.392   8.293
  677POPC   C3A13049   8.039  38.224   7.894
  677POPC   C4A13050   8.310  38.431   7.704
  677POPC   C1B13051   8.596  38.567   8.866
  677POPC   C2B13052   8.591  38.650   8.472
  677POPC   C3B13053   8.574  38.666   8.074
  677POPC   C4B13054   8.642  38.802   7.693
  678POPC   NC313055  21.788  40.190   9.542
  678POPC   PO413056  22.298  39.736   9.435
  678POPC   GL113057  22.064  39.734   9.077
  678POPC   GL213058  21.700  39.813   9.162
  678POPC   C1A13059  22.236  39.808   8.682
  678POPC   D2A13060  22.322  40.017   8.299
  678POPC   C3A13061  22.279  39.785   7.924
  678POPC   C4A13062  22.375  39.847   7.508
  678POPC   C1B13063  21.867  40.153   8.885
  678POPC   C2B13064  21.894  40.276   8.467
  678POPC   C3B13065  21.867  40.105   8.071
  678POPC   C4B13066  22.100  40.245   7.742
  679POPC   NC313067  26.350   5.698   9.539
  679POPC   PO413068  25.959   6.256   9.542
  679POPC   GL113069  26.007   6.160   9.094
  679POPC   GL213070  26.179   5.870   9.098
  679POPC   C1A13071  25.896   5.892   8.678
  679POPC   D2A13072  25.856   5.537   8.348
  679POPC   C3A13073  25.906   5.715   7.922
  679POPC   C4A13074  26.122   6.069   7.730
  679POPC   C1B13075  26.384   5.989   8.714
  679POPC   C2B13076  26.590   5.768   8.377
  679POPC   C3B13077  26.435   5.680   7.967
  679POPC   C4B13078  26.512   5.731   7.544
  680POPC   NC313079   9.020   4.374   9.547
  680POPC   PO413080   9.380   3.902   9.302
  680POPC   GL113081   9.012   4.103   9.094
  680POPC   GL213082   8.772   4.422   9.104
  680POPC   C1A13083   9.064   4.340   8.706
  680POPC   D2A13084   9.358   4.193   8.422
  680POPC   C3A13085   9.177   4.048   8.035
  680POPC   C4A13086   9.246   4.314   7.707
  680POPC   C1B13087   8.560   4.538   8.706
  680POPC   C2B13088   8.584   4.662   8.281
  680POPC   C3B13089   8.897   4.670   7.957
  680POPC   C4B13090   8.828   4.509   7.521
  681POPC   NC313091   6.597  42.741   9.424
  681POPC   PO413092   6.366  43.357   9.476
  681POPC   GL113093   6.655  43.206   9.146
  681POPC   GL213094   6.828  42.911   9.033
  681POPC   C1A13095   6.610  43.321   8.727
  681POPC   D2A13096   6.312  43.174   8.436
  681POPC   C3A13097   6.441  43.203   8.029
  681POPC   C4A13098   6.557  43.387   7.676
  681POPC   C1B13099   6.697  42.786   8.663
  681POPC   C2B13100   6.794  43.019   8.334
  681POPC   C3B13101   6.931  42.956   7.949
  681POPC   C4B13102   6.830  42.943   7.528
  682POPC   NC313103   5.025   8.930   9.340
  682POPC   PO413104   4.386   9.092   9.507
  682POPC   GL113105   4.437   8.814   9.185
  682POPC   GL213106   4.123   8.987   9.068
  682POPC   C1A13107   4.377   8.688   8.756
  682POPC   D2A13108   4.308   8.960   8.436
  682POPC   C3A13109   4.395   8.805   8.048
  682POPC   C4A13110   4.039   8.700   7.824
  682POPC   C1B13111   4.468   9.241   8.848
  682POPC   C2B13112   4.586   9.381   8.432
  682POPC   C3B13113   4.348   9.372   8.059
  682POPC   C4B13114   4.538   9.369   7.682
  683POPC   NC313115  40.433  40.604   9.486
  683POPC   PO413116  40.859  41.142   9.490
  683POPC   GL113117  40.654  40.987   9.068
  683POPC   GL213118  40.600  40.629   8.997
  683POPC   C1A13119  40.696  40.910   8.602
  683POPC   D2A13120  40.724  41.202   8.262
  683POPC   C3A13121  40.817  41.039   7.888
  683POPC   C4A13122  40.541  40.759   7.739
  683POPC   C1B13123  40.969  40.503   8.732
  683POPC   C2B13124  40.895  40.371   8.314
  683POPC   C3B13125  40.958  40.526   7.916
  683POPC   C4B13126  41.195  40.736   7.636
  684POPC   NC313127   2.061  30.879   9.361
  684POPC   PO413128   1.603  30.449   9.610
  684POPC   GL113129   1.826  30.484   9.173
  684POPC   GL213130   2.090  30.279   9.056
  684POPC   C1A13131   1.851  30.649   8.742
  684POPC   D2A13132   1.753  30.769   8.347
  684POPC   C3A13133   2.040  30.891   8.026
  684POPC   C4A13134   1.784  30.981   7.662
  684POPC   C1B13135   2.299  30.428   8.699
  684POPC   C2B13136   2.228  30.469   8.277
  684POPC   C3B13137   2.336  30.402   7.888
  684POPC   C4B13138   2.179  30.654   7.590
  685POPC   NC313139  19.633   2.940  10.033
  685POPC   PO413140  20.067   2.538   9.719
  685POPC   GL113141  19.913   2.669   9.272
  685POPC   GL213142  19.557   2.570   9.182
  685POPC   C1A13143  19.890   2.760   8.826
  685POPC   D2A13144  19.714   3.020   8.509
  685POPC   C3A13145  19.873   3.164   8.136
  685POPC   C4A13146  19.877   2.974   7.735
  685POPC   C1B13147  19.527   2.413   8.723
  685POPC   C2B13148  19.661   2.469   8.312
  685POPC   C3B13149  19.772   2.472   7.893
  685POPC   C4B13150  19.781   2.262   7.471
  686POPC   NC313151   1.559   2.658   9.528
  686POPC   PO413152   2.016   3.102   9.473
  686POPC   GL113153   1.952   2.992   9.110
  686POPC   GL213154   1.613   3.090   9.148
  686POPC   C1A13155   1.878   2.786   8.755
  686POPC   D2A13156   1.565   2.604   8.510
  686POPC   C3A13157   1.668   2.588   8.081
  686POPC   C4A13158   1.974   2.440   7.810
  686POPC   C1B13159   1.620   3.223   8.740
  686POPC   C2B13160   1.786   3.107   8.371
  686POPC   C3B13161   1.682   3.099   7.988
  686POPC   C4B13162   1.868   2.908   7.629
  687POPC   NC313163  12.568  29.681   9.492
  687POPC   PO413164  13.215  29.858   9.513
  687POPC   GL113165  12.877  30.016   9.219
  687POPC   GL213166  13.097  29.868   8.982
  687POPC   C1A13167  12.690  30.080   8.762
  687POPC   D2A13168  12.591  29.879   8.327
  687POPC   C3A13169  12.726  30.124   7.962
  687POPC   C4A13170  12.895  30.107   7.529
  687POPC   C1B13171  12.860  29.578   8.719
  687POPC   C2B13172  12.800  29.388   8.330
  687POPC   C3B13173  12.904  29.596   7.961
  687POPC   C4B13174  13.212  29.886   7.864
  688POPC   NC313175  29.905  34.520   9.470
  688POPC   PO413176  29.845  35.189   9.564
  688POPC   GL113177  29.818  34.927   9.166
  688POPC   GL213178  30.124  34.794   9.084
  688POPC   C1A13179  29.754  34.613   8.822
  688POPC   D2A13180  29.953  34.557   8.443
  688POPC   C3A13181  29.765  34.440   8.057
  688POPC   C4A13182  29.864  34.561   7.591
  688POPC   C1B13183  30.301  34.473   8.824
  688POPC   C2B13184  30.352  34.277   8.417
  688POPC   C3B13185  30.256  34.505   8.027
  688POPC   C4B13186  30.526  34.618   7.728
  689POPC   NC313187   2.036   5.703   9.373
  689POPC   PO413188   1.932   4.977   9.527
  689POPC   GL113189   2.119   5.207   9.238
  689POPC   GL213190   1.783   5.268   9.111
  689POPC   C1A13191   2.177   5.082   8.834
  689POPC   D2A13192   2.269   4.813   8.515
  689POPC   C3A13193   2.204   4.991   8.134
  689POPC   C4A13194   2.106   4.881   7.738
  689POPC   C1B13195   1.658   4.938   8.812
  689POPC   C2B13196   1.480   4.960   8.417
  689POPC   C3B13197   1.693   4.950   8.054
  689POPC   C4B13198   1.683   5.215   7.708
  690POPC   NC313199  11.837   2.578   9.446
  690POPC   PO413200  11.282   2.918   9.502
  690POPC   GL113201  11.420   2.848   9.089
  690POPC   GL213202  11.628   2.577   8.997
  690POPC   C1A13203  11.156   2.769   8.733
  690POPC   D2A13204  11.020   2.893   8.304
  690POPC   C3A13205  11.354   2.870   8.008
  690POPC   C4A13206  11.749   2.692   7.834
  690POPC   C1B13207  11.422   2.324   8.734
  690POPC   C2B13208  11.338   2.475   8.324
  690POPC   C3B13209  11.322   2.370   7.865
  690POPC   C4B13210  11.079   2.509   7.499
  691POPC   NC313211   1.807  15.935   9.501
  691POPC   PO413212   2.486  15.847   9.671
  691POPC   GL113213   2.200  15.814   9.236
  691POPC   GL213214   1.948  15.525   9.138
  691POPC   C1A13215   2.057  15.976   8.828
  691POPC   D2A13216   1.788  16.148   8.491
  691POPC   C3A13217   1.861  16.164   8.035
  691POPC   C4A13218   1.943  16.017   7.617
  691POPC   C1B13219   2.080  15.496   8.668
  691POPC   C2B13220   1.973  15.693   8.299
  691POPC   C3B13221   2.027  15.585   7.898
  691POPC   C4B13222   1.970  15.525   7.455
  692POPC   NC313223  35.944  41.127   9.463
  692POPC   PO413224  36.511  41.460   9.420
  692POPC   GL113225  36.382  41.065   9.160
  692POPC   GL213226  36.088  40.760   9.119
  692POPC   C1A13227  36.409  40.844   8.760
  692POPC   D2A13228  36.244  40.514   8.546
  692POPC   C3A13229  36.310  40.657   8.140
  692POPC   C4A13230  36.290  40.734   7.734
  692POPC   C1B13231  35.788  40.646   8.735
  692POPC   C2B13232  35.817  40.566   8.240
  692POPC   C3B13233  35.789  40.596   7.774
  692POPC   C4B13234  35.806  40.460   7.312
  693POPC   NC313235  19.539  21.097   9.550
  693POPC   PO413236  19.163  21.572   9.316
  693POPC   GL113237  19.284  21.216   9.059
  693POPC   GL213238  19.253  21.468   8.827
  693POPC   C1A13239  19.149  21.053   8.606
  693POPC   D2A13240  19.144  21.431   8.302
  693POPC   C3A13241  18.830  21.439   8.050
  693POPC   C4A13242  18.815  21.188   7.748
  693POPC   C1B13243  19.300  21.821   8.661
  693POPC   C2B13244  19.451  21.933   8.309
  693POPC   C3B13245  19.574  21.682   8.013
  693POPC   C4B13246  19.273  21.471   7.746
  694POPC   NC313247  35.549   5.664   9.355
  694POPC   PO413248  35.044   5.914   9.679
  694POPC   GL113249  35.154   5.954   9.183
  694POPC   GL213250  35.232   5.659   8.940
  694POPC   C1A13251  35.107   6.108   8.737
  694POPC   D2A13252  35.354   5.978   8.365
  694POPC   C3A13253  35.156   5.874   8.013
  694POPC   C4A13254  34.930   5.526   7.929
  694POPC   C1B13255  35.628   5.776   8.735
  694POPC   C2B13256  35.811   5.688   8.348
  694POPC   C3B13257  35.655   5.871   7.946
  694POPC   C4B13258  35.415   5.957   7.559
  695POPC   NC313259   8.400  13.357   9.379
  695POPC   PO413260   8.425  13.996   9.425
  695POPC   GL113261   8.141  13.785   9.156
  695POPC   GL213262   8.074  14.095   8.995
  695POPC   C1A13263   8.211  13.588   8.743
  695POPC   D2A13264   8.177  13.736   8.312
  695POPC   C3A13265   8.202  13.571   7.882
  695POPC   C4A13266   8.231  13.943   7.627
  695POPC   C1B13267   7.767  13.849   8.765
  695POPC   C2B13268   7.747  13.513   8.504
  695POPC   C3B13269   7.737  13.537   8.078
  695POPC   C4B13270   7.685  13.225   7.769
  696POPC   NC313271  16.491   6.025   9.492
  696POPC   PO413272  17.127   5.674   9.513
  696POPC   GL113273  16.900   5.698   9.171
  696POPC   GL213274  16.587   5.509   9.233
  696POPC   C1A13275  16.995   5.845   8.753
  696POPC   D2A13276  17.067   5.636   8.365
  696POPC   C3A13277  16.868   5.825   7.988
  696POPC   C4A13278  16.670   6.167   7.743
  696POPC   C1B13279  16.498   5.773   8.874
  696POPC   C2B13280  16.510   5.657   8.426
  696POPC   C3B13281  16.378   5.517   8.025
  696POPC   C4B13282  16.560   5.584   7.636
  697POPC   NC313283  30.145  36.022   9.395
  697POPC   PO413284  30.045  36.657   9.316
  697POPC   GL113285  29.860  36.306   9.031
  697POPC   GL213286  30.089  36.032   8.890
  697POPC   C1A13287  29.731  36.271   8.576
  697POPC   D2A13288  29.880  36.295   8.175
  697POPC   C3A13289  29.747  36.570   7.858
  697POPC   C4A13290  29.823  36.266   7.570
  697POPC   C1B13291  29.692  35.806   8.731
  697POPC   C2B13292  29.491  35.867   8.290
  697POPC   C3B13293  29.707  35.885   7.890
  697POPC   C4B13294  30.158  35.880   7.787
  698POPC   NC313295   0.675  39.402   9.588
  698POPC   PO413296   1.359  39.614   9.509
  698POPC   GL113297   1.159  39.302   9.243
  698POPC   GL213298   0.823  39.258   9.115
  698POPC   C1A13299   1.318  39.074   8.881
  698POPC   D2A13300   1.211  38.866   8.501
  698POPC   C3A13301   1.391  39.062   8.104
  698POPC   C4A13302   1.324  39.049   7.640
  698POPC   C1B13303   1.047  39.490   8.771
  698POPC   C2B13304   1.250  39.529   8.374
  698POPC   C3B13305   1.109  39.461   7.940
  698POPC   C4B13306   0.787  39.237   7.721
  699POPC   NC313307  11.352  22.662   9.624
  699POPC   PO413308  11.060  23.252   9.499
  699POPC   GL113309  11.263  23.102   9.152
  699POPC   GL213310  11.252  22.789   9.148
  699POPC   C1A13311  11.447  23.129   8.759
  699POPC   D2A13312  11.223  22.934   8.435
  699POPC   C3A13313  11.218  23.061   8.006
  699POPC   C4A13314  11.519  23.189   7.720
  699POPC   C1B13315  11.589  22.660   8.921
  699POPC   C2B13316  11.560  22.541   8.506
  699POPC   C3B13317  11.550  22.686   8.077
  699POPC   C4B13318  11.845  22.799   7.761
  700POPC   NC313319  24.992  42.393   9.456
  700POPC   PO413320  25.500  41.896   9.463
  700POPC   GL113321  25.484  42.221   9.153
  700POPC   GL213322  25.736  42.572   9.146
  700POPC   C1A13323  25.336  42.057   8.738
  700POPC   D2A13324  25.262  41.882   8.325
  700POPC   C3A13325  25.285  42.132   7.970
  700POPC   C4A13326  25.355  41.969   7.573
  700POPC   C1B13327  25.363  42.569   8.812
  700POPC   C2B13328  25.091  42.434   8.441
  700POPC   C3B13329  24.974  42.544   8.017
  700POPC   C4B13330  25.056  42.448   7.589
  701POPC   NC313331  17.456  20.763   9.830
  701POPC   PO413332  17.947  20.341   9.553
  701POPC   GL113333  17.562  20.369   9.273
  701POPC   GL213334  17.492  20.700   9.154
  701POPC   C1A13335  17.500  20.321   8.791
  701POPC   D2A13336  17.251  20.434   8.403
  701POPC   C3A13337  17.462  20.332   8.017
  701POPC   C4A13338  17.491  20.392   7.588
  701POPC   C1B13339  17.494  20.834   8.695
  701POPC   C2B13340  17.628  20.756   8.266
  701POPC   C3B13341  17.501  20.849   7.845
  701POPC   C4B13342  17.601  20.852   7.400
  702POPC   NC313343   9.886  24.001   9.734
  702POPC   PO413344   9.432  23.429   9.504
  702POPC   GL113345   9.615  23.724   9.232
  702POPC   GL213346   9.915  23.617   9.123
  702POPC   C1A13347   9.632  23.965   8.844
  702POPC   D2A13348   9.397  23.980   8.503
  702POPC   C3A13349   9.564  23.998   8.088
  702POPC   C4A13350   9.552  23.680   7.827
  702POPC   C1B13351  10.015  23.627   8.660
  702POPC   C2B13352   9.921  23.622   8.182
  702POPC   C3B13353   9.993  23.431   7.721
  702POPC   C4B13354   9.899  23.344   7.286
  703POPC   NC313355  41.879  31.733   9.578
  703POPC   PO413356  41.365  31.371   9.499
  703POPC   GL113357  41.646  31.335   9.170
  703POPC   GL213358  41.662  31.686   9.135
  703POPC   C1A13359  41.639  31.193   8.723
  703POPC   D2A13360  41.326  31.219   8.390
  703POPC   C3A13361  41.507  31.290   7.997
  703POPC   C4A13362  41.473  31.609   7.729
  703POPC   C1B13363  41.884  31.616   8.781
  703POPC   C2B13364  41.769  31.556   8.348
  703POPC   C3B13365  41.938  31.689   7.937
  703POPC   C4B13366  41.845  31.869   7.504
  704POPC   NC313367  29.561  44.742   9.464
  704POPC   PO413368  30.076  44.972   9.783
  704POPC   GL113369  30.031  44.805   9.271
  704POPC   GL213370  30.110  44.457   9.160
  704POPC   C1A13371  29.827  44.713   8.813
  704POPC   D2A13372  29.743  44.856   8.368
  704POPC   C3A13373  29.954  44.707   7.983
  704POPC   C4A13374  29.869  44.618   7.548
  704POPC   C1B13375  30.158  44.361   8.680
  704POPC   C2B13376  30.213  44.303   8.224
  704POPC   C3B13377  30.294  44.307   7.770
  704POPC   C4B13378  30.388  44.395   7.298
  705POPC   NC313379   5.725  36.600   9.499
  705POPC   PO413380   5.944  36.003   9.442
  705POPC   GL113381   6.188  36.328   9.208
  705POPC   GL213382   5.891  36.447   9.042
  705POPC   C1A13383   6.305  36.329   8.755
  705POPC   D2A13384   6.036  36.387   8.379
  705POPC   C3A13385   6.031  36.158   8.017
  705POPC   C4A13386   5.723  36.171   7.699
  705POPC   C1B13387   5.610  36.466   8.672
  705POPC   C2B13388   5.445  36.451   8.213
  705POPC   C3B13389   5.244  36.301   7.805
  705POPC   C4B13390   5.335  36.065   7.376
  706POPC   NC313391  17.878  31.992   9.398
  706POPC   PO413392  17.490  32.391   9.592
  706POPC   GL113393  17.442  32.180   9.169
  706POPC   GL213394  17.465  32.486   8.995
  706POPC   C1A13395  17.435  31.865   8.814
  706POPC   D2A13396  17.275  31.666   8.425
  706POPC   C3A13397  17.260  31.932   8.060
  706POPC   C4A13398  17.248  32.318   7.845
  706POPC   C1B13399  17.540  32.294   8.581
  706POPC   C2B13400  17.618  32.452   8.167
  706POPC   C3B13401  17.636  32.637   7.735
  706POPC   C4B13402  17.711  32.572   7.273
  707POPC   NC313403   9.037  22.293   9.422
  707POPC   PO413404   8.782  21.777   9.793
  707POPC   GL113405   9.053  21.811   9.308
  707POPC   GL213406   9.343  21.749   9.096
  707POPC   C1A13407   8.938  21.808   8.813
  707POPC   D2A13408   8.902  22.009   8.378
  707POPC   C3A13409   9.175  22.292   8.115
  707POPC   C4A13410   9.040  22.510   7.736
  707POPC   C1B13411   9.427  21.628   8.665
  707POPC   C2B13412   9.569  21.715   8.258
  707POPC   C3B13413   9.405  21.874   7.859
  707POPC   C4B13414   9.029  21.983   7.707
  708POPC   NC313415   9.335  15.415   9.470
  708POPC   PO413416   8.728  15.166   9.457
  708POPC   GL113417   8.992  15.201   9.146
  708POPC   GL213418   9.181  14.934   9.225
  708POPC   C1A13419   9.081  15.356   8.769
  708POPC   D2A13420   8.982  15.209   8.399
  708POPC   C3A13421   8.799  15.444   8.123
  708POPC   C4A13422   8.942  15.392   7.691
  708POPC   C1B13423   9.460  15.007   8.873
  708POPC   C2B13424   9.505  14.921   8.459
  708POPC   C3B13425   9.396  15.166   8.100
  708POPC   C4B13426   9.331  15.012   7.718
  709POPC   NC313427  30.049  23.879   9.494
  709POPC   PO413428  30.089  23.268   9.434
  709POPC   GL113429  29.940  23.566   9.111
  709POPC   GL213430  29.646  23.835   9.154
  709POPC   C1A13431  29.983  23.447   8.699
  709POPC   D2A13432  29.773  23.224   8.390
  709POPC   C3A13433  29.788  23.415   8.011
  709POPC   C4A13434  30.131  23.401   7.743
  709POPC   C1B13435  29.884  23.950   8.778
  709POPC   C2B13436  30.069  24.055   8.362
  709POPC   C3B13437  29.915  23.931   7.946
  709POPC   C4B13438  29.715  23.705   7.576
  710POPC   NC313439  11.840  30.221   9.612
  710POPC   PO413440  12.271  30.816   9.506
  710POPC   GL113441  12.104  30.542   9.235
  710POPC   GL213442  11.999  30.794   9.055
  710POPC   C1A13443  12.146  30.387   8.771
  710POPC   D2A13444  12.394  30.368   8.377
  710POPC   C3A13445  12.132  30.419   7.993
  710POPC   C4A13446  11.999  30.536   7.553
  710POPC   C1B13447  12.042  30.924   8.652
  710POPC   C2B13448  12.145  30.857   8.236
  710POPC   C3B13449  12.147  30.926   7.825
  710POPC   C4B13450  11.838  31.085   7.565
  711POPC   NC313451   3.319  17.844   9.516
  711POPC   PO413452   3.408  17.253   9.485
  711POPC   GL113453   3.393  17.501   9.132
  711POPC   GL213454   3.720  17.554   9.095
  711POPC   C1A13455   3.455  17.473   8.691
  711POPC   D2A13456   3.184  17.390   8.407
  711POPC   C3A13457   3.304  17.321   7.997
  711POPC   C4A13458   3.217  17.576   7.620
  711POPC   C1B13459   3.798  17.886   8.739
  711POPC   C2B13460   3.660  17.774   8.316
  711POPC   C3B13461   3.794  17.639   7.907
  711POPC   C4B13462   3.697  17.694   7.443
  712POPC   NC313463   8.251  28.627   9.606
  712POPC   PO413464   7.607  28.520   9.485
  712POPC   GL113465   7.990  28.526   9.144
  712POPC   GL213466   8.376  28.634   9.114
  712POPC   C1A13467   8.169  28.380   8.724
  712POPC   D2A13468   8.150  28.562   8.303
  712POPC   C3A13469   8.043  28.221   8.028
  712POPC   C4A13470   8.086  28.423   7.676
  712POPC   C1B13471   8.530  28.753   8.687
  712POPC   C2B13472   8.603  28.388   8.405
  712POPC   C3B13473   8.545  28.332   7.972
  712POPC   C4B13474   8.462  28.089   7.629
  713POPC   NC313475  32.076  35.047   9.631
  713POPC   PO413476  32.419  35.574   9.511
  713POPC   GL113477  32.227  35.338   9.219
  713POPC   GL213478  32.438  35.112   9.197
  713POPC   C1A13479  32.073  35.426   8.822
  713POPC   D2A13480  31.893  35.535   8.414
  713POPC   C3A13481  32.148  35.516   8.028
  713POPC   C4A13482  32.320  35.121   7.847
  713POPC   C1B13483  32.610  35.264   8.837
  713POPC   C2B13484  32.451  35.459   8.465
  713POPC   C3B13485  32.667  35.529   8.098
  713POPC   C4B13486  32.771  35.310   7.768
  714POPC   NC313487  35.165  19.180   9.462
  714POPC   PO413488  35.765  18.779   9.444
  714POPC   GL113489  35.714  18.961   9.064
  714POPC   GL213490  35.510  19.240   9.089
  714POPC   C1A13491  35.559  19.015   8.632
  714POPC   D2A13492  35.220  18.935   8.351
  714POPC   C3A13493  35.334  19.112   7.954
  714POPC   C4A13494  35.126  18.940   7.599
  714POPC   C1B13495  35.436  19.497   8.721
  714POPC   C2B13496  35.208  19.446   8.359
  714POPC   C3B13497  34.963  19.449   8.005
  714POPC   C4B13498  35.136  19.480   7.600
  715POPC   NC313499  18.224   5.562   9.346
  715POPC   PO413500  18.375   4.996   9.800
  715POPC   GL113501  18.321   5.070   9.354
  715POPC   GL213502  18.442   4.833   9.194
  715POPC   C1A13503  18.186   5.151   8.855
  715POPC   D2A13504  18.100   5.417   8.462
  715POPC   C3A13505  18.276   5.193   8.110
  715POPC   C4A13506  18.191   5.119   7.675
  715POPC   C1B13507  18.597   4.831   8.801
  715POPC   C2B13508  18.785   4.677   8.437
  715POPC   C3B13509  18.652   4.783   8.015
  715POPC   C4B13510  18.499   4.567   7.655
  716POPC   NC313511  20.978  22.283   9.795
  716POPC   PO413512  20.499  21.904   9.446
  716POPC   GL113513  20.696  22.167   9.120
  716POPC   GL213514  20.995  22.366   9.199
  716POPC   C1A13515  20.565  22.182   8.696
  716POPC   D2A13516  20.501  21.988   8.314
  716POPC   C3A13517  20.588  22.199   7.941
  716POPC   C4A13518  20.411  22.157   7.527
  716POPC   C1B13519  20.974  22.484   8.731
  716POPC   C2B13520  20.802  22.570   8.278
  716POPC   C3B13521  21.011  22.508   7.837
  716POPC   C4B13522  21.097  22.464   7.311
  717POPC   NC313523   1.610  22.329   9.451
  717POPC   PO413524   2.170  22.154   9.699
  717POPC   GL113525   2.117  22.345   9.303
  717POPC   GL213526   1.950  22.061   9.154
  717POPC   C1A13527   1.946  22.526   8.925
  717POPC   D2A13528   1.930  22.353   8.510
  717POPC   C3A13529   1.875  22.494   8.100
  717POPC   C4A13530   2.012  22.366   7.676
  717POPC   C1B13531   1.777  21.908   8.750
  717POPC   C2B13532   1.560  22.021   8.351
  717POPC   C3B13533   1.678  22.037   7.915
  717POPC   C4B13534   2.059  21.844   7.726
  718POPC   NC313535  10.966  11.945   9.373
  718POPC   PO413536  10.684  12.431   9.744
  718POPC   GL113537  10.592  12.353   9.287
  718POPC   GL213538  10.316  12.109   9.194
  718POPC   C1A13539  10.711  12.220   8.843
  718POPC   D2A13540  10.720  11.939   8.489
  718POPC   C3A13541  10.473  12.059   8.142
  718POPC   C4A13542  10.780  12.160   7.809
  718POPC   C1B13543  10.318  11.825   8.845
  718POPC   C2B13544  10.342  11.603   8.464
  718POPC   C3B13545  10.552  11.553   8.122
  718POPC   C4B13546  10.479  11.722   7.733
  719POPC   NC313547  13.228   2.609   9.587
  719POPC   PO413548  12.759   2.864   9.960
  719POPC   GL113549  12.742   2.837   9.433
  719POPC   GL213550  13.060   2.944   9.226
  719POPC   C1A13551  12.638   2.862   8.933
  719POPC   D2A13552  12.746   2.655   8.506
  719POPC   C3A13553  12.676   2.854   8.088
  719POPC   C4A13554  12.967   2.819   7.767
  719POPC   C1B13555  13.069   2.557   8.940
  719POPC   C2B13556  13.203   2.419   8.539
  719POPC   C3B13557  13.071   2.457   8.122
  719POPC   C4B13558  13.224   2.355   7.722
  720POPC   NC313559  12.179  36.119   9.392
  720POPC   PO413560  11.705  35.523   9.508
  720POPC   GL113561  11.829  35.793   9.164
  720POPC   GL213562  11.680  36.098   9.176
  720POPC   C1A13563  11.952  35.978   8.745
  720POPC   D2A13564  12.065  35.958   8.317
  720POPC   C3A13565  12.318  36.301   8.155
  720POPC   C4A13566  12.561  36.241   7.780
  720POPC   C1B13567  11.444  36.014   8.786
  720POPC   C2B13568  11.539  36.229   8.380
  720POPC   C3B13569  11.824  36.291   8.015
  720POPC   C4B13570  12.098  35.998   7.777
  721POPC   NC313571  17.922  17.025   9.409
  721POPC   PO413572  18.566  16.857   9.477
  721POPC   GL113573  18.327  16.870   9.097
  721POPC   GL213574  18.016  16.657   9.092
  721POPC   C1A13575  18.254  16.883   8.670
  721POPC   D2A13576  18.060  16.901   8.272
  721POPC   C3A13577  18.290  16.742   7.931
  721POPC   C4A13578  18.471  16.917   7.604
  721POPC   C1B13579  18.104  16.407   8.773
  721POPC   C2B13580  18.199  16.435   8.357
  721POPC   C3B13581  17.948  16.364   7.995
  721POPC   C4B13582  18.064  16.439   7.580
  722POPC   NC313583   4.926   4.663   9.352
  722POPC   PO413584   4.834   5.337   9.481
  722POPC   GL113585   5.136   5.190   9.183
  722POPC   GL213586   5.356   4.891   9.184
  722POPC   C1A13587   5.291   5.267   8.784
  722POPC   D2A13588   5.216   5.050   8.413
  722POPC   C3A13589   5.168   5.254   8.055
  722POPC   C4A13590   5.011   5.159   7.678
  722POPC   C1B13591   5.242   4.661   8.783
  722POPC   C2B13592   5.433   4.599   8.387
  722POPC   C3B13593   5.296   4.746   7.978
  722POPC   C4B13594   5.427   4.798   7.576
  723POPC   NC313595  35.969  15.024   9.527
  723POPC   PO413596  36.421  15.462   9.448
  723POPC   GL113597  36.257  15.194   9.145
  723POPC   GL213598  35.872  15.235   9.071
  723POPC   C1A13599  36.270  15.149   8.745
  723POPC   D2A13600  36.169  15.383   8.465
  723POPC   C3A13601  36.219  15.163   8.100
  723POPC   C4A13602  36.328  15.390   7.743
  723POPC   C1B13603  35.890  14.824   8.849
  723POPC   C2B13604  36.056  14.764   8.428
  723POPC   C3B13605  35.847  14.778   8.037
  723POPC   C4B13606  35.889  15.088   7.718
  724POPC   NC313607  36.118   3.177   9.437
  724POPC   PO413608  35.860   2.512   9.417
  724POPC   GL113609  36.031   2.751   9.118
  724POPC   GL213610  36.349   2.636   9.193
  724POPC   C1A13611  35.907   3.001   8.767
  724POPC   D2A13612  36.060   3.034   8.347
  724POPC   C3A13613  35.982   2.680   8.056
  724POPC   C4A13614  35.862   2.739   7.596
  724POPC   C1B13615  36.426   2.909   8.816
  724POPC   C2B13616  36.519   2.792   8.378
  724POPC   C3B13617  36.428   2.891   7.940
  724POPC   C4B13618  36.328   2.900   7.474
  725POPC   NC313619   3.769  19.242   9.738
  725POPC   PO413620   4.353  19.367   9.325
  725POPC   GL113621   4.207  18.993   9.103
  725POPC   GL213622   4.503  18.899   8.955
  725POPC   C1A13623   4.073  18.852   8.691
  725POPC   D2A13624   4.336  18.899   8.310
  725POPC   C3A13625   4.331  19.278   8.053
  725POPC   C4A13626   4.189  19.277   7.616
  725POPC   C1B13627   4.726  18.733   8.608
  725POPC   C2B13628   4.456  18.416   8.422
  725POPC   C3B13629   4.321  18.466   8.003
  725POPC   C4B13630   4.391  18.847   7.802
  726POPC   NC313631  32.999   4.772   9.531
  726POPC   PO413632  33.263   5.378   9.596
  726POPC   GL113633  33.262   5.180   9.162
  726POPC   GL213634  33.213   4.807   9.082
  726POPC   C1A13635  33.118   5.138   8.711
  726POPC   D2A13636  33.315   4.985   8.350
  726POPC   C3A13637  33.155   5.030   7.962
  726POPC   C4A13638  33.209   5.352   7.660
  726POPC   C1B13639  32.821   4.724   8.845
  726POPC   C2B13640  32.796   4.729   8.387
  726POPC   C3B13641  32.617   4.751   7.965
  726POPC   C4B13642  32.680   4.869   7.511
  727POPC   NC313643  39.563  42.664   9.801
  727POPC   PO413644  39.278  42.162   9.416
  727POPC   GL113645  39.443  42.288   9.037
  727POPC   GL213646  39.123  42.479   8.946
  727POPC   C1A13647  39.512  42.448   8.631
  727POPC   D2A13648  39.234  42.371   8.323
  727POPC   C3A13649  39.269  42.422   7.943
  727POPC   C4A13650  39.345  42.336   7.544
  727POPC   C1B13651  39.131  42.043   8.707
  727POPC   C2B13652  39.192  41.884   8.265
  727POPC   C3B13653  38.929  42.041   7.970
  727POPC   C4B13654  38.604  41.937   7.728
  728POPC   NC313655  20.016   3.745   9.400
  728POPC   PO413656  19.792   3.079   9.575
  728POPC   GL113657  19.913   3.269   9.152
  728POPC   GL213658  19.660   3.552   9.075
  728POPC   C1A13659  19.986   3.432   8.694
  728POPC   D2A13660  19.693   3.632   8.375
  728POPC   C3A13661  19.845   3.670   7.961
  728POPC   C4A13662  20.165   3.410   7.764
  728POPC   C1B13663  19.410   3.381   8.719
  728POPC   C2B13664  19.331   3.282   8.243
  728POPC   C3B13665  19.489   3.313   7.791
  728POPC   C4B13666  19.509   3.110   7.357
  729POPC   NC313667  25.921  17.287   9.433
  729POPC   PO413668  25.616  17.895   9.497
  729POPC   GL113669  25.695  17.631   9.136
  729POPC   GL213670  26.060  17.705   9.076
  729POPC   C1A13671  25.804  17.446   8.713
  729POPC   D2A13672  25.977  17.582   8.288
  729POPC   C3A13673  25.896  17.335   7.883
  729POPC   C4A13674  25.779  17.399   7.424
  729POPC   C1B13675  26.339  17.550   8.732
  729POPC   C2B13676  26.503  17.243   8.456
  729POPC   C3B13677  26.445  17.438   8.076
  729POPC   C4B13678  26.308  17.586   7.717
  730POPC   NC313679  35.686  44.925   9.804
  730POPC   PO413680  35.256  44.557   9.513
  730POPC   GL113681  35.227  44.709   9.106
  730POPC   GL213682  35.554  44.790   9.156
  730POPC   C1A13683  35.083  44.567   8.702
  730POPC   D2A13684  35.336  44.554   8.344
  730POPC   C3A13685  35.277  44.343   7.942
  730POPC   C4A13686  35.376  44.671   7.712
  730POPC   C1B13687  35.507  44.958   8.755
  730POPC   C2B13688  35.721   0.175   8.451
  730POPC   C3B13689  35.503   0.005   8.104
  730POPC   C4B13690  35.733   0.023   7.751
  731POPC   NC313691  27.118  44.489   9.467
  731POPC   PO413692  26.825  44.956   9.891
  731POPC   GL113693  26.797  44.861   9.376
  731POPC   GL213694  27.158  44.915   9.172
  731POPC   C1A13695  26.768  44.654   8.928
  731POPC   D2A13696  26.969  44.493   8.570
  731POPC   C3A13697  26.780  44.406   8.189
  731POPC   C4A13698  26.736  44.550   7.778
  731POPC   C1B13699  26.991   0.084   8.773
  731POPC   C2B13700  26.827  44.958   8.340
  731POPC   C3B13701  26.765   0.047   7.883
  731POPC   C4B13702  26.498  44.906   7.525
  732POPC   NC313703  21.426  34.077   9.333
  732POPC   PO413704  21.561  33.541   9.574
  732POPC   GL113705  21.699  33.701   9.146
  732POPC   GL213706  21.362  33.661   8.997
  732POPC   C1A13707  21.656  33.946   8.730
  732POPC   D2A13708  21.446  33.698   8.453
  732POPC   C3A13709  21.555  33.927   8.102
  732POPC   C4A13710  21.551  33.884   7.675
  732POPC   C1B13711  21.133  34.006   8.773
  732POPC   C2B13712  21.064  34.030   8.375
  732POPC   C3B13713  21.098  33.760   8.043
  732POPC   C4B13714  21.042  33.929   7.665
  733POPC   NC313715  19.793  38.102   9.268
  733POPC   PO413716  19.380  38.565   9.259
  733POPC   GL113717  19.797  38.643   9.115
  733POPC   GL213718  19.761  38.376   8.856
  733POPC   C1A13719  19.961  38.815   8.726
  733POPC   D2A13720  19.706  38.612   8.390
  733POPC   C3A13721  19.926  38.448   8.031
  733POPC   C4A13722  19.809  38.650   7.631
  733POPC   C1B13723  19.861  38.138   8.479
  733POPC   C2B13724  19.556  38.104   8.171
  733POPC   C3B13725  19.507  38.271   7.785
  733POPC   C4B13726  19.766  38.120   7.451
  734POPC   NC313727  26.783  17.852   9.501
  734POPC   PO413728  26.359  17.370   9.351
  734POPC   GL113729  26.702  17.538   9.119
  734POPC   GL213730  26.669  17.900   8.990
  734POPC   C1A13731  26.883  17.489   8.740
  734POPC   D2A13732  26.768  17.711   8.401
  734POPC   C3A13733  26.967  17.522   8.098
  734POPC   C4A13734  26.841  17.476   7.723
  734POPC   C1B13735  27.071  17.987   8.713
  734POPC   C2B13736  27.202  17.990   8.244
  734POPC   C3B13737  27.014  17.982   7.795
  734POPC   C4B13738  27.020  17.798   7.365
  735POPC   NC313739  15.640  37.582   9.438
  735POPC   PO413740  14.977  37.669   9.510
  735POPC   GL113741  14.954  37.888   9.109
  735POPC   GL213742  15.320  37.816   9.059
  735POPC   C1A13743  15.016  38.001   8.679
  735POPC   D2A13744  15.212  37.767   8.351
  735POPC   C3A13745  15.028  37.666   7.938
  735POPC   C4A13746  15.145  37.782   7.488
  735POPC   C1B13747  15.437  37.512   8.755
  735POPC   C2B13748  15.560  37.384   8.346
  735POPC   C3B13749  15.550  37.576   7.944
  735POPC   C4B13750  15.497  37.407   7.526
  736POPC   NC313751   8.318  11.873   9.467
  736POPC   PO413752   7.693  12.024   9.321
  736POPC   GL113753   8.062  12.139   9.104
  736POPC   GL213754   8.263  12.447   9.176
  736POPC   C1A13755   8.116  11.913   8.747
  736POPC   D2A13756   8.019  12.179   8.442
  736POPC   C3A13757   8.104  11.980   8.076
  736POPC   C4A13758   7.925  11.810   7.718
  736POPC   C1B13759   8.135  12.582   8.765
  736POPC   C2B13760   7.938  12.698   8.401
  736POPC   C3B13761   7.827  12.467   8.069
  736POPC   C4B13762   8.135  12.383   7.780
  737POPC   NC313763  22.028  33.598   9.520
  737POPC   PO413764  22.359  34.185   9.571
  737POPC   GL113765  22.301  33.973   9.188
  737POPC   GL213766  22.497  33.717   9.313
  737POPC   C1A13767  22.110  33.769   8.828
  737POPC   D2A13768  21.968  33.697   8.376
  737POPC   C3A13769  21.990  33.766   7.911
  737POPC   C4A13770  21.979  33.756   7.434
  737POPC   C1B13771  22.607  33.653   8.866
  737POPC   C2B13772  22.472  33.912   8.501
  737POPC   C3B13773  22.435  33.963   8.069
  737POPC   C4B13774  22.439  33.643   7.732
  738POPC   NC313775  44.960   0.687   9.487
  738POPC   PO413776  44.368   0.334   9.492
  738POPC   GL113777  44.605   0.406   9.156
  738POPC   GL213778  44.509   0.734   9.091
  738POPC   C1A13779  44.500   0.293   8.731
  738POPC   D2A13780  44.476   0.584   8.380
  738POPC   C3A13781  44.527   0.368   8.027
  738POPC   C4A13782  44.318   0.188   7.673
  738POPC   C1B13783  44.786   0.707   8.773
  738POPC   C2B13784   0.011   0.423   8.511
  738POPC   C3B13785   0.033   0.310   8.083
  738POPC   C4B13786  44.898   0.601   7.761
  739POPC   NC313787   1.400   9.740   9.911
  739POPC   PO413788   1.955   9.706   9.524
  739POPC   GL113789   1.867   9.705   9.125
  739POPC   GL213790   2.209   9.616   9.059
  739POPC   C1A13791   1.967   9.830   8.694
  739POPC   D2A13792   1.709   9.938   8.404
  739POPC   C3A13793   1.886  10.180   8.082
  739POPC   C4A13794   1.867   9.951   7.699
  739POPC   C1B13795   2.307   9.322   8.739
  739POPC   C2B13796   2.265   9.451   8.314
  739POPC   C3B13797   2.101   9.382   7.889
  739POPC   C4B13798   2.259   9.333   7.463
  740POPC   NC313799  33.244  27.902   9.315
  740POPC   PO413800  33.761  27.507   9.591
  740POPC   GL113801  33.842  27.344   9.164
  740POPC   GL213802  33.767  27.696   9.081
  740POPC   C1A13803  33.811  27.311   8.708
  740POPC   D2A13804  33.610  27.412   8.301
  740POPC   C3A13805  33.753  27.625   7.926
  740POPC   C4A13806  33.858  27.775   7.524
  740POPC   C1B13807  33.677  27.810   8.649
  740POPC   C2B13808  33.576  27.974   8.248
  740POPC   C3B13809  33.296  27.870   7.897
  740POPC   C4B13810  33.273  27.972   7.440
  741POPC   NC313811  15.223  40.089   9.588
  741POPC   PO413812  15.699  40.355   9.422
  741POPC   GL113813  15.519  39.947   9.183
  741POPC   GL213814  15.145  39.876   9.111
  741POPC   C1A13815  15.494  39.676   8.784
  741POPC   D2A13816  15.479  39.487   8.326
  741POPC   C3A13817  15.426  39.757   7.942
  741POPC   C4A13818  15.333  40.210   7.790
  741POPC   C1B13819  14.833  39.591   8.865
  741POPC   C2B13820  14.765  39.419   8.417
  741POPC   C3B13821  14.799  39.522   7.932
  741POPC   C4B13822  14.970  39.863   7.674
  742POPC   NC313823  38.840  37.086   9.249
  742POPC   PO413824  38.913  36.609   9.747
  742POPC   GL113825  38.642  36.601   9.326
  742POPC   GL213826  38.802  36.431   9.048
  742POPC   C1A13827  38.411  36.728   8.887
  742POPC   D2A13828  38.328  36.673   8.412
  742POPC   C3A13829  38.310  36.967   8.046
  742POPC   C4A13830  38.679  37.148   7.818
  742POPC   C1B13831  38.850  36.626   8.648
  742POPC   C2B13832  38.937  36.680   8.252
  742POPC   C3B13833  38.671  36.611   7.903
  742POPC   C4B13834  38.672  36.567   7.475
  743POPC   NC313835  25.833  25.538   9.573
  743POPC   PO413836  26.444  25.226   9.569
  743POPC   GL113837  26.130  25.246   9.248
  743POPC   GL213838  25.757  25.149   9.218
  743POPC   C1A13839  26.172  25.332   8.849
  743POPC   D2A13840  26.338  25.397   8.456
  743POPC   C3A13841  26.088  25.418   8.092
  743POPC   C4A13842  26.223  25.384   7.686
  743POPC   C1B13843  25.757  25.047   8.733
  743POPC   C2B13844  25.700  25.135   8.267
  743POPC   C3B13845  25.860  25.009   7.841
  743POPC   C4B13846  25.738  24.649   7.568
  744POPC   NC313847  35.217  38.667   9.532
  744POPC   PO413848  35.507  38.088   9.495
  744POPC   GL113849  35.417  38.327   9.163
  744POPC   GL213850  35.088  38.267   9.222
  744POPC   C1A13851  35.604  38.267   8.789
  744POPC   D2A13852  35.553  38.063   8.403
  744POPC   C3A13853  35.571  38.387   8.098
  744POPC   C4A13854  35.680  38.562   7.665
  744POPC   C1B13855  35.048  38.525   8.877
  744POPC   C2B13856  35.232  38.508   8.486
  744POPC   C3B13857  35.045  38.523   8.104
  744POPC   C4B13858  35.177  38.491   7.751
  745POPC   NC313859  27.295  18.287   9.925
  745POPC   PO413860  27.870  18.229   9.677
  745POPC   GL113861  27.823  18.193   9.199
  745POPC   GL213862  28.065  17.947   9.084
  745POPC   C1A13863  27.549  18.364   8.823
  745POPC   D2A13864  27.382  18.508   8.416
  745POPC   C3A13865  27.528  18.362   7.992
  745POPC   C4A13866  27.647  18.550   7.591
  745POPC   C1B13867  27.777  17.916   8.738
  745POPC   C2B13868  27.740  17.957   8.283
  745POPC   C3B13869  27.971  18.097   7.900
  745POPC   C4B13870  27.878  18.092   7.454
  746POPC   NC313871  28.633   5.444   9.386
  746POPC   PO413872  28.968   4.913   9.684
  746POPC   GL113873  29.028   5.033   9.257
  746POPC   GL213874  28.959   4.742   9.091
  746POPC   C1A13875  29.146   5.120   8.786
  746POPC   D2A13876  29.248   5.336   8.378
  746POPC   C3A13877  29.170   5.156   7.993
  746POPC   C4A13878  29.165   5.386   7.618
  746POPC   C1B13879  28.694   4.593   8.767
  746POPC   C2B13880  28.830   4.617   8.365
  746POPC   C3B13881  28.637   4.656   7.994
  746POPC   C4B13882  28.874   4.844   7.700
  747POPC   NC313883  17.257  16.928   9.947
  747POPC   PO413884  17.604  16.585   9.458
  747POPC   GL113885  17.524  16.812   9.077
  747POPC   GL213886  17.253  16.548   9.010
  747POPC   C1A13887  17.387  16.870   8.640
  747POPC   D2A13888  17.193  16.959   8.239
  747POPC   C3A13889  17.435  17.050   7.918
  747POPC   C4A13890  17.807  16.846   7.819
  747POPC   C1B13891  17.597  16.393   8.795
  747POPC   C2B13892  17.693  16.548   8.392
  747POPC   C3B13893  17.449  16.534   7.998
  747POPC   C4B13894  17.551  16.474   7.537
  748POPC   NC313895   5.920  39.595   9.498
  748POPC   PO413896   5.728  38.891   9.484
  748POPC   GL113897   5.861  38.982   9.079
  748POPC   GL213898   6.195  38.865   9.174
  748POPC   C1A13899   5.719  39.050   8.630
  748POPC   D2A13900   5.989  38.920   8.288
  748POPC   C3A13901   5.854  38.929   7.873
  748POPC   C4A13902   5.603  39.285   7.716
  748POPC   C1B13903   6.221  39.072   8.734
  748POPC   C2B13904   6.033  39.419   8.456
  748POPC   C3B13905   6.097  39.353   7.999
  748POPC   C4B13906   6.409  39.018   7.888
  749POPC   NC313907   9.414  13.045   9.548
  749POPC   PO413908   9.931  12.531   9.534
  749POPC   GL113909   9.640  12.714   9.211
  749POPC   GL213910   9.673  13.078   9.117
  749POPC   C1A13911   9.612  12.746   8.748
  749POPC   D2A13912   9.855  12.904   8.399
  749POPC   C3A13913   9.698  12.753   8.017
  749POPC   C4A13914   9.939  12.553   7.726
  749POPC   C1B13915   9.645  13.277   8.703
  749POPC   C2B13916   9.540  13.311   8.258
  749POPC   C3B13917   9.624  13.229   7.820
  749POPC   C4B13918   9.588  12.893   7.515
  750POPC   NC313919  43.267   0.566   9.585
  750POPC   PO413920  42.729   0.217   9.357
  750POPC   GL113921  43.004   0.499   9.132
  750POPC   GL213922  43.315   0.292   9.147
  750POPC   C1A13923  43.000   0.691   8.708
  750POPC   D2A13924  43.089   0.650   8.255
  750POPC   C3A13925  42.779   0.572   7.937
  750POPC   C4A13926  42.947   0.467   7.535
  750POPC   C1B13927  43.118   0.177   8.742
  750POPC   C2B13928  43.042   0.005   8.333
  750POPC   C3B13929  43.058   0.123   7.927
  750POPC   C4B13930  43.385   0.178   7.657
  751POPC   NC313931  27.993   8.511   9.526
  751POPC   PO413932  27.495   8.139   9.370
  751POPC   GL113933  27.837   8.143   9.084
  751POPC   GL213934  27.913   8.467   9.037
  751POPC   C1A13935  27.770   8.170   8.630
  751POPC   D2A13936  27.425   8.226   8.320
  751POPC   C3A13937  27.607   8.142   7.916
  751POPC   C4A13938  27.783   7.957   7.534
  751POPC   C1B13939  27.531   8.549   8.827
  751POPC   C2B13940  27.655   8.694   8.434
  751POPC   C3B13941  27.878   8.528   8.133
  751POPC   C4B13942  27.748   8.596   7.744
  752POPC   NC313943  41.623   0.949   9.364
  752POPC   PO413944  42.108   1.202   9.679
  752POPC   GL113945  41.905   1.311   9.193
  752POPC   GL213946  41.628   1.518   9.202
  752POPC   C1A13947  41.818   1.119   8.766
  752POPC   D2A13948  41.593   0.934   8.423
  752POPC   C3A13949  41.735   1.054   8.037
  752POPC   C4A13950  41.380   1.073   7.788
  752POPC   C1B13951  41.634   1.606   8.744
  752POPC   C2B13952  41.533   1.458   8.345
  752POPC   C3B13953  41.425   1.562   7.937
  752POPC   C4B13954  41.226   1.517   7.548
  753POPC   NC313955  12.924  34.777   9.533
  753POPC   PO413956  12.614  34.211   9.410
  753POPC   GL113957  12.693  34.565   9.107
  753POPC   GL213958  13.040  34.568   9.082
  753POPC   C1A13959  12.811  34.793   8.697
  753POPC   D2A13960  12.638  34.802   8.308
  753POPC   C3A13961  12.833  34.802   7.893
  753POPC   C4A13962  12.771  34.377   7.781
  753POPC   C1B13963  13.103  34.397   8.664
  753POPC   C2B13964  13.014  34.453   8.241
  753POPC   C3B13965  13.256  34.443   7.849
  753POPC   C4B13966  13.187  34.224   7.462
  754POPC   NC313967   3.985  41.975   9.549
  754POPC   PO413968   4.417  42.540   9.620
  754POPC   GL113969   4.518  42.500   9.199
  754POPC   GL213970   4.491  42.143   9.144
  754POPC   C1A13971   4.394  42.529   8.754
  754POPC   D2A13972   4.217  42.353   8.333
  754POPC   C3A13973   4.390  42.549   7.944
  754POPC   C4A13974   4.834  42.572   7.819
  754POPC   C1B13975   4.399  41.994   8.717
  754POPC   C2B13976   4.549  41.845   8.315
  754POPC   C3B13977   4.524  41.935   7.866
  754POPC   C4B13978   4.153  42.117   7.804
  755POPC   NC313979  32.575  19.598   9.474
  755POPC   PO413980  32.084  20.009   9.503
  755POPC   GL113981  32.262  20.029   9.137
  755POPC   GL213982  32.579  20.009   9.121
  755POPC   C1A13983  32.214  19.870   8.738
  755POPC   D2A13984  32.055  19.950   8.330
  755POPC   C3A13985  32.231  19.738   7.999
  755POPC   C4A13986  32.280  19.351   7.810
  755POPC   C1B13987  32.524  20.281   8.801
  755POPC   C2B13988  32.594  20.079   8.442
  755POPC   C3B13989  32.642  20.030   8.034
  755POPC   C4B13990  32.453  19.982   7.614
  756POPC   NC313991  30.809  14.461   9.545
  756POPC   PO413992  31.526  14.437   9.486
  756POPC   GL113993  31.344  14.653   9.154
  756POPC   GL213994  31.632  14.784   8.948
  756POPC   C1A13995  31.231  14.534   8.771
  756POPC   D2A13996  31.334  14.248   8.436
  756POPC   C3A13997  31.296  14.514   8.139
  756POPC   C4A13998  31.363  14.518   7.771
  756POPC   C1B13999  31.677  14.312   8.855
  756POPC   C2B14000  31.828  14.162   8.459
  756POPC   C3B14001  31.831  14.294   8.014
  756POPC   C4B14002  31.693  14.135   7.625
  757POPC   NC314003  30.604   8.022   9.529
  757POPC   PO414004  30.756   8.644   9.516
  757POPC   GL114005  30.757   8.369   9.155
  757POPC   GL214006  31.004   8.093   9.135
  757POPC   C1A14007  30.747   8.295   8.708
  757POPC   D2A14008  30.540   8.331   8.325
  757POPC   C3A14009  30.707   8.525   7.980
  757POPC   C4A14010  30.545   8.223   7.733
  757POPC   C1B14011  31.201   8.072   8.696
  757POPC   C2B14012  31.015   8.048   8.270
  757POPC   C3B14013  31.022   7.945   7.824
  757POPC   C4B14014  30.754   7.864   7.435
  758POPC   NC314015  32.649  21.381   9.450
  758POPC   PO414016  33.348  21.139   9.421
  758POPC   GL114017  33.084  21.351   9.173
  758POPC   GL214018  32.901  21.036   9.137
  758POPC   C1A14019  33.081  21.548   8.778
  758POPC   D2A14020  33.314  21.431   8.417
  758POPC   C3A14021  33.077  21.353   8.064
  758POPC   C4A14022  32.917  21.450   7.672
  758POPC   C1B14023  33.201  21.030   8.769
  758POPC   C2B14024  33.561  20.973   8.495
  758POPC   C3B14025  33.590  21.135   8.071
  758POPC   C4B14026  33.343  21.130   7.689
  759POPC   NC314027  41.538  44.198   9.526
  759POPC   PO414028  41.365  44.840   9.436
  759POPC   GL114029  41.550  44.528   9.130
  759POPC   GL214030  41.825  44.688   9.023
  759POPC   C1A14031  41.665  44.395   8.667
  759POPC   D2A14032  41.468  44.343   8.252
  759POPC   C3A14033  41.632  44.474   7.853
  759POPC   C4A14034  41.325  44.512   7.516
  759POPC   C1B14035  41.500  44.886   8.752
  759POPC   C2B14036  41.526  44.858   8.308
  759POPC   C3B14037  41.306  44.860   7.916
  759POPC   C4B14038  41.422   0.123   7.569
  760POPC   NC314039  39.095  35.588   9.510
  760POPC   PO414040  39.617  35.143   9.569
  760POPC   GL114041  39.533  35.134   9.136
  760POPC   GL214042  39.432  35.485   9.117
  760POPC   C1A14043  39.369  35.212   8.704
  760POPC   D2A14044  39.175  35.434   8.381
  760POPC   C3A14045  39.331  35.367   7.985
  760POPC   C4A14046  39.591  35.075   7.823
  760POPC   C1B14047  39.071  35.627   8.853
  760POPC   C2B14048  38.920  35.861   8.499
  760POPC   C3B14049  39.015  35.811   8.062
  760POPC   C4B14050  38.869  35.488   7.784
  761POPC   NC314051   9.154  23.793   9.501
  761POPC   PO414052   8.534  23.894   9.484
  761POPC   GL114053   8.811  23.815   9.133
  761POPC   GL214054   8.980  23.475   9.148
  761POPC   C1A14055   8.916  23.885   8.724
  761POPC   D2A14056   8.970  23.618   8.415
  761POPC   C3A14057   9.087  23.823   8.085
  761POPC   C4A14058   8.948  24.077   7.781
  761POPC   C1B14059   9.299  23.576   8.835
  761POPC   C2B14060   9.466  23.485   8.406
  761POPC   C3B14061   9.236  23.337   8.059
  761POPC   C4B14062   9.107  23.548   7.648
  762POPC   NC314063  40.458  32.184   9.423
  762POPC   PO414064  40.902  32.698   9.439
  762POPC   GL114065  40.876  32.381   9.164
  762POPC   GL214066  41.075  32.120   9.289
  762POPC   C1A14067  40.627  32.248   8.809
  762POPC   D2A14068  40.717  32.050   8.443
  762POPC   C3A14069  40.503  32.251   8.114
  762POPC   C4A14070  40.579  32.411   7.726
  762POPC   C1B14071  41.085  32.038   8.841
  762POPC   C2B14072  41.211  32.254   8.461
  762POPC   C3B14073  41.030  32.138   8.054
  762POPC   C4B14074  41.228  32.049   7.655
  763POPC   NC314075   7.390   4.000   9.599
  763POPC   PO414076   7.067   4.674   9.606
  763POPC   GL114077   7.439   4.469   9.310
  763POPC   GL214078   7.408   4.135   9.116
  763POPC   C1A14079   7.517   4.557   8.837
  763POPC   D2A14080   7.399   4.694   8.372
  763POPC   C3A14081   7.418   4.451   7.957
  763POPC   C4A14082   7.275   4.105   7.684
  763POPC   C1B14083   7.628   4.051   8.726
  763POPC   C2B14084   7.822   4.056   8.337
  763POPC   C3B14085   7.701   3.959   7.951
  763POPC   C4B14086   7.782   4.117   7.561
  764POPC   NC314087   0.472   3.956   9.498
  764POPC   PO414088   0.058   4.459   9.480
  764POPC   GL114089   0.437   4.426   9.264
  764POPC   GL214090   0.251   4.142   9.086
  764POPC   C1A14091   0.586   4.442   8.861
  764POPC   D2A14092   0.349   4.386   8.491
  764POPC   C3A14093   0.679   4.280   8.185
  764POPC   C4A14094   0.637   4.042   7.788
  764POPC   C1B14095   0.516   3.932   8.779
  764POPC   C2B14096   0.303   3.903   8.404
  764POPC   C3B14097   0.212   4.147   8.041
  764POPC   C4B14098   0.124   3.942   7.673
  765POPC   NC314099  36.961  22.266   9.588
  765POPC   PO414100  37.303  21.648   9.576
  765POPC   GL114101  37.213  22.004   9.258
  765POPC   GL214102  36.836  22.042   9.146
  765POPC   C1A14103  37.214  22.269   8.907
  765POPC   D2A14104  37.053  22.224   8.520
  765POPC   C3A14105  37.185  22.096   8.122
  765POPC   C4A14106  37.088  21.977   7.741
  765POPC   C1B14107  36.653  22.342   8.849
  765POPC   C2B14108  36.638  22.516   8.428
  765POPC   C3B14109  36.817  22.448   8.019
  765POPC   C4B14110  36.767  22.329   7.591
  766POPC   NC314111  20.867  18.848   9.596
  766POPC   PO414112  20.296  18.651   9.450
  766POPC   GL114113  20.461  18.845   9.060
  766POPC   GL214114  20.785  19.015   9.112
  766POPC   C1A14115  20.376  19.161   8.703
  766POPC   D2A14116  20.418  19.234   8.245
  766POPC   C3A14117  20.600  18.941   8.007
  766POPC   C4A14118  20.393  18.828   7.654
  766POPC   C1B14119  20.828  19.389   8.839
  766POPC   C2B14120  20.963  19.334   8.402
  766POPC   C3B14121  20.907  19.350   7.940
  766POPC   C4B14122  20.745  19.167   7.537
  767POPC   NC314123  39.807  10.869   9.491
  767POPC   PO414124  39.190  10.520   9.444
  767POPC   GL114125  39.173  10.467   9.042
  767POPC   GL214126  39.522  10.435   9.050
  767POPC   C1A14127  39.163  10.366   8.611
  767POPC   D2A14128  38.948  10.250   8.229
  767POPC   C3A14129  39.194  10.273   7.820
  767POPC   C4A14130  39.063  10.506   7.424
  767POPC   C1B14131  39.466  10.756   8.708
  767POPC   C2B14132  39.495  10.610   8.269
  767POPC   C3B14133  39.367  10.772   7.869
  767POPC   C4B14134  39.466  10.809   7.426
  768POPC   NC314135   8.818  44.361   9.576
  768POPC   PO414136   9.036  44.878   9.820
  768POPC   GL114137   9.016  44.722   9.269
  768POPC   GL214138   9.144  44.418   9.167
  768POPC   C1A14139   8.885  44.669   8.810
  768POPC   D2A14140   8.907  44.895   8.429
  768POPC   C3A14141   8.852  44.720   8.024
  768POPC   C4A14142   8.945  44.961   7.683
  768POPC   C1B14143   9.083  44.197   8.763
  768POPC   C2B14144   9.068  44.363   8.330
  768POPC   C3B14145   9.214  44.359   7.900
  768POPC   C4B14146   8.977  44.392   7.558
  769POPC   NC314147   3.171  21.865   9.385
  769POPC   PO414148   3.476  21.273   9.576
  769POPC   GL114149   3.409  21.203   9.184
  769POPC   GL214150   3.351  20.877   9.172
  769POPC   C1A14151   3.462  21.356   8.773
  769POPC   D2A14152   3.420  21.711   8.457
  769POPC   C3A14153   3.583  21.625   8.055
  769POPC   C4A14154   3.373  21.511   7.693
  769POPC   C1B14155   3.642  20.873   8.849
  769POPC   C2B14156   3.713  21.070   8.441
  769POPC   C3B14157   3.407  21.153   8.142
  769POPC   C4B14158   3.515  21.039   7.755
  770POPC   NC314159  39.776  27.567   9.509
  770POPC   PO414160  40.292  27.836   9.651
  770POPC   GL114161  40.232  27.636   9.203
  770POPC   GL214162  39.963  27.408   9.086
  770POPC   C1A14163  40.109  27.706   8.740
  770POPC   D2A14164  40.268  27.653   8.349
  770POPC   C3A14165  39.953  27.805   8.066
  770POPC   C4A14166  39.823  27.675   7.648
  770POPC   C1B14167  39.754  27.216   8.791
  770POPC   C2B14168  39.774  27.441   8.428
  770POPC   C3B14169  39.610  27.411   8.049
  770POPC   C4B14170  39.718  27.162   7.704
  771POPC   NC314171  27.022  34.032   9.428
  771POPC   PO414172  26.490  33.562   9.386
  771POPC   GL114173  26.698  33.812   9.057
  771POPC   GL214174  27.070  33.724   9.010
  771POPC   C1A14175  26.771  33.839   8.598
  771POPC   D2A14176  27.118  33.660   8.380
  771POPC   C3A14177  26.924  33.728   8.011
  771POPC   C4A14178  26.633  34.072   7.903
  771POPC   C1B14179  27.179  34.072   8.735
  771POPC   C2B14180  27.050  34.184   8.257
  771POPC   C3B14181  27.113  34.114   7.763
  771POPC   C4B14182  27.233  34.043   7.329
  772POPC   NC314183  15.129  20.102   9.457
  772POPC   PO414184  15.048  19.434   9.435
  772POPC   GL114185  15.305  19.680   9.080
  772POPC   GL214186  15.257  20.040   8.984
  772POPC   C1A14187  15.367  19.701   8.604
  772POPC   D2A14188  15.038  19.676   8.258
  772POPC   C3A14189  15.045  19.427   7.832
  772POPC   C4A14190  14.865  19.636   7.459
  772POPC   C1B14191  15.401  20.221   8.613
  772POPC   C2B14192  15.348  20.076   8.208
  772POPC   C3B14193  15.266  19.867   7.820
  772POPC   C4B14194  15.237  19.985   7.405
  773POPC   NC314195   8.633  37.038   9.607
  773POPC   PO414196   9.154  36.711   9.565
  773POPC   GL114197   8.975  36.851   9.208
  773POPC   GL214198   9.257  37.050   9.132
  773POPC   C1A14199   8.806  36.734   8.792
  773POPC   D2A14200   8.555  36.967   8.485
  773POPC   C3A14201   8.678  36.969   8.079
  773POPC   C4A14202   8.894  37.122   7.704
  773POPC   C1B14203   9.312  36.827   8.755
  773POPC   C2B14204   9.089  36.886   8.378
  773POPC   C3B14205   9.146  36.712   7.975
  773POPC   C4B14206   9.501  36.787   7.709
  774POPC   NC314207   1.553  13.266   9.390
  774POPC   PO414208   2.210  13.265   9.366
  774POPC   GL114209   2.050  13.618   9.082
  774POPC   GL214210   1.767  13.841   9.126
  774POPC   C1A14211   2.030  13.700   8.644
  774POPC   D2A14212   1.786  13.711   8.264
  774POPC   C3A14213   2.049  13.493   7.965
  774POPC   C4A14214   2.370  13.766   7.862
  774POPC   C1B14215   1.609  13.997   8.705
  774POPC   C2B14216   1.672  14.209   8.315
  774POPC   C3B14217   1.761  14.047   7.863
  774POPC   C4B14218   1.507  13.942   7.476
  775POPC   NC314219  36.815  38.461   9.437
  775POPC   PO414220  37.419  38.409   9.512
  775POPC   GL114221  37.201  38.276   9.109
  775POPC   GL214222  36.889  38.061   9.108
  775POPC   C1A14223  36.882  38.427   8.741
  775POPC   D2A14224  36.450  38.472   8.511
  775POPC   C3A14225  36.520  38.451   8.059
  775POPC   C4A14226  36.965  38.525   7.861
  775POPC   C1B14227  37.129  37.963   8.718
  775POPC   C2B14228  37.378  38.197   8.431
  775POPC   C3B14229  37.422  38.275   7.994
  775POPC   C4B14230  37.199  38.167   7.589
  776POPC   NC314231  40.412  28.224   9.437
  776POPC   PO414232  39.736  28.097   9.312
  776POPC   GL114233  39.974  28.382   9.125
  776POPC   GL214234  40.177  28.123   9.012
  776POPC   C1A14235  39.899  28.487   8.694
  776POPC   D2A14236  39.941  28.318   8.269
  776POPC   C3A14237  39.870  28.623   7.928
  776POPC   C4A14238  39.858  28.522   7.511
  776POPC   C1B14239  40.292  28.156   8.611
  776POPC   C2B14240  40.431  28.114   8.207
  776POPC   C3B14241  40.213  28.238   7.832
  776POPC   C4B14242  40.357  28.557   7.542
  777POPC   NC314243  32.440  11.462   9.509
  777POPC   PO414244  31.937  10.945   9.589
  777POPC   GL114245  32.085  11.088   9.174
  777POPC   GL214246  32.410  11.207   9.090
  777POPC   C1A14247  32.167  10.999   8.719
  777POPC   D2A14248  32.432  11.197   8.442
  777POPC   C3A14249  32.296  11.035   8.114
  777POPC   C4A14250  32.381  11.062   7.718
  777POPC   C1B14251  32.193  11.513   8.829
  777POPC   C2B14252  32.341  11.720   8.447
  777POPC   C3B14253  32.436  11.763   8.025
  777POPC   C4B14254  32.428  11.554   7.644
  778POPC   NC314255  30.489  36.747   9.489
  778POPC   PO414256  31.248  36.711   9.546
  778POPC   GL114257  31.051  36.844   9.159
  778POPC   GL214258  30.825  37.115   9.080
  778POPC   C1A14259  30.917  36.782   8.716
  778POPC   D2A14260  30.576  36.760   8.428
  778POPC   C3A14261  30.645  36.772   7.992
  778POPC   C4A14262  30.976  36.928   7.790
  778POPC   C1B14263  30.653  37.256   8.641
  778POPC   C2B14264  30.406  37.188   8.223
  778POPC   C3B14265  30.555  37.255   7.771
  778POPC   C4B14266  30.678  37.357   7.302
  779POPC   NC314267   7.621  37.169   9.722
  779POPC   PO414268   7.719  36.497   9.515
  779POPC   GL114269   7.545  36.695   9.158
  779POPC   GL214270   7.541  37.044   9.177
  779POPC   C1A14271   7.735  36.815   8.758
  779POPC   D2A14272   7.481  36.765   8.405
  779POPC   C3A14273   7.740  36.721   8.076
  779POPC   C4A14274   7.611  36.943   7.728
  779POPC   C1B14275   7.262  37.022   8.797
  779POPC   C2B14276   7.174  37.229   8.384
  779POPC   C3B14277   7.182  37.233   7.891
  779POPC   C4B14278   7.052  37.346   7.459
  780POPC   NC314279  33.777  22.494   9.334
  780POPC   PO414280  33.987  23.090   9.441
  780POPC   GL114281  33.879  23.010   9.017
  780POPC   GL214282  34.151  22.763   9.054
  780POPC   C1A14283  33.503  22.914   8.676
  780POPC   D2A14284  33.356  22.713   8.250
  780POPC   C3A14285  33.428  22.944   7.890
  780POPC   C4A14286  33.821  23.034   7.718
  780POPC   C1B14287  33.926  22.634   8.684
  780POPC   C2B14288  33.832  22.865   8.270
  780POPC   C3B14289  33.837  22.566   7.919
  780POPC   C4B14290  33.883  22.611   7.439
  781POPC   NC314291  40.580  33.749   9.457
  781POPC   PO414292  41.265  33.629   9.479
  781POPC   GL114293  41.178  33.769   9.093
  781POPC   GL214294  40.875  33.972   9.107
  781POPC   C1A14295  41.146  33.919   8.691
  781POPC   D2A14296  40.891  33.779   8.412
  781POPC   C3A14297  41.012  33.963   8.087
  781POPC   C4A14298  40.939  33.723   7.737
  781POPC   C1B14299  40.595  34.005   8.760
  781POPC   C2B14300  40.521  34.117   8.316
  781POPC   C3B14301  40.540  33.786   8.017
  781POPC   C4B14302  40.370  33.731   7.638
  782POPC   NC314303  19.434   6.210   9.934
  782POPC   PO414304  18.903   6.461   9.549
  782POPC   GL114305  18.847   6.665   9.151
  782POPC   GL214306  18.893   7.024   9.203
  782POPC   C1A14307  19.022   6.570   8.741
  782POPC   D2A14308  18.992   6.394   8.325
  782POPC   C3A14309  19.217   6.561   7.968
  782POPC   C4A14310  19.081   6.343   7.577
  782POPC   C1B14311  18.867   7.053   8.767
  782POPC   C2B14312  18.994   6.929   8.357
  782POPC   C3B14313  18.757   6.763   8.014
  782POPC   C4B14314  18.784   6.745   7.558
  783POPC   NC314315  20.965  41.758   9.405
  783POPC   PO414316  21.583  41.351   9.548
  783POPC   GL114317  21.399  41.400   9.172
  783POPC   GL214318  21.071  41.193   9.218
  783POPC   C1A14319  21.514  41.535   8.756
  783POPC   D2A14320  21.582  41.310   8.391
  783POPC   C3A14321  21.629  41.577   8.041
  783POPC   C4A14322  21.664  41.386   7.663
  783POPC   C1B14323  21.002  41.417   8.841
  783POPC   C2B14324  21.034  41.365   8.447
  783POPC   C3B14325  21.090  41.628   8.146
  783POPC   C4B14326  21.240  41.736   7.761
  784POPC   NC314327  20.340  21.048   9.244
  784POPC   PO414328  20.997  20.915   9.395
  784POPC   GL114329  20.712  20.707   9.111
  784POPC   GL214330  20.650  20.362   9.152
  784POPC   C1A14331  20.769  20.582   8.684
  784POPC   D2A14332  20.942  20.756   8.332
  784POPC   C3A14333  20.664  20.711   8.002
  784POPC   C4A14334  20.771  20.920   7.635
  784POPC   C1B14335  20.495  20.162   8.765
  784POPC   C2B14336  20.600  20.135   8.315
  784POPC   C3B14337  20.480  20.204   7.891
  784POPC   C4B14338  20.537  20.461   7.541
  785POPC   NC314339  36.445  16.953   9.423
  785POPC   PO414340  36.215  16.359   9.373
  785POPC   GL114341  35.981  16.611   9.080
  785POPC   GL214342  36.069  16.948   9.066
  785POPC   C1A14343  35.965  16.560   8.674
  785POPC   D2A14344  36.264  16.535   8.354
  785POPC   C3A14345  36.027  16.512   7.993
  785POPC   C4A14346  36.170  16.435   7.613
  785POPC   C1B14347  35.837  17.058   8.710
  785POPC   C2B14348  35.946  16.954   8.301
  785POPC   C3B14349  35.831  17.079   7.921
  785POPC   C4B14350  35.858  16.850   7.617
  786POPC   NC314351  17.294  30.343   9.520
  786POPC   PO414352  17.836  30.874   9.477
  786POPC   GL114353  17.592  30.642   9.177
  786POPC   GL214354  17.346  30.838   8.982
  786POPC   C1A14355  17.618  30.471   8.754
  786POPC   D2A14356  17.788  30.580   8.343
  786POPC   C3A14357  17.480  30.586   7.993
  786POPC   C4A14358  17.100  30.734   7.850
  786POPC   C1B14359  17.738  30.965   8.753
  786POPC   C2B14360  17.788  31.088   8.307
  786POPC   C3B14361  17.886  30.870   7.917
  786POPC   C4B14362  17.525  31.010   7.683
  787POPC   NC314363  39.541  36.869   9.418
  787POPC   PO414364  40.215  37.089   9.520
  787POPC   GL114365  40.061  36.892   9.117
  787POPC   GL214366  39.754  36.755   8.975
  787POPC   C1A14367  40.190  36.710   8.701
  787POPC   D2A14368  39.905  36.721   8.341
  787POPC   C3A14369  39.941  36.788   7.885
  787POPC   C4A14370  40.336  36.849   7.619
  787POPC   C1B14371  39.779  37.035   8.724
  787POPC   C2B14372  40.046  37.240   8.491
  787POPC   C3B14373  40.070  37.265   8.048
  787POPC   C4B14374  39.969  37.218   7.607
  788POPC   NC314375   6.006  25.036   9.551
  788POPC   PO414376   5.891  25.661   9.505
  788POPC   GL114377   6.092  25.431   9.205
  788POPC   GL214378   5.800  25.265   9.129
  788POPC   C1A14379   6.159  25.259   8.771
  788POPC   D2A14380   6.046  25.062   8.387
  788POPC   C3A14381   6.105  25.179   7.954
  788POPC   C4A14382   5.952  25.527   7.729
  788POPC   C1B14383   5.651  25.272   8.724
  788POPC   C2B14384   5.517  25.388   8.326
  788POPC   C3B14385   5.585  25.195   7.930
  788POPC   C4B14386   5.383  25.090   7.536
  789POPC   NC314387  44.599   7.816   9.832
  789POPC   PO414388  44.486   8.419   9.440
  789POPC   GL114389  44.781   8.207   9.128
  789POPC   GL214390  44.919   7.817   9.087
  789POPC   C1A14391  44.679   8.093   8.733
  789POPC   D2A14392  44.571   8.202   8.361
  789POPC   C3A14393  44.559   7.890   8.100
  789POPC   C4A14394  44.379   7.952   7.723
  789POPC   C1B14395   0.174   8.045   8.810
  789POPC   C2B14396   0.087   8.302   8.489
  789POPC   C3B14397   0.023   8.123   8.124
  789POPC   C4B14398  44.846   8.126   7.733
  790POPC   NC314399  23.225  16.977   9.375
  790POPC   PO414400  22.594  16.573   9.432
  790POPC   GL114401  22.852  16.717   9.143
  790POPC   GL214402  23.143  16.518   9.098
  790POPC   C1A14403  22.878  16.810   8.725
  790POPC   D2A14404  22.749  17.018   8.344
  790POPC   C3A14405  22.910  16.889   7.990
  790POPC   C4A14406  22.764  16.715   7.598
  790POPC   C1B14407  23.294  16.358   8.721
  790POPC   C2B14408  23.152  16.580   8.349
  790POPC   C3B14409  23.027  16.409   7.962
  790POPC   C4B14410  23.173  16.438   7.539
  791POPC   NC314411  11.124   0.984   9.879
  791POPC   PO414412  11.650   1.317   9.597
  791POPC   GL114413  11.558   1.476   9.191
  791POPC   GL214414  11.750   1.193   9.081
  791POPC   C1A14415  11.227   1.420   8.855
  791POPC   D2A14416  11.103   1.175   8.460
  791POPC   C3A14417  10.993   1.335   8.034
  791POPC   C4A14418  10.940   0.995   7.730
  791POPC   C1B14419  11.713   1.356   8.709
  791POPC   C2B14420  11.499   1.504   8.398
  791POPC   C3B14421  11.506   1.347   8.018
  791POPC   C4B14422  11.398   1.241   7.634
  792POPC   NC314423  17.298  21.530   9.383
  792POPC   PO414424  16.568  21.570   9.433
  792POPC   GL114425  16.680  21.215   9.143
  792POPC   GL214426  17.019  21.047   9.180
  792POPC   C1A14427  16.554  21.323   8.732
  792POPC   D2A14428  16.539  21.757   8.567
  792POPC   C3A14429  16.607  21.742   8.126
  792POPC   C4A14430  16.929  21.580   7.875
  792POPC   C1B14431  17.073  21.153   8.718
  792POPC   C2B14432  17.159  21.005   8.261
  792POPC   C3B14433  17.020  21.085   7.801
  792POPC   C4B14434  17.095  20.977   7.345
  793POPC   NC314435  37.278  15.543   9.634
  793POPC   PO414436  36.895  14.878   9.647
  793POPC   GL114437  36.981  14.962   9.142
  793POPC   GL214438  37.165  15.308   9.084
  793POPC   C1A14439  36.775  15.075   8.790
  793POPC   D2A14440  36.639  15.085   8.377
  793POPC   C3A14441  36.917  15.228   8.051
  793POPC   C4A14442  36.700  15.041   7.718
  793POPC   C1B14443  37.310  15.070   8.768
  793POPC   C2B14444  37.335  15.229   8.383
  793POPC   C3B14445  37.383  14.945   8.064
  793POPC   C4B14446  37.213  14.947   7.659
  794POPC   NC314447   9.619  11.408   9.574
  794POPC   PO414448   9.607  10.777   9.628
  794POPC   GL114449   9.490  11.053   9.234
  794POPC   GL214450   9.842  11.161   9.154
  794POPC   C1A14451   9.497  11.266   8.811
  794POPC   D2A14452   9.672  11.123   8.454
  794POPC   C3A14453   9.544  11.269   8.058
  794POPC   C4A14454   9.790  11.177   7.692
  794POPC   C1B14455   9.972  11.420   8.743
  794POPC   C2B14456   9.863  11.593   8.291
  794POPC   C3B14457   9.966  11.639   7.828
  794POPC   C4B14458  10.047  11.482   7.364
  795POPC   NC314459  13.199  32.493   9.244
  795POPC   PO414460  12.832  31.946   9.463
  795POPC   GL114461  12.768  32.208   9.115
  795POPC   GL214462  12.487  32.445   9.062
  795POPC   C1A14463  12.588  32.066   8.750
  795POPC   D2A14464  12.429  32.156   8.351
  795POPC   C3A14465  12.793  32.051   8.080
  795POPC   C4A14466  13.015  32.249   7.755
  795POPC   C1B14467  12.789  32.522   8.717
  795POPC   C2B14468  12.893  32.537   8.304
  795POPC   C3B14469  12.605  32.516   7.999
  795POPC   C4B14470  12.617  32.535   7.556
  796POPC   NC314471  10.386  32.780   9.498
  796POPC   PO414472  10.984  33.058   9.575
  796POPC   GL114473  10.738  32.989   9.175
  796POPC   GL214474  10.433  33.172   9.137
  796POPC   C1A14475  10.669  32.948   8.711
  796POPC   D2A14476  10.413  32.796   8.358
  796POPC   C3A14477  10.603  32.869   7.970
  796POPC   C4A14478  10.645  33.124   7.618
  796POPC   C1B14479  10.180  33.031   8.761
  796POPC   C2B14480  10.063  33.234   8.398
  796POPC   C3B14481  10.339  33.352   8.086
  796POPC   C4B14482  10.157  33.137   7.795
  797POPC   NC314483  22.441  15.707   9.310
  797POPC   PO414484  21.820  15.987   9.412
  797POPC   GL114485  22.036  15.985   9.041
  797POPC   GL214486  22.327  16.190   9.111
  797POPC   C1A14487  21.863  16.011   8.621
  797POPC   D2A14488  21.628  15.777   8.283
  797POPC   C3A14489  21.736  15.852   7.830
  797POPC   C4A14490  21.932  16.102   7.425
  797POPC   C1B14491  22.466  15.919   8.730
  797POPC   C2B14492  22.277  15.773   8.400
  797POPC   C3B14493  22.095  16.051   8.140
  797POPC   C4B14494  22.250  15.910   7.771
  798POPC   NC314495  34.261   9.387   9.472
  798POPC   PO414496  34.798   9.772   9.515
  798POPC   GL114497  34.551   9.719   9.165
  798POPC   GL214498  34.656  10.019   9.031
  798POPC   C1A14499  34.383   9.681   8.748
  798POPC   D2A14500  34.485   9.411   8.402
  798POPC   C3A14501  34.564   9.653   8.093
  798POPC   C4A14502  34.277   9.757   7.835
  798POPC   C1B14503  34.831  10.202   8.683
  798POPC   C2B14504  34.913  10.038   8.300
  798POPC   C3B14505  34.690  10.124   7.933
  798POPC   C4B14506  34.620   9.969   7.561
  799POPC   NC314507  34.765  26.504   9.749
  799POPC   PO414508  34.194  26.826   9.525
  799POPC   GL114509  34.568  26.812   9.304
  799POPC   GL214510  34.341  26.672   9.052
  799POPC   C1A14511  34.737  26.930   8.885
  799POPC   D2A14512  34.497  26.852   8.524
  799POPC   C3A14513  34.626  27.037   8.157
  799POPC   C4A14514  34.777  26.800   7.837
  799POPC   C1B14515  34.255  27.124   8.886
  799POPC   C2B14516  34.283  27.305   8.458
  799POPC   C3B14517  34.186  27.277   8.031
  799POPC   C4B14518  34.233  26.906   7.762
  800POPC   NC314519  34.292  29.084   9.589
  800POPC   PO414520  34.818  29.492   9.666
  800POPC   GL114521  34.668  29.250   9.256
  800POPC   GL214522  34.782  28.885   9.192
  800POPC   C1A14523  34.487  29.090   8.840
  800POPC   D2A14524  34.593  29.273   8.431
  800POPC   C3A14525  34.473  29.078   8.056
  800POPC   C4A14526  34.549  29.243   7.655
  800POPC   C1B14527  34.958  28.891   8.725
  800POPC   C2B14528  34.932  28.922   8.248
  800POPC   C3B14529  35.023  28.956   7.794
  800POPC   C4B14530  34.871  28.932   7.356
  801POPC   NC314531  21.708  22.479   9.327
  801POPC   PO414532  22.200  22.094   9.581
  801POPC   GL114533  22.251  21.945   9.170
  801POPC   GL214534  21.903  21.976   9.139
  801POPC   C1A14535  22.186  21.783   8.743
  801POPC   D2A14536  22.387  21.839   8.326
  801POPC   C3A14537  22.216  22.191   8.108
  801POPC   C4A14538  21.926  22.128   7.748
  801POPC   C1B14539  21.955  22.241   8.770
  801POPC   C2B14540  21.914  22.535   8.429
  801POPC   C3B14541  21.951  22.623   8.015
  801POPC   C4B14542  21.790  22.613   7.623
  802POPC   NC314543  43.281   5.218   9.475
  802POPC   PO414544  42.762   5.328   9.273
  802POPC   GL114545  43.141   5.192   8.984
  802POPC   GL214546  43.454   4.956   9.040
  802POPC   C1A14547  43.480   5.349   8.715
  802POPC   D2A14548  43.606   5.301   8.282
  802POPC   C3A14549  43.253   5.112   8.016
  802POPC   C4A14550  43.248   5.050   7.537
  802POPC   C1B14551  43.500   4.838   8.585
  802POPC   C2B14552  43.281   4.646   8.238
  802POPC   C3B14553  43.361   4.637   7.817
  802POPC   C4B14554  43.117   4.574   7.451
  803POPC   NC314555  10.735  20.106   9.616
  803POPC   PO414556  10.111  20.000   9.456
  803POPC   GL114557  10.473  19.912   9.181
  803POPC   GL214558  10.648  20.186   9.138
  803POPC   C1A14559  10.676  19.815   8.787
  803POPC   D2A14560  10.466  19.767   8.404
  803POPC   C3A14561  10.633  19.891   8.037
  803POPC   C4A14562  10.519  20.052   7.702
  803POPC   C1B14563  10.894  20.298   8.822
  803POPC   C2B14564  10.741  20.230   8.425
  803POPC   C3B14565  10.841  20.375   8.036
  803POPC   C4B14566  10.949  20.298   7.645
  804POPC   NC314567  20.356  31.629   9.409
  804POPC   PO414568  21.049  31.411   9.638
  804POPC   GL114569  20.997  31.309   9.194
  804POPC   GL214570  20.658  31.333   9.142
  804POPC   C1A14571  20.930  31.493   8.750
  804POPC   D2A14572  20.659  31.558   8.413
  804POPC   C3A14573  20.825  31.415   8.014
  804POPC   C4A14574  20.787  31.497   7.577
  804POPC   C1B14575  20.435  31.197   8.811
  804POPC   C2B14576  20.236  31.064   8.488
  804POPC   C3B14577  20.366  31.233   8.132
  804POPC   C4B14578  20.358  31.271   7.718
  805POPC   NC314579  17.282  37.759   9.345
  805POPC   PO414580  16.678  37.822   9.250
  805POPC   GL114581  16.667  37.553   8.923
  805POPC   GL214582  16.461  37.247   8.895
  805POPC   C1A14583  16.468  37.706   8.531
  805POPC   D2A14584  16.617  38.009   8.217
  805POPC   C3A14585  16.985  37.849   7.994
  805POPC   C4A14586  17.122  37.517   7.713
  805POPC   C1B14587  16.749  37.290   8.513
  805POPC   C2B14588  16.717  37.419   8.061
  805POPC   C3B14589  16.792  37.115   7.719
  805POPC   C4B14590  16.673  37.120   7.266
  806POPC   NC314591  13.769   1.425   9.241
  806POPC   PO414592  13.791   2.026   9.624
  806POPC   GL114593  13.622   1.911   9.241
  806POPC   GL214594  13.976   1.939   9.121
  806POPC   C1A14595  13.455   2.107   8.870
  806POPC   D2A14596  13.403   1.957   8.450
  806POPC   C3A14597  13.512   2.120   8.057
  806POPC   C4A14598  13.534   1.952   7.616
  806POPC   C1B14599  13.867   1.848   8.693
  806POPC   C2B14600  13.839   1.715   8.259
  806POPC   C3B14601  13.960   1.932   7.881
  806POPC   C4B14602  14.065   2.202   7.520
  807POPC   NC314603  31.185  31.615   9.476
  807POPC   PO414604  31.893  31.689   9.490
  807POPC   GL114605  31.634  31.496   9.190
  807POPC   GL214606  31.489  31.804   9.102
  807POPC   C1A14607  31.360  31.174   8.961
  807POPC   D2A14608  31.163  31.155   8.561
  807POPC   C3A14609  31.461  31.252   8.246
  807POPC   C4A14610  31.406  31.424   7.814
  807POPC   C1B14611  31.472  31.616   8.682
  807POPC   C2B14612  31.463  31.758   8.252
  807POPC   C3B14613  31.160  31.857   7.947
  807POPC   C4B14614  31.073  31.740   7.527
  808POPC   NC314615   6.622   0.076   9.655
  808POPC   PO414616   6.497   0.742   9.507
  808POPC   GL114617   6.618   0.392   9.219
  808POPC   GL214618   6.835   0.650   9.072
  808POPC   C1A14619   6.509   0.063   8.864
  808POPC   D2A14620   6.204   0.121   8.512
  808POPC   C3A14621   6.283   0.064   8.049
  808POPC   C4A14622   6.416   0.195   7.613
  808POPC   C1B14623   6.665   0.490   8.694
  808POPC   C2B14624   6.703   0.174   8.365
  808POPC   C3B14625   6.676   0.422   8.008
  808POPC   C4B14626   6.863   0.500   7.628
  809POPC   NC314627  44.315   8.929   9.496
  809POPC   PO414628  44.985   9.014   9.533
  809POPC   GL114629  44.721   9.074   9.201
  809POPC   GL214630  44.705   8.760   9.152
  809POPC   C1A14631  44.517   9.077   8.808
  809POPC   D2A14632  44.568   9.291   8.440
  809POPC   C3A14633  44.779   9.093   8.144
  809POPC   C4A14634  44.690   8.961   7.767
  809POPC   C1B14635  44.921   8.645   8.831
  809POPC   C2B14636  44.750   8.699   8.451
  809POPC   C3B14637  44.746   8.552   8.039
  809POPC   C4B14638  44.359   8.447   7.821
  810POPC   NC314639  36.572  41.830   9.688
  810POPC   PO414640  37.215  41.615   9.496
  810POPC   GL114641  36.979  41.713   9.080
  810POPC   GL214642  36.600  41.755   9.018
  810POPC   C1A14643  36.909  41.697   8.619
  810POPC   D2A14644  36.911  41.395   8.288
  810POPC   C3A14645  36.837  41.554   7.880
  810POPC   C4A14646  36.855  41.497   7.441
  810POPC   C1B14647  36.518  41.371   8.758
  810POPC   C2B14648  36.467  41.150   8.362
  810POPC   C3B14649  36.588  41.096   7.959
  810POPC   C4B14650  36.434  41.194   7.565
  811POPC   NC314651   5.377  37.271   9.342
  811POPC   PO414652   5.979  36.992   9.584
  811POPC   GL114653   5.830  37.007   9.176
  811POPC   GL214654   6.177  36.879   9.118
  811POPC   C1A14655   5.738  37.159   8.753
  811POPC   D2A14656   6.116  37.225   8.449
  811POPC   C3A14657   6.101  37.081   8.017
  811POPC   C4A14658   5.732  37.113   7.780
  811POPC   C1B14659   6.059  36.780   8.708
  811POPC   C2B14660   5.781  36.834   8.334
  811POPC   C3B14661   5.830  36.633   7.923
  811POPC   C4B14662   5.695  36.717   7.488
  812POPC   NC314663   5.964  24.350   9.430
  812POPC   PO414664   5.556  24.950   9.472
  812POPC   GL114665   5.860  24.761   9.147
  812POPC   GL214666   5.605  24.529   9.123
  812POPC   C1A14667   5.947  24.522   8.751
  812POPC   D2A14668   6.151  24.571   8.372
  812POPC   C3A14669   5.893  24.672   8.034
  812POPC   C4A14670   5.835  24.342   7.782
  812POPC   C1B14671   5.483  24.788   8.787
  812POPC   C2B14672   5.568  24.889   8.378
  812POPC   C3B14673   5.338  24.772   8.041
  812POPC   C4B14674   5.408  24.587   7.657
  813POPC   NC314675  44.150   0.761   9.462
  813POPC   PO414676  43.733   1.343   9.420
  813POPC   GL114677  43.782   1.036   9.144
  813POPC   GL214678  44.125   1.088   9.047
  813POPC   C1A14679  43.739   0.978   8.721
  813POPC   D2A14680  44.052   1.068   8.417
  813POPC   C3A14681  43.777   0.979   8.117
  813POPC   C4A14682  43.640   1.056   7.767
  813POPC   C1B14683  43.935   1.453   8.790
  813POPC   C2B14684  44.070   1.578   8.375
  813POPC   C3B14685  43.969   1.466   7.963
  813POPC   C4B14686  44.166   1.098   7.807
  814POPC   NC314687  20.174  36.388   9.324
  814POPC   PO414688  20.619  35.977   9.591
  814POPC   GL114689  20.675  36.133   9.176
  814POPC   GL214690  20.983  36.343   9.167
  814POPC   C1A14691  20.599  35.947   8.752
  814POPC   D2A14692  20.468  35.931   8.311
  814POPC   C3A14693  20.641  36.067   7.909
  814POPC   C4A14694  20.816  35.829   7.495
  814POPC   C1B14695  21.088  36.048   8.844
  814POPC   C2B14696  21.042  35.788   8.480
  814POPC   C3B14697  21.082  36.074   8.156
  814POPC   C4B14698  21.057  36.282   7.751
  815POPC   NC314699  35.623  18.291   9.447
  815POPC   PO414700  35.075  18.093   9.756
  815POPC   GL114701  35.158  18.313   9.267
  815POPC   GL214702  35.332  18.627   9.170
  815POPC   C1A14703  35.063  18.262   8.812
  815POPC   D2A14704  34.971  18.340   8.358
  815POPC   C3A14705  35.313  18.152   8.143
  815POPC   C4A14706  35.438  18.044   7.741
  815POPC   C1B14707  35.521  18.533   8.776
  815POPC   C2B14708  35.601  18.571   8.330
  815POPC   C3B14709  35.352  18.606   7.944
  815POPC   C4B14710  35.465  18.512   7.519
  816POPC   NC314711  38.226   4.896   9.573
  816POPC   PO414712  38.243   5.515   9.373
  816POPC   GL114713  38.418   5.156   9.142
  816POPC   GL214714  38.183   4.916   9.065
  816POPC   C1A14715  38.673   4.904   8.841
  816POPC   D2A14716  38.705   4.894   8.366
  816POPC   C3A14717  38.476   5.156   8.069
  816POPC   C4A14718  38.574   5.135   7.620
  816POPC   C1B14719  38.251   5.049   8.638
  816POPC   C2B14720  38.144   4.794   8.273
  816POPC   C3B14721  38.020   5.005   7.919
  816POPC   C4B14722  38.084   5.435   7.848
  817POPC   NC314723  25.753  38.934   9.486
  817POPC   PO414724  26.076  39.497   9.520
  817POPC   GL114725  25.932  39.294   9.162
  817POPC   GL214726  25.694  39.499   8.986
  817POPC   C1A14727  26.078  39.267   8.743
  817POPC   D2A14728  25.794  39.398   8.412
  817POPC   C3A14729  25.997  39.355   8.027
  817POPC   C4A14730  25.953  39.457   7.624
  817POPC   C1B14731  25.616  39.059   8.784
  817POPC   C2B14732  25.572  38.903   8.332
  817POPC   C3B14733  25.642  38.996   7.884
  817POPC   C4B14734  25.778  38.953   7.435
  818POPC   NC314735   8.420  26.882   9.504
  818POPC   PO414736   7.711  26.957   9.545
  818POPC   GL114737   7.986  26.788   9.245
  818POPC   GL214738   8.091  27.086   9.106
  818POPC   C1A14739   7.902  26.635   8.845
  818POPC   D2A14740   7.941  26.897   8.494
  818POPC   C3A14741   8.021  26.749   8.086
  818POPC   C4A14742   7.863  26.609   7.697
  818POPC   C1B14743   8.359  26.864   8.836
  818POPC   C2B14744   8.513  26.842   8.426
  818POPC   C3B14745   8.465  26.983   8.020
  818POPC   C4B14746   8.400  26.656   7.706
  819POPC   NC314747  40.549  39.843   9.609
  819POPC   PO414748  40.862  40.457   9.383
  819POPC   GL114749  40.704  40.129   9.130
  819POPC   GL214750  40.810  39.782   9.174
  819POPC   C1A14751  40.762  40.032   8.696
  819POPC   D2A14752  40.875  39.813   8.317
  819POPC   C3A14753  40.890  40.021   7.916
  819POPC   C4A14754  40.504  40.265   7.825
  819POPC   C1B14755  40.448  39.686   8.907
  819POPC   C2B14756  40.366  39.761   8.489
  819POPC   C3B14757  40.465  39.593   8.081
  819POPC   C4B14758  40.526  39.765   7.682
  820POPC   NC314759   5.999  33.953   9.391
  820POPC   PO414760   6.157  33.233   9.486
  820POPC   GL114761   5.960  33.434   9.131
  820POPC   GL214762   5.643  33.638   9.101
  820POPC   C1A14763   6.052  33.702   8.783
  820POPC   D2A14764   5.982  33.712   8.362
  820POPC   C3A14765   6.190  33.430   8.124
  820POPC   C4A14766   6.193  33.565   7.704
  820POPC   C1B14767   5.552  33.814   8.675
  820POPC   C2B14768   5.603  34.033   8.267
  820POPC   C3B14769   5.489  33.939   7.838
  820POPC   C4B14770   5.533  34.206   7.468
  821POPC   NC314771  11.312  35.784   9.399
  821POPC   PO414772  11.455  36.392   9.527
  821POPC   GL114773  11.205  36.314   9.175
  821POPC   GL214774  10.953  36.032   9.131
  821POPC   C1A14775  11.092  36.381   8.761
  821POPC   D2A14776  10.977  36.129   8.424
  821POPC   C3A14777  11.156  36.275   8.040
  821POPC   C4A14778  11.437  36.157   7.734
  821POPC   C1B14779  11.004  35.715   8.786
  821POPC   C2B14780  10.763  35.644   8.414
  821POPC   C3B14781  10.841  35.829   8.024
  821POPC   C4B14782  11.122  35.756   7.693
  822POPC   NC314783  43.796  43.363   9.526
  822POPC   PO414784  44.124  42.837   9.711
  822POPC   GL114785  43.913  42.975   9.245
  822POPC   GL214786  43.604  42.862   9.030
  822POPC   C1A14787  43.963  43.190   8.825
  822POPC   D2A14788  44.107  43.222   8.372
  822POPC   C3A14789  43.988  43.361   7.998
  822POPC   C4A14790  43.986  43.166   7.582
  822POPC   C1B14791  43.474  43.193   8.713
  822POPC   C2B14792  43.600  43.452   8.344
  822POPC   C3B14793  43.498  43.346   7.900
  822POPC   C4B14794  43.526  42.972   7.698
  823POPC   NC314795  30.131  32.694   9.468
  823POPC   PO414796  29.764  33.304   9.556
  823POPC   GL114797  29.831  33.024   9.226
  823POPC   GL214798  30.136  33.169   9.196
  823POPC   C1A14799  29.626  32.879   8.856
  823POPC   D2A14800  29.690  33.038   8.457
  823POPC   C3A14801  29.744  32.773   8.121
  823POPC   C4A14802  29.836  32.978   7.777
  823POPC   C1B14803  30.160  32.985   8.787
  823POPC   C2B14804  30.207  33.021   8.338
  823POPC   C3B14805  30.334  32.970   7.911
  823POPC   C4B14806  30.244  32.885   7.491
  824POPC   NC314807  21.698  19.402   9.394
  824POPC   PO414808  21.123  19.237   9.632
  824POPC   GL114809  21.287  18.993   9.262
  824POPC   GL214810  21.616  18.864   9.131
  824POPC   C1A14811  21.236  19.064   8.820
  824POPC   D2A14812  21.093  18.828   8.452
  824POPC   C3A14813  21.310  19.024   8.106
  824POPC   C4A14814  21.372  19.163   7.668
  824POPC   C1B14815  21.526  18.669   8.696
  824POPC   C2B14816  21.632  18.580   8.240
  824POPC   C3B14817  21.576  18.697   7.794
  824POPC   C4B14818  21.609  18.795   7.348
  825POPC   NC314819  27.879   4.788   9.417
  825POPC   PO414820  27.480   5.361   9.610
  825POPC   GL114821  27.387   5.243   9.177
  825POPC   GL214822  27.747   5.193   9.162
  825POPC   C1A14823  27.517   5.160   8.729
  825POPC   D2A14824  27.540   4.799   8.474
  825POPC   C3A14825  27.608   4.955   8.065
  825POPC   C4A14826  27.809   4.820   7.702
  825POPC   C1B14827  28.005   5.316   8.787
  825POPC   C2B14828  27.965   5.269   8.340
  825POPC   C3B14829  28.018   5.377   7.884
  825POPC   C4B14830  27.905   5.297   7.441
  826POPC   NC314831  24.339  21.103   9.352
  826POPC   PO414832  24.508  20.390   9.513
  826POPC   GL114833  24.609  20.415   9.125
  826POPC   GL214834  24.328  20.640   9.100
  826POPC   C1A14835  24.747  20.522   8.730
  826POPC   D2A14836  24.740  20.761   8.344
  826POPC   C3A14837  24.794  20.560   7.959
  826POPC   C4A14838  24.623  20.519   7.586
  826POPC   C1B14839  24.236  20.486   8.710
  826POPC   C2B14840  24.396  20.393   8.311
  826POPC   C3B14841  24.191  20.399   7.916
  826POPC   C4B14842  24.028  20.718   7.627
  827POPC   NC314843  34.402   3.855   9.491
  827POPC   PO414844  34.746   3.316   9.579
  827POPC   GL114845  34.611   3.500   9.184
  827POPC   GL214846  34.830   3.763   9.199
  827POPC   C1A14847  34.527   3.706   8.781
  827POPC   D2A14848  34.502   3.499   8.402
  827POPC   C3A14849  34.423   3.691   7.992
  827POPC   C4A14850  34.465   3.406   7.632
  827POPC   C1B14851  35.031   3.795   8.778
  827POPC   C2B14852  34.956   3.723   8.345
  827POPC   C3B14853  34.889   3.511   7.950
  827POPC   C4B14854  34.834   3.748   7.569
  828POPC   NC314855   8.552  12.741   9.510
  828POPC   PO414856   9.211  12.617   9.583
  828POPC   GL114857   9.034  12.771   9.217
  828POPC   GL214858   8.785  12.502   9.112
  828POPC   C1A14859   9.147  13.025   8.854
  828POPC   D2A14860   9.027  13.171   8.423
  828POPC   C3A14861   9.217  12.963   8.074
  828POPC   C4A14862   9.115  13.028   7.665
  828POPC   C1B14863   8.778  12.695   8.702
  828POPC   C2B14864   8.901  12.602   8.273
  828POPC   C3B14865   8.949  12.575   7.819
  828POPC   C4B14866   9.212  12.524   7.453
  829POPC   NC314867  41.600  35.636   9.614
  829POPC   PO414868  42.100  35.249   9.543
  829POPC   GL114869  41.802  35.311   9.170
  829POPC   GL214870  41.617  35.014   9.044
  829POPC   C1A14871  41.613  35.482   8.753
  829POPC   D2A14872  41.742  35.779   8.382
  829POPC   C3A14873  41.727  35.620   7.961
  829POPC   C4A14874  41.331  35.500   7.730
  829POPC   C1B14875  41.946  35.069   8.726
  829POPC   C2B14876  41.838  35.246   8.338
  829POPC   C3B14877  41.422  35.299   8.189
  829POPC   C4B14878  41.176  35.017   7.890
  830POPC   NC314879   5.874   1.940   9.290
  830POPC   PO414880   6.354   2.330   9.265
  830POPC   GL114881   6.016   2.339   8.991
  830POPC   GL214882   6.105   2.020   8.858
  830POPC   C1A14883   5.839   2.290   8.544
  830POPC   D2A14884   5.579   2.152   8.208
  830POPC   C3A14885   5.905   2.117   7.976
  830POPC   C4A14886   6.120   2.301   7.665
  830POPC   C1B14887   5.962   1.628   8.675
  830POPC   C2B14888   5.773   1.638   8.299
  830POPC   C3B14889   5.980   1.604   7.962
  830POPC   C4B14890   6.240   1.814   7.710
  831POPC   NC314891  31.687  36.588   9.689
  831POPC   PO414892  31.503  35.962   9.616
  831POPC   GL114893  31.638  36.211   9.212
  831POPC   GL214894  31.383  36.448   9.066
  831POPC   C1A14895  31.658  36.219   8.720
  831POPC   D2A14896  31.438  36.212   8.301
  831POPC   C3A14897  31.642  36.368   7.981
  831POPC   C4A14898  31.461  36.046   7.754
  831POPC   C1B14899  31.135  36.319   8.696
  831POPC   C2B14900  30.994  36.482   8.281
  831POPC   C3B14901  31.160  36.458   7.859
  831POPC   C4B14902  31.322  36.465   7.441
  832POPC   NC314903  17.078  10.810   9.402
  832POPC   PO414904  16.852  10.222   9.478
  832POPC   GL114905  16.862  10.417   9.116
  832POPC   GL214906  16.550  10.596   9.132
  832POPC   C1A14907  16.856  10.625   8.738
  832POPC   D2A14908  16.537  10.680   8.443
  832POPC   C3A14909  16.710  10.537   8.076
  832POPC   C4A14910  17.009  10.517   7.791
  832POPC   C1B14911  16.429  10.316   8.774
  832POPC   C2B14912  16.367  10.174   8.359
  832POPC   C3B14913  16.224  10.437   8.015
  832POPC   C4B14914  16.154  10.359   7.630
  833POPC   NC314915  35.239   9.579   9.549
  833POPC   PO414916  35.234   8.946   9.792
  833POPC   GL114917  35.211   8.864   9.298
  833POPC   GL214918  35.047   9.125   9.167
  833POPC   C1A14919  35.369   8.756   8.856
  833POPC   D2A14920  35.176   8.631   8.431
  833POPC   C3A14921  35.233   8.819   8.015
  833POPC   C4A14922  35.667   8.896   7.869
  833POPC   C1B14923  35.160   9.199   8.725
  833POPC   C2B14924  35.408   9.104   8.388
  833POPC   C3B14925  35.381   9.327   8.019
  833POPC   C4B14926  35.466   9.608   7.675
  834POPC   NC314927  37.231  39.367   9.478
  834POPC   PO414928  36.702  38.906   9.386
  834POPC   GL114929  36.620  39.139   9.080
  834POPC   GL214930  36.797  39.464   9.187
  834POPC   C1A14931  36.644  38.932   8.695
  834POPC   D2A14932  36.829  38.773   8.310
  834POPC   C3A14933  36.806  39.000   7.908
  834POPC   C4A14934  37.104  38.959   7.567
  834POPC   C1B14935  36.975  39.360   8.781
  834POPC   C2B14936  36.811  39.286   8.369
  834POPC   C3B14937  36.832  39.489   8.002
  834POPC   C4B14938  37.086  39.457   7.684
  835POPC   NC314939   9.705  17.989   9.365
  835POPC   PO414940  10.189  18.352   9.688
  835POPC   GL114941   9.944  18.491   9.204
  835POPC   GL214942   9.736  18.268   8.962
  835POPC   C1A14943   9.895  18.672   8.739
  835POPC   D2A14944   9.606  18.452   8.430
  835POPC   C3A14945   9.743  18.329   8.007
  835POPC   C4A14946  10.106  18.484   7.740
  835POPC   C1B14947   9.450  17.993   8.738
  835POPC   C2B14948   9.386  17.992   8.299
  835POPC   C3B14949   9.296  17.860   7.924
  835POPC   C4B14950   9.478  18.072   7.634
  836POPC   NC314951   2.514   4.431   9.563
  836POPC   PO414952   3.095   4.119   9.577
  836POPC   GL114953   3.086   4.339   9.186
  836POPC   GL214954   2.857   4.623   9.203
  836POPC   C1A14955   2.847   4.254   8.824
  836POPC   D2A14956   2.590   3.992   8.568
  836POPC   C3A14957   2.686   4.041   8.138
  836POPC   C4A14958   2.743   4.163   7.742
  836POPC   C1B14959   2.686   4.743   8.807
  836POPC   C2B14960   2.648   4.499   8.416
  836POPC   C3B14961   2.451   4.546   8.047
  836POPC   C4B14962   2.596   4.640   7.679
  837POPC   NC314963  32.116  31.265   9.471
  837POPC   PO414964  32.700  31.654   9.522
  837POPC   GL114965  32.486  31.482   9.192
  837POPC   GL214966  32.152  31.521   9.050
  837POPC   C1A14967  32.552  31.281   8.805
  837POPC   D2A14968  32.355  31.378   8.456
  837POPC   C3A14969  32.635  31.396   8.125
  837POPC   C4A14970  32.361  31.311   7.798
  837POPC   C1B14971  31.955  31.828   8.818
  837POPC   C2B14972  31.969  31.903   8.390
  837POPC   C3B14973  31.910  31.612   8.056
  837POPC   C4B14974  31.744  31.827   7.726
  838POPC   NC314975  16.590  23.643   9.485
  838POPC   PO414976  17.193  23.457   9.296
  838POPC   GL114977  16.742  23.386   9.037
  838POPC   GL214978  16.335  23.488   9.093
  838POPC   C1A14979  16.692  23.410   8.554
  838POPC   D2A14980  16.729  23.708   8.207
  838POPC   C3A14981  16.822  23.719   7.754
  838POPC   C4A14982  16.952  24.037   7.447
  838POPC   C1B14983  16.322  23.727   8.725
  838POPC   C2B14984  16.237  23.612   8.302
  838POPC   C3B14985  16.349  23.532   7.895
  838POPC   C4B14986  16.476  23.426   7.503
  839POPC   NC314987  19.435  11.352   9.572
  839POPC   PO414988  18.807  11.520   9.634
  839POPC   GL114989  18.832  11.472   9.202
  839POPC   GL214990  19.062  11.262   9.160
  839POPC   C1A14991  19.027  11.617   8.804
  839POPC   D2A14992  18.957  11.439   8.413
  839POPC   C3A14993  19.013  11.567   8.035
  839POPC   C4A14994  18.860  11.576   7.654
  839POPC   C1B14995  18.886  11.100   8.758
  839POPC   C2B14996  19.119  10.988   8.295
  839POPC   C3B14997  19.043  11.103   7.829
  839POPC   C4B14998  18.923  11.167   7.371
  840POPC   NC314999  44.585   3.102   9.663
  840POPC   PO415000  44.492   3.688   9.633
  840POPC   GL115001  44.633   3.603   9.198
  840POPC   GL215002  44.859   3.335   9.151
  840POPC   C1A15003  44.417   3.638   8.768
  840POPC   D2A15004  44.322   3.434   8.342
  840POPC   C3A15005  44.488   3.529   7.914
  840POPC   C4A15006  44.915   3.496   7.744
  840POPC   C1B15007  44.753   3.245   8.688
  840POPC   C2B15008  44.791   3.237   8.195
  840POPC   C3B15009  44.750   3.046   7.756
  840POPC   C4B15010  44.978   3.133   7.374
  841POPC   NC315011  30.351  28.737   9.428
  841POPC   PO415012  30.830  28.352   9.753
  841POPC   GL115013  30.943  28.427   9.239
  841POPC   GL215014  30.659  28.492   9.039
  841POPC   C1A15015  31.059  28.431   8.761
  841POPC   D2A15016  30.829  28.469   8.343
  841POPC   C3A15017  30.995  28.359   7.938
  841POPC   C4A15018  30.957  28.520   7.513
  841POPC   C1B15019  30.518  28.246   8.686
  841POPC   C2B15020  30.291  28.345   8.300
  841POPC   C3B15021  30.413  28.311   7.864
  841POPC   C4B15022  30.675  27.955   7.792
  842POPC   NC315023  36.918  12.453   9.603
  842POPC   PO415024  36.934  13.111   9.533
  842POPC   GL115025  37.020  12.934   9.113
  842POPC   GL215026  36.985  12.602   9.132
  842POPC   C1A15027  37.084  13.101   8.700
  842POPC   D2A15028  36.997  13.260   8.286
  842POPC   C3A15029  36.865  12.969   7.978
  842POPC   C4A15030  37.224  12.886   7.758
  842POPC   C1B15031  37.071  12.586   8.730
  842POPC   C2B15032  37.113  12.718   8.347
  842POPC   C3B15033  37.097  12.469   7.995
  842POPC   C4B15034  36.732  12.495   7.768
  843POPC   NC315035  38.034   2.696   9.426
  843POPC   PO415036  37.379   2.961   9.519
  843POPC   GL115037  37.639   2.939   9.177
  843POPC   GL215038  37.615   2.587   9.127
  843POPC   C1A15039  37.810   2.940   8.770
  843POPC   D2A15040  37.859   2.710   8.391
  843POPC   C3A15041  37.609   2.627   8.053
  843POPC   C4A15042  37.757   2.854   7.690
  843POPC   C1B15043  37.866   2.404   8.796
  843POPC   C2B15044  37.956   2.211   8.416
  843POPC   C3B15045  38.077   2.402   8.011
  843POPC   C4B15046  37.881   2.371   7.597
  844POPC   NC315047  25.938  23.994   9.338
  844POPC   PO415048  26.202  23.452   9.229
  844POPC   GL115049  25.989  23.675   8.949
  844POPC   GL215050  25.658  23.717   9.028
  844POPC   C1A15051  26.104  23.917   8.628
  844POPC   D2A15052  26.053  23.653   8.323
  844POPC   C3A15053  26.295  23.720   8.009
  844POPC   C4A15054  26.132  23.493   7.707
  844POPC   C1B15055  25.640  24.099   8.741
  844POPC   C2B15056  25.763  24.114   8.289
  844POPC   C3B15057  25.826  23.860   7.910
  844POPC   C4B15058  25.879  24.010   7.506
  845POPC   NC315059  23.384   3.853   9.247
  845POPC   PO415060  23.645   3.357   9.687
  845POPC   GL115061  23.622   3.393   9.206
  845POPC   GL215062  23.920   3.497   9.042
  845POPC   C1A15063  23.529   3.450   8.723
  845POPC   D2A15064  23.366   3.468   8.285
  845POPC   C3A15065  23.607   3.518   7.883
  845POPC   C4A15066  23.358   3.355   7.557
  845POPC   C1B15067  23.892   3.820   8.721
  845POPC   C2B15068  23.930   3.776   8.280
  845POPC   C3B15069  23.972   3.975   7.884
  845POPC   C4B15070  23.817   3.918   7.483
  846POPC   NC315071   4.971  11.377   9.613
  846POPC   PO415072   5.466  10.945   9.643
  846POPC   GL115073   5.280  11.064   9.248
  846POPC   GL215074   5.426  11.390   9.141
  846POPC   C1A15075   5.099  11.164   8.828
  846POPC   D2A15076   5.287  11.090   8.419
  846POPC   C3A15077   5.169  11.308   8.019
  846POPC   C4A15078   5.100  11.149   7.625
  846POPC   C1B15079   5.391  11.602   8.741
  846POPC   C2B15080   5.519  11.543   8.310
  846POPC   C3B15081   5.486  11.695   7.889
  846POPC   C4B15082   5.149  11.679   7.598
  847POPC   NC315083   3.247   6.965   9.402
  847POPC   PO415084   3.254   6.275   9.635
  847POPC   GL115085   3.535   6.393   9.219
  847POPC   GL215086   3.601   6.750   9.102
  847POPC   C1A15087   3.459   6.439   8.724
  847POPC   D2A15088   3.573   6.537   8.328
  847POPC   C3A15089   3.246   6.587   8.079
  847POPC   C4A15090   3.359   6.430   7.686
  847POPC   C1B15091   3.418   6.929   8.692
  847POPC   C2B15092   3.569   7.040   8.275
  847POPC   C3B15093   3.573   6.902   7.838
  847POPC   C4B15094   3.637   7.130   7.440
  848POPC   NC315095  41.035  26.519   9.511
  848POPC   PO415096  40.459  26.886   9.566
  848POPC   GL115097  40.672  26.707   9.204
  848POPC   GL215098  40.911  26.959   9.223
  848POPC   C1A15099  40.969  26.612   8.834
  848POPC   D2A15100  41.110  26.782   8.419
  848POPC   C3A15101  40.949  26.770   8.015
  848POPC   C4A15102  41.021  26.962   7.651
  848POPC   C1B15103  40.746  27.058   8.783
  848POPC   C2B15104  40.716  27.215   8.371
  848POPC   C3B15105  40.655  27.202   7.926
  848POPC   C4B15106  40.680  27.458   7.559
  849POPC   NC315107  42.715  28.609   9.522
  849POPC   PO415108  43.349  28.264   9.704
  849POPC   GL115109  43.294  28.207   9.230
  849POPC   GL215110  42.955  28.340   9.152
  849POPC   C1A15111  43.211  28.129   8.772
  849POPC   D2A15112  43.110  27.995   8.361
  849POPC   C3A15113  42.848  28.200   8.051
  849POPC   C4A15114  43.082  28.457   7.763
  849POPC   C1B15115  42.690  28.557   8.824
  849POPC   C2B15116  42.705  28.764   8.408
  849POPC   C3B15117  42.643  28.662   7.963
  849POPC   C4B15118  42.651  28.498   7.510
  850POPC   NC315119  42.477  29.407   9.510
  850POPC   PO415120  42.203  28.773   9.599
  850POPC   GL115121  42.325  28.968   9.242
  850POPC   GL215122  42.124  29.229   9.162
  850POPC   C1A15123  42.502  29.044   8.833
  850POPC   D2A15124  42.507  29.242   8.436
  850POPC   C3A15125  42.343  29.099   8.038
  850POPC   C4A15126  42.557  29.052   7.659
  850POPC   C1B15127  42.108  29.402   8.769
  850POPC   C2B15128  41.998  29.369   8.345
  850POPC   C3B15129  42.112  29.576   7.968
  850POPC   C4B15130  42.408  29.540   7.689
  851POPC   NC315131  20.261   2.988   9.502
  851POPC   PO415132  20.659   2.483   9.414
  851POPC   GL115133  20.691   2.754   9.047
  851POPC   GL215134  20.606   3.096   9.109
  851POPC   C1A15135  20.378   2.864   8.699
  851POPC   D2A15136  20.124   2.686   8.352
  851POPC   C3A15137  20.430   2.482   8.098
  851POPC   C4A15138  20.701   2.643   7.782
  851POPC   C1B15139  20.564   3.341   8.716
  851POPC   C2B15140  20.364   3.310   8.300
  851POPC   C3B15141  20.350   2.988   7.972
  851POPC   C4B15142  20.441   3.013   7.529
  852POPC   NC315143  16.513   2.567   9.386
  852POPC   PO415144  17.026   2.981   9.206
  852POPC   GL115145  16.823   2.663   8.995
  852POPC   GL215146  17.073   2.405   8.908
  852POPC   C1A15147  16.592   2.873   8.654
  852POPC   D2A15148  16.760   3.022   8.251
  852POPC   C3A15149  16.646   2.737   7.944
  852POPC   C4A15150  16.290   2.808   7.807
  852POPC   C1B15151  17.103   2.698   8.572
  852POPC   C2B15152  17.265   2.897   8.221
  852POPC   C3B15153  17.102   2.896   7.807
  852POPC   C4B15154  17.091   2.741   7.368
  853POPC   NC315155  15.434   3.678   9.732
  853POPC   PO415156  14.838   3.743   9.544
  853POPC   GL115157  15.182   3.628   9.288
  853POPC   GL215158  15.341   3.953   9.290
  853POPC   C1A15159  15.225   3.386   8.910
  853POPC   D2A15160  15.043   3.195   8.554
  853POPC   C3A15161  14.978   3.467   8.224
  853POPC   C4A15162  15.100   3.473   7.798
  853POPC   C1B15163  15.204   3.911   8.854
  853POPC   C2B15164  15.359   3.732   8.471
  853POPC   C3B15165  15.310   3.858   8.057
  853POPC   C4B15166  15.422   3.881   7.629
  854POPC   NC315167  13.867   3.223   9.320
  854POPC   PO415168  13.598   3.838   9.422
  854POPC   GL115169  13.657   3.619   9.043
  854POPC   GL215170  13.480   3.268   8.995
  854POPC   C1A15171  13.415   3.654   8.668
  854POPC   D2A15172  13.457   3.403   8.306
  854POPC   C3A15173  13.390   3.588   7.903
  854POPC   C4A15174  13.402   3.330   7.532
  854POPC   C1B15175  13.828   3.330   8.663
  854POPC   C2B15176  14.029   3.359   8.268
  854POPC   C3B15177  13.787   3.249   7.914
  854POPC   C4B15178  13.864   3.499   7.585
  855POPC   NC315179  10.596  35.101   9.549
  855POPC   PO415180  10.102  35.568   9.733
  855POPC   GL115181  10.324  35.319   9.218
  855POPC   GL215182  10.559  35.539   9.007
  855POPC   C1A15183  10.196  35.246   8.763
  855POPC   D2A15184  10.423  35.253   8.397
  855POPC   C3A15185  10.245  35.360   8.006
  855POPC   C4A15186  10.262  35.129   7.622
  855POPC   C1B15187  10.705  35.155   8.850
  855POPC   C2B15188  10.810  34.924   8.495
  855POPC   C3B15189  10.857  35.134   8.098
  855POPC   C4B15190  10.709  35.400   7.767
  856POPC   NC315191   1.775   8.087   9.552
  856POPC   PO415192   2.405   8.149   9.344
  856POPC   GL115193   2.063   8.034   9.096
  856POPC   GL215194   1.859   8.311   9.095
  856POPC   C1A15195   2.099   8.085   8.663
  856POPC   D2A15196   2.208   8.413   8.380
  856POPC   C3A15197   2.326   8.273   7.968
  856POPC   C4A15198   2.205   7.929   7.695
  856POPC   C1B15199   1.802   8.502   8.685
  856POPC   C2B15200   1.508   8.494   8.359
  856POPC   C3B15201   1.641   8.534   7.959
  856POPC   C4B15202   1.949   8.429   7.648
  857POPC   NC315203   6.964  35.017   9.477
  857POPC   PO415204   6.784  35.670   9.514
  857POPC   GL115205   6.768  35.393   9.171
  857POPC   GL215206   7.106  35.410   9.138
  857POPC   C1A15207   6.753  35.509   8.715
  857POPC   D2A15208   6.843  35.595   8.263
  857POPC   C3A15209   6.510  35.463   7.908
  857POPC   C4A15210   6.361  35.124   7.559
  857POPC   C1B15211   7.102  35.139   8.781
  857POPC   C2B15212   6.826  35.096   8.391
  857POPC   C3B15213   6.919  35.169   7.938
  857POPC   C4B15214   6.807  34.867   7.623
  858POPC   NC315215  22.024  37.703   9.353
  858POPC   PO415216  22.480  37.263   9.513
  858POPC   GL115217  22.213  37.272   9.119
  858POPC   GL215218  21.894  37.434   8.971
  858POPC   C1A15219  22.325  37.394   8.684
  858POPC   D2A15220  22.243  37.803   8.503
  858POPC   C3A15221  22.191  37.814   8.070
  858POPC   C4A15222  22.451  37.465   7.958
  858POPC   C1B15223  21.811  37.860   8.787
  858POPC   C2B15224  21.757  37.923   8.393
  858POPC   C3B15225  21.716  38.033   8.007
  858POPC   C4B15226  21.799  37.771   7.642
  859POPC   NC315227  11.465   5.640   9.514
  859POPC   PO415228  11.070   6.138   9.523
  859POPC   GL115229  11.184   5.860   9.154
  859POPC   GL215230  11.539   5.872   9.069
  859POPC   C1A15231  11.206   5.777   8.694
  859POPC   D2A15232  11.332   6.012   8.315
  859POPC   C3A15233  11.381   5.777   7.954
  859POPC   C4A15234  11.379   6.135   7.745
  859POPC   C1B15235  11.702   5.960   8.667
  859POPC   C2B15236  11.741   5.675   8.317
  859POPC   C3B15237  11.949   5.622   7.943
  859POPC   C4B15238  11.777   5.844   7.622
  860POPC   NC315239  17.481  36.854   9.722
  860POPC   PO415240  17.566  37.410   9.457
  860POPC   GL115241  17.305  37.212   9.112
  860POPC   GL215242  17.263  36.860   9.217
  860POPC   C1A15243  17.311  37.139   8.630
  860POPC   D2A15244  17.547  37.156   8.196
  860POPC   C3A15245  17.329  37.020   7.790
  860POPC   C4A15246  17.173  37.116   7.370
  860POPC   C1B15247  17.318  36.650   8.792
  860POPC   C2B15248  17.341  36.671   8.327
  860POPC   C3B15249  17.471  36.539   7.902
  860POPC   C4B15250  17.670  36.720   7.518
  861POPC   NC315251  34.362  24.761   9.261
  861POPC   PO415252  34.856  24.406   9.486
  861POPC   GL115253  34.623  24.264   9.156
  861POPC   GL215254  34.876  24.035   9.051
  861POPC   C1A15255  34.445  24.409   8.747
  861POPC   D2A15256  34.134  24.504   8.461
  861POPC   C3A15257  34.361  24.567   8.112
  861POPC   C4A15258  34.388  24.264   7.807
  861POPC   C1B15259  34.971  24.393   8.798
  861POPC   C2B15260  34.827  24.679   8.471
  861POPC   C3B15261  34.854  24.699   8.033
  861POPC   C4B15262  34.575  24.846   7.713
  862POPC   NC315263   8.484  16.805   9.259
  862POPC   PO415264   7.845  16.829   9.448
  862POPC   GL115265   8.003  16.785   9.064
  862POPC   GL215266   8.192  16.507   8.937
  862POPC   C1A15267   8.055  17.014   8.716
  862POPC   D2A15268   8.360  17.193   8.461
  862POPC   C3A15269   8.155  17.112   8.089
  862POPC   C4A15270   8.064  16.828   7.714
  862POPC   C1B15271   8.443  16.672   8.573
  862POPC   C2B15272   8.324  16.649   8.139
  862POPC   C3B15273   8.489  16.560   7.738
  862POPC   C4B15274   8.379  16.652   7.315
  863POPC   NC315275  30.066  18.941   9.666
  863POPC   PO415276  29.688  19.495   9.737
  863POPC   GL115277  29.772  19.258   9.277
  863POPC   GL215278  29.974  18.933   9.157
  863POPC   C1A15279  29.944  19.290   8.812
  863POPC   D2A15280  29.964  19.097   8.390
  863POPC   C3A15281  29.866  19.281   7.981
  863POPC   C4A15282  30.017  19.405   7.565
  863POPC   C1B15283  30.217  18.834   8.750
  863POPC   C2B15284  30.132  18.601   8.359
  863POPC   C3B15285  30.005  18.761   7.988
  863POPC   C4B15286  30.266  18.968   7.699
  864POPC   NC315287  27.408   0.844   9.422
  864POPC   PO415288  27.670   0.251   9.587
  864POPC   GL115289  27.671   0.476   9.183
  864POPC   GL215290  27.346   0.464   9.096
  864POPC   C1A15291  27.714   0.631   8.729
  864POPC   D2A15292  27.532   0.698   8.284
  864POPC   C3A15293  27.688   0.563   7.850
  864POPC   C4A15294  27.936   0.544   7.455
  864POPC   C1B15295  27.209   0.584   8.714
  864POPC   C2B15296  27.174   0.336   8.368
  864POPC   C3B15297  27.411   0.152   8.073
  864POPC   C4B15298  27.206   0.275   7.726
  865POPC   NC315299  16.193  11.160   9.712
  865POPC   PO415300  16.133  11.534   9.181
  865POPC   GL115301  15.906  11.214   9.053
  865POPC   GL215302  16.219  11.028   9.142
  865POPC   C1A15303  15.778  11.391   8.657
  865POPC   D2A15304  16.007  11.553   8.354
  865POPC   C3A15305  15.988  11.316   7.996
  865POPC   C4A15306  15.655  11.240   7.741
  865POPC   C1B15307  16.243  11.111   8.690
  865POPC   C2B15308  16.150  10.978   8.333
  865POPC   C3B15309  16.415  10.948   8.007
  865POPC   C4B15310  16.384  11.224   7.681
  866POPC   NC315311   0.469   6.358   9.469
  866POPC   PO415312   0.186   6.983   9.400
  866POPC   GL115313   0.449   6.713   9.101
  866POPC   GL215314   0.712   6.443   9.037
  866POPC   C1A15315   0.403   6.555   8.669
  866POPC   D2A15316   0.473   6.798   8.334
  866POPC   C3A15317   0.459   6.612   7.963
  866POPC   C4A15318   0.424   6.899   7.696
  866POPC   C1B15319   0.856   6.775   8.691
  866POPC   C2B15320   0.960   6.946   8.240
  866POPC   C3B15321   0.925   6.892   7.762
  866POPC   C4B15322   0.732   6.650   7.388
  867POPC   NC315323  10.290  39.524   9.625
  867POPC   PO415324  10.834  39.262   9.670
  867POPC   GL115325  10.577  39.266   9.282
  867POPC   GL215326  10.316  39.012   9.187
  867POPC   C1A15327  10.681  39.234   8.863
  867POPC   D2A15328  10.704  39.050   8.467
  867POPC   C3A15329  10.574  39.287   8.120
  867POPC   C4A15330  10.759  39.152   7.733
  867POPC   C1B15331  10.393  38.817   8.803
  867POPC   C2B15332  10.246  38.843   8.362
  867POPC   C3B15333  10.406  38.824   7.939
  867POPC   C4B15334  10.246  39.199   7.712
  868POPC   NC315335  31.384  16.491  10.021
  868POPC   PO415336  31.656  16.940   9.631
  868POPC   GL115337  31.550  16.604   9.323
  868POPC   GL215338  31.893  16.420   9.299
  868POPC   C1A15339  31.299  16.642   8.902
  868POPC   D2A15340  31.478  16.886   8.562
  868POPC   C3A15341  31.353  16.910   8.136
  868POPC   C4A15342  31.409  16.699   7.762
  868POPC   C1B15343  31.796  16.599   8.869
  868POPC   C2B15344  31.894  16.541   8.439
  868POPC   C3B15345  31.838  16.666   8.016
  868POPC   C4B15346  31.866  16.597   7.592
  869POPC   NC315347  39.025  12.948   9.567
  869POPC   PO415348  39.668  12.717   9.445
  869POPC   GL115349  39.345  12.833   9.162
  869POPC   GL215350  39.287  13.186   9.145
  869POPC   C1A15351  39.110  12.694   8.798
  869POPC   D2A15352  39.022  12.859   8.380
  869POPC   C3A15353  39.121  12.666   7.972
  869POPC   C4A15354  38.991  12.819   7.547
  869POPC   C1B15355  39.367  13.132   8.699
  869POPC   C2B15356  39.350  13.230   8.273
  869POPC   C3B15357  39.173  13.166   7.885
  869POPC   C4B15358  39.305  13.240   7.457
  870POPC   NC315359  20.015  11.304   9.415
  870POPC   PO415360  19.463  11.744   9.319
  870POPC   GL115361  19.662  11.484   9.070
  870POPC   GL215362  19.555  11.195   9.081
  870POPC   C1A15363  19.900  11.322   8.715
  870POPC   D2A15364  20.151  11.192   8.370
  870POPC   C3A15365  20.011  11.302   7.957
  870POPC   C4A15366  19.837  11.464   7.571
  870POPC   C1B15367  19.375  11.274   8.689
  870POPC   C2B15368  19.433  11.595   8.381
  870POPC   C3B15369  19.498  11.450   7.962
  870POPC   C4B15370  19.524  11.081   7.717
  871POPC   NC315371  18.578  44.149   9.427
  871POPC   PO415372  18.331  43.561   9.487
  871POPC   GL115373  18.214  43.752   9.106
  871POPC   GL215374  18.035  44.043   9.248
  871POPC   C1A15375  18.320  43.742   8.662
  871POPC   D2A15376  18.456  44.051   8.375
  871POPC   C3A15377  18.334  43.972   7.972
  871POPC   C4A15378  18.137  43.790   7.641
  871POPC   C1B15379  18.042  44.143   8.793
  871POPC   C2B15380  17.950  43.971   8.368
  871POPC   C3B15381  17.849  44.163   7.988
  871POPC   C4B15382  18.090  44.414   7.741
  872POPC   NC315383  38.272   8.718   9.606
  872POPC   PO415384  38.473   9.277   9.781
  872POPC   GL115385  38.527   9.088   9.309
  872POPC   GL215386  38.819   8.860   9.245
  872POPC   C1A15387  38.369   9.153   8.852
  872POPC   D2A15388  38.539   9.095   8.415
  872POPC   C3A15389  38.288   9.054   8.056
  872POPC   C4A15390  38.072   9.095   7.673
  872POPC   C1B15391  38.892   9.063   8.822
  872POPC   C2B15392  38.999   8.892   8.401
  872POPC   C3B15393  38.789   8.718   8.038
  872POPC   C4B15394  38.607   8.895   7.696
  873POPC   NC315395  14.061  18.759   9.479
  873POPC   PO415396  13.402  19.027   9.578
  873POPC   GL115397  13.730  19.047   9.230
  873POPC   GL215398  13.480  19.086   8.991
  873POPC   C1A15399  13.972  19.191   8.868
  873POPC   D2A15400  13.682  19.187   8.494
  873POPC   C3A15401  13.871  19.176   8.094
  873POPC   C4A15402  13.700  19.123   7.689
  873POPC   C1B15403  13.299  18.763   8.737
  873POPC   C2B15404  13.427  18.714   8.326
  873POPC   C3B15405  13.335  18.894   7.954
  873POPC   C4B15406  13.382  18.717   7.576
  874POPC   NC315407  41.824  22.654   9.393
  874POPC   PO415408  41.482  22.102   9.417
  874POPC   GL115409  41.782  22.200   9.126
  874POPC   GL215410  41.651  22.480   8.943
  874POPC   C1A15411  41.904  22.086   8.722
  874POPC   D2A15412  41.974  22.307   8.354
  874POPC   C3A15413  41.883  22.096   7.965
  874POPC   C4A15414  41.613  21.854   7.687
  874POPC   C1B15415  41.285  22.257   8.764
  874POPC   C2B15416  41.095  22.327   8.317
  874POPC   C3B15417  41.398  22.320   7.920
  874POPC   C4B15418  41.412  22.257   7.435
  875POPC   NC315419   0.933  22.819   9.316
  875POPC   PO415420   0.414  23.099   9.608
  875POPC   GL115421   0.449  23.053   9.175
  875POPC   GL215422   0.433  22.699   9.079
  875POPC   C1A15423   0.231  23.116   8.788
  875POPC   D2A15424   0.182  22.771   8.515
  875POPC   C3A15425   0.397  22.814   8.104
  875POPC   C4A15426   0.265  23.168   7.870
  875POPC   C1B15427   0.659  22.864   8.705
  875POPC   C2B15428   0.778  23.070   8.317
  875POPC   C3B15429   0.776  23.084   7.850
  875POPC   C4B15430   0.741  22.972   7.423
  876POPC   NC315431  17.053  29.802  10.027
  876POPC   PO415432  17.590  29.964   9.569
  876POPC   GL115433  17.644  30.070   9.121
  876POPC   GL215434  17.768  29.750   9.031
  876POPC   C1A15435  17.514  29.993   8.637
  876POPC   D2A15436  17.597  30.134   8.184
  876POPC   C3A15437  17.286  30.125   7.819
  876POPC   C4A15438  17.262  30.240   7.344
  876POPC   C1B15439  17.774  29.529   8.653
  876POPC   C2B15440  17.672  29.651   8.241
  876POPC   C3B15441  17.907  29.829   7.879
  876POPC   C4B15442  18.032  29.649   7.453
  877POPC   NC315443  20.544  17.369   9.367
  877POPC   PO415444  21.194  17.478   9.605
  877POPC   GL115445  21.041  17.545   9.147
  877POPC   GL215446  20.823  17.812   9.117
  877POPC   C1A15447  20.709  17.459   8.752
  877POPC   D2A15448  20.344  17.544   8.456
  877POPC   C3A15449  20.527  17.519   8.052
  877POPC   C4A15450  20.727  17.344   7.734
  877POPC   C1B15451  20.585  17.953   8.774
  877POPC   C2B15452  20.714  17.867   8.381
  877POPC   C3B15453  20.351  17.980   8.112
  877POPC   C4B15454  20.166  17.810   7.740
  878POPC   NC315455  42.554  25.670   9.453
  878POPC   PO415456  42.566  26.338   9.437
  878POPC   GL115457  42.439  26.118   9.093
  878POPC   GL215458  42.181  25.859   9.129
  878POPC   C1A15459  42.354  26.258   8.679
  878POPC   D2A15460  42.517  26.065   8.302
  878POPC   C3A15461  42.541  26.230   7.909
  878POPC   C4A15462  42.145  26.047   7.812
  878POPC   C1B15463  42.382  25.764   8.723
  878POPC   C2B15464  42.560  25.558   8.343
  878POPC   C3B15465  42.465  25.579   7.908
  878POPC   C4B15466  42.041  25.547   7.782
  879POPC   NC315467  11.265  14.133   9.417
  879POPC   PO415468  11.687  14.664   9.220
  879POPC   GL115469  11.312  14.502   9.016
  879POPC   GL215470  11.016  14.238   9.000
  879POPC   C1A15471  11.201  14.526   8.590
  879POPC   D2A15472  10.959  14.562   8.217
  879POPC   C3A15473  11.115  14.680   7.822
  879POPC   C4A15474  11.365  14.730   7.440
  879POPC   C1B15475  11.235  14.014   8.675
  879POPC   C2B15476  11.243  14.116   8.233
  879POPC   C3B15477  11.329  14.214   7.812
  879POPC   C4B15478  11.379  14.013   7.412
  880POPC   NC315479  38.884   2.744   9.507
  880POPC   PO415480  39.508   2.814   9.471
  880POPC   GL115481  39.290   2.639   9.117
  880POPC   GL215482  39.022   2.473   9.064
  880POPC   C1A15483  39.325   2.557   8.668
  880POPC   D2A15484  39.190   2.815   8.328
  880POPC   C3A15485  39.260   2.638   7.933
  880POPC   C4A15486  39.568   2.360   7.785
  880POPC   C1B15487  38.839   2.755   8.767
  880POPC   C2B15488  38.651   2.798   8.357
  880POPC   C3B15489  38.787   2.875   7.941
  880POPC   C4B15490  38.927   2.757   7.535
  881POPC   NC315491   4.439   5.454   9.700
  881POPC   PO415492   4.518   4.759   9.573
  881POPC   GL115493   4.326   4.918   9.202
  881POPC   GL215494   4.633   5.036   9.131
  881POPC   C1A15495   4.305   5.042   8.746
  881POPC   D2A15496   4.208   5.242   8.351
  881POPC   C3A15497   4.160   4.987   7.981
  881POPC   C4A15498   4.192   5.241   7.624
  881POPC   C1B15499   4.831   5.007   8.760
  881POPC   C2B15500   4.745   5.267   8.423
  881POPC   C3B15501   4.623   5.209   8.022
  881POPC   C4B15502   4.656   4.821   7.816
  882POPC   NC315503  10.883   2.565   9.456
  882POPC   PO415504  10.300   2.973   9.353
  882POPC   GL115505  10.667   2.928   9.087
  882POPC   GL215506  10.539   2.597   9.073
  882POPC   C1A15507  10.646   2.815   8.633
  882POPC   D2A15508  10.323   2.938   8.318
  882POPC   C3A15509  10.433   2.776   7.918
  882POPC   C4A15510  10.856   2.842   7.799
  882POPC   C1B15511  10.390   2.365   8.734
  882POPC   C2B15512  10.482   2.421   8.310
  882POPC   C3B15513  10.178   2.310   8.026
  882POPC   C4B15514  10.111   2.477   7.632
  883POPC   NC315515  24.189  30.635   9.470
  883POPC   PO415516  24.791  30.869   9.263
  883POPC   GL115517  24.540  30.607   9.107
  883POPC   GL215518  24.814  30.335   9.138
  883POPC   C1A15519  24.312  30.782   8.755
  883POPC   D2A15520  24.463  31.015   8.365
  883POPC   C3A15521  24.312  30.873   7.996
  883POPC   C4A15522  24.483  30.732   7.639
  883POPC   C1B15523  24.675  30.342   8.721
  883POPC   C2B15524  24.514  30.513   8.375
  883POPC   C3B15525  24.728  30.541   8.041
  883POPC   C4B15526  24.709  30.282   7.691
  884POPC   NC315527  36.174   5.629   9.526
  884POPC   PO415528  35.678   6.105   9.365
  884POPC   GL115529  35.999   5.929   9.106
  884POPC   GL215530  35.965   5.578   9.063
  884POPC   C1A15531  36.089   6.024   8.674
  884POPC   D2A15532  35.859   6.194   8.330
  884POPC   C3A15533  36.122   6.063   8.015
  884POPC   C4A15534  36.036   6.139   7.603
  884POPC   C1B15535  36.300   5.570   8.783
  884POPC   C2B15536  36.324   5.600   8.335
  884POPC   C3B15537  36.378   5.601   7.910
  884POPC   C4B15538  36.010   5.613   7.714
  885POPC   NC315539   7.858  29.570   9.621
  885POPC   PO415540   8.322  29.096   9.613
  885POPC   GL115541   8.392  29.135   9.187
  885POPC   GL215542   8.046  29.047   9.120
  885POPC   C1A15543   8.389  29.324   8.791
  885POPC   D2A15544   8.283  29.180   8.406
  885POPC   C3A15545   8.385  29.289   8.001
  885POPC   C4A15546   8.323  28.962   7.695
  885POPC   C1B15547   7.994  28.880   8.700
  885POPC   C2B15548   7.831  29.007   8.264
  885POPC   C3B15549   7.806  29.068   7.804
  885POPC   C4B15550   7.765  29.197   7.371
  886POPC   NC315551  13.162  16.767   9.385
  886POPC   PO415552  12.572  16.832   9.445
  886POPC   GL115553  12.682  16.723   9.087
  886POPC   GL215554  12.483  16.418   9.088
  886POPC   C1A15555  12.799  16.906   8.718
  886POPC   D2A15556  12.722  16.799   8.308
  886POPC   C3A15557  12.752  17.007   7.923
  886POPC   C4A15558  12.550  16.976   7.527
  886POPC   C1B15559  12.745  16.383   8.700
  886POPC   C2B15560  12.863  16.311   8.271
  886POPC   C3B15561  12.805  16.483   7.869
  886POPC   C4B15562  13.148  16.441   7.606
  887POPC   NC315563  43.572  37.151   9.897
  887POPC   PO415564  43.089  36.871   9.524
  887POPC   GL115565  43.191  36.939   9.076
  887POPC   GL215566  43.384  37.183   9.018
  887POPC   C1A15567  43.094  37.039   8.627
  887POPC   D2A15568  42.920  36.855   8.250
  887POPC   C3A15569  42.886  36.980   7.814
  887POPC   C4A15570  42.656  37.093   7.413
  887POPC   C1B15571  43.385  37.454   8.688
  887POPC   C2B15572  43.261  37.362   8.271
  887POPC   C3B15573  43.259  37.335   7.848
  887POPC   C4B15574  43.616  37.303   7.569
  888POPC   NC315575  31.710  10.540   9.526
  888POPC   PO415576  31.145  10.832   9.536
  888POPC   GL115577  31.368  10.790   9.190
  888POPC   GL215578  31.715  10.764   9.091
  888POPC   C1A15579  31.308  10.802   8.774
  888POPC   D2A15580  31.310  10.425   8.561
  888POPC   C3A15581  31.237  10.492   8.150
  888POPC   C4A15582  31.281  10.315   7.744
  888POPC   C1B15583  31.790  10.632   8.689
  888POPC   C2B15584  31.654  10.776   8.293
  888POPC   C3B15585  31.711  10.530   7.924
  888POPC   C4B15586  31.961  10.510   7.578
  889POPC   NC315587  39.719  13.212   9.451
  889POPC   PO415588  40.314  13.101   9.531
  889POPC   GL115589  40.096  12.981   9.123
  889POPC   GL215590  39.784  13.064   8.985
  889POPC   C1A15591  40.158  12.861   8.699
  889POPC   D2A15592  39.878  12.972   8.385
  889POPC   C3A15593  40.035  13.028   7.985
  889POPC   C4A15594  40.193  12.748   7.680
  889POPC   C1B15595  39.670  12.717   8.779
  889POPC   C2B15596  39.476  12.648   8.407
  889POPC   C3B15597  39.654  12.659   8.017
  889POPC   C4B15598  39.506  12.822   7.650
  890POPC   NC315599  32.471  26.392   9.329
  890POPC   PO415600  32.198  25.860   9.412
  890POPC   GL115601  32.143  26.039   9.082
  890POPC   GL215602  31.989  26.329   9.188
  890POPC   C1A15603  32.387  26.022   8.731
  890POPC   D2A15604  32.262  26.149   8.328
  890POPC   C3A15605  32.539  26.209   7.980
  890POPC   C4A15606  32.527  26.022   7.579
  890POPC   C1B15607  32.108  26.458   8.774
  890POPC   C2B15608  31.942  26.563   8.412
  890POPC   C3B15609  31.898  26.362   8.033
  890POPC   C4B15610  32.124  26.318   7.684
  891POPC   NC315611   0.643   7.955   9.622
  891POPC   PO415612  44.984   7.949   9.562
  891POPC   GL115613   0.291   8.190   9.288
  891POPC   GL215614   0.602   8.031   9.125
  891POPC   C1A15615   0.416   8.463   8.927
  891POPC   D2A15616   0.601   8.255   8.550
  891POPC   C3A15617   0.455   8.406   8.154
  891POPC   C4A15618   0.363   8.261   7.743
  891POPC   C1B15619   0.795   7.817   8.791
  891POPC   C2B15620   0.953   7.859   8.399
  891POPC   C3B15621   0.758   8.029   8.069
  891POPC   C4B15622   0.682   7.871   7.693
  892POPC   NC315623  24.845  36.324   9.161
  892POPC   PO415624  24.407  35.845   9.467
  892POPC   GL115625  24.382  35.840   9.051
  892POPC   GL215626  24.333  36.216   9.022
  892POPC   C1A15627  24.336  35.872   8.613
  892POPC   D2A15628  24.597  36.088   8.326
  892POPC   C3A15629  24.479  36.051   7.917
  892POPC   C4A15630  24.655  36.226   7.574
  892POPC   C1B15631  24.031  36.294   8.683
  892POPC   C2B15632  24.119  36.286   8.235
  892POPC   C3B15633  24.046  36.286   7.792
  892POPC   C4B15634  24.248  35.995   7.443
  893POPC   NC315635   5.428  44.034   9.621
  893POPC   PO415636   4.739  44.068   9.548
  893POPC   GL115637   4.986  44.001   9.194
  893POPC   GL215638   5.341  44.117   9.135
  893POPC   C1A15639   4.831  43.859   8.807
  893POPC   D2A15640   4.941  43.657   8.415
  893POPC   C3A15641   4.879  43.830   8.021
  893POPC   C4A15642   4.792  44.114   7.689
  893POPC   C1B15643   5.329  43.966   8.728
  893POPC   C2B15644   5.286  44.028   8.310
  893POPC   C3B15645   5.243  44.187   7.917
  893POPC   C4B15646   5.295  44.216   7.468
  894POPC   NC315647  44.393  38.451   9.490
  894POPC   PO415648   0.061  38.272   9.497
  894POPC   GL115649  44.772  38.242   9.080
  894POPC   GL215650  44.518  38.463   9.000
  894POPC   C1A15651  44.690  38.264   8.575
  894POPC   D2A15652  44.507  38.251   8.130
  894POPC   C3A15653  44.783  38.065   7.779
  894POPC   C4A15654  44.987  38.304   7.386
  894POPC   C1B15655  44.446  38.686   8.572
  894POPC   C2B15656  44.553  38.749   8.123
  894POPC   C3B15657  44.612  38.546   7.691
  894POPC   C4B15658  44.493  38.691   7.238
  895POPC   NC315659  35.430  41.815   9.507
  895POPC   PO415660  34.899  41.370   9.472
  895POPC   GL115661  35.116  41.631   9.148
  895POPC   GL215662  34.941  41.819   8.910
  895POPC   C1A15663  35.442  41.670   8.814
  895POPC   D2A15664  35.687  41.434   8.500
  895POPC   C3A15665  35.770  41.565   8.092
  895POPC   C4A15666  35.487  41.515   7.753
  895POPC   C1B15667  35.010  41.453   8.634
  895POPC   C2B15668  35.204  41.462   8.215
  895POPC   C3B15669  34.988  41.542   7.821
  895POPC   C4B15670  35.062  41.341   7.436
  896POPC   NC315671  30.653   0.534   9.384
  896POPC   PO415672  30.963   0.077   9.696
  896POPC   GL115673  30.866   0.101   9.182
  896POPC   GL215674  30.630   0.174   8.979
  896POPC   C1A15675  30.989   0.288   8.684
  896POPC   D2A15676  30.807   0.663   8.435
  896POPC   C3A15677  30.895   0.713   8.011
  896POPC   C4A15678  31.181   0.407   7.871
  896POPC   C1B15679  30.449   0.470   8.753
  896POPC   C2B15680  30.415   0.315   8.384
  896POPC   C3B15681  30.630   0.273   8.048
  896POPC   C4B15682  30.502   0.259   7.621
  897POPC   NC315683  42.790  41.487   9.439
  897POPC   PO415684  43.411  41.154   9.403
  897POPC   GL115685  43.413  41.375   9.002
  897POPC   GL215686  43.124  41.593   9.067
  897POPC   C1A15687  43.175  41.351   8.612
  897POPC   D2A15688  43.062  41.194   8.215
  897POPC   C3A15689  43.221  41.477   7.884
  897POPC   C4A15690  43.291  41.553   7.453
  897POPC   C1B15691  43.006  41.828   8.703
  897POPC   C2B15692  43.182  41.789   8.325
  897POPC   C3B15693  43.225  42.073   8.021
  897POPC   C4B15694  43.018  42.019   7.645
  898POPC   NC315695  32.734  44.594   9.498
  898POPC   PO415696  33.318  44.265   9.423
  898POPC   GL115697  33.118  44.614   9.131
  898POPC   GL215698  32.743  44.624   9.011
  898POPC   C1A15699  33.101  44.746   8.683
  898POPC   D2A15700  33.273  44.977   8.332
  898POPC   C3A15701  33.457  44.696   8.016
  898POPC   C4A15702  33.100  44.446   7.829
  898POPC   C1B15703  32.527  44.866   8.735
  898POPC   C2B15704  32.353  44.655   8.440
  898POPC   C3B15705  32.719  44.623   8.212
  898POPC   C4B15706  32.718  44.791   7.829
  899POPC   NC315707  33.476  18.948   9.514
  899POPC   PO415708  33.927  19.485   9.465
  899POPC   GL115709  33.722  19.249   9.168
  899POPC   GL215710  33.926  18.978   9.139
  899POPC   C1A15711  33.566  19.220   8.771
  899POPC   D2A15712  33.459  18.995   8.409
  899POPC   C3A15713  33.668  19.199   8.098
  899POPC   C4A15714  33.905  19.242   7.788
  899POPC   C1B15715  33.917  18.833   8.698
  899POPC   C2B15716  34.054  18.927   8.288
  899POPC   C3B15717  33.853  18.760   7.908
  899POPC   C4B15718  34.050  18.698   7.468
  900POPC   NC315719  24.490  41.098   9.518
  900POPC   PO415720  24.516  41.784   9.604
  900POPC   GL115721  24.467  41.532   9.201
  900POPC   GL215722  24.236  41.262   9.114
  900POPC   C1A15723  24.546  41.513   8.752
  900POPC   D2A15724  24.381  41.820   8.457
  900POPC   C3A15725  24.343  41.780   8.038
  900POPC   C4A15726  24.641  41.717   7.738
  900POPC   C1B15727  24.185  41.069   8.718
  900POPC   C2B15728  24.439  41.158   8.377
  900POPC   C3B15729  24.439  41.281   7.978
  900POPC   C4B15730  24.157  41.171   7.680
  901POPC   NC315731  17.530  22.500   9.463
  901POPC   PO415732  17.529  21.853   9.599
  901POPC   GL115733  17.816  21.907   9.237
  901POPC   GL215734  17.875  22.232   9.157
  901POPC   C1A15735  17.833  21.827   8.808
  901POPC   D2A15736  17.539  21.961   8.479
  901POPC   C3A15737  17.619  21.905   8.038
  901POPC   C4A15738  17.345  21.811   7.708
  901POPC   C1B15739  17.916  22.331   8.710
  901POPC   C2B15740  17.743  22.399   8.291
  901POPC   C3B15741  17.588  22.429   7.890
  901POPC   C4B15742  17.302  22.363   7.566
  902POPC   NC315743  24.435  18.350   9.607
  902POPC   PO415744  24.827  17.832   9.573
  902POPC   GL115745  24.452  17.959   9.269
  902POPC   GL215746  24.399  18.327   9.107
  902POPC   C1A15747  24.255  17.923   8.850
  902POPC   D2A15748  24.082  18.115   8.467
  902POPC   C3A15749  24.390  18.207   8.147
  902POPC   C4A15750  24.409  18.003   7.707
  902POPC   C1B15751  24.401  18.496   8.668
  902POPC   C2B15752  24.410  18.755   8.281
  902POPC   C3B15753  24.207  18.594   7.900
  902POPC   C4B15754  24.317  18.451   7.455
  903POPC   NC315755  13.716  25.315   9.590
  903POPC   PO415756  13.140  25.428   9.533
  903POPC   GL115757  13.457  25.288   9.155
  903POPC   GL215758  13.777  25.126   9.129
  903POPC   C1A15759  13.417  25.365   8.707
  903POPC   D2A15760  13.443  25.606   8.328
  903POPC   C3A15761  13.428  25.323   8.010
  903POPC   C4A15762  13.370  25.379   7.577
  903POPC   C1B15763  13.893  25.202   8.733
  903POPC   C2B15764  13.738  25.046   8.348
  903POPC   C3B15765  13.890  25.050   7.921
  903POPC   C4B15766  13.772  25.097   7.472
  904POPC   NC315767   4.781  36.917   9.592
  904POPC   PO415768   5.353  36.803   9.338
  904POPC   GL115769   5.138  36.988   8.982
  904POPC   GL215770   4.746  36.966   9.071
  904POPC   C1A15771   5.247  36.799   8.554
  904POPC   D2A15772   4.946  36.498   8.347
  904POPC   C3A15773   4.892  36.647   7.958
  904POPC   C4A15774   5.287  36.833   7.791
  904POPC   C1B15775   4.762  36.823   8.686
  904POPC   C2B15776   4.871  37.062   8.324
  904POPC   C3B15777   4.896  37.150   7.908
  904POPC   C4B15778   4.855  36.916   7.484
  905POPC   NC315779  42.312  12.590   9.600
  905POPC   PO415780  42.744  12.935   9.253
  905POPC   GL115781  42.391  13.133   9.075
  905POPC   GL215782  42.188  12.815   9.113
  905POPC   C1A15783  42.331  13.141   8.633
  905POPC   D2A15784  42.307  12.719   8.455
  905POPC   C3A15785  42.516  12.711   8.056
  905POPC   C4A15786  42.501  13.121   7.864
  905POPC   C1B15787  41.893  12.906   8.761
  905POPC   C2B15788  41.863  13.075   8.375
  905POPC   C3B15789  42.036  12.883   8.043
  905POPC   C4B15790  42.195  12.773   7.637
  906POPC   NC315791  26.692  42.757   9.409
  906POPC   PO415792  26.914  42.151   9.545
  906POPC   GL115793  26.720  42.237   9.167
  906POPC   GL215794  27.022  42.421   9.111
  906POPC   C1A15795  26.564  42.125   8.751
  906POPC   D2A15796  26.789  42.138   8.362
  906POPC   C3A15797  26.642  42.229   7.979
  906POPC   C4A15798  26.624  42.020   7.600
  906POPC   C1B15799  26.913  42.513   8.701
  906POPC   C2B15800  26.719  42.680   8.338
  906POPC   C3B15801  26.930  42.853   7.972
  906POPC   C4B15802  27.016  42.470   7.730
  907POPC   NC315803  32.569   0.241   9.326
  907POPC   PO415804  32.102   0.701   9.532
  907POPC   GL115805  32.151   0.660   9.084
  907POPC   GL215806  32.195   0.324   8.989
  907POPC   C1A15807  32.006   0.672   8.649
  907POPC   D2A15808  32.021   0.330   8.292
  907POPC   C3A15809  32.209   0.450   7.922
  907POPC   C4A15810  32.054   0.833   7.769
  907POPC   C1B15811  32.424   0.344   8.596
  907POPC   C2B15812  32.549   0.149   8.195
  907POPC   C3B15813  32.692   0.291   7.763
  907POPC   C4B15814  32.591   0.167   7.291
  908POPC   NC315815  35.751   8.104   9.519
  908POPC   PO415816  35.162   8.362   9.402
  908POPC   GL115817  35.480   8.285   9.108
  908POPC   GL215818  35.430   7.923   9.139
  908POPC   C1A15819  35.446   8.276   8.670
  908POPC   D2A15820  35.253   8.137   8.271
  908POPC   C3A15821  35.359   8.345   7.876
  908POPC   C4A15822  35.546   8.561   7.513
  908POPC   C1B15823  35.236   7.811   8.735
  908POPC   C2B15824  35.473   7.662   8.365
  908POPC   C3B15825  35.578   7.845   7.978
  908POPC   C4B15826  35.179   7.870   7.797
  909POPC   NC315827  34.338  20.044   9.428
  909POPC   PO415828  34.781  19.507   9.498
  909POPC   GL115829  34.574  19.608   9.156
  909POPC   GL215830  34.727  19.938   9.121
  909POPC   C1A15831  34.473  19.686   8.735
  909POPC   D2A15832  34.629  19.656   8.331
  909POPC   C3A15833  34.374  19.824   7.994
  909POPC   C4A15834  34.499  19.686   7.568
  909POPC   C1B15835  34.922  20.227   8.869
  909POPC   C2B15836  34.701  20.178   8.523
  909POPC   C3B15837  34.751  20.343   8.129
  909POPC   C4B15838  34.514  20.260   7.776
  910POPC   NC315839   3.126  40.531   9.427
  910POPC   PO415840   2.932  41.150   9.396
  910POPC   GL115841   3.063  40.889   9.060
  910POPC   GL215842   2.771  40.670   9.058
  910POPC   C1A15843   3.041  40.773   8.627
  910POPC   D2A15844   2.811  40.960   8.328
  910POPC   C3A15845   2.708  40.747   7.992
  910POPC   C4A15846   2.940  40.743   7.661
  910POPC   C1B15847   2.579  41.005   8.787
  910POPC   C2B15848   2.391  41.226   8.429
  910POPC   C3B15849   2.344  41.091   7.973
  910POPC   C4B15850   2.451  40.865   7.544
  911POPC   NC315851   7.731  26.473   9.552
  911POPC   PO415852   7.131  26.160   9.378
  911POPC   GL115853   7.197  26.525   9.113
  911POPC   GL215854   7.483  26.725   9.129
  911POPC   C1A15855   7.082  26.759   8.759
  911POPC   D2A15856   7.295  26.827   8.376
  911POPC   C3A15857   7.096  26.819   7.972
  911POPC   C4A15858   7.342  26.566   7.697
  911POPC   C1B15859   7.529  27.050   8.785
  911POPC   C2B15860   7.590  27.237   8.320
  911POPC   C3B15861   7.584  27.001   7.925
  911POPC   C4B15862   7.395  27.035   7.504
  912POPC   NC315863  33.908   2.282   9.551
  912POPC   PO415864  33.208   1.998   9.598
  912POPC   GL115865  33.463   1.916   9.194
  912POPC   GL215866  33.692   2.167   9.133
  912POPC   C1A15867  33.690   1.876   8.748
  912POPC   D2A15868  33.854   1.710   8.357
  912POPC   C3A15869  33.729   1.879   7.980
  912POPC   C4A15870  34.010   2.070   7.708
  912POPC   C1B15871  33.847   2.376   8.758
  912POPC   C2B15872  33.927   2.231   8.336
  912POPC   C3B15873  33.794   2.442   7.970
  912POPC   C4B15874  33.806   2.469   7.489
  913POPC   NC315875  23.587  16.059   9.536
  913POPC   PO415876  23.954  15.503   9.568
  913POPC   GL115877  23.883  15.816   9.187
  913POPC   GL215878  23.681  16.194   9.078
  913POPC   C1A15879  23.945  15.942   8.745
  913POPC   D2A15880  24.021  15.716   8.387
  913POPC   C3A15881  23.803  15.922   8.093
  913POPC   C4A15882  23.722  15.844   7.690
  913POPC   C1B15883  23.479  15.812   8.889
  913POPC   C2B15884  23.401  15.790   8.461
  913POPC   C3B15885  23.372  16.141   8.207
  913POPC   C4B15886  23.568  16.316   7.828
  914POPC   NC315887   3.885  19.364   9.253
  914POPC   PO415888   3.476  18.909   9.584
  914POPC   GL115889   3.487  19.022   9.127
  914POPC   GL215890   3.164  19.149   9.036
  914POPC   C1A15891   3.586  19.207   8.685
  914POPC   D2A15892   3.897  19.170   8.341
  914POPC   C3A15893   3.778  19.153   7.947
  914POPC   C4A15894   3.454  18.915   7.807
  914POPC   C1B15895   3.130  18.998   8.608
  914POPC   C2B15896   3.242  19.191   8.205
  914POPC   C3B15897   3.346  19.420   7.818
  914POPC   C4B15898   3.713  19.473   7.551
  915POPC   NC315899  42.012  14.118   9.325
  915POPC   PO415900  42.407  14.518   9.714
  915POPC   GL115901  42.455  14.451   9.232
  915POPC   GL215902  42.129  14.554   9.074
  915POPC   C1A15903  42.697  14.579   8.822
  915POPC   D2A15904  42.551  14.474   8.372
  915POPC   C3A15905  42.603  14.647   7.961
  915POPC   C4A15906  42.456  14.606   7.530
  915POPC   C1B15907  42.269  14.276   8.747
  915POPC   C2B15908  42.117  14.232   8.327
  915POPC   C3B15909  42.149  14.372   7.888
  915POPC   C4B15910  42.073  14.294   7.422
  916POPC   NC315911  12.756  27.783   9.603
  916POPC   PO415912  13.183  27.342   9.630
  916POPC   GL115913  13.134  27.653   9.265
  916POPC   GL215914  12.802  27.735   9.109
  916POPC   C1A15915  13.239  27.861   8.887
  916POPC   D2A15916  13.066  28.027   8.533
  916POPC   C3A15917  13.176  27.802   8.180
  916POPC   C4A15918  13.105  27.607   7.795
  916POPC   C1B15919  12.857  27.527   8.738
  916POPC   C2B15920  12.707  27.617   8.328
  916POPC   C3B15921  12.635  27.742   7.908
  916POPC   C4B15922  12.682  27.387   7.606
  917POPC   NC315923  14.930  27.657   9.439
  917POPC   PO415924  15.437  27.297   9.491
  917POPC   GL115925  15.268  27.466   9.097
  917POPC   GL215926  14.927  27.372   9.029
  917POPC   C1A15927  15.232  27.483   8.642
  917POPC   D2A15928  14.995  27.254   8.354
  917POPC   C3A15929  15.014  27.404   7.934
  917POPC   C4A15930  15.308  27.623   7.681
  917POPC   C1B15931  14.732  27.602   8.713
  917POPC   C2B15932  14.869  27.771   8.318
  917POPC   C3B15933  14.799  27.861   7.899
  917POPC   C4B15934  14.982  28.092   7.560
  918POPC   NC315935   0.869  23.842   9.486
  918POPC   PO415936   1.470  23.646   9.654
  918POPC   GL115937   1.261  23.608   9.209
  918POPC   GL215938   1.164  23.887   9.077
  918POPC   C1A15939   1.361  23.513   8.746
  918POPC   D2A15940   1.659  23.540   8.378
  918POPC   C3A15941   1.452  23.709   8.004
  918POPC   C4A15942   1.089  23.492   7.835
  918POPC   C1B15943   1.086  23.983   8.702
  918POPC   C2B15944   1.028  23.733   8.346
  918POPC   C3B15945   0.884  23.919   7.989
  918POPC   C4B15946   1.217  24.147   7.818
  919POPC   NC315947   1.890  37.228   9.464
  919POPC   PO415948   2.166  36.603   9.349
  919POPC   GL115949   2.013  36.946   9.045
  919POPC   GL215950   2.147  37.335   9.040
  919POPC   C1A15951   1.867  36.804   8.632
  919POPC   D2A15952   1.934  36.493   8.300
  919POPC   C3A15953   2.024  36.677   7.875
  919POPC   C4A15954   2.422  36.541   7.669
  919POPC   C1B15955   2.212  37.175   8.610
  919POPC   C2B15956   1.929  37.095   8.241
  919POPC   C3B15957   2.015  37.212   7.886
  919POPC   C4B15958   1.863  37.139   7.528
  920POPC   NC315959   9.258  38.836   9.474
  920POPC   PO415960   8.765  38.389   9.468
  920POPC   GL115961   9.053  38.450   9.112
  920POPC   GL215962   9.035  38.798   9.009
  920POPC   C1A15963   9.051  38.404   8.646
  920POPC   D2A15964   8.977  38.396   8.204
  920POPC   C3A15965   9.024  38.468   7.763
  920POPC   C4A15966   8.717  38.361   7.412
  920POPC   C1B15967   9.395  38.772   8.757
  920POPC   C2B15968   9.441  38.598   8.335
  920POPC   C3B15969   9.419  38.807   7.951
  920POPC   C4B15970   9.243  38.873   7.556
  921POPC   NC315971  40.504  10.532   9.705
  921POPC   PO415972  39.887  10.363   9.542
  921POPC   GL115973  40.035  10.391   9.144
  921POPC   GL215974  40.354  10.567   9.185
  921POPC   C1A15975  39.891  10.505   8.699
  921POPC   D2A15976  39.936  10.878   8.410
  921POPC   C3A15977  39.956  10.814   7.965
  921POPC   C4A15978  39.773  10.511   7.696
  921POPC   C1B15979  40.369  10.424   8.772
  921POPC   C2B15980  40.308  10.504   8.352
  921POPC   C3B15981  40.138  10.313   7.993
  921POPC   C4B15982  40.328  10.021   7.717
  922POPC   NC315983   9.899  18.745   9.630
  922POPC   PO415984   9.856  19.419   9.697
  922POPC   GL115985   9.766  19.156   9.303
  922POPC   GL215986  10.054  18.988   9.145
  922POPC   C1A15987   9.533  19.019   8.909
  922POPC   D2A15988   9.564  18.985   8.451
  922POPC   C3A15989   9.860  18.830   8.128
  922POPC   C4A15990   9.671  18.724   7.699
  922POPC   C1B15991   9.991  19.200   8.744
  922POPC   C2B15992  10.125  19.340   8.329
  922POPC   C3B15993   9.915  19.342   7.951
  922POPC   C4B15994   9.508  19.142   7.940
  923POPC   NC315995  43.760  21.696   9.518
  923POPC   PO415996  44.108  21.031   9.476
  923POPC   GL115997  43.993  21.371   9.198
  923POPC   GL215998  43.664  21.460   9.083
  923POPC   C1A15999  44.048  21.460   8.759
  923POPC   D2A16000  43.878  21.438   8.380
  923POPC   C3A16001  43.858  21.655   8.011
  923POPC   C4A16002  43.827  21.512   7.628
  923POPC   C1B16003  43.602  21.177   8.765
  923POPC   C2B16004  43.458  21.139   8.340
  923POPC   C3B16005  43.734  21.123   7.985
  923POPC   C4B16006  43.675  20.938   7.613
  924POPC   NC316007  10.166  29.933   9.611
  924POPC   PO416008   9.597  29.915   9.348
  924POPC   GL116009   9.882  30.032   9.097
  924POPC   GL216010  10.013  29.701   9.087
  924POPC   C1A16011   9.764  29.907   8.685
  924POPC   D2A16012   9.584  29.756   8.344
  924POPC   C3A16013   9.818  29.929   8.045
  924POPC   C4A16014   9.831  30.071   7.653
  924POPC   C1B16015  10.242  29.705   8.672
  924POPC   C2B16016  10.174  29.525   8.236
  924POPC   C3B16017  10.105  29.589   7.777
  924POPC   C4B16018   9.903  29.573   7.325
  925POPC   NC316019  32.100  42.847   9.441
  925POPC   PO416020  32.720  42.635   9.472
  925POPC   GL116021  32.380  42.488   9.155
  925POPC   GL216022  32.075  42.335   9.229
  925POPC   C1A16023  32.242  42.605   8.710
  925POPC   D2A16024  32.203  42.797   8.272
  925POPC   C3A16025  32.391  42.506   7.999
  925POPC   C4A16026  32.356  42.402   7.553
  925POPC   C1B16027  32.074  42.142   8.806
  925POPC   C2B16028  32.300  42.164   8.398
  925POPC   C3B16029  32.172  42.033   7.967
  925POPC   C4B16030  31.731  41.967   7.789
  926POPC   NC316031  43.815  41.043   9.605
  926POPC   PO416032  44.154  40.526   9.631
  926POPC   GL116033  44.033  40.732   9.251
  926POPC   GL216034  43.820  40.479   9.065
  926POPC   C1A16035  43.868  40.968   8.900
  926POPC   D2A16036  43.808  40.711   8.553
  926POPC   C3A16037  43.830  40.750   8.125
  926POPC   C4A16038  43.804  40.774   7.682
  926POPC   C1B16039  44.175  40.393   8.753
  926POPC   C2B16040  44.294  40.528   8.309
  926POPC   C3B16041  44.132  40.415   7.874
  926POPC   C4B16042  44.063  40.480   7.367
  927POPC   NC316043  13.765   0.021   9.430
  927POPC   PO416044  13.226  44.805   9.248
  927POPC   GL116045  13.546  44.918   8.965
  927POPC   GL216046  13.787  44.665   9.007
  927POPC   C1A16047  13.649  44.841   8.529
  927POPC   D2A16048  13.403  44.793   8.147
  927POPC   C3A16049  13.530  44.953   7.740
  927POPC   C4A16050  13.748  44.873   7.341
  927POPC   C1B16051  13.748  44.344   8.672
  927POPC   C2B16052  13.743  44.402   8.227
  927POPC   C3B16053  13.520  44.408   7.815
  927POPC   C4B16054  13.659  44.345   7.397
  928POPC   NC316055  30.908  32.490   9.312
  928POPC   PO416056  30.334  32.293   9.566
  928POPC   GL116057  30.456  32.400   9.113
  928POPC   GL216058  30.634  32.069   9.121
  928POPC   C1A16059  30.695  32.282   8.664
  928POPC   D2A16060  30.715  32.103   8.210
  928POPC   C3A16061  30.993  32.322   7.904
  928POPC   C4A16062  30.966  32.409   7.430
  928POPC   C1B16063  30.259  32.050   8.818
  928POPC   C2B16064  30.192  32.029   8.369
  928POPC   C3B16065  30.242  32.069   7.916
  928POPC   C4B16066  30.232  32.138   7.462
  929POPC   NC316067   9.114  25.543   9.482
  929POPC   PO416068   8.858  24.885   9.436
  929POPC   GL116069   8.867  25.073   9.076
  929POPC   GL216070   8.811  25.407   9.082
  929POPC   C1A16071   9.090  24.930   8.732
  929POPC   D2A16072   9.211  24.801   8.325
  929POPC   C3A16073   9.001  25.038   8.004
  929POPC   C4A16074   9.212  25.379   7.794
  929POPC   C1B16075   8.777  25.514   8.631
  929POPC   C2B16076   8.882  25.547   8.168
  929POPC   C3B16077   8.823  25.683   7.718
  929POPC   C4B16078   8.793  25.499   7.269
  930POPC   NC316079   8.232  31.834   9.550
  930POPC   PO416080   8.562  32.430   9.545
  930POPC   GL116081   8.257  32.217   9.194
  930POPC   GL216082   7.944  31.933   9.160
  930POPC   C1A16083   8.301  32.278   8.753
  930POPC   D2A16084   8.033  32.501   8.498
  930POPC   C3A16085   8.072  32.426   8.066
  930POPC   C4A16086   8.030  32.552   7.631
  930POPC   C1B16087   7.812  32.057   8.764
  930POPC   C2B16088   8.025  31.998   8.402
  930POPC   C3B16089   7.905  31.942   7.994
  930POPC   C4B16090   8.200  32.054   7.641
  931POPC   NC316091  34.987  28.424   9.305
  931POPC   PO416092  34.351  28.621   9.515
  931POPC   GL116093  34.450  28.409   9.184
  931POPC   GL216094  34.392  28.076   9.294
  931POPC   C1A16095  34.557  28.486   8.770
  931POPC   D2A16096  34.809  28.443   8.409
  931POPC   C3A16097  34.527  28.561   8.092
  931POPC   C4A16098  34.570  28.713   7.700
  931POPC   C1B16099  34.590  27.970   8.914
  931POPC   C2B16100  34.477  28.020   8.490
  931POPC   C3B16101  34.619  28.059   8.091
  931POPC   C4B16102  34.863  27.976   7.756
  932POPC   NC316103  15.283  22.821   9.898
  932POPC   PO416104  15.013  23.118   9.350
  932POPC   GL116105  15.399  23.136   9.138
  932POPC   GL216106  15.476  22.774   9.227
  932POPC   C1A16107  15.335  23.203   8.684
  932POPC   D2A16108  14.902  23.117   8.421
  932POPC   C3A16109  14.945  23.205   7.959
  932POPC   C4A16110  15.316  23.070   7.735
  932POPC   C1B16111  15.372  22.696   8.783
  932POPC   C2B16112  15.365  22.836   8.335
  932POPC   C3B16113  15.149  22.668   7.995
  932POPC   C4B16114  15.349  22.526   7.620
  933POPC   NC316115   2.632  17.119   9.546
  933POPC   PO416116   2.863  17.700   9.541
  933POPC   GL116117   2.791  17.476   9.174
  933POPC   GL216118   3.001  17.153   9.176
  933POPC   C1A16119   2.681  17.637   8.749
  933POPC   D2A16120   2.909  17.869   8.431
  933POPC   C3A16121   2.955  17.693   8.060
  933POPC   C4A16122   2.704  17.650   7.706
  933POPC   C1B16123   2.722  17.132   8.813
  933POPC   C2B16124   2.719  17.239   8.385
  933POPC   C3B16125   2.790  17.217   7.958
  933POPC   C4B16126   2.427  17.232   7.655
  934POPC   NC316127   0.985  37.426   9.555
  934POPC   PO416128   1.104  38.113   9.365
  934POPC   GL116129   1.159  37.730   9.111
  934POPC   GL216130   0.875  37.488   9.072
  934POPC   C1A16131   1.386  37.680   8.709
  934POPC   D2A16132   1.240  37.705   8.299
  934POPC   C3A16133   1.396  38.017   8.028
  934POPC   C4A16134   1.292  38.082   7.605
  934POPC   C1B16135   0.898  37.526   8.662
  934POPC   C2B16136   0.680  37.458   8.312
  934POPC   C3B16137   0.996  37.296   8.079
  934POPC   C4B16138   1.202  37.573   7.793
  935POPC   NC316139  13.125   6.694   9.622
  935POPC   PO416140  12.695   6.162   9.486
  935POPC   GL116141  12.771   6.533   9.200
  935POPC   GL216142  13.084   6.727   9.127
  935POPC   C1A16143  12.615   6.770   8.818
  935POPC   D2A16144  12.377   6.660   8.453
  935POPC   C3A16145  12.589   6.768   8.035
  935POPC   C4A16146  12.980   6.735   7.810
  935POPC   C1B16147  13.102   6.916   8.741
  935POPC   C2B16148  13.267   6.950   8.337
  935POPC   C3B16149  13.395   7.035   7.931
  935POPC   C4B16150  13.240   7.051   7.492
  936POPC   NC316151  32.616  32.791   9.465
  936POPC   PO416152  32.148  33.282   9.556
  936POPC   GL116153  32.201  32.994   9.215
  936POPC   GL216154  32.475  33.148   9.102
  936POPC   C1A16155  32.003  33.054   8.811
  936POPC   D2A16156  31.929  33.370   8.496
  936POPC   C3A16157  31.970  33.212   8.074
  936POPC   C4A16158  32.075  32.997   7.709
  936POPC   C1B16159  32.450  32.806   8.780
  936POPC   C2B16160  32.201  32.817   8.378
  936POPC   C3B16161  32.362  32.688   7.971
  936POPC   C4B16162  32.573  32.975   7.671
  937POPC   NC316163  38.743   7.277   9.255
  937POPC   PO416164  38.251   7.652   9.309
  937POPC   GL116165  38.296   7.351   9.001
  937POPC   GL216166  38.295   7.001   9.193
  937POPC   C1A16167  38.566   7.483   8.635
  937POPC   D2A16168  38.795   7.828   8.391
  937POPC   C3A16169  38.798   7.731   7.958
  937POPC   C4A16170  38.423   7.707   7.739
  937POPC   C1B16171  38.252   6.913   8.762
  937POPC   C2B16172  38.155   7.227   8.459
  937POPC   C3B16173  38.438   7.381   8.134
  937POPC   C4B16174  38.674   7.220   7.751
  938POPC   NC316175  17.491  11.145   9.619
  938POPC   PO416176  17.996  11.582   9.500
  938POPC   GL116177  17.640  11.378   9.199
  938POPC   GL216178  17.482  11.003   9.138
  938POPC   C1A16179  17.541  11.325   8.765
  938POPC   D2A16180  17.269  11.313   8.441
  938POPC   C3A16181  17.521  11.328   8.065
  938POPC   C4A16182  17.306  11.514   7.748
  938POPC   C1B16183  17.337  10.847   8.724
  938POPC   C2B16184  17.469  10.868   8.292
  938POPC   C3B16185  17.714  10.860   7.921
  938POPC   C4B16186  17.634  11.101   7.580
  939POPC   NC316187  13.220  18.271   9.247
  939POPC   PO416188  13.825  18.342   9.486
  939POPC   GL116189  13.724  18.256   9.086
  939POPC   GL216190  13.650  18.580   9.060
  939POPC   C1A16191  13.583  18.259   8.652
  939POPC   D2A16192  13.543  17.987   8.277
  939POPC   C3A16193  13.741  18.150   7.904
  939POPC   C4A16194  13.637  18.277   7.456
  939POPC   C1B16195  13.823  18.730   8.693
  939POPC   C2B16196  13.884  18.514   8.308
  939POPC   C3B16197  13.808  18.660   7.901
  939POPC   C4B16198  13.894  18.693   7.468
  940POPC   NC316199   9.368  30.299   9.496
  940POPC   PO416200   9.029  29.686   9.551
  940POPC   GL116201   9.109  29.747   9.134
  940POPC   GL216202   9.036  30.090   9.159
  940POPC   C1A16203   8.860  29.723   8.752
  940POPC   D2A16204   8.639  29.556   8.381
  940POPC   C3A16205   8.815  29.755   8.035
  940POPC   C4A16206   8.744  30.148   7.816
  940POPC   C1B16207   9.265  30.112   8.774
  940POPC   C2B16208   9.115  29.993   8.385
  940POPC   C3B16209   9.278  29.947   7.983
  940POPC   C4B16210   9.329  30.231   7.695
  941POPC   NC316211  38.675   1.063   9.589
  941POPC   PO416212  38.073   1.522   9.512
  941POPC   GL116213  38.216   1.363   9.114
  941POPC   GL216214  38.537   1.244   9.102
  941POPC   C1A16215  38.248   1.200   8.689
  941POPC   D2A16216  38.356   1.051   8.272
  941POPC   C3A16217  38.372   1.350   7.957
  941POPC   C4A16218  38.512   0.997   7.735
  941POPC   C1B16219  38.803   1.019   8.851
  941POPC   C2B16220  38.939   0.852   8.468
  941POPC   C3B16221  38.732   0.670   8.121
  941POPC   C4B16222  38.859   0.604   7.690
  942POPC   NC316223  17.558   8.952   9.583
  942POPC   PO416224  17.452   8.373   9.452
  942POPC   GL116225  17.636   8.649   9.158
  942POPC   GL216226  17.674   9.030   9.110
  942POPC   C1A16227  17.769   8.670   8.746
  942POPC   D2A16228  17.553   8.648   8.370
  942POPC   C3A16229  17.684   8.724   7.947
  942POPC   C4A16230  17.376   8.637   7.619
  942POPC   C1B16231  17.594   9.311   8.787
  942POPC   C2B16232  17.648   9.148   8.404
  942POPC   C3B16233  17.581   9.254   8.017
  942POPC   C4B16234  17.696   9.168   7.617
  943POPC   NC316235  17.663  23.484   9.401
  943POPC   PO416236  17.410  22.907   9.648
  943POPC   GL116237  17.527  22.961   9.178
  943POPC   GL216238  17.710  22.708   9.018
  943POPC   C1A16239  17.289  22.939   8.744
  943POPC   D2A16240  17.129  23.187   8.372
  943POPC   C3A16241  17.185  23.073   7.936
  943POPC   C4A16242  17.449  22.879   7.642
  943POPC   C1B16243  17.766  22.822   8.598
  943POPC   C2B16244  17.591  22.900   8.193
  943POPC   C3B16245  17.715  23.240   7.922
  943POPC   C4B16246  17.908  23.597   7.710
  944POPC   NC316247  41.867  14.926   9.330
  944POPC   PO416248  41.361  15.314   9.499
  944POPC   GL116249  41.361  15.187   9.100
  944POPC   GL216250  41.696  15.297   9.056
  944POPC   C1A16251  41.410  15.226   8.657
  944POPC   D2A16252  41.434  14.889   8.414
  944POPC   C3A16253  41.400  15.060   8.039
  944POPC   C4A16254  41.518  15.085   7.631
  944POPC   C1B16255  41.918  15.172   8.700
  944POPC   C2B16256  41.841  15.163   8.272
  944POPC   C3B16257  41.960  15.378   7.915
  944POPC   C4B16258  41.887  15.369   7.461
  945POPC   NC316259  44.242  22.684   9.403
  945POPC   PO416260  44.120  21.992   9.476
  945POPC   GL116261  44.005  21.879   9.094
  945POPC   GL216262  44.317  21.761   9.053
  945POPC   C1A16263  43.753  21.900   8.724
  945POPC   D2A16264  43.825  22.055   8.324
  945POPC   C3A16265  43.535  22.064   7.996
  945POPC   C4A16266  43.747  22.040   7.625
  945POPC   C1B16267  44.255  21.916   8.648
  945POPC   C2B16268  44.291  21.778   8.256
  945POPC   C3B16269  44.220  21.979   7.865
  945POPC   C4B16270  44.168  21.853   7.452
  946POPC   NC316271  39.445  28.165   9.662
  946POPC   PO416272  39.369  27.454   9.694
  946POPC   GL116273  39.342  27.686   9.264
  946POPC   GL216274  39.006  27.716   9.108
  946POPC   C1A16275  39.584  27.689   8.858
  946POPC   D2A16276  39.647  27.941   8.483
  946POPC   C3A16277  39.316  27.886   8.168
  946POPC   C4A16278  39.310  27.730   7.754
  946POPC   C1B16279  39.124  27.689   8.666
  946POPC   C2B16280  38.902  27.590   8.329
  946POPC   C3B16281  38.917  27.433   7.953
  946POPC   C4B16282  39.217  27.226   7.782
  947POPC   NC316283  12.416  21.743   9.421
  947POPC   PO416284  12.934  21.314   9.618
  947POPC   GL116285  12.938  21.499   9.131
  947POPC   GL216286  12.777  21.812   9.063
  947POPC   C1A16287  12.777  21.324   8.669
  947POPC   D2A16288  12.823  21.490   8.243
  947POPC   C3A16289  12.774  21.320   7.810
  947POPC   C4A16290  13.124  21.367   7.485
  947POPC   C1B16291  12.470  21.735   8.729
  947POPC   C2B16292  12.369  21.700   8.338
  947POPC   C3B16293  12.559  21.815   7.941
  947POPC   C4B16294  12.812  21.780   7.571
  948POPC   NC316295  36.037  36.832   9.473
  948POPC   PO416296  36.675  37.077   9.420
  948POPC   GL116297  36.496  37.213   9.024
  948POPC   GL216298  36.109  37.217   9.062
  948POPC   C1A16299  36.379  37.148   8.596
  948POPC   D2A16300  36.016  37.076   8.345
  948POPC   C3A16301  36.092  36.758   8.047
  948POPC   C4A16302  36.064  36.815   7.593
  948POPC   C1B16303  36.044  36.804   8.805
  948POPC   C2B16304  35.763  36.644   8.461
  948POPC   C3B16305  35.602  36.756   8.060
  948POPC   C4B16306  35.611  36.587   7.633
  949POPC   NC316307  26.794  37.366   9.606
  949POPC   PO416308  27.120  37.964   9.496
  949POPC   GL116309  26.789  37.775   9.209
  949POPC   GL216310  26.972  37.512   9.143
  949POPC   C1A16311  26.644  37.568   8.776
  949POPC   D2A16312  26.862  37.459   8.358
  949POPC   C3A16313  26.742  37.570   7.912
  949POPC   C4A16314  26.824  37.878   7.537
  949POPC   C1B16315  27.147  37.695   8.774
  949POPC   C2B16316  27.355  37.638   8.375
  949POPC   C3B16317  27.232  37.583   7.987
  949POPC   C4B16318  27.349  37.423   7.608
  950POPC   NC316319  30.752  22.402   9.531
  950POPC   PO416320  30.466  21.765   9.538
  950POPC   GL116321  30.540  22.063   9.186
  950POPC   GL216322  30.896  22.081   9.141
  950POPC   C1A16323  30.547  22.201   8.750
  950POPC   D2A16324  30.301  22.290   8.359
  950POPC   C3A16325  30.415  22.126   7.956
  950POPC   C4A16326  30.532  22.359   7.592
  950POPC   C1B16327  31.066  22.280   8.764
  950POPC   C2B16328  31.033  22.423   8.372
  950POPC   C3B16329  30.885  22.402   7.959
  950POPC   C4B16330  30.943  22.049   7.658
  951POPC   NC316331  30.160  21.144   9.766
  951POPC   PO416332  30.858  21.141   9.608
  951POPC   GL116333  30.631  21.211   9.239
  951POPC   GL216334  30.702  21.562   9.141
  951POPC   C1A16335  30.705  21.208   8.789
  951POPC   D2A16336  30.880  21.062   8.393
  951POPC   C3A16337  30.594  21.119   8.073
  951POPC   C4A16338  30.699  21.194   7.684
  951POPC   C1B16339  30.427  21.668   8.760
  951POPC   C2B16340  30.462  21.675   8.286
  951POPC   C3B16341  30.628  21.666   7.855
  951POPC   C4B16342  30.510  21.861   7.464
  952POPC   NC316343   0.773  31.361   9.475
  952POPC   PO416344   0.117  31.650   9.479
  952POPC   GL116345   0.350  31.363   9.191
  952POPC   GL216346   0.608  31.583   9.050
  952POPC   C1A16347   0.368  31.137   8.806
  952POPC   D2A16348   0.494  31.169   8.407
  952POPC   C3A16349   0.288  31.366   8.080
  952POPC   C4A16350   0.380  31.304   7.653
  952POPC   C1B16351   0.282  31.626   8.752
  952POPC   C2B16352   0.197  31.786   8.376
  952POPC   C3B16353   0.459  31.841   8.011
  952POPC   C4B16354   0.610  31.764   7.592
  953POPC   NC316355   1.058   7.144   9.496
  953POPC   PO416356   0.987   6.510   9.520
  953POPC   GL116357   1.084   6.762   9.165
  953POPC   GL216358   1.247   6.501   8.976
  953POPC   C1A16359   1.282   7.007   8.844
  953POPC   D2A16360   1.443   6.972   8.467
  953POPC   C3A16361   1.415   6.640   8.202
  953POPC   C4A16362   1.434   6.693   7.764
  953POPC   C1B16363   1.017   6.249   8.680
  953POPC   C2B16364   0.770   6.361   8.329
  953POPC   C3B16365   0.974   6.436   7.970
  953POPC   C4B16366   1.339   6.233   7.902
  954POPC   NC316367  33.347  33.685   9.500
  954POPC   PO416368  32.786  33.928   9.732
  954POPC   GL116369  32.868  33.901   9.283
  954POPC   GL216370  32.777  33.577   9.126
  954POPC   C1A16371  32.841  34.019   8.832
  954POPC   D2A16372  32.803  33.798   8.446
  954POPC   C3A16373  32.920  33.936   8.022
  954POPC   C4A16374  32.885  33.552   7.802
  954POPC   C1B16375  33.134  33.604   8.875
  954POPC   C2B16376  33.318  33.708   8.513
  954POPC   C3B16377  33.334  33.639   8.084
  954POPC   C4B16378  33.392  33.435   7.713
  955POPC   NC316379   0.381  18.899   9.620
  955POPC   PO416380   0.648  18.278   9.597
  955POPC   GL116381   0.408  18.138   9.251
  955POPC   GL216382   0.381  18.474   9.175
  955POPC   C1A16383   0.417  18.097   8.800
  955POPC   D2A16384   0.599  18.224   8.409
  955POPC   C3A16385   0.487  17.965   8.055
  955POPC   C4A16386   0.359  18.079   7.652
  955POPC   C1B16387   0.688  18.538   8.884
  955POPC   C2B16388   0.496  18.733   8.540
  955POPC   C3B16389   0.196  18.559   8.234
  955POPC   C4B16390   0.265  18.583   7.788
  956POPC   NC316391  23.040  24.759   9.555
  956POPC   PO416392  22.620  24.246   9.660
  956POPC   GL116393  22.760  24.323   9.230
  956POPC   GL216394  22.644  24.658   9.202
  956POPC   C1A16395  23.005  24.499   8.862
  956POPC   D2A16396  23.176  24.371   8.457
  956POPC   C3A16397  23.237  24.600   8.067
  956POPC   C4A16398  23.169  24.473   7.660
  956POPC   C1B16399  22.580  24.786   8.759
  956POPC   C2B16400  22.815  24.770   8.357
  956POPC   C3B16401  22.725  24.598   7.945
  956POPC   C4B16402  22.386  24.708   7.647
  957POPC   NC316403  12.201  14.081   9.704
  957POPC   PO416404  11.733  14.507   9.751
  957POPC   GL116405  12.004  14.284   9.277
  957POPC   GL216406  12.080  14.561   8.954
  957POPC   C1A16407  12.181  14.104   8.832
  957POPC   D2A16408  12.112  14.350   8.442
  957POPC   C3A16409  12.208  14.260   8.006
  957POPC   C4A16410  12.517  14.423   7.812
  957POPC   C1B16411  11.778  14.739   8.580
  957POPC   C2B16412  11.505  14.626   8.186
  957POPC   C3B16413  11.715  14.567   7.797
  957POPC   C4B16414  12.111  14.757   7.842
  958POPC   NC316415  24.203   1.670   9.487
  958POPC   PO416416  24.031   2.293   9.275
  958POPC   GL116417  23.856   2.000   8.987
  958POPC   GL216418  23.951   1.640   9.027
  958POPC   C1A16419  23.745   2.116   8.570
  958POPC   D2A16420  23.993   2.112   8.198
  958POPC   C3A16421  23.814   2.011   7.784
  958POPC   C4A16422  23.465   2.199   7.527
  958POPC   C1B16423  23.804   1.625   8.593
  958POPC   C2B16424  23.740   1.661   8.178
  958POPC   C3B16425  23.935   1.521   7.826
  958POPC   C4B16426  23.844   1.567   7.405
  959POPC   NC316427   9.568  39.595   9.558
  959POPC   PO416428  10.107  39.080   9.634
  959POPC   GL116429   9.872  39.253   9.281
  959POPC   GL216430  10.099  39.476   9.122
  959POPC   C1A16431   9.824  39.093   8.826
  959POPC   D2A16432   9.601  39.086   8.414
  959POPC   C3A16433   9.804  39.204   8.033
  959POPC   C4A16434   9.755  39.064   7.612
  959POPC   C1B16435   9.680  39.583   8.913
  959POPC   C2B16436   9.458  39.660   8.522
  959POPC   C3B16437   9.270  39.412   8.197
  959POPC   C4B16438   9.367  39.330   7.781
  960POPC   NC316439  32.616  34.346   9.582
  960POPC   PO416440  33.092  34.838   9.451
  960POPC   GL116441  32.808  34.781   9.144
  960POPC   GL216442  32.786  34.433   9.108
  960POPC   C1A16443  32.744  34.763   8.702
  960POPC   D2A16444  32.811  34.380   8.444
  960POPC   C3A16445  32.921  34.473   8.006
  960POPC   C4A16446  32.769  34.784   7.695
  960POPC   C1B16447  33.168  34.477   8.819
  960POPC   C2B16448  33.326  34.509   8.370
  960POPC   C3B16449  33.449  34.692   7.948
  960POPC   C4B16450  33.370  34.670   7.483
  961POPC   NC316451  39.558  41.035   9.341
  961POPC   PO416452  39.264  40.426   9.535
  961POPC   GL116453  39.347  40.629   9.145
  961POPC   GL216454  39.015  40.624   9.095
  961POPC   C1A16455  39.512  40.738   8.713
  961POPC   D2A16456  39.272  40.696   8.318
  961POPC   C3A16457  39.256  40.697   7.872
  961POPC   C4A16458  39.234  41.114   7.726
  961POPC   C1B16459  39.082  40.413   8.720
  961POPC   C2B16460  38.829  40.426   8.342
  961POPC   C3B16461  38.852  40.348   7.925
  961POPC   C4B16462  38.865  40.556   7.559
  962POPC   NC316463  16.744  29.523   9.339
  962POPC   PO416464  16.837  30.131   9.623
  962POPC   GL116465  16.848  30.013   9.180
  962POPC   GL216466  16.599  30.189   8.988
  962POPC   C1A16467  16.998  29.990   8.725
  962POPC   D2A16468  17.077  30.116   8.281
  962POPC   C3A16469  16.845  29.880   7.930
  962POPC   C4A16470  17.025  29.807   7.488
  962POPC   C1B16471  16.520  29.849   8.639
  962POPC   C2B16472  16.305  29.697   8.246
  962POPC   C3B16473  16.290  29.691   7.793
  962POPC   C4B16474  16.538  29.936   7.488
  963POPC   NC316475  22.858  15.385   9.657
  963POPC   PO416476  23.227  14.828   9.441
  963POPC   GL116477  22.878  15.082   9.172
  963POPC   GL216478  22.860  15.459   9.157
  963POPC   C1A16479  22.742  15.174   8.708
  963POPC   D2A16480  22.466  15.253   8.315
  963POPC   C3A16481  22.566  15.088   7.888
  963POPC   C4A16482  22.938  14.888   7.733
  963POPC   C1B16483  23.219  15.356   8.900
  963POPC   C2B16484  23.218  15.316   8.465
  963POPC   C3B16485  22.972  15.264   8.118
  963POPC   C4B16486  22.959  15.408   7.695
  964POPC   NC316487  26.568  22.399   9.603
  964POPC   PO416488  27.085  21.905   9.793
  964POPC   GL116489  26.920  22.135   9.368
  964POPC   GL216490  27.162  22.352   9.203
  964POPC   C1A16491  26.660  22.180   8.957
  964POPC   D2A16492  26.547  22.345   8.519
  964POPC   C3A16493  26.810  22.202   8.145
  964POPC   C4A16494  27.062  22.145   7.762
  964POPC   C1B16495  27.079  22.440   8.765
  964POPC   C2B16496  26.944  22.648   8.370
  964POPC   C3B16497  26.583  22.680   8.091
  964POPC   C4B16498  26.628  22.461   7.720
  965POPC   NC316499  26.622  18.795   9.794
  965POPC   PO416500  26.875  18.202   9.779
  965POPC   GL116501  26.851  18.333   9.265
  965POPC   GL216502  26.569  18.450   9.006
  965POPC   C1A16503  27.028  18.510   8.823
  965POPC   D2A16504  26.882  18.678   8.405
  965POPC   C3A16505  27.027  18.450   8.042
  965POPC   C4A16506  27.110  18.504   7.600
  965POPC   C1B16507  26.603  18.243   8.614
  965POPC   C2B16508  26.332  17.977   8.368
  965POPC   C3B16509  26.498  17.985   7.965
  965POPC   C4B16510  26.635  18.359   7.708
  966POPC   NC316511   7.519   2.304   9.516
  966POPC   PO416512   7.235   1.719   9.338
  966POPC   GL116513   7.210   2.157   9.128
  966POPC   GL216514   7.591   2.253   9.027
  966POPC   C1A16515   7.194   2.337   8.710
  966POPC   D2A16516   7.390   2.138   8.371
  966POPC   C3A16517   7.453   2.290   7.987
  966POPC   C4A16518   7.587   2.123   7.609
  966POPC   C1B16519   7.577   1.892   8.783
  966POPC   C2B16520   7.790   1.809   8.388
  966POPC   C3B16521   7.578   1.770   8.005
  966POPC   C4B16522   7.570   1.595   7.620
  967POPC   NC316523  31.543   3.053   9.446
  967POPC   PO416524  31.774   2.393   9.446
  967POPC   GL116525  31.592   2.656   9.107
  967POPC   GL216526  31.720   2.991   8.994
  967POPC   C1A16527  31.492   2.641   8.662
  967POPC   D2A16528  31.615   2.356   8.325
  967POPC   C3A16529  31.756   2.593   7.989
  967POPC   C4A16530  31.458   2.640   7.674
  967POPC   C1B16531  31.666   3.289   8.680
  967POPC   C2B16532  31.375   3.140   8.385
  967POPC   C3B16533  31.493   3.032   7.988
  967POPC   C4B16534  31.787   3.035   7.648
  968POPC   NC316535  25.513   2.839  10.070
  968POPC   PO416536  25.228   2.672   9.474
  968POPC   GL116537  25.320   2.509   9.102
  968POPC   GL216538  25.375   2.851   9.010
  968POPC   C1A16539  25.193   2.526   8.686
  968POPC   D2A16540  25.327   2.774   8.392
  968POPC   C3A16541  25.283   2.555   8.012
  968POPC   C4A16542  25.537   2.543   7.672
  968POPC   C1B16543  25.031   3.019   8.836
  968POPC   C2B16544  24.864   2.992   8.450
  968POPC   C3B16545  25.061   3.014   8.036
  968POPC   C4B16546  24.981   2.836   7.673
  969POPC   NC316547  37.475  37.948   9.564
  969POPC   PO416548  37.640  37.291   9.554
  969POPC   GL116549  37.655  37.464   9.172
  969POPC   GL216550  37.679  37.782   9.134
  969POPC   C1A16551  37.753  37.344   8.776
  969POPC   D2A16552  37.622  37.457   8.366
  969POPC   C3A16553  37.852  37.279   8.061
  969POPC   C4A16554  37.735  37.391   7.722
  969POPC   C1B16555  37.666  37.860   8.721
  969POPC   C2B16556  37.988  37.798   8.424
  969POPC   C3B16557  37.925  37.807   8.021
  969POPC   C4B16558  37.996  37.792   7.616
  970POPC   NC316559  38.223  24.039   9.600
  970POPC   PO416560  38.717  23.661   9.571
  970POPC   GL116561  38.618  23.677   9.167
  970POPC   GL216562  38.534  23.981   9.159
  970POPC   C1A16563  38.369  23.699   8.762
  970POPC   D2A16564  38.178  23.936   8.425
  970POPC   C3A16565  38.199  23.830   8.001
  970POPC   C4A16566  38.273  24.148   7.713
  970POPC   C1B16567  38.828  23.927   8.775
  970POPC   C2B16568  38.731  23.997   8.317
  970POPC   C3B16569  38.743  23.947   7.835
  970POPC   C4B16570  38.820  24.031   7.362
  971POPC   NC316571  40.251  21.576   9.580
  971POPC   PO416572  39.759  21.287   9.421
  971POPC   GL116573  39.899  21.599   9.082
  971POPC   GL216574  40.258  21.674   9.083
  971POPC   C1A16575  39.841  21.516   8.616
  971POPC   D2A16576  39.806  21.166   8.296
  971POPC   C3A16577  39.999  21.170   7.872
  971POPC   C4A16578  39.944  21.377   7.468
  971POPC   C1B16579  40.344  21.464   8.692
  971POPC   C2B16580  40.275  21.364   8.265
  971POPC   C3B16581  40.435  21.432   7.827
  971POPC   C4B16582  40.438  21.270   7.398
  972POPC   NC316583  21.579   4.838   9.260
  972POPC   PO416584  21.538   4.455   9.764
  972POPC   GL116585  21.571   4.312   9.268
  972POPC   GL216586  21.301   4.509   9.026
  972POPC   C1A16587  21.585   4.169   8.801
  972POPC   D2A16588  21.403   4.391   8.425
  972POPC   C3A16589  21.370   4.256   7.987
  972POPC   C4A16590  21.567   4.304   7.568
  972POPC   C1B16591  21.066   4.701   8.644
  972POPC   C2B16592  20.992   4.615   8.156
  972POPC   C3B16593  21.268   4.732   7.766
  972POPC   C4B16594  21.317   5.136   7.492
  973POPC   NC316595  37.259  17.257   9.450
  973POPC   PO416596  37.074  17.932   9.420
  973POPC   GL116597  36.890  17.582   9.153
  973POPC   GL216598  36.753  17.250   9.140
  973POPC   C1A16599  36.623  17.537   8.756
  973POPC   D2A16600  36.803  17.482   8.372
  973POPC   C3A16601  36.681  17.686   8.035
  973POPC   C4A16602  36.816  17.841   7.703
  973POPC   C1B16603  36.932  17.131   8.747
  973POPC   C2B16604  36.990  17.019   8.305
  973POPC   C3B16605  36.774  17.174   7.941
  973POPC   C4B16606  36.882  17.366   7.536
  974POPC   NC316607  23.930  21.838   9.558
  974POPC   PO416608  23.990  21.169   9.652
  974POPC   GL116609  23.848  21.357   9.279
  974POPC   GL216610  24.158  21.563   9.176
  974POPC   C1A16611  23.495  21.392   8.960
  974POPC   D2A16612  23.527  21.603   8.553
  974POPC   C3A16613  23.489  21.404   8.138
  974POPC   C4A16614  23.482  21.573   7.722
  974POPC   C1B16615  23.965  21.440   8.787
  974POPC   C2B16616  24.010  21.480   8.355
  974POPC   C3B16617  23.901  21.742   8.015
  974POPC   C4B16618  23.946  21.686   7.558
  975POPC   NC316619  29.603  17.416   9.353
  975POPC   PO416620  28.975  17.193   9.509
  975POPC   GL116621  29.176  17.285   9.111
  975POPC   GL216622  29.333  17.608   8.964
  975POPC   C1A16623  29.043  17.310   8.694
  975POPC   D2A16624  29.083  17.525   8.351
  975POPC   C3A16625  29.012  17.238   8.043
  975POPC   C4A16626  29.256  17.156   7.688
  975POPC   C1B16627  28.961  17.806   8.782
  975POPC   C2B16628  28.838  17.991   8.386
  975POPC   C3B16629  28.855  17.768   7.974
  975POPC   C4B16630  29.226  17.659   7.737
  976POPC   NC316631  22.603  18.594   9.628
  976POPC   PO416632  23.236  18.172   9.536
  976POPC   GL116633  23.102  18.155   9.113
  976POPC   GL216634  22.741  18.145   9.057
  976POPC   C1A16635  23.124  18.362   8.720
  976POPC   D2A16636  23.439  18.502   8.431
  976POPC   C3A16637  23.302  18.543   8.011
  976POPC   C4A16638  22.939  18.339   7.768
  976POPC   C1B16639  22.684  18.057   8.634
  976POPC   C2B16640  22.624  18.358   8.256
  976POPC   C3B16641  22.420  18.292   7.847
  976POPC   C4B16642  22.549  17.948   7.566
  977POPC   NC316643  40.521  14.181   9.346
  977POPC   PO416644  39.821  14.492   9.372
  977POPC   GL116645  40.038  14.234   9.106
  977POPC   GL216646  40.280  14.476   8.993
  977POPC   C1A16647  39.926  14.205   8.681
  977POPC   D2A16648  40.131  14.513   8.428
  977POPC   C3A16649  39.968  14.551   8.024
  977POPC   C4A16650  39.809  14.132   7.913
  977POPC   C1B16651  40.424  14.147   8.715
  977POPC   C2B16652  40.371  14.043   8.316
  977POPC   C3B16653  40.330  14.205   7.908
  977POPC   C4B16654  40.404  14.428   7.522
  978POPC   NC316655   2.482   6.593   9.465
  978POPC   PO416656   3.064   6.593   9.202
  978POPC   GL116657   2.711   6.532   8.998
  978POPC   GL216658   2.530   6.845   9.027
  978POPC   C1A16659   2.758   6.643   8.590
  978POPC   D2A16660   2.473   6.700   8.323
  978POPC   C3A16661   2.549   6.442   7.989
  978POPC   C4A16662   2.873   6.607   7.730
  978POPC   C1B16663   2.528   7.122   8.680
  978POPC   C2B16664   2.343   7.195   8.294
  978POPC   C3B16665   2.567   7.027   7.945
  978POPC   C4B16666   2.411   6.758   7.623
  979POPC   NC316667  33.443  44.786   9.498
  979POPC   PO416668  33.797  44.199   9.730
  979POPC   GL116669  33.853  44.492   9.308
  979POPC   GL216670  33.819  44.829   9.149
  979POPC   C1A16671  33.759  44.484   8.806
  979POPC   D2A16672  33.962  44.667   8.464
  979POPC   C3A16673  33.916  44.396   8.124
  979POPC   C4A16674  33.911  44.592   7.730
  979POPC   C1B16675  33.607  44.948   8.738
  979POPC   C2B16676  33.755   0.147   8.392
  979POPC   C3B16677  33.943  44.991   8.035
  979POPC   C4B16678  33.682   0.067   7.700
  980POPC   NC316679   5.483  31.037   9.460
  980POPC   PO416680   5.763  30.384   9.543
  980POPC   GL116681   5.785  30.671   9.193
  980POPC   GL216682   6.111  30.852   9.227
  980POPC   C1A16683   5.581  30.771   8.786
  980POPC   D2A16684   5.867  30.736   8.427
  980POPC   C3A16685   5.648  30.783   8.053
  980POPC   C4A16686   5.527  30.486   7.766
  980POPC   C1B16687   6.376  30.926   8.845
  980POPC   C2B16688   6.281  31.048   8.425
  980POPC   C3B16689   6.136  30.992   8.032
  980POPC   C4B16690   6.172  31.293   7.678
  981POPC   NC316691  30.114  24.755   9.527
  981POPC   PO416692  29.785  24.234   9.595
  981POPC   GL116693  30.098  24.319   9.240
  981POPC   GL216694  29.904  24.578   9.076
  981POPC   C1A16695  30.251  24.289   8.804
  981POPC   D2A16696  29.997  24.552   8.541
  981POPC   C3A16697  29.936  24.553   8.102
  981POPC   C4A16698  30.046  24.719   7.707
  981POPC   C1B16699  29.593  24.368   8.802
  981POPC   C2B16700  29.592  24.220   8.363
  981POPC   C3B16701  29.556  24.306   7.928
  981POPC   C4B16702  29.789  24.279   7.543
  982POPC   NC316703  21.939  29.503   9.444
  982POPC   PO416704  22.460  29.160   9.723
  982POPC   GL116705  22.424  29.252   9.213
  982POPC   GL216706  22.689  29.523   9.107
  982POPC   C1A16707  22.323  29.017   8.790
  982POPC   D2A16708  21.976  29.049   8.449
  982POPC   C3A16709  22.072  29.161   8.004
  982POPC   C4A16710  22.046  28.999   7.571
  982POPC   C1B16711  22.358  29.531   8.793
  982POPC   C2B16712  22.379  29.365   8.371
  982POPC   C3B16713  22.501  29.538   7.990
  982POPC   C4B16714  22.507  29.788   7.612
  983POPC   NC316715  41.210  10.127   9.879
  983POPC   PO416716  40.839  10.471   9.392
  983POPC   GL116717  40.799  10.372   9.018
  983POPC   GL216718  40.987  10.131   8.919
  983POPC   C1A16719  40.836  10.502   8.619
  983POPC   D2A16720  40.832  10.276   8.270
  983POPC   C3A16721  40.630  10.459   7.946
  983POPC   C4A16722  40.810  10.721   7.638
  983POPC   C1B16723  41.312  10.321   8.675
  983POPC   C2B16724  41.248  10.590   8.334
  983POPC   C3B16725  41.153  10.475   7.901
  983POPC   C4B16726  41.132  10.388   7.413
  984POPC   NC316727  23.659  13.392   9.428
  984POPC   PO416728  23.888  14.076   9.417
  984POPC   GL116729  23.808  13.906   9.027
  984POPC   GL216730  23.489  13.730   9.076
  984POPC   C1A16731  23.789  13.643   8.646
  984POPC   D2A16732  23.998  13.365   8.376
  984POPC   C3A16733  23.793  13.576   8.079
  984POPC   C4A16734  23.697  13.658   7.698
  984POPC   C1B16735  23.404  13.326   8.832
  984POPC   C2B16736  23.461  13.329   8.391
  984POPC   C3B16737  23.516  13.174   7.983
  984POPC   C4B16738  23.322  13.317   7.615
  985POPC   NC316739   1.764  29.310   9.645
  985POPC   PO416740   2.347  28.962   9.616
  985POPC   GL116741   2.296  29.138   9.221
  985POPC   GL216742   2.007  29.309   9.175
  985POPC   C1A16743   2.353  29.177   8.784
  985POPC   D2A16744   2.301  29.035   8.362
  985POPC   C3A16745   1.943  29.053   8.134
  985POPC   C4A16746   1.787  28.810   7.848
  985POPC   C1B16747   1.886  29.360   8.732
  985POPC   C2B16748   2.002  29.525   8.323
  985POPC   C3B16749   1.988  29.488   7.871
  985POPC   C4B16750   1.754  29.279   7.604
  986POPC   NC316751   2.578  39.866   9.868
  986POPC   PO416752   2.905  39.422   9.402
  986POPC   GL116753   3.003  39.428   9.039
  986POPC   GL216754   2.645  39.429   8.928
  986POPC   C1A16755   3.027  39.111   8.755
  986POPC   D2A16756   2.689  39.162   8.486
  986POPC   C3A16757   2.834  39.185   8.087
  986POPC   C4A16758   2.690  39.282   7.679
  986POPC   C1B16759   2.799  39.773   8.747
  986POPC   C2B16760   2.955  39.846   8.381
  986POPC   C3B16761   2.857  39.689   8.008
  986POPC   C4B16762   3.042  39.674   7.629
  987POPC   NC316763  35.311  24.422   9.456
  987POPC   PO416764  35.766  24.889   9.398
  987POPC   GL116765  35.495  24.725   9.089
  987POPC   GL216766  35.464  24.379   8.979
  987POPC   C1A16767  35.236  24.821   8.764
  987POPC   D2A16768  35.415  24.905   8.377
  987POPC   C3A16769  35.520  24.580   8.079
  987POPC   C4A16770  35.240  24.514   7.751
  987POPC   C1B16771  35.441  24.405   8.558
  987POPC   C2B16772  35.111  24.297   8.281
  987POPC   C3B16773  34.969  24.125   7.904
  987POPC   C4B16774  35.129  24.082   7.481
  988POPC   NC316775  35.068  33.373   9.307
  988POPC   PO416776  35.507  32.903   9.506
  988POPC   GL116777  35.337  32.976   9.120
  988POPC   GL216778  34.999  32.871   9.150
  988POPC   C1A16779  35.172  33.094   8.709
  988POPC   D2A16780  35.342  33.108   8.338
  988POPC   C3A16781  35.242  32.982   7.955
  988POPC   C4A16782  35.542  32.986   7.604
  988POPC   C1B16783  34.806  32.743   8.756
  988POPC   C2B16784  34.959  32.679   8.333
  988POPC   C3B16785  34.824  32.695   7.904
  988POPC   C4B16786  34.933  32.786   7.481
  989POPC   NC316787  35.007  35.034   9.350
  989POPC   PO416788  35.584  34.694   9.490
  989POPC   GL116789  35.399  34.656   9.123
  989POPC   GL216790  35.267  34.338   9.139
  989POPC   C1A16791  35.561  34.458   8.744
  989POPC   D2A16792  35.412  34.305   8.343
  989POPC   C3A16793  35.499  34.567   7.982
  989POPC   C4A16794  35.259  34.804   7.670
  989POPC   C1B16795  35.031  34.488   8.774
  989POPC   C2B16796  35.021  34.645   8.379
  989POPC   C3B16797  34.945  34.473   7.995
  989POPC   C4B16798  35.157  34.271   7.688
  990POPC   NC316799   9.694   6.585   9.591
  990POPC   PO416800   9.014   6.399   9.302
  990POPC   GL116801   9.465   6.506   9.140
  990POPC   GL216802   9.681   6.843   9.155
  990POPC   C1A16803   9.757   6.554   8.774
  990POPC   D2A16804   9.864   6.852   8.456
  990POPC   C3A16805   9.969   6.594   8.138
  990POPC   C4A16806   9.815   6.581   7.748
  990POPC   C1B16807   9.562   7.131   8.852
  990POPC   C2B16808   9.396   7.036   8.475
  990POPC   C3B16809   9.463   7.092   8.025
  990POPC   C4B16810   9.436   6.931   7.578
  991POPC   NC316811  26.786   7.371   9.555
  991POPC   PO416812  27.367   7.301   9.199
  991POPC   GL116813  26.923   7.195   9.090
  991POPC   GL216814  26.730   7.500   9.051
  991POPC   C1A16815  26.716   7.063   8.703
  991POPC   D2A16816  26.977   7.183   8.336
  991POPC   C3A16817  26.868   7.179   7.889
  991POPC   C4A16818  27.104   7.318   7.512
  991POPC   C1B16819  26.746   7.574   8.620
  991POPC   C2B16820  26.529   7.420   8.245
  991POPC   C3B16821  26.560   7.648   7.843
  991POPC   C4B16822  26.829   7.731   7.457
  992POPC   NC316823   5.569  13.923   9.533
  992POPC   PO416824   6.132  13.661   9.544
  992POPC   GL116825   5.945  13.684   9.162
  992POPC   GL216826   6.213  13.943   9.085
  992POPC   C1A16827   5.735  13.728   8.749
  992POPC   D2A16828   5.509  13.768   8.338
  992POPC   C3A16829   5.472  13.383   8.102
  992POPC   C4A16830   5.701  13.321   7.681
  992POPC   C1B16831   6.100  14.087   8.686
  992POPC   C2B16832   6.013  13.866   8.334
  992POPC   C3B16833   5.945  13.608   8.002
  992POPC   C4B16834   6.006  13.734   7.581
  993POPC   NC316835  14.116   1.740   9.791
  993POPC   PO416836  14.511   2.191   9.714
  993POPC   GL116837  14.512   2.060   9.209
  993POPC   GL216838  14.506   1.775   9.019
  993POPC   C1A16839  14.302   2.195   8.782
  993POPC   D2A16840  14.127   2.144   8.339
  993POPC   C3A16841  14.390   2.214   7.943
  993POPC   C4A16842  14.729   1.931   7.797
  993POPC   C1B16843  14.375   1.713   8.576
  993POPC   C2B16844  14.368   1.727   8.124
  993POPC   C3B16845  14.325   1.650   7.670
  993POPC   C4B16846  13.986   1.722   7.381
  994POPC   NC316847  35.899  25.533   9.212
  994POPC   PO416848  36.250  25.107   9.630
  994POPC   GL116849  36.200  25.100   9.213
  994POPC   GL216850  36.379  25.381   9.067
  994POPC   C1A16851  36.378  24.889   8.867
  994POPC   D2A16852  36.535  25.082   8.495
  994POPC   C3A16853  36.230  25.162   8.198
  994POPC   C4A16854  36.159  25.136   7.777
  994POPC   C1B16855  36.239  25.495   8.635
  994POPC   C2B16856  36.125  25.663   8.207
  994POPC   C3B16857  35.906  25.564   7.815
  994POPC   C4B16858  35.763  25.556   7.399
  995POPC   NC316859  40.265  10.081   9.555
  995POPC   PO416860  39.712   9.715   9.534
  995POPC   GL116861  39.943   9.879   9.218
  995POPC   GL216862  40.168   9.603   9.256
  995POPC   C1A16863  40.068   9.953   8.809
  995POPC   D2A16864  39.958  10.085   8.417
  995POPC   C3A16865  39.972   9.836   8.058
  995POPC   C4A16866  39.768   9.986   7.680
  995POPC   C1B16867  40.347   9.504   8.867
  995POPC   C2B16868  40.217   9.572   8.474
  995POPC   C3B16869  40.352   9.467   8.089
  995POPC   C4B16870  40.399   9.490   7.680
  996POPC   NC316871  26.869  21.592   9.519
  996POPC   PO416872  26.963  20.928   9.619
  996POPC   GL116873  26.838  21.146   9.164
  996POPC   GL216874  26.866  21.482   9.041
  996POPC   C1A16875  26.817  21.168   8.668
  996POPC   D2A16876  27.029  21.433   8.324
  996POPC   C3A16877  26.907  21.234   7.971
  996POPC   C4A16878  26.507  21.054   7.973
  996POPC   C1B16879  26.534  21.676   8.851
  996POPC   C2B16880  26.647  21.834   8.480
  996POPC   C3B16881  26.634  21.697   8.064
  996POPC   C4B16882  26.569  21.957   7.734
  997POPC   NC316883  44.299  26.065   9.488
  997POPC   PO416884  43.691  26.022   9.633
  997POPC   GL116885  43.839  26.107   9.251
  997POPC   GL216886  43.523  26.014   9.152
  997POPC   C1A16887  44.113  26.085   8.867
  997POPC   D2A16888  44.070  25.892   8.461
  997POPC   C3A16889  44.200  26.138   8.119
  997POPC   C4A16890  44.091  25.958   7.724
  997POPC   C1B16891  43.635  25.939   8.770
  997POPC   C2B16892  43.458  26.046   8.403
  997POPC   C3B16893  43.681  26.063   8.049
  997POPC   C4B16894  43.563  25.932   7.658
  998POPC   NC316895   8.928   6.042   9.631
  998POPC   PO416896   8.626   6.703   9.431
  998POPC   GL116897   8.692   6.685   8.997
  998POPC   GL216898   8.783   6.365   8.839
  998POPC   C1A16899   8.781   6.866   8.609
  998POPC   D2A16900   9.006   6.757   8.258
  998POPC   C3A16901   8.814   6.499   7.965
  998POPC   C4A16902   8.722   6.853   7.706
  998POPC   C1B16903   9.199   6.545   8.697
  998POPC   C2B16904   9.466   6.549   8.357
  998POPC   C3B16905   9.361   6.584   7.941
  998POPC   C4B16906   9.105   6.548   7.566
  999POPC   NC316907  15.278   6.255   9.995
  999POPC   PO416908  15.100   6.060   9.423
  999POPC   GL116909  15.259   5.739   9.173
  999POPC   GL216910  14.931   5.767   9.029
  999POPC   C1A16911  15.275   5.505   8.773
  999POPC   D2A16912  15.109   5.684   8.422
  999POPC   C3A16913  15.333   5.665   8.040
  999POPC   C4A16914  15.087   5.787   7.696
  999POPC   C1B16915  15.117   6.067   8.780
  999POPC   C2B16916  15.108   6.282   8.448
  999POPC   C3B16917  15.181   6.129   8.089
  999POPC   C4B16918  15.342   6.222   7.715
 1000POPC   NC316919  10.845   5.841   9.796
 1000POPC   PO416920  10.276   5.689   9.649
 1000POPC   GL116921  10.334   5.795   9.247
 1000POPC   GL216922  10.689   5.814   9.259
 1000POPC   C1A16923  10.207   5.744   8.828
 1000POPC   D2A16924  10.327   5.774   8.402
 1000POPC   C3A16925  10.033   5.812   8.060
 1000POPC   C4A16926  10.160   6.184   7.863
 1000POPC   C1B16927  10.697   5.975   8.805
 1000POPC   C2B16928  10.830   6.157   8.373
 1000POPC   C3B16929  10.864   6.059   7.898
 1000POPC   C4B16930  10.827   5.677   7.607
 1001POPC   NC316931   5.274   1.114   9.525
 1001POPC   PO416932   5.493   1.731   9.387
 1001POPC   GL116933   5.181   1.459   9.129
 1001POPC   GL216934   5.053   1.108   9.080
 1001POPC   C1A16935   5.026   1.411   8.683
 1001POPC   D2A16936   4.933   1.185   8.307
 1001POPC   C3A16937   5.071   1.393   7.943
 1001POPC   C4A16938   5.201   1.516   7.543
 1001POPC   C1B16939   5.354   0.848   8.836
 1001POPC   C2B16940   5.453   0.716   8.403
 1001POPC   C3B16941   5.271   0.884   8.014
 1001POPC   C4B16942   4.858   0.943   7.841
 1002POPC   NC316943  11.526   7.962   9.359
 1002POPC   PO416944  11.003   8.332   9.640
 1002POPC   GL116945  11.163   8.307   9.220
 1002POPC   GL216946  11.072   7.957   9.080
 1002POPC   C1A16947  11.270   8.339   8.779
 1002POPC   D2A16948  11.180   8.586   8.422
 1002POPC   C3A16949  11.325   8.469   8.027
 1002POPC   C4A16950  11.111   8.330   7.693
 1002POPC   C1B16951  11.375   7.797   8.733
 1002POPC   C2B16952  11.606   7.857   8.349
 1002POPC   C3B16953  11.486   7.971   7.951
 1002POPC   C4B16954  11.272   7.817   7.646
 1003POPC   NC316955  34.612  39.186   9.558
 1003POPC   PO416956  34.055  38.856   9.433
 1003POPC   GL116957  34.405  39.003   9.119
 1003POPC   GL216958  34.794  38.998   9.116
 1003POPC   C1A16959  34.552  39.094   8.662
 1003POPC   D2A16960  34.780  39.396   8.367
 1003POPC   C3A16961  34.555  39.419   7.960
 1003POPC   C4A16962  34.272  39.091   7.781
 1003POPC   C1B16963  35.042  39.006   8.732
 1003POPC   C2B16964  35.108  38.988   8.345
 1003POPC   C3B16965  35.050  39.195   7.976
 1003POPC   C4B16966  34.822  39.115   7.640
 1004POPC   NC316967  31.212   4.948   9.411
 1004POPC   PO416968  31.644   5.496   9.463
 1004POPC   GL116969  31.488   5.553   9.061
 1004POPC   GL216970  31.203   5.326   9.051
 1004POPC   C1A16971  31.666   5.335   8.721
 1004POPC   D2A16972  31.806   5.089   8.373
 1004POPC   C3A16973  31.482   4.952   8.111
 1004POPC   C4A16974  31.566   4.817   7.703
 1004POPC   C1B16975  31.119   5.560   8.678
 1004POPC   C2B16976  31.175   5.662   8.251
 1004POPC   C3B16977  31.254   5.402   7.896
 1004POPC   C4B16978  31.072   5.014   7.766
 1005POPC   NC316979  10.144  40.302   9.551
 1005POPC   PO416980  10.766  40.254   9.561
 1005POPC   GL116981  10.508  40.103   9.244
 1005POPC   GL216982  10.512  39.786   9.266
 1005POPC   C1A16983  10.356  40.266   8.832
 1005POPC   D2A16984  10.379  40.494   8.428
 1005POPC   C3A16985  10.489  40.233   8.125
 1005POPC   C4A16986  10.479  40.142   7.697
 1005POPC   C1B16987  10.560  39.735   8.833
 1005POPC   C2B16988  10.484  39.791   8.401
 1005POPC   C3B16989  10.752  39.811   8.047
 1005POPC   C4B16990  10.579  39.638   7.719
 1006POPC   NC316991  42.418  38.024   9.774
 1006POPC   PO416992  42.503  38.645   9.521
 1006POPC   GL116993  42.352  38.550   9.139
 1006POPC   GL216994  42.172  38.238   9.213
 1006POPC   C1A16995  42.258  38.770   8.752
 1006POPC   D2A16996  41.984  38.724   8.408
 1006POPC   C3A16997  42.225  38.768   8.020
 1006POPC   C4A16998  42.136  38.657   7.602
 1006POPC   C1B16999  42.186  38.276   8.754
 1006POPC   C2B17000  42.357  38.370   8.328
 1006POPC   C3B17001  42.242  38.247   7.917
 1006POPC   C4B17002  42.375  38.232   7.419
 1007POPC   NC317003   1.007  26.285   9.351
 1007POPC   PO417004   1.108  25.629   9.568
 1007POPC   GL117005   1.457  25.856   9.263
 1007POPC   GL217006   1.350  26.130   9.029
 1007POPC   C1A17007   1.675  25.844   8.815
 1007POPC   D2A17008   1.598  26.131   8.421
 1007POPC   C3A17009   1.585  25.927   8.006
 1007POPC   C4A17010   1.304  25.911   7.646
 1007POPC   C1B17011   1.117  26.181   8.667
 1007POPC   C2B17012   1.011  26.451   8.315
 1007POPC   C3B17013   0.956  26.311   7.891
 1007POPC   C4B17014   1.189  26.444   7.558
 1008POPC   NC317015  41.792  10.976   9.806
 1008POPC   PO417016  41.313  11.058   9.365
 1008POPC   GL117017  41.489  11.109   9.017
 1008POPC   GL217018  41.570  11.421   9.059
 1008POPC   C1A17019  41.681  11.058   8.631
 1008POPC   D2A17020  41.988  11.248   8.382
 1008POPC   C3A17021  41.976  11.049   7.989
 1008POPC   C4A17022  41.806  10.924   7.607
 1008POPC   C1B17023  41.338  11.454   8.685
 1008POPC   C2B17024  41.544  11.603   8.320
 1008POPC   C3B17025  41.580  11.399   7.933
 1008POPC   C4B17026  41.193  11.274   7.764
 1009POPC   NC317027  34.298  34.925   9.364
 1009POPC   PO417028  34.326  35.580   9.516
 1009POPC   GL117029  34.248  35.383   9.146
 1009POPC   GL217030  34.604  35.305   9.102
 1009POPC   C1A17031  34.212  35.220   8.742
 1009POPC   D2A17032  34.179  35.425   8.330
 1009POPC   C3A17033  34.536  35.337   8.052
 1009POPC   C4A17034  34.541  35.325   7.606
 1009POPC   C1B17035  34.826  35.552   8.768
 1009POPC   C2B17036  34.932  35.344   8.393
 1009POPC   C3B17037  35.070  35.063   8.086
 1009POPC   C4B17038  34.781  34.922   7.800
 1010POPC   NC317039  25.824   6.556   9.938
 1010POPC   PO417040  25.246   6.575   9.492
 1010POPC   GL117041  25.349   6.763   9.108
 1010POPC   GL217042  25.518   7.078   9.261
 1010POPC   C1A17043  25.299   6.605   8.679
 1010POPC   D2A17044  25.531   6.444   8.321
 1010POPC   C3A17045  25.258   6.516   7.955
 1010POPC   C4A17046  25.145   6.861   7.693
 1010POPC   C1B17047  25.708   7.025   8.839
 1010POPC   C2B17048  25.812   6.881   8.426
 1010POPC   C3B17049  25.632   6.867   7.985
 1010POPC   C4B17050  25.651   6.808   7.528
 1011POPC   NC317051  25.710  18.580   9.475
 1011POPC   PO417052  26.384  18.534   9.465
 1011POPC   GL117053  26.162  18.203   9.199
 1011POPC   GL217054  25.785  18.204   9.135
 1011POPC   C1A17055  26.105  18.281   8.747
 1011POPC   D2A17056  26.076  18.593   8.423
 1011POPC   C3A17057  26.251  18.444   8.039
 1011POPC   C4A17058  26.137  18.200   7.631
 1011POPC   C1B17059  25.704  17.967   8.765
 1011POPC   C2B17060  25.726  18.158   8.389
 1011POPC   C3B17061  25.919  18.049   8.055
 1011POPC   C4B17062  25.834  17.802   7.711
 1012POPC   NC317063  21.151  38.808   9.578
 1012POPC   PO417064  21.486  39.362   9.451
 1012POPC   GL117065  21.457  39.095   9.148
 1012POPC   GL217066  21.110  39.054   9.103
 1012POPC   C1A17067  21.627  38.898   8.755
 1012POPC   D2A17068  21.836  39.034   8.356
 1012POPC   C3A17069  21.595  39.038   7.973
 1012POPC   C4A17070  21.378  39.033   7.585
 1012POPC   C1B17071  21.266  39.265   8.721
 1012POPC   C2B17072  21.431  39.366   8.326
 1012POPC   C3B17073  21.186  39.353   7.937
 1012POPC   C4B17074  20.795  39.544   7.832
 1013POPC   NC317075  17.180   4.403   9.373
 1013POPC   PO417076  17.810   4.196   9.640
 1013POPC   GL117077  17.694   4.170   9.198
 1013POPC   GL217078  17.614   4.517   9.065
 1013POPC   C1A17079  17.893   4.166   8.764
 1013POPC   D2A17080  17.828   4.402   8.370
 1013POPC   C3A17081  17.426   4.222   8.169
 1013POPC   C4A17082  17.436   4.023   7.749
 1013POPC   C1B17083  17.486   4.682   8.639
 1013POPC   C2B17084  17.467   4.726   8.155
 1013POPC   C3B17085  17.294   4.624   7.722
 1013POPC   C4B17086  17.035   4.793   7.371
 1014POPC   NC317087   7.435  33.395   9.548
 1014POPC   PO417088   7.744  32.811   9.423
 1014POPC   GL117089   7.439  33.002   9.120
 1014POPC   GL217090   7.246  33.324   9.098
 1014POPC   C1A17091   7.480  33.135   8.702
 1014POPC   D2A17092   7.670  33.261   8.359
 1014POPC   C3A17093   7.438  33.075   7.988
 1014POPC   C4A17094   7.540  32.943   7.561
 1014POPC   C1B17095   7.017  33.341   8.716
 1014POPC   C2B17096   7.189  33.398   8.333
 1014POPC   C3B17097   7.052  33.394   7.943
 1014POPC   C4B17098   7.178  33.288   7.555
 1015POPC   NC317099   6.422  23.461   9.419
 1015POPC   PO417100   7.019  23.785   9.453
 1015POPC   GL117101   6.710  23.791   9.107
 1015POPC   GL217102   6.695  23.450   8.995
 1015POPC   C1A17103   6.707  23.812   8.650
 1015POPC   D2A17104   6.539  23.502   8.383
 1015POPC   C3A17105   6.698  23.577   8.021
 1015POPC   C4A17106   6.921  23.795   7.734
 1015POPC   C1B17107   6.264  23.551   8.803
 1015POPC   C2B17108   6.041  23.655   8.430
 1015POPC   C3B17109   6.165  23.585   7.998
 1015POPC   C4B17110   6.379  23.863   7.716
 1016POPC   NC317111  23.378  20.934   9.540
 1016POPC   PO417112  23.113  21.618   9.480
 1016POPC   GL117113  22.928  21.449   9.085
 1016POPC   GL217114  23.074  21.162   9.167
 1016POPC   C1A17115  23.022  21.483   8.640
 1016POPC   D2A17116  22.895  21.694   8.237
 1016POPC   C3A17117  22.993  21.415   7.875
 1016POPC   C4A17118  23.194  21.212   7.520
 1016POPC   C1B17119  22.843  20.984   8.845
 1016POPC   C2B17120  22.904  20.779   8.463
 1016POPC   C3B17121  22.637  20.770   8.136
 1016POPC   C4B17122  22.649  21.026   7.810
 1017POPC   NC317123  10.097  20.472   9.339
 1017POPC   PO417124  10.582  20.833   9.711
 1017POPC   GL117125  10.583  20.678   9.206
 1017POPC   GL217126  10.364  20.569   8.922
 1017POPC   C1A17127  10.764  20.827   8.772
 1017POPC   D2A17128  10.606  20.734   8.365
 1017POPC   C3A17129  10.837  20.894   8.019
 1017POPC   C4A17130  10.672  20.781   7.631
 1017POPC   C1B17131  10.299  20.187   8.693
 1017POPC   C2B17132  10.250  20.236   8.231
 1017POPC   C3B17133  10.338  20.491   7.871
 1017POPC   C4B17134  10.199  20.698   7.447
 1018POPC   NC317135  16.169  40.424   9.451
 1018POPC   PO417136  16.265  39.688   9.565
 1018POPC   GL117137  16.033  39.975   9.242
 1018POPC   GL217138  16.192  39.908   9.023
 1018POPC   C1A17139  15.807  40.097   8.793
 1018POPC   D2A17140  15.750  39.936   8.352
 1018POPC   C3A17141  15.817  40.111   7.903
 1018POPC   C4A17142  15.647  39.925   7.495
 1018POPC   C1B17143  16.299  40.136   8.663
 1018POPC   C2B17144  16.230  40.205   8.272
 1018POPC   C3B17145  16.327  40.085   7.885
 1018POPC   C4B17146  16.209  40.361   7.554
 1019POPC   NC317147  32.021   1.995   9.472
 1019POPC   PO417148  32.409   1.437   9.470
 1019POPC   GL117149  32.372   1.755   9.148
 1019POPC   GL217150  32.331   2.145   9.099
 1019POPC   C1A17151  32.192   1.779   8.746
 1019POPC   D2A17152  32.056   2.159   8.527
 1019POPC   C3A17153  32.164   2.282   8.101
 1019POPC   C4A17154  32.200   2.081   7.703
 1019POPC   C1B17155  32.623   2.047   8.767
 1019POPC   C2B17156  32.512   1.925   8.325
 1019POPC   C3B17157  32.662   2.076   7.929
 1019POPC   C4B17158  32.701   2.062   7.469
 1020POPC   NC317159   0.124  38.771   9.405
 1020POPC   PO417160   0.644  38.458   9.724
 1020POPC   GL117161   0.537  38.562   9.191
 1020POPC   GL217162   0.274  38.371   9.055
 1020POPC   C1A17163   0.456  38.646   8.693
 1020POPC   D2A17164   0.347  38.272   8.479
 1020POPC   C3A17165   0.496  38.270   8.071
 1020POPC   C4A17166   0.327  38.137   7.719
 1020POPC   C1B17167  44.960  38.643   8.816
 1020POPC   C2B17168  44.969  38.677   8.420
 1020POPC   C3B17169  44.988  38.422   8.096
 1020POPC   C4B17170   0.154  38.602   7.773
 1021POPC   NC317171  18.914  15.802   9.513
 1021POPC   PO417172  19.306  16.320   9.608
 1021POPC   GL117173  19.320  16.070   9.220
 1021POPC   GL217174  19.150  15.747   9.088
 1021POPC   C1A17175  19.102  16.211   8.850
 1021POPC   D2A17176  19.019  16.344   8.424
 1021POPC   C3A17177  19.168  16.119   8.096
 1021POPC   C4A17178  18.886  16.043   7.786
 1021POPC   C1B17179  18.843  15.791   8.761
 1021POPC   C2B17180  18.916  15.743   8.348
 1021POPC   C3B17181  19.088  15.595   7.969
 1021POPC   C4B17182  18.952  15.553   7.560
 1022POPC   NC317183  34.366  19.158   9.467
 1022POPC   PO417184  34.921  18.753   9.435
 1022POPC   GL117185  34.775  19.099   9.141
 1022POPC   GL217186  34.434  19.025   8.979
 1022POPC   C1A17187  34.817  19.281   8.728
 1022POPC   D2A17188  34.560  19.109   8.393
 1022POPC   C3A17189  34.791  18.982   8.006
 1022POPC   C4A17190  34.701  19.210   7.592
 1022POPC   C1B17191  34.128  19.293   8.744
 1022POPC   C2B17192  34.107  19.464   8.313
 1022POPC   C3B17193  34.368  19.325   7.969
 1022POPC   C4B17194  34.325  18.928   7.812
 1023POPC   NC317195  18.405  24.178   9.601
 1023POPC   PO417196  18.140  23.553   9.424
 1023POPC   GL117197  18.157  23.668   8.990
 1023POPC   GL217198  18.446  23.597   8.771
 1023POPC   C1A17199  18.000  23.768   8.584
 1023POPC   D2A17200  18.080  23.549   8.210
 1023POPC   C3A17201  18.354  23.709   7.967
 1023POPC   C4A17202  18.512  23.915   7.620
 1023POPC   C1B17203  18.481  23.914   8.453
 1023POPC   C2B17204  18.172  24.115   8.226
 1023POPC   C3B17205  18.083  24.114   7.796
 1023POPC   C4B17206  18.323  24.326   7.411
 1024POPC   NC317207  32.757  29.689   9.499
 1024POPC   PO417208  32.938  29.007   9.588
 1024POPC   GL117209  32.950  29.269   9.253
 1024POPC   GL217210  33.250  29.386   9.171
 1024POPC   C1A17211  32.918  29.192   8.802
 1024POPC   D2A17212  33.145  28.920   8.523
 1024POPC   C3A17213  33.147  28.980   8.063
 1024POPC   C4A17214  32.970  29.334   7.824
 1024POPC   C1B17215  33.456  29.344   8.764
 1024POPC   C2B17216  33.676  29.562   8.406
 1024POPC   C3B17217  33.546  29.492   7.959
 1024POPC   C4B17218  33.406  29.197   7.629
 1025POPC   NC317219  24.811  31.622   9.538
 1025POPC   PO417220  24.485  30.967   9.658
 1025POPC   GL117221  24.395  31.114   9.144
 1025POPC   GL217222  24.416  31.461   9.124
 1025POPC   C1A17223  24.666  31.273   8.739
 1025POPC   D2A17224  24.675  31.501   8.313
 1025POPC   C3A17225  24.627  31.265   7.904
 1025POPC   C4A17226  24.301  31.184   7.577
 1025POPC   C1B17227  24.379  31.729   8.727
 1025POPC   C2B17228  24.344  31.890   8.286
 1025POPC   C3B17229  24.420  31.752   7.880
 1025POPC   C4B17230  24.225  31.678   7.491
 1026POPC   NC317231  41.944  28.370   9.574
 1026POPC   PO417232  42.592  28.160   9.479
 1026POPC   GL117233  42.355  28.451   9.202
 1026POPC   GL217234  42.098  28.292   9.120
 1026POPC   C1A17235  42.135  28.684   8.835
 1026POPC   D2A17236  42.110  28.889   8.459
 1026POPC   C3A17237  41.993  28.697   8.048
 1026POPC   C4A17238  42.206  28.686   7.665
 1026POPC   C1B17239  42.297  28.206   8.739
 1026POPC   C2B17240  42.343  28.408   8.328
 1026POPC   C3B17241  42.279  28.254   7.907
 1026POPC   C4B17242  42.236  28.214   7.426
 1027POPC   NC317243  35.680  35.206   9.528
 1027POPC   PO417244  35.053  35.491   9.395
 1027POPC   GL117245  35.406  35.482   9.147
 1027POPC   GL217246  35.508  35.159   9.037
 1027POPC   C1A17247  35.430  35.565   8.690
 1027POPC   D2A17248  35.446  35.356   8.298
 1027POPC   C3A17249  35.399  35.504   7.893
 1027POPC   C4A17250  35.028  35.375   7.690
 1027POPC   C1B17251  35.771  35.152   8.639
 1027POPC   C2B17252  35.832  35.050   8.178
 1027POPC   C3B17253  35.682  35.090   7.752
 1027POPC   C4B17254  35.669  34.821   7.352
 1028POPC   NC317255  19.585  10.281   9.521
 1028POPC   PO417256  19.592  10.918   9.491
 1028POPC   GL117257  19.647  10.707   9.113
 1028POPC   GL217258  19.824  10.417   9.089
 1028POPC   C1A17259  19.658  10.851   8.685
 1028POPC   D2A17260  19.642  11.047   8.267
 1028POPC   C3A17261  19.741  10.695   7.976
 1028POPC   C4A17262  19.686  10.280   7.790
 1028POPC   C1B17263  19.566  10.345   8.716
 1028POPC   C2B17264  19.669  10.262   8.303
 1028POPC   C3B17265  19.771   9.880   8.099
 1028POPC   C4B17266  19.714   9.782   7.685
 1029POPC   NC317267   6.510  16.910   9.420
 1029POPC   PO417268   7.034  16.780   9.761
 1029POPC   GL117269   6.846  16.608   9.222
 1029POPC   GL217270   6.651  16.282   9.161
 1029POPC   C1A17271   6.573  16.778   8.812
 1029POPC   D2A17272   6.284  16.817   8.469
 1029POPC   C3A17273   6.382  16.921   8.058
 1029POPC   C4A17274   6.767  16.968   7.780
 1029POPC   C1B17275   6.894  16.412   8.764
 1029POPC   C2B17276   7.011  16.530   8.375
 1029POPC   C3B17277   6.753  16.530   8.042
 1029POPC   C4B17278   6.417  16.511   7.735
 1030POPC   NC317279   1.694  18.318   9.106
 1030POPC   PO417280   2.232  18.304   9.447
 1030POPC   GL117281   2.225  18.303   9.005
 1030POPC   GL217282   2.092  17.971   9.042
 1030POPC   C1A17283   2.059  18.438   8.575
 1030POPC   D2A17284   1.849  18.422   8.164
 1030POPC   C3A17285   2.167  18.320   7.836
 1030POPC   C4A17286   2.119  18.408   7.353
 1030POPC   C1B17287   2.226  17.896   8.638
 1030POPC   C2B17288   2.101  17.996   8.241
 1030POPC   C3B17289   1.787  17.957   7.928
 1030POPC   C4B17290   1.942  17.977   7.517
 1031POPC   NC317291   6.813  24.879   9.465
 1031POPC   PO417292   6.772  25.559   9.605
 1031POPC   GL117293   6.624  25.334   9.261
 1031POPC   GL217294   6.409  25.044   9.173
 1031POPC   C1A17295   6.604  25.451   8.859
 1031POPC   D2A17296   6.622  25.594   8.423
 1031POPC   C3A17297   6.336  25.637   8.093
 1031POPC   C4A17298   6.482  25.505   7.702
 1031POPC   C1B17299   6.413  24.813   8.771
 1031POPC   C2B17300   6.619  25.014   8.412
 1031POPC   C3B17301   6.606  25.060   7.963
 1031POPC   C4B17302   6.357  24.783   7.681
 1032POPC   NC317303  26.597   9.195   9.515
 1032POPC   PO417304  27.102   8.785   9.551
 1032POPC   GL117305  26.772   8.740   9.253
 1032POPC   GL217306  26.532   8.962   9.040
 1032POPC   C1A17307  26.838   8.584   8.859
 1032POPC   D2A17308  26.658   8.761   8.518
 1032POPC   C3A17309  26.849   9.038   8.236
 1032POPC   C4A17310  26.772   8.990   7.822
 1032POPC   C1B17311  26.602   9.248   8.679
 1032POPC   C2B17312  26.406   9.285   8.269
 1032POPC   C3B17313  26.392   9.326   7.815
 1032POPC   C4B17314  26.181   9.377   7.411
 1033POPC   NC317315  28.083  42.575   9.981
 1033POPC   PO417316  28.446  42.772   9.444
 1033POPC   GL117317  28.412  42.747   9.037
 1033POPC   GL217318  28.261  42.434   9.021
 1033POPC   C1A17319  28.423  42.741   8.641
 1033POPC   D2A17320  28.249  42.503   8.360
 1033POPC   C3A17321  28.604  42.451   8.129
 1033POPC   C4A17322  28.697  42.540   7.708
 1033POPC   C1B17323  27.876  42.421   8.786
 1033POPC   C2B17324  27.720  42.441   8.379
 1033POPC   C3B17325  27.886  42.581   8.003
 1033POPC   C4B17326  28.214  42.386   7.812
 1034POPC   NC317327   0.477  17.687   9.527
 1034POPC   PO417328  44.933  17.890   9.227
 1034POPC   GL117329   0.303  17.656   9.052
 1034POPC   GL217330   0.348  17.304   9.104
 1034POPC   C1A17331   0.498  17.589   8.654
 1034POPC   D2A17332   0.232  17.543   8.304
 1034POPC   C3A17333   0.353  17.450   7.915
 1034POPC   C4A17334   0.477  17.614   7.519
 1034POPC   C1B17335   0.639  17.113   8.831
 1034POPC   C2B17336   0.614  17.137   8.369
 1034POPC   C3B17337   0.739  16.978   7.967
 1034POPC   C4B17338   0.583  17.110   7.568
 1035POPC   NC317339   2.611  18.053   9.405
 1035POPC   PO417340   3.231  18.337   9.420
 1035POPC   GL117341   3.004  18.162   9.101
 1035POPC   GL217342   2.807  18.455   9.114
 1035POPC   C1A17343   2.656  18.161   8.752
 1035POPC   D2A17344   2.498  18.309   8.360
 1035POPC   C3A17345   2.602  18.069   8.011
 1035POPC   C4A17346   2.961  18.070   7.718
 1035POPC   C1B17347   3.059  18.480   8.699
 1035POPC   C2B17348   3.049  18.341   8.245
 1035POPC   C3B17349   3.187  18.498   7.815
 1035POPC   C4B17350   3.349  18.583   7.378
 1036POPC   NC317351  26.842  23.865   9.690
 1036POPC   PO417352  26.321  23.491   9.751
 1036POPC   GL117353  26.685  23.491   9.358
 1036POPC   GL217354  26.867  23.816   9.190
 1036POPC   C1A17355  26.734  23.425   8.863
 1036POPC   D2A17356  26.560  23.606   8.456
 1036POPC   C3A17357  26.744  23.497   8.042
 1036POPC   C4A17358  26.628  23.578   7.610
 1036POPC   C1B17359  27.217  23.854   8.877
 1036POPC   C2B17360  27.277  23.896   8.418
 1036POPC   C3B17361  27.198  23.743   7.969
 1036POPC   C4B17362  26.953  23.968   7.621
 1037POPC   NC317363   3.385   8.386   9.728
 1037POPC   PO417364   3.207   7.836   9.347
 1037POPC   GL117365   3.376   8.128   9.062
 1037POPC   GL217366   3.476   8.430   9.227
 1037POPC   C1A17367   3.554   8.050   8.670
 1037POPC   D2A17368   3.821   8.047   8.338
 1037POPC   C3A17369   3.581   7.918   8.019
 1037POPC   C4A17370   3.217   8.033   7.805
 1037POPC   C1B17371   3.532   8.555   8.804
 1037POPC   C2B17372   3.549   8.474   8.362
 1037POPC   C3B17373   3.621   8.405   7.919
 1037POPC   C4B17374   3.279   8.511   7.624
 1038POPC   NC317375  35.533  42.610   9.510
 1038POPC   PO417376  34.998  42.103   9.463
 1038POPC   GL117377  35.332  42.115   9.103
 1038POPC   GL217378  35.459  42.446   9.056
 1038POPC   C1A17379  35.475  42.187   8.645
 1038POPC   D2A17380  35.339  42.568   8.416
 1038POPC   C3A17381  35.260  42.443   7.983
 1038POPC   C4A17382  35.318  41.969   7.914
 1038POPC   C1B17383  35.709  42.714   8.809
 1038POPC   C2B17384  35.836  42.697   8.389
 1038POPC   C3B17385  35.801  42.494   7.979
 1038POPC   C4B17386  35.697  42.729   7.625
 1039POPC   NC317387  32.553  25.577   9.522
 1039POPC   PO417388  32.122  25.033   9.430
 1039POPC   GL117389  32.458  25.197   9.158
 1039POPC   GL217390  32.382  25.548   9.044
 1039POPC   C1A17391  32.421  25.159   8.715
 1039POPC   D2A17392  32.402  24.917   8.362
 1039POPC   C3A17393  32.349  25.164   8.006
 1039POPC   C4A17394  32.573  25.199   7.652
 1039POPC   C1B17395  32.047  25.639   8.756
 1039POPC   C2B17396  31.914  25.796   8.373
 1039POPC   C3B17397  32.064  25.871   7.944
 1039POPC   C4B17398  32.192  25.562   7.674
 1040POPC   NC317399   6.761  39.366   9.489
 1040POPC   PO417400   6.772  38.718   9.441
 1040POPC   GL117401   6.688  38.939   9.065
 1040POPC   GL217402   6.507  39.268   9.083
 1040POPC   C1A17403   6.770  39.095   8.657
 1040POPC   D2A17404   7.018  39.412   8.429
 1040POPC   C3A17405   7.208  39.094   8.168
 1040POPC   C4A17406   6.954  38.944   7.815
 1040POPC   C1B17407   6.499  39.514   8.727
 1040POPC   C2B17408   6.522  39.388   8.294
 1040POPC   C3B17409   6.562  39.528   7.879
 1040POPC   C4B17410   6.324  39.347   7.494
 1041POPC   NC317411   2.615  36.631   9.411
 1041POPC   PO417412   2.369  37.203   9.480
 1041POPC   GL117413   2.521  36.994   9.072
 1041POPC   GL217414   2.872  36.934   9.063
 1041POPC   C1A17415   2.378  36.713   8.726
 1041POPC   D2A17416   2.335  36.795   8.280
 1041POPC   C3A17417   2.652  37.058   8.157
 1041POPC   C4A17418   3.061  37.184   7.994
 1041POPC   C1B17419   2.872  36.587   8.773
 1041POPC   C2B17420   2.774  36.563   8.332
 1041POPC   C3B17421   2.896  36.664   7.917
 1041POPC   C4B17422   2.909  36.353   7.602
 1042POPC   NC317423   8.821  18.452   9.428
 1042POPC   PO417424   9.438  18.705   9.485
 1042POPC   GL117425   9.253  18.444   9.127
 1042POPC   GL217426   9.063  18.110   9.132
 1042POPC   C1A17427   9.132  18.397   8.692
 1042POPC   D2A17428   9.135  18.699   8.366
 1042POPC   C3A17429   9.265  18.523   7.990
 1042POPC   C4A17430   9.040  18.271   7.721
 1042POPC   C1B17431   8.680  18.187   8.867
 1042POPC   C2B17432   8.525  18.247   8.488
 1042POPC   C3B17433   8.737  18.376   8.138
 1042POPC   C4B17434   8.544  18.239   7.743
 1043POPC   NC317435  39.599  42.709   9.256
 1043POPC   PO417436  40.179  42.425   9.494
 1043POPC   GL117437  39.998  42.402   9.071
 1043POPC   GL217438  39.965  42.680   8.898
 1043POPC   C1A17439  39.963  42.210   8.647
 1043POPC   D2A17440  39.775  42.279   8.228
 1043POPC   C3A17441  40.000  42.162   7.851
 1043POPC   C4A17442  39.809  42.219   7.422
 1043POPC   C1B17443  39.887  42.789   8.499
 1043POPC   C2B17444  39.563  42.755   8.195
 1043POPC   C3B17445  39.730  42.582   7.818
 1043POPC   C4B17446  40.124  42.583   7.594
 1044POPC   NC317447   7.885   5.569   9.400
 1044POPC   PO417448   8.566   5.778   9.434
 1044POPC   GL117449   8.314   5.708   9.115
 1044POPC   GL217450   8.089   5.994   9.174
 1044POPC   C1A17451   8.393   5.582   8.700
 1044POPC   D2A17452   8.419   5.779   8.297
 1044POPC   C3A17453   8.330   5.620   7.850
 1044POPC   C4A17454   8.280   5.965   7.477
 1044POPC   C1B17455   8.189   6.081   8.761
 1044POPC   C2B17456   8.027   6.154   8.376
 1044POPC   C3B17457   8.129   6.064   7.964
 1044POPC   C4B17458   7.823   5.827   7.716
 1045POPC   NC317459  37.357  40.355   9.482
 1045POPC   PO417460  36.920  39.846   9.508
 1045POPC   GL117461  36.826  40.010   9.115
 1045POPC   GL217462  37.010  40.281   9.132
 1045POPC   C1A17463  36.907  39.870   8.747
 1045POPC   D2A17464  36.730  39.790   8.404
 1045POPC   C3A17465  36.936  39.969   8.096
 1045POPC   C4A17466  36.871  39.926   7.710
 1045POPC   C1B17467  37.241  40.256   8.770
 1045POPC   C2B17468  37.146  40.385   8.351
 1045POPC   C3B17469  37.305  40.277   7.945
 1045POPC   C4B17470  37.122  40.365   7.567
 1046POPC   NC317471  18.913  16.588   9.615
 1046POPC   PO417472  19.385  16.992   9.376
 1046POPC   GL117473  19.250  16.628   9.165
 1046POPC   GL217474  18.893  16.652   9.102
 1046POPC   C1A17475  19.256  16.694   8.716
 1046POPC   D2A17476  19.106  16.833   8.322
 1046POPC   C3A17477  19.324  16.634   8.012
 1046POPC   C4A17478  19.250  16.388   7.676
 1046POPC   C1B17479  18.772  16.891   8.731
 1046POPC   C2B17480  18.605  16.798   8.319
 1046POPC   C3B17481  18.796  16.594   7.961
 1046POPC   C4B17482  18.939  16.770   7.577
 1047POPC   NC317483  13.137  18.648   9.672
 1047POPC   PO417484  12.870  18.050   9.487
 1047POPC   GL117485  12.767  18.017   9.090
 1047POPC   GL217486  12.842  17.698   8.969
 1047POPC   C1A17487  12.839  18.201   8.707
 1047POPC   D2A17488  13.132  18.298   8.419
 1047POPC   C3A17489  13.021  18.486   8.058
 1047POPC   C4A17490  13.258  18.280   7.795
 1047POPC   C1B17491  12.475  17.845   8.716
 1047POPC   C2B17492  12.621  17.965   8.309
 1047POPC   C3B17493  12.823  18.009   7.942
 1047POPC   C4B17494  12.657  18.308   7.696
 1048POPC   NC317495  15.705  29.082   9.464
 1048POPC   PO417496  16.349  29.327   9.521
 1048POPC   GL117497  16.124  29.253   9.133
 1048POPC   GL217498  15.857  29.465   9.104
 1048POPC   C1A17499  15.954  29.093   8.714
 1048POPC   D2A17500  15.889  28.973   8.266
 1048POPC   C3A17501  16.071  29.215   7.895
 1048POPC   C4A17502  16.069  28.968   7.496
 1048POPC   C1B17503  16.053  29.589   8.707
 1048POPC   C2B17504  15.846  29.476   8.288
 1048POPC   C3B17505  15.642  29.523   7.875
 1048POPC   C4B17506  15.515  29.423   7.437
 1049POPC   NC317507  35.167   3.259   9.733
 1049POPC   PO417508  35.749   3.496   9.553
 1049POPC   GL117509  35.435   3.333   9.263
 1049POPC   GL217510  35.098   3.326   9.203
 1049POPC   C1A17511  35.431   3.269   8.812
 1049POPC   D2A17512  35.413   3.563   8.483
 1049POPC   C3A17513  35.372   3.413   8.072
 1049POPC   C4A17514  35.302   3.517   7.637
 1049POPC   C1B17515  34.900   3.326   8.784
 1049POPC   C2B17516  35.025   3.224   8.392
 1049POPC   C3B17517  34.990   2.987   8.022
 1049POPC   C4B17518  35.257   3.034   7.704
 1050POPC   NC317519  12.554  30.464   9.582
 1050POPC   PO417520  13.229  30.519   9.523
 1050POPC   GL117521  12.950  30.527   9.155
 1050POPC   GL217522  12.587  30.449   9.087
 1050POPC   C1A17523  12.935  30.542   8.702
 1050POPC   D2A17524  12.975  30.457   8.276
 1050POPC   C3A17525  13.017  30.813   8.013
 1050POPC   C4A17526  12.971  30.627   7.620
 1050POPC   C1B17527  12.493  30.776   8.808
 1050POPC   C2B17528  12.624  30.826   8.374
 1050POPC   C3B17529  12.561  30.657   7.934
 1050POPC   C4B17530  12.510  30.768   7.473
 1051POPC   NC317531  29.189  32.029   9.575
 1051POPC   PO417532  29.662  32.555   9.563
 1051POPC   GL117533  29.412  32.365   9.218
 1051POPC   GL217534  29.053  32.227   9.124
 1051POPC   C1A17535  29.346  32.442   8.797
 1051POPC   D2A17536  29.290  32.193   8.454
 1051POPC   C3A17537  29.079  32.374   8.134
 1051POPC   C4A17538  29.312  32.319   7.753
 1051POPC   C1B17539  28.902  32.020   8.748
 1051POPC   C2B17540  28.763  32.004   8.296
 1051POPC   C3B17541  28.910  32.017   7.849
 1051POPC   C4B17542  29.041  32.078   7.367
 1052POPC   NC317543   7.828  20.154   9.195
 1052POPC   PO417544   7.312  20.625   9.426
 1052POPC   GL117545   7.203  20.625   9.039
 1052POPC   GL217546   6.923  20.419   9.023
 1052POPC   C1A17547   7.292  20.394   8.662
 1052POPC   D2A17548   7.107  20.381   8.246
 1052POPC   C3A17549   7.432  20.287   7.984
 1052POPC   C4A17550   7.682  20.552   7.713
 1052POPC   C1B17551   6.845  20.645   8.672
 1052POPC   C2B17552   7.130  20.851   8.420
 1052POPC   C3B17553   7.309  20.795   8.005
 1052POPC   C4B17554   7.193  20.575   7.589
 1053POPC   NC317555  34.986   4.608   9.313
 1053POPC   PO417556  35.524   4.213   9.646
 1053POPC   GL117557  35.416   4.246   9.205
 1053POPC   GL217558  35.332   3.881   9.199
 1053POPC   C1A17559  35.379   4.472   8.763
 1053POPC   D2A17560  35.199   4.663   8.368
 1053POPC   C3A17561  35.214   4.401   7.990
 1053POPC   C4A17562  35.310   4.500   7.510
 1053POPC   C1B17563  35.491   3.981   8.787
 1053POPC   C2B17564  35.325   4.084   8.393
 1053POPC   C3B17565  35.299   3.905   7.980
 1053POPC   C4B17566  35.298   4.008   7.546
 1054POPC   NC317567  26.103  29.607   9.606
 1054POPC   PO417568  26.298  30.327   9.625
 1054POPC   GL117569  26.100  30.228   9.191
 1054POPC   GL217570  25.977  29.885   9.179
 1054POPC   C1A17571  25.935  30.130   8.735
 1054POPC   D2A17572  25.791  29.979   8.328
 1054POPC   C3A17573  26.026  30.166   8.016
 1054POPC   C4A17574  25.950  30.118   7.574
 1054POPC   C1B17575  26.131  29.671   8.795
 1054POPC   C2B17576  26.283  29.831   8.406
 1054POPC   C3B17577  26.116  29.644   8.055
 1054POPC   C4B17578  26.172  29.516   7.649
 1055POPC   NC317579  38.538  34.448   9.694
 1055POPC   PO417580  37.994  34.777   9.788
 1055POPC   GL117581  38.461  34.829   9.393
 1055POPC   GL217582  38.424  34.492   9.195
 1055POPC   C1A17583  38.519  34.855   8.863
 1055POPC   D2A17584  38.475  34.931   8.385
 1055POPC   C3A17585  38.404  34.631   8.009
 1055POPC   C4A17586  38.513  34.603   7.532
 1055POPC   C1B17587  38.436  34.145   8.866
 1055POPC   C2B17588  38.558  33.976   8.426
 1055POPC   C3B17589  38.590  34.144   8.001
 1055POPC   C4B17590  38.267  34.218   7.710
 1056POPC   NC317591  17.462  41.856   9.912
 1056POPC   PO417592  17.360  41.200   9.501
 1056POPC   GL117593  17.524  41.487   9.161
 1056POPC   GL217594  17.892  41.621   9.134
 1056POPC   C1A17595  17.282  41.776   8.855
 1056POPC   D2A17596  17.371  41.942   8.423
 1056POPC   C3A17597  17.300  41.796   7.960
 1056POPC   C4A17598  17.180  41.916   7.521
 1056POPC   C1B17599  17.725  41.561   8.694
 1056POPC   C2B17600  17.553  41.475   8.284
 1056POPC   C3B17601  17.755  41.481   7.891
 1056POPC   C4B17602  18.025  41.513   7.519
 1057POPC   NC317603  27.941  36.272   9.464
 1057POPC   PO417604  28.543  35.968   9.463
 1057POPC   GL117605  28.367  36.224   9.166
 1057POPC   GL217606  28.115  35.991   9.035
 1057POPC   C1A17607  28.250  36.403   8.778
 1057POPC   D2A17608  28.134  36.529   8.370
 1057POPC   C3A17609  28.314  36.185   8.147
 1057POPC   C4A17610  28.185  35.966   7.797
 1057POPC   C1B17611  28.530  35.861   8.828
 1057POPC   C2B17612  28.798  35.939   8.467
 1057POPC   C3B17613  28.701  35.826   8.057
 1057POPC   C4B17614  28.595  35.716   7.644
 1058POPC   NC317615   1.979  40.500   9.533
 1058POPC   PO417616   2.072  41.165   9.464
 1058POPC   GL117617   1.747  40.908   9.223
 1058POPC   GL217618   1.964  40.644   9.062
 1058POPC   C1A17619   1.606  40.832   8.782
 1058POPC   D2A17620   1.698  40.562   8.437
 1058POPC   C3A17621   1.680  40.679   8.026
 1058POPC   C4A17622   2.068  40.677   7.810
 1058POPC   C1B17623   2.306  40.547   8.800
 1058POPC   C2B17624   2.344  40.693   8.395
 1058POPC   C3B17625   2.345  40.392   8.102
 1058POPC   C4B17626   2.483  40.387   7.701
 1059POPC   NC317627  32.945  42.242   9.508
 1059POPC   PO417628  33.449  42.565   9.770
 1059POPC   GL117629  33.303  42.593   9.245
 1059POPC   GL217630  33.100  42.326   9.051
 1059POPC   C1A17631  33.229  42.693   8.774
 1059POPC   D2A17632  33.031  42.423   8.451
 1059POPC   C3A17633  33.168  42.500   8.030
 1059POPC   C4A17634  32.825  42.625   7.762
 1059POPC   C1B17635  33.121  42.012   8.750
 1059POPC   C2B17636  33.293  41.955   8.336
 1059POPC   C3B17637  33.225  42.010   7.887
 1059POPC   C4B17638  33.159  42.180   7.497
 1060POPC   NC317639  18.624  40.589   9.281
 1060POPC   PO417640  19.246  40.916   9.454
 1060POPC   GL117641  19.111  40.739   9.110
 1060POPC   GL217642  19.190  40.404   9.177
 1060POPC   C1A17643  18.966  40.866   8.713
 1060POPC   D2A17644  19.123  40.678   8.338
 1060POPC   C3A17645  19.219  41.024   8.096
 1060POPC   C4A17646  18.936  41.152   7.801
 1060POPC   C1B17647  18.967  40.360   8.730
 1060POPC   C2B17648  18.778  40.295   8.276
 1060POPC   C3B17649  18.912  40.433   7.809
 1060POPC   C4B17650  18.825  40.300   7.322
 1061POPC   NC317651  43.416  10.842   9.438
 1061POPC   PO417652  42.978  10.337   9.605
 1061POPC   GL117653  43.090  10.489   9.240
 1061POPC   GL217654  43.377  10.318   9.238
 1061POPC   C1A17655  43.122  10.573   8.822
 1061POPC   D2A17656  42.851  10.538   8.463
 1061POPC   C3A17657  43.078  10.469   8.074
 1061POPC   C4A17658  43.042  10.380   7.652
 1061POPC   C1B17659  43.313  10.092   8.861
 1061POPC   C2B17660  43.350  10.285   8.461
 1061POPC   C3B17661  43.533  10.183   8.068
 1061POPC   C4B17662  43.479  10.072   7.656
 1062POPC   NC317663   8.812   7.952   9.595
 1062POPC   PO417664   8.892   8.582   9.446
 1062POPC   GL117665   9.092   8.272   9.237
 1062POPC   GL217666   8.771   8.173   9.142
 1062POPC   C1A17667   9.158   8.145   8.813
 1062POPC   D2A17668   9.084   8.361   8.433
 1062POPC   C3A17669   9.192   8.159   8.107
 1062POPC   C4A17670   9.043   8.177   7.721
 1062POPC   C1B17671   8.630   8.229   8.769
 1062POPC   C2B17672   8.675   8.068   8.400
 1062POPC   C3B17673   8.654   8.180   8.031
 1062POPC   C4B17674   8.378   8.063   7.729
 1063POPC   NC317675   7.486  17.099   9.314
 1063POPC   PO417676   7.593  17.797   9.425
 1063POPC   GL117677   7.515  17.562   9.073
 1063POPC   GL217678   7.142  17.466   9.027
 1063POPC   C1A17679   7.412  17.736   8.702
 1063POPC   D2A17680   7.073  17.676   8.459
 1063POPC   C3A17681   7.334  17.752   8.127
 1063POPC   C4A17682   7.401  17.592   7.743
 1063POPC   C1B17683   7.360  17.240   8.665
 1063POPC   C2B17684   7.699  17.242   8.341
 1063POPC   C3B17685   7.660  17.139   7.898
 1063POPC   C4B17686   7.269  17.083   7.677
 1064POPC   NC317687  18.434  11.257   9.519
 1064POPC   PO417688  17.857  10.897   9.470
 1064POPC   GL117689  18.095  11.176   9.151
 1064POPC   GL217690  18.436  11.115   9.042
 1064POPC   C1A17691  18.053  11.382   8.754
 1064POPC   D2A17692  18.096  11.482   8.309
 1064POPC   C3A17693  18.033  11.286   7.898
 1064POPC   C4A17694  17.912  11.531   7.540
 1064POPC   C1B17695  18.394  11.011   8.638
 1064POPC   C2B17696  18.556  11.157   8.245
 1064POPC   C3B17697  18.549  11.173   7.791
 1064POPC   C4B17698  18.360  11.238   7.396
 1065POPC   NC317699  22.928  35.882   9.406
 1065POPC   PO417700  22.879  36.506   9.528
 1065POPC   GL117701  22.830  36.299   9.147
 1065POPC   GL217702  22.518  36.129   9.083
 1065POPC   C1A17703  22.944  36.114   8.752
 1065POPC   D2A17704  22.973  35.855   8.381
 1065POPC   C3A17705  23.192  35.969   8.006
 1065POPC   C4A17706  23.023  36.141   7.631
 1065POPC   C1B17707  22.580  36.479   8.759
 1065POPC   C2B17708  22.773  36.415   8.352
 1065POPC   C3B17709  22.700  36.143   8.037
 1065POPC   C4B17710  22.477  36.166   7.636
 1066POPC   NC317711  35.027  17.676   9.568
 1066POPC   PO417712  34.403  17.898   9.450
 1066POPC   GL117713  34.648  17.650   9.188
 1066POPC   GL217714  34.871  17.913   9.160
 1066POPC   C1A17715  34.538  17.530   8.775
 1066POPC   D2A17716  34.247  17.443   8.464
 1066POPC   C3A17717  34.467  17.620   8.139
 1066POPC   C4A17718  34.453  17.475   7.725
 1066POPC   C1B17719  35.011  17.742   8.807
 1066POPC   C2B17720  34.830  17.849   8.472
 1066POPC   C3B17721  34.961  17.802   8.120
 1066POPC   C4B17722  34.932  17.776   7.750
 1067POPC   NC317723  15.177  16.551   9.495
 1067POPC   PO417724  14.569  16.769   9.399
 1067POPC   GL117725  14.490  16.905   8.993
 1067POPC   GL217726  14.325  16.614   8.917
 1067POPC   C1A17727  14.500  16.888   8.532
 1067POPC   D2A17728  14.275  16.814   8.145
 1067POPC   C3A17729  14.495  16.905   7.750
 1067POPC   C4A17730  14.688  16.933   7.326
 1067POPC   C1B17731  14.707  16.462   8.743
 1067POPC   C2B17732  14.797  16.400   8.302
 1067POPC   C3B17733  14.614  16.403   7.864
 1067POPC   C4B17734  14.838  16.357   7.441
 1068POPC   NC317735  31.604  12.010   9.544
 1068POPC   PO417736  31.062  12.314   9.652
 1068POPC   GL117737  31.248  12.110   9.211
 1068POPC   GL217738  31.626  12.096   9.056
 1068POPC   C1A17739  31.170  11.968   8.787
 1068POPC   D2A17740  30.984  11.835   8.384
 1068POPC   C3A17741  31.138  11.728   7.942
 1068POPC   C4A17742  31.340  11.806   7.505
 1068POPC   C1B17743  31.556  12.295   8.693
 1068POPC   C2B17744  31.409  12.113   8.308
 1068POPC   C3B17745  31.607  11.911   7.959
 1068POPC   C4B17746  31.724  12.172   7.635
 1069POPC   NC317747  34.295  10.997   9.533
 1069POPC   PO417748  33.615  11.262   9.587
 1069POPC   GL117749  33.827  11.412   9.219
 1069POPC   GL217750  33.477  11.439   9.109
 1069POPC   C1A17751  33.824  11.571   8.759
 1069POPC   D2A17752  33.849  11.350   8.385
 1069POPC   C3A17753  33.848  11.529   7.963
 1069POPC   C4A17754  34.153  11.535   7.635
 1069POPC   C1B17755  33.621  11.107   8.829
 1069POPC   C2B17756  33.541  10.941   8.444
 1069POPC   C3B17757  33.709  11.004   8.049
 1069POPC   C4B17758  33.673  10.953   7.660
 1070POPC   NC317759  36.794   4.188   9.398
 1070POPC   PO417760  36.315   4.581   9.158
 1070POPC   GL117761  36.654   4.377   8.929
 1070POPC   GL217762  37.004   4.423   9.013
 1070POPC   C1A17763  36.695   4.162   8.521
 1070POPC   D2A17764  36.774   3.861   8.188
 1070POPC   C3A17765  36.742   4.111   7.791
 1070POPC   C4A17766  36.595   4.165   7.315
 1070POPC   C1B17767  37.090   4.031   8.809
 1070POPC   C2B17768  37.206   4.070   8.390
 1070POPC   C3B17769  37.240   4.023   7.950
 1070POPC   C4B17770  37.297   4.351   7.679
 1071POPC   NC317771  44.738   4.079   9.514
 1071POPC   PO417772  44.337   4.686   9.452
 1071POPC   GL117773  44.382   4.443   9.066
 1071POPC   GL217774  44.435   4.074   9.100
 1071POPC   C1A17775  44.497   4.271   8.640
 1071POPC   D2A17776  44.860   4.235   8.410
 1071POPC   C3A17777  44.862   4.529   8.086
 1071POPC   C4A17778  44.621   4.615   7.732
 1071POPC   C1B17779  44.831   3.929   8.851
 1071POPC   C2B17780  44.808   3.709   8.455
 1071POPC   C3B17781  44.844   3.827   8.099
 1071POPC   C4B17782  44.671   4.121   7.830
 1072POPC   NC317783  29.327  13.427   9.535
 1072POPC   PO417784  28.937  14.061   9.630
 1072POPC   GL117785  28.909  13.743   9.276
 1072POPC   GL217786  29.153  13.512   9.080
 1072POPC   C1A17787  28.941  13.892   8.845
 1072POPC   D2A17788  29.249  13.843   8.532
 1072POPC   C3A17789  29.088  13.702   8.166
 1072POPC   C4A17790  29.100  13.864   7.760
 1072POPC   C1B17791  29.519  13.426   8.828
 1072POPC   C2B17792  29.772  13.411   8.449
 1072POPC   C3B17793  29.638  13.462   8.048
 1072POPC   C4B17794  29.281  13.399   7.794
 1073POPC   NC317795  37.930   0.327   9.530
 1073POPC   PO417796  37.301   0.447   9.463
 1073POPC   GL117797  37.515   0.474   9.075
 1073POPC   GL217798  37.858   0.453   9.043
 1073POPC   C1A17799  37.421   0.615   8.655
 1073POPC   D2A17800  37.369   0.421   8.255
 1073POPC   C3A17801  37.366   0.669   7.911
 1073POPC   C4A17802  37.635   0.745   7.609
 1073POPC   C1B17803  37.794   0.244   8.672
 1073POPC   C2B17804  37.951   0.156   8.284
 1073POPC   C3B17805  37.794   0.345   7.932
 1073POPC   C4B17806  37.453   0.235   7.672
 1074POPC   NC317807  44.612   2.381   9.307
 1074POPC   PO417808  44.935   2.800   9.753
 1074POPC   GL117809  44.899   2.817   9.288
 1074POPC   GL217810  44.581   2.899   9.155
 1074POPC   C1A17811  44.991   2.659   8.852
 1074POPC   D2A17812  44.939   2.834   8.460
 1074POPC   C3A17813  44.848   2.677   8.094
 1074POPC   C4A17814  44.531   2.615   7.792
 1074POPC   C1B17815  44.503   2.781   8.735
 1074POPC   C2B17816  44.418   2.906   8.299
 1074POPC   C3B17817  44.271   3.051   7.896
 1074POPC   C4B17818  44.217   2.876   7.487
 1075POPC   NC317819  37.218  14.637   9.420
 1075POPC   PO417820  36.839  14.077   9.665
 1075POPC   GL117821  36.798  14.363   9.291
 1075POPC   GL217822  36.625  14.187   9.051
 1075POPC   C1A17823  36.876  14.564   8.841
 1075POPC   D2A17824  37.051  14.775   8.445
 1075POPC   C3A17825  36.905  14.700   8.038
 1075POPC   C4A17826  36.971  14.417   7.706
 1075POPC   C1B17827  36.813  14.082   8.640
 1075POPC   C2B17828  36.860  14.191   8.191
 1075POPC   C3B17829  36.547  14.196   7.845
 1075POPC   C4B17830  36.436  14.345   7.404
 1076POPC   NC317831  17.618  18.466   9.423
 1076POPC   PO417832  17.154  17.938   9.454
 1076POPC   GL117833  17.488  18.079   9.084
 1076POPC   GL217834  17.709  18.396   8.919
 1076POPC   C1A17835  17.426  18.118   8.618
 1076POPC   D2A17836  17.672  18.189   8.264
 1076POPC   C3A17837  17.520  18.237   7.858
 1076POPC   C4A17838  17.646  18.507   7.540
 1076POPC   C1B17839  17.462  18.619   8.542
 1076POPC   C2B17840  17.134  18.482   8.238
 1076POPC   C3B17841  17.149  18.606   7.789
 1076POPC   C4B17842  17.241  18.798   7.400
 1077POPC   NC317843  30.292   1.270   9.502
 1077POPC   PO417844  29.747   0.883   9.556
 1077POPC   GL117845  29.855   1.237   9.224
 1077POPC   GL217846  30.154   1.462   9.063
 1077POPC   C1A17847  29.749   1.281   8.800
 1077POPC   D2A17848  29.849   1.073   8.421
 1077POPC   C3A17849  29.726   1.228   8.018
 1077POPC   C4A17850  29.717   1.097   7.584
 1077POPC   C1B17851  30.250   1.364   8.629
 1077POPC   C2B17852  30.192   1.388   8.181
 1077POPC   C3B17853  30.141   1.366   7.716
 1077POPC   C4B17854  30.157   1.066   7.339
 1078POPC   NC317855   8.629   9.645   9.417
 1078POPC   PO417856   9.177   9.930   9.656
 1078POPC   GL117857   9.186   9.852   9.189
 1078POPC   GL217858   9.018   9.525   9.108
 1078POPC   C1A17859   9.434   9.648   8.842
 1078POPC   D2A17860   9.358   9.406   8.477
 1078POPC   C3A17861   9.075   9.594   8.209
 1078POPC   C4A17862   9.072   9.669   7.784
 1078POPC   C1B17863   8.944   9.759   8.703
 1078POPC   C2B17864   8.850  10.166   8.462
 1078POPC   C3B17865   8.707  10.226   8.031
 1078POPC   C4B17866   8.743  10.016   7.618
 1079POPC   NC317867  34.786  39.919   9.316
 1079POPC   PO417868  34.275  39.801   9.674
 1079POPC   GL117869  34.279  39.967   9.213
 1079POPC   GL217870  34.475  40.294   9.180
 1079POPC   C1A17871  34.260  40.148   8.757
 1079POPC   D2A17872  34.537  40.108   8.407
 1079POPC   C3A17873  34.487  40.206   7.998
 1079POPC   C4A17874  34.372  39.847   7.685
 1079POPC   C1B17875  34.758  40.374   8.779
 1079POPC   C2B17876  34.862  40.495   8.345
 1079POPC   C3B17877  35.023  40.233   8.047
 1079POPC   C4B17878  34.882  40.087   7.685
 1080POPC   NC317879  26.549  16.972   9.457
 1080POPC   PO417880  26.611  16.356   9.315
 1080POPC   GL117881  26.522  16.694   9.005
 1080POPC   GL217882  26.576  17.071   8.967
 1080POPC   C1A17883  26.560  16.728   8.581
 1080POPC   D2A17884  26.765  16.405   8.320
 1080POPC   C3A17885  26.866  16.546   7.901
 1080POPC   C4A17886  27.032  16.555   7.482
 1080POPC   C1B17887  26.977  16.979   8.774
 1080POPC   C2B17888  26.975  16.924   8.343
 1080POPC   C3B17889  26.757  17.038   8.014
 1080POPC   C4B17890  27.072  17.000   7.730
 1081POPC   NC317891  28.622  19.255   9.403
 1081POPC   PO417892  28.090  18.913   9.659
 1081POPC   GL117893  28.216  18.952   9.254
 1081POPC   GL217894  28.133  19.312   9.159
 1081POPC   C1A17895  28.427  18.883   8.851
 1081POPC   D2A17896  28.560  19.152   8.512
 1081POPC   C3A17897  28.474  18.965   8.132
 1081POPC   C4A17898  28.312  18.951   7.740
 1081POPC   C1B17899  27.908  19.013   8.862
 1081POPC   C2B17900  28.032  18.932   8.442
 1081POPC   C3B17901  27.993  19.157   8.067
 1081POPC   C4B17902  27.758  19.174   7.682
 1082POPC   NC317903   9.509  14.614   9.454
 1082POPC   PO417904  10.022  14.145   9.596
 1082POPC   GL117905   9.962  14.369   9.213
 1082POPC   GL217906   9.938  14.023   9.078
 1082POPC   C1A17907   9.918  14.694   8.843
 1082POPC   D2A17908   9.971  14.599   8.383
 1082POPC   C3A17909   9.632  14.619   8.036
 1082POPC   C4A17910   9.611  14.566   7.613
 1082POPC   C1B17911   9.616  14.278   8.833
 1082POPC   C2B17912   9.570  14.252   8.387
 1082POPC   C3B17913   9.809  14.151   7.994
 1082POPC   C4B17914   9.728  14.071   7.576
 1083POPC   NC317915  25.850  42.213   9.506
 1083POPC   PO417916  26.187  42.830   9.441
 1083POPC   GL117917  26.289  42.525   9.148
 1083POPC   GL217918  26.170  42.184   9.101
 1083POPC   C1A17919  26.267  42.524   8.725
 1083POPC   D2A17920  26.154  42.266   8.408
 1083POPC   C3A17921  26.226  42.475   8.078
 1083POPC   C4A17922  26.191  42.318   7.690
 1083POPC   C1B17923  25.809  42.272   8.780
 1083POPC   C2B17924  25.589  42.362   8.396
 1083POPC   C3B17925  25.754  42.311   7.991
 1083POPC   C4B17926  25.614  42.410   7.585
 1084POPC   NC317927  18.049   9.484   9.410
 1084POPC   PO417928  18.211  10.094   9.713
 1084POPC   GL117929  18.059  10.130   9.209
 1084POPC   GL217930  18.301  10.043   8.888
 1084POPC   C1A17931  17.817   9.897   8.846
 1084POPC   D2A17932  18.028  10.050   8.427
 1084POPC   C3A17933  18.149   9.992   7.968
 1084POPC   C4A17934  18.464   9.887   7.632
 1084POPC   C1B17935  18.189   9.609   8.675
 1084POPC   C2B17936  17.986   9.539   8.284
 1084POPC   C3B17937  18.236   9.520   7.932
 1084POPC   C4B17938  18.150   9.415   7.583
 1085POPC   NC317939  18.767  21.407   9.510
 1085POPC   PO417940  18.107  21.223   9.498
 1085POPC   GL117941  18.257  21.565   9.214
 1085POPC   GL217942  18.632  21.620   9.085
 1085POPC   C1A17943  18.229  21.500   8.792
 1085POPC   D2A17944  18.387  21.116   8.573
 1085POPC   C3A17945  18.393  21.134   8.135
 1085POPC   C4A17946  18.327  21.375   7.782
 1085POPC   C1B17947  18.741  21.487   8.672
 1085POPC   C2B17948  18.448  21.598   8.350
 1085POPC   C3B17949  18.504  21.827   8.021
 1085POPC   C4B17950  18.666  21.690   7.611
 1086POPC   NC317951  25.828  13.813   9.581
 1086POPC   PO417952  26.439  13.492   9.529
 1086POPC   GL117953  26.202  13.611   9.203
 1086POPC   GL217954  25.904  13.462   9.139
 1086POPC   C1A17955  26.233  13.481   8.756
 1086POPC   D2A17956  26.374  13.452   8.332
 1086POPC   C3A17957  26.150  13.686   8.013
 1086POPC   C4A17958  26.179  13.611   7.562
 1086POPC   C1B17959  25.702  13.455   8.761
 1086POPC   C2B17960  25.875  13.344   8.343
 1086POPC   C3B17961  25.716  13.363   7.945
 1086POPC   C4B17962  25.673  13.565   7.567
 1087POPC   NC317963  43.455  13.394   9.518
 1087POPC   PO417964  43.132  13.927   9.484
 1087POPC   GL117965  43.237  13.743   9.147
 1087POPC   GL217966  43.076  13.417   9.164
 1087POPC   C1A17967  43.266  13.886   8.741
 1087POPC   D2A17968  43.106  13.657   8.393
 1087POPC   C3A17969  43.338  13.680   8.041
 1087POPC   C4A17970  43.243  13.719   7.641
 1087POPC   C1B17971  43.275  13.358   8.771
 1087POPC   C2B17972  43.298  13.194   8.367
 1087POPC   C3B17973  43.453  13.150   7.983
 1087POPC   C4B17974  43.252  13.217   7.630
 1088POPC   NC317975  13.331   4.173   9.260
 1088POPC   PO417976  13.588   4.718   9.706
 1088POPC   GL117977  13.453   4.670   9.184
 1088POPC   GL217978  13.781   4.549   8.950
 1088POPC   C1A17979  13.332   4.657   8.739
 1088POPC   D2A17980  13.618   4.395   8.484
 1088POPC   C3A17981  13.769   4.390   8.068
 1088POPC   C4A17982  13.529   4.178   7.804
 1088POPC   C1B17983  13.843   4.077   8.825
 1088POPC   C2B17984  13.840   3.815   8.439
 1088POPC   C3B17985  13.867   3.838   7.998
 1088POPC   C4B17986  13.950   3.980   7.568
 1089POPC   NC317987  42.229   7.362   9.599
 1089POPC   PO417988  42.593   7.779   9.530
 1089POPC   GL117989  42.307   7.680   9.157
 1089POPC   GL217990  41.996   7.464   9.112
 1089POPC   C1A17991  42.259   7.731   8.688
 1089POPC   D2A17992  42.466   7.828   8.281
 1089POPC   C3A17993  42.238   7.795   7.885
 1089POPC   C4A17994  42.275   7.531   7.511
 1089POPC   C1B17995  41.966   7.317   8.654
 1089POPC   C2B17996  42.115   7.423   8.229
 1089POPC   C3B17997  41.866   7.409   7.833
 1089POPC   C4B17998  41.562   7.067   7.667
 1090POPC   NC317999   1.934  25.976   9.473
 1090POPC   PO418000   2.293  26.638   9.499
 1090POPC   GL118001   2.202  26.329   9.170
 1090POPC   GL218002   1.833  26.293   9.109
 1090POPC   C1A18003   2.226  26.027   8.828
 1090POPC   D2A18004   2.029  25.881   8.457
 1090POPC   C3A18005   2.186  25.930   8.084
 1090POPC   C4A18006   2.012  25.903   7.702
 1090POPC   C1B18007   1.884  26.409   8.729
 1090POPC   C2B18008   2.100  26.383   8.349
 1090POPC   C3B18009   1.912  26.350   7.940
 1090POPC   C4B18010   1.695  26.291   7.551
 1091POPC   NC318011  13.270   3.605   9.673
 1091POPC   PO418012  12.642   3.747   9.506
 1091POPC   GL118013  12.856   3.495   9.222
 1091POPC   GL218014  13.162   3.670   9.169
 1091POPC   C1A18015  12.983   3.280   8.841
 1091POPC   D2A18016  12.775   3.154   8.486
 1091POPC   C3A18017  13.007   3.239   8.101
 1091POPC   C4A18018  12.938   3.364   7.721
 1091POPC   C1B18019  12.949   3.791   8.802
 1091POPC   C2B18020  12.934   3.624   8.429
 1091POPC   C3B18021  12.898   3.755   8.041
 1091POPC   C4B18022  13.063   3.964   7.706
 1092POPC   NC318023   9.594   9.762   9.521
 1092POPC   PO418024  10.322  10.083   9.543
 1092POPC   GL118025  10.014  10.019   9.178
 1092POPC   GL218026   9.871   9.674   9.100
 1092POPC   C1A18027   9.775  10.041   8.741
 1092POPC   D2A18028   9.772   9.719   8.445
 1092POPC   C3A18029   9.576   9.665   8.049
 1092POPC   C4A18030   9.691  10.004   7.784
 1092POPC   C1B18031   9.925   9.357   8.744
 1092POPC   C2B18032   9.825   9.230   8.299
 1092POPC   C3B18033   9.983   9.299   7.868
 1092POPC   C4B18034   9.941   9.435   7.409
 1093POPC   NC318035  29.041   3.505   9.452
 1093POPC   PO418036  29.702   3.767   9.422
 1093POPC   GL118037  29.404   3.792   9.063
 1093POPC   GL218038  29.017   3.774   9.030
 1093POPC   C1A18039  29.407   3.396   8.828
 1093POPC   D2A18040  29.480   3.144   8.438
 1093POPC   C3A18041  29.116   3.207   8.145
 1093POPC   C4A18042  29.120   3.421   7.738
 1093POPC   C1B18043  29.074   3.743   8.600
 1093POPC   C2B18044  28.945   3.681   8.184
 1093POPC   C3B18045  28.991   3.904   7.815
 1093POPC   C4B18046  28.864   3.814   7.391
 1094POPC   NC318047   3.120   3.647   9.697
 1094POPC   PO418048   2.488   3.510   9.503
 1094POPC   GL118049   2.783   3.465   9.174
 1094POPC   GL218050   2.931   3.809   9.207
 1094POPC   C1A18051   2.669   3.350   8.735
 1094POPC   D2A18052   2.695   3.553   8.320
 1094POPC   C3A18053   2.682   3.329   7.944
 1094POPC   C4A18054   2.485   3.668   7.772
 1094POPC   C1B18055   2.988   3.752   8.774
 1094POPC   C2B18056   3.146   3.458   8.484
 1094POPC   C3B18057   3.165   3.668   8.102
 1094POPC   C4B18058   2.994   3.698   7.728
 1095POPC   NC318059  13.990  29.184   9.421
 1095POPC   PO418060  13.345  28.867   9.534
 1095POPC   GL118061  13.547  28.915   9.091
 1095POPC   GL218062  13.587  29.261   9.102
 1095POPC   C1A18063  13.749  29.133   8.664
 1095POPC   D2A18064  13.925  29.318   8.298
 1095POPC   C3A18065  13.752  29.112   7.896
 1095POPC   C4A18066  13.425  28.921   7.668
 1095POPC   C1B18067  13.395  29.509   8.776
 1095POPC   C2B18068  13.307  29.627   8.362
 1095POPC   C3B18069  13.574  29.574   8.027
 1095POPC   C4B18070  13.425  29.460   7.639
 1096POPC   NC318071  11.633  33.670   9.474
 1096POPC   PO418072  11.159  34.041   9.639
 1096POPC   GL118073  11.248  33.963   9.221
 1096POPC   GL218074  10.873  33.993   9.131
 1096POPC   C1A18075  11.409  33.682   8.852
 1096POPC   D2A18076  11.559  33.490   8.466
 1096POPC   C3A18077  11.534  33.671   8.100
 1096POPC   C4A18078  11.282  33.688   7.760
 1096POPC   C1B18079  11.087  34.072   8.761
 1096POPC   C2B18080  11.138  33.853   8.390
 1096POPC   C3B18081  11.102  34.076   8.024
 1096POPC   C4B18082  10.950  34.310   7.715
 1097POPC   NC318083  17.936  21.620   9.632
 1097POPC   PO418084  17.450  21.103   9.497
 1097POPC   GL118085  17.507  21.200   9.068
 1097POPC   GL218086  17.775  21.402   9.132
 1097POPC   C1A18087  17.503  21.439   8.676
 1097POPC   D2A18088  17.229  21.557   8.327
 1097POPC   C3A18089  17.420  21.378   7.984
 1097POPC   C4A18090  17.423  21.297   7.561
 1097POPC   C1B18091  17.910  21.112   8.784
 1097POPC   C2B18092  17.912  21.176   8.341
 1097POPC   C3B18093  17.884  21.173   7.888
 1097POPC   C4B18094  17.831  21.570   7.644
 1098POPC   NC318095  37.128  29.863   9.735
 1098POPC   PO418096  36.666  29.640   9.288
 1098POPC   GL118097  37.058  29.780   9.133
 1098POPC   GL218098  37.113  30.126   9.133
 1098POPC   C1A18099  37.064  29.766   8.675
 1098POPC   D2A18100  37.019  30.098   8.408
 1098POPC   C3A18101  37.133  30.116   7.975
 1098POPC   C4A18102  36.999  29.893   7.552
 1098POPC   C1B18103  36.734  30.168   8.870
 1098POPC   C2B18104  36.508  30.120   8.462
 1098POPC   C3B18105  36.644  30.063   8.046
 1098POPC   C4B18106  36.737  30.331   7.677
 1099POPC   NC318107   6.882  21.347   9.654
 1099POPC   PO418108   6.190  21.462   9.643
 1099POPC   GL118109   6.496  21.482   9.256
 1099POPC   GL218110   6.878  21.585   9.219
 1099POPC   C1A18111   6.589  21.607   8.818
 1099POPC   D2A18112   6.506  21.474   8.408
 1099POPC   C3A18113   6.329  21.386   8.015
 1099POPC   C4A18114   6.607  21.235   7.714
 1099POPC   C1B18115   7.081  21.750   8.851
 1099POPC   C2B18116   6.872  21.829   8.453
 1099POPC   C3B18117   6.780  21.700   8.041
 1099POPC   C4B18118   7.042  21.591   7.714
 1100POPC   NC318119   2.873  12.442   9.544
 1100POPC   PO418120   3.076  13.054   9.567
 1100POPC   GL118121   2.930  12.867   9.197
 1100POPC   GL218122   2.607  12.687   9.164
 1100POPC   C1A18123   2.914  13.118   8.842
 1100POPC   D2A18124   2.664  13.115   8.484
 1100POPC   C3A18125   2.757  12.829   8.179
 1100POPC   C4A18126   2.801  12.843   7.756
 1100POPC   C1B18127   2.690  12.611   8.726
 1100POPC   C2B18128   2.526  12.327   8.401
 1100POPC   C3B18129   2.651  12.357   7.983
 1100POPC   C4B18130   2.513  12.482   7.565
 1101POPC   NC318131  19.502   8.878   9.662
 1101POPC   PO418132  18.916   9.167   9.582
 1101POPC   GL118133  19.005   8.966   9.189
 1101POPC   GL218134  19.323   8.822   9.189
 1101POPC   C1A18135  18.901   8.830   8.775
 1101POPC   D2A18136  18.679   8.877   8.390
 1101POPC   C3A18137  18.946   8.915   8.033
 1101POPC   C4A18138  19.072   9.242   7.774
 1101POPC   C1B18139  19.365   9.032   8.802
 1101POPC   C2B18140  19.285   8.884   8.401
 1101POPC   C3B18141  19.465   9.011   7.998
 1101POPC   C4B18142  19.863   9.050   7.776
 1102POPC   NC318143  29.190  18.512   9.448
 1102POPC   PO418144  29.344  17.792   9.435
 1102POPC   GL118145  29.182  18.090   9.131
 1102POPC   GL218146  29.428  18.336   9.028
 1102POPC   C1A18147  29.003  18.331   8.768
 1102POPC   D2A18148  29.193  18.427   8.374
 1102POPC   C3A18149  28.964  18.479   8.014
 1102POPC   C4A18150  29.083  18.158   7.744
 1102POPC   C1B18151  29.423  18.711   8.735
 1102POPC   C2B18152  29.567  18.781   8.296
 1102POPC   C3B18153  29.452  18.594   7.873
 1102POPC   C4B18154  29.130  18.591   7.507
 1103POPC   NC318155  42.062  34.185   9.499
 1103POPC   PO418156  42.263  33.572   9.447
 1103POPC   GL118157  42.260  33.832   9.117
 1103POPC   GL218158  42.629  33.876   9.122
 1103POPC   C1A18159  42.117  33.688   8.734
 1103POPC   D2A18160  41.867  33.531   8.399
 1103POPC   C3A18161  42.028  33.784   8.066
 1103POPC   C4A18162  42.060  33.966   7.655
 1103POPC   C1B18163  42.616  33.581   8.769
 1103POPC   C2B18164  42.459  33.655   8.339
 1103POPC   C3B18165  42.513  33.796   7.894
 1103POPC   C4B18166  42.762  34.080   7.620
 1104POPC   NC318167  43.727  42.641   9.802
 1104POPC   PO418168  43.760  42.091   9.397
 1104POPC   GL118169  44.190  42.211   9.251
 1104POPC   GL218170  44.026  42.494   9.217
 1104POPC   C1A18171  44.345  42.336   8.840
 1104POPC   D2A18172  44.087  42.341   8.457
 1104POPC   C3A18173  44.159  42.081   8.122
 1104POPC   C4A18174  44.184  42.222   7.656
 1104POPC   C1B18175  43.997  42.683   8.814
 1104POPC   C2B18176  43.779  42.831   8.473
 1104POPC   C3B18177  43.880  42.852   8.048
 1104POPC   C4B18178  43.914  42.646   7.655
 1105POPC   NC318179   0.262  17.020   9.519
 1105POPC   PO418180   0.609  16.350   9.467
 1105POPC   GL118181   0.564  16.705   9.196
 1105POPC   GL218182   0.216  16.766   9.090
 1105POPC   C1A18183   0.575  16.626   8.760
 1105POPC   D2A18184   0.367  16.429   8.483
 1105POPC   C3A18185   0.447  16.618   8.128
 1105POPC   C4A18186   0.486  16.613   7.675
 1105POPC   C1B18187   0.188  16.960   8.704
 1105POPC   C2B18188   0.120  17.014   8.297
 1105POPC   C3B18189   0.170  16.971   7.888
 1105POPC   C4B18190   0.109  16.931   7.493
 1106POPC   NC318191   4.301   2.931   9.525
 1106POPC   PO418192   4.612   2.469   9.232
 1106POPC   GL118193   4.262   2.689   9.060
 1106POPC   GL218194   4.107   3.062   9.085
 1106POPC   C1A18195   4.283   2.639   8.644
 1106POPC   D2A18196   4.084   2.676   8.250
 1106POPC   C3A18197   4.383   2.729   7.951
 1106POPC   C4A18198   4.425   2.398   7.662
 1106POPC   C1B18199   4.002   3.054   8.668
 1106POPC   C2B18200   3.841   3.099   8.254
 1106POPC   C3B18201   4.011   3.080   7.841
 1106POPC   C4B18202   3.937   2.935   7.420
 1107POPC   NC318203   8.845  17.713   9.470
 1107POPC   PO418204   8.970  17.143   9.684
 1107POPC   GL118205   9.087  17.291   9.232
 1107POPC   GL218206   8.773  17.336   9.094
 1107POPC   C1A18207   9.184  17.325   8.757
 1107POPC   D2A18208   8.875  17.415   8.401
 1107POPC   C3A18209   9.035  17.383   7.977
 1107POPC   C4A18210   9.348  17.434   7.656
 1107POPC   C1B18211   8.888  17.719   8.835
 1107POPC   C2B18212   8.913  17.935   8.456
 1107POPC   C3B18213   8.799  17.881   8.030
 1107POPC   C4B18214   8.848  17.798   7.598
 1108POPC   NC318215  32.788  18.809   9.541
 1108POPC   PO418216  33.270  19.384   9.467
 1108POPC   GL118217  33.098  19.030   9.179
 1108POPC   GL218218  32.723  19.022   9.078
 1108POPC   C1A18219  33.068  19.140   8.746
 1108POPC   D2A18220  32.923  19.326   8.424
 1108POPC   C3A18221  33.167  19.288   8.075
 1108POPC   C4A18222  33.316  18.950   7.825
 1108POPC   C1B18223  32.711  18.781   8.676
 1108POPC   C2B18224  32.973  18.833   8.305
 1108POPC   C3B18225  32.790  18.979   7.908
 1108POPC   C4B18226  32.793  18.895   7.469
 1109POPC   NC318227   0.168  15.339   9.586
 1109POPC   PO418228   0.852  15.380   9.469
 1109POPC   GL118229   0.625  15.094   9.157
 1109POPC   GL218230   0.257  14.992   9.195
 1109POPC   C1A18231   0.545  15.171   8.719
 1109POPC   D2A18232   0.498  15.430   8.396
 1109POPC   C3A18233   0.684  15.385   8.064
 1109POPC   C4A18234   0.439  15.397   7.728
 1109POPC   C1B18235   0.060  15.064   8.800
 1109POPC   C2B18236   0.028  15.234   8.378
 1109POPC   C3B18237  44.994  15.292   7.950
 1109POPC   C4B18238   0.154  14.992   7.609
 1110POPC   NC318239  19.083  11.876   9.536
 1110POPC   PO418240  19.232  12.488   9.441
 1110POPC   GL118241  19.078  12.219   9.122
 1110POPC   GL218242  18.817  11.976   9.133
 1110POPC   C1A18243  19.282  12.047   8.757
 1110POPC   D2A18244  19.492  12.127   8.388
 1110POPC   C3A18245  19.253  12.209   8.046
 1110POPC   C4A18246  19.294  11.904   7.744
 1110POPC   C1B18247  18.755  12.036   8.718
 1110POPC   C2B18248  18.968  11.949   8.358
 1110POPC   C3B18249  18.804  12.015   7.921
 1110POPC   C4B18250  18.859  12.445   7.788
 1111POPC   NC318251  27.589  13.447   9.539
 1111POPC   PO418252  27.699  14.061   9.742
 1111POPC   GL118253  27.878  13.785   9.316
 1111POPC   GL218254  27.563  13.666   9.082
 1111POPC   C1A18255  27.993  13.649   8.843
 1111POPC   D2A18256  27.937  13.738   8.380
 1111POPC   C3A18257  27.532  13.632   8.167
 1111POPC   C4A18258  27.493  13.423   7.761
 1111POPC   C1B18259  27.280  13.680   8.709
 1111POPC   C2B18260  27.098  13.885   8.353
 1111POPC   C3B18261  27.272  14.087   8.012
 1111POPC   C4B18262  27.498  13.949   7.662
 1112POPC   NC318263  37.488  20.288   9.371
 1112POPC   PO418264  37.210  20.899   9.534
 1112POPC   GL118265  37.437  20.773   9.142
 1112POPC   GL218266  37.207  20.577   8.957
 1112POPC   C1A18267  37.683  20.701   8.728
 1112POPC   D2A18268  37.693  20.850   8.245
 1112POPC   C3A18269  37.616  20.541   7.825
 1112POPC   C4A18270  37.549  20.379   7.352
 1112POPC   C1B18271  37.234  20.921   8.620
 1112POPC   C2B18272  37.257  21.152   8.211
 1112POPC   C3B18273  37.494  21.046   7.824
 1112POPC   C4B18274  37.410  20.864   7.405
 1113POPC   NC318275  41.377  12.638   9.486
 1113POPC   PO418276  42.012  12.971   9.610
 1113POPC   GL118277  41.702  12.947   9.230
 1113POPC   GL218278  41.660  12.594   9.093
 1113POPC   C1A18279  41.548  13.255   8.900
 1113POPC   D2A18280  41.384  13.268   8.468
 1113POPC   C3A18281  41.439  13.028   8.076
 1113POPC   C4A18282  41.726  13.066   7.706
 1113POPC   C1B18283  41.381  12.782   8.811
 1113POPC   C2B18284  41.514  12.661   8.421
 1113POPC   C3B18285  41.594  12.560   7.992
 1113POPC   C4B18286  41.316  12.693   7.696
 1114POPC   NC318287  34.168  27.283   9.553
 1114POPC   PO418288  34.801  27.314   9.588
 1114POPC   GL118289  34.574  27.328   9.210
 1114POPC   GL218290  34.310  27.580   9.162
 1114POPC   C1A18291  34.642  27.470   8.778
 1114POPC   D2A18292  34.865  27.665   8.416
 1114POPC   C3A18293  34.686  27.548   8.021
 1114POPC   C4A18294  34.586  27.260   7.683
 1114POPC   C1B18295  34.166  27.695   8.754
 1114POPC   C2B18296  34.078  27.731   8.295
 1114POPC   C3B18297  34.252  27.765   7.863
 1114POPC   C4B18298  34.402  28.125   7.613
 1115POPC   NC318299  38.771  26.539   9.499
 1115POPC   PO418300  38.229  26.904   9.615
 1115POPC   GL118301  38.254  26.808   9.176
 1115POPC   GL218302  38.182  27.145   9.116
 1115POPC   C1A18303  38.570  26.650   8.843
 1115POPC   D2A18304  38.611  26.408   8.447
 1115POPC   C3A18305  38.567  26.595   8.045
 1115POPC   C4A18306  38.635  26.396   7.636
 1115POPC   C1B18307  38.359  27.106   8.729
 1115POPC   C2B18308  38.277  26.817   8.421
 1115POPC   C3B18309  38.097  26.824   8.019
 1115POPC   C4B18310  38.286  26.785   7.606
 1116POPC   NC318311  29.789  28.330   9.349
 1116POPC   PO418312  30.443  28.236   9.395
 1116POPC   GL118313  30.208  28.197   9.081
 1116POPC   GL218314  30.121  28.559   9.003
 1116POPC   C1A18315  30.002  28.177   8.709
 1116POPC   D2A18316  29.680  28.092   8.454
 1116POPC   C3A18317  29.818  28.288   8.107
 1116POPC   C4A18318  29.930  28.185   7.739
 1116POPC   C1B18319  29.687  28.574   8.761
 1116POPC   C2B18320  29.475  28.569   8.351
 1116POPC   C3B18321  29.658  28.761   7.989
 1116POPC   C4B18322  29.947  28.686   7.642
 1117POPC   NC318323  26.564  14.028   9.550
 1117POPC   PO418324  27.164  13.609   9.424
 1117POPC   GL118325  26.810  13.605   9.155
 1117POPC   GL218326  26.874  13.951   9.118
 1117POPC   C1A18327  26.753  13.623   8.697
 1117POPC   D2A18328  26.880  13.419   8.361
 1117POPC   C3A18329  26.739  13.452   7.948
 1117POPC   C4A18330  27.056  13.686   7.730
 1117POPC   C1B18331  26.454  13.934   8.935
 1117POPC   C2B18332  26.337  13.932   8.520
 1117POPC   C3B18333  26.610  13.912   8.171
 1117POPC   C4B18334  26.581  13.918   7.730
 1118POPC   NC318335  28.485  13.026   9.420
 1118POPC   PO418336  28.146  12.471   9.658
 1118POPC   GL118337  28.082  12.760   9.247
 1118POPC   GL218338  28.361  12.671   9.021
 1118POPC   C1A18339  28.058  13.084   8.857
 1118POPC   D2A18340  27.847  13.212   8.438
 1118POPC   C3A18341  28.074  13.200   8.032
 1118POPC   C4A18342  28.485  13.033   7.894
 1118POPC   C1B18343  28.057  12.609   8.647
 1118POPC   C2B18344  28.013  12.659   8.171
 1118POPC   C3B18345  28.300  12.562   7.815
 1118POPC   C4B18346  28.705  12.589   7.629
 1119POPC   NC318347  38.641  23.218   9.487
 1119POPC   PO418348  37.970  23.193   9.449
 1119POPC   GL118349  38.293  22.939   9.229
 1119POPC   GL218350  38.321  23.279   9.077
 1119POPC   C1A18351  38.622  22.937   8.858
 1119POPC   D2A18352  38.753  22.770   8.452
 1119POPC   C3A18353  38.625  22.945   8.061
 1119POPC   C4A18354  38.496  22.670   7.755
 1119POPC   C1B18355  38.087  23.046   8.789
 1119POPC   C2B18356  38.260  22.924   8.448
 1119POPC   C3B18357  38.134  22.737   8.112
 1119POPC   C4B18358  38.047  22.890   7.705
 1120POPC   NC318359  39.604  39.443   9.404
 1120POPC   PO418360  38.928  39.502   9.371
 1120POPC   GL118361  39.165  39.300   9.081
 1120POPC   GL218362  39.439  39.057   9.141
 1120POPC   C1A18363  39.078  39.397   8.676
 1120POPC   D2A18364  39.306  39.515   8.326
 1120POPC   C3A18365  39.104  39.392   7.961
 1120POPC   C4A18366  39.106  39.125   7.621
 1120POPC   C1B18367  39.584  39.344   8.769
 1120POPC   C2B18368  39.644  39.138   8.385
 1120POPC   C3B18369  39.495  39.052   7.995
 1120POPC   C4B18370  39.589  38.942   7.581
 1121POPC   NC318371   6.834  16.386   9.653
 1121POPC   PO418372   6.652  15.826   9.480
 1121POPC   GL118373   6.613  15.741   9.090
 1121POPC   GL218374   6.956  15.737   9.048
 1121POPC   C1A18375   6.575  15.994   8.731
 1121POPC   D2A18376   6.307  16.281   8.540
 1121POPC   C3A18377   6.417  16.146   8.144
 1121POPC   C4A18378   6.648  16.069   7.755
 1121POPC   C1B18379   6.821  15.551   8.638
 1121POPC   C2B18380   6.472  15.541   8.346
 1121POPC   C3B18381   6.439  15.632   7.918
 1121POPC   C4B18382   6.773  15.567   7.607
 1122POPC   NC318383  36.922  41.280   9.316
 1122POPC   PO418384  37.256  40.769   9.319
 1122POPC   GL118385  36.898  40.838   9.054
 1122POPC   GL218386  36.646  40.631   9.159
 1122POPC   C1A18387  36.880  41.000   8.649
 1122POPC   D2A18388  36.791  40.763   8.298
 1122POPC   C3A18389  37.054  40.756   7.952
 1122POPC   C4A18390  36.990  41.039   7.648
 1122POPC   C1B18391  36.747  40.447   8.730
 1122POPC   C2B18392  36.637  40.293   8.316
 1122POPC   C3B18393  36.699  40.402   7.868
 1122POPC   C4B18394  36.710  40.638   7.470
 1123POPC   NC318395  11.977  27.202   9.369
 1123POPC   PO418396  12.319  27.806   9.433
 1123POPC   GL118397  12.089  27.640   9.125
 1123POPC   GL218398  12.393  27.410   9.080
 1123POPC   C1A18399  11.897  27.649   8.697
 1123POPC   D2A18400  11.864  27.312   8.384
 1123POPC   C3A18401  11.750  27.482   8.022
 1123POPC   C4A18402  11.813  27.815   7.756
 1123POPC   C1B18403  12.402  27.735   8.744
 1123POPC   C2B18404  12.282  27.984   8.432
 1123POPC   C3B18405  12.201  27.643   8.167
 1123POPC   C4B18406  12.208  27.487   7.744
 1124POPC   NC318407   4.501  19.819   9.418
 1124POPC   PO418408   3.883  19.680   9.609
 1124POPC   GL118409   3.987  19.866   9.212
 1124POPC   GL218410   4.149  20.164   9.192
 1124POPC   C1A18411   4.111  19.850   8.791
 1124POPC   D2A18412   4.112  19.619   8.407
 1124POPC   C3A18413   3.974  19.636   7.970
 1124POPC   C4A18414   4.133  19.779   7.576
 1124POPC   C1B18415   4.454  20.293   8.875
 1124POPC   C2B18416   4.270  20.210   8.479
 1124POPC   C3B18417   4.306  20.005   8.095
 1124POPC   C4B18418   4.552  20.002   7.723
 1125POPC   NC318419  12.365   4.930   9.608
 1125POPC   PO418420  11.764   5.288   9.421
 1125POPC   GL118421  11.891   5.142   9.062
 1125POPC   GL218422  12.039   4.890   9.180
 1125POPC   C1A18423  12.148   5.257   8.704
 1125POPC   D2A18424  12.263   5.341   8.286
 1125POPC   C3A18425  12.179   5.090   7.925
 1125POPC   C4A18426  12.191   5.153   7.471
 1125POPC   C1B18427  12.287   4.795   8.831
 1125POPC   C2B18428  12.129   4.811   8.399
 1125POPC   C3B18429  11.799   4.748   8.081
 1125POPC   C4B18430  11.788   4.854   7.655
 1126POPC   NC318431   7.506  31.426   9.541
 1126POPC   PO418432   6.873  31.383   9.528
 1126POPC   GL118433   7.181  31.473   9.154
 1126POPC   GL218434   7.423  31.221   9.089
 1126POPC   C1A18435   7.421  31.671   8.791
 1126POPC   D2A18436   7.297  31.794   8.360
 1126POPC   C3A18437   7.443  31.579   7.990
 1126POPC   C4A18438   7.411  31.585   7.562
 1126POPC   C1B18439   7.604  31.161   8.706
 1126POPC   C2B18440   7.457  31.160   8.296
 1126POPC   C3B18441   7.588  31.032   7.903
 1126POPC   C4B18442   7.749  31.175   7.522
 1127POPC   NC318443  21.024  23.203   9.421
 1127POPC   PO418444  21.556  22.886   9.499
 1127POPC   GL118445  21.352  22.771   9.124
 1127POPC   GL218446  21.048  22.892   9.020
 1127POPC   C1A18447  21.565  22.727   8.742
 1127POPC   D2A18448  21.344  22.617   8.389
 1127POPC   C3A18449  21.450  22.821   8.018
 1127POPC   C4A18450  21.318  22.812   7.600
 1127POPC   C1B18451  21.236  23.086   8.644
 1127POPC   C2B18452  21.383  23.295   8.253
 1127POPC   C3B18453  21.407  23.278   7.803
 1127POPC   C4B18454  21.212  23.274   7.387
 1128POPC   NC318455  17.061  22.978   9.363
 1128POPC   PO418456  16.451  23.193   9.544
 1128POPC   GL118457  16.414  22.995   9.156
 1128POPC   GL218458  16.692  22.867   9.041
 1128POPC   C1A18459  16.301  23.142   8.726
 1128POPC   D2A18460  16.345  23.111   8.272
 1128POPC   C3A18461  16.665  23.114   7.978
 1128POPC   C4A18462  16.574  22.947   7.578
 1128POPC   C1B18463  16.750  22.906   8.618
 1128POPC   C2B18464  16.948  22.699   8.283
 1128POPC   C3B18465  16.928  22.628   7.857
 1128POPC   C4B18466  17.010  22.764   7.431
 1129POPC   NC318467  42.628   9.212   9.401
 1129POPC   PO418468  42.394   9.874   9.611
 1129POPC   GL118469  42.301   9.818   9.185
 1129POPC   GL218470  42.594   9.647   9.148
 1129POPC   C1A18471  42.351   9.723   8.715
 1129POPC   D2A18472  42.193   9.515   8.368
 1129POPC   C3A18473  42.283   9.814   8.082
 1129POPC   C4A18474  42.263   9.849   7.665
 1129POPC   C1B18475  42.748   9.413   8.807
 1129POPC   C2B18476  42.768   9.526   8.400
 1129POPC   C3B18477  42.713   9.561   7.983
 1129POPC   C4B18478  42.542   9.423   7.619
 1130POPC   NC318479  40.125  14.854   9.327
 1130POPC   PO418480  39.673  15.313   9.443
 1130POPC   GL118481  39.780  15.283   9.005
 1130POPC   GL218482  40.151  15.241   8.874
 1130POPC   C1A18483  39.793  15.475   8.604
 1130POPC   D2A18484  40.099  15.364   8.347
 1130POPC   C3A18485  40.148  15.244   7.938
 1130POPC   C4A18486  39.925  15.351   7.559
 1130POPC   C1B18487  39.936  14.958   8.630
 1130POPC   C2B18488  39.648  15.047   8.289
 1130POPC   C3B18489  39.709  14.988   7.869
 1130POPC   C4B18490  40.088  14.867   7.610
 1131POPC   NC318491  37.122  16.331   9.369
 1131POPC   PO418492  36.910  16.949   9.500
 1131POPC   GL118493  37.141  16.829   9.131
 1131POPC   GL218494  36.809  16.692   9.031
 1131POPC   C1A18495  37.177  16.692   8.675
 1131POPC   D2A18496  36.806  16.553   8.425
 1131POPC   C3A18497  36.860  16.635   7.977
 1131POPC   C4A18498  37.019  16.880   7.616
 1131POPC   C1B18499  36.481  16.873   8.745
 1131POPC   C2B18500  36.458  17.030   8.319
 1131POPC   C3B18501  36.396  16.825   7.906
 1131POPC   C4B18502  36.609  16.634   7.504
 1132POPC   NC318503  42.070  32.504   9.817
 1132POPC   PO418504  41.519  32.978   9.625
 1132POPC   GL118505  41.583  33.018   9.190
 1132POPC   GL218506  41.265  32.933   9.067
 1132POPC   C1A18507  41.817  33.102   8.791
 1132POPC   D2A18508  41.960  32.915   8.411
 1132POPC   C3A18509  41.903  33.132   8.032
 1132POPC   C4A18510  41.728  32.802   7.816
 1132POPC   C1B18511  41.384  32.874   8.643
 1132POPC   C2B18512  41.440  33.017   8.238
 1132POPC   C3B18513  41.263  33.008   7.848
 1132POPC   C4B18514  41.025  33.227   7.664
 1133POPC   NC318515  36.636  44.619   9.767
 1133POPC   PO418516  36.002  44.697   9.538
 1133POPC   GL118517  36.051  44.673   9.115
 1133POPC   GL218518  36.107  44.333   9.010
 1133POPC   C1A18519  36.107  44.880   8.715
 1133POPC   D2A18520  36.424  44.772   8.410
 1133POPC   C3A18521  36.288  44.627   8.037
 1133POPC   C4A18522  36.198  44.842   7.676
 1133POPC   C1B18523  35.765  44.505   8.726
 1133POPC   C2B18524  35.832  44.684   8.308
 1133POPC   C3B18525  35.815  44.525   7.879
 1133POPC   C4B18526  35.806  44.643   7.411
 1134POPC   NC318527   9.751  32.630   9.846
 1134POPC   PO418528   9.394  32.131   9.597
 1134POPC   GL118529   9.556  32.262   9.225
 1134POPC   GL218530   9.890  32.229   9.159
 1134POPC   C1A18531   9.533  32.346   8.785
 1134POPC   D2A18532   9.785  32.191   8.430
 1134POPC   C3A18533   9.656  32.381   8.056
 1134POPC   C4A18534   9.351  32.304   7.766
 1134POPC   C1B18535  10.152  32.041   8.840
 1134POPC   C2B18536  10.071  31.732   8.524
 1134POPC   C3B18537  10.125  31.727   8.091
 1134POPC   C4B18538  10.066  32.112   7.858
 1135POPC   NC318539  41.098  22.469   9.481
 1135POPC   PO418540  41.601  22.992   9.641
 1135POPC   GL118541  41.717  23.107   9.185
 1135POPC   GL218542  41.448  23.336   9.149
 1135POPC   C1A18543  41.737  22.942   8.745
 1135POPC   D2A18544  41.961  22.845   8.350
 1135POPC   C3A18545  41.745  22.769   7.974
 1135POPC   C4A18546  41.513  22.723   7.606
 1135POPC   C1B18547  41.292  23.212   8.738
 1135POPC   C2B18548  41.444  23.095   8.310
 1135POPC   C3B18549  41.315  23.122   7.860
 1135POPC   C4B18550  41.341  23.269   7.423
 1136POPC   NC318551  31.643   0.561   9.524
 1136POPC   PO418552  31.346   0.110   9.251
 1136POPC   GL118553  31.679   0.326   9.051
 1136POPC   GL218554  31.636   0.705   9.026
 1136POPC   C1A18555  31.634   0.346   8.634
 1136POPC   D2A18556  31.573   0.611   8.303
 1136POPC   C3A18557  31.690   0.457   7.915
 1136POPC   C4A18558  31.812   0.057   7.838
 1136POPC   C1B18559  31.275   0.728   8.721
 1136POPC   C2B18560  31.221   0.974   8.324
 1136POPC   C3B18561  31.462   0.932   7.916
 1136POPC   C4B18562  31.628   0.756   7.510
 1137POPC   NC318563  30.526   1.922   9.690
 1137POPC   PO418564  31.136   1.755   9.609
 1137POPC   GL118565  30.863   1.950   9.260
 1137POPC   GL218566  30.510   1.848   9.178
 1137POPC   C1A18567  30.847   2.099   8.822
 1137POPC   D2A18568  30.671   2.261   8.438
 1137POPC   C3A18569  30.726   2.099   8.026
 1137POPC   C4A18570  30.498   2.168   7.646
 1137POPC   C1B18571  30.339   2.033   8.794
 1137POPC   C2B18572  30.280   1.868   8.392
 1137POPC   C3B18573  30.273   1.839   7.959
 1137POPC   C4B18574  30.079   1.851   7.560
 1138POPC   NC318575  20.817  35.572   9.431
 1138POPC   PO418576  20.428  35.023   9.357
 1138POPC   GL118577  20.623  35.262   9.095
 1138POPC   GL218578  20.303  35.422   9.045
 1138POPC   C1A18579  20.707  35.456   8.715
 1138POPC   D2A18580  20.606  35.405   8.311
 1138POPC   C3A18581  20.797  35.606   8.020
 1138POPC   C4A18582  20.520  35.483   7.707
 1138POPC   C1B18583  20.313  35.101   8.718
 1138POPC   C2B18584  20.202  35.073   8.340
 1138POPC   C3B18585  20.328  35.037   7.955
 1138POPC   C4B18586  20.276  35.093   7.516
 1139POPC   NC318587  31.761   3.460   9.777
 1139POPC   PO418588  31.099   3.097   9.613
 1139POPC   GL118589  31.267   3.335   9.150
 1139POPC   GL218590  31.444   3.675   9.116
 1139POPC   C1A18591  31.205   3.515   8.714
 1139POPC   D2A18592  31.429   3.665   8.349
 1139POPC   C3A18593  31.222   3.457   7.997
 1139POPC   C4A18594  31.364   3.323   7.569
 1139POPC   C1B18595  31.153   3.992   8.902
 1139POPC   C2B18596  31.004   3.951   8.485
 1139POPC   C3B18597  31.167   4.022   8.078
 1139POPC   C4B18598  31.212   3.821   7.661
 1140POPC   NC318599  27.133   5.630   9.474
 1140POPC   PO418600  26.643   6.066   9.488
 1140POPC   GL118601  26.715   5.869   9.094
 1140POPC   GL218602  27.028   5.719   9.014
 1140POPC   C1A18603  26.883   6.067   8.701
 1140POPC   D2A18604  27.043   6.159   8.330
 1140POPC   C3A18605  26.841   6.005   7.978
 1140POPC   C4A18606  26.602   6.222   7.684
 1140POPC   C1B18607  27.118   5.487   8.710
 1140POPC   C2B18608  27.104   5.642   8.301
 1140POPC   C3B18609  27.084   5.516   7.889
 1140POPC   C4B18610  26.992   5.563   7.466
 1141POPC   NC318611  22.942  20.278   9.585
 1141POPC   PO418612  22.918  20.943   9.603
 1141POPC   GL118613  23.006  20.649   9.228
 1141POPC   GL218614  22.765  20.361   9.131
 1141POPC   C1A18615  23.157  20.472   8.816
 1141POPC   D2A18616  23.347  20.462   8.393
 1141POPC   C3A18617  23.362  20.838   8.133
 1141POPC   C4A18618  23.083  20.793   7.789
 1141POPC   C1B18619  22.575  20.490   8.756
 1141POPC   C2B18620  22.679  20.304   8.347
 1141POPC   C3B18621  22.784  20.357   7.880
 1141POPC   C4B18622  22.664  20.625   7.493
 1142POPC   NC318623   9.921  43.019   9.904
 1142POPC   PO418624   9.715  42.660   9.362
 1142POPC   GL118625   9.712  42.810   8.975
 1142POPC   GL218626   9.851  43.143   8.973
 1142POPC   C1A18627   9.435  42.874   8.636
 1142POPC   D2A18628   9.480  43.151   8.285
 1142POPC   C3A18629   9.442  42.987   7.910
 1142POPC   C4A18630   9.737  42.714   7.746
 1142POPC   C1B18631   9.913  43.079   8.551
 1142POPC   C2B18632   9.944  43.420   8.290
 1142POPC   C3B18633   9.776  43.434   7.929
 1142POPC   C4B18634   9.731  43.210   7.568
 1143POPC   NC318635  26.749  38.852   9.505
 1143POPC   PO418636  26.771  39.471   9.527
 1143POPC   GL118637  26.724  39.534   9.092
 1143POPC   GL218638  27.041  39.441   9.046
 1143POPC   C1A18639  26.670  39.260   8.705
 1143POPC   D2A18640  26.727  38.828   8.477
 1143POPC   C3A18641  26.728  38.873   8.001
 1143POPC   C4A18642  26.494  39.235   7.791
 1143POPC   C1B18643  27.200  39.237   8.684
 1143POPC   C2B18644  27.005  39.270   8.288
 1143POPC   C3B18645  26.939  39.460   7.903
 1143POPC   C4B18646  26.634  39.753   7.847
 1144POPC   NC318647  36.401  13.354   9.406
 1144POPC   PO418648  35.983  12.809   9.466
 1144POPC   GL118649  36.196  12.774   9.091
 1144POPC   GL218650  36.522  12.799   9.244
 1144POPC   C1A18651  36.193  12.722   8.609
 1144POPC   D2A18652  36.372  12.545   8.197
 1144POPC   C3A18653  36.227  12.598   7.763
 1144POPC   C4A18654  36.323  12.727   7.299
 1144POPC   C1B18655  36.626  12.882   8.826
 1144POPC   C2B18656  36.614  12.944   8.421
 1144POPC   C3B18657  36.318  13.056   8.107
 1144POPC   C4B18658  36.454  13.065   7.682
 1145POPC   NC318659   9.415   3.743   9.729
 1145POPC   PO418660   9.975   3.376   9.634
 1145POPC   GL118661   9.964   3.306   9.185
 1145POPC   GL218662   9.667   3.388   9.126
 1145POPC   C1A18663   9.982   3.313   8.725
 1145POPC   D2A18664   9.787   3.402   8.324
 1145POPC   C3A18665   9.993   3.365   7.926
 1145POPC   C4A18666   9.997   3.457   7.474
 1145POPC   C1B18667   9.528   3.598   8.737
 1145POPC   C2B18668   9.366   3.684   8.336
 1145POPC   C3B18669   9.559   3.659   7.931
 1145POPC   C4B18670   9.361   3.843   7.586
 1146POPC   NC318671  10.106   7.102   9.456
 1146POPC   PO418672  10.526   7.561   9.487
 1146POPC   GL118673  10.268   7.456   9.107
 1146POPC   GL218674  10.081   7.121   8.956
 1146POPC   C1A18675  10.448   7.382   8.713
 1146POPC   D2A18676  10.680   7.313   8.353
 1146POPC   C3A18677  10.406   7.473   8.042
 1146POPC   C4A18678  10.429   7.588   7.609
 1146POPC   C1B18679  10.316   6.897   8.646
 1146POPC   C2B18680  10.314   6.963   8.194
 1146POPC   C3B18681  10.012   7.058   7.863
 1146POPC   C4B18682  10.076   7.231   7.446
 1147POPC   NC318683  11.198   0.091   9.638
 1147POPC   PO418684  11.476  44.518   9.523
 1147POPC   GL118685  11.134  44.669   9.231
 1147POPC   GL218686  11.059   0.015   9.156
 1147POPC   C1A18687  11.102  44.690   8.781
 1147POPC   D2A18688  11.228   0.014   8.502
 1147POPC   C3A18689  11.305  44.786   8.144
 1147POPC   C4A18690  11.243  44.349   7.944
 1147POPC   C1B18691  11.461   0.025   8.965
 1147POPC   C2B18692  11.772  44.969   8.632
 1147POPC   C3B18693  11.822  44.882   8.195
 1147POPC   C4B18694  11.665   0.080   7.840
 1148POPC   NC318695  38.887  13.934   9.476
 1148POPC   PO418696  39.438  13.580   9.478
 1148POPC   GL118697  39.186  13.690   9.146
 1148POPC   GL218698  38.864  13.509   9.193
 1148POPC   C1A18699  39.136  13.880   8.777
 1148POPC   D2A18700  39.127  13.679   8.417
 1148POPC   C3A18701  39.404  13.736   8.107
 1148POPC   C4A18702  39.279  13.698   7.694
 1148POPC   C1B18703  38.903  13.366   8.775
 1148POPC   C2B18704  38.782  13.307   8.350
 1148POPC   C3B18705  38.866  13.546   8.002
 1148POPC   C4B18706  38.837  13.445   7.606
 1149POPC   NC318707  19.356   3.147   9.425
 1149POPC   PO418708  18.952   3.623   9.556
 1149POPC   GL118709  19.046   3.463   9.176
 1149POPC   GL218710  19.189   3.767   9.067
 1149POPC   C1A18711  18.904   3.414   8.771
 1149POPC   D2A18712  19.020   3.641   8.437
 1149POPC   C3A18713  18.857   3.497   8.065
 1149POPC   C4A18714  18.986   3.277   7.700
 1149POPC   C1B18715  19.418   3.928   8.726
 1149POPC   C2B18716  19.320   4.023   8.316
 1149POPC   C3B18717  19.303   3.772   7.966
 1149POPC   C4B18718  18.989   3.809   7.672
 1150POPC   NC318719  19.247  19.608   9.484
 1150POPC   PO418720  18.888  20.150   9.832
 1150POPC   GL118721  18.860  19.977   9.363
 1150POPC   GL218722  18.953  20.229   9.098
 1150POPC   C1A18723  18.850  19.739   8.942
 1150POPC   D2A18724  18.795  19.844   8.487
 1150POPC   C3A18725  18.942  19.630   8.135
 1150POPC   C4A18726  18.974  19.784   7.716
 1150POPC   C1B18727  19.184  20.061   8.769
 1150POPC   C2B18728  19.542  20.010   8.537
 1150POPC   C3B18729  19.432  19.909   8.135
 1150POPC   C4B18730  19.445  19.994   7.730
 1151POPC   NC318731  37.298   8.627   9.398
 1151POPC   PO418732  37.755   8.118   9.481
 1151POPC   GL118733  37.707   8.351   9.151
 1151POPC   GL218734  37.861   8.633   9.266
 1151POPC   C1A18735  37.615   8.208   8.741
 1151POPC   D2A18736  37.413   8.240   8.351
 1151POPC   C3A18737  37.602   7.998   8.009
 1151POPC   C4A18738  37.463   7.991   7.588
 1151POPC   C1B18739  37.827   8.720   8.830
 1151POPC   C2B18740  37.871   8.527   8.429
 1151POPC   C3B18741  37.710   8.539   8.030
 1151POPC   C4B18742  37.782   8.371   7.682
 1152POPC   NC318743  12.822   9.303   9.579
 1152POPC   PO418744  13.343   8.877   9.790
 1152POPC   GL118745  13.045   8.815   9.368
 1152POPC   GL218746  12.794   9.046   9.158
 1152POPC   C1A18747  12.986   8.695   8.888
 1152POPC   D2A18748  12.763   8.821   8.474
 1152POPC   C3A18749  13.034   8.763   8.087
 1152POPC   C4A18750  12.796   8.657   7.732
 1152POPC   C1B18751  12.946   9.207   8.744
 1152POPC   C2B18752  13.121   9.184   8.342
 1152POPC   C3B18753  12.937   9.228   7.910
 1152POPC   C4B18754  12.936   9.077   7.436
 1153POPC   NC318755  10.393   3.436   9.437
 1153POPC   PO418756  11.009   3.677   9.433
 1153POPC   GL118757  10.695   3.560   9.055
 1153POPC   GL218758  10.318   3.695   8.899
 1153POPC   C1A18759  10.502   3.287   8.719
 1153POPC   D2A18760  10.317   3.472   8.334
 1153POPC   C3A18761  10.512   3.289   7.954
 1153POPC   C4A18762  10.504   3.202   7.525
 1153POPC   C1B18763  10.671   3.772   8.603
 1153POPC   C2B18764  10.804   4.094   8.317
 1153POPC   C3B18765  10.652   4.027   7.913
 1153POPC   C4B18766  10.364   3.727   7.703
 1154POPC   NC318767   9.246   2.835   9.611
 1154POPC   PO418768   8.686   2.447   9.505
 1154POPC   GL118769   8.905   2.695   9.225
 1154POPC   GL218770   9.181   2.499   9.191
 1154POPC   C1A18771   9.020   2.822   8.811
 1154POPC   D2A18772   8.885   2.776   8.381
 1154POPC   C3A18773   8.963   3.034   8.082
 1154POPC   C4A18774   9.013   2.857   7.736
 1154POPC   C1B18775   9.293   2.413   8.760
 1154POPC   C2B18776   9.371   2.678   8.456
 1154POPC   C3B18777   9.325   2.640   8.060
 1154POPC   C4B18778   9.246   2.426   7.668
 1155POPC   NC318779   6.218  15.961   9.534
 1155POPC   PO418780   5.572  16.067   9.719
 1155POPC   GL118781   5.765  16.064   9.271
 1155POPC   GL218782   6.109  16.222   9.126
 1155POPC   C1A18783   5.700  16.117   8.820
 1155POPC   D2A18784   5.807  16.192   8.406
 1155POPC   C3A18785   5.581  16.102   8.016
 1155POPC   C4A18786   5.597  16.167   7.558
 1155POPC   C1B18787   6.119  15.819   8.917
 1155POPC   C2B18788   6.039  15.729   8.523
 1155POPC   C3B18789   5.997  15.821   8.114
 1155POPC   C4B18790   6.082  16.088   7.780
 1156POPC   NC318791   4.229  12.747   9.447
 1156POPC   PO418792   4.630  13.299   9.460
 1156POPC   GL118793   4.410  13.095   9.119
 1156POPC   GL218794   4.127  13.272   9.052
 1156POPC   C1A18795   4.476  12.780   8.756
 1156POPC   D2A18796   4.631  12.593   8.353
 1156POPC   C3A18797   4.542  12.817   7.947
 1156POPC   C4A18798   4.185  12.747   7.775
 1156POPC   C1B18799   4.287  13.245   8.635
 1156POPC   C2B18800   4.210  13.092   8.245
 1156POPC   C3B18801   4.046  13.213   7.875
 1156POPC   C4B18802   4.240  13.131   7.454
 1157POPC   NC318803  44.920  39.552   9.451
 1157POPC   PO418804  44.574  38.895   9.490
 1157POPC   GL118805  44.652  39.197   9.184
 1157POPC   GL218806  44.524  38.972   8.977
 1157POPC   C1A18807  44.472  39.484   8.862
 1157POPC   D2A18808  44.353  39.503   8.396
 1157POPC   C3A18809  44.619  39.501   7.992
 1157POPC   C4A18810   0.091  39.488   7.890
 1157POPC   C1B18811  44.706  39.110   8.615
 1157POPC   C2B18812  44.888  39.146   8.250
 1157POPC   C3B18813  44.892  39.027   7.865
 1157POPC   C4B18814  44.530  39.039   7.667
 1158POPC   NC318815  12.795   1.068   9.411
 1158POPC   PO418816  13.423   1.383   9.557
 1158POPC   GL118817  13.208   1.214   9.117
 1158POPC   GL218818  12.837   1.155   8.937
 1158POPC   C1A18819  13.222   1.176   8.640
 1158POPC   D2A18820  13.321   1.250   8.233
 1158POPC   C3A18821  12.946   1.292   8.007
 1158POPC   C4A18822  13.046   1.193   7.609
 1158POPC   C1B18823  12.569   1.077   8.603
 1158POPC   C2B18824  12.460   1.167   8.178
 1158POPC   C3B18825  12.549   1.110   7.728
 1158POPC   C4B18826  12.715   0.917   7.329
 1159POPC   NC318827  25.352  16.154   9.431
 1159POPC   PO418828  24.891  15.702   9.522
 1159POPC   GL118829  25.198  15.725   9.180
 1159POPC   GL218830  25.181  16.018   8.988
 1159POPC   C1A18831  25.356  15.603   8.764
 1159POPC   D2A18832  25.352  15.713   8.322
 1159POPC   C3A18833  25.003  15.767   8.069
 1159POPC   C4A18834  24.993  15.867   7.655
 1159POPC   C1B18835  25.308  16.150   8.607
 1159POPC   C2B18836  25.592  16.209   8.280
 1159POPC   C3B18837  25.397  16.077   7.932
 1159POPC   C4B18838  25.429  16.079   7.490
 1160POPC   NC318839  43.159  32.958   9.602
 1160POPC   PO418840  42.751  32.571   9.243
 1160POPC   GL118841  42.917  32.961   9.124
 1160POPC   GL218842  42.956  33.337   9.099
 1160POPC   C1A18843  42.796  33.060   8.729
 1160POPC   D2A18844  43.055  32.989   8.415
 1160POPC   C3A18845  42.867  32.814   8.080
 1160POPC   C4A18846  43.057  32.910   7.671
 1160POPC   C1B18847  43.166  33.395   8.753
 1160POPC   C2B18848  42.969  33.489   8.371
 1160POPC   C3B18849  42.944  33.311   7.965
 1160POPC   C4B18850  43.098  33.430   7.555
 1161POPC   NC318851  12.603   1.883   9.332
 1161POPC   PO418852  12.072   2.220   9.623
 1161POPC   GL118853  12.107   2.066   9.201
 1161POPC   GL218854  12.038   1.716   9.109
 1161POPC   C1A18855  11.989   2.256   8.827
 1161POPC   D2A18856  11.827   2.358   8.427
 1161POPC   C3A18857  12.018   2.208   8.073
 1161POPC   C4A18858  11.856   2.174   7.664
 1161POPC   C1B18859  12.326   1.877   8.742
 1161POPC   C2B18860  12.485   1.733   8.326
 1161POPC   C3B18861  12.362   1.609   7.919
 1161POPC   C4B18862  12.087   1.711   7.562
 1162POPC   NC318863  43.751  25.622   9.418
 1162POPC   PO418864  43.695  24.980   9.538
 1162POPC   GL118865  43.727  24.974   9.114
 1162POPC   GL218866  43.518  25.268   9.107
 1162POPC   C1A18867  43.881  25.220   8.758
 1162POPC   D2A18868  44.144  25.375   8.451
 1162POPC   C3A18869  43.927  25.309   8.083
 1162POPC   C4A18870  44.068  25.270   7.722
 1162POPC   C1B18871  43.400  25.473   8.748
 1162POPC   C2B18872  43.642  25.580   8.410
 1162POPC   C3B18873  43.465  25.589   8.031
 1162POPC   C4B18874  43.574  25.395   7.667
 1163POPC   NC318875  25.303  34.025   9.826
 1163POPC   PO418876  25.435  33.464   9.382
 1163POPC   GL118877  25.262  33.597   9.053
 1163POPC   GL218878  25.106  33.903   9.130
 1163POPC   C1A18879  25.383  33.571   8.641
 1163POPC   D2A18880  25.384  33.682   8.211
 1163POPC   C3A18881  25.124  33.905   7.919
 1163POPC   C4A18882  25.083  33.706   7.475
 1163POPC   C1B18883  25.345  34.060   8.767
 1163POPC   C2B18884  25.509  34.178   8.384
 1163POPC   C3B18885  25.681  34.055   7.997
 1163POPC   C4B18886  25.471  34.100   7.595
 1164POPC   NC318887  25.061  40.524   9.536
 1164POPC   PO418888  25.603  41.034   9.532
 1164POPC   GL118889  25.339  40.900   9.174
 1164POPC   GL218890  25.150  40.639   9.077
 1164POPC   C1A18891  25.204  40.978   8.723
 1164POPC   D2A18892  24.976  41.092   8.403
 1164POPC   C3A18893  25.232  40.976   8.046
 1164POPC   C4A18894  25.206  41.049   7.578
 1164POPC   C1B18895  25.142  40.373   8.772
 1164POPC   C2B18896  25.061  40.566   8.419
 1164POPC   C3B18897  24.941  40.359   8.128
 1164POPC   C4B18898  25.095  40.583   7.777
 1165POPC   NC318899  39.767  31.658   9.760
 1165POPC   PO418900  39.998  32.272   9.460
 1165POPC   GL118901  40.081  32.488   9.122
 1165POPC   GL218902  39.823  32.734   9.151
 1165POPC   C1A18903  40.103  32.278   8.736
 1165POPC   D2A18904  39.834  32.039   8.485
 1165POPC   C3A18905  39.928  32.161   8.080
 1165POPC   C4A18906  40.170  32.125   7.716
 1165POPC   C1B18907  39.667  32.584   8.762
 1165POPC   C2B18908  39.460  32.515   8.363
 1165POPC   C3B18909  39.573  32.486   7.907
 1165POPC   C4B18910  39.869  32.724   7.665
 1166POPC   NC318911  44.316  41.858   9.602
 1166POPC   PO418912  44.853  41.420   9.585
 1166POPC   GL118913  44.558  41.547   9.252
 1166POPC   GL218914  44.694  41.884   9.249
 1166POPC   C1A18915  44.398  41.364   8.833
 1166POPC   D2A18916  44.249  41.554   8.413
 1166POPC   C3A18917  44.420  41.411   7.989
 1166POPC   C4A18918  44.344  41.503   7.522
 1166POPC   C1B18919  44.458  41.856   8.864
 1166POPC   C2B18920  44.563  41.964   8.446
 1166POPC   C3B18921  44.850  41.785   8.172
 1166POPC   C4B18922  44.797  41.682   7.735
 1167POPC   NC318923  23.006  16.413   9.575
 1167POPC   PO418924  23.143  15.750   9.562
 1167POPC   GL118925  23.134  16.004   9.211
 1167POPC   GL218926  22.807  16.099   9.227
 1167POPC   C1A18927  22.978  15.823   8.814
 1167POPC   D2A18928  22.799  15.636   8.447
 1167POPC   C3A18929  23.017  15.772   8.086
 1167POPC   C4A18930  23.202  15.968   7.737
 1167POPC   C1B18931  22.782  16.303   8.829
 1167POPC   C2B18932  22.889  16.148   8.431
 1167POPC   C3B18933  22.617  16.076   8.104
 1167POPC   C4B18934  22.685  16.183   7.675
 1168POPC   NC318935  35.427  21.665   9.518
 1168POPC   PO418936  34.950  21.221   9.682
 1168POPC   GL118937  35.116  21.411   9.231
 1168POPC   GL218938  35.482  21.375   9.115
 1168POPC   C1A18939  35.113  21.422   8.776
 1168POPC   D2A18940  35.333  21.521   8.409
 1168POPC   C3A18941  35.093  21.626   8.085
 1168POPC   C4A18942  35.156  21.593   7.661
 1168POPC   C1B18943  35.626  21.215   8.716
 1168POPC   C2B18944  35.775  21.263   8.293
 1168POPC   C3B18945  35.490  21.298   7.940
 1168POPC   C4B18946  35.572  21.356   7.507
 1169POPC   NC318947  40.079  38.237   9.493
 1169POPC   PO418948  39.696  38.893   9.570
 1169POPC   GL118949  39.876  38.626   9.231
 1169POPC   GL218950  39.716  38.342   9.114
 1169POPC   C1A18951  40.121  38.484   8.858
 1169POPC   D2A18952  39.957  38.258   8.506
 1169POPC   C3A18953  40.198  38.307   8.160
 1169POPC   C4A18954  40.033  38.359   7.758
 1169POPC   C1B18955  39.560  38.483   8.731
 1169POPC   C2B18956  39.584  38.625   8.317
 1169POPC   C3B18957  39.534  38.541   7.883
 1169POPC   C4B18958  39.653  38.461   7.431
 1170POPC   NC318959  31.397  13.959   9.546
 1170POPC   PO418960  31.180  13.278   9.673
 1170POPC   GL118961  31.248  13.389   9.252
 1170POPC   GL218962  31.539  13.621   9.184
 1170POPC   C1A18963  31.036  13.474   8.876
 1170POPC   D2A18964  31.212  13.707   8.543
 1170POPC   C3A18965  31.175  13.624   8.111
 1170POPC   C4A18966  31.205  14.037   7.925
 1170POPC   C1B18967  31.785  13.758   8.818
 1170POPC   C2B18968  31.710  13.601   8.423
 1170POPC   C3B18969  31.672  13.812   8.070
 1170POPC   C4B18970  31.502  13.658   7.717
 1171POPC   NC318971  33.554  19.719   9.309
 1171POPC   PO418972  33.929  20.234   9.351
 1171POPC   GL118973  33.799  20.072   8.970
 1171POPC   GL218974  33.444  20.063   8.983
 1171POPC   C1A18975  33.773  19.692   8.694
 1171POPC   D2A18976  33.514  19.610   8.329
 1171POPC   C3A18977  33.757  19.721   7.954
 1171POPC   C4A18978  34.001  19.671   7.554
 1171POPC   C1B18979  33.444  20.061   8.574
 1171POPC   C2B18980  33.455  20.136   8.187
 1171POPC   C3B18981  33.515  20.159   7.800
 1171POPC   C4B18982  33.574  19.919   7.455
 1172POPC   NC318983   8.622  21.605   9.381
 1172POPC   PO418984   8.038  21.312   9.453
 1172POPC   GL118985   8.089  21.079   9.071
 1172POPC   GL218986   8.348  21.240   8.979
 1172POPC   C1A18987   7.972  21.186   8.633
 1172POPC   D2A18988   7.912  21.460   8.282
 1172POPC   C3A18989   8.022  21.198   7.950
 1172POPC   C4A18990   8.295  21.403   7.707
 1172POPC   C1B18991   8.540  21.414   8.622
 1172POPC   C2B18992   8.543  21.371   8.173
 1172POPC   C3B18993   8.773  21.522   7.814
 1172POPC   C4B18994   8.533  21.869   7.606
 1173POPC   NC318995  31.182  26.220   9.566
 1173POPC   PO418996  30.570  25.876   9.456
 1173POPC   GL118997  30.881  25.956   9.145
 1173POPC   GL218998  30.991  26.309   9.100
 1173POPC   C1A18999  30.790  26.047   8.708
 1173POPC   D2A19000  30.534  26.292   8.438
 1173POPC   C3A19001  30.682  26.239   8.049
 1173POPC   C4A19002  30.818  25.808   7.923
 1173POPC   C1B19003  31.205  26.336   8.703
 1173POPC   C2B19004  31.116  26.115   8.277
 1173POPC   C3B19005  31.145  26.172   7.786
 1173POPC   C4B19006  31.152  26.317   7.324
 1174POPC   NC319007  25.393  27.740   9.666
 1174POPC   PO419008  24.897  27.277   9.528
 1174POPC   GL119009  25.035  27.207   9.074
 1174POPC   GL219010  25.224  27.456   8.862
 1174POPC   C1A19011  24.773  27.250   8.701
 1174POPC   D2A19012  24.796  27.472   8.329
 1174POPC   C3A19013  25.221  27.475   8.196
 1174POPC   C4A19014  25.305  27.331   7.779
 1174POPC   C1B19015  25.075  27.829   8.633
 1174POPC   C2B19016  24.956  28.000   8.237
 1174POPC   C3B19017  25.084  27.826   7.861
 1174POPC   C4B19018  25.513  27.787   7.703
 1175POPC   NC319019  21.100  23.984   9.391
 1175POPC   PO419020  20.617  23.421   9.562
 1175POPC   GL119021  20.762  23.535   9.120
 1175POPC   GL219022  20.989  23.773   8.956
 1175POPC   C1A19023  20.545  23.654   8.731
 1175POPC   D2A19024  20.657  23.723   8.302
 1175POPC   C3A19025  20.547  23.397   8.019
 1175POPC   C4A19026  20.251  23.292   7.720
 1175POPC   C1B19027  20.810  24.107   8.690
 1175POPC   C2B19028  20.664  24.262   8.283
 1175POPC   C3B19029  20.390  24.040   7.987
 1175POPC   C4B19030  20.570  23.802   7.665
 1176POPC   NC319031  23.896   5.705   9.837
 1176POPC   PO419032  24.348   5.544   9.356
 1176POPC   GL119033  24.612   5.640   9.041
 1176POPC   GL219034  24.785   5.910   9.183
 1176POPC   C1A19035  24.567   5.771   8.642
 1176POPC   D2A19036  24.532   5.577   8.249
 1176POPC   C3A19037  24.160   5.603   7.984
 1176POPC   C4A19038  24.079   5.894   7.639
 1176POPC   C1B19039  24.927   6.132   8.799
 1176POPC   C2B19040  25.059   6.215   8.341
 1176POPC   C3B19041  24.824   6.251   7.920
 1176POPC   C4B19042  24.591   5.880   7.838
 1177POPC   NC319043  29.758  43.062   9.472
 1177POPC   PO419044  30.104  43.503   9.329
 1177POPC   GL119045  29.891  43.257   9.016
 1177POPC   GL219046  29.579  43.361   9.100
 1177POPC   C1A19047  29.926  43.064   8.592
 1177POPC   D2A19048  30.260  42.971   8.264
 1177POPC   C3A19049  30.300  43.165   7.829
 1177POPC   C4A19050  30.305  43.324   7.382
 1177POPC   C1B19051  29.601  43.491   8.656
 1177POPC   C2B19052  29.615  43.290   8.264
 1177POPC   C3B19053  29.827  42.988   7.982
 1177POPC   C4B19054  29.888  43.055   7.508
 1178POPC   NC319055  11.807   9.006   9.339
 1178POPC   PO419056  12.410   9.091   9.520
 1178POPC   GL119057  12.273   9.005   9.097
 1178POPC   GL219058  12.165   8.658   9.172
 1178POPC   C1A19059  12.074   9.118   8.683
 1178POPC   D2A19060  11.855   9.171   8.298
 1178POPC   C3A19061  12.114   9.243   7.926
 1178POPC   C4A19062  12.095   9.247   7.456
 1178POPC   C1B19063  12.030   8.610   8.748
 1178POPC   C2B19064  12.208   8.737   8.330
 1178POPC   C3B19065  12.225   8.743   7.875
 1178POPC   C4B19066  11.968   8.711   7.496
 1179POPC   NC319067   9.856  25.829   9.458
 1179POPC   PO419068   9.367  26.319   9.390
 1179POPC   GL119069   9.611  26.072   9.047
 1179POPC   GL219070   9.635  25.687   9.015
 1179POPC   C1A19071   9.568  25.967   8.585
 1179POPC   D2A19072   9.357  25.704   8.271
 1179POPC   C3A19073   9.526  25.811   7.894
 1179POPC   C4A19074   9.698  26.217   7.907
 1179POPC   C1B19075  10.033  25.884   8.813
 1179POPC   C2B19076  10.275  25.915   8.449
 1179POPC   C3B19077  10.036  25.898   8.092
 1179POPC   C4B19078   9.974  25.828   7.649
 1180POPC   NC319079  22.778  14.626   9.400
 1180POPC   PO419080  23.149  14.096   9.529
 1180POPC   GL119081  23.067  14.278   9.131
 1180POPC   GL219082  22.703  14.290   9.031
 1180POPC   C1A19083  23.121  14.625   8.803
 1180POPC   D2A19084  23.018  14.825   8.397
 1180POPC   C3A19085  23.180  14.563   8.057
 1180POPC   C4A19086  22.931  14.380   7.706
 1180POPC   C1B19087  22.872  14.177   8.657
 1180POPC   C2B19088  22.730  13.945   8.334
 1180POPC   C3B19089  22.847  13.943   7.943
 1180POPC   C4B19090  22.682  13.957   7.544
 1181POPC   NC319091   3.396  39.533   9.398
 1181POPC   PO419092   3.836  39.095   9.558
 1181POPC   GL119093   3.607  39.143   9.151
 1181POPC   GL219094   3.257  39.028   9.228
 1181POPC   C1A19095   3.448  39.413   8.773
 1181POPC   D2A19096   3.194  39.407   8.390
 1181POPC   C3A19097   3.341  39.487   7.994
 1181POPC   C4A19098   3.601  39.325   7.666
 1181POPC   C1B19099   3.396  38.764   8.873
 1181POPC   C2B19100   3.607  38.803   8.479
 1181POPC   C3B19101   3.410  39.000   8.116
 1181POPC   C4B19102   3.163  39.061   7.730
 1182POPC   NC319103  33.469  32.912   9.577
 1182POPC   PO419104  32.860  33.216   9.488
 1182POPC   GL119105  32.959  33.000   9.126
 1182POPC   GL219106  33.255  32.781   9.093
 1182POPC   C1A19107  32.837  33.197   8.744
 1182POPC   D2A19108  33.027  33.320   8.379
 1182POPC   C3A19109  32.890  33.109   8.045
 1182POPC   C4A19110  33.072  33.049   7.641
 1182POPC   C1B19111  32.974  32.711   8.716
 1182POPC   C2B19112  32.750  32.686   8.327
 1182POPC   C3B19113  32.869  32.625   7.885
 1182POPC   C4B19114  32.849  32.590   7.473
 1183POPC   NC319115  38.314   1.939   9.519
 1183POPC   PO419116  38.732   1.506   9.471
 1183POPC   GL119117  38.539   1.786   9.090
 1183POPC   GL219118  38.230   2.023   9.028
 1183POPC   C1A19119  38.557   1.871   8.630
 1183POPC   D2A19120  38.823   1.867   8.287
 1183POPC   C3A19121  38.684   1.802   7.876
 1183POPC   C4A19122  38.665   2.143   7.594
 1183POPC   C1B19123  38.099   1.703   8.771
 1183POPC   C2B19124  38.225   1.616   8.369
 1183POPC   C3B19125  38.274   1.934   8.119
 1183POPC   C4B19126  38.203   1.981   7.692
 1184POPC   NC319127  14.204  28.334   9.318
 1184POPC   PO419128  14.807  28.059   9.638
 1184POPC   GL119129  14.594  27.942   9.111
 1184POPC   GL219130  14.370  28.277   8.865
 1184POPC   C1A19131  14.783  28.116   8.684
 1184POPC   D2A19132  14.571  28.243   8.336
 1184POPC   C3A19133  14.728  28.361   7.940
 1184POPC   C4A19134  14.506  28.269   7.576
 1184POPC   C1B19135  14.590  28.649   8.645
 1184POPC   C2B19136  14.523  28.739   8.216
 1184POPC   C3B19137  14.267  28.610   7.860
 1184POPC   C4B19138  14.613  28.766   7.631
 1185POPC   NC319139   3.701  20.106   9.584
 1185POPC   PO419140   3.449  19.416   9.426
 1185POPC   GL119141   3.455  19.584   9.065
 1185POPC   GL219142   3.480  19.894   9.175
 1185POPC   C1A19143   3.623  19.723   8.691
 1185POPC   D2A19144   3.580  19.569   8.293
 1185POPC   C3A19145   3.523  19.866   7.995
 1185POPC   C4A19146   3.158  19.941   7.765
 1185POPC   C1B19147   3.180  19.993   8.876
 1185POPC   C2B19148   3.309  20.074   8.472
 1185POPC   C3B19149   3.278  20.302   8.108
 1185POPC   C4B19150   3.544  20.303   7.728
 1186POPC   NC319151   5.450  25.453   9.456
 1186POPC   PO419152   4.835  25.169   9.498
 1186POPC   GL119153   4.939  25.344   9.152
 1186POPC   GL219154   5.260  25.164   9.068
 1186POPC   C1A19155   4.825  25.208   8.754
 1186POPC   D2A19156   5.110  25.085   8.456
 1186POPC   C3A19157   4.983  25.153   8.045
 1186POPC   C4A19158   4.996  25.380   7.688
 1186POPC   C1B19159   5.236  25.554   8.797
 1186POPC   C2B19160   5.020  25.591   8.409
 1186POPC   C3B19161   5.199  25.653   8.038
 1186POPC   C4B19162   5.446  25.616   7.687
 1187POPC   NC319163  44.169  32.646   9.848
 1187POPC   PO419164  43.597  32.860   9.624
 1187POPC   GL119165  43.656  32.910   9.184
 1187POPC   GL219166  43.409  33.108   9.151
 1187POPC   C1A19167  43.934  32.850   8.825
 1187POPC   D2A19168  44.060  33.125   8.485
 1187POPC   C3A19169  44.138  32.876   8.118
 1187POPC   C4A19170  43.824  32.722   7.819
 1187POPC   C1B19171  43.666  33.281   8.819
 1187POPC   C2B19172  43.538  33.306   8.410
 1187POPC   C3B19173  43.427  33.057   8.066
 1187POPC   C4B19174  43.541  33.139   7.674
 1188POPC   NC319175  40.797   0.880   9.453
 1188POPC   PO419176  40.715   1.591   9.423
 1188POPC   GL119177  40.888   1.274   9.130
 1188POPC   GL219178  41.216   1.196   9.190
 1188POPC   C1A19179  40.771   1.062   8.744
 1188POPC   D2A19180  40.560   1.278   8.396
 1188POPC   C3A19181  40.476   1.022   8.058
 1188POPC   C4A19182  40.557   0.976   7.628
 1188POPC   C1B19183  41.271   1.187   8.724
 1188POPC   C2B19184  41.109   1.175   8.255
 1188POPC   C3B19185  40.867   1.344   7.886
 1188POPC   C4B19186  40.775   1.781   7.732
 1189POPC   NC319187  32.613  16.069   9.437
 1189POPC   PO419188  33.289  16.211   9.502
 1189POPC   GL119189  33.085  15.956   9.208
 1189POPC   GL219190  32.853  15.658   9.217
 1189POPC   C1A19191  32.985  16.004   8.777
 1189POPC   D2A19192  33.093  16.353   8.492
 1189POPC   C3A19193  33.004  16.107   8.124
 1189POPC   C4A19194  32.753  15.999   7.723
 1189POPC   C1B19195  33.224  15.563   8.933
 1189POPC   C2B19196  33.169  15.544   8.493
 1189POPC   C3B19197  32.992  15.606   8.089
 1189POPC   C4B19198  33.123  15.654   7.669
 1190POPC   NC319199  22.746  21.364   9.547
 1190POPC   PO419200  22.048  21.264   9.562
 1190POPC   GL119201  22.084  21.445   9.185
 1190POPC   GL219202  22.416  21.395   9.151
 1190POPC   C1A19203  21.955  21.318   8.778
 1190POPC   D2A19204  22.092  21.414   8.369
 1190POPC   C3A19205  21.824  21.364   8.009
 1190POPC   C4A19206  21.882  21.585   7.631
 1190POPC   C1B19207  22.520  21.399   8.725
 1190POPC   C2B19208  22.595  21.256   8.322
 1190POPC   C3B19209  22.471  21.484   7.959
 1190POPC   C4B19210  22.655  21.766   7.668
 1191POPC   NC319211  29.188  34.999   9.659
 1191POPC   PO419212  29.050  35.620   9.460
 1191POPC   GL119213  29.225  35.472   9.089
 1191POPC   GL219214  29.312  35.143   9.187
 1191POPC   C1A19215  29.240  35.546   8.665
 1191POPC   D2A19216  28.923  35.442   8.369
 1191POPC   C3A19217  29.064  35.473   7.960
 1191POPC   C4A19218  29.096  35.856   7.705
 1191POPC   C1B19219  29.011  35.098   8.795
 1191POPC   C2B19220  29.077  34.952   8.356
 1191POPC   C3B19221  29.298  35.010   7.950
 1191POPC   C4B19222  29.187  34.958   7.540
 1192POPC   NC319223  38.830  40.927   9.482
 1192POPC   PO419224  38.131  40.833   9.365
 1192POPC   GL119225  38.494  40.668   9.158
 1192POPC   GL219226  38.627  40.961   9.012
 1192POPC   C1A19227  38.498  40.564   8.712
 1192POPC   D2A19228  38.493  40.839   8.338
 1192POPC   C3A19229  38.414  40.660   7.912
 1192POPC   C4A19230  38.004  40.514   7.814
 1192POPC   C1B19231  38.899  40.898   8.650
 1192POPC   C2B19232  38.981  41.156   8.322
 1192POPC   C3B19233  38.832  40.966   7.983
 1192POPC   C4B19234  38.713  41.022   7.593
 1193POPC   NC319235  24.076  42.008   9.495
 1193POPC   PO419236  24.542  42.495   9.418
 1193POPC   GL119237  24.259  42.363   9.072
 1193POPC   GL219238  24.222  41.999   9.014
 1193POPC   C1A19239  24.478  42.296   8.679
 1193POPC   D2A19240  24.823  42.025   8.565
 1193POPC   C3A19241  24.801  42.046   8.121
 1193POPC   C4A19242  24.565  42.231   7.789
 1193POPC   C1B19243  24.008  42.105   8.602
 1193POPC   C2B19244  24.197  42.264   8.212
 1193POPC   C3B19245  24.156  42.553   7.849
 1193POPC   C4B19246  24.027  42.481   7.420
 1194POPC   NC319247  44.245  44.151   9.750
 1194POPC   PO419248  43.711  43.802   9.649
 1194POPC   GL119249  43.837  43.770   9.193
 1194POPC   GL219250  44.178  43.949   9.162
 1194POPC   C1A19251  43.993  43.686   8.751
 1194POPC   D2A19252  44.173  43.730   8.343
 1194POPC   C3A19253  43.844  43.861   8.106
 1194POPC   C4A19254  43.771  43.722   7.721
 1194POPC   C1B19255  44.391  44.031   8.727
 1194POPC   C2B19256  44.265  44.227   8.313
 1194POPC   C3B19257  44.166  44.165   7.845
 1194POPC   C4B19258  44.325  44.077   7.409
 1195POPC   NC319259  27.217  32.507   9.458
 1195POPC   PO419260  26.763  32.033   9.696
 1195POPC   GL119261  26.836  31.997   9.188
 1195POPC   GL219262  27.177  32.123   9.133
 1195POPC   C1A19263  26.916  32.083   8.703
 1195POPC   D2A19264  27.111  31.911   8.326
 1195POPC   C3A19265  26.864  31.898   7.969
 1195POPC   C4A19266  26.565  32.066   7.697
 1195POPC   C1B19267  27.269  32.489   8.794
 1195POPC   C2B19268  27.085  32.577   8.385
 1195POPC   C3B19269  26.801  32.415   8.066
 1195POPC   C4B19270  26.840  32.491   7.627
 1196POPC   NC319271   4.381  37.350   9.370
 1196POPC   PO419272   4.381  36.699   9.551
 1196POPC   GL119273   4.272  36.767   9.124
 1196POPC   GL219274   4.135  37.077   9.016
 1196POPC   C1A19275   4.273  36.666   8.693
 1196POPC   D2A19276   4.455  36.767   8.290
 1196POPC   C3A19277   4.216  36.753   7.910
 1196POPC   C4A19278   4.220  36.762   7.425
 1196POPC   C1B19279   4.428  37.183   8.715
 1196POPC   C2B19280   4.520  37.435   8.383
 1196POPC   C3B19281   4.406  37.226   8.068
 1196POPC   C4B19282   4.435  37.137   7.690
 1197POPC   NC319283  22.589  27.992   9.521
 1197POPC   PO419284  22.715  28.743   9.486
 1197POPC   GL119285  22.828  28.382   9.259
 1197POPC   GL219286  22.536  28.393   9.127
 1197POPC   C1A19287  23.046  28.279   8.867
 1197POPC   D2A19288  22.861  28.157   8.476
 1197POPC   C3A19289  22.992  28.069   8.066
 1197POPC   C4A19290  23.089  28.245   7.652
 1197POPC   C1B19291  22.620  28.563   8.730
 1197POPC   C2B19292  22.735  28.609   8.311
 1197POPC   C3B19293  23.028  28.610   8.012
 1197POPC   C4B19294  22.767  28.626   7.679
 1198POPC   NC319295   4.567  22.258   9.521
 1198POPC   PO419296   3.892  22.090   9.727
 1198POPC   GL119297   3.999  22.190   9.268
 1198POPC   GL219298   4.253  22.462   9.148
 1198POPC   C1A19299   4.030  22.172   8.798
 1198POPC   D2A19300   4.192  22.308   8.397
 1198POPC   C3A19301   4.158  22.120   7.980
 1198POPC   C4A19302   4.017  22.299   7.587
 1198POPC   C1B19303   4.526  22.510   8.740
 1198POPC   C2B19304   4.621  22.531   8.263
 1198POPC   C3B19305   4.334  22.596   7.883
 1198POPC   C4B19306   4.387  22.574   7.374
 1199POPC   NC319307   0.226  13.162   9.763
 1199POPC   PO419308   0.460  13.790   9.506
 1199POPC   GL119309   0.476  13.727   9.087
 1199POPC   GL219310   0.329  13.392   9.076
 1199POPC   C1A19311   0.576  13.652   8.683
 1199POPC   D2A19312   0.643  13.867   8.333
 1199POPC   C3A19313   0.670  13.671   7.960
 1199POPC   C4A19314   0.357  13.792   7.690
 1199POPC   C1B19315   0.087  13.474   8.679
 1199POPC   C2B19316   0.202  13.573   8.243
 1199POPC   C3B19317   0.312  13.292   7.898
 1199POPC   C4B19318   0.177  13.246   7.478
 1200POPC   NC319319  20.394  15.973   9.278
 1200POPC   PO419320  20.878  16.317   9.475
 1200POPC   GL119321  20.872  16.003   9.115
 1200POPC   GL219322  20.718  15.653   9.038
 1200POPC   C1A19323  20.712  16.060   8.687
 1200POPC   D2A19324  20.596  16.311   8.314
 1200POPC   C3A19325  20.659  16.073   7.923
 1200POPC   C4A19326  20.327  15.879   7.612
 1200POPC   C1B19327  20.356  15.675   8.736
 1200POPC   C2B19328  20.435  15.805   8.343
 1200POPC   C3B19329  20.520  15.593   7.996
 1200POPC   C4B19330  20.778  15.661   7.652
 1201POPC   NC319331  26.345  36.472   9.592
 1201POPC   PO419332  26.182  35.839   9.334
 1201POPC   GL119333  26.139  36.077   9.001
 1201POPC   GL219334  26.099  36.416   9.117
 1201POPC   C1A19335  26.253  36.078   8.579
 1201POPC   D2A19336  26.202  36.274   8.195
 1201POPC   C3A19337  25.861  36.075   7.984
 1201POPC   C4A19338  25.773  35.653   7.868
 1201POPC   C1B19339  25.854  36.397   8.692
 1201POPC   C2B19340  25.738  36.590   8.273
 1201POPC   C3B19341  25.763  36.549   7.818
 1201POPC   C4B19342  25.847  36.494   7.406
 1202POPC   NC319343  23.715  11.768   9.456
 1202POPC   PO419344  23.949  12.478   9.410
 1202POPC   GL119345  23.917  12.150   9.119
 1202POPC   GL219346  23.586  12.093   9.093
 1202POPC   C1A19347  24.017  11.975   8.707
 1202POPC   D2A19348  23.852  11.845   8.297
 1202POPC   C3A19349  23.980  12.088   7.946
 1202POPC   C4A19350  23.671  12.278   7.694
 1202POPC   C1B19351  23.502  11.894   8.706
 1202POPC   C2B19352  23.348  11.867   8.263
 1202POPC   C3B19353  23.530  11.815   7.860
 1202POPC   C4B19354  23.901  11.565   7.813
 1203POPC   NC319355  38.852  15.651   9.330
 1203POPC   PO419356  39.187  16.123   9.656
 1203POPC   GL119357  39.212  15.975   9.184
 1203POPC   GL219358  38.967  16.050   8.939
 1203POPC   C1A19359  39.372  15.754   8.796
 1203POPC   D2A19360  39.378  15.646   8.350
 1203POPC   C3A19361  39.500  15.942   8.031
 1203POPC   C4A19362  39.331  15.982   7.644
 1203POPC   C1B19363  38.848  15.759   8.651
 1203POPC   C2B19364  38.707  15.654   8.261
 1203POPC   C3B19365  38.985  15.712   7.936
 1203POPC   C4B19366  38.824  15.886   7.568
 1204POPC   NC319367  42.573  11.365   9.316
 1204POPC   PO419368  43.257  11.287   9.466
 1204POPC   GL119369  43.354  11.410   9.073
 1204POPC   GL219370  43.337  11.057   8.944
 1204POPC   C1A19371  43.212  11.479   8.657
 1204POPC   D2A19372  43.307  11.298   8.242
 1204POPC   C3A19373  42.990  11.419   7.915
 1204POPC   C4A19374  42.829  11.185   7.576
 1204POPC   C1B19375  42.960  11.030   8.643
 1204POPC   C2B19376  42.900  10.969   8.191
 1204POPC   C3B19377  43.170  10.934   7.853
 1204POPC   C4B19378  43.239  10.887   7.410
 1205POPC   NC319379  19.127  20.443   9.527
 1205POPC   PO419380  19.091  21.120   9.698
 1205POPC   GL119381  18.962  20.860   9.255
 1205POPC   GL219382  19.239  20.697   9.069
 1205POPC   C1A19383  18.783  20.714   8.788
 1205POPC   D2A19384  18.655  20.734   8.324
 1205POPC   C3A19385  18.904  20.709   7.907
 1205POPC   C4A19386  18.831  20.737   7.422
 1205POPC   C1B19387  19.247  20.542   8.655
 1205POPC   C2B19388  18.956  20.322   8.379
 1205POPC   C3B19389  19.065  20.229   7.969
 1205POPC   C4B19390  19.245  20.459   7.586
 1206POPC   NC319391  10.714   4.368   9.607
 1206POPC   PO419392  10.334   3.908   9.338
 1206POPC   GL119393  10.351   4.378   9.223
 1206POPC   GL219394  10.731   4.384   9.095
 1206POPC   C1A19395  10.403   4.690   8.846
 1206POPC   D2A19396  10.692   4.590   8.513
 1206POPC   C3A19397  10.480   4.495   8.130
 1206POPC   C4A19398  10.587   4.654   7.734
 1206POPC   C1B19399  10.456   4.200   8.762
 1206POPC   C2B19400  10.284   4.045   8.407
 1206POPC   C3B19401  10.160   4.091   8.011
 1206POPC   C4B19402  10.268   4.263   7.642
 1207POPC   NC319403  29.827  25.310   9.518
 1207POPC   PO419404  30.251  24.976   9.161
 1207POPC   GL119405  29.795  25.086   9.055
 1207POPC   GL219406  29.698  25.442   9.051
 1207POPC   C1A19407  29.667  25.163   8.631
 1207POPC   D2A19408  29.925  25.012   8.334
 1207POPC   C3A19409  29.881  25.125   7.937
 1207POPC   C4A19410  29.975  25.183   7.491
 1207POPC   C1B19411  29.887  25.628   8.704
 1207POPC   C2B19412  29.930  25.530   8.304
 1207POPC   C3B19413  29.821  25.625   7.911
 1207POPC   C4B19414  29.970  25.731   7.543
 1208POPC   NC319415   4.168  42.873   9.403
 1208POPC   PO419416   4.728  43.220   9.562
 1208POPC   GL119417   4.911  43.439   9.228
 1208POPC   GL219418   5.060  43.107   9.146
 1208POPC   C1A19419   5.187  43.471   8.826
 1208POPC   D2A19420   5.293  43.287   8.412
 1208POPC   C3A19421   5.220  43.423   8.000
 1208POPC   C4A19422   5.510  43.372   7.644
 1208POPC   C1B19423   4.885  42.773   8.842
 1208POPC   C2B19424   4.944  42.641   8.411
 1208POPC   C3B19425   5.057  42.933   8.102
 1208POPC   C4B19426   5.176  42.977   7.709
 1209POPC   NC319427  18.957   9.647   9.569
 1209POPC   PO419428  18.400   9.773   9.291
 1209POPC   GL119429  18.823   9.845   9.129
 1209POPC   GL219430  18.901   9.484   9.064
 1209POPC   C1A19431  19.176   9.844   8.821
 1209POPC   D2A19432  19.077   9.844   8.367
 1209POPC   C3A19433  19.298   9.638   8.017
 1209POPC   C4A19434  19.195   9.752   7.610
 1209POPC   C1B19435  18.690   9.696   8.678
 1209POPC   C2B19436  18.541   9.810   8.276
 1209POPC   C3B19437  18.759   9.605   7.943
 1209POPC   C4B19438  18.763   9.513   7.478
 1210POPC   NC319439  22.200  20.826   9.648
 1210POPC   PO419440  22.432  20.195   9.630
 1210POPC   GL119441  22.299  20.528   9.250
 1210POPC   GL219442  22.530  20.845   9.251
 1210POPC   C1A19443  22.018  20.568   8.852
 1210POPC   D2A19444  21.823  20.347   8.483
 1210POPC   C3A19445  21.929  20.543   8.087
 1210POPC   C4A19446  22.271  20.572   7.809
 1210POPC   C1B19447  22.324  20.959   8.878
 1210POPC   C2B19448  22.147  20.892   8.459
 1210POPC   C3B19449  22.201  21.027   8.042
 1210POPC   C4B19450  22.233  21.205   7.606
 1211POPC   NC319451  11.905  31.100   9.471
 1211POPC   PO419452  12.030  31.786   9.540
 1211POPC   GL119453  12.025  31.514   9.182
 1211POPC   GL219454  12.283  31.228   9.154
 1211POPC   C1A19455  11.918  31.399   8.765
 1211POPC   D2A19456  12.198  31.340   8.387
 1211POPC   C3A19457  12.049  31.396   7.964
 1211POPC   C4A19458  11.949  31.565   7.550
 1211POPC   C1B19459  12.435  31.457   8.825
 1211POPC   C2B19460  12.615  31.653   8.477
 1211POPC   C3B19461  12.440  31.698   8.106
 1211POPC   C4B19462  12.448  31.666   7.711
 1212POPC   NC319463  34.243  11.918   9.345
 1212POPC   PO419464  34.866  11.945   9.567
 1212POPC   GL119465  34.779  11.865   9.162
 1212POPC   GL219466  34.827  12.204   9.098
 1212POPC   C1A19467  34.524  11.747   8.792
 1212POPC   D2A19468  34.220  11.691   8.450
 1212POPC   C3A19469  34.366  11.781   8.048
 1212POPC   C4A19470  34.609  12.058   7.811
 1212POPC   C1B19471  34.639  12.241   8.706
 1212POPC   C2B19472  34.796  12.170   8.284
 1212POPC   C3B19473  35.005  12.351   7.901
 1212POPC   C4B19474  34.897  12.444   7.460
 1213POPC   NC319475  27.435  28.693   9.532
 1213POPC   PO419476  27.530  27.995   9.504
 1213POPC   GL119477  27.486  28.309   9.187
 1213POPC   GL219478  27.813  28.490   9.180
 1213POPC   C1A19479  27.492  28.563   8.803
 1213POPC   D2A19480  27.597  28.451   8.402
 1213POPC   C3A19481  27.398  28.629   8.050
 1213POPC   C4A19482  27.622  28.602   7.672
 1213POPC   C1B19483  27.786  28.129   8.817
 1213POPC   C2B19484  27.803  27.958   8.380
 1213POPC   C3B19485  27.640  28.145   7.982
 1213POPC   C4B19486  27.688  28.100   7.557
 1214POPC   NC319487  44.928   1.473   9.560
 1214POPC   PO419488  44.563   0.921   9.575
 1214POPC   GL119489  44.633   1.211   9.230
 1214POPC   GL219490  44.378   1.492   9.280
 1214POPC   C1A19491  44.872   1.197   8.828
 1214POPC   D2A19492  44.992   0.971   8.400
 1214POPC   C3A19493  44.676   0.954   8.072
 1214POPC   C4A19494  44.679   1.130   7.679
 1214POPC   C1B19495  44.435   1.468   8.837
 1214POPC   C2B19496  44.544   1.312   8.432
 1214POPC   C3B19497  44.479   1.455   8.015
 1214POPC   C4B19498  44.330   1.508   7.572
 1215POPC   NC319499   4.915  17.188   9.545
 1215POPC   PO419500   5.482  17.746   9.516
 1215POPC   GL119501   5.186  17.584   9.247
 1215POPC   GL219502   5.294  17.259   9.170
 1215POPC   C1A19503   4.992  17.572   8.845
 1215POPC   D2A19504   5.108  17.498   8.423
 1215POPC   C3A19505   4.959  17.758   8.101
 1215POPC   C4A19506   4.825  17.546   7.744
 1215POPC   C1B19507   5.236  17.085   8.778
 1215POPC   C2B19508   5.387  17.061   8.357
 1215POPC   C3B19509   5.167  17.211   7.996
 1215POPC   C4B19510   5.296  17.157   7.576
 1216POPC   NC319511  41.087  28.853   9.395
 1216POPC   PO419512  40.859  28.230   9.328
 1216POPC   GL119513  40.674  28.312   8.987
 1216POPC   GL219514  40.773  28.660   8.974
 1216POPC   C1A19515  40.779  28.264   8.578
 1216POPC   D2A19516  40.803  28.561   8.261
 1216POPC   C3A19517  40.723  28.371   7.866
 1216POPC   C4A19518  40.929  27.996   7.784
 1216POPC   C1B19519  41.080  28.841   8.690
 1216POPC   C2B19520  41.098  29.002   8.272
 1216POPC   C3B19521  40.847  28.914   7.891
 1216POPC   C4B19522  40.838  28.719   7.496
 1217POPC   NC319523  30.136  11.260   9.360
 1217POPC   PO419524  29.462  11.200   9.523
 1217POPC   GL119525  29.672  11.346   9.132
 1217POPC   GL219526  29.787  10.978   9.107
 1217POPC   C1A19527  29.771  11.562   8.711
 1217POPC   D2A19528  29.906  11.418   8.299
 1217POPC   C3A19529  29.869  11.634   7.900
 1217POPC   C4A19530  30.032  11.475   7.507
 1217POPC   C1B19531  29.847  11.060   8.681
 1217POPC   C2B19532  29.767  10.909   8.271
 1217POPC   C3B19533  29.925  11.079   7.885
 1217POPC   C4B19534  30.210  10.983   7.548
 1218POPC   NC319535  21.165  37.222   9.499
 1218POPC   PO419536  21.716  37.649   9.687
 1218POPC   GL119537  21.511  37.721   9.215
 1218POPC   GL219538  21.149  37.829   9.204
 1218POPC   C1A19539  21.426  37.515   8.761
 1218POPC   D2A19540  21.460  37.340   8.342
 1218POPC   C3A19541  21.511  37.583   8.027
 1218POPC   C4A19542  21.280  37.857   7.757
 1218POPC   C1B19543  21.311  38.000   8.796
 1218POPC   C2B19544  21.251  37.865   8.373
 1218POPC   C3B19545  20.989  37.585   8.153
 1218POPC   C4B19546  21.006  37.391   7.752
 1219POPC   NC319547  34.671  31.694   9.561
 1219POPC   PO419548  34.272  31.137   9.439
 1219POPC   GL119549  34.688  31.231   9.195
 1219POPC   GL219550  34.726  31.570   9.085
 1219POPC   C1A19551  34.840  31.200   8.755
 1219POPC   D2A19552  34.906  31.384   8.344
 1219POPC   C3A19553  34.646  31.372   7.965
 1219POPC   C4A19554  34.244  31.323   7.721
 1219POPC   C1B19555  34.422  31.485   8.776
 1219POPC   C2B19556  34.270  31.426   8.346
 1219POPC   C3B19557  34.305  31.757   8.040
 1219POPC   C4B19558  34.644  31.844   7.777
 1220POPC   NC319559  11.694  11.549   9.474
 1220POPC   PO419560  11.019  11.496   9.624
 1220POPC   GL119561  11.168  11.535   9.197
 1220POPC   GL219562  11.333  11.279   9.176
 1220POPC   C1A19563  11.056  11.675   8.775
 1220POPC   D2A19564  11.059  11.519   8.331
 1220POPC   C3A19565  11.464  11.568   8.085
 1220POPC   C4A19566  11.495  11.401   7.656
 1220POPC   C1B19567  11.439  11.337   8.752
 1220POPC   C2B19568  11.523  11.156   8.366
 1220POPC   C3B19569  11.275  11.088   8.029
 1220POPC   C4B19570  11.201  10.940   7.640
 1221POPC   NC319571  28.182   2.267   9.620
 1221POPC   PO419572  28.329   1.621   9.512
 1221POPC   GL119573  28.294   1.939   9.185
 1221POPC   GL219574  28.244   2.327   9.136
 1221POPC   C1A19575  28.360   1.801   8.789
 1221POPC   D2A19576  28.473   1.931   8.420
 1221POPC   C3A19577  28.243   1.904   8.060
 1221POPC   C4A19578  28.296   2.064   7.642
 1221POPC   C1B19579  28.523   2.284   8.808
 1221POPC   C2B19580  28.679   2.379   8.394
 1221POPC   C3B19581  28.516   2.359   7.993
 1221POPC   C4B19582  28.282   2.572   7.668
 1222POPC   NC319583   8.215  18.648   9.599
 1222POPC   PO419584   8.548  18.081   9.503
 1222POPC   GL119585   8.308  18.291   9.232
 1222POPC   GL219586   8.409  18.601   9.085
 1222POPC   C1A19587   8.154  18.173   8.868
 1222POPC   D2A19588   8.003  18.215   8.457
 1222POPC   C3A19589   8.201  18.070   8.084
 1222POPC   C4A19590   8.063  18.099   7.637
 1222POPC   C1B19591   8.235  18.631   8.648
 1222POPC   C2B19592   8.257  18.569   8.190
 1222POPC   C3B19593   8.140  18.579   7.780
 1222POPC   C4B19594   8.296  18.465   7.353
 1223POPC   NC319595  29.101  37.473   9.762
 1223POPC   PO419596  29.074  36.825   9.488
 1223POPC   GL119597  29.275  37.070   9.131
 1223POPC   GL219598  28.994  37.013   9.024
 1223POPC   C1A19599  29.416  37.130   8.698
 1223POPC   D2A19600  29.309  37.181   8.289
 1223POPC   C3A19601  29.310  36.845   7.963
 1223POPC   C4A19602  29.291  37.234   7.774
 1223POPC   C1B19603  29.084  36.723   8.726
 1223POPC   C2B19604  28.955  36.828   8.332
 1223POPC   C3B19605  28.834  37.013   7.958
 1223POPC   C4B19606  28.905  36.654   7.670
 1224POPC   NC319607  32.504  22.093   9.509
 1224POPC   PO419608  31.855  22.320   9.510
 1224POPC   GL119609  32.071  21.988   9.150
 1224POPC   GL219610  32.453  21.805   9.100
 1224POPC   C1A19611  31.954  22.003   8.695
 1224POPC   D2A19612  32.054  22.420   8.507
 1224POPC   C3A19613  32.141  22.409   8.066
 1224POPC   C4A19614  32.172  22.042   7.851
 1224POPC   C1B19615  32.431  22.104   8.805
 1224POPC   C2B19616  32.493  22.175   8.384
 1224POPC   C3B19617  32.647  22.204   8.000
 1224POPC   C4B19618  32.628  22.528   7.732
 1225POPC   NC319619   2.561  27.033   9.423
 1225POPC   PO419620   3.082  26.631   9.504
 1225POPC   GL119621   2.846  26.684   9.158
 1225POPC   GL219622   3.120  26.570   8.996
 1225POPC   C1A19623   2.774  26.824   8.718
 1225POPC   D2A19624   2.898  26.823   8.286
 1225POPC   C3A19625   2.684  27.122   8.009
 1225POPC   C4A19626   2.401  27.066   7.664
 1225POPC   C1B19627   3.228  26.991   8.865
 1225POPC   C2B19628   3.324  27.115   8.460
 1225POPC   C3B19629   3.246  27.119   8.036
 1225POPC   C4B19630   3.068  26.829   7.786
 1226POPC   NC319631  44.568  21.859   9.511
 1226POPC   PO419632  44.700  22.541   9.483
 1226POPC   GL119633  44.469  22.271   9.189
 1226POPC   GL219634  44.742  22.045   9.078
 1226POPC   C1A19635  44.508  22.341   8.746
 1226POPC   D2A19636  44.679  22.097   8.395
 1226POPC   C3A19637  44.631  22.265   7.990
 1226POPC   C4A19638  44.596  22.169   7.546
 1226POPC   C1B19639   0.104  21.866   8.883
 1226POPC   C2B19640   0.143  21.903   8.452
 1226POPC   C3B19641   0.050  21.949   8.008
 1226POPC   C4B19642   0.009  21.868   7.582
 1227POPC   NC319643  20.205  39.414   9.450
 1227POPC   PO419644  20.814  39.111   9.518
 1227POPC   GL119645  20.637  39.290   9.171
 1227POPC   GL219646  20.364  39.132   9.027
 1227POPC   C1A19647  20.779  39.431   8.797
 1227POPC   D2A19648  20.910  39.461   8.376
 1227POPC   C3A19649  20.740  39.123   8.130
 1227POPC   C4A19650  20.423  39.203   7.847
 1227POPC   C1B19651  20.409  39.086   8.589
 1227POPC   C2B19652  20.265  38.813   8.249
 1227POPC   C3B19653  20.264  38.745   7.799
 1227POPC   C4B19654  20.275  38.949   7.400
 1228POPC   NC319655  32.660   3.344   9.835
 1228POPC   PO419656  33.280   3.514   9.546
 1228POPC   GL119657  33.210   3.624   9.133
 1228POPC   GL219658  32.879   3.466   9.124
 1228POPC   C1A19659  33.169   3.408   8.717
 1228POPC   D2A19660  32.884   3.399   8.403
 1228POPC   C3A19661  33.111   3.293   8.051
 1228POPC   C4A19662  32.936   3.407   7.694
 1228POPC   C1B19663  32.842   3.795   8.800
 1228POPC   C2B19664  32.538   3.858   8.445
 1228POPC   C3B19665  32.696   3.742   8.030
 1228POPC   C4B19666  33.141   3.844   7.865
 1229POPC   NC319667  35.542  34.216   9.561
 1229POPC   PO419668  35.043  33.789   9.514
 1229POPC   GL119669  35.317  33.813   9.155
 1229POPC   GL219670  35.547  33.508   9.160
 1229POPC   C1A19671  35.240  33.992   8.735
 1229POPC   D2A19672  34.906  34.086   8.423
 1229POPC   C3A19673  35.061  33.951   8.059
 1229POPC   C4A19674  35.478  34.007   7.935
 1229POPC   C1B19675  35.502  33.524   8.710
 1229POPC   C2B19676  35.365  33.605   8.285
 1229POPC   C3B19677  35.326  33.518   7.856
 1229POPC   C4B19678  35.108  33.260   7.576
 1230POPC   NC319679  24.280  37.931   9.584
 1230POPC   PO419680  24.642  37.368   9.719
 1230POPC   GL119681  24.581  37.605   9.337
 1230POPC   GL219682  24.233  37.522   9.245
 1230POPC   C1A19683  24.645  37.789   8.918
 1230POPC   D2A19684  24.585  37.602   8.510
 1230POPC   C3A19685  24.580  37.894   8.165
 1230POPC   C4A19686  24.564  37.781   7.751
 1230POPC   C1B19687  24.147  37.865   8.951
 1230POPC   C2B19688  24.197  37.912   8.534
 1230POPC   C3B19689  24.078  37.979   8.140
 1230POPC   C4B19690  23.935  37.956   7.751
 1231POPC   NC319691   7.279  18.994   9.535
 1231POPC   PO419692   7.274  19.644   9.514
 1231POPC   GL119693   7.431  19.309   9.152
 1231POPC   GL219694   7.573  18.973   9.089
 1231POPC   C1A19695   7.368  19.173   8.682
 1231POPC   D2A19696   7.346  19.450   8.322
 1231POPC   C3A19697   7.336  19.244   7.922
 1231POPC   C4A19698   7.001  18.956   7.849
 1231POPC   C1B19699   7.725  18.714   8.720
 1231POPC   C2B19700   7.748  18.624   8.277
 1231POPC   C3B19701   7.726  18.871   7.915
 1231POPC   C4B19702   7.810  18.824   7.467
 1232POPC   NC319703  44.495  11.914   9.780
 1232POPC   PO419704  44.813  11.344   9.475
 1232POPC   GL119705  44.607  11.352   9.066
 1232POPC   GL219706  44.373  11.661   8.995
 1232POPC   C1A19707  44.612  11.417   8.613
 1232POPC   D2A19708  44.455  11.174   8.268
 1232POPC   C3A19709  44.834  11.135   8.049
 1232POPC   C4A19710  44.965  11.267   7.670
 1232POPC   C1B19711  44.124  11.576   8.641
 1232POPC   C2B19712  44.334  11.696   8.268
 1232POPC   C3B19713  44.667  11.622   7.975
 1232POPC   C4B19714  44.607  11.622   7.536
 1233POPC   NC319715  17.457   0.365   9.732
 1233POPC   PO419716  16.870   0.565   9.398
 1233POPC   GL119717  16.621   0.566   9.065
 1233POPC   GL219718  16.736   0.250   9.001
 1233POPC   C1A19719  16.673   0.596   8.619
 1233POPC   D2A19720  16.382   0.610   8.293
 1233POPC   C3A19721  16.454   0.472   7.899
 1233POPC   C4A19722  16.793   0.433   7.681
 1233POPC   C1B19723  16.831   0.099   8.619
 1233POPC   C2B19724  16.667   0.132   8.218
 1233POPC   C3B19725  16.698  44.949   7.814
 1233POPC   C4B19726  16.894  44.985   7.413
 1234POPC   NC319727   7.139  27.273   9.657
 1234POPC   PO419728   7.465  27.728   9.320
 1234POPC   GL119729   7.322  27.427   9.082
 1234POPC   GL219730   7.141  27.124   9.172
 1234POPC   C1A19731   7.360  27.533   8.675
 1234POPC   D2A19732   7.584  27.801   8.421
 1234POPC   C3A19733   7.342  27.677   8.102
 1234POPC   C4A19734   7.483  27.476   7.750
 1234POPC   C1B19735   6.946  27.261   8.785
 1234POPC   C2B19736   7.036  27.271   8.314
 1234POPC   C3B19737   6.982  27.386   7.860
 1234POPC   C4B19738   7.105  27.524   7.413
 1235POPC   NC319739   7.629  19.927   9.638
 1235POPC   PO419740   7.943  19.612   9.200
 1235POPC   GL119741   7.497  19.801   9.062
 1235POPC   GL219742   7.305  20.101   9.238
 1235POPC   C1A19743   7.419  19.880   8.619
 1235POPC   D2A19744   7.724  19.884   8.244
 1235POPC   C3A19745   7.550  19.712   7.865
 1235POPC   C4A19746   7.368  19.649   7.431
 1235POPC   C1B19747   6.958  19.927   8.978
 1235POPC   C2B19748   6.923  20.036   8.553
 1235POPC   C3B19749   7.145  19.887   8.160
 1235POPC   C4B19750   7.061  19.973   7.721
 1236POPC   NC319751   0.417   2.267   9.889
 1236POPC   PO419752   0.383   2.799   9.451
 1236POPC   GL119753   0.444   2.737   9.070
 1236POPC   GL219754   0.704   2.906   8.958
 1236POPC   C1A19755   0.468   2.542   8.672
 1236POPC   D2A19756   0.191   2.391   8.371
 1236POPC   C3A19757   0.319   2.519   7.960
 1236POPC   C4A19758   0.055   2.631   7.634
 1236POPC   C1B19759   0.355   3.032   8.682
 1236POPC   C2B19760   0.408   2.903   8.281
 1236POPC   C3B19761   0.227   3.042   7.911
 1236POPC   C4B19762   0.439   2.972   7.522
 1237POPC   NC319763  36.297  42.772   9.512
 1237POPC   PO419764  35.857  42.247   9.408
 1237POPC   GL119765  36.067  42.463   9.097
 1237POPC   GL219766  36.051  42.170   8.848
 1237POPC   C1A19767  36.253  42.587   8.700
 1237POPC   D2A19768  36.186  42.352   8.310
 1237POPC   C3A19769  36.332  42.531   7.937
 1237POPC   C4A19770  36.169  42.553   7.540
 1237POPC   C1B19771  36.495  42.089   8.609
 1237POPC   C2B19772  36.567  42.079   8.103
 1237POPC   C3B19773  36.268  42.061   7.728
 1237POPC   C4B19774  36.198  42.105   7.274
 1238POPC   NC319775  27.310  24.297   9.505
 1238POPC   PO419776  27.722  24.824   9.536
 1238POPC   GL119777  27.844  24.687   9.165
 1238POPC   GL219778  27.531  24.546   9.113
 1238POPC   C1A19779  27.870  24.571   8.745
 1238POPC   D2A19780  27.555  24.547   8.427
 1238POPC   C3A19781  27.747  24.577   8.044
 1238POPC   C4A19782  27.587  24.534   7.671
 1238POPC   C1B19783  27.398  24.845   8.818
 1238POPC   C2B19784  27.166  24.900   8.450
 1238POPC   C3B19785  27.324  24.891   8.032
 1238POPC   C4B19786  27.168  24.921   7.612
 1239POPC   NC319787  44.594  30.297   9.532
 1239POPC   PO419788  44.299  29.694   9.441
 1239POPC   GL119789  44.541  29.972   9.155
 1239POPC   GL219790  44.370  30.334   9.087
 1239POPC   C1A19791  44.808  29.883   8.835
 1239POPC   D2A19792  44.688  29.800   8.471
 1239POPC   C3A19793  44.843  29.996   8.171
 1239POPC   C4A19794  44.627  29.919   7.812
 1239POPC   C1B19795  44.535  30.282   8.688
 1239POPC   C2B19796  44.376  30.173   8.279
 1239POPC   C3B19797  44.353  30.349   7.864
 1239POPC   C4B19798  44.569  30.279   7.454
 1240POPC   NC319799  42.608  15.051   9.700
 1240POPC   PO419800  42.079  15.363   9.378
 1240POPC   GL119801  42.463  15.290   9.146
 1240POPC   GL219802  42.460  14.955   9.115
 1240POPC   C1A19803  42.703  15.206   8.734
 1240POPC   D2A19804  42.618  15.046   8.308
 1240POPC   C3A19805  42.558  15.374   8.006
 1240POPC   C4A19806  42.374  15.473   7.620
 1240POPC   C1B19807  42.296  14.840   8.678
 1240POPC   C2B19808  42.172  14.783   8.241
 1240POPC   C3B19809  42.265  14.987   7.836
 1240POPC   C4B19810  42.691  15.048   7.627
 1241POPC   NC319811   8.619  19.742   9.439
 1241POPC   PO419812   8.077  20.068   9.589
 1241POPC   GL119813   8.311  20.016   9.151
 1241POPC   GL219814   8.401  19.658   9.004
 1241POPC   C1A19815   8.452  20.129   8.734
 1241POPC   D2A19816   8.249  20.142   8.314
 1241POPC   C3A19817   8.497  20.167   7.939
 1241POPC   C4A19818   8.396  19.950   7.553
 1241POPC   C1B19819   8.206  19.695   8.622
 1241POPC   C2B19820   8.281  19.559   8.260
 1241POPC   C3B19821   8.123  19.677   7.892
 1241POPC   C4B19822   7.924  19.755   7.485
 1242POPC   NC319823  16.760   7.429   9.479
 1242POPC   PO419824  17.201   7.076   9.215
 1242POPC   GL119825  16.893   7.267   9.019
 1242POPC   GL219826  16.901   7.630   9.018
 1242POPC   C1A19827  16.747   7.120   8.664
 1242POPC   D2A19828  16.948   7.184   8.288
 1242POPC   C3A19829  16.716   7.094   7.908
 1242POPC   C4A19830  16.738   7.265   7.499
 1242POPC   C1B19831  16.584   7.607   8.701
 1242POPC   C2B19832  16.618   7.585   8.244
 1242POPC   C3B19833  16.554   7.603   7.808
 1242POPC   C4B19834  16.437   7.694   7.351
 1243POPC   NC319835  44.774  32.966   9.557
 1243POPC   PO419836  44.083  32.954   9.507
 1243POPC   GL119837  44.376  32.982   9.175
 1243POPC   GL219838  44.630  33.264   9.140
 1243POPC   C1A19839  44.451  32.889   8.747
 1243POPC   D2A19840  44.592  33.076   8.365
 1243POPC   C3A19841  44.644  32.812   7.995
 1243POPC   C4A19842  44.562  32.457   7.736
 1243POPC   C1B19843  44.422  33.431   8.752
 1243POPC   C2B19844  44.319  33.516   8.300
 1243POPC   C3B19845  44.413  33.292   7.941
 1243POPC   C4B19846  44.581  33.379   7.585
 1244POPC   NC319847  25.147  29.884   9.510
 1244POPC   PO419848  25.661  29.574   9.459
 1244POPC   GL119849  25.473  29.803   9.127
 1244POPC   GL219850  25.108  29.749   9.022
 1244POPC   C1A19851  25.517  29.822   8.721
 1244POPC   D2A19852  25.173  29.814   8.431
 1244POPC   C3A19853  25.381  29.757   8.069
 1244POPC   C4A19854  25.703  29.740   7.783
 1244POPC   C1B19855  25.150  30.159   8.807
 1244POPC   C2B19856  25.091  30.337   8.392
 1244POPC   C3B19857  25.073  30.152   8.013
 1244POPC   C4B19858  25.407  30.169   7.758
 1245POPC   NC319859  30.834  11.934   9.505
 1245POPC   PO419860  30.384  12.517   9.443
 1245POPC   GL119861  30.478  12.142   9.175
 1245POPC   GL219862  30.783  12.307   9.169
 1245POPC   C1A19863  30.669  12.036   8.751
 1245POPC   D2A19864  30.576  12.174   8.331
 1245POPC   C3A19865  30.647  11.861   8.005
 1245POPC   C4A19866  30.823  11.953   7.591
 1245POPC   C1B19867  31.040  12.463   8.871
 1245POPC   C2B19868  30.996  12.460   8.449
 1245POPC   C3B19869  30.989  12.266   8.045
 1245POPC   C4B19870  31.224  12.282   7.700
 1246POPC   NC319871  32.069  21.064   9.551
 1246POPC   PO419872  32.252  21.678   9.540
 1246POPC   GL119873  32.082  21.446   9.181
 1246POPC   GL219874  32.324  21.175   9.104
 1246POPC   C1A19875  32.254  21.534   8.745
 1246POPC   D2A19876  32.631  21.707   8.493
 1246POPC   C3A19877  32.574  21.692   8.000
 1246POPC   C4A19878  32.239  21.603   7.648
 1246POPC   C1B19879  32.659  21.226   8.749
 1246POPC   C2B19880  32.646  21.255   8.294
 1246POPC   C3B19881  32.275  21.273   8.045
 1246POPC   C4B19882  32.497  21.179   7.694
 1247POPC   NC319883  29.436   4.960   9.634
 1247POPC   PO419884  30.000   5.297   9.457
 1247POPC   GL119885  29.864   5.007   9.139
 1247POPC   GL219886  29.527   5.124   9.126
 1247POPC   C1A19887  30.140   5.035   8.773
 1247POPC   D2A19888  30.373   5.188   8.398
 1247POPC   C3A19889  30.111   5.230   8.062
 1247POPC   C4A19890  30.033   4.892   7.818
 1247POPC   C1B19891  29.658   5.210   8.675
 1247POPC   C2B19892  29.650   5.058   8.227
 1247POPC   C3B19893  29.645   5.223   7.800
 1247POPC   C4B19894  29.799   5.616   7.724
 1248POPC   NC319895   3.578  12.507   9.446
 1248POPC   PO419896   3.908  13.112   9.496
 1248POPC   GL119897   3.783  12.898   9.179
 1248POPC   GL219898   3.446  12.954   9.219
 1248POPC   C1A19899   3.961  12.831   8.796
 1248POPC   D2A19900   4.053  12.639   8.419
 1248POPC   C3A19901   3.793  12.821   8.087
 1248POPC   C4A19902   3.637  12.995   7.687
 1248POPC   C1B19903   3.326  12.775   8.845
 1248POPC   C2B19904   3.213  12.935   8.452
 1248POPC   C3B19905   3.280  12.828   8.041
 1248POPC   C4B19906   3.258  12.679   7.615
 1249POPC   NC319907  30.694  29.677   9.432
 1249POPC   PO419908  30.218  30.136   9.754
 1249POPC   GL119909  30.573  30.188   9.314
 1249POPC   GL219910  30.853  30.101   9.150
 1249POPC   C1A19911  30.542  29.997   8.792
 1249POPC   D2A19912  30.662  30.130   8.380
 1249POPC   C3A19913  30.390  30.148   8.019
 1249POPC   C4A19914  30.368  29.927   7.632
 1249POPC   C1B19915  30.986  29.737   8.868
 1249POPC   C2B19916  30.955  29.686   8.430
 1249POPC   C3B19917  30.931  29.752   7.992
 1249POPC   C4B19918  31.318  29.753   7.745
 1250POPC   NC319919  42.913  30.246   9.499
 1250POPC   PO419920  43.209  30.806   9.566
 1250POPC   GL119921  43.060  30.677   9.194
 1250POPC   GL219922  43.286  30.430   9.167
 1250POPC   C1A19923  43.019  30.728   8.748
 1250POPC   D2A19924  43.264  30.759   8.350
 1250POPC   C3A19925  43.045  30.843   7.929
 1250POPC   C4A19926  42.751  31.168   7.773
 1250POPC   C1B19927  43.461  30.498   8.786
 1250POPC   C2B19928  43.433  30.255   8.433
 1250POPC   C3B19929  43.371  30.371   8.028
 1250POPC   C4B19930  43.411  30.602   7.646
 1251POPC   NC319931  33.786  41.852   9.494
 1251POPC   PO419932  33.664  41.203   9.308
 1251POPC   GL119933  33.951  41.430   9.071
 1251POPC   GL219934  33.679  41.645   9.047
 1251POPC   C1A19935  33.968  41.531   8.610
 1251POPC   D2A19936  33.528  41.489   8.445
 1251POPC   C3A19937  33.396  41.541   8.020
 1251POPC   C4A19938  33.542  41.289   7.678
 1251POPC   C1B19939  33.614  41.889   8.742
 1251POPC   C2B19940  33.906  42.069   8.501
 1251POPC   C3B19941  33.961  41.819   8.144
 1251POPC   C4B19942  33.704  41.836   7.763
 1252POPC   NC319943  17.777  40.110   9.510
 1252POPC   PO419944  17.228  39.759   9.736
 1252POPC   GL119945  17.293  39.919   9.271
 1252POPC   GL219946  17.614  39.794   9.147
 1252POPC   C1A19947  17.316  39.920   8.773
 1252POPC   D2A19948  17.156  40.007   8.336
 1252POPC   C3A19949  17.327  39.890   7.976
 1252POPC   C4A19950  17.439  40.114   7.638
 1252POPC   C1B19951  17.772  40.107   8.833
 1252POPC   C2B19952  17.646  40.193   8.406
 1252POPC   C3B19953  17.801  40.119   7.987
 1252POPC   C4B19954  18.024  40.274   7.648
 1253POPC   NC319955  16.473   1.762   9.468
 1253POPC   PO419956  16.933   2.274   9.372
 1253POPC   GL119957  16.633   2.138   9.104
 1253POPC   GL219958  16.791   1.836   9.082
 1253POPC   C1A19959  16.526   1.968   8.682
 1253POPC   D2A19960  16.769   1.721   8.366
 1253POPC   C3A19961  16.866   1.958   8.010
 1253POPC   C4A19962  16.537   2.209   7.818
 1253POPC   C1B19963  17.043   1.924   8.747
 1253POPC   C2B19964  17.150   2.164   8.426
 1253POPC   C3B19965  17.028   2.441   8.135
 1253POPC   C4B19966  16.996   2.391   7.732
 1254POPC   NC319967  32.876  30.313   9.471
 1254POPC   PO419968  33.209  29.684   9.591
 1254POPC   GL119969  33.050  29.869   9.145
 1254POPC   GL219970  32.756  29.669   9.001
 1254POPC   C1A19971  32.812  30.125   8.796
 1254POPC   D2A19972  32.777  29.986   8.356
 1254POPC   C3A19973  32.675  30.165   7.952
 1254POPC   C4A19974  32.737  30.280   7.518
 1254POPC   C1B19975  33.061  29.657   8.692
 1254POPC   C2B19976  33.177  29.437   8.332
 1254POPC   C3B19977  33.137  29.771   8.059
 1254POPC   C4B19978  33.021  29.890   7.681
 1255POPC   NC319979   7.160  39.947   9.393
 1255POPC   PO419980   7.748  40.197   9.425
 1255POPC   GL119981   7.573  39.947   9.104
 1255POPC   GL219982   7.347  40.249   9.016
 1255POPC   C1A19983   7.418  39.817   8.692
 1255POPC   D2A19984   7.350  40.090   8.331
 1255POPC   C3A19985   7.382  39.967   7.885
 1255POPC   C4A19986   7.799  39.792   7.798
 1255POPC   C1B19987   7.013  40.393   8.742
 1255POPC   C2B19988   6.904  40.317   8.337
 1255POPC   C3B19989   7.156  40.433   7.976
 1255POPC   C4B19990   7.147  40.315   7.547
 1256POPC   NC319991  36.247  18.670   9.468
 1256POPC   PO419992  36.071  18.073   9.494
 1256POPC   GL119993  36.223  18.259   9.150
 1256POPC   GL219994  35.940  18.461   9.067
 1256POPC   C1A19995  36.332  18.377   8.750
 1256POPC   D2A19996  36.117  18.431   8.373
 1256POPC   C3A19997  36.361  18.351   8.004
 1256POPC   C4A19998  36.327  18.562   7.610
 1256POPC   C1B19999  35.830  18.136   8.723
 1256POPC   C2B20000  35.792  18.052   8.256
 1256POPC   C3B20001  35.835  18.370   7.909
 1256POPC   C4B20002  35.789  18.843   7.875
 1257POPC   NC320003   5.867   9.432   9.538
 1257POPC   PO420004   5.549  10.046   9.327
 1257POPC   GL120005   5.767   9.928   8.963
 1257POPC   GL220006   6.116  10.090   8.957
 1257POPC   C1A20007   5.887   9.573   8.697
 1257POPC   D2A20008   6.107   9.557   8.292
 1257POPC   C3A20009   5.863   9.383   7.939
 1257POPC   C4A20010   5.737   9.633   7.581
 1257POPC   C1B20011   6.036  10.042   8.530
 1257POPC   C2B20012   5.669   9.847   8.343
 1257POPC   C3B20013   5.862   9.906   7.980
 1257POPC   C4B20014   5.880  10.127   7.587
 1258POPC   NC320015  10.073  24.120   9.280
 1258POPC   PO420016   9.842  24.714   9.485
 1258POPC   GL120017   9.874  24.552   9.092
 1258POPC   GL220018   9.610  24.395   9.118
 1258POPC   C1A20019   9.966  24.407   8.697
 1258POPC   D2A20020   9.941  24.078   8.444
 1258POPC   C3A20021  10.052  24.182   8.053
 1258POPC   C4A20022   9.888  24.497   7.785
 1258POPC   C1B20023   9.493  24.587   8.736
 1258POPC   C2B20024   9.585  24.434   8.334
 1258POPC   C3B20025   9.399  24.493   7.942
 1258POPC   C4B20026   9.466  24.916   7.813
 1259POPC   NC320027  20.578   2.174   9.731
 1259POPC   PO420028  21.180   2.047   9.518
 1259POPC   GL120029  21.455   2.107   9.137
 1259POPC   GL220030  21.701   2.355   9.138
 1259POPC   C1A20031  21.523   1.925   8.722
 1259POPC   D2A20032  21.347   1.710   8.372
 1259POPC   C3A20033  21.381   1.818   7.915
 1259POPC   C4A20034  21.029   2.004   7.667
 1259POPC   C1B20035  21.488   2.437   8.741
 1259POPC   C2B20036  21.249   2.254   8.402
 1259POPC   C3B20037  21.304   2.314   7.972
 1259POPC   C4B20038  21.627   2.537   7.800
 1260POPC   NC320039   7.219  23.289   9.471
 1260POPC   PO420040   7.168  22.577   9.419
 1260POPC   GL120041   7.159  22.933   9.113
 1260POPC   GL220042   7.497  23.112   9.079
 1260POPC   C1A20043   7.194  23.095   8.676
 1260POPC   D2A20044   7.410  23.126   8.279
 1260POPC   C3A20045   7.289  22.850   7.924
 1260POPC   C4A20046   7.219  22.947   7.498
 1260POPC   C1B20047   7.662  22.738   8.848
 1260POPC   C2B20048   7.902  22.631   8.471
 1260POPC   C3B20049   7.787  22.817   8.093
 1260POPC   C4B20050   7.703  23.199   7.841
 1261POPC   NC320051  36.666  34.495   9.438
 1261POPC   PO420052  37.246  34.785   9.649
 1261POPC   GL120053  37.111  34.734   9.214
 1261POPC   GL220054  37.084  34.356   9.127
 1261POPC   C1A20055  36.986  34.781   8.772
 1261POPC   D2A20056  37.211  34.671   8.380
 1261POPC   C3A20057  36.970  34.616   8.029
 1261POPC   C4A20058  36.957  34.851   7.665
 1261POPC   C1B20059  36.773  34.314   8.777
 1261POPC   C2B20060  36.578  34.503   8.406
 1261POPC   C3B20061  36.569  34.296   7.989
 1261POPC   C4B20062  36.827  34.342   7.612
 1262POPC   NC320063  12.511  26.400   9.342
 1262POPC   PO420064  12.751  25.787   9.228
 1262POPC   GL120065  12.701  26.026   8.942
 1262POPC   GL220066  12.887  26.309   9.021
 1262POPC   C1A20067  12.596  25.929   8.558
 1262POPC   D2A20068  12.527  26.185   8.279
 1262POPC   C3A20069  12.686  26.074   7.910
 1262POPC   C4A20070  12.723  26.386   7.649
 1262POPC   C1B20071  12.960  26.330   8.589
 1262POPC   C2B20072  13.247  26.414   8.253
 1262POPC   C3B20073  13.189  26.304   7.861
 1262POPC   C4B20074  13.155  26.665   7.662
 1263POPC   NC320075  10.792  15.566   9.690
 1263POPC   PO420076  10.478  14.988   9.613
 1263POPC   GL120077  10.478  15.083   9.190
 1263POPC   GL220078  10.747  15.283   9.221
 1263POPC   C1A20079  10.522  14.955   8.762
 1263POPC   D2A20080  10.492  14.800   8.313
 1263POPC   C3A20081  10.354  15.117   7.995
 1263POPC   C4A20082  10.523  15.156   7.584
 1263POPC   C1B20083  10.852  15.383   8.789
 1263POPC   C2B20084  10.616  15.334   8.424
 1263POPC   C3B20085  10.813  15.276   8.030
 1263POPC   C4B20086  10.788  15.555   7.700
 1264POPC   NC320087   1.963  43.708   9.574
 1264POPC   PO420088   2.012  44.354   9.679
 1264POPC   GL120089   1.916  44.185   9.249
 1264POPC   GL220090   2.029  43.845   9.103
 1264POPC   C1A20091   1.745  44.156   8.830
 1264POPC   D2A20092   1.883  43.977   8.515
 1264POPC   C3A20093   1.720  43.862   8.137
 1264POPC   C4A20094   1.830  43.901   7.717
 1264POPC   C1B20095   2.238  43.682   8.752
 1264POPC   C2B20096   2.099  43.568   8.354
 1264POPC   C3B20097   2.242  43.655   7.960
 1264POPC   C4B20098   2.201  43.580   7.540
 1265POPC   NC320099   3.819  30.447   9.327
 1265POPC   PO420100   4.249  30.732   9.784
 1265POPC   GL120101   4.220  30.749   9.230
 1265POPC   GL220102   4.205  30.436   9.005
 1265POPC   C1A20103   4.142  30.896   8.750
 1265POPC   D2A20104   4.078  31.150   8.324
 1265POPC   C3A20105   4.145  30.944   7.906
 1265POPC   C4A20106   4.395  30.829   7.489
 1265POPC   C1B20107   4.459  30.488   8.662
 1265POPC   C2B20108   4.338  30.659   8.290
 1265POPC   C3B20109   4.354  30.493   7.893
 1265POPC   C4B20110   4.691  30.426   7.711
 1266POPC   NC320111  25.765  19.383   9.406
 1266POPC   PO420112  26.402  19.118   9.525
 1266POPC   GL120113  26.059  18.984   9.244
 1266POPC   GL220114  26.092  18.692   9.064
 1266POPC   C1A20115  25.947  19.146   8.812
 1266POPC   D2A20116  26.132  19.309   8.429
 1266POPC   C3A20117  25.972  19.104   8.091
 1266POPC   C4A20118  25.894  19.230   7.683
 1266POPC   C1B20119  25.711  18.672   8.805
 1266POPC   C2B20120  25.636  18.880   8.410
 1266POPC   C3B20121  25.749  18.646   8.018
 1266POPC   C4B20122  26.040  18.717   7.668
 1267POPC   NC320123  16.542  30.488   9.509
 1267POPC   PO420124  17.126  30.769   9.459
 1267POPC   GL120125  16.943  30.541   9.151
 1267POPC   GL220126  17.212  30.329   9.029
 1267POPC   C1A20127  16.710  30.766   8.810
 1267POPC   D2A20128  16.884  30.889   8.369
 1267POPC   C3A20129  16.646  30.971   7.977
 1267POPC   C4A20130  16.402  30.666   7.730
 1267POPC   C1B20131  17.108  30.486   8.653
 1267POPC   C2B20132  16.710  30.384   8.491
 1267POPC   C3B20133  16.732  30.466   8.081
 1267POPC   C4B20134  16.837  30.330   7.661
 1268POPC   NC320135  37.935  28.977   9.666
 1268POPC   PO420136  37.436  29.511   9.623
 1268POPC   GL120137  37.608  29.305   9.269
 1268POPC   GL220138  37.575  28.921   9.285
 1268POPC   C1A20139  37.805  29.412   8.868
 1268POPC   D2A20140  37.733  29.247   8.450
 1268POPC   C3A20141  37.413  29.292   8.142
 1268POPC   C4A20142  37.603  29.418   7.732
 1268POPC   C1B20143  37.679  28.861   8.810
 1268POPC   C2B20144  37.571  28.767   8.337
 1268POPC   C3B20145  37.669  28.926   7.896
 1268POPC   C4B20146  37.594  29.022   7.414
 1269POPC   NC320147  20.368  12.750   9.530
 1269POPC   PO420148  20.943  12.623   9.282
 1269POPC   GL120149  20.684  12.812   9.088
 1269POPC   GL220150  20.463  12.555   9.076
 1269POPC   C1A20151  20.715  13.086   8.776
 1269POPC   D2A20152  20.581  13.048   8.345
 1269POPC   C3A20153  20.957  13.086   8.155
 1269POPC   C4A20154  20.984  13.252   7.766
 1269POPC   C1B20155  20.424  12.652   8.673
 1269POPC   C2B20156  20.241  12.609   8.314
 1269POPC   C3B20157  20.397  12.658   7.966
 1269POPC   C4B20158  20.740  12.806   7.775
 1270POPC   NC320159  10.190  15.341   9.539
 1270POPC   PO420160   9.630  15.060   9.502
 1270POPC   GL120161   9.791  15.291   9.213
 1270POPC   GL220162   9.822  15.635   9.215
 1270POPC   C1A20163   9.959  15.219   8.839
 1270POPC   D2A20164  10.127  15.123   8.463
 1270POPC   C3A20165   9.884  15.029   8.114
 1270POPC   C4A20166  10.003  14.907   7.692
 1270POPC   C1B20167   9.545  15.538   8.847
 1270POPC   C2B20168   9.685  15.418   8.452
 1270POPC   C3B20169   9.895  15.517   8.082
 1270POPC   C4B20170   9.752  15.349   7.689
 1271POPC   NC320171  26.496  44.675   9.771
 1271POPC   PO420172  25.838  44.825   9.807
 1271POPC   GL120173  26.082  44.543   9.446
 1271POPC   GL220174  25.854  44.374   9.190
 1271POPC   C1A20175  26.271  44.549   8.970
 1271POPC   D2A20176  26.440  44.622   8.509
 1271POPC   C3A20177  26.296  44.586   8.051
 1271POPC   C4A20178  26.036  44.781   7.713
 1271POPC   C1B20179  25.819  44.562   8.731
 1271POPC   C2B20180  25.818  44.584   8.241
 1271POPC   C3B20181  25.577  44.611   7.841
 1271POPC   C4B20182  25.610  44.804   7.417
 1272POPC   NC320183  33.139  36.099   9.694
 1272POPC   PO420184  33.289  36.678   9.755
 1272POPC   GL120185  32.968  36.401   9.340
 1272POPC   GL220186  33.087  36.076   9.188
 1272POPC   C1A20187  32.974  36.404   8.838
 1272POPC   D2A20188  32.920  36.078   8.497
 1272POPC   C3A20189  32.799  36.266   8.095
 1272POPC   C4A20190  32.997  36.302   7.693
 1272POPC   C1B20191  33.345  36.024   8.810
 1272POPC   C2B20192  33.360  35.794   8.425
 1272POPC   C3B20193  33.335  36.015   8.007
 1272POPC   C4B20194  33.449  36.070   7.553
 1273POPC   NC320195  35.183   5.324   9.589
 1273POPC   PO420196  35.428   4.698   9.434
 1273POPC   GL120197  35.238   5.025   9.150
 1273POPC   GL220198  35.487   5.249   9.114
 1273POPC   C1A20199  35.250   5.144   8.690
 1273POPC   D2A20200  35.295   5.446   8.352
 1273POPC   C3A20201  35.220   5.124   8.030
 1273POPC   C4A20202  35.509   4.812   7.886
 1273POPC   C1B20203  35.742   5.267   8.721
 1273POPC   C2B20204  35.738   5.099   8.318
 1273POPC   C3B20205  35.659   5.360   8.000
 1273POPC   C4B20206  35.393   5.461   7.666
 1274POPC   NC320207  43.866   4.560   9.419
 1274POPC   PO420208  43.615   4.016   9.282
 1274POPC   GL120209  43.923   4.223   9.007
 1274POPC   GL220210  43.814   4.572   8.914
 1274POPC   C1A20211  43.987   4.169   8.563
 1274POPC   D2A20212  43.707   4.379   8.293
 1274POPC   C3A20213  43.818   4.404   7.869
 1274POPC   C4A20214  44.208   4.302   7.728
 1274POPC   C1B20215  44.148   4.638   8.644
 1274POPC   C2B20216  44.203   4.532   8.198
 1274POPC   C3B20217  44.155   4.808   7.815
 1274POPC   C4B20218  44.248   4.683   7.373
 1275POPC   NC320219  42.940   2.143   9.542
 1275POPC   PO420220  42.822   1.499   9.363
 1275POPC   GL120221  43.013   1.843   9.129
 1275POPC   GL220222  42.858   2.192   9.039
 1275POPC   C1A20223  43.210   1.886   8.732
 1275POPC   D2A20224  43.148   1.683   8.344
 1275POPC   C3A20225  43.238   1.892   7.950
 1275POPC   C4A20226  43.085   1.710   7.593
 1275POPC   C1B20227  42.786   2.209   8.588
 1275POPC   C2B20228  42.791   2.048   8.164
 1275POPC   C3B20229  42.875   2.180   7.720
 1275POPC   C4B20230  42.776   2.442   7.340
 1276POPC   NC320231   3.485  10.838   9.570
 1276POPC   PO420232   3.643  11.415   9.506
 1276POPC   GL120233   3.432  11.212   9.184
 1276POPC   GL220234   3.671  10.990   9.113
 1276POPC   C1A20235   3.452  11.295   8.744
 1276POPC   D2A20236   3.491  11.500   8.354
 1276POPC   C3A20237   3.314  11.385   7.991
 1276POPC   C4A20238   3.561  11.508   7.696
 1276POPC   C1B20239   3.793  10.877   8.749
 1276POPC   C2B20240   3.777  11.066   8.402
 1276POPC   C3B20241   3.785  11.154   8.021
 1276POPC   C4B20242   3.561  11.004   7.715
 1277POPC   NC320243   9.219  28.501   9.389
 1277POPC   PO420244   8.574  28.264   9.582
 1277POPC   GL120245   8.786  28.260   9.195
 1277POPC   GL220246   9.059  28.043   9.157
 1277POPC   C1A20247   8.939  28.444   8.805
 1277POPC   D2A20248   9.032  28.624   8.421
 1277POPC   C3A20249   9.051  28.354   8.075
 1277POPC   C4A20250   8.980  28.293   7.644
 1277POPC   C1B20251   9.207  28.006   8.751
 1277POPC   C2B20252   9.353  28.046   8.360
 1277POPC   C3B20253   9.346  27.796   8.032
 1277POPC   C4B20254   9.353  27.891   7.580
 1278POPC   NC320255  18.801  31.970   9.441
 1278POPC   PO420256  19.115  31.367   9.550
 1278POPC   GL120257  19.185  31.532   9.181
 1278POPC   GL220258  19.094  31.225   9.028
 1278POPC   C1A20259  19.001  31.688   8.798
 1278POPC   D2A20260  19.087  31.391   8.454
 1278POPC   C3A20261  19.028  31.493   8.020
 1278POPC   C4A20262  19.155  31.259   7.619
 1278POPC   C1B20263  18.700  31.279   8.769
 1278POPC   C2B20264  18.660  31.144   8.309
 1278POPC   C3B20265  18.702  31.152   7.838
 1278POPC   C4B20266  18.729  31.118   7.354
 1279POPC   NC320267  17.985  20.798   9.375
 1279POPC   PO420268  18.592  20.474   9.356
 1279POPC   GL120269  18.327  20.563   9.044
 1279POPC   GL220270  18.025  20.397   9.060
 1279POPC   C1A20271  18.234  20.620   8.620
 1279POPC   D2A20272  18.132  20.676   8.204
 1279POPC   C3A20273  18.416  20.513   7.919
 1279POPC   C4A20274  18.446  20.850   7.726
 1279POPC   C1B20275  18.053  20.155   8.742
 1279POPC   C2B20276  17.887  20.242   8.365
 1279POPC   C3B20277  17.983  20.250   7.955
 1279POPC   C4B20278  17.965  20.588   7.669
 1280POPC   NC320279   0.698  19.606   9.729
 1280POPC   PO420280   0.205  19.947   9.497
 1280POPC   GL120281   0.515  19.884   9.213
 1280POPC   GL220282   0.582  20.178   9.139
 1280POPC   C1A20283   0.586  19.793   8.775
 1280POPC   D2A20284   0.767  19.689   8.386
 1280POPC   C3A20285   0.503  19.827   8.064
 1280POPC   C4A20286   0.384  19.619   7.693
 1280POPC   C1B20287   0.179  20.113   8.850
 1280POPC   C2B20288   0.156  20.007   8.412
 1280POPC   C3B20289  44.855  20.058   8.097
 1280POPC   C4B20290  44.991  19.954   7.689
 1281POPC   NC320291  30.311   9.725   9.511
 1281POPC   PO420292  29.696   9.971   9.634
 1281POPC   GL120293  29.923   9.839   9.198
 1281POPC   GL220294  30.269  10.051   9.123
 1281POPC   C1A20295  30.002   9.569   8.799
 1281POPC   D2A20296  30.289   9.460   8.434
 1281POPC   C3A20297  30.192   9.617   8.020
 1281POPC   C4A20298  29.947   9.602   7.644
 1281POPC   C1B20299  30.054  10.067   8.741
 1281POPC   C2B20300  29.859   9.847   8.384
 1281POPC   C3B20301  29.840  10.001   7.960
 1281POPC   C4B20302  29.769  10.074   7.520
 1282POPC   NC320303   5.006  37.900   9.514
 1282POPC   PO420304   4.902  37.310   9.393
 1282POPC   GL120305   5.114  37.611   9.112
 1282POPC   GL220306   4.883  37.831   9.004
 1282POPC   C1A20307   5.336  37.777   8.765
 1282POPC   D2A20308   5.034  37.925   8.483
 1282POPC   C3A20309   5.146  37.719   8.111
 1282POPC   C4A20310   5.254  37.892   7.714
 1282POPC   C1B20311   4.883  37.432   8.731
 1282POPC   C2B20312   5.260  37.302   8.570
 1282POPC   C3B20313   5.377  37.182   8.159
 1282POPC   C4B20314   5.313  37.386   7.743
 1283POPC   NC320315  12.941  33.152   9.453
 1283POPC   PO420316  13.261  32.873   9.000
 1283POPC   GL120317  12.804  32.953   8.991
 1283POPC   GL220318  12.638  33.303   9.082
 1283POPC   C1A20319  12.739  33.020   8.569
 1283POPC   D2A20320  13.069  33.073   8.273
 1283POPC   C3A20321  12.949  32.918   7.903
 1283POPC   C4A20322  12.540  32.976   7.827
 1283POPC   C1B20323  12.880  33.459   8.759
 1283POPC   C2B20324  12.693  33.547   8.360
 1283POPC   C3B20325  12.536  33.472   7.951
 1283POPC   C4B20326  12.741  33.348   7.547
 1284POPC   NC320327  13.503  30.201   9.759
 1284POPC   PO420328  13.780  29.599   9.503
 1284POPC   GL120329  13.617  29.765   9.141
 1284POPC   GL220330  13.879  29.952   9.119
 1284POPC   C1A20331  13.574  29.986   8.696
 1284POPC   D2A20332  13.400  30.143   8.321
 1284POPC   C3A20333  13.685  30.083   7.989
 1284POPC   C4A20334  13.711  29.889   7.634
 1284POPC   C1B20335  13.957  29.658   8.774
 1284POPC   C2B20336  13.914  29.827   8.360
 1284POPC   C3B20337  14.101  29.700   8.002
 1284POPC   C4B20338  14.017  29.488   7.640
 1285POPC   NC320339   3.513  16.113   9.380
 1285POPC   PO420340   3.978  15.772   9.706
 1285POPC   GL120341   3.804  15.682   9.229
 1285POPC   GL220342   3.478  15.686   9.104
 1285POPC   C1A20343   3.872  15.705   8.770
 1285POPC   D2A20344   3.729  15.681   8.348
 1285POPC   C3A20345   3.724  16.039   8.105
 1285POPC   C4A20346   3.833  16.010   7.690
 1285POPC   C1B20347   3.344  15.685   8.693
 1285POPC   C2B20348   3.281  15.981   8.385
 1285POPC   C3B20349   3.244  15.843   7.999
 1285POPC   C4B20350   2.919  15.869   7.731
 1286POPC   NC320351  44.568  26.661   9.783
 1286POPC   PO420352   0.049  26.794   9.447
 1286POPC   GL120353  44.774  26.584   9.212
 1286POPC   GL220354  44.485  26.754   9.251
 1286POPC   C1A20355  44.744  26.606   8.775
 1286POPC   D2A20356  44.835  26.793   8.390
 1286POPC   C3A20357  44.823  26.569   8.012
 1286POPC   C4A20358  44.752  26.862   7.716
 1286POPC   C1B20359  44.237  26.595   8.893
 1286POPC   C2B20360  44.235  26.697   8.429
 1286POPC   C3B20361  44.327  26.738   7.966
 1286POPC   C4B20362  44.312  26.773   7.497
 1287POPC   NC320363   7.782  14.888   9.914
 1287POPC   PO420364   7.483  14.430   9.573
 1287POPC   GL120365   7.348  14.497   9.170
 1287POPC   GL220366   7.645  14.629   9.098
 1287POPC   C1A20367   7.218  14.595   8.745
 1287POPC   D2A20368   6.976  14.346   8.495
 1287POPC   C3A20369   7.087  14.527   8.118
 1287POPC   C4A20370   7.356  14.485   7.763
 1287POPC   C1B20371   7.644  14.347   8.774
 1287POPC   C2B20372   7.529  14.424   8.373
 1287POPC   C3B20373   7.772  14.371   8.040
 1287POPC   C4B20374   7.998  14.396   7.653
 1288POPC   NC320375   0.587  12.376   9.839
 1288POPC   PO420376   0.158  11.936   9.475
 1288POPC   GL120377   0.284  11.995   9.054
 1288POPC   GL220378   0.578  12.222   9.016
 1288POPC   C1A20379   0.226  11.979   8.608
 1288POPC   D2A20380   0.530  12.072   8.286
 1288POPC   C3A20381   0.493  11.861   7.917
 1288POPC   C4A20382   0.132  11.757   7.638
 1288POPC   C1B20383   0.456  12.431   8.628
 1288POPC   C2B20384   0.512  12.574   8.206
 1288POPC   C3B20385   0.633  12.339   7.818
 1288POPC   C4B20386   0.804  12.370   7.416
 1289POPC   NC320387  26.183  12.455   9.465
 1289POPC   PO420388  25.778  11.895   9.410
 1289POPC   GL120389  26.048  12.017   9.093
 1289POPC   GL220390  26.277  12.295   9.004
 1289POPC   C1A20391  25.882  12.084   8.689
 1289POPC   D2A20392  25.632  11.897   8.384
 1289POPC   C3A20393  25.838  12.016   8.045
 1289POPC   C4A20394  25.999  12.170   7.674
 1289POPC   C1B20395  26.585  12.391   8.667
 1289POPC   C2B20396  26.574  12.487   8.214
 1289POPC   C3B20397  26.475  12.355   7.780
 1289POPC   C4B20398  26.343  12.366   7.328
 1290POPC   NC320399   8.268   2.720   9.436
 1290POPC   PO420400   8.387   3.394   9.394
 1290POPC   GL120401   8.122   3.109   9.151
 1290POPC   GL220402   8.467   2.986   9.059
 1290POPC   C1A20403   8.027   2.757   8.804
 1290POPC   D2A20404   7.745   2.481   8.561
 1290POPC   C3A20405   7.822   2.631   8.138
 1290POPC   C4A20406   8.075   2.680   7.776
 1290POPC   C1B20407   8.505   2.764   8.698
 1290POPC   C2B20408   8.361   2.710   8.279
 1290POPC   C3B20409   8.533   2.830   7.913
 1290POPC   C4B20410   8.505   2.773   7.493
 1291POPC   NC320411  35.428   9.947   9.119
 1291POPC   PO420412  35.544   9.285   9.356
 1291POPC   GL120413  35.431   9.462   9.030
 1291POPC   GL220414  35.057   9.618   9.076
 1291POPC   C1A20415  35.586   9.522   8.607
 1291POPC   D2A20416  35.400   9.827   8.341
 1291POPC   C3A20417  35.508  10.018   7.967
 1291POPC   C4A20418  35.613  10.074   7.543
 1291POPC   C1B20419  34.890   9.669   8.699
 1291POPC   C2B20420  35.003   9.515   8.329
 1291POPC   C3B20421  35.044   9.713   7.931
 1291POPC   C4B20422  34.963   9.566   7.519
 1292POPC   NC320423  11.515   9.953   9.470
 1292POPC   PO420424  11.940   9.438   9.245
 1292POPC   GL120425  11.553   9.581   9.101
 1292POPC   GL220426  11.472   9.926   8.967
 1292POPC   C1A20427  11.459   9.410   8.718
 1292POPC   D2A20428  11.597   9.612   8.353
 1292POPC   C3A20429  11.537   9.691   7.905
 1292POPC   C4A20430  11.560   9.987   7.561
 1292POPC   C1B20431  11.163   9.820   8.651
 1292POPC   C2B20432  11.112   9.720   8.203
 1292POPC   C3B20433  11.100   9.916   7.787
 1292POPC   C4B20434  11.089   9.969   7.332
 1293POPC   NC320435  29.458  26.152   9.398
 1293POPC   PO420436  28.831  25.866   9.550
 1293POPC   GL120437  29.040  25.924   9.190
 1293POPC   GL220438  29.261  25.667   9.210
 1293POPC   C1A20439  29.071  26.176   8.833
 1293POPC   D2A20440  28.871  26.079   8.451
 1293POPC   C3A20441  29.115  26.198   8.122
 1293POPC   C4A20442  29.038  26.197   7.684
 1293POPC   C1B20443  29.409  25.785   8.789
 1293POPC   C2B20444  29.515  25.845   8.335
 1293POPC   C3B20445  29.343  25.795   7.903
 1293POPC   C4B20446  29.384  25.836   7.462
 1294POPC   NC320447  42.028  11.859   9.471
 1294POPC   PO420448  42.650  12.209   9.561
 1294POPC   GL120449  42.406  12.317   9.158
 1294POPC   GL220450  42.053  12.307   9.237
 1294POPC   C1A20451  42.414  12.138   8.702
 1294POPC   D2A20452  42.444  12.256   8.281
 1294POPC   C3A20453  42.400  11.975   7.949
 1294POPC   C4A20454  42.803  11.896   7.773
 1294POPC   C1B20455  42.027  12.424   8.801
 1294POPC   C2B20456  41.930  12.370   8.362
 1294POPC   C3B20457  42.074  12.379   7.949
 1294POPC   C4B20458  42.007  12.192   7.563
 1295POPC   NC320459  13.922   5.366   9.392
 1295POPC   PO420460  13.409   5.700   9.647
 1295POPC   GL120461  13.532   5.712   9.205
 1295POPC   GL220462  13.541   6.087   9.144
 1295POPC   C1A20463  13.607   5.552   8.778
 1295POPC   D2A20464  13.512   5.772   8.397
 1295POPC   C3A20465  13.568   5.684   7.960
 1295POPC   C4A20466  13.380   6.011   7.722
 1295POPC   C1B20467  13.749   6.106   8.730
 1295POPC   C2B20468  13.960   6.248   8.338
 1295POPC   C3B20469  13.792   6.240   7.935
 1295POPC   C4B20470  13.890   6.069   7.538
 1296POPC   NC320471  36.311  35.883   9.661
 1296POPC   PO420472  36.292  36.453   9.461
 1296POPC   GL120473  36.111  36.093   9.221
 1296POPC   GL220474  36.316  35.799   9.160
 1296POPC   C1A20475  36.203  36.142   8.790
 1296POPC   D2A20476  36.001  36.183   8.408
 1296POPC   C3A20477  36.134  36.042   8.038
 1296POPC   C4A20478  36.076  36.330   7.743
 1296POPC   C1B20479  36.439  35.684   8.744
 1296POPC   C2B20480  36.286  35.545   8.329
 1296POPC   C3B20481  36.467  35.661   7.949
 1296POPC   C4B20482  36.475  36.005   7.656
 1297POPC   NC320483  12.455  23.030   9.511
 1297POPC   PO420484  11.816  22.721   9.580
 1297POPC   GL120485  12.074  22.803   9.191
 1297POPC   GL220486  12.438  22.646   9.177
 1297POPC   C1A20487  11.959  23.010   8.796
 1297POPC   D2A20488  11.772  23.004   8.394
 1297POPC   C3A20489  11.955  23.197   8.058
 1297POPC   C4A20490  12.228  23.172   7.689
 1297POPC   C1B20491  12.378  22.731   8.763
 1297POPC   C2B20492  12.336  22.991   8.395
 1297POPC   C3B20493  12.279  22.787   8.021
 1297POPC   C4B20494  12.445  22.725   7.623
 1298POPC   NC320495  15.647   1.092   9.504
 1298POPC   PO420496  16.252   1.349   9.456
 1298POPC   GL120497  15.982   1.245   9.120
 1298POPC   GL220498  15.719   1.502   9.123
 1298POPC   C1A20499  15.961   1.218   8.677
 1298POPC   D2A20500  16.083   1.041   8.270
 1298POPC   C3A20501  15.831   1.099   7.913
 1298POPC   C4A20502  15.598   0.818   7.670
 1298POPC   C1B20503  15.604   1.631   8.710
 1298POPC   C2B20504  15.691   1.434   8.302
 1298POPC   C3B20505  15.494   1.484   7.907
 1298POPC   C4B20506  15.638   1.339   7.495
 1299POPC   NC320507   7.034  37.662   9.593
 1299POPC   PO420508   6.493  37.309   9.475
 1299POPC   GL120509   6.432  37.623   9.182
 1299POPC   GL220510   6.752  37.763   9.176
 1299POPC   C1A20511   6.431  37.564   8.760
 1299POPC   D2A20512   6.321  37.685   8.361
 1299POPC   C3A20513   6.451  37.453   8.023
 1299POPC   C4A20514   6.297  37.721   7.745
 1299POPC   C1B20515   6.752  37.957   8.782
 1299POPC   C2B20516   6.920  37.810   8.455
 1299POPC   C3B20517   6.973  37.965   8.098
 1299POPC   C4B20518   6.822  37.713   7.759
 1300POPC   NC320519  31.184  27.125   9.453
 1300POPC   PO420520  31.934  27.016   9.529
 1300POPC   GL120521  31.678  26.763   9.256
 1300POPC   GL220522  31.553  27.056   9.082
 1300POPC   C1A20523  31.618  26.625   8.816
 1300POPC   D2A20524  31.464  26.780   8.408
 1300POPC   C3A20525  31.402  26.527   8.052
 1300POPC   C4A20526  31.447  26.607   7.619
 1300POPC   C1B20527  31.175  27.022   8.777
 1300POPC   C2B20528  31.021  27.134   8.334
 1300POPC   C3B20529  31.164  27.003   7.907
 1300POPC   C4B20530  31.522  27.136   7.655
 1301POPC   NC320531  17.925   1.898   9.555
 1301POPC   PO420532  18.549   1.998   9.686
 1301POPC   GL120533  18.309   2.156   9.241
 1301POPC   GL220534  18.137   2.436   9.347
 1301POPC   C1A20535  18.484   2.202   8.745
 1301POPC   D2A20536  18.643   2.348   8.320
 1301POPC   C3A20537  18.428   2.119   8.008
 1301POPC   C4A20538  18.422   1.816   7.678
 1301POPC   C1B20539  18.062   2.463   8.890
 1301POPC   C2B20540  18.046   2.301   8.478
 1301POPC   C3B20541  18.016   2.406   8.050
 1301POPC   C4B20542  18.232   2.346   7.603
 1302POPC   NC320543  17.883   2.896   9.510
 1302POPC   PO420544  18.603   2.728   9.486
 1302POPC   GL120545  18.520   2.656   9.072
 1302POPC   GL220546  18.251   2.878   9.127
 1302POPC   C1A20547  18.408   2.698   8.626
 1302POPC   D2A20548  18.317   2.811   8.237
 1302POPC   C3A20549  18.479   2.645   7.917
 1302POPC   C4A20550  18.537   3.059   7.781
 1302POPC   C1B20551  17.990   2.988   8.831
 1302POPC   C2B20552  17.888   2.794   8.482
 1302POPC   C3B20553  17.800   2.857   8.086
 1302POPC   C4B20554  18.042   2.802   7.729
 1303POPC   NC320555  40.968  15.062   9.500
 1303POPC   PO420556  40.382  15.248   9.306
 1303POPC   GL120557  40.723  15.127   9.066
 1303POPC   GL220558  40.678  14.793   9.122
 1303POPC   C1A20559  40.902  15.317   8.728
 1303POPC   D2A20560  40.594  15.393   8.428
 1303POPC   C3A20561  40.657  15.279   8.006
 1303POPC   C4A20562  41.048  15.350   7.812
 1303POPC   C1B20563  40.493  14.844   8.711
 1303POPC   C2B20564  40.374  14.937   8.308
 1303POPC   C3B20565  40.449  14.752   7.941
 1303POPC   C4B20566  40.599  14.931   7.559
 1304POPC   NC320567  41.826  29.062   9.596
 1304POPC   PO420568  41.345  29.496   9.488
 1304POPC   GL120569  41.596  29.217   9.172
 1304POPC   GL220570  41.769  28.874   9.132
 1304POPC   C1A20571  41.618  29.238   8.727
 1304POPC   D2A20572  41.497  29.416   8.313
 1304POPC   C3A20573  41.681  29.327   7.923
 1304POPC   C4A20574  41.588  29.299   7.486
 1304POPC   C1B20575  41.590  28.737   8.767
 1304POPC   C2B20576  41.596  28.891   8.334
 1304POPC   C3B20577  41.495  28.858   7.887
 1304POPC   C4B20578  41.763  28.826   7.508
 1305POPC   NC320579  38.366  36.187   9.839
 1305POPC   PO420580  38.836  35.960   9.377
 1305POPC   GL120581  38.460  36.088   9.130
 1305POPC   GL220582  38.178  36.079   9.309
 1305POPC   C1A20583  38.464  36.226   8.679
 1305POPC   D2A20584  38.666  36.238   8.268
 1305POPC   C3A20585  38.513  35.903   8.005
 1305POPC   C4A20586  38.444  35.866   7.568
 1305POPC   C1B20587  38.060  36.374   8.974
 1305POPC   C2B20588  37.953  36.351   8.526
 1305POPC   C3B20589  38.158  36.286   8.101
 1305POPC   C4B20590  38.207  36.497   7.679
 1306POPC   NC320591  38.104  39.621   9.552
 1306POPC   PO420592  37.649  39.165   9.575
 1306POPC   GL120593  37.730  39.199   9.159
 1306POPC   GL220594  37.729  39.540   9.178
 1306POPC   C1A20595  37.587  39.252   8.719
 1306POPC   D2A20596  37.309  39.411   8.387
 1306POPC   C3A20597  37.285  39.145   8.046
 1306POPC   C4A20598  37.571  39.155   7.715
 1306POPC   C1B20599  37.937  39.607   8.804
 1306POPC   C2B20600  37.786  39.648   8.385
 1306POPC   C3B20601  37.852  39.518   7.969
 1306POPC   C4B20602  38.220  39.487   7.736
 1307POPC   NC320603  12.160   5.548   9.308
 1307POPC   PO420604  11.801   6.062   9.469
 1307POPC   GL120605  12.029   6.024   9.076
 1307POPC   GL220606  12.351   6.012   9.104
 1307POPC   C1A20607  12.167   5.766   8.706
 1307POPC   D2A20608  12.210   5.853   8.321
 1307POPC   C3A20609  12.521   5.749   8.087
 1307POPC   C4A20610  12.391   5.544   7.723
 1307POPC   C1B20611  12.450   6.203   8.666
 1307POPC   C2B20612  12.458   6.256   8.171
 1307POPC   C3B20613  12.250   6.041   7.773
 1307POPC   C4B20614  12.484   5.960   7.369
 1308POPC   NC320615  34.708  13.355   9.700
 1308POPC   PO420616  34.294  13.831   9.439
 1308POPC   GL120617  34.634  13.596   9.222
 1308POPC   GL220618  34.434  13.325   9.137
 1308POPC   C1A20619  34.808  13.554   8.794
 1308POPC   D2A20620  34.927  13.812   8.446
 1308POPC   C3A20621  34.805  13.693   8.036
 1308POPC   C4A20622  34.712  13.494   7.650
 1308POPC   C1B20623  34.273  13.507   8.794
 1308POPC   C2B20624  34.229  13.319   8.412
 1308POPC   C3B20625  34.349  13.491   8.045
 1308POPC   C4B20626  34.180  13.628   7.704
 1309POPC   NC320627  37.287  31.462   9.374
 1309POPC   PO420628  37.959  31.696   9.361
 1309POPC   GL120629  37.838  31.319   9.087
 1309POPC   GL220630  37.499  31.213   8.960
 1309POPC   C1A20631  37.934  31.374   8.651
 1309POPC   D2A20632  37.823  31.593   8.272
 1309POPC   C3A20633  37.744  31.335   7.900
 1309POPC   C4A20634  37.847  31.174   7.485
 1309POPC   C1B20635  37.414  31.536   8.657
 1309POPC   C2B20636  37.310  31.675   8.252
 1309POPC   C3B20637  37.514  31.813   7.857
 1309POPC   C4B20638  37.573  31.603   7.449
 1310POPC   NC320639  24.484  32.387   9.456
 1310POPC   PO420640  24.342  31.711   9.562
 1310POPC   GL120641  24.477  31.965   9.160
 1310POPC   GL220642  24.248  32.198   9.041
 1310POPC   C1A20643  24.640  32.183   8.742
 1310POPC   D2A20644  24.494  32.366   8.351
 1310POPC   C3A20645  24.651  32.281   7.934
 1310POPC   C4A20646  24.539  32.473   7.508
 1310POPC   C1B20647  24.077  32.156   8.628
 1310POPC   C2B20648  24.003  32.268   8.179
 1310POPC   C3B20649  24.171  32.207   7.743
 1310POPC   C4B20650  24.205  32.156   7.257
 1311POPC   NC320651   9.050  41.150   9.527
 1311POPC   PO420652   8.553  40.707   9.499
 1311POPC   GL120653   8.871  40.758   9.164
 1311POPC   GL220654   9.092  41.011   9.060
 1311POPC   C1A20655   8.776  40.805   8.713
 1311POPC   D2A20656   8.546  40.633   8.378
 1311POPC   C3A20657   8.729  40.666   7.962
 1311POPC   C4A20658   9.107  40.496   7.747
 1311POPC   C1B20659   9.104  41.207   8.691
 1311POPC   C2B20660   8.987  41.085   8.307
 1311POPC   C3B20661   9.161  40.952   7.955
 1311POPC   C4B20662   9.126  41.014   7.530
 1312POPC   NC320663  28.570   1.219   9.548
 1312POPC   PO420664  27.870   0.990   9.459
 1312POPC   GL120665  28.171   1.192   9.191
 1312POPC   GL220666  28.479   0.999   9.113
 1312POPC   C1A20667  28.239   1.309   8.776
 1312POPC   D2A20668  28.457   1.422   8.413
 1312POPC   C3A20669  28.274   1.366   8.046
 1312POPC   C4A20670  28.442   1.582   7.707
 1312POPC   C1B20671  28.376   0.832   8.667
 1312POPC   C2B20672  28.454   0.874   8.207
 1312POPC   C3B20673  28.205   0.787   7.816
 1312POPC   C4B20674  28.378   0.799   7.367
 1313POPC   NC320675  37.838  12.084   9.472
 1313POPC   PO420676  37.178  12.154   9.380
 1313POPC   GL120677  37.420  12.131   9.006
 1313POPC   GL220678  37.773  11.974   8.995
 1313POPC   C1A20679  37.474  11.980   8.587
 1313POPC   D2A20680  37.691  12.138   8.255
 1313POPC   C3A20681  37.430  12.039   7.896
 1313POPC   C4A20682  37.517  12.105   7.478
 1313POPC   C1B20683  38.020  11.841   8.652
 1313POPC   C2B20684  37.868  11.656   8.271
 1313POPC   C3B20685  37.920  11.875   7.875
 1313POPC   C4B20686  37.853  11.736   7.469
 1314POPC   NC320687  36.372  14.110   9.504
 1314POPC   PO420688  35.932  13.551   9.412
 1314POPC   GL120689  36.044  13.275   9.053
 1314POPC   GL220690  36.265  13.567   8.955
 1314POPC   C1A20691  36.135  13.225   8.600
 1314POPC   D2A20692  36.207  13.559   8.304
 1314POPC   C3A20693  36.167  13.481   7.857
 1314POPC   C4A20694  36.145  13.455   7.407
 1314POPC   C1B20695  35.879  13.677   8.736
 1314POPC   C2B20696  35.726  13.793   8.341
 1314POPC   C3B20697  35.722  13.713   7.909
 1314POPC   C4B20698  35.637  13.958   7.576
 1315POPC   NC320699   5.995  43.023   9.559
 1315POPC   PO420700   5.651  43.597   9.498
 1315POPC   GL120701   5.863  43.312   9.185
 1315POPC   GL220702   5.612  43.059   9.177
 1315POPC   C1A20703   6.042  43.069   8.863
 1315POPC   D2A20704   5.803  43.185   8.486
 1315POPC   C3A20705   5.954  43.378   8.085
 1315POPC   C4A20706   6.047  43.102   7.723
 1315POPC   C1B20707   5.413  42.971   8.796
 1315POPC   C2B20708   5.476  42.809   8.384
 1315POPC   C3B20709   5.587  43.008   8.017
 1315POPC   C4B20710   5.637  42.829   7.610
 1316POPC   NC320711  38.498  21.695   9.364
 1316POPC   PO420712  38.071  22.199   9.472
 1316POPC   GL120713  38.412  22.378   9.193
 1316POPC   GL220714  38.710  22.150   9.084
 1316POPC   C1A20715  38.478  22.457   8.746
 1316POPC   D2A20716  38.695  22.266   8.382
 1316POPC   C3A20717  38.468  22.232   8.013
 1316POPC   C4A20718  38.425  22.167   7.559
 1316POPC   C1B20719  38.620  21.869   8.700
 1316POPC   C2B20720  38.596  21.771   8.226
 1316POPC   C3B20721  38.805  21.875   7.803
 1316POPC   C4B20722  39.005  21.692   7.410
 1317POPC   NC320723   6.779  12.523   9.513
 1317POPC   PO420724   6.239  13.001   9.558
 1317POPC   GL120725   6.597  12.964   9.290
 1317POPC   GL220726   6.392  12.968   9.029
 1317POPC   C1A20727   6.886  12.928   8.919
 1317POPC   D2A20728   6.999  13.095   8.534
 1317POPC   C3A20729   6.825  12.879   8.202
 1317POPC   C4A20730   6.908  12.649   7.828
 1317POPC   C1B20731   6.476  13.143   8.654
 1317POPC   C2B20732   6.319  12.986   8.292
 1317POPC   C3B20733   6.426  12.961   7.873
 1317POPC   C4B20734   6.825  13.133   7.685
 1318POPC   NC320735  38.767  10.317   9.373
 1318POPC   PO420736  38.198  10.714   9.250
 1318POPC   GL120737  38.578  10.654   9.028
 1318POPC   GL220738  38.825  10.835   9.213
 1318POPC   C1A20739  38.660  10.485   8.623
 1318POPC   D2A20740  38.359  10.300   8.338
 1318POPC   C3A20741  38.404  10.383   7.920
 1318POPC   C4A20742  38.193  10.138   7.613
 1318POPC   C1B20743  38.981  10.867   8.781
 1318POPC   C2B20744  39.002  10.781   8.339
 1318POPC   C3B20745  38.861  10.669   7.925
 1318POPC   C4B20746  38.734  10.877   7.565
 1319POPC   NC320747  19.229  42.060   9.479
 1319POPC   PO420748  19.253  42.687   9.425
 1319POPC   GL120749  19.045  42.378   9.111
 1319POPC   GL220750  18.969  41.980   9.062
 1319POPC   C1A20751  18.954  42.592   8.747
 1319POPC   D2A20752  19.136  42.698   8.354
 1319POPC   C3A20753  19.070  42.484   7.984
 1319POPC   C4A20754  19.076  42.690   7.570
 1319POPC   C1B20755  19.240  41.884   8.709
 1319POPC   C2B20756  19.165  42.051   8.312
 1319POPC   C3B20757  19.314  42.044   7.900
 1319POPC   C4B20758  19.035  42.151   7.592
 1320POPC   NC320759  38.682   5.440   9.467
 1320POPC   PO420760  38.396   5.975   9.683
 1320POPC   GL120761  38.271   5.974   9.176
 1320POPC   GL220762  38.557   5.777   9.058
 1320POPC   C1A20763  38.148   5.687   8.777
 1320POPC   D2A20764  38.276   5.521   8.385
 1320POPC   C3A20765  38.288   5.840   8.103
 1320POPC   C4A20766  38.138   5.941   7.724
 1320POPC   C1B20767  38.631   5.430   8.767
 1320POPC   C2B20768  38.802   5.403   8.369
 1320POPC   C3B20769  38.716   5.600   7.992
 1320POPC   C4B20770  38.511   5.640   7.634
 1321POPC   NC320771  17.968  16.296   9.472
 1321POPC   PO420772  18.453  15.849   9.505
 1321POPC   GL120773  18.624  16.057   9.149
 1321POPC   GL220774  18.462  16.378   9.171
 1321POPC   C1A20775  18.367  15.971   8.789
 1321POPC   D2A20776  18.034  15.971   8.482
 1321POPC   C3A20777  18.108  15.846   8.053
 1321POPC   C4A20778  17.870  15.965   7.672
 1321POPC   C1B20779  18.612  16.403   8.722
 1321POPC   C2B20780  18.575  16.118   8.330
 1321POPC   C3B20781  18.428  16.229   7.917
 1321POPC   C4B20782  18.568  16.384   7.524
 1322POPC   NC320783  43.855   8.381   9.780
 1322POPC   PO420784  43.805   8.955   9.467
 1322POPC   GL120785  44.046   9.044   9.084
 1322POPC   GL220786  44.204   8.716   9.077
 1322POPC   C1A20787  44.042   8.971   8.657
 1322POPC   D2A20788  43.735   8.816   8.414
 1322POPC   C3A20789  43.764   8.978   8.014
 1322POPC   C4A20790  43.684   9.236   7.677
 1322POPC   C1B20791  44.396   8.522   8.766
 1322POPC   C2B20792  44.255   8.596   8.359
 1322POPC   C3B20793  44.287   8.916   8.092
 1322POPC   C4B20794  44.175   8.909   7.665
 1323POPC   NC320795  40.187  12.619   9.458
 1323POPC   PO420796  39.933  11.977   9.504
 1323POPC   GL120797  39.926  12.062   9.107
 1323POPC   GL220798  40.269  11.921   9.047
 1323POPC   C1A20799  40.086  12.361   8.813
 1323POPC   D2A20800  40.443  12.471   8.525
 1323POPC   C3A20801  40.215  12.542   8.149
 1323POPC   C4A20802  39.945  12.246   7.918
 1323POPC   C1B20803  40.029  11.865   8.658
 1323POPC   C2B20804  39.913  11.809   8.237
 1323POPC   C3B20805  39.915  11.733   7.825
 1323POPC   C4B20806  40.288  11.786   7.560
 1324POPC   NC320807  19.968  35.964   9.785
 1324POPC   PO420808  19.726  36.337   9.321
 1324POPC   GL120809  19.821  35.981   9.158
 1324POPC   GL220810  20.183  35.903   9.168
 1324POPC   C1A20811  19.604  36.017   8.754
 1324POPC   D2A20812  19.638  36.340   8.472
 1324POPC   C3A20813  19.531  36.141   8.129
 1324POPC   C4A20814  19.684  36.020   7.735
 1324POPC   C1B20815  20.109  36.077   8.734
 1324POPC   C2B20816  19.941  35.940   8.338
 1324POPC   C3B20817  20.128  36.058   7.949
 1324POPC   C4B20818  20.299  35.925   7.584
 1325POPC   NC320819   3.515  44.301   9.524
 1325POPC   PO420820   3.229  43.630   9.566
 1325POPC   GL120821   3.403  43.839   9.195
 1325POPC   GL220822   3.773  43.788   9.153
 1325POPC   C1A20823   3.441  43.735   8.746
 1325POPC   D2A20824   3.604  43.933   8.362
 1325POPC   C3A20825   3.647  43.752   7.961
 1325POPC   C4A20826   3.560  43.797   7.503
 1325POPC   C1B20827   3.941  43.974   8.773
 1325POPC   C2B20828   3.950  44.300   8.489
 1325POPC   C3B20829   3.930  44.255   8.065
 1325POPC   C4B20830   3.958  44.073   7.652
 1326POPC   NC320831  33.420  19.904   9.801
 1326POPC   PO420832  32.799  20.017   9.556
 1326POPC   GL120833  33.049  19.785   9.206
 1326POPC   GL220834  32.902  19.496   9.111
 1326POPC   C1A20835  33.211  19.643   8.751
 1326POPC   D2A20836  33.028  19.814   8.359
 1326POPC   C3A20837  33.175  19.784   7.945
 1326POPC   C4A20838  32.947  19.941   7.624
 1326POPC   C1B20839  32.687  19.657   8.771
 1326POPC   C2B20840  32.493  19.587   8.389
 1326POPC   C3B20841  32.713  19.531   8.001
 1326POPC   C4B20842  32.890  19.410   7.625
 1327POPC   NC320843  14.703   9.286   9.263
 1327POPC   PO420844  14.215   8.868   9.301
 1327POPC   GL120845  14.256   9.215   9.012
 1327POPC   GL220846  14.146   9.488   9.219
 1327POPC   C1A20847  14.516   9.356   8.635
 1327POPC   D2A20848  14.765   9.193   8.295
 1327POPC   C3A20849  14.460   8.921   8.042
 1327POPC   C4A20850  14.008   8.774   7.893
 1327POPC   C1B20851  14.071   9.610   8.762
 1327POPC   C2B20852  14.051   9.665   8.325
 1327POPC   C3B20853  13.935   9.379   8.022
 1327POPC   C4B20854  14.174   9.234   7.717
 1328POPC   NC320855  12.848  24.819   9.578
 1328POPC   PO420856  12.797  24.166   9.406
 1328POPC   GL120857  12.856  24.475   9.111
 1328POPC   GL220858  12.585  24.735   9.114
 1328POPC   C1A20859  12.775  24.441   8.669
 1328POPC   D2A20860  12.947  24.542   8.288
 1328POPC   C3A20861  12.758  24.360   7.981
 1328POPC   C4A20862  12.538  24.393   7.583
 1328POPC   C1B20863  12.929  24.917   8.823
 1328POPC   C2B20864  13.194  24.976   8.440
 1328POPC   C3B20865  13.085  24.946   8.003
 1328POPC   C4B20866  12.962  24.694   7.652
 1329POPC   NC320867  27.905   6.129   9.364
 1329POPC   PO420868  28.405   5.739   9.665
 1329POPC   GL120869  28.365   5.819   9.200
 1329POPC   GL220870  28.516   6.079   8.971
 1329POPC   C1A20871  28.448   5.612   8.800
 1329POPC   D2A20872  28.446   5.862   8.462
 1329POPC   C3A20873  28.437   5.639   8.091
 1329POPC   C4A20874  28.345   5.833   7.719
 1329POPC   C1B20875  28.253   6.304   8.726
 1329POPC   C2B20876  27.989   6.277   8.417
 1329POPC   C3B20877  28.182   6.237   8.048
 1329POPC   C4B20878  28.029   6.408   7.698
 1330POPC   NC320879  36.613  25.438   9.530
 1330POPC   PO420880  36.726  24.750   9.639
 1330POPC   GL120881  36.710  24.998   9.227
 1330POPC   GL220882  36.948  25.277   9.178
 1330POPC   C1A20883  36.929  24.964   8.792
 1330POPC   D2A20884  37.038  25.186   8.402
 1330POPC   C3A20885  36.768  25.139   8.036
 1330POPC   C4A20886  36.634  25.159   7.615
 1330POPC   C1B20887  36.773  25.442   8.771
 1330POPC   C2B20888  36.665  25.583   8.354
 1330POPC   C3B20889  36.901  25.648   7.989
 1330POPC   C4B20890  37.100  25.396   7.686
 1331POPC   NC320891   2.504  41.328   9.355
 1331POPC   PO420892   2.873  41.847   9.525
 1331POPC   GL120893   2.689  41.792   9.143
 1331POPC   GL220894   2.921  41.538   9.080
 1331POPC   C1A20895   2.510  41.622   8.768
 1331POPC   D2A20896   2.353  41.757   8.398
 1331POPC   C3A20897   2.566  41.539   8.075
 1331POPC   C4A20898   2.819  41.705   7.788
 1331POPC   C1B20899   3.023  41.306   8.732
 1331POPC   C2B20900   2.985  41.455   8.341
 1331POPC   C3B20901   3.003  41.256   7.959
 1331POPC   C4B20902   2.737  41.229   7.672
 1332POPC   NC320903   2.297  38.813   9.699
 1332POPC   PO420904   1.604  38.644   9.514
 1332POPC   GL120905   1.998  38.553   9.286
 1332POPC   GL220906   2.322  38.683   9.178
 1332POPC   C1A20907   2.003  38.417   8.864
 1332POPC   D2A20908   1.750  38.529   8.526
 1332POPC   C3A20909   1.831  38.311   8.121
 1332POPC   C4A20910   1.963  38.342   7.695
 1332POPC   C1B20911   2.309  38.795   8.737
 1332POPC   C2B20912   2.231  38.544   8.361
 1332POPC   C3B20913   2.394  38.393   7.938
 1332POPC   C4B20914   2.387  38.549   7.474
 1333POPC   NC320915  38.881   9.347   9.586
 1333POPC   PO420916  39.398   8.849   9.482
 1333POPC   GL120917  39.295   9.022   9.117
 1333POPC   GL220918  39.235   9.344   9.181
 1333POPC   C1A20919  39.428   8.872   8.693
 1333POPC   D2A20920  39.638   8.785   8.284
 1333POPC   C3A20921  39.283   8.790   7.992
 1333POPC   C4A20922  38.980   9.190   7.926
 1333POPC   C1B20923  39.314   9.384   8.727
 1333POPC   C2B20924  39.388   9.226   8.280
 1333POPC   C3B20925  39.489   9.194   7.811
 1333POPC   C4B20926  39.550   9.255   7.363
 1334POPC   NC320927  43.381  22.699   9.789
 1334POPC   PO420928  43.040  22.117   9.609
 1334POPC   GL120929  43.082  22.295   9.217
 1334POPC   GL220930  42.790  22.307   8.989
 1334POPC   C1A20931  43.322  22.159   8.889
 1334POPC   D2A20932  43.312  22.099   8.469
 1334POPC   C3A20933  43.093  22.325   8.159
 1334POPC   C4A20934  43.184  22.346   7.717
 1334POPC   C1B20935  42.872  21.938   8.741
 1334POPC   C2B20936  42.831  21.909   8.311
 1334POPC   C3B20937  43.040  21.864   7.939
 1334POPC   C4B20938  42.890  21.944   7.517
 1335POPC   NC320939   0.870   9.960   9.486
 1335POPC   PO420940   1.199   9.405   9.665
 1335POPC   GL120941   1.299   9.679   9.274
 1335POPC   GL220942   0.982   9.682   9.086
 1335POPC   C1A20943   1.413   9.860   8.838
 1335POPC   D2A20944   1.196  10.006   8.420
 1335POPC   C3A20945   1.396   9.912   8.007
 1335POPC   C4A20946   1.390   9.736   7.600
 1335POPC   C1B20947   0.751   9.340   8.862
 1335POPC   C2B20948   0.732   9.353   8.427
 1335POPC   C3B20949   0.874   9.686   8.142
 1335POPC   C4B20950   0.861   9.694   7.703
 1336POPC   NC320951  15.830   4.527   9.383
 1336POPC   PO420952  15.866   3.859   9.664
 1336POPC   GL120953  15.846   3.984   9.230
 1336POPC   GL220954  16.102   4.180   9.115
 1336POPC   C1A20955  15.678   4.123   8.813
 1336POPC   D2A20956  15.823   3.989   8.409
 1336POPC   C3A20957  15.725   4.179   8.023
 1336POPC   C4A20958  15.908   4.088   7.649
 1336POPC   C1B20959  16.160   4.299   8.694
 1336POPC   C2B20960  15.963   4.551   8.387
 1336POPC   C3B20961  16.071   4.556   7.961
 1336POPC   C4B20962  16.354   4.320   7.710
 1337POPC   NC320963  15.959   9.440   9.546
 1337POPC   PO420964  15.915  10.072   9.585
 1337POPC   GL120965  16.073   9.789   9.206
 1337POPC   GL220966  16.334   9.514   9.208
 1337POPC   C1A20967  15.929   9.587   8.823
 1337POPC   D2A20968  15.743   9.580   8.404
 1337POPC   C3A20969  15.950   9.840   8.055
 1337POPC   C4A20970  15.689   9.850   7.709
 1337POPC   C1B20971  16.287   9.229   8.848
 1337POPC   C2B20972  16.179   9.129   8.409
 1337POPC   C3B20973  15.985   9.333   8.036
 1337POPC   C4B20974  16.103   9.510   7.640
 1338POPC   NC320975  21.162  27.469   9.855
 1338POPC   PO420976  21.415  27.808   9.344
 1338POPC   GL120977  21.427  27.432   9.183
 1338POPC   GL220978  21.160  27.235   9.307
 1338POPC   C1A20979  21.501  27.493   8.738
 1338POPC   D2A20980  21.571  27.561   8.317
 1338POPC   C3A20981  21.385  27.894   8.091
 1338POPC   C4A20982  21.327  27.855   7.662
 1338POPC   C1B20983  20.992  27.405   8.882
 1338POPC   C2B20984  21.086  27.343   8.401
 1338POPC   C3B20985  21.022  27.549   7.959
 1338POPC   C4B20986  21.010  27.489   7.495
 1339POPC   NC320987   3.514  40.179   9.781
 1339POPC   PO420988   3.818  39.743   9.406
 1339POPC   GL120989   3.477  40.014   9.227
 1339POPC   GL220990   3.724  40.212   9.090
 1339POPC   C1A20991   3.285  39.975   8.791
 1339POPC   D2A20992   3.288  40.202   8.365
 1339POPC   C3A20993   3.306  40.004   7.918
 1339POPC   C4A20994   3.336  40.067   7.404
 1339POPC   C1B20995   3.775  39.851   8.780
 1339POPC   C2B20996   3.584  39.768   8.381
 1339POPC   C3B20997   3.807  39.677   8.007
 1339POPC   C4B20998   3.740  39.833   7.608
 1340POPC   NC320999  36.955  21.275   9.721
 1340POPC   PO421000  36.494  21.564   9.324
 1340POPC   GL121001  36.821  21.321   9.145
 1340POPC   GL221002  37.012  21.570   9.119
 1340POPC   C1A21003  36.908  21.329   8.686
 1340POPC   D2A21004  36.591  21.315   8.381
 1340POPC   C3A21005  36.734  21.141   8.003
 1340POPC   C4A21006  37.020  21.089   7.684
 1340POPC   C1B21007  37.154  21.784   8.762
 1340POPC   C2B21008  37.148  21.643   8.342
 1340POPC   C3B21009  36.856  21.626   8.035
 1340POPC   C4B21010  36.791  21.546   7.618
 1341POPC   NC321011   4.630  10.439   9.550
 1341POPC   PO421012   3.926  10.682   9.511
 1341POPC   GL121013   4.177  10.439   9.229
 1341POPC   GL221014   4.179  10.773   9.080
 1341POPC   C1A21015   4.341  10.277   8.808
 1341POPC   D2A21016   4.565  10.402   8.415
 1341POPC   C3A21017   4.352  10.432   8.004
 1341POPC   C4A21018   4.364  10.565   7.559
 1341POPC   C1B21019   4.335  10.798   8.707
 1341POPC   C2B21020   4.260  10.910   8.312
 1341POPC   C3B21021   4.251  10.932   7.889
 1341POPC   C4B21022   4.037  10.941   7.506
 1342POPC   NC321023   1.382  19.144   9.404
 1342POPC   PO421024   0.749  19.190   9.492
 1342POPC   GL121025   1.022  18.955   9.120
 1342POPC   GL221026   1.298  19.217   8.923
 1342POPC   C1A21027   1.043  18.879   8.674
 1342POPC   D2A21028   1.324  19.142   8.384
 1342POPC   C3A21029   1.199  19.034   7.983
 1342POPC   C4A21030   1.205  19.274   7.614
 1342POPC   C1B21031   1.559  18.873   8.736
 1342POPC   C2B21032   1.800  18.876   8.378
 1342POPC   C3B21033   1.670  18.867   7.958
 1342POPC   C4B21034   1.648  18.921   7.480
 1343POPC   NC321035  13.764  24.580  10.112
 1343POPC   PO421036  13.189  24.529   9.733
 1343POPC   GL121037  13.448  24.804   9.373
 1343POPC   GL221038  13.815  24.644   9.283
 1343POPC   C1A21039  13.451  24.803   8.880
 1343POPC   D2A21040  13.411  24.478   8.521
 1343POPC   C3A21041  13.427  24.557   8.058
 1343POPC   C4A21042  13.359  24.342   7.646
 1343POPC   C1B21043  13.956  24.687   8.822
 1343POPC   C2B21044  13.918  24.541   8.360
 1343POPC   C3B21045  13.940  24.493   7.902
 1343POPC   C4B21046  13.825  24.600   7.508
 1344POPC   NC321047  44.965  24.266   9.433
 1344POPC   PO421048  44.591  24.814   9.621
 1344POPC   GL121049  44.611  24.777   9.146
 1344POPC   GL221050  44.869  24.964   8.947
 1344POPC   C1A21051  44.578  24.512   8.770
 1344POPC   D2A21052  44.353  24.478   8.354
 1344POPC   C3A21053  44.547  24.568   7.940
 1344POPC   C4A21054  44.620  24.387   7.545
 1344POPC   C1B21055   0.056  24.683   8.663
 1344POPC   C2B21056  44.897  24.613   8.309
 1344POPC   C3B21057  44.913  24.909   7.966
 1344POPC   C4B21058  44.930  24.774   7.508
 1345POPC   NC321059  43.718  11.342   9.517
 1345POPC   PO421060  44.170  11.798   9.472
 1345POPC   GL121061  44.121  11.323   9.229
 1345POPC   GL221062  43.828  11.213   9.036
 1345POPC   C1A21063  44.255  11.089   8.808
 1345POPC   D2A21064  44.028  10.900   8.458
 1345POPC   C3A21065  44.007  11.017   8.012
 1345POPC   C4A21066  43.649  11.111   7.736
 1345POPC   C1B21067  43.696  11.272   8.599
 1345POPC   C2B21068  43.851  11.468   8.199
 1345POPC   C3B21069  44.158  11.470   7.821
 1345POPC   C4B21070  44.045  11.220   7.427
 1346POPC   NC321071  12.004  32.822   9.564
 1346POPC   PO421072  12.684  32.690   9.465
 1346POPC   GL121073  12.342  32.918   9.204
 1346POPC   GL221074  12.047  32.751   9.066
 1346POPC   C1A21075  12.192  33.188   8.843
 1346POPC   D2A21076  11.847  33.061   8.538
 1346POPC   C3A21077  11.842  33.249   8.104
 1346POPC   C4A21078  12.121  33.217   7.718
 1346POPC   C1B21079  12.325  32.739   8.689
 1346POPC   C2B21080  12.307  33.011   8.322
 1346POPC   C3B21081  12.090  32.822   8.051
 1346POPC   C4B21082  12.165  32.641   7.743
 1347POPC   NC321083   7.639  43.374   9.336
 1347POPC   PO421084   7.042  42.991   9.499
 1347POPC   GL121085   7.311  42.993   9.180
 1347POPC   GL221086   7.168  43.325   9.113
 1347POPC   C1A21087   7.568  42.948   8.808
 1347POPC   D2A21088   7.576  43.182   8.436
 1347POPC   C3A21089   7.453  43.116   8.013
 1347POPC   C4A21090   7.625  43.358   7.658
 1347POPC   C1B21091   7.112  43.177   8.720
 1347POPC   C2B21092   7.119  43.411   8.372
 1347POPC   C3B21093   6.879  43.488   8.063
 1347POPC   C4B21094   7.105  43.367   7.729
 1348POPC   NC321095  23.517  14.379   9.503
 1348POPC   PO421096  23.947  14.870   9.497
 1348POPC   GL121097  23.900  14.502   9.140
 1348POPC   GL221098  23.562  14.459   9.010
 1348POPC   C1A21099  23.923  14.285   8.705
 1348POPC   D2A21100  23.647  14.418   8.383
 1348POPC   C3A21101  23.818  14.706   8.079
 1348POPC   C4A21102  23.882  14.602   7.659
 1348POPC   C1B21103  23.401  14.124   8.756
 1348POPC   C2B21104  23.496  13.923   8.359
 1348POPC   C3B21105  23.688  14.085   7.988
 1348POPC   C4B21106  23.452  14.297   7.673
 1349POPC   NC321107  23.605  15.183   9.472
 1349POPC   PO421108  24.273  15.249   9.179
 1349POPC   GL121109  23.869  15.295   9.060
 1349POPC   GL221110  23.701  14.965   9.044
 1349POPC   C1A21111  23.699  15.363   8.667
 1349POPC   D2A21112  23.906  15.192   8.307
 1349POPC   C3A21113  23.828  15.409   7.970
 1349POPC   C4A21114  23.410  15.514   7.905
 1349POPC   C1B21115  23.864  14.812   8.691
 1349POPC   C2B21116  23.516  14.898   8.466
 1349POPC   C3B21117  23.422  15.033   8.072
 1349POPC   C4B21118  23.448  14.846   7.690
 1350POPC   NC321119  34.687  14.104   9.394
 1350POPC   PO421120  34.608  14.745   9.181
 1350POPC   GL121121  34.838  14.390   8.975
 1350POPC   GL221122  34.988  14.029   8.966
 1350POPC   C1A21123  34.873  14.308   8.532
 1350POPC   D2A21124  34.830  14.188   8.098
 1350POPC   C3A21125  34.547  14.448   7.923
 1350POPC   C4A21126  34.432  14.682   7.594
 1350POPC   C1B21127  34.549  13.985   8.787
 1350POPC   C2B21128  34.420  13.846   8.421
 1350POPC   C3B21129  34.334  14.001   8.040
 1350POPC   C4B21130  34.543  13.978   7.671
 1351POPC   NC321131   6.953   5.619   9.970
 1351POPC   PO421132   6.557   5.806   9.464
 1351POPC   GL121133   6.672   5.958   9.098
 1351POPC   GL221134   6.470   6.257   9.124
 1351POPC   C1A21135   6.786   5.812   8.671
 1351POPC   D2A21136   7.051   5.715   8.305
 1351POPC   C3A21137   6.906   5.757   7.870
 1351POPC   C4A21138   6.562   5.778   7.559
 1351POPC   C1B21139   6.714   6.329   8.727
 1351POPC   C2B21140   6.732   6.187   8.348
 1351POPC   C3B21141   6.644   6.191   7.973
 1351POPC   C4B21142   6.855   6.200   7.613
 1352POPC   NC321143  35.834  38.397   9.447
 1352POPC   PO421144  36.445  38.456   9.732
 1352POPC   GL121145  36.307  38.572   9.286
 1352POPC   GL221146  36.465  38.355   9.043
 1352POPC   C1A21147  36.085  38.652   8.865
 1352POPC   D2A21148  35.916  38.502   8.464
 1352POPC   C3A21149  36.017  38.644   8.047
 1352POPC   C4A21150  36.311  38.896   7.841
 1352POPC   C1B21151  36.142  38.142   8.774
 1352POPC   C2B21152  36.109  38.046   8.318
 1352POPC   C3B21153  36.093  38.141   7.841
 1352POPC   C4B21154  36.280  37.990   7.418
 1353POPC   NC321155   8.521  33.747   9.471
 1353POPC   PO421156   7.853  33.610   9.653
 1353POPC   GL121157   8.046  33.608   9.269
 1353POPC   GL221158   8.091  33.965   9.246
 1353POPC   C1A21159   7.876  33.484   8.870
 1353POPC   D2A21160   8.161  33.417   8.538
 1353POPC   C3A21161   8.046  33.525   8.140
 1353POPC   C4A21162   7.998  33.589   7.688
 1353POPC   C1B21163   8.186  33.904   8.788
 1353POPC   C2B21164   8.275  34.020   8.360
 1353POPC   C3B21165   8.383  33.861   7.976
 1353POPC   C4B21166   8.546  33.914   7.584
 1354POPC   NC321167  33.285   9.784   9.405
 1354POPC   PO421168  32.649  10.096   9.648
 1354POPC   GL121169  32.774   9.906   9.208
 1354POPC   GL221170  32.845   9.512   9.160
 1354POPC   C1A21171  32.863   9.824   8.750
 1354POPC   D2A21172  32.833   9.506   8.429
 1354POPC   C3A21173  32.748   9.721   8.043
 1354POPC   C4A21174  33.097   9.943   7.857
 1354POPC   C1B21175  33.206   9.422   8.838
 1354POPC   C2B21176  33.428   9.515   8.447
 1354POPC   C3B21177  33.236   9.496   8.065
 1354POPC   C4B21178  33.232   9.213   7.749
 1355POPC   NC321179  17.801  41.058   9.459
 1355POPC   PO421180  17.433  40.501   9.485
 1355POPC   GL121181  17.599  40.535   9.121
 1355POPC   GL221182  17.455  40.860   9.098
 1355POPC   C1A21183  17.385  40.450   8.754
 1355POPC   D2A21184  17.431  40.678   8.395
 1355POPC   C3A21185  17.414  40.447   8.017
 1355POPC   C4A21186  17.608  40.596   7.620
 1355POPC   C1B21187  17.552  41.070   8.727
 1355POPC   C2B21188  17.842  41.074   8.385
 1355POPC   C3B21189  17.602  40.991   8.006
 1355POPC   C4B21190  17.289  41.266   7.844
 1356POPC   NC321191  33.152  31.357   9.783
 1356POPC   PO421192  33.025  30.722   9.631
 1356POPC   GL121193  32.975  30.696   9.161
 1356POPC   GL221194  32.620  30.580   9.118
 1356POPC   C1A21195  33.012  30.662   8.754
 1356POPC   D2A21196  32.861  30.475   8.409
 1356POPC   C3A21197  33.130  30.343   8.101
 1356POPC   C4A21198  33.171  30.442   7.694
 1356POPC   C1B21199  32.510  30.767   8.725
 1356POPC   C2B21200  32.720  30.964   8.396
 1356POPC   C3B21201  32.878  30.833   8.006
 1356POPC   C4B21202  32.657  30.942   7.656
 1357POPC   NC321203  32.833  23.055   9.479
 1357POPC   PO421204  33.369  22.686   9.308
 1357POPC   GL121205  32.989  22.624   9.109
 1357POPC   GL221206  32.982  22.909   8.982
 1357POPC   C1A21207  32.702  22.525   8.757
 1357POPC   D2A21208  32.551  22.683   8.319
 1357POPC   C3A21209  32.899  22.820   8.042
 1357POPC   C4A21210  33.045  22.759   7.592
 1357POPC   C1B21211  32.993  22.883   8.552
 1357POPC   C2B21212  33.179  23.188   8.283
 1357POPC   C3B21213  33.023  23.299   7.910
 1357POPC   C4B21214  33.122  23.240   7.513
 1358POPC   NC321215  21.329  16.226   9.525
 1358POPC   PO421216  20.960  15.587   9.477
 1358POPC   GL121217  21.334  15.823   9.170
 1358POPC   GL221218  21.519  16.166   9.063
 1358POPC   C1A21219  21.214  15.990   8.726
 1358POPC   D2A21220  21.083  16.150   8.332
 1358POPC   C3A21221  21.215  15.925   7.980
 1358POPC   C4A21222  21.142  15.970   7.547
 1358POPC   C1B21223  21.503  16.403   8.688
 1358POPC   C2B21224  21.470  16.476   8.263
 1358POPC   C3B21225  21.735  16.392   7.944
 1358POPC   C4B21226  21.518  16.270   7.637
 1359POPC   NC321227  28.688  31.737   9.385
 1359POPC   PO421228  28.098  31.442   9.466
 1359POPC   GL121229  28.252  31.375   9.087
 1359POPC   GL221230  28.605  31.310   9.096
 1359POPC   C1A21231  28.161  31.523   8.688
 1359POPC   D2A21232  28.300  31.800   8.370
 1359POPC   C3A21233  28.084  31.779   8.023
 1359POPC   C4A21234  28.154  31.401   7.784
 1359POPC   C1B21235  28.669  31.558   8.739
 1359POPC   C2B21236  28.714  31.489   8.318
 1359POPC   C3B21237  28.580  31.648   7.927
 1359POPC   C4B21238  28.703  31.729   7.504
 1360POPC   NC321239  18.880  37.445   9.558
 1360POPC   PO421240  19.397  37.845   9.361
 1360POPC   GL121241  19.059  37.793   9.100
 1360POPC   GL221242  18.891  37.513   9.071
 1360POPC   C1A21243  18.935  37.871   8.700
 1360POPC   D2A21244  19.106  37.920   8.328
 1360POPC   C3A21245  19.125  37.674   7.966
 1360POPC   C4A21246  19.467  37.778   7.721
 1360POPC   C1B21247  18.693  37.407   8.718
 1360POPC   C2B21248  18.741  37.530   8.292
 1360POPC   C3B21249  18.637  37.486   7.842
 1360POPC   C4B21250  18.831  37.505   7.423
 1361POPC   NC321251  14.084  22.827   9.469
 1361POPC   PO421252  14.365  23.418   9.511
 1361POPC   GL121253  14.509  23.105   9.211
 1361POPC   GL221254  14.212  23.092   9.062
 1361POPC   C1A21255  14.626  22.820   8.819
 1361POPC   D2A21256  14.743  22.621   8.389
 1361POPC   C3A21257  14.654  22.780   7.978
 1361POPC   C4A21258  14.458  22.654   7.598
 1361POPC   C1B21259  14.359  23.240   8.722
 1361POPC   C2B21260  14.351  22.943   8.390
 1361POPC   C3B21261  14.150  22.791   8.029
 1361POPC   C4B21262  14.354  23.205   7.925
 1362POPC   NC321263  25.266  17.955   9.787
 1362POPC   PO421264  25.368  17.339   9.476
 1362POPC   GL121265  25.261  17.340   9.035
 1362POPC   GL221266  25.128  16.999   8.922
 1362POPC   C1A21267  25.301  17.628   8.667
 1362POPC   D2A21268  25.202  17.971   8.371
 1362POPC   C3A21269  25.421  17.831   8.006
 1362POPC   C4A21270  25.379  17.462   7.723
 1362POPC   C1B21271  24.912  17.288   8.658
 1362POPC   C2B21272  25.001  17.473   8.243
 1362POPC   C3B21273  24.877  17.403   7.791
 1362POPC   C4B21274  25.013  17.306   7.348
 1363POPC   NC321275  29.418  37.876   9.427
 1363POPC   PO421276  28.786  37.775   9.605
 1363POPC   GL121277  28.944  37.499   9.212
 1363POPC   GL221278  29.166  37.691   9.033
 1363POPC   C1A21279  28.986  37.373   8.702
 1363POPC   D2A21280  28.748  37.364   8.339
 1363POPC   C3A21281  28.951  37.540   7.993
 1363POPC   C4A21282  28.993  37.603   7.546
 1363POPC   C1B21283  28.896  37.874   8.695
 1363POPC   C2B21284  28.886  37.984   8.243
 1363POPC   C3B21285  29.125  38.014   7.829
 1363POPC   C4B21286  28.998  38.074   7.367
 1364POPC   NC321287  10.058  34.315   9.517
 1364POPC   PO421288   9.587  34.712   9.722
 1364POPC   GL121289   9.558  34.693   9.252
 1364POPC   GL221290   9.766  34.444   9.135
 1364POPC   C1A21291   9.411  34.658   8.830
 1364POPC   D2A21292   9.619  34.560   8.444
 1364POPC   C3A21293   9.471  34.635   8.040
 1364POPC   C4A21294   9.660  34.392   7.749
 1364POPC   C1B21295  10.011  34.352   8.795
 1364POPC   C2B21296  10.026  34.228   8.372
 1364POPC   C3B21297  10.126  34.397   7.978
 1364POPC   C4B21298  10.101  34.195   7.588
 1365POPC   NC321299   9.290  10.402   9.593
 1365POPC   PO421300   8.631  10.739   9.437
 1365POPC   GL121301   8.940  10.757   9.114
 1365POPC   GL221302   9.134  10.455   9.115
 1365POPC   C1A21303   8.953  10.635   8.672
 1365POPC   D2A21304   9.231  10.493   8.352
 1365POPC   C3A21305   9.117  10.605   7.946
 1365POPC   C4A21306   8.827  10.545   7.613
 1365POPC   C1B21307   9.264  10.198   8.779
 1365POPC   C2B21308   9.342   9.977   8.435
 1365POPC   C3B21309   9.207  10.072   8.060
 1365POPC   C4B21310   9.218  10.177   7.673
 1366POPC   NC321311  13.150  36.255   9.588
 1366POPC   PO421312  12.580  35.861   9.422
 1366POPC   GL121313  12.645  36.043   9.032
 1366POPC   GL221314  12.807  36.382   9.160
 1366POPC   C1A21315  12.557  35.924   8.577
 1366POPC   D2A21316  12.523  35.806   8.120
 1366POPC   C3A21317  12.894  35.841   7.841
 1366POPC   C4A21318  13.010  36.065   7.468
 1366POPC   C1B21319  12.744  36.427   8.700
 1366POPC   C2B21320  12.812  36.271   8.280
 1366POPC   C3B21321  13.021  36.335   7.920
 1366POPC   C4B21322  13.257  36.488   7.585
 1367POPC   NC321323   4.458   8.214   9.595
 1367POPC   PO421324   3.830   8.380   9.642
 1367POPC   GL121325   4.009   8.394   9.195
 1367POPC   GL221326   4.372   8.311   9.109
 1367POPC   C1A21327   3.981   8.322   8.755
 1367POPC   D2A21328   4.105   8.474   8.357
 1367POPC   C3A21329   4.162   8.240   7.996
 1367POPC   C4A21330   4.572   8.305   7.843
 1367POPC   C1B21331   4.397   8.042   8.754
 1367POPC   C2B21332   4.499   8.081   8.334
 1367POPC   C3B21333   4.568   7.820   7.998
 1367POPC   C4B21334   4.432   7.764   7.587
 1368POPC   NC321335  15.837  24.194   9.450
 1368POPC   PO421336  15.407  24.660   9.312
 1368POPC   GL121337  15.705  24.513   9.075
 1368POPC   GL221338  15.557  24.167   9.034
 1368POPC   C1A21339  15.884  24.729   8.718
 1368POPC   D2A21340  15.883  24.576   8.302
 1368POPC   C3A21341  16.209  24.448   7.994
 1368POPC   C4A21342  16.425  24.040   7.922
 1368POPC   C1B21343  15.522  24.362   8.644
 1368POPC   C2B21344  15.557  24.182   8.303
 1368POPC   C3B21345  15.670  24.281   7.920
 1368POPC   C4B21346  15.779  24.683   7.825
 1369POPC   NC321347  34.757   1.766   9.437
 1369POPC   PO421348  34.062   1.843   9.432
 1369POPC   GL121349  34.368   1.931   9.117
 1369POPC   GL221350  34.704   2.121   9.084
 1369POPC   C1A21351  34.319   2.146   8.739
 1369POPC   D2A21352  34.524   2.145   8.380
 1369POPC   C3A21353  34.324   1.930   8.093
 1369POPC   C4A21354  34.497   1.925   7.679
 1369POPC   C1B21355  34.731   1.797   8.770
 1369POPC   C2B21356  34.665   1.626   8.390
 1369POPC   C3B21357  34.788   1.645   7.984
 1369POPC   C4B21358  35.001   1.902   7.700
 1370POPC   NC321359  21.042  18.057   9.499
 1370POPC   PO421360  20.409  17.832   9.416
 1370POPC   GL121361  20.517  18.239   9.188
 1370POPC   GL221362  20.770  18.460   9.278
 1370POPC   C1A21363  20.334  18.431   8.791
 1370POPC   D2A21364  20.368  18.716   8.435
 1370POPC   C3A21365  20.401  18.470   8.040
 1370POPC   C4A21366  20.538  18.356   7.637
 1370POPC   C1B21367  20.860  18.420   8.845
 1370POPC   C2B21368  20.728  18.366   8.420
 1370POPC   C3B21369  20.835  18.172   7.998
 1370POPC   C4B21370  20.682  17.872   7.674
 1371POPC   NC321371  18.446   7.414   9.564
 1371POPC   PO421372  17.983   7.204   9.250
 1371POPC   GL121373  18.241   7.499   9.095
 1371POPC   GL221374  18.600   7.423   9.059
 1371POPC   C1A21375  18.088   7.580   8.728
 1371POPC   D2A21376  18.076   7.292   8.382
 1371POPC   C3A21377  18.161   7.470   7.972
 1371POPC   C4A21378  17.946   7.468   7.575
 1371POPC   C1B21379  18.579   7.462   8.588
 1371POPC   C2B21380  18.576   7.213   8.214
 1371POPC   C3B21381  18.563   7.170   7.763
 1371POPC   C4B21382  18.506   7.512   7.463
 1372POPC   NC321383   0.057  39.701  10.007
 1372POPC   PO421384   0.611  39.867   9.628
 1372POPC   GL121385   0.577  39.993   9.226
 1372POPC   GL221386   0.769  39.743   9.139
 1372POPC   C1A21387   0.515  40.108   8.786
 1372POPC   D2A21388   0.323  39.935   8.416
 1372POPC   C3A21389   0.284  40.148   8.034
 1372POPC   C4A21390   0.341  40.000   7.604
 1372POPC   C1B21391   0.561  39.616   8.783
 1372POPC   C2B21392   0.732  39.622   8.355
 1372POPC   C3B21393   0.599  39.664   7.901
 1372POPC   C4B21394   0.724  39.724   7.411
 1373POPC   NC321395  23.258  31.483   9.619
 1373POPC   PO421396  22.583  31.276   9.507
 1373POPC   GL121397  22.815  31.526   9.187
 1373POPC   GL221398  23.168  31.573   9.131
 1373POPC   C1A21399  22.947  31.383   8.737
 1373POPC   D2A21400  23.115  31.237   8.349
 1373POPC   C3A21401  22.781  31.184   8.043
 1373POPC   C4A21402  22.825  31.273   7.612
 1373POPC   C1B21403  23.332  31.775   8.767
 1373POPC   C2B21404  23.089  31.786   8.420
 1373POPC   C3B21405  23.029  31.653   8.011
 1373POPC   C4B21406  23.355  31.838   7.755
 1374POPC   NC321407   6.316  42.080   9.477
 1374POPC   PO421408   6.845  42.357   9.407
 1374POPC   GL121409   6.678  42.379   9.007
 1374POPC   GL221410   6.303  42.369   9.044
 1374POPC   C1A21411   6.845  42.275   8.586
 1374POPC   D2A21412   6.860  42.526   8.214
 1374POPC   C3A21413   6.863  42.469   7.766
 1374POPC   C4A21414   6.960  42.228   7.385
 1374POPC   C1B21415   6.345  42.379   8.588
 1374POPC   C2B21416   6.378  42.696   8.251
 1374POPC   C3B21417   6.422  42.738   7.809
 1374POPC   C4B21418   6.318  42.359   7.652
 1375POPC   NC321419  22.392  32.672   9.318
 1375POPC   PO421420  21.980  33.145   9.453
 1375POPC   GL121421  22.165  33.344   9.092
 1375POPC   GL221422  22.366  33.086   9.033
 1375POPC   C1A21423  22.266  33.332   8.617
 1375POPC   D2A21424  22.325  33.036   8.289
 1375POPC   C3A21425  22.135  33.265   7.967
 1375POPC   C4A21426  22.120  33.286   7.538
 1375POPC   C1B21427  22.096  32.846   8.737
 1375POPC   C2B21428  21.844  32.722   8.390
 1375POPC   C3B21429  21.956  32.780   7.981
 1375POPC   C4B21430  22.309  32.822   7.718
 1376POPC   NC321431   9.057  41.896   9.724
 1376POPC   PO421432   8.779  41.443   9.293
 1376POPC   GL121433   8.728  41.513   8.910
 1376POPC   GL221434   8.853  41.847   8.941
 1376POPC   C1A21435   8.772  41.543   8.476
 1376POPC   D2A21436   9.207  41.565   8.325
 1376POPC   C3A21437   9.213  41.460   7.933
 1376POPC   C4A21438   8.796  41.311   7.882
 1376POPC   C1B21439   9.029  41.981   8.567
 1376POPC   C2B21440   8.784  42.016   8.235
 1376POPC   C3B21441   8.845  41.834   7.875
 1376POPC   C4B21442   9.049  41.707   7.520
 1377POPC   NC321443  31.469  24.946   9.603
 1377POPC   PO421444  31.274  25.562   9.456
 1377POPC   GL121445  31.283  25.219   9.170
 1377POPC   GL221446  31.650  25.126   9.166
 1377POPC   C1A21447  31.380  25.138   8.726
 1377POPC   D2A21448  31.539  25.098   8.306
 1377POPC   C3A21449  31.315  25.008   7.930
 1377POPC   C4A21450  31.402  25.129   7.528
 1377POPC   C1B21451  31.911  25.141   8.785
 1377POPC   C2B21452  32.007  25.286   8.378
 1377POPC   C3B21453  31.793  25.433   8.006
 1377POPC   C4B21454  31.886  25.145   7.706
 1378POPC   NC321455   9.261   6.033   9.206
 1378POPC   PO421456   9.044   5.552   9.495
 1378POPC   GL121457   8.936   5.686   9.082
 1378POPC   GL221458   9.275   5.642   8.886
 1378POPC   C1A21459   8.834   5.861   8.668
 1378POPC   D2A21460   8.965   5.659   8.261
 1378POPC   C3A21461   8.765   5.874   7.927
 1378POPC   C4A21462   8.770   6.130   7.569
 1378POPC   C1B21463   9.320   6.021   8.579
 1378POPC   C2B21464   9.104   6.192   8.264
 1378POPC   C3B21465   9.196   6.124   7.854
 1378POPC   C4B21466   9.248   5.977   7.466
 1379POPC   NC321467  42.618  22.169   9.441
 1379POPC   PO421468  42.254  22.729   9.524
 1379POPC   GL121469  42.248  22.459   9.153
 1379POPC   GL221470  42.293  22.098   9.059
 1379POPC   C1A21471  42.137  22.564   8.758
 1379POPC   D2A21472  42.410  22.600   8.399
 1379POPC   C3A21473  42.237  22.504   7.984
 1379POPC   C4A21474  42.378  22.188   7.715
 1379POPC   C1B21475  42.414  22.137   8.618
 1379POPC   C2B21476  42.344  21.986   8.184
 1379POPC   C3B21477  42.562  21.718   7.848
 1379POPC   C4B21478  42.558  21.558   7.412
 1380POPC   NC321479  43.795   9.405   9.383
 1380POPC   PO421480  43.707  10.059   9.535
 1380POPC   GL121481  43.790  10.018   9.123
 1380POPC   GL221482  44.085   9.806   9.101
 1380POPC   C1A21483  43.705   9.768   8.761
 1380POPC   D2A21484  43.894   9.832   8.379
 1380POPC   C3A21485  43.729   9.688   7.991
 1380POPC   C4A21486  43.976  10.031   7.835
 1380POPC   C1B21487  44.158   9.501   8.729
 1380POPC   C2B21488  44.079   9.347   8.296
 1380POPC   C3B21489  44.152   9.384   7.859
 1380POPC   C4B21490  44.275   9.526   7.449
 1381POPC   NC321491  12.174  16.625   9.449
 1381POPC   PO421492  11.595  17.034   9.503
 1381POPC   GL121493  11.800  16.870   9.138
 1381POPC   GL221494  12.182  16.938   9.055
 1381POPC   C1A21495  11.838  16.820   8.700
 1381POPC   D2A21496  11.932  16.646   8.316
 1381POPC   C3A21497  11.861  16.763   7.918
 1381POPC   C4A21498  11.775  16.447   7.613
 1381POPC   C1B21499  12.321  16.676   8.702
 1381POPC   C2B21500  12.373  16.441   8.332
 1381POPC   C3B21501  12.352  16.678   7.961
 1381POPC   C4B21502  12.334  16.526   7.559
 1382POPC   NC321503  12.137  19.432   9.550
 1382POPC   PO421504  11.824  20.075   9.535
 1382POPC   GL121505  12.037  20.019   9.144
 1382POPC   GL221506  12.195  19.709   9.138
 1382POPC   C1A21507  12.272  20.023   8.737
 1382POPC   D2A21508  12.346  20.272   8.355
 1382POPC   C3A21509  12.263  19.990   8.008
 1382POPC   C4A21510  12.190  20.073   7.595
 1382POPC   C1B21511  12.222  19.508   8.757
 1382POPC   C2B21512  12.125  19.667   8.380
 1382POPC   C3B21513  12.000  19.478   8.013
 1382POPC   C4B21514  11.963  19.608   7.613
 1383POPC   NC321515  10.082  37.769   9.551
 1383POPC   PO421516   9.386  37.633   9.451
 1383POPC   GL121517   9.680  37.773   9.141
 1383POPC   GL221518  10.030  37.623   9.067
 1383POPC   C1A21519   9.427  37.777   8.772
 1383POPC   D2A21520   9.346  37.555   8.414
 1383POPC   C3A21521   9.582  37.662   8.042
 1383POPC   C4A21522   9.577  37.864   7.634
 1383POPC   C1B21523   9.908  37.625   8.624
 1383POPC   C2B21524   9.992  37.901   8.281
 1383POPC   C3B21525  10.040  37.839   7.852
 1383POPC   C4B21526   9.997  37.610   7.464
 1384POPC   NC321527   9.670   0.683   9.447
 1384POPC   PO421528   9.344   0.090   9.354
 1384POPC   GL121529   9.600   0.354   9.065
 1384POPC   GL221530   9.937   0.314   9.172
 1384POPC   C1A21531   9.737   0.512   8.643
 1384POPC   D2A21532   9.637   0.557   8.183
 1384POPC   C3A21533   9.766   0.524   7.736
 1384POPC   C4A21534   9.810   0.170   7.421
 1384POPC   C1B21535  10.199   0.240   8.845
 1384POPC   C2B21536  10.232   0.380   8.462
 1384POPC   C3B21537  10.151   0.433   8.073
 1384POPC   C4B21538  10.217   0.273   7.701
 1385POPC   NC321539  23.700  32.027   9.535
 1385POPC   PO421540  24.030  32.525   9.367
 1385POPC   GL121541  23.749  32.316   9.045
 1385POPC   GL221542  23.797  31.958   9.038
 1385POPC   C1A21543  23.572  32.209   8.617
 1385POPC   D2A21544  23.417  32.115   8.197
 1385POPC   C3A21545  23.598  32.287   7.830
 1385POPC   C4A21546  23.575  32.352   7.381
 1385POPC   C1B21547  23.849  31.680   8.730
 1385POPC   C2B21548  23.812  31.802   8.337
 1385POPC   C3B21549  23.881  31.832   7.925
 1385POPC   C4B21550  23.800  31.932   7.501
 1386POPC   NC321551  23.159  28.610   9.570
 1386POPC   PO421552  23.764  28.263   9.462
 1386POPC   GL121553  23.824  28.375   9.079
 1386POPC   GL221554  23.553  28.633   9.103
 1386POPC   C1A21555  23.663  28.328   8.664
 1386POPC   D2A21556  23.331  28.389   8.364
 1386POPC   C3A21557  23.490  28.190   7.994
 1386POPC   C4A21558  23.822  28.245   7.666
 1386POPC   C1B21559  23.878  28.795   8.809
 1386POPC   C2B21560  23.724  28.822   8.415
 1386POPC   C3B21561  23.779  28.647   8.013
 1386POPC   C4B21562  23.465  28.626   7.705
 1387POPC   NC321563   9.379  27.067   9.721
 1387POPC   PO421564   8.802  26.713   9.709
 1387POPC   GL121565   9.061  26.818   9.330
 1387POPC   GL221566   8.794  27.014   9.141
 1387POPC   C1A21567   9.222  26.889   8.890
 1387POPC   D2A21568   8.992  27.049   8.552
 1387POPC   C3A21569   9.087  26.925   8.148
 1387POPC   C4A21570   8.888  27.016   7.752
 1387POPC   C1B21571   8.801  26.612   8.859
 1387POPC   C2B21572   8.903  26.499   8.432
 1387POPC   C3B21573   8.765  26.560   8.028
 1387POPC   C4B21574   8.921  26.534   7.622
 1388POPC   NC321575  33.499  10.761   9.402
 1388POPC   PO421576  34.142  10.499   9.549
 1388POPC   GL121577  33.916  10.548   9.185
 1388POPC   GL221578  33.951  10.905   9.162
 1388POPC   C1A21579  33.657  10.574   8.803
 1388POPC   D2A21580  33.445  10.340   8.499
 1388POPC   C3A21581  33.672  10.509   8.167
 1388POPC   C4A21582  33.753  10.454   7.758
 1388POPC   C1B21583  34.126  10.791   8.769
 1388POPC   C2B21584  34.170  10.606   8.365
 1388POPC   C3B21585  34.139  10.727   7.923
 1388POPC   C4B21586  34.043  10.740   7.439
 1389POPC   NC321587   2.192  21.719   9.529
 1389POPC   PO421588   1.769  21.239   9.668
 1389POPC   GL121589   2.000  21.260   9.286
 1389POPC   GL221590   1.856  21.548   9.125
 1389POPC   C1A21591   2.068  21.114   8.849
 1389POPC   D2A21592   2.246  21.177   8.407
 1389POPC   C3A21593   2.014  21.420   8.064
 1389POPC   C4A21594   2.075  21.332   7.640
 1389POPC   C1B21595   1.667  21.407   8.704
 1389POPC   C2B21596   1.427  21.495   8.361
 1389POPC   C3B21597   1.426  21.592   7.964
 1389POPC   C4B21598   1.645  21.591   7.625
 1390POPC   NC321599   4.848  41.886   9.479
 1390POPC   PO421600   5.214  41.271   9.498
 1390POPC   GL121601   5.063  41.519   9.193
 1390POPC   GL221602   5.305  41.784   9.228
 1390POPC   C1A21603   4.970  41.643   8.790
 1390POPC   D2A21604   4.897  41.439   8.384
 1390POPC   C3A21605   4.887  41.611   7.997
 1390POPC   C4A21606   4.873  41.647   7.526
 1390POPC   C1B21607   5.473  41.481   8.892
 1390POPC   C2B21608   5.318  41.219   8.577
 1390POPC   C3B21609   5.334  41.264   8.112
 1390POPC   C4B21610   5.334  41.615   7.793
 1391POPC   NC321611  13.304   8.435   9.705
 1391POPC   PO421612  12.790   8.074   9.601
 1391POPC   GL121613  12.731   8.108   9.184
 1391POPC   GL221614  12.659   8.472   9.207
 1391POPC   C1A21615  12.915   8.200   8.809
 1391POPC   D2A21616  13.055   8.413   8.451
 1391POPC   C3A21617  12.938   8.270   8.063
 1391POPC   C4A21618  12.787   8.140   7.693
 1391POPC   C1B21619  12.510   8.489   8.789
 1391POPC   C2B21620  12.543   8.265   8.407
 1391POPC   C3B21621  12.387   8.275   7.976
 1391POPC   C4B21622  12.389   8.392   7.513
 1392POPC   NC321623   7.285  32.602   9.422
 1392POPC   PO421624   7.402  31.872   9.443
 1392POPC   GL121625   7.415  32.180   9.120
 1392POPC   GL221626   7.722  32.392   9.146
 1392POPC   C1A21627   7.298  32.217   8.691
 1392POPC   D2A21628   7.570  32.236   8.324
 1392POPC   C3A21629   7.406  32.086   7.921
 1392POPC   C4A21630   7.691  32.137   7.582
 1392POPC   C1B21631   7.607  32.615   8.783
 1392POPC   C2B21632   7.618  32.752   8.358
 1392POPC   C3B21633   7.612  32.595   7.943
 1392POPC   C4B21634   7.302  32.509   7.653
 1393POPC   NC321635  36.863   0.279   9.501
 1393POPC   PO421636  36.664   0.935   9.294
 1393POPC   GL121637  36.666   0.537   9.097
 1393POPC   GL221638  37.001   0.502   9.054
 1393POPC   C1A21639  36.671   0.309   8.682
 1393POPC   D2A21640  36.837   0.301   8.246
 1393POPC   C3A21641  36.607   0.039   7.928
 1393POPC   C4A21642  36.600   0.045   7.431
 1393POPC   C1B21643  36.930   0.746   8.705
 1393POPC   C2B21644  37.025   0.815   8.287
 1393POPC   C3B21645  36.867   0.709   7.904
 1393POPC   C4B21646  36.956   0.344   7.716
 1394POPC   NC321647  26.629   4.084   9.624
 1394POPC   PO421648  27.157   4.475   9.659
 1394POPC   GL121649  27.019   4.424   9.231
 1394POPC   GL221650  26.978   4.079   9.221
 1394POPC   C1A21651  27.054   4.433   8.749
 1394POPC   D2A21652  26.803   4.478   8.337
 1394POPC   C3A21653  26.942   4.414   7.889
 1394POPC   C4A21654  26.878   4.253   7.440
 1394POPC   C1B21655  26.754   4.027   8.836
 1394POPC   C2B21656  26.484   4.095   8.497
 1394POPC   C3B21657  26.636   4.025   8.074
 1394POPC   C4B21658  26.549   3.938   7.647
 1395POPC   NC321659   5.294  20.353   9.483
 1395POPC   PO421660   4.878  20.914   9.521
 1395POPC   GL121661   4.883  20.605   9.195
 1395POPC   GL221662   5.219  20.692   9.120
 1395POPC   C1A21663   4.930  20.576   8.733
 1395POPC   D2A21664   5.207  20.797   8.457
 1395POPC   C3A21665   5.040  20.688   8.122
 1395POPC   C4A21666   4.982  20.732   7.726
 1395POPC   C1B21667   5.413  20.451   8.779
 1395POPC   C2B21668   5.271  20.299   8.371
 1395POPC   C3B21669   5.430  20.387   7.927
 1395POPC   C4B21670   5.331  20.159   7.535
 1396POPC   NC321671  32.828   1.433   9.291
 1396POPC   PO421672  33.383   1.109   9.466
 1396POPC   GL121673  33.178   1.122   9.063
 1396POPC   GL221674  33.359   1.429   9.040
 1396POPC   C1A21675  32.847   1.248   8.695
 1396POPC   D2A21676  32.685   1.424   8.292
 1396POPC   C3A21677  32.831   1.283   7.839
 1396POPC   C4A21678  32.842   1.446   7.386
 1396POPC   C1B21679  33.329   1.317   8.614
 1396POPC   C2B21680  33.204   1.294   8.215
 1396POPC   C3B21681  33.333   1.364   7.813
 1396POPC   C4B21682  33.250   1.113   7.459
 1397POPC   NC321683  37.822  43.263   9.513
 1397POPC   PO421684  37.415  42.757   9.208
 1397POPC   GL121685  37.625  43.055   9.018
 1397POPC   GL221686  37.678  43.370   9.055
 1397POPC   C1A21687  37.427  43.211   8.651
 1397POPC   D2A21688  37.549  42.898   8.351
 1397POPC   C3A21689  37.652  43.017   7.955
 1397POPC   C4A21690  37.469  42.839   7.681
 1397POPC   C1B21691  37.916  43.322   8.680
 1397POPC   C2B21692  37.768  43.375   8.288
 1397POPC   C3B21693  37.991  43.390   7.891
 1397POPC   C4B21694  37.821  43.487   7.484
 1398POPC   NC321695  29.175  12.499   9.370
 1398POPC   PO421696  28.924  13.178   9.469
 1398POPC   GL121697  29.091  12.948   9.099
 1398POPC   GL221698  28.953  12.614   8.937
 1398POPC   C1A21699  29.182  13.000   8.664
 1398POPC   D2A21700  29.322  13.132   8.263
 1398POPC   C3A21701  29.070  12.945   7.879
 1398POPC   C4A21702  28.848  13.056   7.480
 1398POPC   C1B21703  29.333  12.510   8.677
 1398POPC   C2B21704  29.257  12.610   8.259
 1398POPC   C3B21705  29.107  12.413   7.919
 1398POPC   C4B21706  29.365  12.203   7.660
 1399POPC   NC321707  14.263  29.760   9.465
 1399POPC   PO421708  14.888  30.007   9.541
 1399POPC   GL121709  14.715  29.763   9.173
 1399POPC   GL221710  14.391  29.910   9.011
 1399POPC   C1A21711  14.656  29.562   8.763
 1399POPC   D2A21712  14.406  29.769   8.456
 1399POPC   C3A21713  14.565  29.940   8.068
 1399POPC   C4A21714  14.505  29.737   7.677
 1399POPC   C1B21715  14.140  30.144   8.731
 1399POPC   C2B21716  14.288  30.372   8.430
 1399POPC   C3B21717  14.183  30.265   8.055
 1399POPC   C4B21718  14.172  30.097   7.691
 1400POPC   NC321719  42.996  27.979   9.595
 1400POPC   PO421720  42.837  27.417   9.522
 1400POPC   GL121721  43.077  27.553   9.191
 1400POPC   GL221722  43.265  27.253   9.162
 1400POPC   C1A21723  43.089  27.611   8.735
 1400POPC   D2A21724  42.761  27.625   8.399
 1400POPC   C3A21725  42.922  27.698   7.980
 1400POPC   C4A21726  43.070  27.945   7.608
 1400POPC   C1B21727  43.395  27.194   8.750
 1400POPC   C2B21728  43.547  27.431   8.384
 1400POPC   C3B21729  43.550  27.343   7.952
 1400POPC   C4B21730  43.212  27.420   7.690
 1401POPC   NC321731  14.511   7.484   9.393
 1401POPC   PO421732  14.998   7.053   9.364
 1401POPC   GL121733  14.627   7.130   9.030
 1401POPC   GL221734  14.301   7.055   9.209
 1401POPC   C1A21735  14.444   7.537   8.744
 1401POPC   D2A21736  14.158   7.687   8.364
 1401POPC   C3A21737  14.223   7.666   7.873
 1401POPC   C4A21738  14.496   7.618   7.459
 1401POPC   C1B21739  14.188   7.081   8.768
 1401POPC   C2B21740  14.556   7.120   8.486
 1401POPC   C3B21741  14.424   7.258   8.099
 1401POPC   C4B21742  14.246   7.018   7.745
 1402POPC   NC321743  42.345  32.396   9.358
 1402POPC   PO421744  42.213  31.958   9.821
 1402POPC   GL121745  42.272  31.901   9.306
 1402POPC   GL221746  42.625  31.967   9.195
 1402POPC   C1A21747  42.089  32.071   8.865
 1402POPC   D2A21748  42.213  32.318   8.495
 1402POPC   C3A21749  42.058  32.366   8.083
 1402POPC   C4A21750  42.145  32.558   7.675
 1402POPC   C1B21751  42.615  32.111   8.759
 1402POPC   C2B21752  42.750  32.311   8.379
 1402POPC   C3B21753  42.631  32.368   7.963
 1402POPC   C4B21754  42.731  32.001   7.740
 1403POPC   NC321755  15.419   0.350   9.536
 1403POPC   PO421756  15.893   0.712   9.550
 1403POPC   GL121757  16.144   0.736   9.179
 1403POPC   GL221758  15.944   0.450   9.034
 1403POPC   C1A21759  16.157   0.761   8.720
 1403POPC   D2A21760  15.880   0.570   8.436
 1403POPC   C3A21761  15.958   0.597   7.996
 1403POPC   C4A21762  16.030   0.504   7.580
 1403POPC   C1B21763  16.249   0.265   8.702
 1403POPC   C2B21764  16.154   0.156   8.247
 1403POPC   C3B21765  16.176   0.053   7.795
 1403POPC   C4B21766  16.418   0.191   7.445
 1404POPC   NC321767  17.244  42.829   9.826
 1404POPC   PO421768  17.844  43.064   9.646
 1404POPC   GL121769  17.582  43.012   9.237
 1404POPC   GL221770  17.497  43.355   9.068
 1404POPC   C1A21771  17.350  42.935   8.807
 1404POPC   D2A21772  17.280  43.226   8.424
 1404POPC   C3A21773  17.279  43.088   7.978
 1404POPC   C4A21774  17.096  43.174   7.551
 1404POPC   C1B21775  17.803  43.134   8.772
 1404POPC   C2B21776  17.713  42.954   8.363
 1404POPC   C3B21777  17.789  43.142   7.982
 1404POPC   C4B21778  17.618  43.288   7.599
 1405POPC   NC321779  37.443  44.805   9.440
 1405POPC   PO421780  37.961  44.604   9.696
 1405POPC   GL121781  37.827  44.543   9.198
 1405POPC   GL221782  37.659  44.851   8.990
 1405POPC   C1A21783  37.632  44.321   8.861
 1405POPC   D2A21784  37.615  44.220   8.441
 1405POPC   C3A21785  37.339  44.496   8.211
 1405POPC   C4A21786  37.305  44.467   7.768
 1405POPC   C1B21787  37.959  44.718   8.680
 1405POPC   C2B21788  37.817  44.670   8.290
 1405POPC   C3B21789  37.701  44.829   7.901
 1405POPC   C4B21790  37.933   0.021   7.571
 1406POPC   NC321791   2.007  36.183   9.415
 1406POPC   PO421792   2.651  36.186   9.462
 1406POPC   GL121793   2.434  36.264   9.073
 1406POPC   GL221794   2.348  35.921   9.060
 1406POPC   C1A21795   2.530  36.231   8.642
 1406POPC   D2A21796   2.965  36.118   8.497
 1406POPC   C3A21797   2.965  36.161   8.055
 1406POPC   C4A21798   3.264  36.002   7.710
 1406POPC   C1B21799   2.639  35.749   8.725
 1406POPC   C2B21800   2.610  35.832   8.252
 1406POPC   C3B21801   2.518  36.049   7.824
 1406POPC   C4B21802   2.520  36.117   7.350
 1407POPC   NC321803  24.801   5.474   9.481
 1407POPC   PO421804  24.155   5.316   9.799
 1407POPC   GL121805  24.281   5.065   9.250
 1407POPC   GL221806  24.609   4.992   9.243
 1407POPC   C1A21807  24.323   5.250   8.784
 1407POPC   D2A21808  24.164   5.231   8.357
 1407POPC   C3A21809  24.423   5.130   8.028
 1407POPC   C4A21810  24.552   5.395   7.724
 1407POPC   C1B21811  24.731   4.935   8.818
 1407POPC   C2B21812  24.575   4.787   8.442
 1407POPC   C3B21813  24.775   4.766   8.076
 1407POPC   C4B21814  24.852   4.992   7.743
 1408POPC   NC321815  42.569  42.128   9.581
 1408POPC   PO421816  41.979  42.413   9.513
 1408POPC   GL121817  42.287  42.344   9.154
 1408POPC   GL221818  42.668  42.376   9.141
 1408POPC   C1A21819  42.340  42.633   8.789
 1408POPC   D2A21820  42.404  42.544   8.365
 1408POPC   C3A21821  42.088  42.513   8.053
 1408POPC   C4A21822  42.075  42.282   7.667
 1408POPC   C1B21823  42.608  42.196   8.736
 1408POPC   C2B21824  42.768  42.127   8.335
 1408POPC   C3B21825  42.574  42.251   7.967
 1408POPC   C4B21826  42.578  42.306   7.532
 1409POPC   NC321827  32.062  16.904   9.413
 1409POPC   PO421828  32.549  16.465   9.692
 1409POPC   GL121829  32.403  16.520   9.249
 1409POPC   GL221830  32.435  16.882   9.060
 1409POPC   C1A21831  32.257  16.435   8.831
 1409POPC   D2A21832  32.392  16.770   8.561
 1409POPC   C3A21833  32.311  16.737   8.154
 1409POPC   C4A21834  32.333  16.715   7.703
 1409POPC   C1B21835  32.062  17.071   8.780
 1409POPC   C2B21836  31.935  17.059   8.330
 1409POPC   C3B21837  32.094  17.116   7.883
 1409POPC   C4B21838  32.051  17.045   7.415
 1410POPC   NC321839   0.296  11.479   9.508
 1410POPC   PO421840   0.888  11.268   9.621
 1410POPC   GL121841   0.699  11.412   9.216
 1410POPC   GL221842   0.776  11.760   9.203
 1410POPC   C1A21843   0.419  11.249   8.873
 1410POPC   D2A21844   0.176  11.188   8.496
 1410POPC   C3A21845   0.369  11.033   8.117
 1410POPC   C4A21846   0.313  10.827   7.753
 1410POPC   C1B21847   0.689  11.769   8.770
 1410POPC   C2B21848   0.518  11.560   8.412
 1410POPC   C3B21849   0.205  11.500   8.082
 1410POPC   C4B21850   0.455  11.367   7.699
 1411POPC   NC321851   7.711   1.508   9.390
 1411POPC   PO421852   7.389   0.862   9.524
 1411POPC   GL121853   7.304   0.880   9.129
 1411POPC   GL221854   7.240   1.229   9.138
 1411POPC   C1A21855   7.162   0.886   8.747
 1411POPC   D2A21856   7.195   1.097   8.383
 1411POPC   C3A21857   7.467   0.927   8.096
 1411POPC   C4A21858   7.460   1.115   7.719
 1411POPC   C1B21859   7.356   1.416   8.767
 1411POPC   C2B21860   7.282   1.626   8.401
 1411POPC   C3B21861   7.133   1.484   8.009
 1411POPC   C4B21862   7.070   1.420   7.575
 1412POPC   NC321863  43.351  31.220   9.435
 1412POPC   PO421864  42.898  31.756   9.598
 1412POPC   GL121865  43.034  31.577   9.201
 1412POPC   GL221866  42.964  31.203   9.106
 1412POPC   C1A21867  42.928  31.658   8.784
 1412POPC   D2A21868  42.743  31.772   8.379
 1412POPC   C3A21869  42.888  31.599   7.984
 1412POPC   C4A21870  42.883  31.579   7.490
 1412POPC   C1B21871  43.222  31.199   8.725
 1412POPC   C2B21872  43.206  31.462   8.379
 1412POPC   C3B21873  43.397  31.496   8.006
 1412POPC   C4B21874  43.293  31.323   7.640
 1413POPC   NC321875  14.853  28.784   9.361
 1413POPC   PO421876  14.530  29.365   9.467
 1413POPC   GL121877  14.471  29.156   9.112
 1413POPC   GL221878  14.400  28.803   9.080
 1413POPC   C1A21879  14.249  29.234   8.762
 1413POPC   D2A21880  14.446  29.197   8.404
 1413POPC   C3A21881  14.605  29.439   8.072
 1413POPC   C4A21882  14.659  29.263   7.642
 1413POPC   C1B21883  14.102  28.737   8.713
 1413POPC   C2B21884  14.039  28.834   8.286
 1413POPC   C3B21885  14.249  29.102   7.939
 1413POPC   C4B21886  14.195  29.034   7.495
 1414POPC   NC321887  25.284   9.838   9.668
 1414POPC   PO421888  24.816  10.010   9.336
 1414POPC   GL121889  25.203   9.798   9.125
 1414POPC   GL221890  25.566   9.782   9.251
 1414POPC   C1A21891  25.339   9.723   8.679
 1414POPC   D2A21892  25.323   9.901   8.236
 1414POPC   C3A21893  25.331   9.583   7.900
 1414POPC   C4A21894  25.281   9.323   7.491
 1414POPC   C1B21895  25.825   9.742   8.900
 1414POPC   C2B21896  25.795   9.849   8.473
 1414POPC   C3B21897  25.798   9.865   8.056
 1414POPC   C4B21898  25.584   9.985   7.704
 1415POPC   NC321899  16.581   9.160   9.542
 1415POPC   PO421900  16.810   8.574   9.566
 1415POPC   GL121901  16.681   8.810   9.201
 1415POPC   GL221902  17.037   8.915   9.234
 1415POPC   C1A21903  16.712   8.950   8.781
 1415POPC   D2A21904  16.674   9.317   8.506
 1415POPC   C3A21905  16.836   9.236   8.112
 1415POPC   C4A21906  16.650   9.116   7.723
 1415POPC   C1B21907  17.256   8.835   8.862
 1415POPC   C2B21908  17.123   8.927   8.464
 1415POPC   C3B21909  17.197   8.864   8.061
 1415POPC   C4B21910  17.179   9.122   7.737
 1416POPC   NC321911  27.909  14.648   9.288
 1416POPC   PO421912  28.316  14.298   9.775
 1416POPC   GL121913  28.311  14.311   9.314
 1416POPC   GL221914  28.492  14.612   9.244
 1416POPC   C1A21915  28.347  14.139   8.859
 1416POPC   D2A21916  28.633  14.049   8.467
 1416POPC   C3A21917  28.503  14.166   8.046
 1416POPC   C4A21918  28.174  14.139   7.743
 1416POPC   C1B21919  28.352  14.671   8.822
 1416POPC   C2B21920  28.307  14.469   8.443
 1416POPC   C3B21921  28.144  14.560   8.045
 1416POPC   C4B21922  28.467  14.601   7.755
 1417POPC   NC321923  16.646  20.837   9.499
 1417POPC   PO421924  17.091  20.452   9.711
 1417POPC   GL121925  17.013  20.524   9.256
 1417POPC   GL221926  16.642  20.519   9.106
 1417POPC   C1A21927  17.033  20.651   8.822
 1417POPC   D2A21928  16.748  20.488   8.490
 1417POPC   C3A21929  16.776  20.672   8.087
 1417POPC   C4A21930  17.071  20.591   7.795
 1417POPC   C1B21931  16.441  20.211   8.813
 1417POPC   C2B21932  16.299  20.241   8.374
 1417POPC   C3B21933  16.230  20.056   7.988
 1417POPC   C4B21934  16.492  20.344   7.780
 1418POPC   NC321935  32.481  15.417   9.606
 1418POPC   PO421936  32.189  14.828   9.498
 1418POPC   GL121937  32.144  14.965   9.128
 1418POPC   GL221938  32.130  15.310   9.241
 1418POPC   C1A21939  32.363  14.986   8.765
 1418POPC   D2A21940  32.191  15.035   8.412
 1418POPC   C3A21941  32.274  14.804   8.079
 1418POPC   C4A21942  32.249  14.998   7.692
 1418POPC   C1B21943  32.288  15.481   8.875
 1418POPC   C2B21944  32.099  15.551   8.468
 1418POPC   C3B21945  32.208  15.386   8.051
 1418POPC   C4B21946  32.563  15.530   7.833
 1419POPC   NC321947  14.332  37.691   9.581
 1419POPC   PO421948  13.960  37.838   9.117
 1419POPC   GL121949  14.406  37.865   9.069
 1419POPC   GL221950  14.566  37.536   9.140
 1419POPC   C1A21951  14.512  37.914   8.638
 1419POPC   D2A21952  14.200  37.912   8.310
 1419POPC   C3A21953  14.370  37.818   7.939
 1419POPC   C4A21954  14.670  37.874   7.648
 1419POPC   C1B21955  14.378  37.434   8.721
 1419POPC   C2B21956  14.566  37.498   8.291
 1419POPC   C3B21957  14.600  37.375   7.829
 1419POPC   C4B21958  14.255  37.407   7.532
 1420POPC   NC321959   6.202  30.217   9.626
 1420POPC   PO421960   6.590  30.768   9.437
 1420POPC   GL121961   6.551  30.486   9.121
 1420POPC   GL221962   6.210  30.358   9.129
 1420POPC   C1A21963   6.736  30.559   8.725
 1420POPC   D2A21964   6.775  30.939   8.491
 1420POPC   C3A21965   6.658  31.000   8.066
 1420POPC   C4A21966   6.905  30.767   7.805
 1420POPC   C1B21967   6.223  30.458   8.678
 1420POPC   C2B21968   6.402  30.568   8.263
 1420POPC   C3B21969   6.346  30.568   7.803
 1420POPC   C4B21970   6.385  30.511   7.328
 1421POPC   NC321971  34.630   6.096   9.555
 1421POPC   PO421972  34.890   5.526   9.291
 1421POPC   GL121973  34.644   5.841   9.116
 1421POPC   GL221974  34.323   5.720   9.062
 1421POPC   C1A21975  34.587   5.995   8.712
 1421POPC   D2A21976  34.808   5.784   8.388
 1421POPC   C3A21977  34.622   5.910   8.025
 1421POPC   C4A21978  34.457   6.221   7.823
 1421POPC   C1B21979  34.409   5.512   8.676
 1421POPC   C2B21980  34.323   5.224   8.372
 1421POPC   C3B21981  34.409   5.434   8.007
 1421POPC   C4B21982  34.194   5.725   7.786
 1422POPC   NC321983  41.809  16.455   9.419
 1422POPC   PO421984  41.992  17.047   9.358
 1422POPC   GL121985  41.875  16.767   9.000
 1422POPC   GL221986  41.587  16.529   8.963
 1422POPC   C1A21987  41.762  16.771   8.561
 1422POPC   D2A21988  41.494  16.473   8.385
 1422POPC   C3A21989  41.425  16.528   7.950
 1422POPC   C4A21990  41.438  16.826   7.600
 1422POPC   C1B21991  41.883  16.278   8.700
 1422POPC   C2B21992  41.924  16.196   8.258
 1422POPC   C3B21993  41.947  16.428   7.835
 1422POPC   C4B21994  41.905  16.687   7.429
 1423POPC   NC321995  24.368  27.314   9.590
 1423POPC   PO421996  24.182  26.618   9.539
 1423POPC   GL121997  24.353  26.913   9.268
 1423POPC   GL221998  24.710  26.879   9.255
 1423POPC   C1A21999  24.343  26.923   8.842
 1423POPC   D2A22000  24.296  26.647   8.493
 1423POPC   C3A22001  24.192  26.784   8.049
 1423POPC   C4A22002  24.278  26.630   7.595
 1423POPC   C1B22003  24.819  26.737   8.836
 1423POPC   C2B22004  24.754  26.836   8.401
 1423POPC   C3B22005  24.710  26.722   7.975
 1423POPC   C4B22006  24.958  26.910   7.660
 1424POPC   NC322007   2.738   7.825   9.422
 1424POPC   PO422008   2.506   7.134   9.474
 1424POPC   GL122009   2.606   7.397   9.119
 1424POPC   GL222010   2.977   7.434   9.118
 1424POPC   C1A22011   2.633   7.628   8.722
 1424POPC   D2A22012   2.770   7.516   8.300
 1424POPC   C3A22013   2.486   7.543   7.947
 1424POPC   C4A22014   2.448   7.491   7.516
 1424POPC   C1B22015   3.035   7.272   8.703
 1424POPC   C2B22016   3.031   7.041   8.298
 1424POPC   C3B22017   3.084   7.075   7.841
 1424POPC   C4B22018   2.780   7.115   7.490
 1425POPC   NC322019   1.616  39.986   9.625
 1425POPC   PO422020   2.268  40.113   9.594
 1425POPC   GL122021   1.963  40.074   9.232
 1425POPC   GL222022   1.753  39.770   9.183
 1425POPC   C1A22023   1.808  40.219   8.839
 1425POPC   D2A22024   2.021  40.181   8.452
 1425POPC   C3A22025   1.856  40.193   8.049
 1425POPC   C4A22026   2.049  40.174   7.654
 1425POPC   C1B22027   1.897  39.730   8.733
 1425POPC   C2B22028   1.991  39.671   8.294
 1425POPC   C3B22029   1.943  39.683   7.846
 1425POPC   C4B22030   2.239  39.504   7.614
 1426POPC   NC322031   2.507  29.442   9.861
 1426POPC   PO422032   2.949  29.579   9.340
 1426POPC   GL122033   2.831  29.196   9.154
 1426POPC   GL222034   3.183  29.164   9.055
 1426POPC   C1A22035   2.816  28.979   8.752
 1426POPC   D2A22036   2.797  29.129   8.331
 1426POPC   C3A22037   2.586  29.016   7.938
 1426POPC   C4A22038   2.201  29.029   7.669
 1426POPC   C1B22039   3.241  29.372   8.653
 1426POPC   C2B22040   3.030  29.573   8.293
 1426POPC   C3B22041   2.936  29.447   7.913
 1426POPC   C4B22042   3.012  29.104   7.672
 1427POPC   NC322043  43.477  42.442   9.303
 1427POPC   PO422044  42.987  41.953   9.454
 1427POPC   GL122045  43.134  42.122   9.082
 1427POPC   GL222046  43.462  41.991   8.969
 1427POPC   C1A22047  43.088  42.383   8.713
 1427POPC   D2A22048  43.266  42.757   8.526
 1427POPC   C3A22049  43.298  42.711   8.081
 1427POPC   C4A22050  43.004  42.507   7.801
 1427POPC   C1B22051  43.610  42.348   8.694
 1427POPC   C2B22052  43.618  42.380   8.268
 1427POPC   C3B22053  43.720  42.229   7.890
 1427POPC   C4B22054  43.531  41.963   7.619
 1428POPC   NC322055  44.722  25.601   9.653
 1428POPC   PO422056  44.696  26.251   9.614
 1428POPC   GL122057  44.824  26.075   9.216
 1428POPC   GL222058  44.616  25.848   9.172
 1428POPC   C1A22059  44.654  26.109   8.764
 1428POPC   D2A22060  44.788  26.219   8.382
 1428POPC   C3A22061  44.687  26.026   7.981
 1428POPC   C4A22062  44.477  26.319   7.695
 1428POPC   C1B22063  44.415  25.667   8.810
 1428POPC   C2B22064  44.555  25.706   8.395
 1428POPC   C3B22065  44.327  25.637   8.032
 1428POPC   C4B22066  44.432  25.589   7.600
 1429POPC   NC322067  21.979  37.255   9.647
 1429POPC   PO422068  22.031  36.592   9.561
 1429POPC   GL122069  22.035  36.804   9.198
 1429POPC   GL222070  21.763  36.878   8.982
 1429POPC   C1A22071  22.252  36.859   8.816
 1429POPC   D2A22072  22.185  36.663   8.423
 1429POPC   C3A22073  22.154  36.948   8.123
 1429POPC   C4A22074  22.461  36.983   7.812
 1429POPC   C1B22075  21.879  37.131   8.600
 1429POPC   C2B22076  21.959  37.416   8.271
 1429POPC   C3B22077  21.973  37.323   7.827
 1429POPC   C4B22078  21.976  36.886   7.622
 1430POPC   NC322079  39.150   4.633   9.828
 1430POPC   PO422080  38.703   4.993   9.575
 1430POPC   GL122081  38.975   5.146   9.160
 1430POPC   GL222082  39.369   5.123   9.104
 1430POPC   C1A22083  39.097   5.136   8.682
 1430POPC   D2A22084  39.227   4.978   8.261
 1430POPC   C3A22085  38.978   5.151   7.953
 1430POPC   C4A22086  39.016   5.448   7.621
 1430POPC   C1B22087  39.622   5.086   8.670
 1430POPC   C2B22088  39.734   5.091   8.198
 1430POPC   C3B22089  39.484   5.234   7.842
 1430POPC   C4B22090  39.555   5.529   7.515
 1431POPC   NC322091   2.778  10.225   9.404
 1431POPC   PO422092   2.251  10.604   9.198
 1431POPC   GL122093   2.658  10.686   9.004
 1431POPC   GL222094   2.953  10.835   9.138
 1431POPC   C1A22095   2.896  10.474   8.680
 1431POPC   D2A22096   2.978  10.093   8.408
 1431POPC   C3A22097   2.771  10.164   8.025
 1431POPC   C4A22098   2.770  10.533   7.778
 1431POPC   C1B22099   3.255  10.829   8.803
 1431POPC   C2B22100   3.224  11.014   8.359
 1431POPC   C3B22101   3.083  10.929   7.916
 1431POPC   C4B22102   3.224  10.660   7.549
 1432POPC   NC322103  43.988  12.304   9.468
 1432POPC   PO422104  43.299  12.284   9.399
 1432POPC   GL122105  43.668  12.075   9.150
 1432POPC   GL222106  43.763  11.723   9.174
 1432POPC   C1A22107  44.044  12.030   8.857
 1432POPC   D2A22108  44.128  12.147   8.435
 1432POPC   C3A22109  43.945  11.949   8.046
 1432POPC   C4A22110  43.996  12.098   7.631
 1432POPC   C1B22111  43.633  11.753   8.754
 1432POPC   C2B22112  43.464  11.808   8.355
 1432POPC   C3B22113  43.433  11.694   7.943
 1432POPC   C4B22114  43.725  11.665   7.644
 1433POPC   NC322115  40.161  29.188   9.346
 1433POPC   PO422116  39.724  28.711   9.521
 1433POPC   GL122117  39.792  28.887   9.096
 1433POPC   GL222118  39.698  29.232   9.048
 1433POPC   C1A22119  39.828  29.009   8.633
 1433POPC   D2A22120  39.689  29.038   8.213
 1433POPC   C3A22121  40.067  29.116   7.959
 1433POPC   C4A22122  40.058  28.983   7.551
 1433POPC   C1B22123  39.628  29.524   8.702
 1433POPC   C2B22124  39.511  29.521   8.236
 1433POPC   C3B22125  39.663  29.379   7.811
 1433POPC   C4B22126  39.725  29.387   7.320
 1434POPC   NC322127  32.102  12.392   9.366
 1434POPC   PO422128  32.133  12.974   9.688
 1434POPC   GL122129  32.178  12.916   9.233
 1434POPC   GL222130  32.490  12.717   9.178
 1434POPC   C1A22131  31.996  12.827   8.814
 1434POPC   D2A22132  31.987  12.523   8.463
 1434POPC   C3A22133  31.957  12.770   8.099
 1434POPC   C4A22134  31.957  13.000   7.720
 1434POPC   C1B22135  32.462  12.589   8.728
 1434POPC   C2B22136  32.379  12.886   8.369
 1434POPC   C3B22137  32.434  12.961   7.903
 1434POPC   C4B22138  32.675  12.740   7.582
 1435POPC   NC322139  38.970  24.038   9.459
 1435POPC   PO422140  39.487  23.644   9.564
 1435POPC   GL122141  39.314  23.781   9.171
 1435POPC   GL222142  39.090  23.484   9.257
 1435POPC   C1A22143  39.322  24.059   8.762
 1435POPC   D2A22144  39.220  24.170   8.308
 1435POPC   C3A22145  39.419  24.026   7.937
 1435POPC   C4A22146  39.195  23.813   7.596
 1435POPC   C1B22147  39.162  23.394   8.836
 1435POPC   C2B22148  39.188  23.645   8.471
 1435POPC   C3B22149  39.068  23.611   8.058
 1435POPC   C4B22150  39.095  23.316   7.725
 1436POPC   NC322151   8.033  17.679   9.442
 1436POPC   PO422152   8.388  17.193   9.471
 1436POPC   GL122153   8.263  17.396   9.072
 1436POPC   GL222154   8.437  17.742   9.128
 1436POPC   C1A22155   7.937  17.519   8.746
 1436POPC   D2A22156   7.818  17.754   8.370
 1436POPC   C3A22157   7.892  17.644   7.932
 1436POPC   C4A22158   8.080  17.339   7.666
 1436POPC   C1B22159   8.396  17.764   8.705
 1436POPC   C2B22160   8.429  17.677   8.321
 1436POPC   C3B22161   8.518  17.452   7.973
 1436POPC   C4B22162   8.376  17.735   7.735
 1437POPC   NC322163  18.510  18.119   9.420
 1437POPC   PO422164  17.871  18.080   9.562
 1437POPC   GL122165  18.053  18.069   9.151
 1437POPC   GL222166  18.185  18.417   9.138
 1437POPC   C1A22167  18.308  18.086   8.747
 1437POPC   D2A22168  18.400  18.276   8.328
 1437POPC   C3A22169  18.100  18.188   7.960
 1437POPC   C4A22170  17.899  17.807   7.803
 1437POPC   C1B22171  18.282  18.628   8.736
 1437POPC   C2B22172  18.620  18.779   8.478
 1437POPC   C3B22173  18.594  18.671   8.049
 1437POPC   C4B22174  18.513  18.382   7.722
 1438POPC   NC322175  26.829  25.595   9.500
 1438POPC   PO422176  26.875  24.915   9.548
 1438POPC   GL122177  26.825  25.184   9.200
 1438POPC   GL222178  27.097  25.153   9.066
 1438POPC   C1A22179  26.689  25.140   8.768
 1438POPC   D2A22180  26.823  25.278   8.396
 1438POPC   C3A22181  26.584  25.220   8.037
 1438POPC   C4A22182  26.802  25.279   7.668
 1438POPC   C1B22183  27.207  25.346   8.736
 1438POPC   C2B22184  27.210  25.632   8.414
 1438POPC   C3B22185  27.137  25.408   8.034
 1438POPC   C4B22186  27.337  25.426   7.672
 1439POPC   NC322187  23.998  25.036   9.481
 1439POPC   PO422188  23.605  25.562   9.365
 1439POPC   GL122189  23.810  25.260   9.061
 1439POPC   GL222190  24.100  25.115   8.934
 1439POPC   C1A22191  23.693  25.059   8.654
 1439POPC   D2A22192  23.881  25.108   8.240
 1439POPC   C3A22193  23.610  25.291   7.951
 1439POPC   C4A22194  23.280  25.070   7.774
 1439POPC   C1B22195  23.932  25.506   8.648
 1439POPC   C2B22196  24.012  25.614   8.247
 1439POPC   C3B22197  24.109  25.383   7.864
 1439POPC   C4B22198  24.131  25.380   7.406
 1440POPC   NC322199  28.407  30.997   9.430
 1440POPC   PO422200  28.028  30.470   9.686
 1440POPC   GL122201  28.251  30.384   9.197
 1440POPC   GL222202  28.488  30.681   9.045
 1440POPC   C1A22203  28.350  30.336   8.716
 1440POPC   D2A22204  28.607  30.628   8.437
 1440POPC   C3A22205  28.509  30.647   7.997
 1440POPC   C4A22206  28.616  30.372   7.643
 1440POPC   C1B22207  28.395  31.037   8.714
 1440POPC   C2B22208  28.288  31.215   8.292
 1440POPC   C3B22209  28.556  31.136   7.940
 1440POPC   C4B22210  28.500  30.889   7.539
 1441POPC   NC322211   7.414  25.673   9.375
 1441POPC   PO422212   7.250  24.977   9.389
 1441POPC   GL122213   7.460  25.214   9.109
 1441POPC   GL222214   7.159  25.352   9.035
 1441POPC   C1A22215   7.492  25.117   8.687
 1441POPC   D2A22216   7.267  24.984   8.359
 1441POPC   C3A22217   7.458  25.151   8.056
 1441POPC   C4A22218   7.616  24.937   7.804
 1441POPC   C1B22219   7.032  25.339   8.625
 1441POPC   C2B22220   7.119  25.496   8.222
 1441POPC   C3B22221   7.046  25.332   7.793
 1441POPC   C4B22222   7.073  25.441   7.354
 1442POPC   NC322223  33.597  17.365   9.456
 1442POPC   PO422224  33.052  17.741   9.478
 1442POPC   GL122225  33.239  17.678   9.098
 1442POPC   GL222226  33.238  17.323   9.105
 1442POPC   C1A22227  33.005  17.612   8.704
 1442POPC   D2A22228  32.963  17.311   8.359
 1442POPC   C3A22229  32.924  17.490   7.954
 1442POPC   C4A22230  32.805  17.819   7.684
 1442POPC   C1B22231  33.327  17.198   8.709
 1442POPC   C2B22232  33.334  16.950   8.350
 1442POPC   C3B22233  33.223  17.074   7.964
 1442POPC   C4B22234  33.467  17.323   7.728
 1443POPC   NC322235  31.015   6.544   9.390
 1443POPC   PO422236  30.413   6.921   9.390
 1443POPC   GL122237  30.681   6.784   9.049
 1443POPC   GL222238  30.854   6.471   8.922
 1443POPC   C1A22239  30.829   6.890   8.637
 1443POPC   D2A22240  30.999   6.620   8.334
 1443POPC   C3A22241  30.771   6.600   7.968
 1443POPC   C4A22242  30.953   6.649   7.565
 1443POPC   C1B22243  30.459   6.386   8.724
 1443POPC   C2B22244  30.269   6.221   8.350
 1443POPC   C3B22245  30.376   6.180   7.911
 1443POPC   C4B22246  30.733   6.210   7.629
 1444POPC   NC322247   3.282  24.602   9.353
 1444POPC   PO422248   3.846  24.244   9.613
 1444POPC   GL122249   3.691  24.197   9.184
 1444POPC   GL222250   3.695  24.516   9.017
 1444POPC   C1A22251   3.402  24.138   8.811
 1444POPC   D2A22252   3.448  24.029   8.368
 1444POPC   C3A22253   3.424  24.399   8.077
 1444POPC   C4A22254   3.476  24.435   7.625
 1444POPC   C1B22255   3.982  24.828   8.846
 1444POPC   C2B22256   3.978  24.964   8.455
 1444POPC   C3B22257   3.688  25.138   8.182
 1444POPC   C4B22258   3.608  24.862   7.860
 1445POPC   NC322259  20.856  40.319   9.605
 1445POPC   PO422260  20.558  39.732   9.413
 1445POPC   GL122261  20.539  39.817   9.026
 1445POPC   GL222262  20.237  39.627   8.987
 1445POPC   C1A22263  20.765  39.943   8.668
 1445POPC   D2A22264  20.499  40.096   8.351
 1445POPC   C3A22265  20.591  40.023   7.922
 1445POPC   C4A22266  20.943  40.234   7.761
 1445POPC   C1B22267  20.358  39.622   8.550
 1445POPC   C2B22268  20.191  39.735   8.136
 1445POPC   C3B22269  20.292  39.658   7.692
 1445POPC   C4B22270  20.270  39.895   7.329
 1446POPC   NC322271  20.437  37.083   9.568
 1446POPC   PO422272  21.038  36.709   9.545
 1446POPC   GL122273  20.807  36.950   9.234
 1446POPC   GL222274  20.569  36.685   9.197
 1446POPC   C1A22275  20.560  37.047   8.846
 1446POPC   D2A22276  20.379  36.827   8.496
 1446POPC   C3A22277  20.312  36.916   8.088
 1446POPC   C4A22278  20.679  37.052   7.936
 1446POPC   C1B22279  20.503  36.448   8.798
 1446POPC   C2B22280  20.725  36.362   8.441
 1446POPC   C3B22281  20.757  36.561   8.055
 1446POPC   C4B22282  20.389  36.523   7.784
 1447POPC   NC322283   5.793  28.033   9.636
 1447POPC   PO422284   5.946  28.770   9.490
 1447POPC   GL122285   5.794  28.399   9.266
 1447POPC   GL222286   6.097  28.406   9.104
 1447POPC   C1A22287   5.666  28.248   8.837
 1447POPC   D2A22288   5.573  28.402   8.409
 1447POPC   C3A22289   5.725  28.231   8.026
 1447POPC   C4A22290   5.686  28.510   7.691
 1447POPC   C1B22291   6.274  28.408   8.705
 1447POPC   C2B22292   6.149  28.340   8.303
 1447POPC   C3B22293   6.120  28.561   7.926
 1447POPC   C4B22294   6.177  28.561   7.445
 1448POPC   NC322295  10.028  38.599   9.634
 1448POPC   PO422296   9.431  38.408   9.511
 1448POPC   GL122297   9.578  38.514   9.140
 1448POPC   GL222298   9.854  38.741   9.183
 1448POPC   C1A22299   9.547  38.282   8.746
 1448POPC   D2A22300   9.490  38.071   8.353
 1448POPC   C3A22301   9.677  38.226   7.974
 1448POPC   C4A22302   9.541  38.418   7.596
 1448POPC   C1B22303   9.998  38.508   8.810
 1448POPC   C2B22304   9.928  38.439   8.363
 1448POPC   C3B22305   9.909  38.692   7.962
 1448POPC   C4B22306  10.020  38.654   7.500
 1449POPC   NC322307  27.425  22.080   9.543
 1449POPC   PO422308  27.657  22.652   9.455
 1449POPC   GL122309  27.707  22.300   9.136
 1449POPC   GL222310  27.746  21.913   9.190
 1449POPC   C1A22311  27.577  22.167   8.718
 1449POPC   D2A22312  27.351  22.329   8.335
 1449POPC   C3A22313  27.519  22.388   7.922
 1449POPC   C4A22314  27.442  22.373   7.485
 1449POPC   C1B22315  27.913  21.729   8.808
 1449POPC   C2B22316  27.808  21.736   8.362
 1449POPC   C3B22317  27.509  21.901   8.083
 1449POPC   C4B22318  27.506  21.901   7.648
 1450POPC   NC322319  41.881  23.377   9.581
 1450POPC   PO422320  41.370  23.781   9.574
 1450POPC   GL122321  41.597  23.833   9.180
 1450POPC   GL222322  41.831  24.135   9.193
 1450POPC   C1A22323  41.380  23.722   8.790
 1450POPC   D2A22324  41.237  23.824   8.376
 1450POPC   C3A22325  41.297  23.571   8.094
 1450POPC   C4A22326  41.414  23.691   7.713
 1450POPC   C1B22327  41.648  24.154   8.761
 1450POPC   C2B22328  41.722  23.891   8.411
 1450POPC   C3B22329  41.783  23.728   8.048
 1450POPC   C4B22330  41.795  24.028   7.647
 1451POPC   NC322331  43.628  20.986   9.438
 1451POPC   PO422332  43.780  20.386   9.455
 1451POPC   GL122333  43.770  20.669   9.050
 1451POPC   GL222334  44.043  20.924   8.977
 1451POPC   C1A22335  43.967  20.482   8.690
 1451POPC   D2A22336  44.207  20.315   8.342
 1451POPC   C3A22337  43.948  20.298   7.967
 1451POPC   C4A22338  43.945  20.501   7.573
 1451POPC   C1B22339  44.015  20.964   8.531
 1451POPC   C2B22340  43.752  20.703   8.279
 1451POPC   C3B22341  43.501  20.576   7.940
 1451POPC   C4B22342  43.438  20.482   7.518
 1452POPC   NC322343  21.602  36.516   9.391
 1452POPC   PO422344  21.625  37.240   9.346
 1452POPC   GL122345  21.308  37.110   9.037
 1452POPC   GL222346  21.272  36.770   9.103
 1452POPC   C1A22347  21.359  36.956   8.636
 1452POPC   D2A22348  21.653  36.771   8.366
 1452POPC   C3A22349  21.634  36.957   7.983
 1452POPC   C4A22350  21.469  37.236   7.681
 1452POPC   C1B22351  20.944  36.703   8.803
 1452POPC   C2B22352  20.866  36.937   8.431
 1452POPC   C3B22353  21.147  37.005   8.119
 1452POPC   C4B22354  21.175  36.825   7.740
 1453POPC   NC322355  40.152  11.576   9.526
 1453POPC   PO422356  40.300  10.916   9.544
 1453POPC   GL122357  40.101  11.162   9.185
 1453POPC   GL222358  39.933  11.531   9.079
 1453POPC   C1A22359  39.820  11.111   8.844
 1453POPC   D2A22360  39.799  11.412   8.534
 1453POPC   C3A22361  39.872  11.297   8.120
 1453POPC   C4A22362  39.656  11.187   7.737
 1453POPC   C1B22363  40.274  11.442   8.794
 1453POPC   C2B22364  40.336  11.308   8.396
 1453POPC   C3B22365  40.328  11.521   8.032
 1453POPC   C4B22366  40.173  11.310   7.703
 1454POPC   NC322367  31.072  16.780   9.474
 1454POPC   PO422368  30.376  16.561   9.449
 1454POPC   GL122369  30.418  16.529   9.037
 1454POPC   GL222370  30.726  16.737   9.074
 1454POPC   C1A22371  30.440  16.748   8.647
 1454POPC   D2A22372  30.598  16.628   8.298
 1454POPC   C3A22373  30.434  16.736   7.926
 1454POPC   C4A22374  30.599  16.919   7.570
 1454POPC   C1B22375  30.847  16.436   8.766
 1454POPC   C2B22376  31.078  16.540   8.417
 1454POPC   C3B22377  30.983  16.537   7.984
 1454POPC   C4B22378  31.172  16.226   7.761
 1455POPC   NC322379  40.427  39.124   9.381
 1455POPC   PO422380  40.899  39.484   9.611
 1455POPC   GL122381  41.033  39.305   9.229
 1455POPC   GL222382  40.850  38.997   9.112
 1455POPC   C1A22383  40.898  39.420   8.811
 1455POPC   D2A22384  40.624  39.290   8.500
 1455POPC   C3A22385  40.887  39.176   8.191
 1455POPC   C4A22386  40.978  39.496   7.888
 1455POPC   C1B22387  40.504  38.876   8.787
 1455POPC   C2B22388  40.518  38.774   8.356
 1455POPC   C3B22389  40.406  39.070   8.064
 1455POPC   C4B22390  40.710  39.065   7.719
 1456POPC   NC322391  35.036  30.905   9.470
 1456POPC   PO422392  35.657  30.680   9.245
 1456POPC   GL122393  35.309  30.541   9.014
 1456POPC   GL222394  35.052  30.766   8.982
 1456POPC   C1A22395  35.290  30.367   8.652
 1456POPC   D2A22396  35.545  30.590   8.351
 1456POPC   C3A22397  35.260  30.574   8.001
 1456POPC   C4A22398  35.207  30.660   7.546
 1456POPC   C1B22399  35.163  30.853   8.589
 1456POPC   C2B22400  35.281  31.040   8.244
 1456POPC   C3B22401  35.029  31.033   7.888
 1456POPC   C4B22402  34.943  31.064   7.442
 1457POPC   NC322403  24.410  15.653   9.382
 1457POPC   PO422404  24.030  16.209   9.486
 1457POPC   GL122405  24.321  16.071   9.107
 1457POPC   GL222406  24.691  16.020   9.135
 1457POPC   C1A22407  24.418  15.801   8.729
 1457POPC   D2A22408  24.553  15.800   8.299
 1457POPC   C3A22409  24.254  15.795   7.924
 1457POPC   C4A22410  24.180  15.911   7.471
 1457POPC   C1B22411  24.791  16.135   8.693
 1457POPC   C2B22412  24.907  16.243   8.267
 1457POPC   C3B22413  24.645  16.140   7.919
 1457POPC   C4B22414  24.578  16.211   7.512
 1458POPC   NC322415  21.583  24.845   9.511
 1458POPC   PO422416  21.217  25.344   9.446
 1458POPC   GL122417  21.288  25.083   9.081
 1458POPC   GL222418  21.599  24.994   9.001
 1458POPC   C1A22419  21.245  25.058   8.617
 1458POPC   D2A22420  21.019  25.364   8.330
 1458POPC   C3A22421  20.951  25.326   7.892
 1458POPC   C4A22422  21.310  25.310   7.647
 1458POPC   C1B22423  21.586  25.400   8.784
 1458POPC   C2B22424  21.536  25.407   8.359
 1458POPC   C3B22425  21.723  25.311   7.991
 1458POPC   C4B22426  21.863  25.527   7.682
 1459POPC   NC322427  28.207  32.637   9.520
 1459POPC   PO422428  28.737  32.179   9.505
 1459POPC   GL122429  28.497  32.148   9.113
 1459POPC   GL222430  28.190  32.368   9.088
 1459POPC   C1A22431  28.422  32.186   8.674
 1459POPC   D2A22432  28.474  32.423   8.312
 1459POPC   C3A22433  28.418  32.187   7.938
 1459POPC   C4A22434  28.593  32.252   7.531
 1459POPC   C1B22435  28.061  32.595   8.712
 1459POPC   C2B22436  28.118  32.806   8.314
 1459POPC   C3B22437  28.155  32.637   7.923
 1459POPC   C4B22438  27.899  32.626   7.564
 1460POPC   NC322439   2.118   1.849   9.708
 1460POPC   PO422440   1.632   2.249   9.709
 1460POPC   GL122441   1.721   2.237   9.250
 1460POPC   GL222442   1.954   2.477   9.151
 1460POPC   C1A22443   1.828   1.982   8.872
 1460POPC   D2A22444   1.954   1.813   8.442
 1460POPC   C3A22445   1.756   2.025   8.081
 1460POPC   C4A22446   1.801   2.003   7.639
 1460POPC   C1B22447   2.171   2.370   8.732
 1460POPC   C2B22448   2.187   2.265   8.277
 1460POPC   C3B22449   2.260   2.024   7.893
 1460POPC   C4B22450   2.265   2.161   7.453
 1461POPC   NC322451  21.329  17.117   9.316
 1461POPC   PO422452  21.623  16.583   9.648
 1461POPC   GL122453  21.552  16.666   9.207
 1461POPC   GL222454  21.191  16.593   9.111
 1461POPC   C1A22455  21.626  16.881   8.780
 1461POPC   D2A22456  21.339  16.944   8.453
 1461POPC   C3A22457  21.539  16.969   8.067
 1461POPC   C4A22458  21.418  16.745   7.722
 1461POPC   C1B22459  21.014  16.555   8.672
 1461POPC   C2B22460  20.963  16.659   8.224
 1461POPC   C3B22461  21.058  16.406   7.864
 1461POPC   C4B22462  21.050  16.468   7.415
 1462POPC   NC322463  44.402  14.679   9.418
 1462POPC   PO422464  44.801  14.112   9.481
 1462POPC   GL122465  44.673  14.362   9.117
 1462POPC   GL222466  44.780  14.717   9.079
 1462POPC   C1A22467  44.586  14.259   8.702
 1462POPC   D2A22468  44.661  13.960   8.426
 1462POPC   C3A22469  44.494  14.106   8.073
 1462POPC   C4A22470  44.584  14.459   7.836
 1462POPC   C1B22471  44.987  14.536   8.729
 1462POPC   C2B22472  44.870  14.469   8.301
 1462POPC   C3B22473   0.078  14.528   7.931
 1462POPC   C4B22474   0.121  14.257   7.570
 1463POPC   NC322475  11.377  25.455   9.546
 1463POPC   PO422476  11.434  24.792   9.563
 1463POPC   GL122477  11.290  25.089   9.185
 1463POPC   GL222478  11.061  25.432   9.154
 1463POPC   C1A22479  11.422  25.213   8.777
 1463POPC   D2A22480  11.586  25.184   8.370
 1463POPC   C3A22481  11.394  24.960   8.060
 1463POPC   C4A22482  11.480  25.031   7.617
 1463POPC   C1B22483  11.132  25.638   8.747
 1463POPC   C2B22484  11.120  25.471   8.341
 1463POPC   C3B22485  11.343  25.473   7.966
 1463POPC   C4B22486  11.210  25.514   7.554
 1464POPC   NC322487   4.112  23.147   9.464
 1464POPC   PO422488   4.647  22.727   9.571
 1464POPC   GL122489   4.524  22.904   9.188
 1464POPC   GL222490   4.727  23.188   9.213
 1464POPC   C1A22491   4.196  22.903   8.840
 1464POPC   D2A22492   4.266  22.864   8.390
 1464POPC   C3A22493   4.092  23.048   8.012
 1464POPC   C4A22494   4.016  22.878   7.603
 1464POPC   C1B22495   4.610  23.207   8.768
 1464POPC   C2B22496   4.786  23.026   8.401
 1464POPC   C3B22497   4.635  22.997   8.001
 1464POPC   C4B22498   4.512  23.014   7.584
 1465POPC   NC322499  32.936   2.377   9.603
 1465POPC   PO422500  32.849   3.069   9.507
 1465POPC   GL122501  32.918   2.727   9.231
 1465POPC   GL222502  32.621   2.564   9.203
 1465POPC   C1A22503  32.982   2.646   8.788
 1465POPC   D2A22504  33.134   2.928   8.449
 1465POPC   C3A22505  33.059   2.738   8.073
 1465POPC   C4A22506  32.987   2.434   7.733
 1465POPC   C1B22507  32.598   2.949   8.921
 1465POPC   C2B22508  32.603   2.939   8.480
 1465POPC   C3B22509  32.657   3.081   8.066
 1465POPC   C4B22510  32.740   2.923   7.694
 1466POPC   NC322511  36.244   1.047   9.517
 1466POPC   PO422512  36.086   1.747   9.377
 1466POPC   GL122513  35.949   1.401   9.112
 1466POPC   GL222514  36.081   1.056   9.054
 1466POPC   C1A22515  35.970   1.363   8.666
 1466POPC   D2A22516  36.256   1.182   8.350
 1466POPC   C3A22517  36.152   1.277   7.932
 1466POPC   C4A22518  35.894   1.638   7.820
 1466POPC   C1B22519  36.351   0.840   8.745
 1466POPC   C2B22520  36.525   0.716   8.376
 1466POPC   C3B22521  36.383   0.771   7.991
 1466POPC   C4B22522  36.501   0.995   7.632
 1467POPC   NC322523  36.437   7.331   9.484
 1467POPC   PO422524  35.859   7.650   9.490
 1467POPC   GL122525  36.052   7.485   9.117
 1467POPC   GL222526  36.361   7.677   9.116
 1467POPC   C1A22527  36.290   7.282   8.766
 1467POPC   D2A22528  36.314   6.912   8.482
 1467POPC   C3A22529  36.212   6.998   8.044
 1467POPC   C4A22530  36.108   7.176   7.635
 1467POPC   C1B22531  36.249   7.797   8.726
 1467POPC   C2B22532  36.056   7.652   8.364
 1467POPC   C3B22533  36.242   7.518   8.001
 1467POPC   C4B22534  36.452   7.761   7.669
 1468POPC   NC322535  16.387  10.188   9.584
 1468POPC   PO422536  16.709   9.594   9.562
 1468POPC   GL122537  16.788   9.820   9.149
 1468POPC   GL222538  16.531  10.009   9.141
 1468POPC   C1A22539  16.863  10.038   8.742
 1468POPC   D2A22540  16.772   9.807   8.363
 1468POPC   C3A22541  16.784  10.037   7.992
 1468POPC   C4A22542  17.145  10.043   7.730
 1468POPC   C1B22543  16.402   9.791   8.779
 1468POPC   C2B22544  16.266   9.639   8.404
 1468POPC   C3B22545  16.460   9.569   8.006
 1468POPC   C4B22546  16.837   9.598   7.734
 1469POPC   NC322547  44.064  28.817   9.424
 1469POPC   PO422548  43.597  29.304   9.526
 1469POPC   GL122549  43.708  29.048   9.137
 1469POPC   GL222550  44.047  29.139   9.038
 1469POPC   C1A22551  43.694  28.905   8.700
 1469POPC   D2A22552  43.598  29.172   8.344
 1469POPC   C3A22553  43.759  29.114   7.932
 1469POPC   C4A22554  43.908  28.926   7.590
 1469POPC   C1B22555  44.000  29.351   8.656
 1469POPC   C2B22556  44.122  29.167   8.266
 1469POPC   C3B22557  44.241  29.314   7.859
 1469POPC   C4B22558  44.421  29.035   7.559
 1470POPC   NC322559   4.499  40.314   9.884
 1470POPC   PO422560   4.310  40.864   9.629
 1470POPC   GL122561   4.369  40.796   9.215
 1470POPC   GL222562   4.700  40.749   9.137
 1470POPC   C1A22563   4.323  40.953   8.818
 1470POPC   D2A22564   4.260  40.686   8.476
 1470POPC   C3A22565   4.228  40.886   8.081
 1470POPC   C4A22566   3.883  40.706   7.846
 1470POPC   C1B22567   4.763  40.610   8.751
 1470POPC   C2B22568   4.759  40.393   8.376
 1470POPC   C3B22569   4.452  40.415   8.073
 1470POPC   C4B22570   4.468  40.651   7.706
 1471POPC   NC322571  12.035   1.058   9.473
 1471POPC   PO422572  12.528   1.428   9.289
 1471POPC   GL122573  12.279   1.261   9.011
 1471POPC   GL222574  12.309   0.915   9.065
 1471POPC   C1A22575  12.196   1.407   8.593
 1471POPC   D2A22576  11.953   1.269   8.257
 1471POPC   C3A22577  11.995   1.262   7.808
 1471POPC   C4A22578  11.826   0.953   7.549
 1471POPC   C1B22579  12.022   0.941   8.712
 1471POPC   C2B22580  12.142   0.778   8.350
 1471POPC   C3B22581  12.194   0.797   7.918
 1471POPC   C4B22582  12.283   0.696   7.496
 1472POPC   NC322583  28.956  25.389   9.562
 1472POPC   PO422584  29.527  24.956   9.603
 1472POPC   GL122585  29.319  25.151   9.282
 1472POPC   GL222586  28.981  24.980   9.248
 1472POPC   C1A22587  29.223  25.270   8.874
 1472POPC   D2A22588  29.171  25.138   8.453
 1472POPC   C3A22589  29.457  25.330   8.157
 1472POPC   C4A22590  29.465  25.316   7.692
 1472POPC   C1B22591  28.733  25.063   8.880
 1472POPC   C2B22592  28.654  25.213   8.443
 1472POPC   C3B22593  28.864  25.011   8.062
 1472POPC   C4B22594  29.048  25.001   7.655
 1473POPC   NC322595  11.293  26.445   9.795
 1473POPC   PO422596  11.130  25.841   9.529
 1473POPC   GL122597  11.250  25.948   9.138
 1473POPC   GL222598  11.291  26.293   9.186
 1473POPC   C1A22599  11.056  26.156   8.773
 1473POPC   D2A22600  11.088  26.347   8.412
 1473POPC   C3A22601  11.250  26.007   8.169
 1473POPC   C4A22602  11.281  25.968   7.764
 1473POPC   C1B22603  11.560  26.186   8.777
 1473POPC   C2B22604  11.596  26.336   8.350
 1473POPC   C3B22605  11.686  26.285   7.911
 1473POPC   C4B22606  11.599  26.319   7.452
 1474POPC   NC322607   6.865  20.520   9.518
 1474POPC   PO422608   6.266  20.693   9.360
 1474POPC   GL122609   6.451  20.660   9.018
 1474POPC   GL222610   6.716  20.879   9.157
 1474POPC   C1A22611   6.349  20.633   8.569
 1474POPC   D2A22612   6.584  20.381   8.287
 1474POPC   C3A22613   6.764  20.421   7.856
 1474POPC   C4A22614   6.774  20.357   7.396
 1474POPC   C1B22615   6.566  21.089   8.767
 1474POPC   C2B22616   6.643  20.987   8.330
 1474POPC   C3B22617   6.441  20.813   7.993
 1474POPC   C4B22618   6.485  20.761   7.556
 1475POPC   NC322619  28.838  20.358   9.757
 1475POPC   PO422620  29.275  20.620   9.411
 1475POPC   GL122621  28.975  20.597   9.132
 1475POPC   GL222622  28.792  20.254   9.150
 1475POPC   C1A22623  29.161  20.618   8.719
 1475POPC   D2A22624  29.040  20.634   8.315
 1475POPC   C3A22625  29.320  20.720   7.957
 1475POPC   C4A22626  29.241  20.721   7.521
 1475POPC   C1B22627  28.834  20.081   8.691
 1475POPC   C2B22628  28.778  20.169   8.225
 1475POPC   C3B22629  28.950  20.405   7.857
 1475POPC   C4B22630  29.039  20.274   7.399
 1476POPC   NC322631   6.095  37.527   9.559
 1476POPC   PO422632   5.451  37.792   9.434
 1476POPC   GL122633   5.747  37.610   9.151
 1476POPC   GL222634   5.965  37.878   9.153
 1476POPC   C1A22635   5.916  37.637   8.721
 1476POPC   D2A22636   5.689  37.527   8.379
 1476POPC   C3A22637   5.888  37.541   8.009
 1476POPC   C4A22638   5.758  37.805   7.685
 1476POPC   C1B22639   5.732  38.103   8.838
 1476POPC   C2B22640   5.654  38.052   8.389
 1476POPC   C3B22641   6.022  38.024   8.088
 1476POPC   C4B22642   6.096  38.179   7.672
 1477POPC   NC322643  41.439  29.952   9.515
 1477POPC   PO422644  42.012  29.550   9.530
 1477POPC   GL122645  41.776  29.699   9.136
 1477POPC   GL222646  41.391  29.691   9.046
 1477POPC   C1A22647  41.710  29.733   8.670
 1477POPC   D2A22648  41.887  29.867   8.312
 1477POPC   C3A22649  41.721  30.066   7.932
 1477POPC   C4A22650  41.703  29.818   7.561
 1477POPC   C1B22651  41.214  29.950   8.744
 1477POPC   C2B22652  41.349  29.915   8.330
 1477POPC   C3B22653  41.346  29.752   7.928
 1477POPC   C4B22654  41.247  30.075   7.652
 1478POPC   NC322655  26.900  13.193   9.495
 1478POPC   PO422656  26.388  12.801   9.225
 1478POPC   GL122657  26.594  13.122   9.091
 1478POPC   GL222658  26.908  12.896   9.094
 1478POPC   C1A22659  26.616  13.118   8.667
 1478POPC   D2A22660  26.869  12.896   8.374
 1478POPC   C3A22661  26.705  12.902   7.935
 1478POPC   C4A22662  26.852  12.627   7.582
 1478POPC   C1B22663  27.110  13.200   8.830
 1478POPC   C2B22664  27.333  13.208   8.443
 1478POPC   C3B22665  27.169  13.166   8.048
 1478POPC   C4B22666  27.121  13.050   7.663
 1479POPC   NC322667  28.077   0.495   9.544
 1479POPC   PO422668  28.787   0.603   9.555
 1479POPC   GL122669  28.478   0.488   9.152
 1479POPC   GL222670  28.134   0.645   9.073
 1479POPC   C1A22671  28.521   0.331   8.699
 1479POPC   D2A22672  28.709   0.230   8.274
 1479POPC   C3A22673  28.574   0.422   7.861
 1479POPC   C4A22674  28.694   0.302   7.419
 1479POPC   C1B22675  28.039   0.268   8.847
 1479POPC   C2B22676  27.874   0.205   8.407
 1479POPC   C3B22677  28.078   0.271   7.978
 1479POPC   C4B22678  28.224   0.161   7.562
 1480POPC   NC322679  33.059  31.901   9.351
 1480POPC   PO422680  33.211  32.513   9.532
 1480POPC   GL122681  32.874  32.429   9.197
 1480POPC   GL222682  33.105  32.253   8.998
 1480POPC   C1A22683  32.659  32.318   8.777
 1480POPC   D2A22684  32.889  32.199   8.430
 1480POPC   C3A22685  32.718  32.172   8.027
 1480POPC   C4A22686  33.030  32.133   7.734
 1480POPC   C1B22687  33.373  32.414   8.737
 1480POPC   C2B22688  33.449  32.724   8.474
 1480POPC   C3B22689  33.286  32.541   8.133
 1480POPC   C4B22690  33.387  32.491   7.695
 1481POPC   NC322691   8.623  14.719   9.567
 1481POPC   PO422692   9.202  14.234   9.554
 1481POPC   GL122693   8.948  14.402   9.225
 1481POPC   GL222694   8.753  14.147   9.030
 1481POPC   C1A22695   9.122  14.574   8.846
 1481POPC   D2A22696   8.933  14.731   8.495
 1481POPC   C3A22697   9.145  14.717   8.122
 1481POPC   C4A22698   9.152  14.455   7.767
 1481POPC   C1B22699   9.113  14.055   8.800
 1481POPC   C2B22700   9.064  14.216   8.404
 1481POPC   C3B22701   9.045  14.022   8.011
 1481POPC   C4B22702   9.123  13.974   7.581
 1482POPC   NC322703   7.500   6.634   9.491
 1482POPC   PO422704   6.865   6.562   9.276
 1482POPC   GL122705   7.194   6.548   8.994
 1482POPC   GL222706   7.533   6.442   9.034
 1482POPC   C1A22707   7.371   6.837   8.711
 1482POPC   D2A22708   7.234   7.112   8.376
 1482POPC   C3A22709   7.407   6.899   8.023
 1482POPC   C4A22710   7.441   6.598   7.707
 1482POPC   C1B22711   7.771   6.468   8.709
 1482POPC   C2B22712   7.616   6.532   8.329
 1482POPC   C3B22713   7.687   6.290   8.006
 1482POPC   C4B22714   7.852   6.301   7.598
 1483POPC   NC322715  41.675  13.286   9.612
 1483POPC   PO422716  41.721  13.948   9.645
 1483POPC   GL122717  41.557  13.897   9.172
 1483POPC   GL222718  41.815  13.683   9.053
 1483POPC   C1A22719  41.357  13.755   8.730
 1483POPC   D2A22720  41.306  13.708   8.234
 1483POPC   C3A22721  41.673  13.470   8.079
 1483POPC   C4A22722  42.089  13.408   7.950
 1483POPC   C1B22723  41.815  14.017   8.736
 1483POPC   C2B22724  41.642  14.060   8.391
 1483POPC   C3B22725  41.798  13.964   8.015
 1483POPC   C4B22726  41.533  13.814   7.738
 1484POPC   NC322727  39.474  29.912   9.405
 1484POPC   PO422728  39.062  29.460   9.564
 1484POPC   GL122729  39.062  29.713   9.168
 1484POPC   GL222730  38.884  30.016   9.112
 1484POPC   C1A22731  39.107  29.629   8.735
 1484POPC   D2A22732  39.125  29.877   8.355
 1484POPC   C3A22733  39.144  29.705   7.923
 1484POPC   C4A22734  39.487  29.810   7.630
 1484POPC   C1B22735  39.170  30.149   8.804
 1484POPC   C2B22736  39.369  30.352   8.459
 1484POPC   C3B22737  39.411  30.157   8.041
 1484POPC   C4B22738  39.604  30.290   7.709
 1485POPC   NC322739  24.457   7.781   9.577
 1485POPC   PO422740  24.824   8.210   9.661
 1485POPC   GL122741  24.717   8.065   9.237
 1485POPC   GL222742  24.954   7.942   9.028
 1485POPC   C1A22743  24.450   7.982   8.858
 1485POPC   D2A22744  24.518   7.932   8.389
 1485POPC   C3A22745  24.474   8.204   8.032
 1485POPC   C4A22746  24.447   8.036   7.620
 1485POPC   C1B22747  24.882   8.175   8.648
 1485POPC   C2B22748  24.953   8.264   8.195
 1485POPC   C3B22749  24.899   8.255   7.722
 1485POPC   C4B22750  25.043   8.540   7.349
 1486POPC   NC322751  28.217  24.715   9.548
 1486POPC   PO422752  28.180  24.089   9.534
 1486POPC   GL122753  28.209  24.294   9.157
 1486POPC   GL222754  28.348  24.574   9.079
 1486POPC   C1A22755  28.217  24.210   8.738
 1486POPC   D2A22756  28.249  24.455   8.379
 1486POPC   C3A22757  28.140  24.224   8.034
 1486POPC   C4A22758  27.973  24.177   7.643
 1486POPC   C1B22759  28.673  24.526   8.821
 1486POPC   C2B22760  28.749  24.701   8.459
 1486POPC   C3B22761  28.688  24.522   8.073
 1486POPC   C4B22762  28.655  24.644   7.677
 1487POPC   NC322763  17.902  43.425   9.368
 1487POPC   PO422764  17.412  43.955   9.505
 1487POPC   GL122765  17.560  43.882   9.101
 1487POPC   GL222766  17.594  44.221   9.024
 1487POPC   C1A22767  17.805  43.673   8.769
 1487POPC   D2A22768  17.941  43.449   8.391
 1487POPC   C3A22769  17.777  43.648   7.994
 1487POPC   C4A22770  17.641  43.870   7.625
 1487POPC   C1B22771  17.541  44.113   8.628
 1487POPC   C2B22772  17.433  43.951   8.247
 1487POPC   C3B22773  17.343  44.172   7.892
 1487POPC   C4B22774  17.189  44.051   7.483
 1488POPC   NC322775  38.621  43.460   9.549
 1488POPC   PO422776  38.162  44.012   9.554
 1488POPC   GL122777  38.518  43.939   9.242
 1488POPC   GL222778  38.543  43.594   9.076
 1488POPC   C1A22779  38.658  44.017   8.808
 1488POPC   D2A22780  38.525  43.945   8.364
 1488POPC   C3A22781  38.671  44.182   7.998
 1488POPC   C4A22782  38.718  43.956   7.594
 1488POPC   C1B22783  38.316  43.630   8.718
 1488POPC   C2B22784  38.298  43.436   8.313
 1488POPC   C3B22785  38.465  43.603   7.924
 1488POPC   C4B22786  38.275  43.712   7.539
 1489POPC   NC322787  29.488   4.169   9.468
 1489POPC   PO422788  28.861   4.010   9.477
 1489POPC   GL122789  29.100   4.259   9.136
 1489POPC   GL222790  29.407   4.503   9.098
 1489POPC   C1A22791  29.132   4.280   8.685
 1489POPC   D2A22792  29.259   4.105   8.267
 1489POPC   C3A22793  29.093   4.383   7.955
 1489POPC   C4A22794  28.828   4.350   7.596
 1489POPC   C1B22795  29.535   4.686   8.708
 1489POPC   C2B22796  29.522   4.554   8.265
 1489POPC   C3B22797  29.452   4.749   7.852
 1489POPC   C4B22798  29.315   4.939   7.443
 1490POPC   NC322799  25.377   4.758   9.658
 1490POPC   PO422800  25.234   4.129   9.425
 1490POPC   GL122801  25.143   4.406   9.114
 1490POPC   GL222802  25.439   4.563   8.971
 1490POPC   C1A22803  24.994   4.488   8.714
 1490POPC   D2A22804  24.802   4.337   8.363
 1490POPC   C3A22805  24.997   4.338   7.956
 1490POPC   C4A22806  24.995   4.563   7.538
 1490POPC   C1B22807  25.453   4.205   8.694
 1490POPC   C2B22808  25.491   4.001   8.301
 1490POPC   C3B22809  25.659   4.211   7.953
 1490POPC   C4B22810  25.428   4.578   7.829
 1491POPC   NC322811  36.272  43.568   9.541
 1491POPC   PO422812  35.855  43.000   9.482
 1491POPC   GL122813  36.065  42.980   9.095
 1491POPC   GL222814  36.197  43.274   9.142
 1491POPC   C1A22815  36.077  43.078   8.654
 1491POPC   D2A22816  36.288  42.921   8.279
 1491POPC   C3A22817  36.039  42.960   7.947
 1491POPC   C4A22818  36.061  43.074   7.533
 1491POPC   C1B22819  36.409  43.456   8.822
 1491POPC   C2B22820  36.505  43.396   8.417
 1491POPC   C3B22821  36.427  43.421   7.987
 1491POPC   C4B22822  36.044  43.590   7.778
 1492POPC   NC322823  33.686  35.717   9.345
 1492POPC   PO422824  33.851  35.032   9.333
 1492POPC   GL122825  33.664  35.271   9.039
 1492POPC   GL222826  33.453  35.539   8.915
 1492POPC   C1A22827  33.722  35.217   8.631
 1492POPC   D2A22828  33.670  35.407   8.278
 1492POPC   C3A22829  33.800  35.101   8.021
 1492POPC   C4A22830  33.674  35.256   7.633
 1492POPC   C1B22831  33.814  35.733   8.702
 1492POPC   C2B22832  33.953  35.883   8.317
 1492POPC   C3B22833  33.810  35.772   7.931
 1492POPC   C4B22834  34.093  35.464   7.807
 1493POPC   NC322835  13.197  26.896   9.467
 1493POPC   PO422836  12.467  26.798   9.565
 1493POPC   GL122837  12.713  26.883   9.208
 1493POPC   GL222838  12.865  27.214   9.211
 1493POPC   C1A22839  12.722  26.760   8.793
 1493POPC   D2A22840  12.560  26.676   8.413
 1493POPC   C3A22841  12.825  26.671   8.076
 1493POPC   C4A22842  12.672  26.893   7.709
 1493POPC   C1B22843  13.102  27.089   8.834
 1493POPC   C2B22844  12.902  27.112   8.404
 1493POPC   C3B22845  13.044  27.127   7.960
 1493POPC   C4B22846  13.119  27.153   7.492
 1494POPC   NC322847   3.672  43.471   9.543
 1494POPC   PO422848   3.731  42.770   9.477
 1494POPC   GL122849   3.531  43.064   9.210
 1494POPC   GL222850   3.844  43.202   9.128
 1494POPC   C1A22851   3.405  43.199   8.770
 1494POPC   D2A22852   3.398  43.004   8.327
 1494POPC   C3A22853   3.260  43.226   7.936
 1494POPC   C4A22854   3.384  43.081   7.513
 1494POPC   C1B22855   3.893  43.462   8.774
 1494POPC   C2B22856   3.691  43.434   8.392
 1494POPC   C3B22857   3.773  43.238   8.032
 1494POPC   C4B22858   3.767  43.365   7.640
 1495POPC   NC322859  31.109  44.117   9.316
 1495POPC   PO422860  31.230  43.622   9.749
 1495POPC   GL122861  31.399  43.679   9.215
 1495POPC   GL222862  31.754  43.539   9.131
 1495POPC   C1A22863  31.642  43.943   8.841
 1495POPC   D2A22864  31.487  44.116   8.482
 1495POPC   C3A22865  31.481  44.067   8.038
 1495POPC   C4A22866  31.146  43.974   7.756
 1495POPC   C1B22867  31.818  43.518   8.666
 1495POPC   C2B22868  31.664  43.634   8.255
 1495POPC   C3B22869  31.742  43.614   7.811
 1495POPC   C4B22870  31.738  43.563   7.304
 1496POPC   NC322871  17.677  13.770   9.639
 1496POPC   PO422872  17.155  13.884   9.397
 1496POPC   GL122873  17.520  13.744   9.125
 1496POPC   GL222874  17.814  13.948   9.179
 1496POPC   C1A22875  17.688  13.538   8.730
 1496POPC   D2A22876  17.900  13.462   8.316
 1496POPC   C3A22877  17.631  13.512   7.948
 1496POPC   C4A22878  17.531  13.621   7.511
 1496POPC   C1B22879  17.743  14.047   8.749
 1496POPC   C2B22880  17.613  13.890   8.332
 1496POPC   C3B22881  17.602  14.007   7.889
 1496POPC   C4B22882  17.650  14.282   7.549
 1497POPC   NC322883  11.590  15.576   9.236
 1497POPC   PO422884  11.251  16.096   9.546
 1497POPC   GL122885  11.146  15.995   9.151
 1497POPC   GL222886  11.112  15.661   9.111
 1497POPC   C1A22887  11.019  16.182   8.780
 1497POPC   D2A22888  11.300  16.209   8.439
 1497POPC   C3A22889  11.164  16.061   8.102
 1497POPC   C4A22890  11.334  16.071   7.706
 1497POPC   C1B22891  11.222  15.736   8.693
 1497POPC   C2B22892  11.064  15.598   8.325
 1497POPC   C3B22893  11.254  15.595   7.927
 1497POPC   C4B22894  11.496  15.576   7.567
 1498POPC   NC322895  43.734  33.303   9.516
 1498POPC   PO422896  44.058  33.929   9.563
 1498POPC   GL122897  43.863  33.947   9.134
 1498POPC   GL222898  43.530  34.144   9.088
 1498POPC   C1A22899  43.977  33.688   8.723
 1498POPC   D2A22900  43.850  33.692   8.287
 1498POPC   C3A22901  43.906  33.319   8.012
 1498POPC   C4A22902  44.044  33.347   7.557
 1498POPC   C1B22903  43.743  34.210   8.694
 1498POPC   C2B22904  43.719  34.178   8.247
 1498POPC   C3B22905  43.894  34.191   7.839
 1498POPC   C4B22906  43.791  34.362   7.429
 1499POPC   NC322907  44.237   0.103   9.857
 1499POPC   PO422908  43.695   0.365   9.573
 1499POPC   GL122909  43.774   0.524   9.165
 1499POPC   GL222910  44.083   0.437   9.083
 1499POPC   C1A22911  43.592   0.485   8.751
 1499POPC   D2A22912  43.469   0.305   8.356
 1499POPC   C3A22913  43.608   0.492   7.974
 1499POPC   C4A22914  43.850   0.347   7.577
 1499POPC   C1B22915  44.121   0.654   8.748
 1499POPC   C2B22916  43.948   0.567   8.363
 1499POPC   C3B22917  44.097   0.611   7.941
 1499POPC   C4B22918  44.423   0.694   7.645
 1500POPC   NC322919   5.944  12.562   9.590
 1500POPC   PO422920   5.650  11.906   9.438
 1500POPC   GL122921   5.934  12.207   9.226
 1500POPC   GL222922   5.666  12.422   9.113
 1500POPC   C1A22923   6.140  12.268   8.817
 1500POPC   D2A22924   6.096  11.949   8.465
 1500POPC   C3A22925   6.176  12.128   8.069
 1500POPC   C4A22926   6.025  12.207   7.632
 1500POPC   C1B22927   5.684  12.050   8.792
 1500POPC   C2B22928   5.517  12.039   8.382
 1500POPC   C3B22929   5.668  12.156   7.994
 1500POPC   C4B22930   5.608  12.474   7.688
 1501POPC   NC322931  33.153  11.406   9.606
 1501POPC   PO422932  32.660  10.972   9.521
 1501POPC   GL122933  32.902  11.208   9.217
 1501POPC   GL222934  32.817  11.527   9.158
 1501POPC   C1A22935  33.111  11.191   8.838
 1501POPC   D2A22936  32.955  11.116   8.435
 1501POPC   C3A22937  33.210  11.156   8.100
 1501POPC   C4A22938  33.187  10.968   7.744
 1501POPC   C1B22939  32.701  11.479   8.761
 1501POPC   C2B22940  32.838  11.609   8.365
 1501POPC   C3B22941  32.741  11.356   8.014
 1501POPC   C4B22942  32.916  11.385   7.618
 1502POPC   NC322943  23.908  37.111   9.381
 1502POPC   PO422944  23.841  37.773   9.523
 1502POPC   GL122945  23.651  37.776   9.145
 1502POPC   GL222946  23.757  37.479   9.011
 1502POPC   C1A22947  23.701  37.873   8.698
 1502POPC   D2A22948  23.808  37.610   8.384
 1502POPC   C3A22949  23.571  37.706   8.048
 1502POPC   C4A22950  23.441  37.786   7.657
 1502POPC   C1B22951  24.123  37.388   8.741
 1502POPC   C2B22952  24.223  37.306   8.294
 1502POPC   C3B22953  24.139  37.522   7.910
 1502POPC   C4B22954  23.854  37.504   7.548
 1503POPC   NC322955  35.660  31.684   9.411
 1503POPC   PO422956  36.091  31.242   9.596
 1503POPC   GL122957  36.300  31.350   9.181
 1503POPC   GL222958  36.075  31.227   8.967
 1503POPC   C1A22959  36.366  31.645   8.799
 1503POPC   D2A22960  36.276  31.903   8.385
 1503POPC   C3A22961  36.318  31.729   7.933
 1503POPC   C4A22962  36.069  31.741   7.515
 1503POPC   C1B22963  36.466  31.132   8.717
 1503POPC   C2B22964  36.525  30.999   8.300
 1503POPC   C3B22965  36.263  31.017   7.924
 1503POPC   C4B22966  35.946  31.336   7.793
 1504POPC   NC322967   2.342   4.991   9.747
 1504POPC   PO422968   2.094   4.393   9.748
 1504POPC   GL122969   1.998   4.434   9.278
 1504POPC   GL222970   2.273   4.692   9.172
 1504POPC   C1A22971   1.834   4.338   8.819
 1504POPC   D2A22972   1.823   4.599   8.430
 1504POPC   C3A22973   1.903   4.485   8.012
 1504POPC   C4A22974   1.676   4.114   7.917
 1504POPC   C1B22975   2.330   4.376   8.808
 1504POPC   C2B22976   2.192   4.231   8.355
 1504POPC   C3B22977   2.229   4.119   7.869
 1504POPC   C4B22978   2.328   4.199   7.413
 1505POPC   NC322979   9.597  35.141   9.549
 1505POPC   PO422980   9.954  35.619   9.233
 1505POPC   GL122981   9.789  35.247   9.089
 1505POPC   GL222982   9.984  34.949   9.198
 1505POPC   C1A22983   9.632  35.254   8.684
 1505POPC   D2A22984   9.846  35.456   8.336
 1505POPC   C3A22985   9.728  35.363   7.907
 1505POPC   C4A22986   9.997  35.566   7.596
 1505POPC   C1B22987   9.883  34.836   8.787
 1505POPC   C2B22988   9.966  34.939   8.337
 1505POPC   C3B22989   9.893  34.873   7.864
 1505POPC   C4B22990   9.785  35.097   7.447
 1506POPC   NC322991  38.455  11.736   9.717
 1506POPC   PO422992  38.238  12.107   9.255
 1506POPC   GL122993  38.598  12.044   9.096
 1506POPC   GL222994  38.716  12.347   8.940
 1506POPC   C1A22995  38.589  11.795   8.759
 1506POPC   D2A22996  38.820  11.837   8.417
 1506POPC   C3A22997  38.614  11.806   8.042
 1506POPC   C4A22998  38.629  11.916   7.637
 1506POPC   C1B22999  38.421  12.262   8.602
 1506POPC   C2B23000  38.233  12.081   8.253
 1506POPC   C3B23001  38.273  12.250   7.862
 1506POPC   C4B23002  38.063  12.175   7.484
 1507POPC   NC323003   1.015  22.036   9.473
 1507POPC   PO423004   1.312  22.660   9.603
 1507POPC   GL123005   1.200  22.381   9.174
 1507POPC   GL223006   1.152  22.033   8.994
 1507POPC   C1A23007   1.487  22.316   8.779
 1507POPC   D2A23008   1.468  22.570   8.406
 1507POPC   C3A23009   1.281  22.361   8.058
 1507POPC   C4A23010   1.318  22.296   7.629
 1507POPC   C1B23011   1.021  22.117   8.593
 1507POPC   C2B23012   1.083  21.891   8.248
 1507POPC   C3B23013   1.039  21.920   7.848
 1507POPC   C4B23014   1.242  21.819   7.464
 1508POPC   NC323015   1.934  10.968   9.412
 1508POPC   PO423016   1.674  11.598   9.633
 1508POPC   GL123017   1.864  11.502   9.185
 1508POPC   GL223018   2.157  11.682   9.014
 1508POPC   C1A23019   1.926  11.271   8.765
 1508POPC   D2A23020   1.808  11.286   8.329
 1508POPC   C3A23021   2.031  11.133   7.953
 1508POPC   C4A23022   1.982  10.852   7.579
 1508POPC   C1B23023   2.417  11.470   8.713
 1508POPC   C2B23024   2.349  11.329   8.308
 1508POPC   C3B23025   2.395  11.518   7.911
 1508POPC   C4B23026   2.332  11.650   7.448
 1509POPC   NC323027   3.872  17.284   9.508
 1509POPC   PO423028   4.507  17.523   9.521
 1509POPC   GL123029   4.540  17.707   9.128
 1509POPC   GL223030   4.186  17.742   9.067
 1509POPC   C1A23031   4.513  17.460   8.762
 1509POPC   D2A23032   4.737  17.169   8.550
 1509POPC   C3A23033   4.653  17.164   8.109
 1509POPC   C4A23034   4.510  17.152   7.692
 1509POPC   C1B23035   4.026  17.461   8.702
 1509POPC   C2B23036   4.189  17.606   8.297
 1509POPC   C3B23037   4.316  17.616   7.849
 1509POPC   C4B23038   4.109  17.427   7.528
 1510POPC   NC323039   5.464  30.039   9.516
 1510POPC   PO423040   6.105  29.757   9.475
 1510POPC   GL123041   5.907  29.715   9.079
 1510POPC   GL223042   5.799  30.042   9.127
 1510POPC   C1A23043   5.953  29.864   8.621
 1510POPC   D2A23044   6.265  30.072   8.321
 1510POPC   C3A23045   6.223  29.973   7.871
 1510POPC   C4A23046   5.946  29.612   7.918
 1510POPC   C1B23047   5.740  30.298   8.790
 1510POPC   C2B23048   5.693  30.270   8.350
 1510POPC   C3B23049   5.941  30.362   8.016
 1510POPC   C4B23050   5.960  30.299   7.545
 1511POPC   NC323051  38.445  38.185   9.504
 1511POPC   PO423052  38.264  38.899   9.489
 1511POPC   GL123053  38.470  38.831   9.106
 1511POPC   GL223054  38.671  38.519   9.153
 1511POPC   C1A23055  38.300  38.646   8.732
 1511POPC   D2A23056  38.218  38.691   8.325
 1511POPC   C3A23057  38.522  38.733   8.041
 1511POPC   C4A23058  38.345  38.616   7.667
 1511POPC   C1B23059  38.800  38.632   8.746
 1511POPC   C2B23060  38.629  38.387   8.392
 1511POPC   C3B23061  38.475  38.221   7.987
 1511POPC   C4B23062  38.707  38.207   7.591
 1512POPC   NC323063  36.615  10.954   9.562
 1512POPC   PO423064  37.092  10.453   9.440
 1512POPC   GL123065  36.800  10.564   9.136
 1512POPC   GL223066  36.571  10.271   9.130
 1512POPC   C1A23067  36.960  10.740   8.735
 1512POPC   D2A23068  37.308  10.717   8.468
 1512POPC   C3A23069  37.148  10.615   8.082
 1512POPC   C4A23070  37.100  10.673   7.655
 1512POPC   C1B23071  36.754  10.276   8.691
 1512POPC   C2B23072  36.906  10.149   8.280
 1512POPC   C3B23073  36.853  10.259   7.842
 1512POPC   C4B23074  36.609  10.652   7.727
 1513POPC   NC323075   6.880  34.104   9.432
 1513POPC   PO423076   6.625  34.710   9.544
 1513POPC   GL123077   6.649  34.465   9.159
 1513POPC   GL223078   6.999  34.547   9.191
 1513POPC   C1A23079   6.644  34.265   8.707
 1513POPC   D2A23080   6.827  34.323   8.263
 1513POPC   C3A23081   6.562  34.498   7.902
 1513POPC   C4A23082   6.276  34.602   7.529
 1513POPC   C1B23083   6.968  34.649   8.784
 1513POPC   C2B23084   7.166  34.725   8.423
 1513POPC   C3B23085   7.111  34.703   8.011
 1513POPC   C4B23086   7.039  34.333   7.790
 1514POPC   NC323087  21.410  31.219   9.861
 1514POPC   PO423088  21.653  31.595   9.344
 1514POPC   GL123089  21.607  31.689   9.013
 1514POPC   GL223090  21.549  32.041   9.089
 1514POPC   C1A23091  21.433  31.382   8.740
 1514POPC   D2A23092  21.228  31.367   8.349
 1514POPC   C3A23093  21.492  31.300   8.013
 1514POPC   C4A23094  21.222  31.282   7.693
 1514POPC   C1B23095  21.373  31.959   8.683
 1514POPC   C2B23096  21.605  31.726   8.394
 1514POPC   C3B23097  21.758  31.753   7.998
 1514POPC   C4B23098  21.558  31.646   7.609
 1515POPC   NC323099  15.571   8.661   9.299
 1515POPC   PO423100  16.145   9.009   9.512
 1515POPC   GL123101  15.893   9.072   9.146
 1515POPC   GL223102  16.084   8.766   9.041
 1515POPC   C1A23103  15.735   9.129   8.686
 1515POPC   D2A23104  15.728   8.917   8.244
 1515POPC   C3A23105  16.113   8.862   7.942
 1515POPC   C4A23106  15.859   9.066   7.590
 1515POPC   C1B23107  15.887   8.641   8.651
 1515POPC   C2B23108  15.917   8.442   8.227
 1515POPC   C3B23109  15.739   8.568   7.804
 1515POPC   C4B23110  16.016   8.639   7.414
 1516POPC   NC323111  39.106  22.452   9.338
 1516POPC   PO423112  38.984  21.806   9.366
 1516POPC   GL123113  39.260  22.015   9.091
 1516POPC   GL223114  39.554  22.195   9.239
 1516POPC   C1A23115  39.107  22.139   8.716
 1516POPC   D2A23116  39.166  22.451   8.451
 1516POPC   C3A23117  39.160  22.266   8.061
 1516POPC   C4A23118  38.893  22.362   7.744
 1516POPC   C1B23119  39.528  22.428   8.835
 1516POPC   C2B23120  39.604  22.700   8.493
 1516POPC   C3B23121  39.726  22.671   8.081
 1516POPC   C4B23122  39.465  22.561   7.759
 1517POPC   NC323123  28.641  37.030   9.399
 1517POPC   PO423124  28.092  36.682   9.610
 1517POPC   GL123125  28.261  36.755   9.170
 1517POPC   GL223126  28.593  36.682   9.045
 1517POPC   C1A23127  28.109  36.886   8.751
 1517POPC   D2A23128  27.919  37.021   8.351
 1517POPC   C3A23129  28.052  36.929   7.918
 1517POPC   C4A23130  27.989  36.892   7.436
 1517POPC   C1B23131  28.614  36.971   8.700
 1517POPC   C2B23132  28.450  36.930   8.305
 1517POPC   C3B23133  28.480  36.650   8.002
 1517POPC   C4B23134  28.210  36.482   7.726
 1518POPC   NC323135   2.707  43.194   9.604
 1518POPC   PO423136   2.805  42.751   9.144
 1518POPC   GL123137   2.697  43.181   9.074
 1518POPC   GL223138   2.950  43.454   9.165
 1518POPC   C1A23139   2.642  43.148   8.645
 1518POPC   D2A23140   2.912  43.168   8.333
 1518POPC   C3A23141   2.837  42.899   7.991
 1518POPC   C4A23142   3.166  42.669   7.771
 1518POPC   C1B23143   2.756  43.614   8.788
 1518POPC   C2B23144   2.632  43.603   8.366
 1518POPC   C3B23145   2.740  43.448   7.957
 1518POPC   C4B23146   2.477  43.200   7.750
 1519POPC   NC323147   2.298  44.653   9.483
 1519POPC   PO423148   2.987  44.388   9.446
 1519POPC   GL123149   2.722  44.541   9.113
 1519POPC   GL223150   2.602  44.896   9.092
 1519POPC   C1A23151   2.622  44.612   8.674
 1519POPC   D2A23152   2.576  44.473   8.262
 1519POPC   C3A23153   2.976  44.439   8.104
 1519POPC   C4A23154   2.959  44.284   7.729
 1519POPC   C1B23155   2.363   0.051   8.745
 1519POPC   C2B23156   2.258  44.854   8.359
 1519POPC   C3B23157   2.359  44.991   7.988
 1519POPC   C4B23158   2.781  44.845   7.831
 1520POPC   NC323159   4.053  24.743   9.601
 1520POPC   PO423160   4.679  24.344   9.573
 1520POPC   GL123161   4.538  24.271   9.172
 1520POPC   GL223162   4.190  24.383   9.226
 1520POPC   C1A23163   4.632  24.322   8.706
 1520POPC   D2A23164   4.359  24.337   8.352
 1520POPC   C3A23165   4.463  24.353   7.957
 1520POPC   C4A23166   4.385  24.655   7.699
 1520POPC   C1B23167   4.117  24.334   8.806
 1520POPC   C2B23168   3.844  24.453   8.470
 1520POPC   C3B23169   3.975  24.560   8.049
 1520POPC   C4B23170   4.011  24.235   7.743
 1521POPC   NC323171  15.663  18.795   9.535
 1521POPC   PO423172  15.993  19.423   9.593
 1521POPC   GL123173  16.082  19.226   9.202
 1521POPC   GL223174  15.823  19.044   9.130
 1521POPC   C1A23175  16.203  19.005   8.792
 1521POPC   D2A23176  16.048  18.877   8.372
 1521POPC   C3A23177  16.244  19.009   7.990
 1521POPC   C4A23178  16.035  19.119   7.613
 1521POPC   C1B23179  15.704  19.373   8.870
 1521POPC   C2B23180  15.782  19.357   8.466
 1521POPC   C3B23181  15.785  19.239   8.057
 1521POPC   C4B23182  15.597  19.433   7.728
 1522POPC   NC323183  33.830  39.734   9.543
 1522POPC   PO423184  33.947  40.318   9.339
 1522POPC   GL123185  33.799  40.137   9.038
 1522POPC   GL223186  33.551  39.948   9.086
 1522POPC   C1A23187  33.822  39.912   8.656
 1522POPC   D2A23188  34.172  39.736   8.450
 1522POPC   C3A23189  34.079  39.919   8.093
 1522POPC   C4A23190  33.830  39.823   7.752
 1522POPC   C1B23191  33.422  40.241   8.714
 1522POPC   C2B23192  33.603  40.286   8.293
 1522POPC   C3B23193  33.471  40.179   7.873
 1522POPC   C4B23194  33.508  40.019   7.426
 1523POPC   NC323195  28.322  10.102   9.506
 1523POPC   PO423196  28.606  10.702   9.661
 1523POPC   GL123197  28.503  10.665   9.225
 1523POPC   GL223198  28.131  10.574   9.202
 1523POPC   C1A23199  28.524  10.708   8.766
 1523POPC   D2A23200  28.764  10.626   8.374
 1523POPC   C3A23201  28.534  10.691   7.963
 1523POPC   C4A23202  28.140  10.750   7.729
 1523POPC   C1B23203  28.089  10.409   8.756
 1523POPC   C2B23204  28.239  10.492   8.343
 1523POPC   C3B23205  28.231  10.257   7.969
 1523POPC   C4B23206  28.032  10.222   7.549
 1524POPC   NC323207  27.221   0.078   9.673
 1524POPC   PO423208  27.605  44.515   9.447
 1524POPC   GL123209  27.623  44.695   9.073
 1524POPC   GL223210  27.779  44.981   9.155
 1524POPC   C1A23211  27.800  44.689   8.667
 1524POPC   D2A23212  27.678  44.491   8.298
 1524POPC   C3A23213  27.682  44.646   7.926
 1524POPC   C4A23214  27.918  44.294   7.745
 1524POPC   C1B23215  27.527   0.117   8.788
 1524POPC   C2B23216  27.342  44.845   8.491
 1524POPC   C3B23217  27.205  44.668   8.127
 1524POPC   C4B23218  27.196  44.770   7.738
 1525POPC   NC323219  26.365   4.802   9.503
 1525POPC   PO423220  25.701   4.789   9.337
 1525POPC   GL123221  26.030   5.046   9.175
 1525POPC   GL223222  25.958   5.387   9.024
 1525POPC   C1A23223  26.255   4.966   8.803
 1525POPC   D2A23224  26.190   5.154   8.391
 1525POPC   C3A23225  26.291   5.007   7.983
 1525POPC   C4A23226  26.199   5.335   7.665
 1525POPC   C1B23227  25.765   5.109   8.707
 1525POPC   C2B23228  25.686   5.016   8.323
 1525POPC   C3B23229  25.804   5.176   7.951
 1525POPC   C4B23230  25.803   5.017   7.544
 1526POPC   NC323231  36.164  21.838   9.479
 1526POPC   PO423232  35.871  22.424   9.397
 1526POPC   GL123233  35.984  22.100   9.051
 1526POPC   GL223234  36.337  21.942   9.014
 1526POPC   C1A23235  36.111  22.135   8.607
 1526POPC   D2A23236  36.154  22.407   8.261
 1526POPC   C3A23237  35.979  22.191   7.911
 1526POPC   C4A23238  36.025  22.125   7.470
 1526POPC   C1B23239  36.639  21.836   8.680
 1526POPC   C2B23240  36.675  22.031   8.265
 1526POPC   C3B23241  36.475  22.000   7.852
 1526POPC   C4B23242  36.408  21.804   7.425
 1527POPC   NC323243   1.226  40.963   9.535
 1527POPC   PO423244   0.603  40.830   9.461
 1527POPC   GL123245   0.931  40.870   9.127
 1527POPC   GL223246   1.226  40.638   9.133
 1527POPC   C1A23247   1.113  40.935   8.728
 1527POPC   D2A23248   1.294  40.910   8.337
 1527POPC   C3A23249   0.949  41.078   8.079
 1527POPC   C4A23250   0.994  41.184   7.668
 1527POPC   C1B23251   1.336  40.407   8.751
 1527POPC   C2B23252   1.220  40.398   8.347
 1527POPC   C3B23253   1.284  40.351   7.934
 1527POPC   C4B23254   1.254  40.762   7.758
 1528POPC   NC323255   8.814  11.179   9.414
 1528POPC   PO423256   9.331  11.659   9.325
 1528POPC   GL123257   9.082  11.452   9.061
 1528POPC   GL223258   8.728  11.498   9.040
 1528POPC   C1A23259   9.025  11.130   8.775
 1528POPC   D2A23260   9.188  11.001   8.387
 1528POPC   C3A23261   9.026  11.112   7.998
 1528POPC   C4A23262   9.298  11.023   7.675
 1528POPC   C1B23263   8.839  11.585   8.623
 1528POPC   C2B23264   9.061  11.559   8.244
 1528POPC   C3B23265   8.809  11.581   7.870
 1528POPC   C4B23266   8.588  11.438   7.480
 1529POPC   NC323267  10.921  19.151   9.464
 1529POPC   PO423268  11.647  19.313   9.483
 1529POPC   GL123269  11.428  19.183   9.133
 1529POPC   GL223270  11.139  19.381   9.081
 1529POPC   C1A23271  11.250  18.981   8.785
 1529POPC   D2A23272  10.930  18.904   8.459
 1529POPC   C3A23273  11.100  18.897   8.042
 1529POPC   C4A23274  11.233  18.928   7.620
 1529POPC   C1B23275  10.997  19.395   8.678
 1529POPC   C2B23276  11.209  19.348   8.275
 1529POPC   C3B23277  11.001  19.389   7.882
 1529POPC   C4B23278  10.790  19.642   7.573
 1530POPC   NC323279  35.952  32.760   9.433
 1530POPC   PO423280  36.463  33.197   9.487
 1530POPC   GL123281  36.261  33.037   9.152
 1530POPC   GL223282  35.858  33.094   9.098
 1530POPC   C1A23283  36.167  32.802   8.797
 1530POPC   D2A23284  35.960  32.755   8.397
 1530POPC   C3A23285  36.130  32.930   8.037
 1530POPC   C4A23286  36.302  32.962   7.644
 1530POPC   C1B23287  35.692  33.033   8.731
 1530POPC   C2B23288  35.832  33.275   8.392
 1530POPC   C3B23289  35.718  33.216   8.007
 1530POPC   C4B23290  35.943  33.312   7.657
 1531POPC   NC323291  22.624  22.306   9.529
 1531POPC   PO423292  22.927  22.452   8.994
 1531POPC   GL123293  22.876  21.988   9.076
 1531POPC   GL223294  23.216  21.843   9.009
 1531POPC   C1A23295  22.705  21.884   8.712
 1531POPC   D2A23296  22.681  22.276   8.432
 1531POPC   C3A23297  22.765  22.234   7.995
 1531POPC   C4A23298  22.463  22.226   7.658
 1531POPC   C1B23299  23.197  21.998   8.583
 1531POPC   C2B23300  23.367  21.932   8.176
 1531POPC   C3B23301  23.127  21.914   7.803
 1531POPC   C4B23302  22.952  22.174   7.494
 1532POPC   NC323303  28.723   8.463   9.533
 1532POPC   PO423304  28.175   8.099   9.642
 1532POPC   GL123305  28.340   8.206   9.233
 1532POPC   GL223306  28.675   8.072   9.165
 1532POPC   C1A23307  28.279   8.126   8.779
 1532POPC   D2A23308  28.158   8.131   8.328
 1532POPC   C3A23309  28.113   7.907   7.951
 1532POPC   C4A23310  28.138   8.269   7.716
 1532POPC   C1B23311  28.748   8.338   8.793
 1532POPC   C2B23312  28.590   8.434   8.380
 1532POPC   C3B23313  28.576   8.155   8.014
 1532POPC   C4B23314  28.621   8.188   7.585
 1533POPC   NC323315  24.438  13.026   9.500
 1533POPC   PO423316  24.038  13.445   9.168
 1533POPC   GL123317  24.234  13.065   8.961
 1533POPC   GL223318  24.427  12.767   9.060
 1533POPC   C1A23319  24.274  12.945   8.533
 1533POPC   D2A23320  24.511  13.069   8.180
 1533POPC   C3A23321  24.400  12.941   7.758
 1533POPC   C4A23322  24.596  12.870   7.357
 1533POPC   C1B23323  24.635  12.616   8.660
 1533POPC   C2B23324  24.958  12.751   8.357
 1533POPC   C3B23325  24.837  12.728   7.937
 1533POPC   C4B23326  24.610  12.469   7.669
 1534POPC   NC323327   6.067   0.505   9.530
 1534POPC   PO423328   5.444   0.159   9.545
 1534POPC   GL123329   5.751   0.333   9.164
 1534POPC   GL223330   5.839   0.706   9.141
 1534POPC   C1A23331   5.822   0.480   8.694
 1534POPC   D2A23332   5.823   0.352   8.259
 1534POPC   C3A23333   5.687   0.612   7.905
 1534POPC   C4A23334   5.528   0.517   7.504
 1534POPC   C1B23335   6.236   0.706   8.873
 1534POPC   C2B23336   6.239   0.670   8.401
 1534POPC   C3B23337   6.190   0.558   7.946
 1534POPC   C4B23338   6.380   0.720   7.583
 1535POPC   NC323339   0.430  29.794   9.348
 1535POPC   PO423340   0.617  29.163   9.502
 1535POPC   GL123341   0.583  29.129   9.080
 1535POPC   GL223342   0.761  29.414   9.071
 1535POPC   C1A23343   0.416  29.013   8.664
 1535POPC   D2A23344   0.095  29.084   8.335
 1535POPC   C3A23345   0.305  29.179   7.952
 1535POPC   C4A23346   0.592  28.878   7.756
 1535POPC   C1B23347   0.478  29.514   8.754
 1535POPC   C2B23348   0.605  29.367   8.352
 1535POPC   C3B23349   0.791  29.313   7.980
 1535POPC   C4B23350   0.641  29.504   7.642
 1536POPC   NC323351  19.157  34.433   9.447
 1536POPC   PO423352  18.872  35.091   9.530
 1536POPC   GL123353  18.900  34.800   9.178
 1536POPC   GL223354  19.248  34.771   9.073
 1536POPC   C1A23355  18.871  34.665   8.732
 1536POPC   D2A23356  19.133  34.583   8.355
 1536POPC   C3A23357  18.998  34.352   7.997
 1536POPC   C4A23358  18.781  34.672   7.815
 1536POPC   C1B23359  19.402  34.895   8.675
 1536POPC   C2B23360  19.570  34.831   8.254
 1536POPC   C3B23361  19.325  34.746   7.880
 1536POPC   C4B23362  19.126  34.962   7.535
 1537POPC   NC323363   1.127  26.840   9.445
 1537POPC   PO423364   0.624  26.369   9.109
 1537POPC   GL123365   0.882  26.609   8.873
 1537POPC   GL223366   1.170  26.618   8.992
 1537POPC   C1A23367   1.052  26.968   8.648
 1537POPC   D2A23368   1.226  26.936   8.269
 1537POPC   C3A23369   0.978  26.836   7.912
 1537POPC   C4A23370   0.795  27.173   7.690
 1537POPC   C1B23371   1.415  26.590   8.652
 1537POPC   C2B23372   1.641  26.614   8.289
 1537POPC   C3B23373   1.465  26.642   7.927
 1537POPC   C4B23374   1.387  27.077   7.799
 1538POPC   NC323375  38.854  16.500   9.556
 1538POPC   PO423376  38.190  16.535   9.605
 1538POPC   GL123377  38.321  16.563   9.180
 1538POPC   GL223378  38.638  16.469   9.049
 1538POPC   C1A23379  38.244  16.738   8.788
 1538POPC   D2A23380  38.499  16.698   8.435
 1538POPC   C3A23381  38.233  16.518   8.146
 1538POPC   C4A23382  37.984  16.695   7.815
 1538POPC   C1B23383  38.913  16.508   8.706
 1538POPC   C2B23384  39.047  16.676   8.339
 1538POPC   C3B23385  38.772  16.616   8.003
 1538POPC   C4B23386  38.473  16.895   7.894
 1539POPC   NC323387  31.354   7.476   9.522
 1539POPC   PO423388  31.955   7.315   9.481
 1539POPC   GL123389  31.597   7.360   9.100
 1539POPC   GL223390  31.254   7.617   9.054
 1539POPC   C1A23391  31.586   7.240   8.679
 1539POPC   D2A23392  31.778   7.349   8.297
 1539POPC   C3A23393  31.640   7.222   7.873
 1539POPC   C4A23394  31.579   7.250   7.420
 1539POPC   C1B23395  31.084   7.313   8.786
 1539POPC   C2B23396  31.177   7.154   8.372
 1539POPC   C3B23397  31.163   7.352   7.999
 1539POPC   C4B23398  30.969   7.466   7.660
 1540POPC   NC323399  30.813  11.114   9.340
 1540POPC   PO423400  30.433  11.629   9.440
 1540POPC   GL123401  30.733  11.632   9.065
 1540POPC   GL223402  31.028  11.396   8.952
 1540POPC   C1A23403  30.652  11.512   8.614
 1540POPC   D2A23404  30.398  11.235   8.328
 1540POPC   C3A23405  30.345  11.399   7.910
 1540POPC   C4A23406  30.587  11.465   7.523
 1540POPC   C1B23407  30.860  11.033   8.688
 1540POPC   C2B23408  30.827  10.939   8.259
 1540POPC   C3B23409  30.837  11.222   7.905
 1540POPC   C4B23410  31.089  11.325   7.542
 1541POPC   NC323411  35.146   2.319   9.837
 1541POPC   PO423412  35.172   1.952   9.279
 1541POPC   GL123413  35.305   2.063   8.937
 1541POPC   GL223414  35.146   2.398   8.967
 1541POPC   C1A23415  35.419   1.749   8.644
 1541POPC   D2A23416  35.578   1.855   8.256
 1541POPC   C3A23417  35.396   1.692   7.938
 1541POPC   C4A23418  35.498   1.883   7.590
 1541POPC   C1B23419  34.943   2.236   8.637
 1541POPC   C2B23420  35.053   1.972   8.312
 1541POPC   C3B23421  35.266   2.193   8.004
 1541POPC   C4B23422  35.216   2.363   7.592
 1542POPC   NC323423  22.810  12.238   9.618
 1542POPC   PO423424  23.224  11.792   9.361
 1542POPC   GL123425  22.946  12.065   9.142
 1542POPC   GL223426  23.149  12.345   9.131
 1542POPC   C1A23427  22.684  12.010   8.780
 1542POPC   D2A23428  22.866  11.891   8.403
 1542POPC   C3A23429  22.837  11.920   7.992
 1542POPC   C4A23430  22.656  12.195   7.723
 1542POPC   C1B23431  23.126  12.280   8.656
 1542POPC   C2B23432  23.118  12.310   8.183
 1542POPC   C3B23433  23.160  12.296   7.734
 1542POPC   C4B23434  23.317  12.519   7.358
 1543POPC   NC323435  13.656  34.633  10.199
 1543POPC   PO423436  13.363  34.602   9.636
 1543POPC   GL123437  13.510  34.443   9.227
 1543POPC   GL223438  13.526  34.723   9.012
 1543POPC   C1A23439  13.595  34.315   8.750
 1543POPC   D2A23440  13.500  34.263   8.291
 1543POPC   C3A23441  13.750  34.490   7.945
 1543POPC   C4A23442  13.758  34.415   7.470
 1543POPC   C1B23443  13.317  34.852   8.651
 1543POPC   C2B23444  13.411  34.766   8.278
 1543POPC   C3B23445  13.397  34.918   7.908
 1543POPC   C4B23446  13.764  34.913   7.652
 1544POPC   NC323447  30.237   4.831   9.452
 1544POPC   PO423448  30.834   5.324   9.435
 1544POPC   GL123449  30.764   5.038   9.106
 1544POPC   GL223450  30.522   4.767   9.039
 1544POPC   C1A23451  30.817   5.079   8.683
 1544POPC   D2A23452  31.037   5.159   8.311
 1544POPC   C3A23453  30.751   5.341   8.037
 1544POPC   C4A23454  30.516   5.095   7.777
 1544POPC   C1B23455  30.486   4.688   8.599
 1544POPC   C2B23456  30.488   4.731   8.151
 1544POPC   C3B23457  30.467   4.593   7.727
 1544POPC   C4B23458  30.323   4.816   7.357
 1545POPC   NC323459  19.980  35.025   9.443
 1545POPC   PO423460  19.699  35.600   9.698
 1545POPC   GL123461  19.777  35.469   9.251
 1545POPC   GL223462  19.548  35.218   9.117
 1545POPC   C1A23463  19.889  35.616   8.825
 1545POPC   D2A23464  20.208  35.571   8.553
 1545POPC   C3A23465  20.162  35.555   8.076
 1545POPC   C4A23466  19.943  35.544   7.647
 1545POPC   C1B23467  19.823  35.134   8.802
 1545POPC   C2B23468  19.767  35.313   8.409
 1545POPC   C3B23469  19.820  35.191   8.004
 1545POPC   C4B23470  19.569  35.150   7.659
 1546POPC   NC323471  20.800   3.884   9.479
 1546POPC   PO423472  20.369   3.440   9.411
 1546POPC   GL123473  20.546   3.674   9.095
 1546POPC   GL223474  20.895   3.518   9.141
 1546POPC   C1A23475  20.462   3.856   8.688
 1546POPC   D2A23476  20.198   3.803   8.323
 1546POPC   C3A23477  20.475   3.774   7.976
 1546POPC   C4A23478  20.712   3.421   7.802
 1546POPC   C1B23479  20.951   3.700   8.767
 1546POPC   C2B23480  20.837   3.618   8.363
 1546POPC   C3B23481  21.160   3.740   8.124
 1546POPC   C4B23482  21.120   3.834   7.745
 1547POPC   NC323483   0.811  15.896   9.431
 1547POPC   PO423484   0.245  15.768   9.739
 1547POPC   GL123485   0.365  15.902   9.230
 1547POPC   GL223486   0.303  16.254   9.086
 1547POPC   C1A23487   0.329  15.705   8.779
 1547POPC   D2A23488   0.070  15.730   8.403
 1547POPC   C3A23489   0.243  15.726   8.044
 1547POPC   C4A23490   0.083  15.789   7.646
 1547POPC   C1B23491   0.616  16.110   8.812
 1547POPC   C2B23492   0.555  15.965   8.381
 1547POPC   C3B23493   0.500  16.147   7.964
 1547POPC   C4B23494   0.732  16.178   7.601
 1548POPC   NC323495   1.038  39.981   9.511
 1548POPC   PO423496   1.513  40.421   9.525
 1548POPC   GL123497   1.389  40.137   9.180
 1548POPC   GL223498   1.031  40.161   9.041
 1548POPC   C1A23499   1.410  39.865   8.827
 1548POPC   D2A23500   1.532  40.003   8.425
 1548POPC   C3A23501   1.492  39.824   8.020
 1548POPC   C4A23502   1.589  40.026   7.624
 1548POPC   C1B23503   0.983  39.998   8.607
 1548POPC   C2B23504   1.025  39.966   8.160
 1548POPC   C3B23505   0.771  40.136   7.851
 1548POPC   C4B23506   0.787  40.223   7.424
 1549POPC   NC323507  28.058  26.716   9.850
 1549POPC   PO423508  27.465  26.940   9.557
 1549POPC   GL123509  27.310  27.115   9.173
 1549POPC   GL223510  27.619  27.196   9.081
 1549POPC   C1A23511  27.358  26.929   8.731
 1549POPC   D2A23512  27.414  26.505   8.527
 1549POPC   C3A23513  27.324  26.538   8.080
 1549POPC   C4A23514  27.395  26.726   7.662
 1549POPC   C1B23515  27.854  27.121   8.713
 1549POPC   C2B23516  27.792  26.980   8.282
 1549POPC   C3B23517  27.722  27.096   7.842
 1549POPC   C4B23518  27.342  27.320   7.776
 1550POPC   NC323519  43.578  39.789   9.429
 1550POPC   PO423520  44.287  39.852   9.451
 1550POPC   GL123521  44.122  39.791   9.066
 1550POPC   GL223522  43.841  39.584   9.053
 1550POPC   C1A23523  44.009  39.868   8.644
 1550POPC   D2A23524  43.870  40.244   8.384
 1550POPC   C3A23525  43.585  40.307   8.080
 1550POPC   C4A23526  43.676  40.270   7.689
 1550POPC   C1B23527  43.531  39.809   8.772
 1550POPC   C2B23528  43.580  39.842   8.321
 1550POPC   C3B23529  43.885  39.776   7.978
 1550POPC   C4B23530  43.913  39.554   7.541
 1551POPC   NC323531  23.610  18.468   9.740
 1551POPC   PO423532  24.040  18.008   9.637
 1551POPC   GL123533  23.920  18.101   9.190
 1551POPC   GL223534  23.599  18.266   9.180
 1551POPC   C1A23535  23.936  18.443   8.849
 1551POPC   D2A23536  23.942  18.632   8.410
 1551POPC   C3A23537  23.799  18.350   8.087
 1551POPC   C4A23538  23.954  17.948   7.942
 1551POPC   C1B23539  23.596  18.105   8.730
 1551POPC   C2B23540  23.569  17.922   8.313
 1551POPC   C3B23541  23.408  18.055   7.898
 1551POPC   C4B23542  23.384  18.274   7.500
 1552POPC   NC323543  44.769  43.403   9.445
 1552POPC   PO423544  44.676  44.082   9.599
 1552POPC   GL123545  44.666  44.164   9.176
 1552POPC   GL223546  44.673  43.810   9.136
 1552POPC   C1A23547  44.893  44.126   8.789
 1552POPC   D2A23548  44.839  43.855   8.405
 1552POPC   C3A23549  44.619  43.989   8.051
 1552POPC   C4A23550  44.753  43.938   7.660
 1552POPC   C1B23551  44.816  43.577   8.820
 1552POPC   C2B23552  44.561  43.425   8.510
 1552POPC   C3B23553  44.549  43.489   8.076
 1552POPC   C4B23554  44.308  43.682   7.768
 1553POPC   NC323555  13.197   4.932   9.530
 1553POPC   PO423556  13.888   4.866   9.335
 1553POPC   GL123557  13.750   5.080   9.010
 1553POPC   GL223558  13.452   5.198   9.152
 1553POPC   C1A23559  13.663   5.043   8.608
 1553POPC   D2A23560  13.495   4.871   8.245
 1553POPC   C3A23561  13.799   5.072   7.991
 1553POPC   C4A23562  13.994   4.973   7.613
 1553POPC   C1B23563  13.196   5.165   8.768
 1553POPC   C2B23564  13.242   5.327   8.356
 1553POPC   C3B23565  13.251   5.245   7.915
 1553POPC   C4B23566  13.533   5.213   7.566
 1554POPC   NC323567   9.080  16.162   9.446
 1554POPC   PO423568   8.469  16.345   9.351
 1554POPC   GL123569   8.764  15.992   9.089
 1554POPC   GL223570   9.049  15.741   9.143
 1554POPC   C1A23571   8.700  15.706   8.716
 1554POPC   D2A23572   8.798  15.957   8.331
 1554POPC   C3A23573   8.961  15.872   7.914
 1554POPC   C4A23574   8.936  15.908   7.474
 1554POPC   C1B23575   9.167  15.887   8.717
 1554POPC   C2B23576   9.239  15.658   8.349
 1554POPC   C3B23577   9.419  15.656   7.954
 1554POPC   C4B23578   9.365  15.632   7.519
 1555POPC   NC323579  23.874  34.601   9.600
 1555POPC   PO423580  23.159  34.328   9.503
 1555POPC   GL123581  23.567  34.421   9.225
 1555POPC   GL223582  23.957  34.330   9.206
 1555POPC   C1A23583  23.740  34.713   8.910
 1555POPC   D2A23584  23.742  34.964   8.546
 1555POPC   C3A23585  23.626  34.744   8.156
 1555POPC   C4A23586  23.846  34.801   7.775
 1555POPC   C1B23587  24.040  34.308   8.824
 1555POPC   C2B23588  24.002  34.507   8.441
 1555POPC   C3B23589  23.929  34.319   8.029
 1555POPC   C4B23590  23.755  34.325   7.635
 1556POPC   NC323591  37.884  29.631   9.589
 1556POPC   PO423592  37.433  30.205   9.593
 1556POPC   GL123593  37.552  29.917   9.309
 1556POPC   GL223594  37.846  30.074   9.190
 1556POPC   C1A23595  37.516  29.850   8.882
 1556POPC   D2A23596  37.515  30.034   8.478
 1556POPC   C3A23597  37.501  29.797   8.119
 1556POPC   C4A23598  37.494  29.906   7.689
 1556POPC   C1B23599  38.004  29.985   8.752
 1556POPC   C2B23600  37.988  29.919   8.324
 1556POPC   C3B23601  37.955  29.577   8.070
 1556POPC   C4B23602  38.119  29.474   7.693
 1557POPC   NC323603   7.080   3.724   9.135
 1557POPC   PO423604   7.554   3.568   9.552
 1557POPC   GL123605   7.503   3.414   9.120
 1557POPC   GL223606   7.725   3.708   9.070
 1557POPC   C1A23607   7.327   3.397   8.660
 1557POPC   D2A23608   7.432   3.718   8.353
 1557POPC   C3A23609   7.258   3.668   7.965
 1557POPC   C4A23610   7.251   3.281   7.738
 1557POPC   C1B23611   7.809   3.521   8.677
 1557POPC   C2B23612   7.951   3.569   8.255
 1557POPC   C3B23613   7.721   3.433   7.909
 1557POPC   C4B23614   7.581   3.629   7.557
 1558POPC   NC323615  44.504  33.919   9.694
 1558POPC   PO423616  44.928  33.423   9.566
 1558POPC   GL123617  44.794  33.757   9.293
 1558POPC   GL223618  44.420  33.730   9.216
 1558POPC   C1A23619  44.818  33.769   8.866
 1558POPC   D2A23620  44.633  33.848   8.491
 1558POPC   C3A23621  44.751  33.712   8.053
 1558POPC   C4A23622   0.015  33.645   7.672
 1558POPC   C1B23623  44.293  34.025   8.907
 1558POPC   C2B23624  44.192  34.094   8.465
 1558POPC   C3B23625  44.380  34.105   8.070
 1558POPC   C4B23626  44.285  33.770   7.782
 1559POPC   NC323627   8.909  32.129   9.715
 1559POPC   PO423628   9.308  32.625   9.661
 1559POPC   GL123629   9.055  32.384   9.282
 1559POPC   GL223630   8.769  32.098   9.210
 1559POPC   C1A23631   9.013  32.448   8.820
 1559POPC   D2A23632   9.215  32.481   8.377
 1559POPC   C3A23633   8.931  32.536   8.007
 1559POPC   C4A23634   8.527  32.382   7.838
 1559POPC   C1B23635   8.821  31.972   8.760
 1559POPC   C2B23636   8.753  32.118   8.313
 1559POPC   C3B23637   8.854  32.005   7.864
 1559POPC   C4B23638   8.694  31.927   7.402
 1560POPC   NC323639   6.413  32.687   9.388
 1560POPC   PO423640   7.050  33.044   9.472
 1560POPC   GL123641   6.807  33.057   9.091
 1560POPC   GL223642   6.744  32.743   9.022
 1560POPC   C1A23643   6.671  32.997   8.605
 1560POPC   D2A23644   6.689  33.301   8.276
 1560POPC   C3A23645   6.570  33.225   7.830
 1560POPC   C4A23646   6.171  33.054   7.683
 1560POPC   C1B23647   7.110  32.768   8.782
 1560POPC   C2B23648   7.131  32.902   8.369
 1560POPC   C3B23649   6.934  32.884   7.972
 1560POPC   C4B23650   6.561  32.704   7.759
 1561POPC   NC323651  37.011  29.383   9.465
 1561POPC   PO423652  36.917  28.697   9.364
 1561POPC   GL123653  37.136  28.953   9.035
 1561POPC   GL223654  36.982  29.300   8.962
 1561POPC   C1A23655  37.195  29.028   8.579
 1561POPC   D2A23656  36.901  29.330   8.389
 1561POPC   C3A23657  37.008  29.610   8.043
 1561POPC   C4A23658  37.101  29.367   7.682
 1561POPC   C1B23659  36.705  28.998   8.764
 1561POPC   C2B23660  36.753  28.791   8.378
 1561POPC   C3B23661  36.637  28.981   8.014
 1561POPC   C4B23662  36.659  29.108   7.589
 1562POPC   NC323663   7.382  44.649   9.852
 1562POPC   PO423664   7.737  44.255   9.357
 1562POPC   GL123665   7.589  44.587   9.114
 1562POPC   GL223666   7.869  44.720   9.077
 1562POPC   C1A23667   7.397  44.792   8.769
 1562POPC   D2A23668   7.252   0.027   8.399
 1562POPC   C3A23669   7.285  44.809   8.013
 1562POPC   C4A23670   7.305  44.613   7.595
 1562POPC   C1B23671   7.889  44.577   8.684
 1562POPC   C2B23672   7.805  44.663   8.275
 1562POPC   C3B23673   7.763  44.680   7.842
 1562POPC   C4B23674   7.703  44.848   7.438
 1563POPC   NC323675  37.348  24.390   9.766
 1563POPC   PO423676  37.478  24.706   9.143
 1563POPC   GL123677  37.636  24.469   8.926
 1563POPC   GL223678  37.457  24.196   9.174
 1563POPC   C1A23679  37.653  24.740   8.523
 1563POPC   D2A23680  37.419  24.905   8.214
 1563POPC   C3A23681  37.555  24.627   7.950
 1563POPC   C4A23682  37.809  24.255   7.868
 1563POPC   C1B23683  37.300  24.148   8.760
 1563POPC   C2B23684  37.502  24.253   8.352
 1563POPC   C3B23685  37.312  24.190   7.964
 1563POPC   C4B23686  37.133  24.411   7.639
 1564POPC   NC323687  29.805   0.406   9.628
 1564POPC   PO423688  30.355   0.181   9.368
 1564POPC   GL123689  30.088   0.301   9.088
 1564POPC   GL223690  29.842   0.579   9.124
 1564POPC   C1A23691  30.016   0.186   8.688
 1564POPC   D2A23692  29.914   0.391   8.304
 1564POPC   C3A23693  30.116   0.195   7.968
 1564POPC   C4A23694  29.979   0.145   7.552
 1564POPC   C1B23695  30.142   0.877   8.869
 1564POPC   C2B23696  30.311   0.860   8.418
 1564POPC   C3B23697  30.076   0.823   8.025
 1564POPC   C4B23698  30.143   0.642   7.641
 1565POPC   NC323699  25.692   4.237   9.310
 1565POPC   PO423700  26.248   4.338   9.563
 1565POPC   GL123701  26.488   4.318   9.184
 1565POPC   GL223702  26.270   4.078   9.011
 1565POPC   C1A23703  26.533   4.526   8.785
 1565POPC   D2A23704  26.278   4.628   8.400
 1565POPC   C3A23705  26.202   4.305   8.098
 1565POPC   C4A23706  26.409   4.421   7.749
 1565POPC   C1B23707  26.013   4.361   8.751
 1565POPC   C2B23708  25.768   4.499   8.386
 1565POPC   C3B23709  25.893   4.682   7.989
 1565POPC   C4B23710  25.892   4.527   7.579
 1566POPC   NC323711   0.109  37.802   9.623
 1566POPC   PO423712  44.599  37.385   9.472
 1566POPC   GL123713  44.610  37.743   9.184
 1566POPC   GL223714  44.334  37.989   9.191
 1566POPC   C1A23715  44.695  37.800   8.733
 1566POPC   D2A23716  44.777  37.857   8.293
 1566POPC   C3A23717  44.868  37.505   8.113
 1566POPC   C4A23718  44.788  37.485   7.733
 1566POPC   C1B23719  44.190  37.864   8.792
 1566POPC   C2B23720  44.194  37.933   8.351
 1566POPC   C3B23721  44.379  37.743   7.971
 1566POPC   C4B23722  44.399  37.706   7.528
 1567POPC   NC323723   2.455  37.650   9.492
 1567POPC   PO423724   3.085  37.774   9.571
 1567POPC   GL123725   2.843  37.842   9.178
 1567POPC   GL223726   2.634  37.525   9.035
 1567POPC   C1A23727   2.811  37.892   8.730
 1567POPC   D2A23728   2.762  37.663   8.338
 1567POPC   C3A23729   2.598  37.866   7.960
 1567POPC   C4A23730   2.815  37.768   7.570
 1567POPC   C1B23731   2.353  37.652   8.663
 1567POPC   C2B23732   2.311  37.489   8.195
 1567POPC   C3B23733   2.572  37.390   7.794
 1567POPC   C4B23734   2.565  37.431   7.298
 1568POPC   NC323735  14.454  17.237   9.412
 1568POPC   PO423736  14.659  17.850   9.399
 1568POPC   GL123737  14.344  17.663   9.109
 1568POPC   GL223738  14.063  17.877   9.023
 1568POPC   C1A23739  14.229  17.467   8.719
 1568POPC   D2A23740  14.345  17.317   8.311
 1568POPC   C3A23741  14.561  17.514   7.942
 1568POPC   C4A23742  14.868  17.393   7.605
 1568POPC   C1B23743  13.915  17.868   8.628
 1568POPC   C2B23744  13.939  17.635   8.272
 1568POPC   C3B23745  14.099  17.759   7.863
 1568POPC   C4B23746  14.164  17.782   7.411
 1569POPC   NC323747   7.873   7.840   9.361
 1569POPC   PO423748   8.421   8.203   9.512
 1569POPC   GL123749   8.248   8.206   9.142
 1569POPC   GL223750   8.329   7.887   9.042
 1569POPC   C1A23751   8.072   8.285   8.764
 1569POPC   D2A23752   7.769   8.462   8.533
 1569POPC   C3A23753   7.929   8.616   8.155
 1569POPC   C4A23754   7.985   8.345   7.786
 1569POPC   C1B23755   8.276   7.862   8.609
 1569POPC   C2B23756   8.027   8.054   8.263
 1569POPC   C3B23757   7.801   7.859   7.902
 1569POPC   C4B23758   7.917   7.952   7.451
 1570POPC   NC323759  35.918   4.670   9.412
 1570POPC   PO423760  35.832   5.324   9.498
 1570POPC   GL123761  35.975   5.061   9.109
 1570POPC   GL223762  35.690   4.809   8.998
 1570POPC   C1A23763  36.239   5.075   8.709
 1570POPC   D2A23764  36.471   5.109   8.311
 1570POPC   C3A23765  36.144   5.162   7.974
 1570POPC   C4A23766  35.844   5.135   7.610
 1570POPC   C1B23767  35.864   4.725   8.655
 1570POPC   C2B23768  36.119   4.718   8.315
 1570POPC   C3B23769  36.001   4.683   7.903
 1570POPC   C4B23770  36.237   4.806   7.570
 1571POPC   NC323771  10.539  42.517   9.663
 1571POPC   PO423772  10.826  42.007   9.586
 1571POPC   GL123773  10.522  42.232   9.221
 1571POPC   GL223774  10.439  42.616   9.182
 1571POPC   C1A23775  10.320  42.228   8.762
 1571POPC   D2A23776  10.113  42.105   8.321
 1571POPC   C3A23777  10.409  42.172   7.940
 1571POPC   C4A23778  10.713  42.450   7.705
 1571POPC   C1B23779  10.223  42.732   8.804
 1571POPC   C2B23780  10.226  42.657   8.399
 1571POPC   C3B23781  10.463  42.688   8.068
 1571POPC   C4B23782  10.245  42.655   7.696
 1572POPC   NC323783  12.178  28.982   9.618
 1572POPC   PO423784  12.202  29.532   9.260
 1572POPC   GL123785  11.970  29.193   9.158
 1572POPC   GL223786  12.250  28.982   9.118
 1572POPC   C1A23787  11.853  28.973   8.773
 1572POPC   D2A23788  11.610  28.984   8.387
 1572POPC   C3A23789  11.884  29.007   8.113
 1572POPC   C4A23790  12.140  29.056   7.807
 1572POPC   C1B23791  12.382  29.181   8.737
 1572POPC   C2B23792  12.288  29.245   8.335
 1572POPC   C3B23793  12.420  29.440   7.955
 1572POPC   C4B23794  12.521  29.311   7.500
 1573POPC   NC323795  37.209  42.385   9.376
 1573POPC   PO423796  36.552  42.284   9.509
 1573POPC   GL123797  36.569  42.330   9.075
 1573POPC   GL223798  36.856  42.189   9.091
 1573POPC   C1A23799  36.782  42.509   8.727
 1573POPC   D2A23800  36.660  42.547   8.340
 1573POPC   C3A23801  37.004  42.593   8.070
 1573POPC   C4A23802  36.806  42.408   7.771
 1573POPC   C1B23803  37.150  42.123   8.774
 1573POPC   C2B23804  37.001  42.154   8.371
 1573POPC   C3B23805  37.072  42.013   7.971
 1573POPC   C4B23806  37.246  41.798   7.604
 1574POPC   NC323807  22.377  31.746   9.429
 1574POPC   PO423808  21.846  31.421   9.772
 1574POPC   GL123809  22.099  31.375   9.269
 1574POPC   GL223810  22.375  31.270   9.051
 1574POPC   C1A23811  22.017  31.529   8.792
 1574POPC   D2A23812  22.137  31.763   8.390
 1574POPC   C3A23813  22.180  31.454   8.051
 1574POPC   C4A23814  21.929  31.321   7.707
 1574POPC   C1B23815  22.508  31.631   8.777
 1574POPC   C2B23816  22.626  31.595   8.354
 1574POPC   C3B23817  22.507  31.839   8.010
 1574POPC   C4B23818  22.447  31.603   7.623
 1575POPC   NC323819  15.737  30.664   9.665
 1575POPC   PO423820  16.242  30.833   9.445
 1575POPC   GL123821  16.014  30.511   9.178
 1575POPC   GL223822  15.624  30.451   9.220
 1575POPC   C1A23823  16.120  30.661   8.735
 1575POPC   D2A23824  16.324  30.713   8.306
 1575POPC   C3A23825  16.101  30.994   7.989
 1575POPC   C4A23826  16.052  31.101   7.546
 1575POPC   C1B23827  15.679  30.342   8.802
 1575POPC   C2B23828  15.815  30.452   8.385
 1575POPC   C3B23829  15.963  30.495   7.984
 1575POPC   C4B23830  15.733  30.709   7.665
 1576POPC   NC323831   0.967  10.737   9.519
 1576POPC   PO423832   1.323  10.082   9.609
 1576POPC   GL123833   1.258  10.271   9.181
 1576POPC   GL223834   1.258  10.655   9.125
 1576POPC   C1A23835   1.361  10.373   8.729
 1576POPC   D2A23836   1.472  10.420   8.303
 1576POPC   C3A23837   1.119  10.333   8.013
 1576POPC   C4A23838   1.078  10.145   7.642
 1576POPC   C1B23839   1.235  10.884   8.745
 1576POPC   C2B23840   1.418  10.939   8.358
 1576POPC   C3B23841   1.241  10.825   7.974
 1576POPC   C4B23842   1.170  10.638   7.539
 1577POPC   NC323843  25.253   3.695   9.583
 1577POPC   PO423844  25.345   3.145   9.789
 1577POPC   GL123845  25.271   3.325   9.227
 1577POPC   GL223846  25.208   3.693   9.079
 1577POPC   C1A23847  25.491   3.311   8.823
 1577POPC   D2A23848  25.278   3.294   8.444
 1577POPC   C3A23849  25.448   3.504   8.120
 1577POPC   C4A23850  25.273   3.403   7.749
 1577POPC   C1B23851  25.009   3.951   8.723
 1577POPC   C2B23852  24.974   3.883   8.252
 1577POPC   C3B23853  25.219   3.897   7.864
 1577POPC   C4B23854  25.606   3.816   7.642
 1578POPC   NC323855   3.819  28.627   9.492
 1578POPC   PO423856   3.570  28.067   9.579
 1578POPC   GL123857   3.488  28.327   9.216
 1578POPC   GL223858   3.829  28.276   9.145
 1578POPC   C1A23859   3.258  28.442   8.828
 1578POPC   D2A23860   3.024  28.604   8.481
 1578POPC   C3A23861   3.211  28.544   8.118
 1578POPC   C4A23862   3.263  28.377   7.736
 1578POPC   C1B23863   3.831  28.551   8.799
 1578POPC   C2B23864   3.710  28.530   8.376
 1578POPC   C3B23865   3.734  28.232   8.073
 1578POPC   C4B23866   3.874  28.182   7.690
 1579POPC   NC323867   9.591  14.014   9.721
 1579POPC   PO423868   9.796  13.428   9.560
 1579POPC   GL123869   9.672  13.592   9.168
 1579POPC   GL223870   9.987  13.490   9.060
 1579POPC   C1A23871   9.587  13.782   8.742
 1579POPC   D2A23872   9.746  13.773   8.319
 1579POPC   C3A23873   9.507  13.740   7.924
 1579POPC   C4A23874   9.434  13.578   7.496
 1579POPC   C1B23875  10.072  13.613   8.688
 1579POPC   C2B23876  10.056  13.375   8.334
 1579POPC   C3B23877  10.115  13.519   7.958
 1579POPC   C4B23878   9.920  13.612   7.603
 1580POPC   NC323879  38.643  39.165   9.493
 1580POPC   PO423880  38.468  39.850   9.722
 1580POPC   GL123881  38.473  39.624   9.237
 1580POPC   GL223882  38.243  39.317   9.182
 1580POPC   C1A23883  38.563  39.436   8.813
 1580POPC   D2A23884  38.587  39.071   8.535
 1580POPC   C3A23885  38.610  39.226   8.118
 1580POPC   C4A23886  38.575  39.116   7.698
 1580POPC   C1B23887  38.112  39.118   8.810
 1580POPC   C2B23888  38.103  39.230   8.385
 1580POPC   C3B23889  38.116  39.055   7.983
 1580POPC   C4B23890  38.051  39.004   7.564
 1581POPC   NC323891  18.457  23.197   9.412
 1581POPC   PO423892  18.077  22.655   9.366
 1581POPC   GL123893  18.202  22.899   9.052
 1581POPC   GL223894  17.998  23.174   9.097
 1581POPC   C1A23895  18.268  22.762   8.646
 1581POPC   D2A23896  18.245  22.476   8.337
 1581POPC   C3A23897  18.332  22.663   7.957
 1581POPC   C4A23898  17.941  22.784   7.804
 1581POPC   C1B23899  18.072  23.245   8.655
 1581POPC   C2B23900  18.085  23.036   8.245
 1581POPC   C3B23901  18.240  23.194   7.854
 1581POPC   C4B23902  18.363  23.450   7.513
 1582POPC   NC323903  10.969   8.782   9.489
 1582POPC   PO423904  10.478   9.220   9.668
 1582POPC   GL123905  10.589   9.152   9.243
 1582POPC   GL223906  10.463   8.821   9.190
 1582POPC   C1A23907  10.431   9.229   8.812
 1582POPC   D2A23908  10.291   9.036   8.425
 1582POPC   C3A23909  10.444   9.127   8.013
 1582POPC   C4A23910  10.399   9.235   7.563
 1582POPC   C1B23911  10.634   8.757   8.755
 1582POPC   C2B23912  10.796   8.895   8.320
 1582POPC   C3B23913  10.781   8.714   7.901
 1582POPC   C4B23914  10.743   8.855   7.463
 1583POPC   NC323915  10.785  16.199   9.460
 1583POPC   PO423916  10.343  15.725   9.740
 1583POPC   GL123917  10.308  15.781   9.294
 1583POPC   GL223918  10.631  15.771   9.208
 1583POPC   C1A23919  10.357  15.999   8.859
 1583POPC   D2A23920  10.657  15.869   8.524
 1583POPC   C3A23921  10.629  16.122   8.129
 1583POPC   C4A23922  10.816  16.047   7.732
 1583POPC   C1B23923  10.378  15.498   8.888
 1583POPC   C2B23924  10.188  15.632   8.497
 1583POPC   C3B23925  10.405  15.642   8.086
 1583POPC   C4B23926  10.241  15.574   7.694
 1584POPC   NC323927  25.120  11.070   9.323
 1584POPC   PO423928  25.324  11.605   9.642
 1584POPC   GL123929  25.459  11.509   9.225
 1584POPC   GL223930  25.570  11.171   9.077
 1584POPC   C1A23931  25.463  11.618   8.804
 1584POPC   D2A23932  25.609  11.377   8.451
 1584POPC   C3A23933  25.406  11.518   8.102
 1584POPC   C4A23934  25.281  11.440   7.693
 1584POPC   C1B23935  25.635  10.881   8.700
 1584POPC   C2B23936  25.713  10.829   8.254
 1584POPC   C3B23937  25.628  11.099   7.896
 1584POPC   C4B23938  25.373  10.979   7.496
 1585POPC   NC323939  10.868   7.217   9.468
 1585POPC   PO423940  11.475   7.505   9.314
 1585POPC   GL123941  11.134   7.390   9.033
 1585POPC   GL223942  10.798   7.503   9.055
 1585POPC   C1A23943  11.200   7.256   8.626
 1585POPC   D2A23944  11.538   7.261   8.329
 1585POPC   C3A23945  11.462   7.423   7.935
 1585POPC   C4A23946  11.225   7.095   7.767
 1585POPC   C1B23947  10.875   7.698   8.670
 1585POPC   C2B23948  11.105   7.625   8.276
 1585POPC   C3B23949  10.913   7.469   7.891
 1585POPC   C4B23950  10.912   7.505   7.432
 1586POPC   NC323951  38.581  32.737   9.453
 1586POPC   PO423952  38.532  33.362   9.652
 1586POPC   GL123953  38.733  33.228   9.240
 1586POPC   GL223954  38.465  33.019   9.060
 1586POPC   C1A23955  38.832  33.187   8.779
 1586POPC   D2A23956  38.542  33.029   8.448
 1586POPC   C3A23957  38.659  33.087   7.993
 1586POPC   C4A23958  38.921  33.024   7.633
 1586POPC   C1B23959  38.148  33.169   8.785
 1586POPC   C2B23960  38.049  33.104   8.345
 1586POPC   C3B23961  38.130  33.177   7.896
 1586POPC   C4B23962  38.193  32.858   7.589
 1587POPC   NC323963  25.355  41.463   9.511
 1587POPC   PO423964  24.863  41.121   9.255
 1587POPC   GL123965  25.192  41.377   9.035
 1587POPC   GL223966  25.593  41.342   9.095
 1587POPC   C1A23967  25.056  41.563   8.659
 1587POPC   D2A23968  24.779  41.562   8.291
 1587POPC   C3A23969  24.958  41.388   7.969
 1587POPC   C4A23970  25.376  41.449   7.855
 1587POPC   C1B23971  25.570  41.570   8.731
 1587POPC   C2B23972  25.437  41.370   8.363
 1587POPC   C3B23973  25.709  41.159   8.093
 1587POPC   C4B23974  25.894  41.396   7.753
 1588POPC   NC323975  17.416  19.110   9.465
 1588POPC   PO423976  17.266  18.530   9.135
 1588POPC   GL123977  17.333  18.897   8.992
 1588POPC   GL223978  17.643  18.888   9.049
 1588POPC   C1A23979  17.214  19.119   8.640
 1588POPC   D2A23980  17.091  18.999   8.217
 1588POPC   C3A23981  17.267  19.139   7.810
 1588POPC   C4A23982  17.679  18.991   7.633
 1588POPC   C1B23983  17.748  19.028   8.680
 1588POPC   C2B23984  17.788  19.368   8.431
 1588POPC   C3B23985  17.698  19.351   8.018
 1588POPC   C4B23986  17.832  19.461   7.633
 1589POPC   NC323987   9.883  19.766  10.014
 1589POPC   PO423988   9.687  20.400   9.609
 1589POPC   GL123989   9.747  20.152   9.152
 1589POPC   GL223990   9.777  19.733   9.186
 1589POPC   C1A23991   9.666  19.978   8.763
 1589POPC   D2A23992   9.458  20.007   8.413
 1589POPC   C3A23993   9.708  20.168   8.092
 1589POPC   C4A23994   9.644  20.084   7.665
 1589POPC   C1B23995  10.093  19.711   8.803
 1589POPC   C2B23996   9.971  19.832   8.374
 1589POPC   C3B23997  10.094  19.834   7.930
 1589POPC   C4B23998   9.978  19.715   7.502
 1590POPC   NC323999  26.757  30.884   9.436
 1590POPC   PO424000  27.060  30.251   9.566
 1590POPC   GL124001  27.052  30.526   9.186
 1590POPC   GL224002  27.070  30.861   9.021
 1590POPC   C1A24003  26.794  30.507   8.804
 1590POPC   D2A24004  26.969  30.309   8.452
 1590POPC   C3A24005  27.131  30.561   8.119
 1590POPC   C4A24006  26.985  30.373   7.741
 1590POPC   C1B24007  26.843  31.067   8.730
 1590POPC   C2B24008  26.625  30.819   8.410
 1590POPC   C3B24009  26.643  30.722   7.992
 1590POPC   C4B24010  26.953  30.924   7.767
 1591POPC   NC324011  24.875  18.935   9.510
 1591POPC   PO424012  25.503  18.999   9.383
 1591POPC   GL124013  25.195  18.848   9.121
 1591POPC   GL224014  24.968  19.154   9.045
 1591POPC   C1A24015  25.200  18.800   8.712
 1591POPC   D2A24016  25.124  19.020   8.358
 1591POPC   C3A24017  25.280  18.841   8.004
 1591POPC   C4A24018  25.077  18.723   7.655
 1591POPC   C1B24019  25.332  19.300   8.783
 1591POPC   C2B24020  25.573  19.399   8.419
 1591POPC   C3B24021  25.499  19.295   8.008
 1591POPC   C4B24022  25.174  19.254   7.745
 1592POPC   NC324023  22.172  24.174   9.793
 1592POPC   PO424024  21.743  24.645   9.929
 1592POPC   GL124025  21.910  24.469   9.442
 1592POPC   GL224026  22.229  24.287   9.302
 1592POPC   C1A24027  21.890  24.491   8.966
 1592POPC   D2A24028  21.977  24.472   8.499
 1592POPC   C3A24029  21.731  24.492   8.086
 1592POPC   C4A24030  21.902  24.494   7.684
 1592POPC   C1B24031  22.369  24.233   8.875
 1592POPC   C2B24032  22.501  24.351   8.454
 1592POPC   C3B24033  22.264  24.401   8.061
 1592POPC   C4B24034  22.311  24.172   7.684
 1593POPC   NC324035  35.595  37.604   9.516
 1593POPC   PO424036  35.034  37.241   9.251
 1593POPC   GL124037  35.388  37.418   9.067
 1593POPC   GL224038  35.334  37.791   9.105
 1593POPC   C1A24039  35.341  37.547   8.650
 1593POPC   D2A24040  35.270  37.639   8.247
 1593POPC   C3A24041  35.108  37.330   7.961
 1593POPC   C4A24042  35.365  37.559   7.708
 1593POPC   C1B24043  35.149  38.023   8.761
 1593POPC   C2B24044  34.973  38.062   8.360
 1593POPC   C3B24045  35.109  38.023   7.943
 1593POPC   C4B24046  35.486  38.059   7.742
 1594POPC   NC324047  31.930  23.483   9.446
 1594POPC   PO424048  31.316  23.753   9.566
 1594POPC   GL124049  31.302  23.873   9.173
 1594POPC   GL224050  31.672  23.837   9.125
 1594POPC   C1A24051  31.227  23.783   8.762
 1594POPC   D2A24052  31.506  23.738   8.442
 1594POPC   C3A24053  31.329  23.772   8.075
 1594POPC   C4A24054  31.469  23.837   7.703
 1594POPC   C1B24055  31.808  23.550   8.806
 1594POPC   C2B24056  32.006  23.631   8.429
 1594POPC   C3B24057  31.845  23.712   8.038
 1594POPC   C4B24058  31.798  23.486   7.660
 1595POPC   NC324059  10.835  31.336   9.384
 1595POPC   PO424060  10.188  31.577   9.555
 1595POPC   GL124061  10.350  31.427   9.182
 1595POPC   GL224062  10.628  31.609   9.018
 1595POPC   C1A24063  10.349  31.238   8.787
 1595POPC   D2A24064  10.478  31.442   8.432
 1595POPC   C3A24065  10.393  31.227   8.069
 1595POPC   C4A24066  10.099  31.349   7.745
 1595POPC   C1B24067  10.891  31.338   8.726
 1595POPC   C2B24068  10.962  31.392   8.285
 1595POPC   C3B24069  10.669  31.642   7.996
 1595POPC   C4B24070  10.605  31.453   7.588
 1596POPC   NC324071   2.276   0.927   9.351
 1596POPC   PO424072   1.910   1.463   9.553
 1596POPC   GL124073   1.852   1.369   9.121
 1596POPC   GL224074   1.848   1.040   9.071
 1596POPC   C1A24075   2.060   1.347   8.706
 1596POPC   D2A24076   2.089   1.239   8.261
 1596POPC   C3A24077   1.980   1.548   7.901
 1596POPC   C4A24078   2.141   1.661   7.469
 1596POPC   C1B24079   1.879   0.861   8.682
 1596POPC   C2B24080   1.728   0.730   8.294
 1596POPC   C3B24081   1.702   1.035   7.962
 1596POPC   C4B24082   2.080   1.040   7.791
 1597POPC   NC324083  28.697  28.412   9.490
 1597POPC   PO424084  29.358  28.281   9.496
 1597POPC   GL124085  29.294  28.462   9.102
 1597POPC   GL224086  28.993  28.663   9.133
 1597POPC   C1A24087  29.238  28.280   8.709
 1597POPC   D2A24088  29.178  27.992   8.381
 1597POPC   C3A24089  29.319  28.143   8.000
 1597POPC   C4A24090  28.984  28.330   7.804
 1597POPC   C1B24091  29.086  28.770   8.692
 1597POPC   C2B24092  28.960  28.600   8.285
 1597POPC   C3B24093  28.700  28.735   7.918
 1597POPC   C4B24094  28.892  28.698   7.472
 1598POPC   NC324095  29.343  24.437   9.594
 1598POPC   PO424096  28.663  24.609   9.485
 1598POPC   GL124097  29.014  24.453   9.198
 1598POPC   GL224098  29.363  24.654   9.155
 1598POPC   C1A24099  29.097  24.207   8.817
 1598POPC   D2A24100  29.121  24.372   8.402
 1598POPC   C3A24101  29.078  24.182   8.021
 1598POPC   C4A24102  29.136  24.505   7.727
 1598POPC   C1B24103  29.194  24.735   8.778
 1598POPC   C2B24104  29.485  24.726   8.434
 1598POPC   C3B24105  29.398  24.830   8.046
 1598POPC   C4B24106  29.554  24.788   7.672
 1599POPC   NC324107  31.012  28.749   9.627
 1599POPC   PO424108  30.510  29.216   9.495
 1599POPC   GL124109  30.700  29.258   9.116
 1599POPC   GL224110  30.533  28.975   9.011
 1599POPC   C1A24111  30.660  29.337   8.681
 1599POPC   D2A24112  30.844  29.157   8.314
 1599POPC   C3A24113  30.624  29.265   7.964
 1599POPC   C4A24114  30.621  29.484   7.580
 1599POPC   C1B24115  30.481  28.762   8.640
 1599POPC   C2B24116  30.475  28.819   8.222
 1599POPC   C3B24117  30.658  28.759   7.859
 1599POPC   C4B24118  30.832  29.003   7.530
 1600POPC   NC324119   7.206  35.830   9.447
 1600POPC   PO424120   7.493  35.198   9.454
 1600POPC   GL124121   7.601  35.347   9.044
 1600POPC   GL224122   7.555  35.667   9.083
 1600POPC   C1A24123   7.502  35.436   8.619
 1600POPC   D2A24124   7.310  35.213   8.307
 1600POPC   C3A24125   7.439  35.216   7.911
 1600POPC   C4A24126   7.253  35.396   7.528
 1600POPC   C1B24127   7.707  35.885   8.736
 1600POPC   C2B24128   7.750  35.761   8.303
 1600POPC   C3B24129   7.453  35.743   7.975
 1600POPC   C4B24130   7.427  35.875   7.567
 1601POPC   NC324131   4.507   2.189   9.568
 1601POPC   PO424132   4.165   1.625   9.528
 1601POPC   GL124133   4.329   1.905   9.173
 1601POPC   GL224134   4.698   1.993   9.102
 1601POPC   C1A24135   4.137   2.159   8.862
 1601POPC   D2A24136   4.117   2.214   8.440
 1601POPC   C3A24137   4.106   1.953   8.114
 1601POPC   C4A24138   3.999   2.012   7.726
 1601POPC   C1B24139   4.602   2.195   8.664
 1601POPC   C2B24140   4.513   1.865   8.418
 1601POPC   C3B24141   4.578   1.599   8.094
 1601POPC   C4B24142   4.491   1.871   7.761
 1602POPC   NC324143  25.216  17.810   9.292
 1602POPC   PO424144  25.310  18.397   9.663
 1602POPC   GL124145  25.262  18.328   9.246
 1602POPC   GL224146  24.898  18.274   9.320
 1602POPC   C1A24147  25.323  18.300   8.782
 1602POPC   D2A24148  25.341  18.480   8.351
 1602POPC   C3A24149  25.269  18.317   7.945
 1602POPC   C4A24150  25.620  18.270   7.693
 1602POPC   C1B24151  24.858  18.484   8.947
 1602POPC   C2B24152  24.874  18.421   8.519
 1602POPC   C3B24153  24.861  18.588   8.134
 1602POPC   C4B24154  24.739  18.370   7.786
 1603POPC   NC324155  16.889  18.439   9.366
 1603POPC   PO424156  16.430  18.005   9.300
 1603POPC   GL124157  16.559  18.304   9.014
 1603POPC   GL224158  16.442  18.644   9.078
 1603POPC   C1A24159  16.853  18.239   8.686
 1603POPC   D2A24160  17.021  17.845   8.539
 1603POPC   C3A24161  17.187  17.967   8.160
 1603POPC   C4A24162  16.981  18.120   7.793
 1603POPC   C1B24163  16.370  18.538   8.624
 1603POPC   C2B24164  16.572  18.339   8.251
 1603POPC   C3B24165  16.520  18.338   7.805
 1603POPC   C4B24166  16.329  18.683   7.601
 1604POPC   NC324167  25.915  21.806   9.416
 1604POPC   PO424168  26.346  21.341   9.424
 1604POPC   GL124169  25.983  21.383   9.135
 1604POPC   GL224170  25.718  21.134   9.189
 1604POPC   C1A24171  26.047  21.534   8.727
 1604POPC   D2A24172  26.353  21.401   8.405
 1604POPC   C3A24173  26.165  21.416   7.996
 1604POPC   C4A24174  26.115  21.111   7.635
 1604POPC   C1B24175  25.845  21.045   8.760
 1604POPC   C2B24176  25.807  21.270   8.365
 1604POPC   C3B24177  25.739  21.122   7.989
 1604POPC   C4B24178  25.574  21.175   7.647
 1605POPC   NC324179  42.809  43.213   9.457
 1605POPC   PO424180  43.430  42.852   9.513
 1605POPC   GL124181  43.273  43.190   9.226
 1605POPC   GL224182  43.080  42.938   9.055
 1605POPC   C1A24183  43.046  43.410   8.854
 1605POPC   D2A24184  43.094  43.564   8.427
 1605POPC   C3A24185  43.146  43.197   8.215
 1605POPC   C4A24186  43.029  43.027   7.800
 1605POPC   C1B24187  42.797  42.957   8.701
 1605POPC   C2B24188  42.795  42.841   8.261
 1605POPC   C3B24189  42.571  42.759   7.895
 1605POPC   C4B24190  42.720  42.794   7.461
 1606POPC   NC324191  13.087   5.916   9.383
 1606POPC   PO424192  12.572   5.426   9.491
 1606POPC   GL124193  12.741   5.685   9.119
 1606POPC   GL224194  12.829   6.045   8.980
 1606POPC   C1A24195  13.081   5.664   8.778
 1606POPC   D2A24196  13.019   5.940   8.431
 1606POPC   C3A24197  13.051   5.718   8.054
 1606POPC   C4A24198  12.834   5.789   7.692
 1606POPC   C1B24199  12.956   6.383   8.741
 1606POPC   C2B24200  12.945   6.512   8.337
 1606POPC   C3B24201  12.957   6.235   7.984
 1606POPC   C4B24202  12.655   6.312   7.705
 1607POPC   NC324203   5.316  18.172   9.542
 1607POPC   PO424204   4.698  18.366   9.524
 1607POPC   GL124205   4.876  18.145   9.184
 1607POPC   GL224206   4.804  18.474   9.038
 1607POPC   C1A24207   5.254  18.004   8.916
 1607POPC   D2A24208   5.302  17.970   8.452
 1607POPC   C3A24209   5.361  18.246   8.066
 1607POPC   C4A24210   5.064  18.203   7.759
 1607POPC   C1B24211   4.924  18.275   8.671
 1607POPC   C2B24212   4.906  18.268   8.262
 1607POPC   C3B24213   4.810  18.578   7.989
 1607POPC   C4B24214   4.682  18.536   7.547
 1608POPC   NC324215  25.318  12.954   9.525
 1608POPC   PO424216  24.714  12.694   9.679
 1608POPC   GL124217  24.898  12.887   9.233
 1608POPC   GL224218  25.229  12.712   9.100
 1608POPC   C1A24219  24.874  13.059   8.782
 1608POPC   D2A24220  24.957  13.287   8.345
 1608POPC   C3A24221  25.196  13.089   7.997
 1608POPC   C4A24222  25.082  12.955   7.551
 1608POPC   C1B24223  25.387  13.030   8.856
 1608POPC   C2B24224  25.459  13.052   8.459
 1608POPC   C3B24225  25.711  12.881   8.157
 1608POPC   C4B24226  25.595  12.907   7.729
 1609POPC   NC324227   9.415  17.040   9.540
 1609POPC   PO424228   9.310  17.732   9.391
 1609POPC   GL124229   9.617  17.430   9.245
 1609POPC   GL224230   9.973  17.558   9.187
 1609POPC   C1A24231   9.691  17.290   8.837
 1609POPC   D2A24232   9.579  17.553   8.501
 1609POPC   C3A24233   9.543  17.446   8.127
 1609POPC   C4A24234   9.812  17.328   7.829
 1609POPC   C1B24235   9.980  17.736   8.749
 1609POPC   C2B24236   9.894  17.981   8.382
 1609POPC   C3B24237   9.827  17.840   7.950
 1609POPC   C4B24238  10.173  17.705   7.692
 1610POPC   NC324239  27.185   4.913   9.513
 1610POPC   PO424240  26.563   5.265   9.511
 1610POPC   GL124241  26.842   5.249   9.187
 1610POPC   GL224242  26.776   4.881   9.133
 1610POPC   C1A24243  26.658   5.280   8.785
 1610POPC   D2A24244  26.661   4.982   8.456
 1610POPC   C3A24245  26.701   5.270   8.142
 1610POPC   C4A24246  26.698   5.215   7.716
 1610POPC   C1B24247  27.057   4.960   8.777
 1610POPC   C2B24248  27.152   5.114   8.342
 1610POPC   C3B24249  27.071   4.930   7.928
 1610POPC   C4B24250  27.251   4.700   7.559
 1611POPC   NC324251  30.286   6.442   9.389
 1611POPC   PO424252  29.849   6.905   9.602
 1611POPC   GL124253  29.811   6.809   9.171
 1611POPC   GL224254  30.111   6.726   9.019
 1611POPC   C1A24255  29.691   6.597   8.760
 1611POPC   D2A24256  29.745   6.282   8.427
 1611POPC   C3A24257  29.929   6.469   8.046
 1611POPC   C4A24258  29.855   6.768   7.737
 1611POPC   C1B24259  30.323   6.912   8.706
 1611POPC   C2B24260  30.421   6.746   8.333
 1611POPC   C3B24261  30.284   6.899   7.965
 1611POPC   C4B24262  30.370   6.630   7.636
 1612POPC   NC324263  35.129  27.069   9.377
 1612POPC   PO424264  35.201  26.428   9.573
 1612POPC   GL124265  35.377  26.639   9.184
 1612POPC   GL224266  35.583  26.939   9.167
 1612POPC   C1A24267  35.326  26.794   8.750
 1612POPC   D2A24268  35.470  26.612   8.371
 1612POPC   C3A24269  35.289  26.648   7.959
 1612POPC   C4A24270  35.522  26.499   7.563
 1612POPC   C1B24271  35.599  27.231   8.799
 1612POPC   C2B24272  35.691  27.078   8.413
 1612POPC   C3B24273  35.577  27.120   8.028
 1612POPC   C4B24274  35.452  27.010   7.656
 1613POPC   NC324275  14.852   4.195   9.483
 1613POPC   PO424276  15.387   4.548   9.534
 1613POPC   GL124277  15.144   4.422   9.119
 1613POPC   GL224278  14.762   4.358   9.036
 1613POPC   C1A24279  15.091   4.381   8.668
 1613POPC   D2A24280  15.355   4.270   8.367
 1613POPC   C3A24281  15.285   4.489   7.975
 1613POPC   C4A24282  15.515   4.421   7.586
 1613POPC   C1B24283  14.685   4.048   8.726
 1613POPC   C2B24284  14.871   3.956   8.344
 1613POPC   C3B24285  14.772   3.846   7.920
 1613POPC   C4B24286  14.999   4.132   7.743
 1614POPC   NC324287  22.412  25.467   9.502
 1614POPC   PO424288  21.816  25.234   9.371
 1614POPC   GL124289  22.198  25.204   9.113
 1614POPC   GL224290  22.194  24.870   9.100
 1614POPC   C1A24291  22.371  25.283   8.696
 1614POPC   D2A24292  22.120  25.318   8.311
 1614POPC   C3A24293  22.322  25.349   7.896
 1614POPC   C4A24294  22.527  25.224   7.473
 1614POPC   C1B24295  21.978  24.960   8.702
 1614POPC   C2B24296  21.751  24.931   8.341
 1614POPC   C3B24297  22.046  24.899   7.993
 1614POPC   C4B24298  22.046  25.072   7.572
 1615POPC   NC324299  29.766  30.244   9.664
 1615POPC   PO424300  30.262  29.824   9.330
 1615POPC   GL124301  29.954  29.812   9.068
 1615POPC   GL224302  29.817  30.136   9.152
 1615POPC   C1A24303  30.125  29.710   8.650
 1615POPC   D2A24304  30.441  29.652   8.324
 1615POPC   C3A24305  30.208  29.557   7.977
 1615POPC   C4A24306  29.886  29.778   7.815
 1615POPC   C1B24307  30.079  30.215   8.771
 1615POPC   C2B24308  29.993  30.111   8.354
 1615POPC   C3B24309  29.694  30.197   8.052
 1615POPC   C4B24310  29.971  30.260   7.700
 1616POPC   NC324311  31.498  11.135   9.577
 1616POPC   PO424312  31.140  11.587   9.422
 1616POPC   GL124313  31.475  11.608   9.130
 1616POPC   GL224314  31.537  11.256   9.073
 1616POPC   C1A24315  31.494  11.610   8.663
 1616POPC   D2A24316  31.176  11.344   8.436
 1616POPC   C3A24317  31.313  11.113   8.082
 1616POPC   C4A24318  31.526  11.398   7.823
 1616POPC   C1B24319  31.687  11.146   8.671
 1616POPC   C2B24320  31.938  11.402   8.378
 1616POPC   C3B24321  32.021  11.423   7.936
 1616POPC   C4B24322  31.876  11.004   7.774
 1617POPC   NC324323  13.357  29.343   9.536
 1617POPC   PO424324  12.642  29.137   9.686
 1617POPC   GL124325  12.744  29.021   9.286
 1617POPC   GL224326  12.691  29.324   9.129
 1617POPC   C1A24327  12.668  28.792   8.905
 1617POPC   D2A24328  12.744  28.887   8.457
 1617POPC   C3A24329  12.621  28.977   8.051
 1617POPC   C4A24330  12.557  28.800   7.669
 1617POPC   C1B24331  13.067  29.133   8.910
 1617POPC   C2B24332  13.234  29.113   8.496
 1617POPC   C3B24333  13.213  29.181   8.058
 1617POPC   C4B24334  12.955  29.141   7.695
 1618POPC   NC324335  21.941  39.408   9.447
 1618POPC   PO424336  22.410  38.999   9.330
 1618POPC   GL124337  22.270  39.257   9.028
 1618POPC   GL224338  21.928  39.220   8.989
 1618POPC   C1A24339  22.235  39.292   8.595
 1618POPC   D2A24340  22.471  39.490   8.310
 1618POPC   C3A24341  22.376  39.259   7.962
 1618POPC   C4A24342  22.246  39.363   7.562
 1618POPC   C1B24343  21.763  39.512   8.715
 1618POPC   C2B24344  21.929  39.624   8.314
 1618POPC   C3B24345  21.893  39.443   7.938
 1618POPC   C4B24346  21.605  39.483   7.630
 1619POPC   NC324347  43.831  29.786   9.510
 1619POPC   PO424348  44.150  30.473   9.569
 1619POPC   GL124349  43.854  30.226   9.261
 1619POPC   GL224350  44.038  29.953   9.081
 1619POPC   C1A24351  43.606  30.040   8.884
 1619POPC   D2A24352  43.794  29.859   8.508
 1619POPC   C3A24353  43.604  29.865   8.107
 1619POPC   C4A24354  43.676  30.085   7.740
 1619POPC   C1B24355  44.260  29.822   8.730
 1619POPC   C2B24356  44.225  29.675   8.294
 1619POPC   C3B24357  44.126  29.887   7.923
 1619POPC   C4B24358  44.256  29.779   7.504
 1620POPC   NC324359  34.755  22.325   9.456
 1620POPC   PO424360  34.339  21.854   9.608
 1620POPC   GL124361  34.483  21.964   9.209
 1620POPC   GL224362  34.314  22.276   9.139
 1620POPC   C1A24363  34.736  22.055   8.850
 1620POPC   D2A24364  34.887  21.812   8.524
 1620POPC   C3A24365  34.799  22.040   8.173
 1620POPC   C4A24366  35.072  22.089   7.815
 1620POPC   C1B24367  34.507  22.517   8.766
 1620POPC   C2B24368  34.699  22.696   8.353
 1620POPC   C3B24369  34.618  22.459   7.942
 1620POPC   C4B24370  34.274  22.380   7.663
 1621POPC   NC324371  43.894  19.614   9.573
 1621POPC   PO424372  44.097  18.936   9.715
 1621POPC   GL124373  43.978  19.138   9.334
 1621POPC   GL224374  43.713  18.926   9.189
 1621POPC   C1A24375  43.921  19.277   8.896
 1621POPC   D2A24376  43.935  19.121   8.490
 1621POPC   C3A24377  43.891  19.339   8.114
 1621POPC   C4A24378  43.938  19.284   7.682
 1621POPC   C1B24379  43.500  18.889   8.764
 1621POPC   C2B24380  43.559  18.838   8.305
 1621POPC   C3B24381  43.358  18.808   7.885
 1621POPC   C4B24382  43.546  18.975   7.519
 1622POPC   NC324383  30.810  25.466   9.425
 1622POPC   PO424384  30.522  24.903   9.683
 1622POPC   GL124385  30.750  25.006   9.247
 1622POPC   GL224386  30.571  25.329   9.014
 1622POPC   C1A24387  30.893  24.991   8.812
 1622POPC   D2A24388  31.018  24.922   8.381
 1622POPC   C3A24389  30.841  25.195   8.056
 1622POPC   C4A24390  30.909  25.379   7.650
 1622POPC   C1B24391  30.298  25.335   8.639
 1622POPC   C2B24392  30.359  25.260   8.223
 1622POPC   C3B24393  30.387  25.231   7.792
 1622POPC   C4B24394  30.487  25.241   7.356
 1623POPC   NC324395  41.975  34.808   9.369
 1623POPC   PO424396  42.508  34.336   9.543
 1623POPC   GL124397  42.347  34.355   9.095
 1623POPC   GL224398  42.653  34.539   8.924
 1623POPC   C1A24399  42.222  34.634   8.706
 1623POPC   D2A24400  42.400  34.673   8.295
 1623POPC   C3A24401  42.139  34.747   7.930
 1623POPC   C4A24402  42.035  34.699   7.480
 1623POPC   C1B24403  42.542  34.149   8.695
 1623POPC   C2B24404  42.303  34.128   8.333
 1623POPC   C3B24405  42.357  34.276   7.948
 1623POPC   C4B24406  42.649  34.546   7.811
 1624POPC   NC324407  17.164  16.821   9.424
 1624POPC   PO424408  16.537  16.872   9.455
 1624POPC   GL124409  16.790  16.792   9.061
 1624POPC   GL224410  17.045  17.020   8.971
 1624POPC   C1A24411  16.913  16.672   8.603
 1624POPC   D2A24412  16.915  16.558   8.135
 1624POPC   C3A24413  16.607  16.644   7.805
 1624POPC   C4A24414  16.625  16.591   7.329
 1624POPC   C1B24415  16.717  17.138   8.690
 1624POPC   C2B24416  16.689  17.034   8.288
 1624POPC   C3B24417  16.821  17.094   7.883
 1624POPC   C4B24418  16.751  17.059   7.464
 1625POPC   NC324419  20.084  41.566   9.636
 1625POPC   PO424420  20.672  41.404   9.490
 1625POPC   GL124421  20.563  41.344   9.062
 1625POPC   GL224422  20.554  41.655   9.051
 1625POPC   C1A24423  20.510  41.357   8.601
 1625POPC   D2A24424  20.576  41.625   8.264
 1625POPC   C3A24425  20.590  41.428   7.889
 1625POPC   C4A24426  20.989  41.276   7.803
 1625POPC   C1B24427  20.635  41.856   8.719
 1625POPC   C2B24428  20.376  42.106   8.480
 1625POPC   C3B24429  20.414  42.061   8.068
 1625POPC   C4B24430  20.757  41.899   7.817
 1626POPC   NC324431  19.830   8.367   9.592
 1626POPC   PO424432  19.846   7.806   9.604
 1626POPC   GL124433  19.590   8.021   9.259
 1626POPC   GL224434  19.585   8.377   9.132
 1626POPC   C1A24435  19.609   8.048   8.775
 1626POPC   D2A24436  19.925   8.289   8.536
 1626POPC   C3A24437  19.847   8.295   8.106
 1626POPC   C4A24438  19.717   8.579   7.807
 1626POPC   C1B24439  19.316   8.497   8.788
 1626POPC   C2B24440  19.444   8.401   8.398
 1626POPC   C3B24441  19.303   8.380   7.994
 1626POPC   C4B24442  19.253   8.675   7.661
 1627POPC   NC324443   7.420  10.138   9.646
 1627POPC   PO424444   7.591   9.496   9.655
 1627POPC   GL124445   7.490   9.723   9.266
 1627POPC   GL224446   7.247   9.967   9.140
 1627POPC   C1A24447   7.418   9.607   8.832
 1627POPC   D2A24448   7.514   9.420   8.430
 1627POPC   C3A24449   7.273   9.395   8.031
 1627POPC   C4A24450   7.477   9.360   7.629
 1627POPC   C1B24451   7.319  10.073   8.665
 1627POPC   C2B24452   7.401   9.886   8.213
 1627POPC   C3B24453   7.298   9.831   7.738
 1627POPC   C4B24454   7.078   9.903   7.314
 1628POPC   NC324455  40.973  38.529   9.491
 1628POPC   PO424456  40.333  38.670   9.480
 1628POPC   GL124457  40.610  38.511   9.117
 1628POPC   GL224458  40.998  38.529   8.985
 1628POPC   C1A24459  40.605  38.368   8.677
 1628POPC   D2A24460  40.846  38.157   8.354
 1628POPC   C3A24461  40.686  38.272   7.960
 1628POPC   C4A24462  40.472  38.622   7.848
 1628POPC   C1B24463  40.986  38.795   8.610
 1628POPC   C2B24464  40.988  38.652   8.164
 1628POPC   C3B24465  40.963  38.604   7.695
 1628POPC   C4B24466  40.799  38.719   7.266
 1629POPC   NC324467   6.741  10.959   9.344
 1629POPC   PO424468   6.394  11.364   9.829
 1629POPC   GL124469   6.810  11.474   9.323
 1629POPC   GL224470   6.714  11.263   8.973
 1629POPC   C1A24471   6.891  11.678   8.841
 1629POPC   D2A24472   6.896  11.331   8.479
 1629POPC   C3A24473   6.776  11.421   8.039
 1629POPC   C4A24474   6.928  11.262   7.615
 1629POPC   C1B24475   6.405  11.351   8.659
 1629POPC   C2B24476   6.419  11.104   8.294
 1629POPC   C3B24477   6.254  11.084   7.892
 1629POPC   C4B24478   6.404  11.438   7.688
 1630POPC   NC324479  38.099  13.320   9.507
 1630POPC   PO424480  38.438  13.852   9.517
 1630POPC   GL124481  38.352  13.582   9.134
 1630POPC   GL224482  38.002  13.516   9.040
 1630POPC   C1A24483  38.376  13.413   8.693
 1630POPC   D2A24484  38.289  13.170   8.311
 1630POPC   C3A24485  38.347  13.470   8.003
 1630POPC   C4A24486  38.375  13.701   7.626
 1630POPC   C1B24487  38.115  13.873   8.764
 1630POPC   C2B24488  38.172  14.018   8.334
 1630POPC   C3B24489  38.034  13.946   7.898
 1630POPC   C4B24490  37.867  14.165   7.493
 1631POPC   NC324491  18.463  34.909   9.452
 1631POPC   PO424492  18.693  34.356   9.411
 1631POPC   GL124493  18.449  34.556   9.034
 1631POPC   GL224494  18.166  34.788   9.053
 1631POPC   C1A24495  18.183  34.546   8.616
 1631POPC   D2A24496  17.844  34.528   8.296
 1631POPC   C3A24497  18.065  34.462   7.914
 1631POPC   C4A24498  18.484  34.262   7.905
 1631POPC   C1B24499  18.448  34.974   8.704
 1631POPC   C2B24500  18.353  35.256   8.341
 1631POPC   C3B24501  18.366  35.204   7.870
 1631POPC   C4B24502  18.212  34.853   7.618
 1632POPC   NC324503  38.101  25.883   9.319
 1632POPC   PO424504  38.746  26.058   9.484
 1632POPC   GL124505  38.676  26.167   9.088
 1632POPC   GL224506  38.365  26.300   9.155
 1632POPC   C1A24507  38.444  26.023   8.722
 1632POPC   D2A24508  38.313  25.914   8.318
 1632POPC   C3A24509  38.475  25.965   7.908
 1632POPC   C4A24510  38.312  26.023   7.479
 1632POPC   C1B24511  38.118  26.431   8.762
 1632POPC   C2B24512  38.070  26.353   8.321
 1632POPC   C3B24513  38.157  26.344   7.869
 1632POPC   C4B24514  37.958  26.406   7.480
 1633POPC   NC324515  31.989  26.575   9.659
 1633POPC   PO424516  32.598  26.762   9.573
 1633POPC   GL124517  32.511  26.896   9.178
 1633POPC   GL224518  32.188  26.797   9.152
 1633POPC   C1A24519  32.492  26.796   8.733
 1633POPC   D2A24520  32.591  26.505   8.435
 1633POPC   C3A24521  32.333  26.658   8.104
 1633POPC   C4A24522  32.504  26.731   7.731
 1633POPC   C1B24523  32.015  27.010   8.796
 1633POPC   C2B24524  31.998  27.060   8.341
 1633POPC   C3B24525  31.830  26.859   7.968
 1633POPC   C4B24526  31.929  26.761   7.536
 1634POPC   NC324527  33.600  27.050   9.531
 1634POPC   PO424528  33.726  26.414   9.546
 1634POPC   GL124529  33.801  26.695   9.207
 1634POPC   GL224530  33.481  26.864   9.060
 1634POPC   C1A24531  33.917  26.768   8.797
 1634POPC   D2A24532  33.921  26.936   8.380
 1634POPC   C3A24533  33.818  26.611   8.087
 1634POPC   C4A24534  33.822  26.635   7.680
 1634POPC   C1B24535  33.460  26.757   8.604
 1634POPC   C2B24536  33.406  26.904   8.182
 1634POPC   C3B24537  33.727  27.080   7.926
 1634POPC   C4B24538  33.893  27.279   7.594
 1635POPC   NC324539  10.849  41.557   9.557
 1635POPC   PO424540  10.320  41.149   9.673
 1635POPC   GL124541  10.349  41.168   9.209
 1635POPC   GL224542  10.655  41.082   9.090
 1635POPC   C1A24543  10.352  41.399   8.798
 1635POPC   D2A24544  10.509  41.396   8.342
 1635POPC   C3A24545  10.264  41.612   8.014
 1635POPC   C4A24546  10.337  41.802   7.558
 1635POPC   C1B24547  10.784  41.099   8.682
 1635POPC   C2B24548  11.086  41.179   8.371
 1635POPC   C3B24549  10.978  41.474   8.048
 1635POPC   C4B24550  10.650  41.428   7.749
 1636POPC   NC324551  44.826   6.872   9.652
 1636POPC   PO424552  44.276   6.549   9.467
 1636POPC   GL124553  44.494   6.757   9.102
 1636POPC   GL224554  44.831   6.689   9.174
 1636POPC   C1A24555  44.540   7.016   8.687
 1636POPC   D2A24556  44.521   7.013   8.235
 1636POPC   C3A24557  44.507   6.607   8.084
 1636POPC   C4A24558  44.795   6.544   7.785
 1636POPC   C1B24559  44.981   6.793   8.777
 1636POPC   C2B24560  44.970   6.681   8.339
 1636POPC   C3B24561   0.001   6.949   7.992
 1636POPC   C4B24562   0.083   7.266   7.695
 1637POPC   NC324563  34.870  23.952   9.556
 1637POPC   PO424564  34.200  23.658   9.584
 1637POPC   GL124565  34.492  23.712   9.247
 1637POPC   GL224566  34.806  23.491   9.283
 1637POPC   C1A24567  34.416  23.907   8.850
 1637POPC   D2A24568  34.716  24.036   8.527
 1637POPC   C3A24569  34.590  23.892   8.130
 1637POPC   C4A24570  34.277  23.726   7.872
 1637POPC   C1B24571  34.809  23.579   8.866
 1637POPC   C2B24572  34.542  23.533   8.529
 1637POPC   C3B24573  34.617  23.384   8.147
 1637POPC   C4B24574  34.733  23.445   7.714
 1638POPC   NC324575  20.824  34.774   9.359
 1638POPC   PO424576  20.353  34.337   9.596
 1638POPC   GL124577  20.560  34.355   9.169
 1638POPC   GL224578  20.437  34.679   8.984
 1638POPC   C1A24579  20.787  34.428   8.747
 1638POPC   D2A24580  20.535  34.677   8.429
 1638POPC   C3A24581  20.583  34.558   8.026
 1638POPC   C4A24582  20.359  34.576   7.675
 1638POPC   C1B24583  20.792  34.952   8.745
 1638POPC   C2B24584  20.947  35.048   8.321
 1638POPC   C3B24585  21.036  34.882   7.941
 1638POPC   C4B24586  20.731  34.938   7.669
 1639POPC   NC324587   3.709  25.503   9.435
 1639POPC   PO424588   3.660  24.856   9.386
 1639POPC   GL124589   3.554  25.104   9.066
 1639POPC   GL224590   3.762  25.362   8.931
 1639POPC   C1A24591   3.456  24.978   8.649
 1639POPC   D2A24592   3.163  25.081   8.314
 1639POPC   C3A24593   3.250  25.465   8.114
 1639POPC   C4A24594   3.407  25.303   7.751
 1639POPC   C1B24595   4.010  25.696   8.743
 1639POPC   C2B24596   3.979  25.857   8.307
 1639POPC   C3B24597   3.874  25.584   7.942
 1639POPC   C4B24598   3.701  25.636   7.525
 1640POPC   NC324599  12.429  33.791   9.505
 1640POPC   PO424600  11.848  34.097   9.508
 1640POPC   GL124601  12.050  33.951   9.173
 1640POPC   GL224602  12.087  33.585   9.185
 1640POPC   C1A24603  12.099  34.094   8.770
 1640POPC   D2A24604  11.889  33.965   8.384
 1640POPC   C3A24605  12.129  34.198   8.081
 1640POPC   C4A24606  12.329  34.163   7.696
 1640POPC   C1B24607  11.938  33.612   8.775
 1640POPC   C2B24608  12.168  33.538   8.380
 1640POPC   C3B24609  12.062  33.698   7.954
 1640POPC   C4B24610  11.754  33.541   7.651
 1641POPC   NC324611  26.113   8.101   9.458
 1641POPC   PO424612  25.619   7.623   9.512
 1641POPC   GL124613  25.878   7.874   9.107
 1641POPC   GL224614  26.238   7.918   9.017
 1641POPC   C1A24615  25.885   8.124   8.715
 1641POPC   D2A24616  25.994   8.027   8.291
 1641POPC   C3A24617  25.923   8.295   7.934
 1641POPC   C4A24618  26.119   8.134   7.567
 1641POPC   C1B24619  26.275   7.781   8.647
 1641POPC   C2B24620  26.499   7.924   8.315
 1641POPC   C3B24621  26.429   8.157   7.994
 1641POPC   C4B24622  26.630   8.147   7.638
 1642POPC   NC324623   5.013  34.099   9.478
 1642POPC   PO424624   5.551  34.026   9.429
 1642POPC   GL124625   5.313  34.107   9.042
 1642POPC   GL224626   5.117  33.816   8.992
 1642POPC   C1A24627   5.156  34.151   8.592
 1642POPC   D2A24628   5.158  33.823   8.288
 1642POPC   C3A24629   4.971  33.806   7.877
 1642POPC   C4A24630   5.062  34.063   7.561
 1642POPC   C1B24631   4.784  33.777   8.649
 1642POPC   C2B24632   4.763  33.510   8.263
 1642POPC   C3B24633   5.168  33.373   8.073
 1642POPC   C4B24634   5.278  33.452   7.663
 1643POPC   NC324635  35.283  31.904   9.888
 1643POPC   PO424636  35.094  31.425   9.504
 1643POPC   GL124637  35.227  31.568   9.143
 1643POPC   GL224638  35.262  31.231   9.025
 1643POPC   C1A24639  35.081  31.671   8.740
 1643POPC   D2A24640  35.316  31.730   8.382
 1643POPC   C3A24641  35.069  31.745   8.037
 1643POPC   C4A24642  35.082  31.499   7.681
 1643POPC   C1B24643  35.591  31.127   8.709
 1643POPC   C2B24644  35.707  31.357   8.339
 1643POPC   C3B24645  35.483  31.415   7.976
 1643POPC   C4B24646  35.471  31.123   7.626
 1644POPC   NC324647  44.436  10.974   9.444
 1644POPC   PO424648  44.647  10.314   9.448
 1644POPC   GL124649  44.668  10.624   9.139
 1644POPC   GL224650  44.913  10.901   9.217
 1644POPC   C1A24651  44.597  10.508   8.720
 1644POPC   D2A24652  44.895  10.251   8.482
 1644POPC   C3A24653  44.772  10.125   8.084
 1644POPC   C4A24654  44.477  10.307   7.789
 1644POPC   C1B24655  44.809  10.970   8.778
 1644POPC   C2B24656  44.942  10.754   8.391
 1644POPC   C3B24657  44.818  10.641   7.974
 1644POPC   C4B24658  44.460  10.880   7.773
 1645POPC   NC324659  29.456  19.674   9.368
 1645POPC   PO424660  28.780  19.637   9.648
 1645POPC   GL124661  28.938  19.688   9.197
 1645POPC   GL224662  29.203  19.947   9.029
 1645POPC   C1A24663  29.003  19.516   8.782
 1645POPC   D2A24664  29.217  19.740   8.492
 1645POPC   C3A24665  29.197  19.670   8.081
 1645POPC   C4A24666  29.035  19.924   7.806
 1645POPC   C1B24667  29.416  20.178   8.669
 1645POPC   C2B24668  29.305  20.208   8.203
 1645POPC   C3B24669  29.431  20.246   7.764
 1645POPC   C4B24670  29.577  20.341   7.362
 1646POPC   NC324671   8.051  36.141   9.552
 1646POPC   PO424672   8.480  36.604   9.412
 1646POPC   GL124673   8.214  36.362   9.146
 1646POPC   GL224674   8.265  35.976   9.030
 1646POPC   C1A24675   7.990  36.303   8.802
 1646POPC   D2A24676   8.156  36.038   8.465
 1646POPC   C3A24677   8.004  36.136   8.022
 1646POPC   C4A24678   7.959  35.905   7.637
 1646POPC   C1B24679   8.541  36.276   8.768
 1646POPC   C2B24680   8.697  36.437   8.364
 1646POPC   C3B24681   8.516  36.163   8.066
 1646POPC   C4B24682   8.369  36.197   7.643
 1647POPC   NC324683  13.812   4.411   9.438
 1647POPC   PO424684  14.431   4.284   9.659
 1647POPC   GL124685  14.282   4.402   9.247
 1647POPC   GL224686  14.404   4.709   9.162
 1647POPC   C1A24687  14.279   4.372   8.796
 1647POPC   D2A24688  14.123   4.240   8.420
 1647POPC   C3A24689  14.364   4.085   8.127
 1647POPC   C4A24690  14.372   4.209   7.730
 1647POPC   C1B24691  14.656   4.720   8.721
 1647POPC   C2B24692  14.662   4.455   8.353
 1647POPC   C3B24693  14.709   4.540   7.903
 1647POPC   C4B24694  14.467   4.650   7.482
 1648POPC   NC324695   0.413  21.717   9.514
 1648POPC   PO424696   0.690  22.398   9.441
 1648POPC   GL124697   0.688  22.236   9.022
 1648POPC   GL224698   0.678  21.864   9.097
 1648POPC   C1A24699   0.540  22.348   8.584
 1648POPC   D2A24700   0.224  22.358   8.231
 1648POPC   C3A24701   0.333  22.369   7.780
 1648POPC   C4A24702   0.102  22.366   7.396
 1648POPC   C1B24703   0.593  21.825   8.672
 1648POPC   C2B24704   0.579  21.959   8.218
 1648POPC   C3B24705   0.527  21.864   7.781
 1648POPC   C4B24706   0.769  21.633   7.475
 1649POPC   NC324707  19.930  34.333   9.440
 1649POPC   PO424708  19.549  34.869   9.475
 1649POPC   GL124709  19.768  34.705   9.088
 1649POPC   GL224710  19.677  34.366   8.994
 1649POPC   C1A24711  19.898  34.668   8.634
 1649POPC   D2A24712  20.058  34.603   8.231
 1649POPC   C3A24713  19.775  34.481   7.912
 1649POPC   C4A24714  19.916  34.800   7.721
 1649POPC   C1B24715  20.128  34.253   8.820
 1649POPC   C2B24716  20.333  34.205   8.425
 1649POPC   C3B24717  20.198  34.192   7.979
 1649POPC   C4B24718  20.037  34.184   7.563
 1650POPC   NC324719  41.899  41.264   9.676
 1650POPC   PO424720  42.279  41.781   9.528
 1650POPC   GL124721  42.348  41.708   9.120
 1650POPC   GL224722  42.654  41.840   9.086
 1650POPC   C1A24723  42.307  41.794   8.665
 1650POPC   D2A24724  42.331  41.847   8.204
 1650POPC   C3A24725  42.264  41.439   7.957
 1650POPC   C4A24726  41.876  41.158   7.857
 1650POPC   C1B24727  42.681  41.449   8.809
 1650POPC   C2B24728  42.708  41.515   8.379
 1650POPC   C3B24729  42.780  41.720   7.997
 1650POPC   C4B24730  42.484  41.840   7.696
 1651POPC   NC324731  30.689  24.479   9.537
 1651POPC   PO424732  31.217  24.712   9.302
 1651POPC   GL124733  30.932  24.517   9.067
 1651POPC   GL224734  30.570  24.575   9.050
 1651POPC   C1A24735  30.959  24.476   8.655
 1651POPC   D2A24736  30.791  24.450   8.260
 1651POPC   C3A24737  30.901  24.693   7.937
 1651POPC   C4A24738  30.979  24.534   7.565
 1651POPC   C1B24739  30.500  24.734   8.617
 1651POPC   C2B24740  30.385  24.753   8.206
 1651POPC   C3B24741  30.436  24.472   7.883
 1651POPC   C4B24742  30.530  24.777   7.568
 1652POPC   NC324743  15.800  38.632   9.641
 1652POPC   PO424744  15.720  38.051   9.424
 1652POPC   GL124745  15.892  38.314   9.089
 1652POPC   GL224746  15.990  38.651   9.159
 1652POPC   C1A24747  15.802  38.559   8.706
 1652POPC   D2A24748  15.964  38.693   8.365
 1652POPC   C3A24749  15.915  38.405   8.042
 1652POPC   C4A24750  15.647  38.385   7.735
 1652POPC   C1B24751  16.309  38.688   8.821
 1652POPC   C2B24752  16.476  38.819   8.411
 1652POPC   C3B24753  16.323  38.716   8.031
 1652POPC   C4B24754  16.368  38.441   7.729
 1653POPC   NC324755   7.481  40.567   9.453
 1653POPC   PO424756   7.338  41.216   9.525
 1653POPC   GL124757   7.541  41.014   9.178
 1653POPC   GL224758   7.235  40.800   9.063
 1653POPC   C1A24759   7.674  40.744   8.819
 1653POPC   D2A24760   7.425  40.602   8.466
 1653POPC   C3A24761   7.642  40.748   8.086
 1653POPC   C4A24762   7.525  40.660   7.642
 1653POPC   C1B24763   7.271  41.130   8.742
 1653POPC   C2B24764   7.365  41.102   8.323
 1653POPC   C3B24765   7.215  40.976   7.940
 1653POPC   C4B24766   7.114  41.220   7.627
 1654POPC   NC324767   3.451   2.940   9.446
 1654POPC   PO424768   3.966   2.513   9.494
 1654POPC   GL124769   3.739   2.648   9.094
 1654POPC   GL224770   3.393   2.543   9.135
 1654POPC   C1A24771   3.543   2.761   8.662
 1654POPC   D2A24772   3.330   2.975   8.276
 1654POPC   C3A24773   3.553   2.797   7.880
 1654POPC   C4A24774   3.936   2.544   7.765
 1654POPC   C1B24775   3.159   2.430   8.797
 1654POPC   C2B24776   3.133   2.513   8.365
 1654POPC   C3B24777   3.151   2.439   7.928
 1654POPC   C4B24778   3.158   2.669   7.563
 1655POPC   NC324779  14.897  18.240   9.396
 1655POPC   PO424780  15.506  18.381   9.363
 1655POPC   GL124781  15.204  18.348   8.987
 1655POPC   GL224782  14.870  18.583   9.005
 1655POPC   C1A24783  15.336  18.457   8.556
 1655POPC   D2A24784  15.604  18.369   8.182
 1655POPC   C3A24785  15.386  18.155   7.868
 1655POPC   C4A24786  14.973  18.254   7.758
 1655POPC   C1B24787  14.830  18.302   8.624
 1655POPC   C2B24788  15.091  18.066   8.300
 1655POPC   C3B24789  15.042  17.772   7.944
 1655POPC   C4B24790  15.127  17.822   7.520
 1656POPC   NC324791  31.234  18.323   9.496
 1656POPC   PO424792  31.641  18.690   9.064
 1656POPC   GL124793  31.491  18.249   9.063
 1656POPC   GL224794  31.696  17.963   9.188
 1656POPC   C1A24795  31.415  18.109   8.671
 1656POPC   D2A24796  31.403  18.430   8.350
 1656POPC   C3A24797  31.034  18.425   8.098
 1656POPC   C4A24798  31.320  18.271   7.781
 1656POPC   C1B24799  31.946  18.077   8.813
 1656POPC   C2B24800  31.840  17.943   8.416
 1656POPC   C3B24801  31.546  17.965   8.132
 1656POPC   C4B24802  31.566  17.794   7.744
 1657POPC   NC324803   8.775   3.646   9.348
 1657POPC   PO424804   9.312   3.303   9.598
 1657POPC   GL124805   9.177   3.439   9.146
 1657POPC   GL224806   8.923   3.217   9.111
 1657POPC   C1A24807   9.018   3.666   8.737
 1657POPC   D2A24808   8.891   3.526   8.310
 1657POPC   C3A24809   9.081   3.504   7.921
 1657POPC   C4A24810   8.849   3.784   7.734
 1657POPC   C1B24811   8.759   3.221   8.687
 1657POPC   C2B24812   8.529   3.181   8.315
 1657POPC   C3B24813   8.573   3.351   7.929
 1657POPC   C4B24814   8.746   3.234   7.580
 1658POPC   NC324815  35.273  15.788   9.511
 1658POPC   PO424816  35.507  15.035   9.478
 1658POPC   GL124817  35.382  15.372   9.213
 1658POPC   GL224818  35.040  15.480   9.174
 1658POPC   C1A24819  35.428  15.383   8.786
 1658POPC   D2A24820  35.711  15.169   8.495
 1658POPC   C3A24821  35.560  15.217   8.081
 1658POPC   C4A24822  35.395  14.919   7.794
 1658POPC   C1B24823  34.925  15.455   8.739
 1658POPC   C2B24824  35.161  15.444   8.337
 1658POPC   C3B24825  35.053  15.299   7.920
 1658POPC   C4B24826  34.980  15.520   7.568
 1659POPC   NC324827  26.503  24.801   9.816
 1659POPC   PO424828  26.863  24.318   9.603
 1659POPC   GL124829  26.819  24.392   9.165
 1659POPC   GL224830  27.026  24.654   9.126
 1659POPC   C1A24831  26.705  24.562   8.722
 1659POPC   D2A24832  26.645  24.807   8.353
 1659POPC   C3A24833  26.817  24.758   7.953
 1659POPC   C4A24834  26.690  24.461   7.621
 1659POPC   C1B24835  27.184  24.378   8.766
 1659POPC   C2B24836  27.073  24.401   8.313
 1659POPC   C3B24837  27.153  24.380   7.869
 1659POPC   C4B24838  27.151  24.453   7.402
 1660POPC   NC324839  43.305  12.705   9.609
 1660POPC   PO424840  43.961  12.770   9.580
 1660POPC   GL124841  43.924  12.782   9.204
 1660POPC   GL224842  43.637  12.592   9.174
 1660POPC   C1A24843  44.019  13.012   8.838
 1660POPC   D2A24844  43.807  13.172   8.467
 1660POPC   C3A24845  43.946  13.008   8.056
 1660POPC   C4A24846  43.832  12.986   7.628
 1660POPC   C1B24847  43.900  12.498   8.799
 1660POPC   C2B24848  44.045  12.674   8.437
 1660POPC   C3B24849  44.114  12.492   8.051
 1660POPC   C4B24850  44.178  12.584   7.647
 1661POPC   NC324851   5.536  38.242   9.521
 1661POPC   PO424852   6.178  38.014   9.583
 1661POPC   GL124853   5.985  38.389   9.266
 1661POPC   GL224854   5.654  38.521   9.120
 1661POPC   C1A24855   6.075  38.542   8.822
 1661POPC   D2A24856   6.011  38.414   8.409
 1661POPC   C3A24857   6.189  38.539   8.012
 1661POPC   C4A24858   6.193  38.677   7.571
 1661POPC   C1B24859   5.581  38.562   8.677
 1661POPC   C2B24860   5.562  38.611   8.268
 1661POPC   C3B24861   5.702  38.400   7.931
 1661POPC   C4B24862   5.556  38.288   7.548
 1662POPC   NC324863   7.836  37.805   9.491
 1662POPC   PO424864   7.384  37.551   9.860
 1662POPC   GL124865   7.410  37.524   9.312
 1662POPC   GL224866   7.605  37.724   9.051
 1662POPC   C1A24867   7.169  37.585   8.874
 1662POPC   D2A24868   7.446  37.772   8.531
 1662POPC   C3A24869   7.356  37.651   8.132
 1662POPC   C4A24870   7.331  37.733   7.687
 1662POPC   C1B24871   7.640  37.364   8.775
 1662POPC   C2B24872   7.708  37.314   8.340
 1662POPC   C3B24873   7.797  37.514   7.938
 1662POPC   C4B24874   7.697  37.398   7.541
 1663POPC   NC324875  26.490  26.116   9.546
 1663POPC   PO424876  27.017  26.045   9.563
 1663POPC   GL124877  26.926  25.913   9.129
 1663POPC   GL224878  26.605  25.920   9.117
 1663POPC   C1A24879  26.797  25.652   8.755
 1663POPC   D2A24880  26.725  25.776   8.338
 1663POPC   C3A24881  26.475  25.729   8.001
 1663POPC   C4A24882  26.582  25.735   7.606
 1663POPC   C1B24883  26.657  26.165   8.736
 1663POPC   C2B24884  26.579  26.259   8.313
 1663POPC   C3B24885  26.755  26.150   7.919
 1663POPC   C4B24886  26.434  26.210   7.667
 1664POPC   NC324887  30.383  22.966   9.260
 1664POPC   PO424888  30.974  22.814   9.538
 1664POPC   GL124889  30.885  22.934   9.129
 1664POPC   GL224890  30.744  22.600   9.060
 1664POPC   C1A24891  30.821  23.182   8.726
 1664POPC   D2A24892  30.464  23.146   8.385
 1664POPC   C3A24893  30.568  23.106   7.892
 1664POPC   C4A24894  30.447  23.143   7.422
 1664POPC   C1B24895  30.676  22.696   8.635
 1664POPC   C2B24896  30.891  22.896   8.288
 1664POPC   C3B24897  31.080  22.897   7.898
 1664POPC   C4B24898  30.821  22.788   7.551
 1665POPC   NC324899   3.509  37.700   9.710
 1665POPC   PO424900   3.980  37.561   9.243
 1665POPC   GL124901   3.807  37.875   9.010
 1665POPC   GL224902   3.523  37.877   9.237
 1665POPC   C1A24903   3.700  37.861   8.560
 1665POPC   D2A24904   3.522  37.554   8.272
 1665POPC   C3A24905   3.634  37.748   7.912
 1665POPC   C4A24906   3.842  38.120   7.812
 1665POPC   C1B24907   3.296  37.875   8.857
 1665POPC   C2B24908   3.196  37.950   8.377
 1665POPC   C3B24909   3.124  37.707   7.963
 1665POPC   C4B24910   3.325  37.691   7.514
 1666POPC   NC324911  44.945   8.502   9.518
 1666POPC   PO424912   0.659   8.686   9.555
 1666POPC   GL124913   0.575   8.920   9.122
 1666POPC   GL224914   0.237   9.122   9.084
 1666POPC   C1A24915   0.476   8.909   8.670
 1666POPC   D2A24916   0.213   8.815   8.310
 1666POPC   C3A24917   0.487   8.895   7.999
 1666POPC   C4A24918   0.762   8.622   7.804
 1666POPC   C1B24919   0.027   9.127   8.662
 1666POPC   C2B24920   0.216   9.324   8.283
 1666POPC   C3B24921   0.153   9.236   7.833
 1666POPC   C4B24922   0.034   9.151   7.399
 1667POPC   NC324923  38.016   1.063   9.472
 1667POPC   PO424924  37.360   1.333   9.453
 1667POPC   GL124925  37.689   1.307   9.143
 1667POPC   GL224926  37.726   0.960   9.051
 1667POPC   C1A24927  37.739   1.349   8.706
 1667POPC   D2A24928  37.900   1.250   8.313
 1667POPC   C3A24929  37.808   1.469   7.958
 1667POPC   C4A24930  37.627   1.296   7.598
 1667POPC   C1B24931  37.889   0.821   8.646
 1667POPC   C2B24932  37.786   0.779   8.197
 1667POPC   C3B24933  37.997   1.005   7.842
 1667POPC   C4B24934  38.008   0.985   7.373
 1668POPC   NC324935  28.555  27.311   9.501
 1668POPC   PO424936  28.519  28.001   9.374
 1668POPC   GL124937  28.297  27.663   9.149
 1668POPC   GL224938  28.409  27.317   9.023
 1668POPC   C1A24939  28.103  27.618   8.742
 1668POPC   D2A24940  28.183  27.332   8.394
 1668POPC   C3A24941  28.207  27.417   7.981
 1668POPC   C4A24942  28.125  27.337   7.579
 1668POPC   C1B24943  28.612  27.293   8.663
 1668POPC   C2B24944  28.725  27.506   8.310
 1668POPC   C3B24945  28.682  27.551   7.893
 1668POPC   C4B24946  28.864  27.826   7.643
 1669POPC   NC324947  11.719  37.571   9.467
 1669POPC   PO424948  12.401  37.455   9.541
 1669POPC   GL124949  12.162  37.592   9.215
 1669POPC   GL224950  12.180  37.914   9.311
 1669POPC   C1A24951  11.886  37.783   8.877
 1669POPC   D2A24952  11.859  37.647   8.463
 1669POPC   C3A24953  11.813  37.882   8.106
 1669POPC   C4A24954  12.063  37.746   7.760
 1669POPC   C1B24955  12.389  37.909   8.891
 1669POPC   C2B24956  12.251  38.019   8.496
 1669POPC   C3B24957  12.265  38.112   8.052
 1669POPC   C4B24958  12.263  38.190   7.587
 1670POPC   NC324959  31.845  32.157   9.400
 1670POPC   PO424960  31.179  32.099   9.452
 1670POPC   GL124961  31.432  32.329   9.145
 1670POPC   GL224962  31.694  32.597   9.229
 1670POPC   C1A24963  31.533  32.156   8.726
 1670POPC   D2A24964  31.264  32.205   8.372
 1670POPC   C3A24965  31.531  32.223   8.004
 1670POPC   C4A24966  31.385  32.152   7.605
 1670POPC   C1B24967  31.686  32.639   8.791
 1670POPC   C2B24968  31.774  32.498   8.383
 1670POPC   C3B24969  31.807  32.676   7.990
 1670POPC   C4B24970  31.824  32.454   7.589
 1671POPC   NC324971   7.277  44.340   9.412
 1671POPC   PO424972   7.320  43.658   9.500
 1671POPC   GL124973   7.333  43.815   9.127
 1671POPC   GL224974   7.673  43.839   9.085
 1671POPC   C1A24975   7.426  43.586   8.749
 1671POPC   D2A24976   7.733  43.661   8.502
 1671POPC   C3A24977   7.566  43.623   8.110
 1671POPC   C4A24978   7.446  43.835   7.757
 1671POPC   C1B24979   7.456  44.177   8.781
 1671POPC   C2B24980   7.373  44.421   8.398
 1671POPC   C3B24981   7.438  44.300   7.974
 1671POPC   C4B24982   7.698  44.249   7.598
 1672POPC   NC324983   0.728   3.099   9.428
 1672POPC   PO424984   1.089   2.505   9.445
 1672POPC   GL124985   1.172   2.834   9.185
 1672POPC   GL224986   1.446   2.630   9.019
 1672POPC   C1A24987   1.138   3.093   8.802
 1672POPC   D2A24988   1.269   2.996   8.391
 1672POPC   C3A24989   1.175   3.184   8.016
 1672POPC   C4A24990   1.294   2.970   7.674
 1672POPC   C1B24991   1.077   2.553   8.769
 1672POPC   C2B24992   0.926   2.542   8.381
 1672POPC   C3B24993   1.149   2.619   8.028
 1672POPC   C4B24994   0.793   2.792   7.850
 1673POPC   NC324995   7.322  28.112   9.540
 1673POPC   PO424996   6.908  28.627   9.436
 1673POPC   GL124997   7.142  28.410   9.134
 1673POPC   GL224998   7.162  28.040   9.047
 1673POPC   C1A24999   7.335  28.412   8.732
 1673POPC   D2A25000   7.715  28.367   8.455
 1673POPC   C3A25001   7.674  28.565   8.019
 1673POPC   C4A25002   7.319  28.528   7.752
 1673POPC   C1B25003   7.114  27.978   8.564
 1673POPC   C2B25004   7.301  28.208   8.213
 1673POPC   C3B25005   7.532  28.082   7.863
 1673POPC   C4B25006   7.122  27.952   7.700
 1674POPC   NC325007  31.620  24.116   9.586
 1674POPC   PO425008  31.453  24.642   9.937
 1674POPC   GL125009  31.715  24.574   9.402
 1674POPC   GL225010  31.520  24.337   9.159
 1674POPC   C1A25011  31.733  24.684   8.903
 1674POPC   D2A25012  31.435  24.656   8.543
 1674POPC   C3A25013  31.575  24.600   8.107
 1674POPC   C4A25014  31.681  24.687   7.668
 1674POPC   C1B25015  31.533  24.191   8.740
 1674POPC   C2B25016  31.285  24.202   8.349
 1674POPC   C3B25017  31.245  24.266   7.904
 1674POPC   C4B25018  31.436  24.283   7.485
 1675POPC   NC325019  36.605  11.698   9.707
 1675POPC   PO425020  37.090  11.222   9.529
 1675POPC   GL125021  36.716  11.319   9.202
 1675POPC   GL225022  36.668  11.584   8.871
 1675POPC   C1A25023  36.602  11.102   8.822
 1675POPC   D2A25024  36.882  11.185   8.458
 1675POPC   C3A25025  36.780  10.990   8.084
 1675POPC   C4A25026  36.754  11.143   7.686
 1675POPC   C1B25027  37.073  11.635   8.634
 1675POPC   C2B25028  37.230  11.666   8.214
 1675POPC   C3B25029  37.067  11.537   7.801
 1675POPC   C4B25030  36.849  11.533   7.383
 1676POPC   NC325031  44.304  16.552   9.475
 1676POPC   PO425032  44.953  16.649   9.555
 1676POPC   GL125033  44.719  16.698   9.214
 1676POPC   GL225034  44.819  16.433   9.062
 1676POPC   C1A25035  44.703  16.962   8.883
 1676POPC   D2A25036  44.637  17.050   8.440
 1676POPC   C3A25037  44.675  16.877   8.047
 1676POPC   C4A25038  44.650  16.823   7.641
 1676POPC   C1B25039  44.873  16.584   8.610
 1676POPC   C2B25040  44.959  16.498   8.195
 1676POPC   C3B25041  44.999  16.466   7.770
 1676POPC   C4B25042  44.737  16.222   7.499
 1677POPC   NC325043  14.305  21.228   9.573
 1677POPC   PO425044  14.622  21.845   9.527
 1677POPC   GL125045  14.401  21.552   9.201
 1677POPC   GL225046  14.586  21.245   9.108
 1677POPC   C1A25047  14.139  21.252   8.913
 1677POPC   D2A25048  14.050  21.321   8.498
 1677POPC   C3A25049  14.309  21.227   8.140
 1677POPC   C4A25050  14.177  21.285   7.729
 1677POPC   C1B25051  14.529  21.520   8.718
 1677POPC   C2B25052  14.490  21.678   8.310
 1677POPC   C3B25053  14.793  21.451   8.079
 1677POPC   C4B25054  14.717  21.202   7.710
 1678POPC   NC325055  16.808  39.876   9.599
 1678POPC   PO425056  16.510  40.196   9.252
 1678POPC   GL125057  16.779  39.951   9.068
 1678POPC   GL225058  16.609  39.636   9.182
 1678POPC   C1A25059  16.904  40.198   8.725
 1678POPC   D2A25060  16.973  40.480   8.410
 1678POPC   C3A25061  16.737  40.321   8.130
 1678POPC   C4A25062  16.949  40.207   7.814
 1678POPC   C1B25063  16.511  39.671   8.746
 1678POPC   C2B25064  16.659  39.890   8.401
 1678POPC   C3B25065  16.727  39.790   8.022
 1678POPC   C4B25066  16.483  39.614   7.720
 1679POPC   NC325067  16.443  39.252   9.504
 1679POPC   PO425068  17.061  39.178   9.453
 1679POPC   GL125069  16.764  39.060   9.152
 1679POPC   GL225070  16.925  39.309   8.974
 1679POPC   C1A25071  16.477  39.173   8.785
 1679POPC   D2A25072  16.603  39.354   8.358
 1679POPC   C3A25073  16.426  39.200   7.988
 1679POPC   C4A25074  16.508  39.084   7.549
 1679POPC   C1B25075  16.988  39.574   8.632
 1679POPC   C2B25076  17.095  39.502   8.224
 1679POPC   C3B25077  16.906  39.317   7.837
 1679POPC   C4B25078  16.915  39.322   7.351
 1680POPC   NC325079  30.712  10.473   9.556
 1680POPC   PO425080  30.412  10.954   9.159
 1680POPC   GL125081  30.579  10.522   9.051
 1680POPC   GL225082  30.952  10.473   9.103
 1680POPC   C1A25083  30.473  10.394   8.634
 1680POPC   D2A25084  30.279  10.679   8.286
 1680POPC   C3A25085  30.498  10.710   7.887
 1680POPC   C4A25086  30.943  10.715   7.810
 1680POPC   C1B25087  30.941  10.111   8.813
 1680POPC   C2B25088  30.844  10.117   8.381
 1680POPC   C3B25089  30.824  10.221   7.955
 1680POPC   C4B25090  30.927   9.963   7.612
 1681POPC   NC325091  18.828  44.788   9.506
 1681POPC   PO425092  19.537  44.871   9.533
 1681POPC   GL125093  19.217  44.633   9.179
 1681POPC   GL225094  18.826  44.515   9.084
 1681POPC   C1A25095  19.183  44.539   8.713
 1681POPC   D2A25096  19.079  44.821   8.323
 1681POPC   C3A25097  19.134  44.640   7.911
 1681POPC   C4A25098  19.115  44.830   7.489
 1681POPC   C1B25099  18.742  44.797   8.721
 1681POPC   C2B25100  18.560  44.898   8.299
 1681POPC   C3B25101  18.759   0.010   7.873
 1681POPC   C4B25102  18.655   0.007   7.375
 1682POPC   NC325103  28.918  23.328   9.487
 1682POPC   PO425104  29.131  24.027   9.489
 1682POPC   GL125105  29.071  23.728   9.180
 1682POPC   GL225106  29.284  23.436   9.155
 1682POPC   C1A25107  28.987  23.633   8.771
 1682POPC   D2A25108  29.114  23.843   8.428
 1682POPC   C3A25109  28.937  23.640   8.099
 1682POPC   C4A25110  28.919  23.780   7.721
 1682POPC   C1B25111  29.492  23.496   8.777
 1682POPC   C2B25112  29.626  23.717   8.401
 1682POPC   C3B25113  29.426  23.786   8.013
 1682POPC   C4B25114  29.325  23.428   7.759
 1683POPC   NC325115  34.473  15.857   9.478
 1683POPC   PO425116  34.838  16.352   9.749
 1683POPC   GL125117  34.626  16.303   9.258
 1683POPC   GL225118  34.313  16.476   9.153
 1683POPC   C1A25119  34.693  16.097   8.838
 1683POPC   D2A25120  34.718  16.173   8.394
 1683POPC   C3A25121  34.859  15.849   8.092
 1683POPC   C4A25122  34.731  15.961   7.671
 1683POPC   C1B25123  34.391  16.482   8.735
 1683POPC   C2B25124  34.225  16.407   8.339
 1683POPC   C3B25125  34.337  16.194   7.960
 1683POPC   C4B25126  34.200  16.293   7.518
 1684POPC   NC325127   0.341  27.145   9.521
 1684POPC   PO425128   0.754  26.591   9.594
 1684POPC   GL125129   0.549  26.846   9.189
 1684POPC   GL225130   0.242  26.688   8.990
 1684POPC   C1A25131   0.554  26.980   8.727
 1684POPC   D2A25132   0.649  26.990   8.275
 1684POPC   C3A25133   0.533  26.629   7.998
 1684POPC   C4A25134   0.678  26.617   7.547
 1684POPC   C1B25135   0.050  27.061   8.819
 1684POPC   C2B25136   0.168  27.206   8.406
 1684POPC   C3B25137   0.169  27.001   8.008
 1684POPC   C4B25138   0.311  27.086   7.597
 1685POPC   NC325139  44.364  39.397   9.577
 1685POPC   PO425140  43.655  39.265   9.487
 1685POPC   GL125141  43.726  39.082   9.106
 1685POPC   GL225142  44.092  39.152   9.182
 1685POPC   C1A25143  43.635  39.272   8.721
 1685POPC   D2A25144  43.851  39.424   8.413
 1685POPC   C3A25145  43.645  39.296   8.082
 1685POPC   C4A25146  43.632  39.165   7.681
 1685POPC   C1B25147  44.074  39.004   8.737
 1685POPC   C2B25148  44.162  39.028   8.294
 1685POPC   C3B25149  44.117  39.222   7.892
 1685POPC   C4B25150  44.084  39.001   7.464
 1686POPC   NC325151  42.582  24.793   9.454
 1686POPC   PO425152  42.149  25.429   9.411
 1686POPC   GL125153  42.387  25.360   9.080
 1686POPC   GL225154  42.323  25.036   9.107
 1686POPC   C1A25155  42.282  25.294   8.678
 1686POPC   D2A25156  42.059  25.393   8.363
 1686POPC   C3A25157  42.263  25.150   8.136
 1686POPC   C4A25158  42.310  25.098   7.732
 1686POPC   C1B25159  42.494  24.859   8.781
 1686POPC   C2B25160  42.698  25.043   8.440
 1686POPC   C3B25161  42.728  24.989   8.013
 1686POPC   C4B25162  42.779  25.208   7.606
 1687POPC   NC325163  10.618   0.381   9.615
 1687POPC   PO425164  10.123   0.712   9.428
 1687POPC   GL125165  10.493   0.639   9.148
 1687POPC   GL225166  10.625   0.283   9.120
 1687POPC   C1A25167  10.631   0.591   8.714
 1687POPC   D2A25168  10.752   0.319   8.386
 1687POPC   C3A25169  10.870   0.561   8.030
 1687POPC   C4A25170  10.541   0.685   7.842
 1687POPC   C1B25171  10.679  44.995   8.768
 1687POPC   C2B25172  10.788  44.794   8.354
 1687POPC   C3B25173  10.891   0.048   7.991
 1687POPC   C4B25174  10.721   0.266   7.621
 1688POPC   NC325175  14.095   2.790   9.739
 1688POPC   PO425176  14.581   2.571   9.342
 1688POPC   GL125177  14.407   2.799   9.086
 1688POPC   GL225178  14.068   2.769   9.186
 1688POPC   C1A25179  14.551   2.704   8.684
 1688POPC   D2A25180  14.407   2.574   8.313
 1688POPC   C3A25181  14.626   2.717   7.954
 1688POPC   C4A25182  14.509   2.714   7.548
 1688POPC   C1B25183  14.036   2.860   8.735
 1688POPC   C2B25184  13.858   2.890   8.338
 1688POPC   C3B25185  14.152   2.907   8.012
 1688POPC   C4B25186  14.227   3.132   7.657
 1689POPC   NC325187  35.745  16.361   9.443
 1689POPC   PO425188  35.112  16.226   9.333
 1689POPC   GL125189  35.155  15.956   9.018
 1689POPC   GL225190  35.474  15.862   9.053
 1689POPC   C1A25191  35.124  15.892   8.588
 1689POPC   D2A25192  35.330  16.002   8.233
 1689POPC   C3A25193  35.406  15.695   7.955
 1689POPC   C4A25194  35.404  15.900   7.631
 1689POPC   C1B25195  35.580  16.107   8.686
 1689POPC   C2B25196  35.775  16.229   8.327
 1689POPC   C3B25197  35.824  16.041   7.941
 1689POPC   C4B25198  35.862  16.080   7.480
 1690POPC   NC325199   0.373  30.496   9.510
 1690POPC   PO425200  44.986  29.937   9.448
 1690POPC   GL125201   0.152  30.202   9.102
 1690POPC   GL225202   0.512  30.311   9.039
 1690POPC   C1A25203   0.284  30.005   8.699
 1690POPC   D2A25204   0.563  29.868   8.390
 1690POPC   C3A25205   0.383  29.768   7.995
 1690POPC   C4A25206   0.106  30.025   7.733
 1690POPC   C1B25207   0.705  30.289   8.618
 1690POPC   C2B25208   0.799  30.292   8.164
 1690POPC   C3B25209   0.605  30.162   7.747
 1690POPC   C4B25210   0.697  30.258   7.304
 1691POPC   NC325211  36.017  34.571   9.368
 1691POPC   PO425212  36.539  34.961   9.451
 1691POPC   GL125213  36.417  34.752   9.052
 1691POPC   GL225214  36.359  34.372   9.060
 1691POPC   C1A25215  36.069  34.745   8.751
 1691POPC   D2A25216  35.904  34.575   8.387
 1691POPC   C3A25217  36.180  34.624   8.086
 1691POPC   C4A25218  35.967  34.682   7.766
 1691POPC   C1B25219  36.082  34.244   8.754
 1691POPC   C2B25220  36.186  34.139   8.348
 1691POPC   C3B25221  35.938  34.196   8.005
 1691POPC   C4B25222  36.172  34.191   7.673
 1692POPC   NC325223  26.979  10.099   9.387
 1692POPC   PO425224  26.603   9.645   9.594
 1692POPC   GL125225  26.694   9.570   9.132
 1692POPC   GL225226  26.927   9.276   9.115
 1692POPC   C1A25227  26.784   9.875   8.751
 1692POPC   D2A25228  27.033  10.038   8.345
 1692POPC   C3A25229  26.827   9.985   7.929
 1692POPC   C4A25230  26.646   9.718   7.603
 1692POPC   C1B25231  27.077   9.454   8.718
 1692POPC   C2B25232  26.825   9.579   8.336
 1692POPC   C3B25233  26.903   9.467   7.946
 1692POPC   C4B25234  27.236   9.207   7.871
 1693POPC   NC325235  27.912  16.261   9.504
 1693POPC   PO425236  27.370  15.825   9.578
 1693POPC   GL125237  27.622  15.851   9.177
 1693POPC   GL225238  27.606  16.196   9.100
 1693POPC   C1A25239  27.609  15.794   8.687
 1693POPC   D2A25240  27.861  15.867   8.303
 1693POPC   C3A25241  27.623  16.061   7.976
 1693POPC   C4A25242  27.596  15.883   7.612
 1693POPC   C1B25243  27.898  16.200   8.756
 1693POPC   C2B25244  27.806  16.371   8.347
 1693POPC   C3B25245  28.073  16.332   7.987
 1693POPC   C4B25246  28.006  16.283   7.532
 1694POPC   NC325247  20.205  21.653   9.714
 1694POPC   PO425248  20.018  21.035   9.558
 1694POPC   GL125249  19.865  21.257   9.179
 1694POPC   GL225250  19.669  21.574   9.118
 1694POPC   C1A25251  19.892  21.197   8.747
 1694POPC   D2A25252  19.587  21.298   8.462
 1694POPC   C3A25253  19.569  21.175   8.037
 1694POPC   C4A25254  19.970  21.124   7.849
 1694POPC   C1B25255  19.791  21.719   8.671
 1694POPC   C2B25256  19.966  21.989   8.318
 1694POPC   C3B25257  20.064  21.920   7.870
 1694POPC   C4B25258  19.887  21.602   7.587
 1695POPC   NC325259   2.568  16.149   9.311
 1695POPC   PO425260   2.804  16.704   9.690
 1695POPC   GL125261   2.803  16.672   9.260
 1695POPC   GL225262   3.138  16.648   9.100
 1695POPC   C1A25263   2.684  16.637   8.844
 1695POPC   D2A25264   2.457  16.824   8.471
 1695POPC   C3A25265   2.631  16.731   8.044
 1695POPC   C4A25266   2.766  16.854   7.608
 1695POPC   C1B25267   3.210  16.927   8.744
 1695POPC   C2B25268   3.075  16.866   8.312
 1695POPC   C3B25269   3.186  16.820   7.873
 1695POPC   C4B25270   3.213  17.053   7.470
 1696POPC   NC325271   2.628  16.256   9.838
 1696POPC   PO425272   3.058  16.218   9.358
 1696POPC   GL125273   3.035  15.962   9.027
 1696POPC   GL225274   3.315  16.138   8.899
 1696POPC   C1A25275   2.830  15.897   8.622
 1696POPC   D2A25276   2.406  15.946   8.435
 1696POPC   C3A25277   2.347  15.962   7.984
 1696POPC   C4A25278   2.489  16.053   7.574
 1696POPC   C1B25279   3.110  16.421   8.641
 1696POPC   C2B25280   2.745  16.376   8.426
 1696POPC   C3B25281   2.792  16.165   8.114
 1696POPC   C4B25282   2.863  16.370   7.749
 1697POPC   NC325283  22.386   5.409   9.411
 1697POPC   PO425284  22.711   4.756   9.399
 1697POPC   GL125285  22.468   5.013   9.103
 1697POPC   GL225286  22.129   4.939   9.168
 1697POPC   C1A25287  22.261   5.173   8.715
 1697POPC   D2A25288  21.946   5.094   8.374
 1697POPC   C3A25289  22.111   5.113   7.960
 1697POPC   C4A25290  22.147   5.446   7.629
 1697POPC   C1B25291  22.039   4.710   8.768
 1697POPC   C2B25292  21.897   4.546   8.348
 1697POPC   C3B25293  21.757   4.666   7.942
 1697POPC   C4B25294  21.701   4.828   7.527
 1698POPC   NC325295   2.191  24.999   9.508
 1698POPC   PO425296   2.314  25.730   9.462
 1698POPC   GL125297   2.034  25.585   9.098
 1698POPC   GL225298   2.049  25.218   9.077
 1698POPC   C1A25299   1.958  25.425   8.642
 1698POPC   D2A25300   1.723  25.479   8.248
 1698POPC   C3A25301   2.032  25.439   7.898
 1698POPC   C4A25302   2.041  25.435   7.419
 1698POPC   C1B25303   1.867  24.928   8.738
 1698POPC   C2B25304   1.706  24.966   8.337
 1698POPC   C3B25305   1.780  24.983   7.896
 1698POPC   C4B25306   1.726  24.958   7.449
 1699POPC   NC325307  23.370  10.830   9.473
 1699POPC   PO425308  23.890  11.281   9.540
 1699POPC   GL125309  23.736  11.318   9.135
 1699POPC   GL225310  23.911  11.615   9.028
 1699POPC   C1A25311  23.484  11.091   8.807
 1699POPC   D2A25312  23.476  11.032   8.368
 1699POPC   C3A25313  23.548  11.380   8.152
 1699POPC   C4A25314  23.390  11.313   7.774
 1699POPC   C1B25315  23.795  11.462   8.633
 1699POPC   C2B25316  24.032  11.359   8.291
 1699POPC   C3B25317  23.949  11.061   7.992
 1699POPC   C4B25318  23.840  11.097   7.584
 1700POPC   NC325319  32.721  14.823   9.508
 1700POPC   PO425320  33.305  14.435   9.528
 1700POPC   GL125321  33.103  14.644   9.175
 1700POPC   GL225322  32.995  14.361   8.990
 1700POPC   C1A25323  32.825  14.805   8.827
 1700POPC   D2A25324  32.706  14.780   8.378
 1700POPC   C3A25325  33.081  14.701   8.072
 1700POPC   C4A25326  33.073  14.409   7.723
 1700POPC   C1B25327  33.246  14.552   8.673
 1700POPC   C2B25328  33.161  14.287   8.358
 1700POPC   C3B25329  33.283  14.068   8.029
 1700POPC   C4B25330  33.251  13.950   7.679
 1701POPC   NC325331  31.723  38.042   9.344
 1701POPC   PO425332  31.358  37.615   9.528
 1701POPC   GL125333  31.571  37.577   9.158
 1701POPC   GL225334  31.313  37.323   9.070
 1701POPC   C1A25335  31.652  37.520   8.719
 1701POPC   D2A25336  31.888  37.595   8.330
 1701POPC   C3A25337  31.621  37.719   7.969
 1701POPC   C4A25338  31.428  37.780   7.547
 1701POPC   C1B25339  31.169  37.307   8.683
 1701POPC   C2B25340  31.318  37.474   8.320
 1701POPC   C3B25341  31.305  37.307   7.941
 1701POPC   C4B25342  31.054  37.408   7.622
 1702POPC   NC325343  35.015  14.951   9.237
 1702POPC   PO425344  34.616  15.417   9.475
 1702POPC   GL125345  34.570  15.300   9.085
 1702POPC   GL225346  34.541  15.652   9.011
 1702POPC   C1A25347  34.428  15.263   8.677
 1702POPC   D2A25348  34.658  15.330   8.296
 1702POPC   C3A25349  34.599  15.018   7.969
 1702POPC   C4A25350  34.646  15.124   7.548
 1702POPC   C1B25351  34.302  15.768   8.652
 1702POPC   C2B25352  34.356  15.737   8.194
 1702POPC   C3B25353  34.540  15.524   7.833
 1702POPC   C4B25354  34.498  15.560   7.348
 1703POPC   NC325355  21.617  43.574   9.962
 1703POPC   PO425356  21.149  43.532   9.629
 1703POPC   GL125357  21.218  43.289   9.174
 1703POPC   GL225358  21.449  42.995   9.103
 1703POPC   C1A25359  21.201  43.117   8.699
 1703POPC   D2A25360  21.420  42.891   8.339
 1703POPC   C3A25361  21.374  43.017   7.877
 1703POPC   C4A25362  21.354  43.379   7.515
 1703POPC   C1B25363  21.698  43.180   8.702
 1703POPC   C2B25364  21.737  43.298   8.219
 1703POPC   C3B25365  21.805  43.260   7.739
 1703POPC   C4B25366  22.214  43.297   7.504
 1704POPC   NC325367  13.690  37.527   9.304
 1704POPC   PO425368  13.227  38.015   9.478
 1704POPC   GL125369  13.417  37.871   9.061
 1704POPC   GL225370  13.419  37.490   8.878
 1704POPC   C1A25371  13.548  37.920   8.640
 1704POPC   D2A25372  13.656  37.763   8.264
 1704POPC   C3A25373  13.458  37.499   7.971
 1704POPC   C4A25374  13.435  37.802   7.608
 1704POPC   C1B25375  13.806  37.411   8.601
 1704POPC   C2B25376  14.023  37.437   8.163
 1704POPC   C3B25377  13.896  37.706   7.799
 1704POPC   C4B25378  13.805  37.567   7.337
 1705POPC   NC325379  20.634  44.650   9.692
 1705POPC   PO425380  21.095  44.511   9.432
 1705POPC   GL125381  20.742  44.562   9.120
 1705POPC   GL225382  20.586  44.879   9.163
 1705POPC   C1A25383  20.549  44.517   8.670
 1705POPC   D2A25384  20.577  44.479   8.184
 1705POPC   C3A25385  20.318  44.751   7.913
 1705POPC   C4A25386  20.006  44.669   7.561
 1705POPC   C1B25387  20.769  44.972   8.727
 1705POPC   C2B25388  20.718  44.966   8.251
 1705POPC   C3B25389  20.782  44.943   7.791
 1705POPC   C4B25390  20.832   0.247   7.448
 1706POPC   NC325391  18.555  28.974   9.643
 1706POPC   PO425392  18.060  29.206   9.490
 1706POPC   GL125393  18.252  29.153   9.081
 1706POPC   GL225394  18.427  28.858   9.127
 1706POPC   C1A25395  18.271  29.288   8.634
 1706POPC   D2A25396  18.032  29.304   8.241
 1706POPC   C3A25397  18.220  29.358   7.837
 1706POPC   C4A25398  18.058  29.112   7.478
 1706POPC   C1B25399  18.481  28.815   8.666
 1706POPC   C2B25400  18.217  28.821   8.303
 1706POPC   C3B25401  18.303  28.855   7.866
 1706POPC   C4B25402  18.677  29.047   7.676
 1707POPC   NC325403  27.505  38.258   9.563
 1707POPC   PO425404  28.028  38.687   9.566
 1707POPC   GL125405  27.863  38.437   9.237
 1707POPC   GL225406  27.532  38.541   9.125
 1707POPC   C1A25407  27.870  38.361   8.789
 1707POPC   D2A25408  27.619  38.511   8.430
 1707POPC   C3A25409  27.835  38.379   8.048
 1707POPC   C4A25410  27.830  38.097   7.712
 1707POPC   C1B25411  27.251  38.695   8.793
 1707POPC   C2B25412  27.227  38.815   8.376
 1707POPC   C3B25413  27.211  38.523   8.056
 1707POPC   C4B25414  27.437  38.447   7.682
 1708POPC   NC325415   0.120  36.365   9.355
 1708POPC   PO425416   0.378  35.756   9.549
 1708POPC   GL125417   0.301  35.944   9.144
 1708POPC   GL225418   0.614  35.854   9.026
 1708POPC   C1A25419   0.409  36.253   8.767
 1708POPC   D2A25420   0.254  36.430   8.354
 1708POPC   C3A25421   0.388  36.234   7.971
 1708POPC   C4A25422   0.748  36.066   7.790
 1708POPC   C1B25423   0.322  35.754   8.667
 1708POPC   C2B25424   0.108  35.918   8.299
 1708POPC   C3B25425   0.173  35.781   7.874
 1708POPC   C4B25426   0.469  35.480   7.626
 1709POPC   NC325427  15.146  28.388   9.670
 1709POPC   PO425428  14.649  28.390   9.276
 1709POPC   GL125429  15.024  28.207   9.191
 1709POPC   GL225430  15.252  28.476   9.163
 1709POPC   C1A25431  15.199  27.943   8.885
 1709POPC   D2A25432  15.273  28.145   8.490
 1709POPC   C3A25433  15.182  28.146   8.061
 1709POPC   C4A25434  15.446  28.214   7.706
 1709POPC   C1B25435  15.077  28.572   8.770
 1709POPC   C2B25436  15.000  28.565   8.337
 1709POPC   C3B25437  15.263  28.664   7.996
 1709POPC   C4B25438  15.094  28.601   7.627
 1710POPC   NC325439  33.988  33.793   9.627
 1710POPC   PO425440  33.466  34.109   9.357
 1710POPC   GL125441  33.751  33.716   9.182
 1710POPC   GL225442  34.080  33.474   9.262
 1710POPC   C1A25443  33.717  33.551   8.797
 1710POPC   D2A25444  33.929  33.666   8.415
 1710POPC   C3A25445  33.827  33.546   7.992
 1710POPC   C4A25446  33.705  33.838   7.667
 1710POPC   C1B25447  34.227  33.515   8.868
 1710POPC   C2B25448  34.242  33.274   8.508
 1710POPC   C3B25449  34.322  33.335   8.100
 1710POPC   C4B25450  34.270  33.579   7.724
 1711POPC   NC325451  37.871  32.160   9.313
 1711POPC   PO425452  37.263  31.896   9.195
 1711POPC   GL125453  37.468  32.206   9.027
 1711POPC   GL225454  37.701  31.922   8.887
 1711POPC   C1A25455  37.564  32.362   8.655
 1711POPC   D2A25456  37.643  32.061   8.371
 1711POPC   C3A25457  37.711  32.259   8.013
 1711POPC   C4A25458  37.481  32.497   7.738
 1711POPC   C1B25459  38.075  32.114   8.682
 1711POPC   C2B25460  38.243  32.346   8.312
 1711POPC   C3B25461  38.195  32.381   7.858
 1711POPC   C4B25462  37.950  32.127   7.577
 1712POPC   NC325463  26.652  41.769   9.552
 1712POPC   PO425464  27.275  41.572   9.563
 1712POPC   GL125465  27.038  41.811   9.188
 1712POPC   GL225466  26.669  41.724   9.050
 1712POPC   C1A25467  27.023  41.877   8.737
 1712POPC   D2A25468  26.935  41.575   8.395
 1712POPC   C3A25469  26.759  41.730   8.030
 1712POPC   C4A25470  27.074  41.968   7.817
 1712POPC   C1B25471  26.481  41.633   8.614
 1712POPC   C2B25472  26.483  41.321   8.271
 1712POPC   C3B25473  26.826  41.214   7.998
 1712POPC   C4B25474  26.758  41.406   7.619
 1713POPC   NC325475  33.702  16.492   9.417
 1713POPC   PO425476  34.189  16.924   9.487
 1713POPC   GL125477  33.941  16.831   9.114
 1713POPC   GL225478  33.721  17.079   8.991
 1713POPC   C1A25479  33.946  16.708   8.670
 1713POPC   D2A25480  33.927  16.927   8.275
 1713POPC   C3A25481  34.142  16.687   7.912
 1713POPC   C4A25482  34.167  16.792   7.457
 1713POPC   C1B25483  33.466  16.697   8.776
 1713POPC   C2B25484  33.574  16.494   8.367
 1713POPC   C3B25485  33.616  16.713   7.957
 1713POPC   C4B25486  33.739  16.560   7.607
 1714POPC   NC325487   3.430  13.339   9.553
 1714POPC   PO425488   3.830  13.896   9.518
 1714POPC   GL125489   3.612  13.856   9.158
 1714POPC   GL225490   3.688  13.518   9.153
 1714POPC   C1A25491   3.625  13.966   8.746
 1714POPC   D2A25492   3.531  13.682   8.464
 1714POPC   C3A25493   3.539  13.844   8.096
 1714POPC   C4A25494   3.672  14.010   7.738
 1714POPC   C1B25495   3.623  13.240   8.836
 1714POPC   C2B25496   3.714  13.143   8.462
 1714POPC   C3B25497   3.591  13.307   8.093
 1714POPC   C4B25498   3.569  13.509   7.697
 1715POPC   NC325499  24.030  16.933   9.337
 1715POPC   PO425500  23.455  16.519   9.500
 1715POPC   GL125501  23.602  16.735   9.093
 1715POPC   GL225502  23.848  16.973   8.875
 1715POPC   C1A25503  23.389  16.876   8.707
 1715POPC   D2A25504  23.625  16.907   8.316
 1715POPC   C3A25505  23.402  16.791   7.948
 1715POPC   C4A25506  23.232  16.926   7.567
 1715POPC   C1B25507  23.798  16.548   8.662
 1715POPC   C2B25508  23.813  16.438   8.246
 1715POPC   C3B25509  23.892  16.724   7.881
 1715POPC   C4B25510  23.709  16.700   7.515
 1716POPC   NC325511  28.655  24.142   9.477
 1716POPC   PO425512  28.486  23.511   9.592
 1716POPC   GL125513  28.577  23.556   9.173
 1716POPC   GL225514  28.322  23.794   9.146
 1716POPC   C1A25515  28.425  23.509   8.751
 1716POPC   D2A25516  28.286  23.790   8.425
 1716POPC   C3A25517  28.385  23.575   8.020
 1716POPC   C4A25518  28.140  23.601   7.659
 1716POPC   C1B25519  28.636  23.979   8.868
 1716POPC   C2B25520  28.675  24.149   8.471
 1716POPC   C3B25521  28.607  24.025   8.084
 1716POPC   C4B25522  28.458  23.998   7.692
 1717POPC   NC325523   5.636  42.090   9.554
 1717POPC   PO425524   6.137  42.567   9.505
 1717POPC   GL125525   5.815  42.582   9.187
 1717POPC   GL225526   5.612  42.288   9.094
 1717POPC   C1A25527   5.812  42.617   8.741
 1717POPC   D2A25528   5.879  42.393   8.369
 1717POPC   C3A25529   5.929  42.605   7.994
 1717POPC   C4A25530   5.809  42.359   7.677
 1717POPC   C1B25531   5.428  41.988   8.786
 1717POPC   C2B25532   5.555  41.787   8.408
 1717POPC   C3B25533   5.572  42.005   8.012
 1717POPC   C4B25534   5.425  42.067   7.599
 1718POPC   NC325535  30.271  16.977   9.236
 1718POPC   PO425536  30.001  17.475   9.603
 1718POPC   GL125537  30.094  17.473   9.166
 1718POPC   GL225538  29.950  17.233   8.945
 1718POPC   C1A25539  30.176  17.667   8.768
 1718POPC   D2A25540  30.086  18.008   8.485
 1718POPC   C3A25541  29.852  17.812   8.165
 1718POPC   C4A25542  30.006  17.694   7.774
 1718POPC   C1B25543  29.564  17.181   8.764
 1718POPC   C2B25544  29.563  17.498   8.489
 1718POPC   C3B25545  29.525  17.415   8.069
 1718POPC   C4B25546  29.757  17.247   7.737
 1719POPC   NC325547  24.104  40.545   9.452
 1719POPC   PO425548  24.672  40.738   9.744
 1719POPC   GL125549  24.653  40.663   9.258
 1719POPC   GL225550  24.366  40.783   9.110
 1719POPC   C1A25551  24.731  40.691   8.789
 1719POPC   D2A25552  24.557  40.649   8.396
 1719POPC   C3A25553  24.724  40.839   8.044
 1719POPC   C4A25554  24.625  40.712   7.662
 1719POPC   C1B25555  24.220  40.510   8.773
 1719POPC   C2B25556  24.054  40.597   8.358
 1719POPC   C3B25557  24.207  40.807   8.035
 1719POPC   C4B25558  24.132  40.619   7.671
 1720POPC   NC325559  20.427   4.699   9.349
 1720POPC   PO425560  21.125   4.915   9.336
 1720POPC   GL125561  20.781   5.007   9.041
 1720POPC   GL225562  20.436   5.164   9.097
 1720POPC   C1A25563  20.561   4.786   8.698
 1720POPC   D2A25564  20.341   4.863   8.315
 1720POPC   C3A25565  20.583   4.966   7.927
 1720POPC   C4A25566  20.787   4.688   7.656
 1720POPC   C1B25567  20.497   5.285   8.667
 1720POPC   C2B25568  20.682   5.552   8.358
 1720POPC   C3B25569  20.681   5.476   7.937
 1720POPC   C4B25570  20.387   5.356   7.644
 1721POPC   NC325571  14.657  25.278   9.639
 1721POPC   PO425572  14.020  24.963   9.661
 1721POPC   GL125573  14.275  25.131   9.283
 1721POPC   GL225574  14.166  25.452   9.184
 1721POPC   C1A25575  14.395  25.024   8.835
 1721POPC   D2A25576  14.272  25.123   8.392
 1721POPC   C3A25577  14.398  25.296   7.978
 1721POPC   C4A25578  14.198  25.360   7.578
 1721POPC   C1B25579  14.278  25.532   8.729
 1721POPC   C2B25580  14.582  25.633   8.432
 1721POPC   C3B25581  14.816  25.639   8.074
 1721POPC   C4B25582  14.657  25.633   7.636
 1722POPC   NC325583  29.437   9.046   9.504
 1722POPC   PO425584  28.777   8.930   9.629
 1722POPC   GL125585  28.827   8.815   9.166
 1722POPC   GL225586  29.164   8.874   9.103
 1722POPC   C1A25587  28.844   8.862   8.703
 1722POPC   D2A25588  29.177   9.106   8.459
 1722POPC   C3A25589  29.056   9.146   8.018
 1722POPC   C4A25590  28.847   8.977   7.708
 1722POPC   C1B25591  29.517   8.947   8.833
 1722POPC   C2B25592  29.629   8.806   8.441
 1722POPC   C3B25593  29.498   8.907   8.081
 1722POPC   C4B25594  29.319   8.802   7.727
 1723POPC   NC325595  19.585  31.394   9.512
 1723POPC   PO425596  20.261  31.160   9.456
 1723POPC   GL125597  19.960  31.368   9.179
 1723POPC   GL225598  19.621  31.199   9.051
 1723POPC   C1A25599  19.986  31.452   8.777
 1723POPC   D2A25600  20.165  31.591   8.436
 1723POPC   C3A25601  19.945  31.507   8.091
 1723POPC   C4A25602  19.939  31.540   7.665
 1723POPC   C1B25603  19.484  31.513   8.760
 1723POPC   C2B25604  19.485  31.678   8.325
 1723POPC   C3B25605  19.494  31.594   7.885
 1723POPC   C4B25606  19.632  31.155   7.793
 1724POPC   NC325607   4.520  28.670   9.335
 1724POPC   PO425608   4.312  29.209   9.727
 1724POPC   GL125609   4.186  29.089   9.264
 1724POPC   GL225610   4.231  29.375   9.046
 1724POPC   C1A25611   4.229  28.948   8.792
 1724POPC   D2A25612   4.259  29.178   8.392
 1724POPC   C3A25613   4.408  29.018   8.030
 1724POPC   C4A25614   4.352  28.768   7.688
 1724POPC   C1B25615   4.526  29.436   8.726
 1724POPC   C2B25616   4.544  29.591   8.299
 1724POPC   C3B25617   4.638  29.469   7.861
 1724POPC   C4B25618   4.567  29.517   7.394
 1725POPC   NC325619  23.506  39.800   9.490
 1725POPC   PO425620  23.641  40.435   9.467
 1725POPC   GL125621  23.549  40.199   9.077
 1725POPC   GL225622  23.437  39.833   8.987
 1725POPC   C1A25623  23.731  40.239   8.664
 1725POPC   D2A25624  23.722  40.043   8.281
 1725POPC   C3A25625  23.919  40.261   7.985
 1725POPC   C4A25626  24.133  40.108   7.646
 1725POPC   C1B25627  23.907  39.825   8.910
 1725POPC   C2B25628  24.080  39.724   8.493
 1725POPC   C3B25629  24.158  39.785   8.039
 1725POPC   C4B25630  24.084  39.587   7.622
 1726POPC   NC325631  21.179  24.083   9.870
 1726POPC   PO425632  21.315  23.562   9.394
 1726POPC   GL125633  21.338  23.375   9.044
 1726POPC   GL225634  21.619  23.178   8.985
 1726POPC   C1A25635  21.359  23.589   8.680
 1726POPC   D2A25636  21.171  23.791   8.355
 1726POPC   C3A25637  21.393  23.764   7.960
 1726POPC   C4A25638  21.029  23.601   7.763
 1726POPC   C1B25639  21.846  23.482   8.755
 1726POPC   C2B25640  21.750  23.649   8.369
 1726POPC   C3B25641  21.834  23.482   8.011
 1726POPC   C4B25642  21.816  23.540   7.611
 1727POPC   NC325643  37.880  30.489   9.528
 1727POPC   PO425644  37.436  30.999   9.429
 1727POPC   GL125645  37.688  30.773   9.149
 1727POPC   GL225646  37.508  30.463   9.169
 1727POPC   C1A25647  37.858  30.864   8.744
 1727POPC   D2A25648  37.706  31.015   8.337
 1727POPC   C3A25649  37.767  30.789   7.943
 1727POPC   C4A25650  37.522  30.802   7.565
 1727POPC   C1B25651  37.683  30.382   8.802
 1727POPC   C2B25652  37.840  30.446   8.392
 1727POPC   C3B25653  37.663  30.283   7.997
 1727POPC   C4B25654  37.738  30.338   7.542
 1728POPC   NC325655  26.157  15.562   9.391
 1728POPC   PO425656  25.670  15.075   9.492
 1728POPC   GL125657  25.944  15.072   9.170
 1728POPC   GL225658  25.977  14.715   9.147
 1728POPC   C1A25659  25.915  15.327   8.805
 1728POPC   D2A25660  25.901  15.249   8.384
 1728POPC   C3A25661  26.221  15.434   8.120
 1728POPC   C4A25662  25.964  15.451   7.736
 1728POPC   C1B25663  26.066  14.821   8.724
 1728POPC   C2B25664  26.133  14.787   8.335
 1728POPC   C3B25665  26.082  14.973   7.973
 1728POPC   C4B25666  26.392  14.813   7.770
 1729POPC   NC325667  10.993  12.741   9.565
 1729POPC   PO425668  11.553  13.029   9.586
 1729POPC   GL125669  11.320  13.124   9.192
 1729POPC   GL225670  11.053  12.939   9.092
 1729POPC   C1A25671  11.458  12.989   8.757
 1729POPC   D2A25672  11.313  12.877   8.345
 1729POPC   C3A25673  11.317  13.162   7.994
 1729POPC   C4A25674  11.190  13.138   7.542
 1729POPC   C1B25675  10.984  12.699   8.736
 1729POPC   C2B25676  10.802  12.657   8.354
 1729POPC   C3B25677  10.883  12.828   7.952
 1729POPC   C4B25678  10.915  12.608   7.572
 1730POPC   NC325679  16.247  22.773   9.634
 1730POPC   PO425680  15.620  23.079   9.721
 1730POPC   GL125681  15.901  23.056   9.309
 1730POPC   GL225682  15.996  22.723   9.195
 1730POPC   C1A25683  15.803  22.985   8.828
 1730POPC   D2A25684  15.961  22.809   8.434
 1730POPC   C3A25685  15.809  22.834   7.996
 1730POPC   C4A25686  16.104  23.108   7.787
 1730POPC   C1B25687  16.284  22.651   8.794
 1730POPC   C2B25688  16.425  22.603   8.339
 1730POPC   C3B25689  16.321  22.670   7.917
 1730POPC   C4B25690  16.166  22.680   7.471
 1731POPC   NC325691  44.352  27.287   9.478
 1731POPC   PO425692  44.979  27.438   9.636
 1731POPC   GL125693  44.767  27.627   9.274
 1731POPC   GL225694  44.393  27.772   9.289
 1731POPC   C1A25695  44.864  27.575   8.837
 1731POPC   D2A25696   0.113  27.721   8.489
 1731POPC   C3A25697  44.980  27.588   8.105
 1731POPC   C4A25698  44.895  27.354   7.739
 1731POPC   C1B25699  44.389  27.834   8.827
 1731POPC   C2B25700  44.583  27.675   8.414
 1731POPC   C3B25701  44.468  27.563   7.964
 1731POPC   C4B25702  44.367  27.724   7.533
 1732POPC   NC325703   4.712  44.555   9.489
 1732POPC   PO425704   5.296  44.497   9.729
 1732POPC   GL125705   5.154  44.572   9.261
 1732POPC   GL225706   5.270  44.896   9.143
 1732POPC   C1A25707   4.927  44.389   8.861
 1732POPC   D2A25708   5.048  44.466   8.420
 1732POPC   C3A25709   4.812  44.469   8.056
 1732POPC   C4A25710   5.006  44.579   7.695
 1732POPC   C1B25711   5.055  44.880   8.748
 1732POPC   C2B25712   4.765  44.918   8.423
 1732POPC   C3B25713   4.946  44.964   8.034
 1732POPC   C4B25714   4.793   0.032   7.633
 1733POPC   NC325715  29.248  20.970   9.704
 1733POPC   PO425716  28.848  21.505   9.596
 1733POPC   GL125717  28.954  21.417   9.181
 1733POPC   GL225718  29.181  21.111   9.203
 1733POPC   C1A25719  28.994  21.650   8.814
 1733POPC   D2A25720  29.133  21.569   8.411
 1733POPC   C3A25721  29.117  21.618   7.968
 1733POPC   C4A25722  29.277  21.240   7.805
 1733POPC   C1B25723  28.920  21.057   8.818
 1733POPC   C2B25724  28.812  21.117   8.374
 1733POPC   C3B25725  28.843  20.928   7.952
 1733POPC   C4B25726  28.846  21.076   7.553
 1734POPC   NC325727  28.535  21.863   9.531
 1734POPC   PO425728  28.449  22.512   9.614
 1734POPC   GL125729  28.425  22.301   9.194
 1734POPC   GL225730  28.249  21.985   9.118
 1734POPC   C1A25731  28.606  22.157   8.790
 1734POPC   D2A25732  28.699  22.420   8.458
 1734POPC   C3A25733  28.371  22.460   8.197
 1734POPC   C4A25734  28.419  22.339   7.796
 1734POPC   C1B25735  28.091  22.263   8.760
 1734POPC   C2B25736  27.902  22.260   8.318
 1734POPC   C3B25737  27.961  22.102   7.886
 1734POPC   C4B25738  27.967  22.105   7.416
 1735POPC   NC325739   9.314  37.187   9.612
 1735POPC   PO425740   9.920  37.237   9.933
 1735POPC   GL125741   9.805  37.294   9.419
 1735POPC   GL225742   9.843  36.967   9.240
 1735POPC   C1A25743   9.635  37.308   8.932
 1735POPC   D2A25744   9.626  37.152   8.512
 1735POPC   C3A25745   9.454  37.154   8.087
 1735POPC   C4A25746   9.654  37.286   7.698
 1735POPC   C1B25747   9.836  36.779   8.805
 1735POPC   C2B25748   9.727  36.689   8.347
 1735POPC   C3B25749   9.945  36.831   7.983
 1735POPC   C4B25750  10.347  36.704   7.786
 1736POPC   NC325751  15.536  19.478   9.486
 1736POPC   PO425752  15.225  18.918   9.673
 1736POPC   GL125753  15.321  19.073   9.239
 1736POPC   GL225754  15.357  18.811   9.086
 1736POPC   C1A25755  15.188  19.251   8.822
 1736POPC   D2A25756  15.277  19.254   8.373
 1736POPC   C3A25757  14.927  19.068   8.169
 1736POPC   C4A25758  14.765  18.950   7.771
 1736POPC   C1B25759  15.557  18.920   8.698
 1736POPC   C2B25760  15.539  18.851   8.264
 1736POPC   C3B25761  15.350  18.977   7.853
 1736POPC   C4B25762  15.480  18.997   7.417
 1737POPC   NC325763   2.553  22.416   9.583
 1737POPC   PO425764   3.168  22.219   9.673
 1737POPC   GL125765   2.812  22.165   9.237
 1737POPC   GL225766   2.583  22.428   9.070
 1737POPC   C1A25767   2.908  22.127   8.777
 1737POPC   D2A25768   3.119  22.137   8.353
 1737POPC   C3A25769   2.822  22.113   8.037
 1737POPC   C4A25770   2.499  22.072   7.718
 1737POPC   C1B25771   2.422  22.348   8.658
 1737POPC   C2B25772   2.362  22.333   8.194
 1737POPC   C3B25773   2.476  22.567   7.824
 1737POPC   C4B25774   2.454  22.473   7.383
 1738POPC   NC325775  12.218  34.479   9.419
 1738POPC   PO425776  11.741  34.851   9.699
 1738POPC   GL125777  11.855  34.832   9.254
 1738POPC   GL225778  12.206  34.842   9.085
 1738POPC   C1A25779  11.792  34.649   8.843
 1738POPC   D2A25780  11.906  34.464   8.481
 1738POPC   C3A25781  11.808  34.602   8.111
 1738POPC   C4A25782  11.912  34.479   7.690
 1738POPC   C1B25783  12.302  34.678   8.703
 1738POPC   C2B25784  12.160  34.913   8.326
 1738POPC   C3B25785  12.286  34.745   7.926
 1738POPC   C4B25786  12.394  34.643   7.501
 1739POPC   NC325787  27.138  35.995   9.862
 1739POPC   PO425788  27.474  36.379   9.445
 1739POPC   GL125789  27.424  36.115   9.130
 1739POPC   GL225790  27.083  36.258   9.099
 1739POPC   C1A25791  27.632  35.944   8.762
 1739POPC   D2A25792  27.825  36.120   8.377
 1739POPC   C3A25793  27.744  35.849   8.020
 1739POPC   C4A25794  27.507  35.803   7.644
 1739POPC   C1B25795  27.257  36.302   8.682
 1739POPC   C2B25796  27.324  36.187   8.265
 1739POPC   C3B25797  27.294  36.330   7.880
 1739POPC   C4B25798  27.129  36.606   7.626
 1740POPC   NC325799  38.735  25.581   9.502
 1740POPC   PO425800  38.041  25.464   9.472
 1740POPC   GL125801  38.344  25.332   9.177
 1740POPC   GL225802  38.486  25.652   9.069
 1740POPC   C1A25803  38.399  25.097   8.766
 1740POPC   D2A25804  38.160  24.944   8.393
 1740POPC   C3A25805  38.348  25.122   8.008
 1740POPC   C4A25806  38.545  24.917   7.701
 1740POPC   C1B25807  38.152  25.568   8.768
 1740POPC   C2B25808  38.173  25.436   8.389
 1740POPC   C3B25809  38.064  25.573   8.018
 1740POPC   C4B25810  38.286  25.546   7.661
 1741POPC   NC325811   4.179   3.919   9.616
 1741POPC   PO425812   4.460   3.380   9.552
 1741POPC   GL125813   4.309   3.563   9.154
 1741POPC   GL225814   3.949   3.733   9.174
 1741POPC   C1A25815   4.426   3.351   8.741
 1741POPC   D2A25816   4.419   3.055   8.376
 1741POPC   C3A25817   4.508   3.246   7.999
 1741POPC   C4A25818   4.389   3.491   7.669
 1741POPC   C1B25819   3.975   3.604   8.735
 1741POPC   C2B25820   4.148   3.500   8.326
 1741POPC   C3B25821   3.971   3.586   7.931
 1741POPC   C4B25822   4.008   3.843   7.568
 1742POPC   NC325823  13.377  30.973   9.652
 1742POPC   PO425824  13.776  31.542   9.461
 1742POPC   GL125825  13.535  31.560   9.072
 1742POPC   GL225826  13.434  31.224   9.195
 1742POPC   C1A25827  13.555  31.713   8.633
 1742POPC   D2A25828  13.616  31.566   8.209
 1742POPC   C3A25829  13.486  31.747   7.873
 1742POPC   C4A25830  13.930  31.710   7.776
 1742POPC   C1B25831  13.641  31.162   8.796
 1742POPC   C2B25832  13.351  31.257   8.501
 1742POPC   C3B25833  13.318  31.200   8.063
 1742POPC   C4B25834  13.352  31.279   7.646
 1743POPC   NC325835  15.641   2.077   9.367
 1743POPC   PO425836  16.225   2.201   9.461
 1743POPC   GL125837  16.120   1.987   9.117
 1743POPC   GL225838  16.150   2.306   8.945
 1743POPC   C1A25839  16.110   1.689   8.785
 1743POPC   D2A25840  16.267   1.518   8.378
 1743POPC   C3A25841  16.063   1.574   7.957
 1743POPC   C4A25842  16.142   1.912   7.660
 1743POPC   C1B25843  15.809   2.107   8.717
 1743POPC   C2B25844  15.866   1.908   8.324
 1743POPC   C3B25845  15.698   1.968   7.918
 1743POPC   C4B25846  15.489   2.356   7.782
 1744POPC   NC325847   0.736   0.900   9.422
 1744POPC   PO425848   0.368   0.346   9.496
 1744POPC   GL125849   0.491   0.485   9.136
 1744POPC   GL225850   0.132   0.488   9.048
 1744POPC   C1A25851   0.480   0.255   8.750
 1744POPC   D2A25852   0.373   0.022   8.407
 1744POPC   C3A25853   0.513   0.175   8.007
 1744POPC   C4A25854   0.609   0.390   7.616
 1744POPC   C1B25855   0.321   0.764   8.750
 1744POPC   C2B25856   0.478   0.596   8.354
 1744POPC   C3B25857   0.367   0.706   7.945
 1744POPC   C4B25858   0.297   0.764   7.496
 1745POPC   NC325859  41.039  41.631   9.539
 1745POPC   PO425860  40.482  41.712   9.307
 1745POPC   GL125861  40.806  41.476   9.115
 1745POPC   GL225862  41.161  41.352   9.129
 1745POPC   C1A25863  40.797  41.384   8.729
 1745POPC   D2A25864  40.546  41.634   8.516
 1745POPC   C3A25865  40.580  41.655   8.103
 1745POPC   C4A25866  40.577  41.464   7.707
 1745POPC   C1B25867  41.157  41.713   8.839
 1745POPC   C2B25868  41.038  41.741   8.413
 1745POPC   C3B25869  41.063  41.539   8.012
 1745POPC   C4B25870  41.007  41.808   7.680
 1746POPC   NC325871  17.909  19.934   9.345
 1746POPC   PO425872  17.297  19.587   9.466
 1746POPC   GL125873  17.541  19.638   9.126
 1746POPC   GL225874  17.338  19.940   9.092
 1746POPC   C1A25875  17.680  19.798   8.723
 1746POPC   D2A25876  17.470  19.968   8.387
 1746POPC   C3A25877  17.658  19.852   7.995
 1746POPC   C4A25878  17.786  19.981   7.568
 1746POPC   C1B25879  17.186  19.644   8.746
 1746POPC   C2B25880  17.299  19.505   8.322
 1746POPC   C3B25881  17.158  19.650   7.946
 1746POPC   C4B25882  17.377  19.689   7.573
 1747POPC   NC325883  27.339  19.658   9.528
 1747POPC   PO425884  27.541  20.271   9.447
 1747POPC   GL125885  27.371  20.001   9.095
 1747POPC   GL225886  27.591  19.747   9.102
 1747POPC   C1A25887  27.463  19.906   8.654
 1747POPC   D2A25888  27.708  20.023   8.331
 1747POPC   C3A25889  27.401  19.937   8.031
 1747POPC   C4A25890  27.417  20.072   7.653
 1747POPC   C1B25891  27.769  19.495   8.799
 1747POPC   C2B25892  27.681  19.423   8.375
 1747POPC   C3B25893  27.822  19.637   8.000
 1747POPC   C4B25894  27.744  19.678   7.568
 1748POPC   NC325895  15.868  36.760   9.569
 1748POPC   PO425896  16.310  36.509   9.352
 1748POPC   GL125897  16.066  36.891   9.117
 1748POPC   GL225898  15.682  36.826   9.099
 1748POPC   C1A25899  15.884  37.148   8.753
 1748POPC   D2A25900  15.880  36.975   8.334
 1748POPC   C3A25901  15.893  37.170   7.979
 1748POPC   C4A25902  16.292  37.160   7.728
 1748POPC   C1B25903  15.721  36.653   8.689
 1748POPC   C2B25904  15.728  36.496   8.246
 1748POPC   C3B25905  15.851  36.654   7.825
 1748POPC   C4B25906  15.807  36.570   7.352
 1749POPC   NC325907  15.161  25.048   9.282
 1749POPC   PO425908  14.686  25.476   9.227
 1749POPC   GL125909  14.934  25.366   8.937
 1749POPC   GL225910  15.272  25.476   8.987
 1749POPC   C1A25911  15.047  25.398   8.533
 1749POPC   D2A25912  15.144  25.085   8.327
 1749POPC   C3A25913  14.806  25.034   8.152
 1749POPC   C4A25914  14.944  25.246   7.787
 1749POPC   C1B25915  15.493  25.133   8.712
 1749POPC   C2B25916  15.657  25.044   8.280
 1749POPC   C3B25917  15.431  25.055   7.886
 1749POPC   C4B25918  15.414  25.369   7.565
 1750POPC   NC325919  27.463   7.009   9.539
 1750POPC   PO425920  27.589   6.317   9.644
 1750POPC   GL125921  27.561   6.502   9.214
 1750POPC   GL225922  27.728   6.838   9.157
 1750POPC   C1A25923  27.591   6.369   8.769
 1750POPC   D2A25924  27.413   6.515   8.389
 1750POPC   C3A25925  27.642   6.430   8.039
 1750POPC   C4A25926  27.563   6.659   7.692
 1750POPC   C1B25927  27.976   6.716   8.836
 1750POPC   C2B25928  27.847   6.772   8.441
 1750POPC   C3B25929  27.898   6.912   8.064
 1750POPC   C4B25930  28.001   6.927   7.659
 1751POPC   NC325931  36.537  17.949   9.456
 1751POPC   PO425932  36.263  17.356   9.312
 1751POPC   GL125933  36.140  17.463   8.931
 1751POPC   GL225934  36.014  17.783   9.054
 1751POPC   C1A25935  35.877  17.573   8.582
 1751POPC   D2A25936  35.853  17.531   8.158
 1751POPC   C3A25937  36.238  17.408   7.918
 1751POPC   C4A25938  36.421  17.182   7.571
 1751POPC   C1B25939  36.265  17.887   8.677
 1751POPC   C2B25940  36.251  17.850   8.240
 1751POPC   C3B25941  36.154  17.927   7.801
 1751POPC   C4B25942  36.408  18.087   7.447
 1752POPC   NC325943  24.179  19.202   9.370
 1752POPC   PO425944  23.526  18.917   9.615
 1752POPC   GL125945  23.741  18.969   9.219
 1752POPC   GL225946  23.751  19.310   9.151
 1752POPC   C1A25947  23.737  18.926   8.770
 1752POPC   D2A25948  23.557  19.005   8.364
 1752POPC   C3A25949  23.748  18.883   7.972
 1752POPC   C4A25950  23.611  18.993   7.547
 1752POPC   C1B25951  23.885  19.455   8.767
 1752POPC   C2B25952  23.709  19.601   8.407
 1752POPC   C3B25953  23.665  19.397   8.036
 1752POPC   C4B25954  23.917  19.376   7.674
 1753POPC   NC325955  36.138  32.423   9.885
 1753POPC   PO425956  35.601  32.114   9.626
 1753POPC   GL125957  35.775  32.207   9.241
 1753POPC   GL225958  35.565  32.490   9.202
 1753POPC   C1A25959  36.113  32.116   8.907
 1753POPC   D2A25960  36.258  32.377   8.566
 1753POPC   C3A25961  36.220  32.376   8.125
 1753POPC   C4A25962  36.232  32.202   7.701
 1753POPC   C1B25963  35.771  32.474   8.798
 1753POPC   C2B25964  35.789  32.220   8.399
 1753POPC   C3B25965  35.780  32.221   7.931
 1753POPC   C4B25966  35.920  32.605   7.676
 1754POPC   NC325967  31.779  21.833   9.530
 1754POPC   PO425968  31.114  22.108   9.617
 1754POPC   GL125969  31.390  22.178   9.277
 1754POPC   GL225970  31.246  22.498   9.158
 1754POPC   C1A25971  31.480  21.992   8.895
 1754POPC   D2A25972  31.489  21.829   8.464
 1754POPC   C3A25973  31.783  22.014   8.189
 1754POPC   C4A25974  31.643  22.076   7.785
 1754POPC   C1B25975  31.606  22.502   8.884
 1754POPC   C2B25976  31.543  22.355   8.480
 1754POPC   C3B25977  31.431  22.456   8.048
 1754POPC   C4B25978  31.277  22.476   7.646
 1755POPC   NC325979  23.048  26.553   9.425
 1755POPC   PO425980  22.428  26.891   9.449
 1755POPC   GL125981  22.757  26.871   9.131
 1755POPC   GL225982  22.812  26.516   8.985
 1755POPC   C1A25983  22.885  27.049   8.763
 1755POPC   D2A25984  22.679  26.702   8.540
 1755POPC   C3A25985  22.848  26.580   8.172
 1755POPC   C4A25986  22.805  26.819   7.835
 1755POPC   C1B25987  23.180  26.641   8.724
 1755POPC   C2B25988  23.328  26.454   8.318
 1755POPC   C3B25989  23.301  26.607   7.911
 1755POPC   C4B25990  23.097  26.483   7.567
 1756POPC   NC325991  41.276  34.205   9.332
 1756POPC   PO425992  40.865  34.686   9.673
 1756POPC   GL125993  40.909  34.563   9.259
 1756POPC   GL225994  41.148  34.814   9.176
 1756POPC   C1A25995  40.741  34.477   8.851
 1756POPC   D2A25996  40.737  34.674   8.445
 1756POPC   C3A25997  40.827  34.461   8.064
 1756POPC   C4A25998  40.690  34.179   7.732
 1756POPC   C1B25999  41.155  34.750   8.756
 1756POPC   C2B26000  41.180  34.401   8.479
 1756POPC   C3B26001  41.343  34.382   8.075
 1756POPC   C4B26002  41.172  34.468   7.682
 1757POPC   NC326003   1.577  28.627   9.342
 1757POPC   PO426004   1.036  28.260   9.600
 1757POPC   GL126005   0.968  28.280   9.171
 1757POPC   GL226006   1.119  28.610   9.082
 1757POPC   C1A26007   1.088  28.247   8.744
 1757POPC   D2A26008   1.019  28.552   8.427
 1757POPC   C3A26009   0.970  28.354   8.053
 1757POPC   C4A26010   1.151  28.017   7.838
 1757POPC   C1B26011   1.391  28.767   8.702
 1757POPC   C2B26012   1.481  28.739   8.240
 1757POPC   C3B26013   1.393  28.501   7.818
 1757POPC   C4B26014   1.054  28.565   7.517
 1758POPC   NC326015  43.623  30.581   9.569
 1758POPC   PO426016  43.777  31.283   9.659
 1758POPC   GL126017  43.894  30.922   9.315
 1758POPC   GL226018  43.557  30.859   9.130
 1758POPC   C1A26019  43.943  30.603   8.966
 1758POPC   D2A26020  44.019  30.309   8.638
 1758POPC   C3A26021  43.889  30.314   8.188
 1758POPC   C4A26022  43.890  30.569   7.822
 1758POPC   C1B26023  43.693  30.926   8.668
 1758POPC   C2B26024  43.606  31.143   8.313
 1758POPC   C3B26025  43.597  31.003   7.909
 1758POPC   C4B26026  43.911  31.042   7.592
 1759POPC   NC326027  11.174  43.106   9.554
 1759POPC   PO426028  11.685  42.731   9.582
 1759POPC   GL126029  11.475  42.968   9.158
 1759POPC   GL226030  11.436  43.343   9.159
 1759POPC   C1A26031  11.277  43.059   8.706
 1759POPC   D2A26032  10.980  42.931   8.332
 1759POPC   C3A26033  11.074  42.776   7.911
 1759POPC   C4A26034  11.040  42.747   7.449
 1759POPC   C1B26035  11.260  43.567   8.769
 1759POPC   C2B26036  11.280  43.460   8.353
 1759POPC   C3B26037  11.330  43.216   8.028
 1759POPC   C4B26038  11.162  43.240   7.677
 1760POPC   NC326039  22.796  11.604   9.342
 1760POPC   PO426040  22.939  10.984   9.458
 1760POPC   GL126041  22.813  11.158   9.056
 1760POPC   GL226042  23.135  11.383   9.024
 1760POPC   C1A26043  22.473  11.090   8.696
 1760POPC   D2A26044  22.590  11.203   8.266
 1760POPC   C3A26045  22.406  11.338   7.884
 1760POPC   C4A26046  22.538  11.248   7.423
 1760POPC   C1B26047  23.263  11.478   8.589
 1760POPC   C2B26048  23.045  11.435   8.218
 1760POPC   C3B26049  22.904  11.422   7.825
 1760POPC   C4B26050  23.100  11.725   7.589
 1761POPC   NC326051   2.489  24.521   9.554
 1761POPC   PO426052   2.996  24.207   9.385
 1761POPC   GL126053   2.784  24.515   9.154
 1761POPC   GL226054   2.531  24.292   9.074
 1761POPC   C1A26055   2.817  24.771   8.813
 1761POPC   D2A26056   3.068  24.616   8.495
 1761POPC   C3A26057   2.842  24.695   8.119
 1761POPC   C4A26058   3.115  24.804   7.798
 1761POPC   C1B26059   2.812  24.209   8.720
 1761POPC   C2B26060   2.951  24.185   8.255
 1761POPC   C3B26061   2.977  24.309   7.804
 1761POPC   C4B26062   2.676  24.211   7.455
 1762POPC   NC326063  33.062  13.093   9.521
 1762POPC   PO426064  32.908  12.464   9.396
 1762POPC   GL126065  33.158  12.746   9.115
 1762POPC   GL226066  33.342  13.084   9.106
 1762POPC   C1A26067  33.036  12.838   8.723
 1762POPC   D2A26068  32.898  12.562   8.427
 1762POPC   C3A26069  32.914  12.743   8.043
 1762POPC   C4A26070  33.173  12.654   7.702
 1762POPC   C1B26071  33.507  13.030   8.741
 1762POPC   C2B26072  33.312  13.164   8.364
 1762POPC   C3B26073  33.375  13.052   7.930
 1762POPC   C4B26074  33.431  13.250   7.519
 1763POPC   NC326075  43.027  11.909   9.491
 1763POPC   PO426076  42.432  11.808   9.250
 1763POPC   GL126077  42.815  12.033   9.032
 1763POPC   GL226078  43.189  11.951   8.987
 1763POPC   C1A26079  42.894  12.333   8.670
 1763POPC   D2A26080  43.124  12.500   8.359
 1763POPC   C3A26081  43.136  12.170   8.097
 1763POPC   C4A26082  43.040  12.341   7.722
 1763POPC   C1B26083  43.445  12.249   8.700
 1763POPC   C2B26084  43.631  12.274   8.263
 1763POPC   C3B26085  43.528  12.167   7.783
 1763POPC   C4B26086  43.262  11.904   7.497
 1764POPC   NC326087   6.547   9.123   9.582
 1764POPC   PO426088   6.438   8.508   9.730
 1764POPC   GL126089   6.336   8.723   9.304
 1764POPC   GL226090   6.331   9.108   9.136
 1764POPC   C1A26091   6.447   8.711   8.846
 1764POPC   D2A26092   6.810   8.709   8.544
 1764POPC   C3A26093   6.687   8.910   8.164
 1764POPC   C4A26094   6.713   8.884   7.749
 1764POPC   C1B26095   6.631   9.183   8.756
 1764POPC   C2B26096   6.610   9.385   8.338
 1764POPC   C3B26097   6.608   9.368   7.883
 1764POPC   C4B26098   6.525   9.206   7.421
 1765POPC   NC326099  28.514  11.992   9.834
 1765POPC   PO426100  28.672  12.315   9.262
 1765POPC   GL126101  28.549  11.964   9.010
 1765POPC   GL226102  28.195  11.858   8.944
 1765POPC   C1A26103  28.510  11.972   8.565
 1765POPC   D2A26104  28.302  12.239   8.290
 1765POPC   C3A26105  28.401  12.081   7.904
 1765POPC   C4A26106  28.349  12.075   7.468
 1765POPC   C1B26107  28.128  11.635   8.553
 1765POPC   C2B26108  28.032  11.815   8.168
 1765POPC   C3B26109  28.020  11.787   7.720
 1765POPC   C4B26110  28.182  11.601   7.317
 1766POPC   NC326111  31.420  20.900   9.519
 1766POPC   PO426112  31.233  20.332   9.155
 1766POPC   GL126113  31.552  20.665   9.055
 1766POPC   GL226114  31.781  20.973   9.135
 1766POPC   C1A26115  31.638  20.701   8.612
 1766POPC   D2A26116  31.266  20.707   8.350
 1766POPC   C3A26117  31.213  20.487   7.968
 1766POPC   C4A26118  31.010  20.797   7.703
 1766POPC   C1B26119  31.948  21.096   8.729
 1766POPC   C2B26120  31.891  21.017   8.267
 1766POPC   C3B26121  31.707  20.699   8.053
 1766POPC   C4B26122  31.527  20.733   7.671
 1767POPC   NC326123  37.738  36.763   9.544
 1767POPC   PO426124  38.358  37.087   9.450
 1767POPC   GL126125  37.958  37.044   9.174
 1767POPC   GL226126  37.547  36.970   9.131
 1767POPC   C1A26127  37.912  36.838   8.791
 1767POPC   D2A26128  37.798  36.942   8.419
 1767POPC   C3A26129  37.865  36.706   8.092
 1767POPC   C4A26130  37.696  36.473   7.793
 1767POPC   C1B26131  37.382  36.946   8.715
 1767POPC   C2B26132  37.319  37.062   8.283
 1767POPC   C3B26133  37.476  36.971   7.844
 1767POPC   C4B26134  37.480  37.176   7.377
 1768POPC   NC326135  27.356  42.027   9.568
 1768POPC   PO426136  27.726  42.581   9.669
 1768POPC   GL126137  27.543  42.524   9.206
 1768POPC   GL226138  27.541  42.881   9.091
 1768POPC   C1A26139  27.399  42.220   8.831
 1768POPC   D2A26140  27.302  42.110   8.362
 1768POPC   C3A26141  27.479  42.261   7.934
 1768POPC   C4A26142  27.502  42.024   7.519
 1768POPC   C1B26143  27.419  42.699   8.699
 1768POPC   C2B26144  27.249  42.610   8.261
 1768POPC   C3B26145  27.421  42.776   7.816
 1768POPC   C4B26146  27.427  42.977   7.378
 1769POPC   NC326147  33.290  43.833   9.236
 1769POPC   PO426148  32.643  44.150   9.390
 1769POPC   GL126149  32.920  44.145   9.071
 1769POPC   GL226150  32.847  43.835   8.944
 1769POPC   C1A26151  33.093  44.175   8.638
 1769POPC   D2A26152  32.887  43.908   8.311
 1769POPC   C3A26153  32.834  43.976   7.878
 1769POPC   C4A26154  32.893  44.151   7.468
 1769POPC   C1B26155  33.170  43.652   8.652
 1769POPC   C2B26156  33.270  43.403   8.279
 1769POPC   C3B26157  33.024  43.494   7.920
 1769POPC   C4B26158  32.989  43.648   7.510
 1770POPC   NC326159  43.454  35.660   9.373
 1770POPC   PO426160  42.954  35.276   9.504
 1770POPC   GL126161  43.200  35.277   9.149
 1770POPC   GL226162  43.009  35.605   9.087
 1770POPC   C1A26163  43.465  35.194   8.777
 1770POPC   D2A26164  43.281  35.069   8.383
 1770POPC   C3A26165  43.040  35.280   8.034
 1770POPC   C4A26166  43.282  35.244   7.610
 1770POPC   C1B26167  42.999  35.381   8.696
 1770POPC   C2B26168  43.290  35.588   8.390
 1770POPC   C3B26169  43.388  35.616   7.941
 1770POPC   C4B26170  43.050  35.673   7.582
 1771POPC   NC326171   9.017  39.765   9.116
 1771POPC   PO426172   9.152  39.307   9.558
 1771POPC   GL126173   9.231  39.278   9.145
 1771POPC   GL226174   8.849  39.268   9.109
 1771POPC   C1A26175   9.178  39.238   8.697
 1771POPC   D2A26176   9.034  38.917   8.409
 1771POPC   C3A26177   8.969  39.041   7.991
 1771POPC   C4A26178   8.909  39.257   7.615
 1771POPC   C1B26179   8.608  39.101   8.741
 1771POPC   C2B26180   8.570  39.157   8.288
 1771POPC   C3B26181   8.458  39.262   7.867
 1771POPC   C4B26182   8.459  39.164   7.412
 1772POPC   NC326183  43.321  44.069   9.614
 1772POPC   PO426184  42.869  43.665   9.437
 1772POPC   GL126185  43.272  43.709   9.224
 1772POPC   GL226186  43.202  44.031   9.121
 1772POPC   C1A26187  43.454  43.728   8.787
 1772POPC   D2A26188  43.406  44.008   8.408
 1772POPC   C3A26189  43.312  43.828   8.003
 1772POPC   C4A26190  43.025  43.534   7.809
 1772POPC   C1B26191  42.921  43.896   8.789
 1772POPC   C2B26192  42.870  44.058   8.383
 1772POPC   C3B26193  42.806  43.996   7.949
 1772POPC   C4B26194  42.838  43.853   7.474
 1773POPC   NC326195  14.893   6.591   9.452
 1773POPC   PO426196  15.523   6.516   9.704
 1773POPC   GL126197  15.347   6.501   9.251
 1773POPC   GL226198  15.322   6.828   9.064
 1773POPC   C1A26199  15.473   6.430   8.823
 1773POPC   D2A26200  15.494   6.708   8.462
 1773POPC   C3A26201  15.284   6.623   8.073
 1773POPC   C4A26202  15.082   6.680   7.689
 1773POPC   C1B26203  15.009   6.686   8.764
 1773POPC   C2B26204  14.806   6.675   8.359
 1773POPC   C3B26205  14.685   6.835   7.986
 1773POPC   C4B26206  14.597   6.714   7.545
 1774POPC   NC326207   5.404  19.544   9.354
 1774POPC   PO426208   4.898  20.048   9.507
 1774POPC   GL126209   5.040  19.849   9.131
 1774POPC   GL226210   5.116  20.157   9.026
 1774POPC   C1A26211   5.273  19.688   8.734
 1774POPC   D2A26212   5.511  19.620   8.343
 1774POPC   C3A26213   5.359  19.838   7.952
 1774POPC   C4A26214   5.006  19.761   7.656
 1774POPC   C1B26215   4.879  20.069   8.660
 1774POPC   C2B26216   4.758  20.245   8.258
 1774POPC   C3B26217   4.950  20.249   7.864
 1774POPC   C4B26218   4.864  20.341   7.410
 1775POPC   NC326219   8.670  43.642   9.515
 1775POPC   PO426220   9.213  44.099   9.546
 1775POPC   GL126221   8.975  43.914   9.188
 1775POPC   GL226222   8.669  44.094   9.164
 1775POPC   C1A26223   9.030  43.664   8.785
 1775POPC   D2A26224   8.900  43.613   8.345
 1775POPC   C3A26225   8.984  43.930   8.040
 1775POPC   C4A26226   9.142  43.896   7.616
 1775POPC   C1B26227   8.575  43.898   8.805
 1775POPC   C2B26228   8.661  44.064   8.424
 1775POPC   C3B26229   8.469  44.010   8.022
 1775POPC   C4B26230   8.644  43.906   7.637
 1776POPC   NC326231  31.952   8.902   9.906
 1776POPC   PO426232  32.321   9.294   9.421
 1776POPC   GL126233  32.225   8.966   9.107
 1776POPC   GL226234  31.949   8.709   9.178
 1776POPC   C1A26235  32.424   8.888   8.734
 1776POPC   D2A26236  32.424   9.131   8.368
 1776POPC   C3A26237  32.382   8.880   8.003
 1776POPC   C4A26238  32.379   9.099   7.658
 1776POPC   C1B26239  31.941   8.705   8.786
 1776POPC   C2B26240  32.051   8.714   8.375
 1776POPC   C3B26241  31.928   9.059   8.116
 1776POPC   C4B26242  31.911   8.910   7.698
 1777POPC   NC326243  44.663  44.545   9.549
 1777POPC   PO426244   0.267  44.580   9.448
 1777POPC   GL126245  44.915  44.615   9.120
 1777POPC   GL226246  44.633  44.889   9.170
 1777POPC   C1A26247  44.644  44.580   8.740
 1777POPC   D2A26248  44.774  44.371   8.352
 1777POPC   C3A26249  44.770  44.469   7.906
 1777POPC   C4A26250  44.398  44.606   7.712
 1777POPC   C1B26251  44.938   0.040   8.855
 1777POPC   C2B26252  44.853  44.939   8.432
 1777POPC   C3B26253  44.564  44.875   8.128
 1777POPC   C4B26254  44.763  44.996   7.748
 1778POPC   NC326255  10.906  11.959   9.911
 1778POPC   PO426256  11.432  12.049   9.425
 1778POPC   GL126257  11.279  12.086   9.029
 1778POPC   GL226258  11.108  12.405   9.136
 1778POPC   C1A26259  11.422  11.983   8.629
 1778POPC   D2A26260  11.241  12.009   8.260
 1778POPC   C3A26261  11.512  12.058   7.906
 1778POPC   C4A26262  11.209  11.824   7.726
 1778POPC   C1B26263  11.441  12.479   8.801
 1778POPC   C2B26264  11.565  12.407   8.369
 1778POPC   C3B26265  11.253  12.469   8.047
 1778POPC   C4B26266  11.357  12.705   7.746
 1779POPC   NC326267  29.353  31.234   9.746
 1779POPC   PO426268  29.881  30.985   9.346
 1779POPC   GL126269  29.932  31.376   9.168
 1779POPC   GL226270  29.611  31.467   9.139
 1779POPC   C1A26271  29.960  31.646   8.799
 1779POPC   D2A26272  29.726  31.822   8.435
 1779POPC   C3A26273  29.906  31.709   8.050
 1779POPC   C4A26274  29.908  31.553   7.639
 1779POPC   C1B26275  29.629  31.280   8.718
 1779POPC   C2B26276  29.519  31.375   8.311
 1779POPC   C3B26277  29.542  31.367   7.907
 1779POPC   C4B26278  29.381  31.249   7.505
 1780POPC   NC326279  31.747  17.402   9.654
 1780POPC   PO426280  31.305  17.871   9.529
 1780POPC   GL126281  31.347  17.558   9.202
 1780POPC   GL226282  31.655  17.325   9.154
 1780POPC   C1A26283  31.385  17.590   8.760
 1780POPC   D2A26284  31.499  17.372   8.386
 1780POPC   C3A26285  31.247  17.440   8.001
 1780POPC   C4A26286  31.158  17.578   7.556
 1780POPC   C1B26287  31.905  17.563   8.839
 1780POPC   C2B26288  32.109  17.522   8.434
 1780POPC   C3B26289  31.849  17.518   8.058
 1780POPC   C4B26290  31.619  17.237   7.712
 1781POPC   NC326291  20.907   6.343   9.383
 1781POPC   PO426292  20.403   5.953   9.397
 1781POPC   GL126293  20.450   5.688   9.042
 1781POPC   GL226294  20.782   5.567   8.985
 1781POPC   C1A26295  20.266   5.737   8.664
 1781POPC   D2A26296  20.359   5.965   8.347
 1781POPC   C3A26297  20.333   5.821   7.977
 1781POPC   C4A26298  20.306   5.894   7.547
 1781POPC   C1B26299  20.769   5.947   8.678
 1781POPC   C2B26300  20.858   6.035   8.210
 1781POPC   C3B26301  20.770   5.952   7.755
 1781POPC   C4B26302  21.011   5.990   7.350
 1782POPC   NC326303  12.356  23.979   9.348
 1782POPC   PO426304  12.042  23.303   9.428
 1782POPC   GL126305  11.875  23.505   9.058
 1782POPC   GL226306  11.937  23.872   8.990
 1782POPC   C1A26307  12.079  23.501   8.654
 1782POPC   D2A26308  12.421  23.532   8.367
 1782POPC   C3A26309  12.237  23.601   7.966
 1782POPC   C4A26310  11.887  23.541   7.666
 1782POPC   C1B26311  12.312  23.994   8.715
 1782POPC   C2B26312  12.552  24.049   8.362
 1782POPC   C3B26313  12.334  24.097   7.964
 1782POPC   C4B26314  12.267  23.929   7.572
 1783POPC   NC326315   3.353  27.071   9.490
 1783POPC   PO426316   3.858  26.643   9.470
 1783POPC   GL126317   3.585  26.724   9.171
 1783POPC   GL226318   3.715  27.045   9.092
 1783POPC   C1A26319   3.584  26.649   8.741
 1783POPC   D2A26320   3.353  26.601   8.379
 1783POPC   C3A26321   3.580  26.705   8.003
 1783POPC   C4A26322   3.720  26.631   7.586
 1783POPC   C1B26323   3.816  27.112   8.645
 1783POPC   C2B26324   3.753  27.160   8.175
 1783POPC   C3B26325   3.643  27.117   7.697
 1783POPC   C4B26326   3.889  27.055   7.308
 1784POPC   NC326327  19.235   6.822   9.513
 1784POPC   PO426328  18.911   7.461   9.521
 1784POPC   GL126329  19.121   7.508   9.137
 1784POPC   GL226330  19.349   7.215   9.125
 1784POPC   C1A26331  19.152   7.458   8.688
 1784POPC   D2A26332  19.034   7.472   8.264
 1784POPC   C3A26333  19.073   7.181   7.898
 1784POPC   C4A26334  18.954   7.207   7.432
 1784POPC   C1B26335  19.389   6.986   8.730
 1784POPC   C2B26336  19.475   7.136   8.305
 1784POPC   C3B26337  19.558   7.421   7.968
 1784POPC   C4B26338  19.421   7.356   7.552
 1785POPC   NC326339  14.855  22.693   9.439
 1785POPC   PO426340  15.251  22.152   9.648
 1785POPC   GL126341  15.116  22.148   9.224
 1785POPC   GL226342  14.797  22.221   9.247
 1785POPC   C1A26343  15.337  22.175   8.812
 1785POPC   D2A26344  15.174  22.357   8.426
 1785POPC   C3A26345  15.366  22.215   8.056
 1785POPC   C4A26346  15.375  22.022   7.666
 1785POPC   C1B26347  14.823  22.335   8.814
 1785POPC   C2B26348  14.733  22.112   8.419
 1785POPC   C3B26349  14.867  21.997   8.007
 1785POPC   C4B26350  14.874  22.281   7.659
 1786POPC   NC326351  25.776  43.103   9.424
 1786POPC   PO426352  25.399  42.608   9.504
 1786POPC   GL126353  25.373  42.955   9.151
 1786POPC   GL226354  25.448  43.353   9.139
 1786POPC   C1A26355  25.409  43.070   8.721
 1786POPC   D2A26356  25.373  42.860   8.351
 1786POPC   C3A26357  25.129  43.040   8.042
 1786POPC   C4A26358  25.195  42.946   7.633
 1786POPC   C1B26359  25.565  43.553   8.720
 1786POPC   C2B26360  25.358  43.435   8.309
 1786POPC   C3B26361  25.478  43.367   7.872
 1786POPC   C4B26362  25.457  43.645   7.515
 1787POPC   NC326363  34.466   5.436   9.462
 1787POPC   PO426364  34.932   4.920   9.664
 1787POPC   GL126365  34.711   5.036   9.226
 1787POPC   GL226366  34.394   5.181   9.043
 1787POPC   C1A26367  34.761   5.026   8.757
 1787POPC   D2A26368  34.822   5.254   8.369
 1787POPC   C3A26369  34.696   5.019   8.018
 1787POPC   C4A26370  34.945   4.762   7.797
 1787POPC   C1B26371  34.243   4.877   8.754
 1787POPC   C2B26372  34.163   4.731   8.320
 1787POPC   C3B26373  34.158   4.981   7.937
 1787POPC   C4B26374  34.420   5.134   7.586
 1788POPC   NC326375  36.086  30.731   9.454
 1788POPC   PO426376  36.661  30.428   9.701
 1788POPC   GL126377  36.453  30.437   9.235
 1788POPC   GL226378  36.304  30.748   9.012
 1788POPC   C1A26379  36.221  30.311   8.840
 1788POPC   D2A26380  36.045  30.373   8.444
 1788POPC   C3A26381  36.307  30.534   8.153
 1788POPC   C4A26382  36.235  30.528   7.731
 1788POPC   C1B26383  36.026  30.792   8.718
 1788POPC   C2B26384  35.993  30.928   8.348
 1788POPC   C3B26385  35.741  30.925   8.011
 1788POPC   C4B26386  35.672  30.631   7.718
 1789POPC   NC326387  17.010  43.785   9.641
 1789POPC   PO426388  16.498  43.568   9.622
 1789POPC   GL126389  16.655  43.753   9.224
 1789POPC   GL226390  17.030  43.776   9.110
 1789POPC   C1A26391  16.581  43.755   8.769
 1789POPC   D2A26392  16.752  43.733   8.348
 1789POPC   C3A26393  16.456  43.788   8.005
 1789POPC   C4A26394  16.360  43.664   7.605
 1789POPC   C1B26395  17.040  44.024   8.698
 1789POPC   C2B26396  16.973  44.194   8.252
 1789POPC   C3B26397  16.895  43.948   7.870
 1789POPC   C4B26398  16.877  43.657   7.513
 1790POPC   NC326399  37.355  21.277   9.317
 1790POPC   PO426400  38.093  21.356   9.428
 1790POPC   GL126401  37.805  21.471   9.128
 1790POPC   GL226402  37.537  21.670   9.076
 1790POPC   C1A26403  37.952  21.587   8.752
 1790POPC   D2A26404  38.297  21.395   8.510
 1790POPC   C3A26405  38.249  21.415   8.078
 1790POPC   C4A26406  37.923  21.325   7.821
 1790POPC   C1B26407  37.483  21.401   8.680
 1790POPC   C2B26408  37.730  21.440   8.301
 1790POPC   C3B26409  37.587  21.690   7.978
 1790POPC   C4B26410  37.286  21.511   7.752
 1791POPC   NC326411   8.881  13.887   9.441
 1791POPC   PO426412   8.823  13.217   9.472
 1791POPC   GL126413   8.885  13.427   9.110
 1791POPC   GL226414   8.636  13.651   9.041
 1791POPC   C1A26415   9.147  13.529   8.777
 1791POPC   D2A26416   9.205  13.691   8.362
 1791POPC   C3A26417   9.086  13.459   7.951
 1791POPC   C4A26418   8.950  13.495   7.489
 1791POPC   C1B26419   8.703  13.731   8.609
 1791POPC   C2B26420   8.646  13.519   8.209
 1791POPC   C3B26421   8.666  13.747   7.799
 1791POPC   C4B26422   8.679  13.929   7.334
 1792POPC   NC326423  39.889  35.487   9.691
 1792POPC   PO426424  40.336  35.111   9.418
 1792POPC   GL126425  39.993  35.366   9.200
 1792POPC   GL226426  40.161  35.231   8.931
 1792POPC   C1A26427  39.805  35.524   8.778
 1792POPC   D2A26428  40.036  35.352   8.434
 1792POPC   C3A26429  39.970  35.419   8.017
 1792POPC   C4A26430  39.757  35.521   7.669
 1792POPC   C1B26431  39.822  34.992   8.744
 1792POPC   C2B26432  39.662  34.985   8.336
 1792POPC   C3B26433  39.998  34.921   8.077
 1792POPC   C4B26434  40.083  35.052   7.659
 1793POPC   NC326435  19.293  18.086   9.474
 1793POPC   PO426436  18.764  18.518   9.461
 1793POPC   GL126437  19.076  18.481   9.171
 1793POPC   GL226438  18.929  18.162   9.125
 1793POPC   C1A26439  19.302  18.376   8.821
 1793POPC   D2A26440  19.421  18.417   8.402
 1793POPC   C3A26441  19.322  18.123   8.095
 1793POPC   C4A26442  19.209  18.363   7.765
 1793POPC   C1B26443  18.759  18.359   8.785
 1793POPC   C2B26444  18.942  18.175   8.456
 1793POPC   C3B26445  18.818  18.168   8.061
 1793POPC   C4B26446  18.846  17.992   7.678
 1794POPC   NC326447  12.354   3.356   9.518
 1794POPC   PO426448  11.745   3.690   9.661
 1794POPC   GL126449  11.922   3.597   9.234
 1794POPC   GL226450  12.273   3.701   9.148
 1794POPC   C1A26451  11.993   3.346   8.840
 1794POPC   D2A26452  11.855   3.428   8.406
 1794POPC   C3A26453  12.011   3.241   8.037
 1794POPC   C4A26454  12.094   3.379   7.620
 1794POPC   C1B26455  12.500   3.520   8.785
 1794POPC   C2B26456  12.383   3.473   8.352
 1794POPC   C3B26457  12.484   3.476   7.922
 1794POPC   C4B26458  12.623   3.735   7.551
 1795POPC   NC326459   7.248  22.109   9.492
 1795POPC   PO426460   7.931  22.225   9.516
 1795POPC   GL126461   7.561  22.311   9.134
 1795POPC   GL226462   7.138  22.246   9.027
 1795POPC   C1A26463   7.518  22.207   8.684
 1795POPC   D2A26464   7.412  21.816   8.444
 1795POPC   C3A26465   7.256  21.913   8.063
 1795POPC   C4A26466   7.426  21.944   7.654
 1795POPC   C1B26467   7.163  22.589   8.751
 1795POPC   C2B26468   7.409  22.625   8.374
 1795POPC   C3B26469   7.499  22.384   7.968
 1795POPC   C4B26470   7.263  22.430   7.555
 1796POPC   NC326471  33.901  26.283   9.970
 1796POPC   PO426472  33.688  25.688   9.631
 1796POPC   GL126473  33.891  25.700   9.215
 1796POPC   GL226474  33.887  26.056   9.214
 1796POPC   C1A26475  33.826  25.811   8.768
 1796POPC   D2A26476  33.616  25.800   8.368
 1796POPC   C3A26477  33.868  25.821   7.987
 1796POPC   C4A26478  33.871  25.700   7.542
 1796POPC   C1B26479  33.615  26.291   8.912
 1796POPC   C2B26480  33.671  26.305   8.478
 1796POPC   C3B26481  33.498  26.204   8.070
 1796POPC   C4B26482  33.582  26.109   7.660
 1797POPC   NC326483   2.526  42.161   9.492
 1797POPC   PO426484   2.810  42.726   9.652
 1797POPC   GL126485   2.912  42.275   9.205
 1797POPC   GL226486   3.178  42.005   9.114
 1797POPC   C1A26487   2.854  42.315   8.691
 1797POPC   D2A26488   2.983  42.469   8.254
 1797POPC   C3A26489   2.641  42.357   7.965
 1797POPC   C4A26490   2.388  41.974   7.919
 1797POPC   C1B26491   2.987  41.838   8.688
 1797POPC   C2B26492   2.915  41.955   8.229
 1797POPC   C3B26493   3.055  42.140   7.813
 1797POPC   C4B26494   3.067  42.013   7.367
 1798POPC   NC326495  25.687  14.618   9.597
 1798POPC   PO426496  26.133  14.160   9.688
 1798POPC   GL126497  26.176  14.225   9.251
 1798POPC   GL226498  25.821  14.225   9.163
 1798POPC   C1A26499  26.231  14.362   8.817
 1798POPC   D2A26500  25.918  14.348   8.559
 1798POPC   C3A26501  25.884  14.361   8.137
 1798POPC   C4A26502  25.873  14.569   7.759
 1798POPC   C1B26503  25.943  13.917   8.871
 1798POPC   C2B26504  25.841  13.844   8.437
 1798POPC   C3B26505  25.630  13.913   8.064
 1798POPC   C4B26506  25.846  14.029   7.727
 1799POPC   NC326507  24.899  35.781   9.544
 1799POPC   PO426508  25.275  36.196   9.117
 1799POPC   GL126509  25.306  35.835   8.975
 1799POPC   GL226510  24.986  35.715   9.066
 1799POPC   C1A26511  25.492  35.802   8.601
 1799POPC   D2A26512  25.422  36.205   8.443
 1799POPC   C3A26513  25.353  36.239   8.029
 1799POPC   C4A26514  25.088  36.405   7.736
 1799POPC   C1B26515  24.862  35.858   8.704
 1799POPC   C2B26516  25.036  35.765   8.357
 1799POPC   C3B26517  24.937  35.845   7.967
 1799POPC   C4B26518  25.168  35.794   7.650
 1800POPC   NC326519  26.323  34.707   9.546
 1800POPC   PO426520  25.869  34.262   9.403
 1800POPC   GL126521  26.167  34.481   9.094
 1800POPC   GL226522  26.202  34.848   9.088
 1800POPC   C1A26523  26.163  34.602   8.637
 1800POPC   D2A26524  26.028  34.261   8.386
 1800POPC   C3A26525  26.164  34.322   8.002
 1800POPC   C4A26526  25.939  34.308   7.639
 1800POPC   C1B26527  26.382  35.079   8.776
 1800POPC   C2B26528  26.159  35.110   8.404
 1800POPC   C3B26529  26.198  34.843   8.063
 1800POPC   C4B26530  26.093  34.783   7.641
 1801POPC   NC326531  42.116  14.154   9.841
 1801POPC   PO426532  41.692  14.467   9.363
 1801POPC   GL126533  41.625  14.411   9.007
 1801POPC   GL226534  41.624  14.777   8.908
 1801POPC   C1A26535  41.366  14.390   8.679
 1801POPC   D2A26536  41.159  14.471   8.314
 1801POPC   C3A26537  41.320  14.201   8.017
 1801POPC   C4A26538  41.664  14.333   7.715
 1801POPC   C1B26539  41.847  14.577   8.594
 1801POPC   C2B26540  41.705  14.518   8.196
 1801POPC   C3B26541  41.798  14.780   7.904
 1801POPC   C4B26542  41.918  14.764   7.506
 1802POPC   NC326543  22.645  39.389   9.384
 1802POPC   PO426544  22.886  38.747   9.444
 1802POPC   GL126545  22.873  39.021   9.100
 1802POPC   GL226546  23.121  39.258   9.023
 1802POPC   C1A26547  22.730  39.115   8.693
 1802POPC   D2A26548  22.886  38.969   8.296
 1802POPC   C3A26549  22.877  39.323   8.039
 1802POPC   C4A26550  22.743  39.408   7.637
 1802POPC   C1B26551  23.275  39.141   8.640
 1802POPC   C2B26552  23.342  39.238   8.211
 1802POPC   C3B26553  23.236  39.071   7.808
 1802POPC   C4B26554  23.411  39.135   7.411
 1803POPC   NC326555  21.759  35.530   9.452
 1803POPC   PO426556  21.127  35.174   9.398
 1803POPC   GL126557  21.407  35.358   9.130
 1803POPC   GL226558  21.131  35.577   9.021
 1803POPC   C1A26559  21.688  35.176   8.797
 1803POPC   D2A26560  21.690  34.881   8.421
 1803POPC   C3A26561  21.688  35.085   8.032
 1803POPC   C4A26562  21.700  35.517   7.851
 1803POPC   C1B26563  21.197  35.306   8.686
 1803POPC   C2B26564  21.443  35.376   8.360
 1803POPC   C3B26565  21.245  35.347   7.997
 1803POPC   C4B26566  21.021  35.345   7.640
 1804POPC   NC326567  11.923  21.227   9.662
 1804POPC   PO426568  12.460  21.329   9.227
 1804POPC   GL126569  12.136  21.471   9.045
 1804POPC   GL226570  11.809  21.433   9.169
 1804POPC   C1A26571  12.091  21.358   8.628
 1804POPC   D2A26572  12.334  21.201   8.295
 1804POPC   C3A26573  12.204  21.378   7.891
 1804POPC   C4A26574  12.356  21.285   7.475
 1804POPC   C1B26575  11.625  21.199   8.801
 1804POPC   C2B26576  11.698  21.195   8.341
 1804POPC   C3B26577  11.729  20.984   7.953
 1804POPC   C4B26578  11.877  21.070   7.523
 1805POPC   NC326579   3.667   6.086   9.628
 1805POPC   PO426580   3.249   5.640   9.443
 1805POPC   GL126581   3.481   5.850   9.157
 1805POPC   GL226582   3.279   6.043   8.959
 1805POPC   C1A26583   3.543   5.703   8.744
 1805POPC   D2A26584   3.471   5.991   8.419
 1805POPC   C3A26585   3.393   5.785   8.041
 1805POPC   C4A26586   3.557   5.962   7.719
 1805POPC   C1B26587   3.799   6.113   8.835
 1805POPC   C2B26588   3.976   6.237   8.393
 1805POPC   C3B26589   3.849   6.376   7.901
 1805POPC   C4B26590   3.925   6.173   7.439
 1806POPC   NC326591  37.846  19.005   9.562
 1806POPC   PO426592  37.569  18.451   9.476
 1806POPC   GL126593  37.405  18.927   9.291
 1806POPC   GL226594  37.678  19.224   9.134
 1806POPC   C1A26595  37.252  19.151   8.898
 1806POPC   D2A26596  37.559  19.220   8.570
 1806POPC   C3A26597  37.530  19.142   8.101
 1806POPC   C4A26598  37.262  19.085   7.730
 1806POPC   C1B26599  38.005  19.351   8.784
 1806POPC   C2B26600  38.020  19.198   8.317
 1806POPC   C3B26601  37.998  19.035   7.869
 1806POPC   C4B26602  38.174  19.155   7.449
 1807POPC   NC326603   8.551  41.929   9.353
 1807POPC   PO426604   9.159  42.306   9.568
 1807POPC   GL126605   9.132  42.528   9.211
 1807POPC   GL226606   8.815  42.356   9.122
 1807POPC   C1A26607   9.183  42.449   8.797
 1807POPC   D2A26608   9.328  42.385   8.437
 1807POPC   C3A26609   9.178  42.643   8.159
 1807POPC   C4A26610   9.287  42.469   7.775
 1807POPC   C1B26611   8.667  42.297   8.693
 1807POPC   C2B26612   8.694  42.517   8.275
 1807POPC   C3B26613   8.781  42.360   7.825
 1807POPC   C4B26614   8.621  42.071   7.446
 1808POPC   NC326615   1.195  28.538   9.928
 1808POPC   PO426616   1.358  29.095   9.554
 1808POPC   GL126617   1.189  29.104   9.154
 1808POPC   GL226618   1.549  29.091   9.063
 1808POPC   C1A26619   0.942  28.988   8.769
 1808POPC   D2A26620   1.052  29.073   8.348
 1808POPC   C3A26621   1.072  28.874   7.942
 1808POPC   C4A26622   1.377  28.938   7.580
 1808POPC   C1B26623   1.361  29.282   8.712
 1808POPC   C2B26624   1.544  29.252   8.367
 1808POPC   C3B26625   1.433  29.232   7.994
 1808POPC   C4B26626   1.198  29.520   7.763
 1809POPC   NC326627  38.670  14.908   9.552
 1809POPC   PO426628  38.400  15.533   9.446
 1809POPC   GL126629  38.474  15.381   9.053
 1809POPC   GL226630  38.430  15.068   9.105
 1809POPC   C1A26631  38.627  15.284   8.628
 1809POPC   D2A26632  38.605  14.943   8.342
 1809POPC   C3A26633  38.708  15.198   8.016
 1809POPC   C4A26634  38.667  15.412   7.659
 1809POPC   C1B26635  38.180  15.121   8.711
 1809POPC   C2B26636  38.243  15.329   8.273
 1809POPC   C3B26637  38.192  15.254   7.841
 1809POPC   C4B26638  38.400  14.905   7.744
 1810POPC   NC326639  39.796  13.901   9.420
 1810POPC   PO426640  40.420  13.729   9.358
 1810POPC   GL126641  40.068  13.491   9.148
 1810POPC   GL226642  39.705  13.564   9.046
 1810POPC   C1A26643  40.063  13.379   8.699
 1810POPC   D2A26644  40.347  13.508   8.356
 1810POPC   C3A26645  40.167  13.715   7.998
 1810POPC   C4A26646  40.105  13.468   7.715
 1810POPC   C1B26647  39.598  13.587   8.616
 1810POPC   C2B26648  39.809  13.448   8.236
 1810POPC   C3B26649  39.640  13.355   7.831
 1810POPC   C4B26650  39.688  13.561   7.387
 1811POPC   NC326651  24.456  25.630  10.141
 1811POPC   PO426652  24.461  25.128   9.644
 1811POPC   GL126653  24.455  25.298   9.249
 1811POPC   GL226654  24.730  25.489   9.203
 1811POPC   C1A26655  24.583  25.197   8.821
 1811POPC   D2A26656  24.350  25.272   8.457
 1811POPC   C3A26657  24.561  25.278   8.095
 1811POPC   C4A26658  24.565  25.279   7.683
 1811POPC   C1B26659  24.881  25.625   8.835
 1811POPC   C2B26660  24.884  25.439   8.454
 1811POPC   C3B26661  24.914  25.640   8.077
 1811POPC   C4B26662  24.938  25.621   7.693
 1812POPC   NC326663   1.562   1.093   9.529
 1812POPC   PO426664   0.963   1.296   9.297
 1812POPC   GL126665   1.344   1.250   9.104
 1812POPC   GL226666   1.367   0.887   9.108
 1812POPC   C1A26667   1.487   1.193   8.699
 1812POPC   D2A26668   1.130   1.153   8.424
 1812POPC   C3A26669   1.128   1.428   8.083
 1812POPC   C4A26670   0.957   1.377   7.704
 1812POPC   C1B26671   1.401   0.651   8.734
 1812POPC   C2B26672   1.229   0.675   8.315
 1812POPC   C3B26673   1.207   0.916   7.918
 1812POPC   C4B26674   1.365   0.906   7.498
 1813POPC   NC326675  21.517  34.864   9.403
 1813POPC   PO426676  21.041  34.335   9.395
 1813POPC   GL126677  21.271  34.527   9.057
 1813POPC   GL226678  21.225  34.882   8.996
 1813POPC   C1A26679  21.616  34.476   8.737
 1813POPC   D2A26680  21.496  34.336   8.370
 1813POPC   C3A26681  21.484  34.613   8.030
 1813POPC   C4A26682  21.643  34.685   7.626
 1813POPC   C1B26683  21.232  34.752   8.595
 1813POPC   C2B26684  21.022  34.529   8.308
 1813POPC   C3B26685  21.060  34.349   7.930
 1813POPC   C4B26686  20.834  34.447   7.569
 1814POPC   NC326687   0.269  12.403   9.375
 1814POPC   PO426688   0.601  12.847   9.758
 1814POPC   GL126689   0.555  12.946   9.206
 1814POPC   GL226690   0.329  12.726   9.003
 1814POPC   C1A26691   0.536  13.087   8.726
 1814POPC   D2A26692   0.634  13.304   8.327
 1814POPC   C3A26693   0.816  13.129   7.972
 1814POPC   C4A26694   0.545  12.835   7.779
 1814POPC   C1B26695   0.042  12.919   8.718
 1814POPC   C2B26696  44.982  13.060   8.315
 1814POPC   C3B26697   0.090  12.818   7.995
 1814POPC   C4B26698   0.059  12.658   7.604
 1815POPC   NC326699  34.797   7.856   9.353
 1815POPC   PO426700  34.552   8.335   9.770
 1815POPC   GL126701  34.487   8.282   9.285
 1815POPC   GL226702  34.776   8.295   9.100
 1815POPC   C1A26703  34.385   8.214   8.794
 1815POPC   D2A26704  34.271   8.019   8.391
 1815POPC   C3A26705  34.289   8.314   8.054
 1815POPC   C4A26706  34.375   8.230   7.649
 1815POPC   C1B26707  34.941   8.246   8.721
 1815POPC   C2B26708  34.796   7.971   8.442
 1815POPC   C3B26709  34.689   8.008   8.037
 1815POPC   C4B26710  34.851   8.325   7.819
 1816POPC   NC326711   0.242  37.062   9.600
 1816POPC   PO426712   0.625  36.543   9.363
 1816POPC   GL126713   0.372  36.811   9.123
 1816POPC   GL226714   0.406  37.191   9.143
 1816POPC   C1A26715   0.419  36.777   8.685
 1816POPC   D2A26716   0.595  36.947   8.304
 1816POPC   C3A26717   0.415  36.746   7.978
 1816POPC   C4A26718   0.725  36.583   7.713
 1816POPC   C1B26719   0.443  37.271   8.727
 1816POPC   C2B26720   0.159  37.160   8.372
 1816POPC   C3B26721   0.298  37.245   7.958
 1816POPC   C4B26722   0.368  37.019   7.560
 1817POPC   NC326723  25.587  36.470   9.313
 1817POPC   PO426724  24.927  36.699   9.435
 1817POPC   GL126725  25.079  36.910   9.089
 1817POPC   GL226726  25.396  37.020   9.201
 1817POPC   C1A26727  25.320  36.835   8.703
 1817POPC   D2A26728  25.184  36.669   8.297
 1817POPC   C3A26729  25.345  36.812   7.907
 1817POPC   C4A26730  25.077  36.920   7.579
 1817POPC   C1B26731  25.313  37.338   8.871
 1817POPC   C2B26732  25.485  37.423   8.472
 1817POPC   C3B26733  25.395  37.261   8.130
 1817POPC   C4B26734  25.342  37.333   7.725
 1818POPC   NC326735  39.127  37.878   9.571
 1818POPC   PO426736  39.222  37.208   9.513
 1818POPC   GL126737  39.097  37.544   9.177
 1818POPC   GL226738  39.401  37.731   9.154
 1818POPC   C1A26739  39.144  37.679   8.707
 1818POPC   D2A26740  39.279  37.574   8.254
 1818POPC   C3A26741  39.254  37.816   7.881
 1818POPC   C4A26742  38.981  37.780   7.517
 1818POPC   C1B26743  39.551  37.985   8.820
 1818POPC   C2B26744  39.455  38.068   8.405
 1818POPC   C3B26745  39.700  38.097   8.063
 1818POPC   C4B26746  39.687  37.998   7.646
 1819POPC   NC326747  27.990  39.984   9.463
 1819POPC   PO426748  28.593  39.758   9.311
 1819POPC   GL126749  28.285  40.015   9.026
 1819POPC   GL226750  28.032  40.278   9.050
 1819POPC   C1A26751  28.189  40.147   8.582
 1819POPC   D2A26752  28.266  39.926   8.195
 1819POPC   C3A26753  28.616  40.082   7.959
 1819POPC   C4A26754  28.314  40.382   7.849
 1819POPC   C1B26755  27.798  39.931   8.822
 1819POPC   C2B26756  27.750  39.949   8.369
 1819POPC   C3B26757  27.863  40.238   8.018
 1819POPC   C4B26758  27.892  40.207   7.534
 1820POPC   NC326759  28.516  17.057   9.548
 1820POPC   PO426760  28.369  16.398   9.506
 1820POPC   GL126761  28.415  16.716   9.166
 1820POPC   GL226762  28.230  17.056   9.138
 1820POPC   C1A26763  28.464  16.581   8.755
 1820POPC   D2A26764  28.235  16.615   8.403
 1820POPC   C3A26765  28.408  16.752   8.065
 1820POPC   C4A26766  28.290  16.699   7.687
 1820POPC   C1B26767  28.138  16.977   8.740
 1820POPC   C2B26768  28.216  17.126   8.354
 1820POPC   C3B26769  28.015  17.075   7.983
 1820POPC   C4B26770  28.108  17.154   7.568
 1821POPC   NC326771  12.130  42.813   9.553
 1821POPC   PO426772  12.603  43.116   9.489
 1821POPC   GL126773  12.291  43.102   9.126
 1821POPC   GL226774  11.941  43.188   9.186
 1821POPC   C1A26775  12.189  43.089   8.662
 1821POPC   D2A26776  12.142  42.850   8.266
 1821POPC   C3A26777  12.181  43.047   7.856
 1821POPC   C4A26778  12.563  43.193   7.693
 1821POPC   C1B26779  11.741  43.314   8.768
 1821POPC   C2B26780  11.707  43.139   8.362
 1821POPC   C3B26781  11.710  42.866   7.994
 1821POPC   C4B26782  11.498  42.824   7.624
 1822POPC   NC326783  31.900   9.092   9.462
 1822POPC   PO426784  31.345   8.811   9.972
 1822POPC   GL126785  31.499   8.800   9.397
 1822POPC   GL226786  31.601   9.050   9.049
 1822POPC   C1A26787  31.444   8.599   8.918
 1822POPC   D2A26788  31.543   8.804   8.488
 1822POPC   C3A26789  31.572   8.680   8.035
 1822POPC   C4A26790  31.420   8.847   7.618
 1822POPC   C1B26791  31.693   9.344   8.701
 1822POPC   C2B26792  31.646   9.513   8.258
 1822POPC   C3B26793  31.542   9.283   7.864
 1822POPC   C4B26794  31.658   9.237   7.392
 1823POPC   NC326795  11.767  29.668   9.318
 1823POPC   PO426796  12.305  30.073   9.588
 1823POPC   GL126797  12.263  30.037   9.150
 1823POPC   GL226798  11.895  30.104   9.106
 1823POPC   C1A26799  12.232  29.870   8.703
 1823POPC   D2A26800  12.023  29.998   8.313
 1823POPC   C3A26801  12.209  29.921   7.927
 1823POPC   C4A26802  12.494  29.800   7.620
 1823POPC   C1B26803  11.734  29.943   8.736
 1823POPC   C2B26804  11.824  29.517   8.537
 1823POPC   C3B26805  11.925  29.514   8.103
 1823POPC   C4B26806  11.733  29.718   7.789
 1824POPC   NC326807   3.934  30.312   9.863
 1824POPC   PO426808   3.368  30.399   9.448
 1824POPC   GL126809   3.435  30.566   9.007
 1824POPC   GL226810   3.726  30.617   8.851
 1824POPC   C1A26811   3.250  30.665   8.572
 1824POPC   D2A26812   3.233  30.562   8.112
 1824POPC   C3A26813   3.523  30.813   7.851
 1824POPC   C4A26814   3.731  31.233   7.875
 1824POPC   C1B26815   3.960  30.397   8.550
 1824POPC   C2B26816   3.927  30.357   8.135
 1824POPC   C3B26817   3.617  30.309   7.844
 1824POPC   C4B26818   3.510  30.423   7.478
 1825POPC   NC326819  28.456  15.445   9.545
 1825POPC   PO426820  28.204  14.865   9.593
 1825POPC   GL126821  28.229  15.085   9.200
 1825POPC   GL226822  28.571  15.127   9.148
 1825POPC   C1A26823  28.249  15.168   8.746
 1825POPC   D2A26824  28.079  14.933   8.407
 1825POPC   C3A26825  28.169  15.089   7.994
 1825POPC   C4A26826  28.053  15.373   7.662
 1825POPC   C1B26827  28.734  14.997   8.746
 1825POPC   C2B26828  28.585  14.965   8.325
 1825POPC   C3B26829  28.676  15.181   7.923
 1825POPC   C4B26830  28.847  15.151   7.486
 1826POPC   NC326831  17.056   8.151   9.529
 1826POPC   PO426832  17.744   7.843   9.557
 1826POPC   GL126833  17.633   7.979   9.145
 1826POPC   GL226834  17.293   8.032   9.110
 1826POPC   C1A26835  17.831   8.090   8.766
 1826POPC   D2A26836  17.952   8.307   8.400
 1826POPC   C3A26837  17.837   8.079   8.035
 1826POPC   C4A26838  17.791   8.302   7.664
 1826POPC   C1B26839  17.380   8.324   8.790
 1826POPC   C2B26840  17.443   8.157   8.405
 1826POPC   C3B26841  17.365   8.292   8.003
 1826POPC   C4B26842  17.353   8.001   7.680
 1827POPC   NC326843   6.128   7.556   9.706
 1827POPC   PO426844   5.580   7.714   9.351
 1827POPC   GL126845   5.730   7.528   8.948
 1827POPC   GL226846   6.037   7.362   8.906
 1827POPC   C1A26847   5.782   7.449   8.491
 1827POPC   D2A26848   5.662   7.759   8.182
 1827POPC   C3A26849   5.847   7.705   7.805
 1827POPC   C4A26850   5.763   7.419   7.492
 1827POPC   C1B26851   6.241   7.126   8.572
 1827POPC   C2B26852   6.068   7.054   8.171
 1827POPC   C3B26853   6.126   7.232   7.765
 1827POPC   C4B26854   6.195   7.248   7.287
 1828POPC   NC326855  21.667   3.390   9.544
 1828POPC   PO426856  21.268   3.941   9.510
 1828POPC   GL126857  21.396   3.718   9.110
 1828POPC   GL226858  21.387   3.350   9.092
 1828POPC   C1A26859  21.474   3.679   8.646
 1828POPC   D2A26860  21.637   3.943   8.310
 1828POPC   C3A26861  21.622   3.804   7.884
 1828POPC   C4A26862  21.506   3.806   7.460
 1828POPC   C1B26863  21.197   3.256   8.691
 1828POPC   C2B26864  21.360   3.276   8.254
 1828POPC   C3B26865  21.230   3.339   7.806
 1828POPC   C4B26866  21.448   3.307   7.407
 1829POPC   NC326867  26.868  31.615   9.519
 1829POPC   PO426868  27.208  30.999   9.468
 1829POPC   GL126869  27.129  31.365   9.148
 1829POPC   GL226870  26.753  31.463   9.040
 1829POPC   C1A26871  27.123  31.591   8.737
 1829POPC   D2A26872  26.767  31.531   8.450
 1829POPC   C3A26873  26.733  31.263   8.105
 1829POPC   C4A26874  26.878  31.423   7.720
 1829POPC   C1B26875  26.507  31.793   8.802
 1829POPC   C2B26876  26.481  31.951   8.349
 1829POPC   C3B26877  26.416  31.669   7.979
 1829POPC   C4B26878  26.473  31.602   7.498
 1830POPC   NC326879  34.320  30.536   9.588
 1830POPC   PO426880  34.965  30.438   9.376
 1830POPC   GL126881  34.604  30.729   9.199
 1830POPC   GL226882  34.403  30.538   9.080
 1830POPC   C1A26883  34.431  30.905   8.747
 1830POPC   D2A26884  34.679  30.920   8.326
 1830POPC   C3A26885  34.513  30.889   7.878
 1830POPC   C4A26886  34.455  30.963   7.409
 1830POPC   C1B26887  34.719  30.482   8.718
 1830POPC   C2B26888  34.609  30.400   8.262
 1830POPC   C3B26889  34.565  30.388   7.785
 1830POPC   C4B26890  34.764  30.483   7.383
 1831POPC   NC326891  26.931  29.830   9.399
 1831POPC   PO426892  27.654  29.938   9.480
 1831POPC   GL126893  27.652  29.894   9.112
 1831POPC   GL226894  27.317  29.825   9.046
 1831POPC   C1A26895  27.967  30.008   8.816
 1831POPC   D2A26896  28.097  29.939   8.376
 1831POPC   C3A26897  27.789  30.009   8.034
 1831POPC   C4A26898  27.487  30.231   7.768
 1831POPC   C1B26899  27.583  29.686   8.675
 1831POPC   C2B26900  27.767  29.520   8.329
 1831POPC   C3B26901  27.576  29.540   7.952
 1831POPC   C4B26902  27.554  29.726   7.568
 1832POPC   NC326903  32.359  16.279  10.088
 1832POPC   PO426904  32.250  15.823   9.581
 1832POPC   GL126905  32.207  16.001   9.145
 1832POPC   GL226906  31.948  15.830   9.037
 1832POPC   C1A26907  32.438  15.947   8.733
 1832POPC   D2A26908  32.407  15.892   8.262
 1832POPC   C3A26909  32.163  16.241   8.091
 1832POPC   C4A26910  32.282  16.217   7.663
 1832POPC   C1B26911  31.928  16.056   8.657
 1832POPC   C2B26912  31.762  15.920   8.275
 1832POPC   C3B26913  31.984  15.811   7.909
 1832POPC   C4B26914  32.184  15.711   7.565
 1833POPC   NC326915   6.711   4.650   9.915
 1833POPC   PO426916   6.705   5.301   9.721
 1833POPC   GL126917   6.525   5.323   9.301
 1833POPC   GL226918   6.742   5.080   9.219
 1833POPC   C1A26919   6.521   5.441   8.871
 1833POPC   D2A26920   6.599   5.376   8.426
 1833POPC   C3A26921   6.453   5.502   8.000
 1833POPC   C4A26922   6.538   5.270   7.594
 1833POPC   C1B26923   6.579   4.931   8.826
 1833POPC   C2B26924   6.485   4.812   8.441
 1833POPC   C3B26925   6.568   4.908   8.020
 1833POPC   C4B26926   6.546   4.720   7.628
 1834POPC   NC326927  17.114   9.847   9.540
 1834POPC   PO426928  17.592   9.392   9.479
 1834POPC   GL126929  17.369   9.580   9.172
 1834POPC   GL226930  17.080   9.414   9.258
 1834POPC   C1A26931  17.310   9.788   8.780
 1834POPC   D2A26932  17.488  10.052   8.455
 1834POPC   C3A26933  17.647   9.964   8.056
 1834POPC   C4A26934  17.774   9.681   7.779
 1834POPC   C1B26935  17.072   9.322   8.832
 1834POPC   C2B26936  17.206   9.435   8.415
 1834POPC   C3B26937  17.242   9.636   8.029
 1834POPC   C4B26938  17.331   9.579   7.573
 1835POPC   NC326939  35.157  23.164   9.553
 1835POPC   PO426940  35.753  23.064   9.372
 1835POPC   GL126941  35.504  23.098   9.029
 1835POPC   GL226942  35.154  23.036   9.054
 1835POPC   C1A26943  35.449  22.870   8.660
 1835POPC   D2A26944  35.664  22.630   8.361
 1835POPC   C3A26945  35.487  22.878   8.029
 1835POPC   C4A26946  35.634  23.026   7.649
 1835POPC   C1B26947  35.017  22.646   8.783
 1835POPC   C2B26948  35.166  22.549   8.336
 1835POPC   C3B26949  35.097  22.593   7.896
 1835POPC   C4B26950  35.148  22.856   7.552
 1836POPC   NC326951  26.941   1.562   9.937
 1836POPC   PO426952  26.704   2.180   9.610
 1836POPC   GL126953  26.789   2.129   9.180
 1836POPC   GL226954  27.001   2.405   9.158
 1836POPC   C1A26955  26.760   1.916   8.776
 1836POPC   D2A26956  26.665   2.074   8.380
 1836POPC   C3A26957  26.735   1.778   8.051
 1836POPC   C4A26958  26.498   1.714   7.676
 1836POPC   C1B26959  27.076   2.308   8.727
 1836POPC   C2B26960  27.169   2.117   8.331
 1836POPC   C3B26961  27.027   2.268   7.948
 1836POPC   C4B26962  26.840   2.075   7.599
 1837POPC   NC326963   3.784  21.657   9.571
 1837POPC   PO426964   4.302  21.182   9.650
 1837POPC   GL126965   4.277  21.385   9.230
 1837POPC   GL226966   3.904  21.332   9.187
 1837POPC   C1A26967   4.554  21.370   8.819
 1837POPC   D2A26968   4.738  21.569   8.420
 1837POPC   C3A26969   4.472  21.407   8.078
 1837POPC   C4A26970   4.338  21.622   7.719
 1837POPC   C1B26971   4.081  21.134   8.821
 1837POPC   C2B26972   4.269  21.091   8.436
 1837POPC   C3B26973   4.061  21.040   8.047
 1837POPC   C4B26974   3.913  21.336   7.734
 1838POPC   NC326975  33.969  31.495   9.435
 1838POPC   PO426976  33.392  31.114   9.465
 1838POPC   GL126977  33.718  31.173   9.141
 1838POPC   GL226978  33.992  30.982   9.006
 1838POPC   C1A26979  33.903  31.471   8.790
 1838POPC   D2A26980  34.108  31.852   8.585
 1838POPC   C3A26981  33.847  31.829   8.270
 1838POPC   C4A26982  33.819  31.568   7.909
 1838POPC   C1B26983  33.620  31.036   8.682
 1838POPC   C2B26984  33.710  31.187   8.283
 1838POPC   C3B26985  33.859  31.021   7.896
 1838POPC   C4B26986  33.534  31.134   7.629
 1839POPC   NC326987  28.294  29.033   9.604
 1839POPC   PO426988  28.480  29.674   9.624
 1839POPC   GL126989  28.470  29.347   9.227
 1839POPC   GL226990  28.194  29.161   9.133
 1839POPC   C1A26991  28.569  29.277   8.780
 1839POPC   D2A26992  28.729  29.064   8.398
 1839POPC   C3A26993  28.669  29.278   8.009
 1839POPC   C4A26994  28.505  29.119   7.633
 1839POPC   C1B26995  28.060  28.839   8.869
 1839POPC   C2B26996  28.097  28.974   8.464
 1839POPC   C3B26997  28.251  28.954   8.061
 1839POPC   C4B26998  28.014  28.957   7.678
 1840POPC   NC326999   1.335  12.433   9.459
 1840POPC   PO427000   1.178  13.070   9.225
 1840POPC   GL127001   1.240  12.737   9.086
 1840POPC   GL227002   0.905  12.604   9.279
 1840POPC   C1A27003   1.411  12.734   8.696
 1840POPC   D2A27004   1.742  12.712   8.431
 1840POPC   C3A27005   1.536  12.618   8.054
 1840POPC   C4A27006   1.542  12.683   7.624
 1840POPC   C1B27007   0.822  12.663   8.852
 1840POPC   C2B27008   0.953  12.656   8.445
 1840POPC   C3B27009   1.010  12.644   8.009
 1840POPC   C4B27010   1.019  12.800   7.606
 1841POPC   NC327011   0.262  14.203   9.601
 1841POPC   PO427012   0.814  14.512   9.434
 1841POPC   GL127013   0.556  14.252   9.179
 1841POPC   GL227014   0.243  14.442   9.152
 1841POPC   C1A27015   0.540  14.163   8.755
 1841POPC   D2A27016   0.624  14.389   8.370
 1841POPC   C3A27017   0.501  14.204   7.972
 1841POPC   C4A27018   0.679  14.196   7.563
 1841POPC   C1B27019   0.471  14.671   8.822
 1841POPC   C2B27020   0.283  14.794   8.422
 1841POPC   C3B27021   0.374  14.966   8.058
 1841POPC   C4B27022   0.537  14.679   7.774
 1842POPC   NC327023  10.015  16.043   9.848
 1842POPC   PO427024   9.450  15.883   9.467
 1842POPC   GL127025   9.494  16.008   9.065
 1842POPC   GL227026   9.295  16.299   9.008
 1842POPC   C1A27027   9.842  15.935   8.770
 1842POPC   D2A27028   9.741  15.933   8.360
 1842POPC   C3A27029  10.055  16.011   8.064
 1842POPC   C4A27030   9.825  15.871   7.712
 1842POPC   C1B27031   9.636  16.401   8.722
 1842POPC   C2B27032   9.895  16.451   8.352
 1842POPC   C3B27033   9.775  16.409   7.920
 1842POPC   C4B27034   9.818  16.348   7.496
 1843POPC   NC327035  41.936  26.699   9.713
 1843POPC   PO427036  41.317  26.896   9.577
 1843POPC   GL127037  41.382  26.767   9.138
 1843POPC   GL227038  41.706  26.638   9.078
 1843POPC   C1A27039  41.510  26.892   8.698
 1843POPC   D2A27040  41.619  26.702   8.306
 1843POPC   C3A27041  41.471  26.886   7.932
 1843POPC   C4A27042  41.512  27.091   7.524
 1843POPC   C1B27043  41.912  26.512   8.682
 1843POPC   C2B27044  42.062  26.384   8.261
 1843POPC   C3B27045  41.810  26.439   7.905
 1843POPC   C4B27046  41.762  26.658   7.527
 1844POPC   NC327047  24.929  21.882   9.564
 1844POPC   PO427048  24.275  22.165   9.728
 1844POPC   GL127049  24.408  22.069   9.287
 1844POPC   GL227050  24.628  21.801   9.167
 1844POPC   C1A27051  24.450  22.179   8.834
 1844POPC   D2A27052  24.735  22.264   8.443
 1844POPC   C3A27053  24.521  22.355   8.041
 1844POPC   C4A27054  24.260  22.595   7.719
 1844POPC   C1B27055  24.792  21.812   8.743
 1844POPC   C2B27056  24.446  21.845   8.429
 1844POPC   C3B27057  24.417  21.834   8.013
 1844POPC   C4B27058  24.231  22.081   7.718
 1845POPC   NC327059  24.283  11.404   9.747
 1845POPC   PO427060  24.651  10.922   9.359
 1845POPC   GL127061  24.673  11.293   9.112
 1845POPC   GL227062  24.352  11.426   9.210
 1845POPC   C1A27063  24.927  11.496   8.755
 1845POPC   D2A27064  24.913  11.673   8.320
 1845POPC   C3A27065  24.916  11.326   8.023
 1845POPC   C4A27066  24.870  11.109   7.624
 1845POPC   C1B27067  24.285  11.342   8.764
 1845POPC   C2B27068  24.528  11.327   8.369
 1845POPC   C3B27069  24.417  11.450   7.919
 1845POPC   C4B27070  24.328  11.836   7.677
 1846POPC   NC327071   2.362  42.847   9.261
 1846POPC   PO427072   2.001  43.252   9.690
 1846POPC   GL127073   2.028  43.247   9.213
 1846POPC   GL227074   1.726  43.417   9.198
 1846POPC   C1A27075   2.143  43.180   8.728
 1846POPC   D2A27076   2.332  43.155   8.251
 1846POPC   C3A27077   2.001  43.190   7.906
 1846POPC   C4A27078   2.037  43.110   7.408
 1846POPC   C1B27079   1.730  43.546   8.761
 1846POPC   C2B27080   1.613  43.393   8.346
 1846POPC   C3B27081   1.477  43.416   7.932
 1846POPC   C4B27082   1.705  43.436   7.580
 1847POPC   NC327083  28.000  42.758   9.341
 1847POPC   PO427084  28.285  43.230   9.737
 1847POPC   GL127085  28.272  43.190   9.225
 1847POPC   GL227086  27.970  43.170   9.056
 1847POPC   C1A27087  28.374  43.247   8.773
 1847POPC   D2A27088  28.619  43.199   8.391
 1847POPC   C3A27089  28.431  43.431   8.061
 1847POPC   C4A27090  28.325  43.313   7.638
 1847POPC   C1B27091  27.953  42.915   8.688
 1847POPC   C2B27092  28.156  43.007   8.300
 1847POPC   C3B27093  28.349  42.879   7.919
 1847POPC   C4B27094  28.119  42.826   7.514
 1848POPC   NC327095  12.931  35.569   9.391
 1848POPC   PO427096  13.172  35.025   9.246
 1848POPC   GL127097  12.781  35.128   9.094
 1848POPC   GL227098  12.764  35.516   8.932
 1848POPC   C1A27099  12.475  35.147   8.759
 1848POPC   D2A27100  12.591  35.387   8.429
 1848POPC   C3A27101  12.523  35.221   8.041
 1848POPC   C4A27102  12.542  35.486   7.714
 1848POPC   C1B27103  13.043  35.291   8.668
 1848POPC   C2B27104  13.020  35.117   8.278
 1848POPC   C3B27105  13.024  35.307   7.886
 1848POPC   C4B27106  13.107  35.116   7.526
 1849POPC   NC327107   0.138   5.656   9.504
 1849POPC   PO427108   0.693   5.989   9.316
 1849POPC   GL127109   0.315   5.973   9.095
 1849POPC   GL227110   0.153   6.296   9.072
 1849POPC   C1A27111   0.319   5.735   8.707
 1849POPC   D2A27112   0.596   5.697   8.358
 1849POPC   C3A27113   0.492   5.847   7.956
 1849POPC   C4A27114   0.633   6.201   7.681
 1849POPC   C1B27115   0.066   6.175   8.664
 1849POPC   C2B27116   0.276   6.239   8.269
 1849POPC   C3B27117   0.141   6.193   7.853
 1849POPC   C4B27118  44.989   5.817   7.717
 1850POPC   NC327119  13.359  21.376   9.462
 1850POPC   PO427120  13.985  21.560   9.483
 1850POPC   GL127121  13.767  21.551   9.087
 1850POPC   GL227122  13.425  21.644   9.042
 1850POPC   C1A27123  13.623  21.224   8.795
 1850POPC   D2A27124  13.568  21.031   8.391
 1850POPC   C3A27125  13.772  21.284   8.079
 1850POPC   C4A27126  13.696  21.528   7.726
 1850POPC   C1B27127  13.228  21.550   8.689
 1850POPC   C2B27128  13.355  21.500   8.294
 1850POPC   C3B27129  13.196  21.662   7.923
 1850POPC   C4B27130  13.310  21.847   7.565
 1851POPC   NC327131  25.899  23.423   9.586
 1851POPC   PO427132  25.975  22.697   9.575
 1851POPC   GL127133  25.905  22.913   9.179
 1851POPC   GL227134  25.719  23.209   9.177
 1851POPC   C1A27135  25.921  22.794   8.760
 1851POPC   D2A27136  26.185  22.710   8.433
 1851POPC   C3A27137  26.001  22.724   8.069
 1851POPC   C4A27138  26.206  22.756   7.715
 1851POPC   C1B27139  25.726  23.274   8.773
 1851POPC   C2B27140  25.749  23.170   8.384
 1851POPC   C3B27141  25.740  23.358   8.025
 1851POPC   C4B27142  25.831  23.091   7.705
 1852POPC   NC327143   9.850  31.226   9.517
 1852POPC   PO427144   9.928  30.571   9.503
 1852POPC   GL127145   9.742  30.578   9.135
 1852POPC   GL227146   9.615  30.931   9.168
 1852POPC   C1A27147   9.696  30.422   8.710
 1852POPC   D2A27148   9.530  30.294   8.306
 1852POPC   C3A27149   9.774  30.454   7.981
 1852POPC   C4A27150  10.233  30.472   7.928
 1852POPC   C1B27151   9.499  30.904   8.755
 1852POPC   C2B27152   9.604  30.840   8.351
 1852POPC   C3B27153   9.378  30.789   8.009
 1852POPC   C4B27154   9.456  30.700   7.615
 1853POPC   NC327155  30.734  16.248   9.437
 1853POPC   PO427156  30.500  15.628   9.481
 1853POPC   GL127157  30.501  15.734   9.082
 1853POPC   GL227158  30.836  15.836   9.106
 1853POPC   C1A27159  30.484  16.005   8.721
 1853POPC   D2A27160  30.351  15.951   8.300
 1853POPC   C3A27161  30.541  16.215   8.006
 1853POPC   C4A27162  30.644  16.347   7.603
 1853POPC   C1B27163  31.014  15.950   8.696
 1853POPC   C2B27164  30.976  16.063   8.248
 1853POPC   C3B27165  30.847  15.847   7.845
 1853POPC   C4B27166  31.082  15.645   7.495
 1854POPC   NC327167  20.026   6.214   9.454
 1854POPC   PO427168  19.577   6.566   9.686
 1854POPC   GL127169  19.650   6.556   9.255
 1854POPC   GL227170  19.318   6.433   9.169
 1854POPC   C1A27171  19.998   6.613   8.923
 1854POPC   D2A27172  20.149   6.678   8.510
 1854POPC   C3A27173  19.978   6.899   8.178
 1854POPC   C4A27174  20.178   6.821   7.808
 1854POPC   C1B27175  19.538   6.494   8.762
 1854POPC   C2B27176  19.578   6.636   8.355
 1854POPC   C3B27177  19.732   6.463   7.974
 1854POPC   C4B27178  19.588   6.391   7.570
 1855POPC   NC327179  41.323  11.510   9.494
 1855POPC   PO427180  41.505  12.166   9.461
 1855POPC   GL127181  41.571  11.984   9.100
 1855POPC   GL227182  41.253  11.819   9.094
 1855POPC   C1A27183  41.579  12.205   8.716
 1855POPC   D2A27184  41.408  12.149   8.311
 1855POPC   C3A27185  41.646  12.060   7.973
 1855POPC   C4A27186  41.479  12.185   7.550
 1855POPC   C1B27187  41.165  11.917   8.714
 1855POPC   C2B27188  41.002  11.822   8.332
 1855POPC   C3B27189  41.208  11.773   7.946
 1855POPC   C4B27190  41.229  11.732   7.511
 1856POPC   NC327191  10.070  10.545   9.505
 1856POPC   PO427192   9.574  10.169   9.324
 1856POPC   GL127193   9.635  10.562   9.166
 1856POPC   GL227194   9.950  10.654   9.015
 1856POPC   C1A27195   9.465  10.741   8.802
 1856POPC   D2A27196   9.707  10.586   8.478
 1856POPC   C3A27197   9.616  10.762   8.088
 1856POPC   C4A27198   9.598  10.518   7.749
 1856POPC   C1B27199  10.139  10.391   8.697
 1856POPC   C2B27200  10.039  10.188   8.305
 1856POPC   C3B27201  10.146  10.233   7.856
 1856POPC   C4B27202  10.039  10.404   7.441
 1857POPC   NC327203  11.136  44.218   9.475
 1857POPC   PO427204  11.152  43.563   9.524
 1857POPC   GL127205  11.308  43.849   9.177
 1857POPC   GL227206  10.985  43.839   9.135
 1857POPC   C1A27207  11.374  44.232   8.842
 1857POPC   D2A27208  11.556  44.437   8.416
 1857POPC   C3A27209  11.685  44.121   8.051
 1857POPC   C4A27210  11.557  43.678   7.908
 1857POPC   C1B27211  10.917  44.012   8.780
 1857POPC   C2B27212  10.885  43.849   8.400
 1857POPC   C3B27213  11.068  43.770   7.993
 1857POPC   C4B27214  10.810  43.627   7.628
 1858POPC   NC327215   5.597  10.621   9.948
 1858POPC   PO427216   5.071  10.349   9.647
 1858POPC   GL127217   5.018  10.542   9.203
 1858POPC   GL227218   5.172  10.263   9.050
 1858POPC   C1A27219   5.232  10.669   8.776
 1858POPC   D2A27220   5.230  10.522   8.345
 1858POPC   C3A27221   5.193  10.796   8.000
 1858POPC   C4A27222   4.770  10.769   7.807
 1858POPC   C1B27223   5.172  10.041   8.669
 1858POPC   C2B27224   5.183  10.014   8.231
 1858POPC   C3B27225   4.846  10.207   8.017
 1858POPC   C4B27226   5.097  10.379   7.745
 1859POPC   NC327227  24.909  25.083   9.438
 1859POPC   PO427228  25.364  25.538   9.513
 1859POPC   GL127229  25.255  25.401   9.105
 1859POPC   GL227230  25.267  25.040   9.072
 1859POPC   C1A27231  25.332  25.317   8.647
 1859POPC   D2A27232  25.363  25.519   8.246
 1859POPC   C3A27233  25.432  25.278   7.847
 1859POPC   C4A27234  25.534  25.102   7.423
 1859POPC   C1B27235  24.947  24.810   8.816
 1859POPC   C2B27236  24.761  24.925   8.415
 1859POPC   C3B27237  25.040  25.078   8.096
 1859POPC   C4B27238  25.311  24.784   7.845
 1860POPC   NC327239   7.646  34.032   9.689
 1860POPC   PO427240   7.052  33.671   9.572
 1860POPC   GL127241   7.253  33.828   9.189
 1860POPC   GL227242   7.575  33.791   9.234
 1860POPC   C1A27243   7.395  33.679   8.757
 1860POPC   D2A27244   7.538  33.780   8.362
 1860POPC   C3A27245   7.549  33.571   7.979
 1860POPC   C4A27246   7.462  33.736   7.624
 1860POPC   C1B27247   7.714  34.061   8.902
 1860POPC   C2B27248   7.808  34.192   8.461
 1860POPC   C3B27249   7.867  33.991   8.034
 1860POPC   C4B27250   8.065  34.110   7.642
 1861POPC   NC327251  19.597  12.207   9.311
 1861POPC   PO427252  19.876  11.680   9.654
 1861POPC   GL127253  19.972  11.870   9.215
 1861POPC   GL227254  20.112  12.233   9.260
 1861POPC   C1A27255  19.817  11.843   8.743
 1861POPC   D2A27256  19.932  11.667   8.331
 1861POPC   C3A27257  19.760  11.879   7.996
 1861POPC   C4A27258  19.691  12.298   7.856
 1861POPC   C1B27259  20.143  12.238   8.800
 1861POPC   C2B27260  19.988  12.180   8.373
 1861POPC   C3B27261  20.165  12.199   7.963
 1861POPC   C4B27262  20.129  12.436   7.582
 1862POPC   NC327263  41.303  30.936   9.395
 1862POPC   PO427264  41.688  30.388   9.506
 1862POPC   GL127265  41.822  30.466   9.124
 1862POPC   GL227266  41.757  30.825   9.077
 1862POPC   C1A27267  41.696  30.237   8.773
 1862POPC   D2A27268  41.755  30.343   8.369
 1862POPC   C3A27269  41.383  30.400   8.147
 1862POPC   C4A27270  41.487  30.520   7.759
 1862POPC   C1B27271  41.549  30.709   8.672
 1862POPC   C2B27272  41.665  30.838   8.250
 1862POPC   C3B27273  41.809  30.913   7.834
 1862POPC   C4B27274  41.719  31.237   7.485
 1863POPC   NC327275  41.302  14.163   9.518
 1863POPC   PO427276  40.720  14.551   9.583
 1863POPC   GL127277  40.968  14.391   9.209
 1863POPC   GL227278  41.208  14.658   9.201
 1863POPC   C1A27279  40.864  14.383   8.755
 1863POPC   D2A27280  40.642  14.485   8.355
 1863POPC   C3A27281  40.816  14.376   7.950
 1863POPC   C4A27282  40.769  14.090   7.669
 1863POPC   C1B27283  41.090  14.837   8.800
 1863POPC   C2B27284  40.900  14.938   8.383
 1863POPC   C3B27285  40.948  14.859   7.956
 1863POPC   C4B27286  41.265  14.644   7.774
 1864POPC   NC327287  30.247  13.775   9.450
 1864POPC   PO427288  29.779  13.310   9.516
 1864POPC   GL127289  29.833  13.619   9.198
 1864POPC   GL227290  29.585  13.826   9.292
 1864POPC   C1A27291  30.082  13.674   8.797
 1864POPC   D2A27292  30.281  13.522   8.405
 1864POPC   C3A27293  30.108  13.669   8.058
 1864POPC   C4A27294  30.199  13.505   7.651
 1864POPC   C1B27295  29.625  13.937   8.860
 1864POPC   C2B27296  29.762  13.921   8.436
 1864POPC   C3B27297  29.522  13.964   8.067
 1864POPC   C4B27298  29.759  13.844   7.727
 1865POPC   NC327299  24.942  25.750   9.567
 1865POPC   PO427300  25.110  26.420   9.398
 1865POPC   GL127301  25.234  25.969   9.194
 1865POPC   GL227302  25.599  25.855   9.210
 1865POPC   C1A27303  25.330  25.842   8.771
 1865POPC   D2A27304  25.075  25.949   8.448
 1865POPC   C3A27305  25.274  26.023   8.064
 1865POPC   C4A27306  25.211  26.045   7.616
 1865POPC   C1B27307  25.718  25.543   8.920
 1865POPC   C2B27308  25.827  25.560   8.516
 1865POPC   C3B27309  25.756  25.813   8.152
 1865POPC   C4B27310  25.568  25.737   7.774
 1866POPC   NC327311  13.221  23.344   9.275
 1866POPC   PO427312  12.884  22.785   9.583
 1866POPC   GL127313  12.953  22.898   9.205
 1866POPC   GL227314  13.255  22.716   9.110
 1866POPC   C1A27315  12.862  22.818   8.792
 1866POPC   D2A27316  12.734  22.607   8.409
 1866POPC   C3A27317  12.780  22.828   8.037
 1866POPC   C4A27318  12.638  23.234   7.993
 1866POPC   C1B27319  13.357  22.963   8.762
 1866POPC   C2B27320  13.120  23.009   8.390
 1866POPC   C3B27321  13.254  23.095   7.990
 1866POPC   C4B27322  13.002  23.134   7.632
 1867POPC   NC327323   0.913  20.423   9.441
 1867POPC   PO427324   1.454  20.813   9.458
 1867POPC   GL127325   1.250  20.659   9.067
 1867POPC   GL227326   0.890  20.667   9.006
 1867POPC   C1A27327   1.237  20.550   8.616
 1867POPC   D2A27328   1.466  20.618   8.233
 1867POPC   C3A27329   1.247  20.590   7.857
 1867POPC   C4A27330   0.929  20.902   7.752
 1867POPC   C1B27331   0.802  20.804   8.624
 1867POPC   C2B27332   0.885  20.671   8.211
 1867POPC   C3B27333   0.780  20.377   7.871
 1867POPC   C4B27334   0.951  20.145   7.529
 1868POPC   NC327335  19.327  39.890   9.408
 1868POPC   PO427336  18.831  40.293   9.567
 1868POPC   GL127337  18.830  40.054   9.126
 1868POPC   GL227338  19.158  39.933   8.943
 1868POPC   C1A27339  18.646  39.965   8.689
 1868POPC   D2A27340  18.522  39.695   8.346
 1868POPC   C3A27341  18.816  39.773   8.084
 1868POPC   C4A27342  18.887  39.943   7.681
 1868POPC   C1B27343  19.127  39.918   8.511
 1868POPC   C2B27344  19.250  40.150   8.186
 1868POPC   C3B27345  19.304  39.808   7.953
 1868POPC   C4B27346  19.324  39.785   7.546
 1869POPC   NC327347   0.115   7.434   9.475
 1869POPC   PO427348   0.777   7.495   9.649
 1869POPC   GL127349   0.604   7.242   9.260
 1869POPC   GL227350   0.486   7.529   9.130
 1869POPC   C1A27351   0.423   7.098   8.797
 1869POPC   D2A27352   0.158   7.193   8.432
 1869POPC   C3A27353   0.419   7.256   8.071
 1869POPC   C4A27354   0.580   7.383   7.655
 1869POPC   C1B27355   0.343   7.587   8.731
 1869POPC   C2B27356   0.386   7.789   8.338
 1869POPC   C3B27357   0.240   7.721   7.913
 1869POPC   C4B27358   0.213   7.721   7.475
 1870POPC   NC327359  25.011  33.236   9.476
 1870POPC   PO427360  25.450  32.769   9.665
 1870POPC   GL127361  25.505  32.752   9.240
 1870POPC   GL227362  25.296  33.007   9.144
 1870POPC   C1A27363  25.378  32.644   8.807
 1870POPC   D2A27364  25.253  32.865   8.446
 1870POPC   C3A27365  25.166  32.711   8.045
 1870POPC   C4A27366  25.401  32.662   7.669
 1870POPC   C1B27367  25.062  33.187   8.793
 1870POPC   C2B27368  25.036  33.317   8.345
 1870POPC   C3B27369  25.226  33.236   7.934
 1870POPC   C4B27370  25.266  33.193   7.468
 1871POPC   NC327371  25.285  15.360   9.536
 1871POPC   PO427372  25.306  14.758   9.819
 1871POPC   GL127373  25.198  14.898   9.330
 1871POPC   GL227374  25.447  14.772   9.156
 1871POPC   C1A27375  25.163  15.135   8.875
 1871POPC   D2A27376  25.368  15.203   8.430
 1871POPC   C3A27377  25.181  15.287   8.018
 1871POPC   C4A27378  25.421  15.602   7.773
 1871POPC   C1B27379  25.592  14.907   8.779
 1871POPC   C2B27380  25.645  14.781   8.357
 1871POPC   C3B27381  25.562  14.947   7.929
 1871POPC   C4B27382  25.185  14.859   7.686
 1872POPC   NC327383   1.804  41.475   9.668
 1872POPC   PO427384   2.210  41.844   9.367
 1872POPC   GL127385   2.082  41.579   9.070
 1872POPC   GL227386   1.776  41.424   9.135
 1872POPC   C1A27387   1.845  41.683   8.689
 1872POPC   D2A27388   1.849  41.864   8.296
 1872POPC   C3A27389   2.031  41.540   8.064
 1872POPC   C4A27390   2.242  41.514   7.667
 1872POPC   C1B27391   1.983  41.177   8.759
 1872POPC   C2B27392   1.948  41.010   8.303
 1872POPC   C3B27393   1.858  41.129   7.839
 1872POPC   C4B27394   2.006  41.057   7.413
 1873POPC   NC327395  21.142   4.398   9.530
 1873POPC   PO427396  20.505   4.250   9.455
 1873POPC   GL127397  20.503   4.264   9.047
 1873POPC   GL227398  20.794   4.491   9.069
 1873POPC   C1A27399  20.289   4.346   8.665
 1873POPC   D2A27400  20.460   4.240   8.289
 1873POPC   C3A27401  20.420   4.493   7.935
 1873POPC   C4A27402  20.349   4.338   7.505
 1873POPC   C1B27403  20.975   4.202   8.800
 1873POPC   C2B27404  20.955   4.128   8.375
 1873POPC   C3B27405  20.834   4.188   7.939
 1873POPC   C4B27406  21.064   4.300   7.554
 1874POPC   NC327407  23.861   4.495   9.493
 1874POPC   PO427408  23.829   3.817   9.433
 1874POPC   GL127409  23.791   4.145   9.110
 1874POPC   GL227410  23.874   4.480   9.011
 1874POPC   C1A27411  23.561   4.231   8.729
 1874POPC   D2A27412  23.438   3.913   8.495
 1874POPC   C3A27413  23.472   3.947   8.094
 1874POPC   C4A27414  23.490   4.189   7.804
 1874POPC   C1B27415  24.049   4.304   8.671
 1874POPC   C2B27416  23.828   4.280   8.291
 1874POPC   C3B27417  23.754   4.571   8.005
 1874POPC   C4B27418  23.396   4.694   7.853
 1875POPC   NC327419  35.949  11.542   9.392
 1875POPC   PO427420  35.451  11.138   9.655
 1875POPC   GL127421  35.430  11.268   9.188
 1875POPC   GL227422  35.126  11.477   9.079
 1875POPC   C1A27423  35.279  11.082   8.787
 1875POPC   D2A27424  35.168  11.258   8.433
 1875POPC   C3A27425  35.316  11.029   8.142
 1875POPC   C4A27426  35.283  11.048   7.767
 1875POPC   C1B27427  35.421  11.566   8.772
 1875POPC   C2B27428  35.620  11.510   8.411
 1875POPC   C3B27429  35.444  11.502   8.010
 1875POPC   C4B27430  35.631  11.433   7.654
 1876POPC   NC327431  28.458   9.153   9.332
 1876POPC   PO427432  28.250   9.714   9.740
 1876POPC   GL127433  28.277   9.668   9.235
 1876POPC   GL227434  28.109   9.421   9.083
 1876POPC   C1A27435  28.395   9.795   8.821
 1876POPC   D2A27436  28.312   9.981   8.429
 1876POPC   C3A27437  28.505   9.826   8.059
 1876POPC   C4A27438  28.393   9.857   7.660
 1876POPC   C1B27439  28.024   9.420   8.691
 1876POPC   C2B27440  27.917   9.602   8.316
 1876POPC   C3B27441  28.079   9.519   7.943
 1876POPC   C4B27442  28.193   9.296   7.625
 1877POPC   NC327443   0.591  44.912   9.472
 1877POPC   PO427444   0.907  44.195   9.448
 1877POPC   GL127445   0.695  44.488   9.178
 1877POPC   GL227446   0.364  44.343   9.009
 1877POPC   C1A27447   0.602  44.750   8.836
 1877POPC   D2A27448   0.612  44.525   8.476
 1877POPC   C3A27449   0.738  44.723   8.143
 1877POPC   C4A27450   0.636  44.540   7.763
 1877POPC   C1B27451   0.149  44.577   8.659
 1877POPC   C2B27452   0.196  44.604   8.183
 1877POPC   C3B27453   0.215  44.809   7.809
 1877POPC   C4B27454   0.054  44.756   7.387
 1878POPC   NC327455   0.246  26.369   9.388
 1878POPC   PO427456   0.189  25.616   9.602
 1878POPC   GL127457   0.302  25.850   9.252
 1878POPC   GL227458   0.663  25.881   9.319
 1878POPC   C1A27459   0.133  25.871   8.815
 1878POPC   D2A27460   0.081  25.794   8.336
 1878POPC   C3A27461   0.184  26.179   8.054
 1878POPC   C4A27462   0.460  26.194   7.713
 1878POPC   C1B27463   0.659  25.667   8.932
 1878POPC   C2B27464   0.783  25.812   8.538
 1878POPC   C3B27465   0.645  25.944   8.135
 1878POPC   C4B27466   0.640  25.712   7.760
 1879POPC   NC327467   8.523  34.480   9.515
 1879POPC   PO427468   7.913  34.403   9.755
 1879POPC   GL127469   8.051  34.476   9.263
 1879POPC   GL227470   8.327  34.647   9.079
 1879POPC   C1A27471   7.927  34.541   8.812
 1879POPC   D2A27472   8.085  34.633   8.392
 1879POPC   C3A27473   7.958  34.482   8.018
 1879POPC   C4A27474   8.110  34.610   7.641
 1879POPC   C1B27475   8.411  34.396   8.705
 1879POPC   C2B27476   8.583  34.486   8.328
 1879POPC   C3B27477   8.458  34.363   7.956
 1879POPC   C4B27478   8.621  34.450   7.590
 1880POPC   NC327479   6.850   1.908   9.507
 1880POPC   PO427480   6.169   1.949   9.647
 1880POPC   GL127481   6.381   1.806   9.238
 1880POPC   GL227482   6.669   1.992   9.065
 1880POPC   C1A27483   6.456   1.684   8.759
 1880POPC   D2A27484   6.254   1.871   8.349
 1880POPC   C3A27485   6.489   2.104   8.067
 1880POPC   C4A27486   6.660   2.076   7.676
 1880POPC   C1B27487   6.952   1.830   8.765
 1880POPC   C2B27488   6.804   1.799   8.366
 1880POPC   C3B27489   7.005   2.004   8.052
 1880POPC   C4B27490   7.150   1.900   7.680
 1881POPC   NC327491  24.280  13.802   9.335
 1881POPC   PO427492  24.844  13.365   9.412
 1881POPC   GL127493  24.589  13.415   9.075
 1881POPC   GL227494  24.651  13.765   8.983
 1881POPC   C1A27495  24.518  13.410   8.621
 1881POPC   D2A27496  24.642  13.755   8.344
 1881POPC   C3A27497  24.751  13.637   7.972
 1881POPC   C4A27498  24.759  13.279   7.754
 1881POPC   C1B27499  24.261  13.852   8.679
 1881POPC   C2B27500  24.154  13.882   8.239
 1881POPC   C3B27501  24.242  13.667   7.828
 1881POPC   C4B27502  24.099  13.748   7.385
 1882POPC   NC327503   3.195  41.525   9.516
 1882POPC   PO427504   3.858  41.483   9.572
 1882POPC   GL127505   3.621  41.675   9.240
 1882POPC   GL227506   3.578  41.320   9.140
 1882POPC   C1A27507   3.455  41.667   8.803
 1882POPC   D2A27508   3.630  41.516   8.431
 1882POPC   C3A27509   3.418  41.548   8.060
 1882POPC   C4A27510   3.305  41.696   7.677
 1882POPC   C1B27511   3.893  41.261   8.788
 1882POPC   C2B27512   3.875  41.050   8.413
 1882POPC   C3B27513   3.868  41.245   8.024
 1882POPC   C4B27514   3.688  41.363   7.641
 1883POPC   NC327515  43.530  14.182   9.490
 1883POPC   PO427516  43.945  14.733   9.478
 1883POPC   GL127517  43.877  14.419   9.205
 1883POPC   GL227518  44.145  14.455   9.031
 1883POPC   C1A27519  43.731  14.174   8.846
 1883POPC   D2A27520  43.924  14.247   8.440
 1883POPC   C3A27521  43.606  14.397   8.158
 1883POPC   C4A27522  43.596  14.495   7.726
 1883POPC   C1B27523  44.278  14.652   8.714
 1883POPC   C2B27524  44.365  14.537   8.304
 1883POPC   C3B27525  44.083  14.443   7.968
 1883POPC   C4B27526  44.166  14.283   7.578
 1884POPC   NC327527  25.343  12.033   9.474
 1884POPC   PO427528  24.862  12.384   9.218
 1884POPC   GL127529  25.230  12.199   8.997
 1884POPC   GL227530  25.586  12.293   9.113
 1884POPC   C1A27531  25.188  12.034   8.587
 1884POPC   D2A27532  25.099  12.168   8.157
 1884POPC   C3A27533  25.361  11.965   7.866
 1884POPC   C4A27534  25.663  11.765   7.625
 1884POPC   C1B27535  25.553  12.532   8.732
 1884POPC   C2B27536  25.557  12.402   8.318
 1884POPC   C3B27537  25.547  12.433   7.885
 1884POPC   C4B27538  25.132  12.391   7.669
 1885POPC   NC327539   5.645  17.321   9.537
 1885POPC   PO427540   6.307  17.384   9.435
 1885POPC   GL127541   6.005  17.324   9.126
 1885POPC   GL227542   5.733  17.574   9.114
 1885POPC   C1A27543   6.013  17.488   8.712
 1885POPC   D2A27544   6.135  17.798   8.479
 1885POPC   C3A27545   6.113  17.723   8.062
 1885POPC   C4A27546   6.062  17.404   7.747
 1885POPC   C1B27547   5.496  17.523   8.759
 1885POPC   C2B27548   5.641  17.594   8.349
 1885POPC   C3B27549   5.604  17.463   7.943
 1885POPC   C4B27550   5.301  17.683   7.715
 1886POPC   NC327551  24.144  29.780   9.377
 1886POPC   PO427552  24.722  30.021   9.559
 1886POPC   GL127553  24.609  29.853   9.161
 1886POPC   GL227554  24.362  30.110   9.075
 1886POPC   C1A27555  24.692  29.827   8.718
 1886POPC   D2A27556  24.679  30.031   8.321
 1886POPC   C3A27557  24.461  29.923   7.986
 1886POPC   C4A27558  24.563  29.623   7.749
 1886POPC   C1B27559  24.160  30.295   8.754
 1886POPC   C2B27560  24.137  30.177   8.324
 1886POPC   C3B27561  24.234  30.372   7.924
 1886POPC   C4B27562  24.222  30.339   7.475
 1887POPC   NC327563  27.675  35.124   9.327
 1887POPC   PO427564  27.433  35.689   9.660
 1887POPC   GL127565  27.527  35.596   9.191
 1887POPC   GL227566  27.883  35.536   9.110
 1887POPC   C1A27567  27.298  35.507   8.784
 1887POPC   D2A27568  27.140  35.730   8.416
 1887POPC   C3A27569  27.313  35.568   8.048
 1887POPC   C4A27570  27.622  35.342   7.812
 1887POPC   C1B27571  27.800  35.390   8.681
 1887POPC   C2B27572  27.930  35.363   8.249
 1887POPC   C3B27573  28.027  35.054   7.913
 1887POPC   C4B27574  27.910  35.053   7.471
 1888POPC   NC327575  42.288  40.667   9.376
 1888POPC   PO427576  41.722  40.846   9.712
 1888POPC   GL127577  41.943  41.023   9.221
 1888POPC   GL227578  42.318  40.966   8.983
 1888POPC   C1A27579  41.893  40.941   8.738
 1888POPC   D2A27580  42.143  40.703   8.398
 1888POPC   C3A27581  42.319  40.925   8.056
 1888POPC   C4A27582  42.262  40.943   7.626
 1888POPC   C1B27583  42.442  40.523   8.775
 1888POPC   C2B27584  42.516  40.307   8.372
 1888POPC   C3B27585  42.380  40.426   7.942
 1888POPC   C4B27586  42.715  40.543   7.601
 1889POPC   NC327587  44.803  20.002   9.725
 1889POPC   PO427588  44.348  19.586   9.647
 1889POPC   GL127589  44.612  19.768   9.260
 1889POPC   GL227590  44.964  19.724   9.133
 1889POPC   C1A27591  44.632  19.875   8.764
 1889POPC   D2A27592  44.369  19.763   8.366
 1889POPC   C3A27593  44.358  19.986   7.962
 1889POPC   C4A27594  44.515  19.989   7.560
 1889POPC   C1B27595   0.086  19.633   8.736
 1889POPC   C2B27596  44.827  19.519   8.396
 1889POPC   C3B27597  44.685  19.584   7.976
 1889POPC   C4B27598  44.890  19.450   7.634
 1890POPC   NC327599   1.963  16.923   9.501
 1890POPC   PO427600   2.146  16.308   9.456
 1890POPC   GL127601   1.961  16.606   9.118
 1890POPC   GL227602   2.255  16.808   9.056
 1890POPC   C1A27603   1.859  16.838   8.718
 1890POPC   D2A27604   1.747  16.640   8.320
 1890POPC   C3A27605   1.933  16.803   7.961
 1890POPC   C4A27606   1.678  17.008   7.683
 1890POPC   C1B27607   2.217  16.450   8.708
 1890POPC   C2B27608   2.249  16.405   8.252
 1890POPC   C3B27609   2.267  16.442   7.796
 1890POPC   C4B27610   2.265  16.773   7.512
 1891POPC   NC327611  17.912   8.287   9.471
 1891POPC   PO427612  18.637   8.213   9.472
 1891POPC   GL127613  18.383   8.271   9.120
 1891POPC   GL227614  18.134   8.535   9.090
 1891POPC   C1A27615  18.339   8.057   8.740
 1891POPC   D2A27616  18.224   7.861   8.350
 1891POPC   C3A27617  18.356   8.056   8.022
 1891POPC   C4A27618  18.170   7.917   7.644
 1891POPC   C1B27619  18.392   8.659   8.775
 1891POPC   C2B27620  18.446   8.427   8.399
 1891POPC   C3B27621  18.374   8.616   8.022
 1891POPC   C4B27622  18.322   8.416   7.648
 1892POPC   NC327623   0.615  28.727   9.389
 1892POPC   PO427624   0.131  28.292   9.435
 1892POPC   GL127625   0.446  28.301   9.074
 1892POPC   GL227626   0.618  28.580   8.905
 1892POPC   C1A27627   0.319  28.163   8.617
 1892POPC   D2A27628   0.006  28.140   8.215
 1892POPC   C3A27629   0.231  28.189   7.821
 1892POPC   C4A27630   0.619  28.360   7.678
 1892POPC   C1B27631   0.157  28.606   8.800
 1892POPC   C2B27632   0.225  28.590   8.357
 1892POPC   C3B27633   0.165  28.685   7.958
 1892POPC   C4B27634   0.211  28.620   7.515
 1893POPC   NC327635  26.220  33.955   9.435
 1893POPC   PO427636  25.668  33.739   9.765
 1893POPC   GL127637  25.895  33.616   9.282
 1893POPC   GL227638  25.896  33.946   9.014
 1893POPC   C1A27639  25.929  33.498   8.827
 1893POPC   D2A27640  25.849  33.750   8.440
 1893POPC   C3A27641  25.841  33.545   8.034
 1893POPC   C4A27642  25.535  33.596   7.708
 1893POPC   C1B27643  26.264  33.897   8.720
 1893POPC   C2B27644  26.344  33.817   8.266
 1893POPC   C3B27645  26.190  33.849   7.824
 1893POPC   C4B27646  26.346  34.080   7.430
 1894POPC   NC327647  34.629  37.365   9.409
 1894POPC   PO427648  34.312  37.891   9.487
 1894POPC   GL127649  34.405  37.727   9.147
 1894POPC   GL227650  34.170  37.460   9.135
 1894POPC   C1A27651  34.720  37.699   8.798
 1894POPC   D2A27652  34.832  37.440   8.442
 1894POPC   C3A27653  34.744  37.673   8.061
 1894POPC   C4A27654  34.881  37.707   7.606
 1894POPC   C1B27655  34.215  37.630   8.716
 1894POPC   C2B27656  34.316  37.492   8.368
 1894POPC   C3B27657  34.168  37.394   8.022
 1894POPC   C4B27658  34.387  37.579   7.709
 1895POPC   NC327659  13.568  27.464   9.861
 1895POPC   PO427660  13.898  28.032   9.517
 1895POPC   GL127661  13.644  27.713   9.315
 1895POPC   GL227662  13.716  27.903   9.040
 1895POPC   C1A27663  13.524  27.416   8.948
 1895POPC   D2A27664  13.309  27.443   8.523
 1895POPC   C3A27665  13.464  27.389   8.097
 1895POPC   C4A27666  13.536  27.382   7.677
 1895POPC   C1B27667  13.672  27.786   8.614
 1895POPC   C2B27668  13.864  27.720   8.242
 1895POPC   C3B27669  13.967  27.601   7.842
 1895POPC   C4B27670  13.869  27.704   7.418
 1896POPC   NC327671  29.189  11.515   9.270
 1896POPC   PO427672  28.988  11.951   9.802
 1896POPC   GL127673  29.055  11.996   9.279
 1896POPC   GL227674  29.340  12.156   9.057
 1896POPC   C1A27675  28.988  11.929   8.789
 1896POPC   D2A27676  28.962  12.177   8.408
 1896POPC   C3A27677  28.887  11.932   8.019
 1896POPC   C4A27678  28.842  12.088   7.597
 1896POPC   C1B27679  29.465  11.990   8.638
 1896POPC   C2B27680  29.376  11.991   8.178
 1896POPC   C3B27681  29.347  11.735   7.820
 1896POPC   C4B27682  29.492  11.765   7.372
 1897POPC   NC327683  12.504  36.997   9.499
 1897POPC   PO427684  13.058  36.697   9.690
 1897POPC   GL127685  13.082  36.841   9.245
 1897POPC   GL227686  12.867  37.095   9.179
 1897POPC   C1A27687  13.155  37.015   8.794
 1897POPC   D2A27688  12.937  37.107   8.426
 1897POPC   C3A27689  12.907  36.795   8.110
 1897POPC   C4A27690  12.796  36.723   7.690
 1897POPC   C1B27691  12.621  36.907   8.834
 1897POPC   C2B27692  12.464  36.837   8.405
 1897POPC   C3B27693  12.542  37.135   8.081
 1897POPC   C4B27694  12.953  37.349   7.974
 1898POPC   NC327695  29.096  44.227   9.409
 1898POPC   PO427696  28.799  43.627   9.443
 1898POPC   GL127697  28.944  43.809   9.089
 1898POPC   GL227698  29.312  43.794   9.190
 1898POPC   C1A27699  28.936  43.634   8.668
 1898POPC   D2A27700  29.259  43.696   8.365
 1898POPC   C3A27701  29.214  43.860   7.995
 1898POPC   C4A27702  28.788  43.738   7.825
 1898POPC   C1B27703  29.348  43.940   8.790
 1898POPC   C2B27704  29.505  44.276   8.575
 1898POPC   C3B27705  29.685  44.333   8.189
 1898POPC   C4B27706  29.532  44.267   7.781
 1899POPC   NC327707   1.593   9.264   9.397
 1899POPC   PO427708   1.649   8.545   9.537
 1899POPC   GL127709   1.991   8.791   9.198
 1899POPC   GL227710   2.027   9.148   9.142
 1899POPC   C1A27711   2.240   8.764   8.810
 1899POPC   D2A27712   2.100   8.956   8.424
 1899POPC   C3A27713   2.085   8.761   8.026
 1899POPC   C4A27714   1.968   8.927   7.615
 1899POPC   C1B27715   1.798   9.350   8.764
 1899POPC   C2B27716   1.755   9.345   8.331
 1899POPC   C3B27717   1.681   9.087   7.993
 1899POPC   C4B27718   1.653   9.311   7.600
 1900POPC   NC327719  32.912  28.527   9.635
 1900POPC   PO427720  33.026  27.954   9.736
 1900POPC   GL127721  32.857  28.204   9.266
 1900POPC   GL227722  32.540  28.091   9.119
 1900POPC   C1A27723  33.048  28.298   8.827
 1900POPC   D2A27724  33.106  28.075   8.420
 1900POPC   C3A27725  33.174  28.340   8.046
 1900POPC   C4A27726  33.356  28.592   7.731
 1900POPC   C1B27727  32.545  28.359   8.749
 1900POPC   C2B27728  32.810  28.502   8.384
 1900POPC   C3B27729  32.754  28.635   7.945
 1900POPC   C4B27730  32.568  28.543   7.539
 1901POPC   NC327731  21.609  38.087   9.597
 1901POPC   PO427732  21.037  38.368   9.537
 1901POPC   GL127733  21.355  38.305   9.203
 1901POPC   GL227734  21.467  38.602   9.214
 1901POPC   C1A27735  21.651  38.373   8.811
 1901POPC   D2A27736  21.488  38.357   8.429
 1901POPC   C3A27737  21.610  38.543   8.053
 1901POPC   C4A27738  21.499  38.343   7.686
 1901POPC   C1B27739  21.194  38.632   8.821
 1901POPC   C2B27740  21.261  38.830   8.397
 1901POPC   C3B27741  21.137  38.802   7.982
 1901POPC   C4B27742  21.108  38.614   7.572
 1902POPC   NC327743  25.494   6.196   9.394
 1902POPC   PO427744  25.243   5.582   9.370
 1902POPC   GL127745  25.285   5.858   9.072
 1902POPC   GL227746  25.639   5.795   9.098
 1902POPC   C1A27747  25.432   6.100   8.721
 1902POPC   D2A27748  25.520   5.908   8.345
 1902POPC   C3A27749  25.419   6.029   8.002
 1902POPC   C4A27750  25.117   5.861   7.807
 1902POPC   C1B27751  25.490   5.554   8.731
 1902POPC   C2B27752  25.341   5.394   8.378
 1902POPC   C3B27753  25.443   5.512   7.980
 1902POPC   C4B27754  25.599   5.478   7.566
 1903POPC   NC327755  22.721  41.673   9.801
 1903POPC   PO427756  23.064  41.204   9.505
 1903POPC   GL127757  22.888  41.446   9.179
 1903POPC   GL227758  23.190  41.376   8.976
 1903POPC   C1A27759  22.775  41.625   8.761
 1903POPC   D2A27760  22.912  41.448   8.365
 1903POPC   C3A27761  22.782  41.599   7.948
 1903POPC   C4A27762  22.917  41.912   7.629
 1903POPC   C1B27763  23.219  41.064   8.633
 1903POPC   C2B27764  23.317  41.094   8.203
 1903POPC   C3B27765  23.211  41.360   7.861
 1903POPC   C4B27766  22.986  41.205   7.497
 1904POPC   NC327767  21.829  21.755   9.620
 1904POPC   PO427768  21.425  22.333   9.666
 1904POPC   GL127769  21.414  22.073   9.251
 1904POPC   GL227770  21.223  21.886   9.036
 1904POPC   C1A27771  21.434  22.240   8.780
 1904POPC   D2A27772  21.618  22.118   8.394
 1904POPC   C3A27773  21.524  22.320   8.021
 1904POPC   C4A27774  21.431  22.256   7.614
 1904POPC   C1B27775  21.018  21.943   8.684
 1904POPC   C2B27776  21.096  22.151   8.326
 1904POPC   C3B27777  21.103  22.022   7.928
 1904POPC   C4B27778  20.911  22.074   7.544
 1905POPC   NC327779  10.797  10.286   9.430
 1905POPC   PO427780  10.436  10.853   9.493
 1905POPC   GL127781  10.473  10.626   9.120
 1905POPC   GL227782  10.423  10.294   9.086
 1905POPC   C1A27783  10.578  10.671   8.688
 1905POPC   D2A27784  10.493  10.457   8.306
 1905POPC   C3A27785  10.476  10.642   7.900
 1905POPC   C4A27786  10.062  10.763   7.799
 1905POPC   C1B27787  10.719  10.175   8.749
 1905POPC   C2B27788  10.910  10.165   8.342
 1905POPC   C3B27789  10.676  10.135   7.948
 1905POPC   C4B27790  10.847  10.344   7.606
 1906POPC   NC327791  15.473   4.900   9.823
 1906POPC   PO427792  15.294   5.544   9.667
 1906POPC   GL127793  15.315   5.246   9.285
 1906POPC   GL227794  14.976   5.265   9.108
 1906POPC   C1A27795  15.368   4.983   8.908
 1906POPC   D2A27796  15.258   4.833   8.484
 1906POPC   C3A27797  15.242   5.191   8.208
 1906POPC   C4A27798  15.451   5.235   7.819
 1906POPC   C1B27799  14.907   5.188   8.622
 1906POPC   C2B27800  14.802   4.950   8.237
 1906POPC   C3B27801  14.990   4.988   7.802
 1906POPC   C4B27802  14.837   4.994   7.365
 1907POPC   NC327803  32.577   4.417   9.728
 1907POPC   PO427804  32.260   3.876   9.525
 1907POPC   GL127805  32.177   4.187   9.211
 1907POPC   GL227806  32.330   4.513   9.225
 1907POPC   C1A27807  32.146   4.176   8.759
 1907POPC   D2A27808  32.370   4.397   8.451
 1907POPC   C3A27809  32.229   4.246   8.063
 1907POPC   C4A27810  32.162   3.968   7.719
 1907POPC   C1B27811  31.981   4.621   8.932
 1907POPC   C2B27812  31.894   4.587   8.474
 1907POPC   C3B27813  31.944   4.678   8.044
 1907POPC   C4B27814  31.855   4.392   7.728
 1908POPC   NC327815  20.987  36.256   9.687
 1908POPC   PO427816  21.617  36.034   9.523
 1908POPC   GL127817  21.558  35.878   9.126
 1908POPC   GL227818  21.545  36.176   9.005
 1908POPC   C1A27819  21.573  35.747   8.693
 1908POPC   D2A27820  21.860  35.763   8.307
 1908POPC   C3A27821  21.617  36.007   7.999
 1908POPC   C4A27822  21.257  35.807   7.769
 1908POPC   C1B27823  21.410  36.455   8.728
 1908POPC   C2B27824  21.194  36.536   8.378
 1908POPC   C3B27825  21.396  36.483   8.050
 1908POPC   C4B27826  21.518  36.437   7.658
 1909POPC   NC327827  19.496  28.984   9.920
 1909POPC   PO427828  19.820  29.261   9.399
 1909POPC   GL127829  20.062  29.335   9.079
 1909POPC   GL227830  20.237  29.663   9.134
 1909POPC   C1A27831  19.903  29.265   8.656
 1909POPC   D2A27832  19.544  29.402   8.369
 1909POPC   C3A27833  19.563  29.324   7.933
 1909POPC   C4A27834  19.749  28.951   7.795
 1909POPC   C1B27835  20.113  29.744   8.710
 1909POPC   C2B27836  20.004  29.637   8.325
 1909POPC   C3B27837  20.028  29.239   8.150
 1909POPC   C4B27838  20.053  29.410   7.781
 1910POPC   NC327839  16.638  22.050   9.515
 1910POPC   PO427840  17.092  22.489   9.307
 1910POPC   GL127841  16.744  22.360   9.110
 1910POPC   GL227842  16.445  22.460   9.228
 1910POPC   C1A27843  16.717  22.396   8.699
 1910POPC   D2A27844  16.778  22.189   8.340
 1910POPC   C3A27845  17.165  22.210   8.118
 1910POPC   C4A27846  16.933  22.089   7.783
 1910POPC   C1B27847  16.301  22.149   8.883
 1910POPC   C2B27848  16.232  22.140   8.424
 1910POPC   C3B27849  16.419  22.177   7.971
 1910POPC   C4B27850  16.526  21.851   7.600
 1911POPC   NC327851  10.761   1.804   9.436
 1911POPC   PO427852  10.452   2.380   9.531
 1911POPC   GL127853  10.440   2.095   9.176
 1911POPC   GL227854  10.770   2.146   9.050
 1911POPC   C1A27855  10.448   1.840   8.803
 1911POPC   D2A27856  10.339   1.936   8.388
 1911POPC   C3A27857  10.610   1.812   8.064
 1911POPC   C4A27858  10.365   1.651   7.750
 1911POPC   C1B27859  10.900   2.326   8.673
 1911POPC   C2B27860  10.940   2.180   8.258
 1911POPC   C3B27861  10.792   2.287   7.864
 1911POPC   C4B27862  10.468   2.132   7.642
 1912POPC   NC327863   1.624  27.711   9.566
 1912POPC   PO427864   2.201  27.333   9.422
 1912POPC   GL127865   1.854  27.443   9.182
 1912POPC   GL227866   1.916  27.815   9.168
 1912POPC   C1A27867   1.780  27.453   8.734
 1912POPC   D2A27868   2.144  27.287   8.492
 1912POPC   C3A27869   2.148  27.313   8.046
 1912POPC   C4A27870   1.764  27.405   7.761
 1912POPC   C1B27871   2.110  27.847   8.775
 1912POPC   C2B27872   1.933  27.888   8.379
 1912POPC   C3B27873   2.031  27.802   7.951
 1912POPC   C4B27874   2.210  27.567   7.586
 1913POPC   NC327875  26.502  19.573   9.414
 1913POPC   PO427876  26.964  20.049   9.632
 1913POPC   GL127877  26.835  19.937   9.215
 1913POPC   GL227878  26.505  20.051   9.203
 1913POPC   C1A27879  26.937  19.832   8.769
 1913POPC   D2A27880  26.804  19.970   8.345
 1913POPC   C3A27881  26.784  19.695   7.999
 1913POPC   C4A27882  27.043  19.739   7.661
 1913POPC   C1B27883  26.465  20.042   8.806
 1913POPC   C2B27884  26.436  19.687   8.616
 1913POPC   C3B27885  26.303  19.825   8.256
 1913POPC   C4B27886  26.419  20.065   7.898
 1914POPC   NC327887  27.860   9.676   9.492
 1914POPC   PO427888  27.174   9.644   9.379
 1914POPC   GL127889  27.453   9.866   9.149
 1914POPC   GL227890  27.623   9.585   8.986
 1914POPC   C1A27891  27.364   9.999   8.741
 1914POPC   D2A27892  27.425   9.708   8.420
 1914POPC   C3A27893  27.326   9.770   8.001
 1914POPC   C4A27894  27.571   9.551   7.717
 1914POPC   C1B27895  27.866   9.906   8.736
 1914POPC   C2B27896  27.815  10.121   8.340
 1914POPC   C3B27897  27.815   9.947   7.907
 1914POPC   C4B27898  27.951   9.731   7.472
 1915POPC   NC327899  41.852  40.266   9.641
 1915POPC   PO427900  42.521  40.281   9.506
 1915POPC   GL127901  42.464  40.142   9.116
 1915POPC   GL227902  42.111  40.226   9.130
 1915POPC   C1A27903  42.313  39.974   8.724
 1915POPC   D2A27904  42.214  39.676   8.401
 1915POPC   C3A27905  42.368  39.874   8.039
 1915POPC   C4A27906  42.167  39.797   7.680
 1915POPC   C1B27907  41.951  40.358   8.721
 1915POPC   C2B27908  42.017  40.185   8.333
 1915POPC   C3B27909  41.846  40.056   7.984
 1915POPC   C4B27910  41.855  40.210   7.599
 1916POPC   NC327911  24.071   3.426   9.528
 1916POPC   PO427912  24.799   3.575   9.440
 1916POPC   GL127913  24.693   3.654   9.041
 1916POPC   GL227914  24.340   3.774   9.142
 1916POPC   C1A27915  24.825   3.486   8.632
 1916POPC   D2A27916  24.823   3.415   8.182
 1916POPC   C3A27917  24.796   3.592   7.790
 1916POPC   C4A27918  24.625   3.247   7.567
 1916POPC   C1B27919  24.325   3.573   8.731
 1916POPC   C2B27920  24.441   3.701   8.342
 1916POPC   C3B27921  24.322   3.504   7.971
 1916POPC   C4B27922  24.208   3.580   7.562
 1917POPC   NC327923  37.663  33.072   9.668
 1917POPC   PO427924  37.242  32.570   9.495
 1917POPC   GL127925  37.612  32.673   9.240
 1917POPC   GL227926  37.546  33.011   9.129
 1917POPC   C1A27927  37.844  32.746   8.830
 1917POPC   D2A27928  37.618  32.841   8.432
 1917POPC   C3A27929  37.830  32.766   8.022
 1917POPC   C4A27930  37.711  32.948   7.630
 1917POPC   C1B27931  37.345  33.187   8.750
 1917POPC   C2B27932  37.328  33.267   8.307
 1917POPC   C3B27933  37.343  32.962   7.993
 1917POPC   C4B27934  37.202  32.960   7.584
 1918POPC   NC327935  21.957  20.149   9.475
 1918POPC   PO427936  21.265  20.007   9.385
 1918POPC   GL127937  21.549  19.793   9.133
 1918POPC   GL227938  21.249  19.515   9.177
 1918POPC   C1A27939  21.773  19.789   8.720
 1918POPC   D2A27940  21.477  19.959   8.423
 1918POPC   C3A27941  21.577  20.149   8.043
 1918POPC   C4A27942  21.325  20.001   7.744
 1918POPC   C1B27943  21.307  19.568   8.749
 1918POPC   C2B27944  21.485  19.439   8.400
 1918POPC   C3B27945  21.392  19.552   8.020
 1918POPC   C4B27946  21.635  19.597   7.692
 1919POPC   NC327947  41.922   0.468   9.530
 1919POPC   PO427948  41.253   0.713   9.502
 1919POPC   GL127949  41.508   0.488   9.164
 1919POPC   GL227950  41.705   0.165   9.170
 1919POPC   C1A27951  41.725   0.574   8.769
 1919POPC   D2A27952  41.650   0.376   8.345
 1919POPC   C3A27953  41.586   0.549   7.916
 1919POPC   C4A27954  41.330   0.628   7.540
 1919POPC   C1B27955  41.955   0.118   8.763
 1919POPC   C2B27956  42.045   0.039   8.319
 1919POPC   C3B27957  41.847   0.031   7.880
 1919POPC   C4B27958  41.862   0.338   7.516
 1920POPC   NC327959  12.886   5.587   9.800
 1920POPC   PO427960  12.825   4.907   9.822
 1920POPC   GL127961  12.758   4.916   9.312
 1920POPC   GL227962  12.928   5.210   9.194
 1920POPC   C1A27963  12.810   4.815   8.872
 1920POPC   D2A27964  12.643   4.949   8.470
 1920POPC   C3A27965  12.894   4.815   8.142
 1920POPC   C4A27966  12.666   4.787   7.759
 1920POPC   C1B27967  12.659   5.300   8.831
 1920POPC   C2B27968  12.749   5.462   8.439
 1920POPC   C3B27969  12.725   5.283   8.045
 1920POPC   C4B27970  12.790   5.260   7.639
 1921POPC   NC327971  24.062  20.210   9.448
 1921POPC   PO427972  23.399  20.396   9.473
 1921POPC   GL127973  23.709  20.486   9.178
 1921POPC   GL227974  23.877  20.791   9.302
 1921POPC   C1A27975  23.729  20.446   8.741
 1921POPC   D2A27976  23.877  20.604   8.354
 1921POPC   C3A27977  23.696  20.463   8.007
 1921POPC   C4A27978  23.529  20.607   7.657
 1921POPC   C1B27979  23.932  20.915   8.860
 1921POPC   C2B27980  23.724  21.074   8.492
 1921POPC   C3B27981  23.860  21.032   8.061
 1921POPC   C4B27982  23.678  21.100   7.683
 1922POPC   NC327983  29.123   2.510   9.520
 1922POPC   PO427984  29.311   3.126   9.499
 1922POPC   GL127985  29.131   2.903   9.161
 1922POPC   GL227986  29.223   2.560   9.043
 1922POPC   C1A27987  29.117   2.984   8.749
 1922POPC   D2A27988  29.071   2.723   8.418
 1922POPC   C3A27989  29.346   2.764   8.115
 1922POPC   C4A27990  29.226   2.899   7.736
 1922POPC   C1B27991  29.041   2.334   8.751
 1922POPC   C2B27992  29.114   2.123   8.362
 1922POPC   C3B27993  29.035   2.363   8.015
 1922POPC   C4B27994  29.248   2.392   7.644
 1923POPC   NC327995  13.043  20.117   9.417
 1923POPC   PO427996  12.591  19.602   9.477
 1923POPC   GL127997  12.706  19.800   9.141
 1923POPC   GL227998  12.543  20.103   9.173
 1923POPC   C1A27999  12.702  19.682   8.740
 1923POPC   D2A28000  12.639  19.868   8.368
 1923POPC   C3A28001  12.957  19.696   8.145
 1923POPC   C4A28002  13.039  19.714   7.736
 1923POPC   C1B28003  12.752  20.206   8.775
 1923POPC   C2B28004  12.872  20.341   8.354
 1923POPC   C3B28005  12.779  20.166   7.946
 1923POPC   C4B28006  12.709  20.044   7.520
 1924POPC   NC328007  14.059  32.336   9.460
 1924POPC   PO428008  14.550  31.981   9.491
 1924POPC   GL128009  14.365  32.032   9.103
 1924POPC   GL228010  14.403  32.385   9.061
 1924POPC   C1A28011  14.292  32.084   8.655
 1924POPC   D2A28012  14.251  32.355   8.274
 1924POPC   C3A28013  14.258  32.169   7.869
 1924POPC   C4A28014  14.383  32.337   7.471
 1924POPC   C1B28015  14.643  32.446   8.661
 1924POPC   C2B28016  14.765  32.504   8.252
 1924POPC   C3B28017  14.511  32.614   7.887
 1924POPC   C4B28018  14.256  32.834   7.574
 1925POPC   NC328019  18.166   0.144   9.418
 1925POPC   PO428020  18.390  44.559   9.456
 1925POPC   GL128021  18.350  44.766   9.084
 1925POPC   GL228022  18.451   0.113   8.995
 1925POPC   C1A28023  18.284  44.591   8.686
 1925POPC   D2A28024  18.125  44.447   8.318
 1925POPC   C3A28025  18.484  44.465   8.046
 1925POPC   C4A28026  18.694  44.549   7.680
 1925POPC   C1B28027  18.027   0.039   8.781
 1925POPC   C2B28028  17.858  44.988   8.361
 1925POPC   C3B28029  18.102  44.853   8.033
 1925POPC   C4B28030  18.273  44.963   7.683
 1926POPC   NC328031   0.040  23.287   9.420
 1926POPC   PO428032  44.678  23.819   9.568
 1926POPC   GL128033  44.543  23.686   9.161
 1926POPC   GL228034  44.477  24.066   9.151
 1926POPC   C1A28035  44.596  23.506   8.742
 1926POPC   D2A28036  44.677  23.607   8.292
 1926POPC   C3A28037  44.715  23.333   7.909
 1926POPC   C4A28038  44.569  23.474   7.470
 1926POPC   C1B28039  44.768  24.016   8.836
 1926POPC   C2B28040  44.666  24.099   8.451
 1926POPC   C3B28041  44.633  24.079   8.027
 1926POPC   C4B28042  44.868  23.972   7.711
 1927POPC   NC328043   9.967   2.912   9.658
 1927POPC   PO428044   9.509   2.470   9.703
 1927POPC   GL128045   9.644   2.741   9.287
 1927POPC   GL228046   9.396   2.960   9.157
 1927POPC   C1A28047   9.754   2.694   8.811
 1927POPC   D2A28048   9.814   2.915   8.424
 1927POPC   C3A28049   9.897   2.791   8.007
 1927POPC   C4A28050  10.050   2.967   7.605
 1927POPC   C1B28051   9.454   3.101   8.772
 1927POPC   C2B28052   9.306   3.190   8.404
 1927POPC   C3B28053   9.472   3.137   7.985
 1927POPC   C4B28054   9.530   2.848   7.631
 1928POPC   NC328055   3.112  30.014   9.378
 1928POPC   PO428056   3.775  29.827   9.467
 1928POPC   GL128057   3.543  30.023   9.123
 1928POPC   GL228058   3.792  30.105   8.923
 1928POPC   C1A28059   3.317  30.171   8.726
 1928POPC   D2A28060   3.480  30.127   8.312
 1928POPC   C3A28061   3.186  29.989   7.980
 1928POPC   C4A28062   3.191  30.030   7.520
 1928POPC   C1B28063   3.595  29.743   8.684
 1928POPC   C2B28064   3.526  29.587   8.251
 1928POPC   C3B28065   3.676  29.815   7.898
 1928POPC   C4B28066   3.677  29.938   7.453
 1929POPC   NC328067  27.621  11.620   9.582
 1929POPC   PO428068  27.893  10.984   9.499
 1929POPC   GL128069  27.592  11.181   9.221
 1929POPC   GL228070  27.551  11.532   9.101
 1929POPC   C1A28071  27.572  11.164   8.773
 1929POPC   D2A28072  27.616  11.480   8.465
 1929POPC   C3A28073  27.801  11.356   8.100
 1929POPC   C4A28074  27.995  11.291   7.711
 1929POPC   C1B28075  27.216  11.584   8.788
 1929POPC   C2B28076  27.101  11.483   8.347
 1929POPC   C3B28077  27.111  11.638   7.907
 1929POPC   C4B28078  27.463  11.416   7.717
 1930POPC   NC328079  35.057  20.738   9.449
 1930POPC   PO428080  35.689  20.555   9.580
 1930POPC   GL128081  35.478  20.545   9.191
 1930POPC   GL228082  35.375  20.879   9.069
 1930POPC   C1A28083  35.384  20.430   8.785
 1930POPC   D2A28084  35.139  20.464   8.431
 1930POPC   C3A28085  35.367  20.376   8.075
 1930POPC   C4A28086  35.525  20.452   7.673
 1930POPC   C1B28087  35.184  20.923   8.664
 1930POPC   C2B28088  35.199  20.971   8.222
 1930POPC   C3B28089  35.232  20.867   7.797
 1930POPC   C4B28090  35.090  21.135   7.462
 1931POPC   NC328091  42.764  39.884   9.518
 1931POPC   PO428092  43.357  40.215   9.388
 1931POPC   GL128093  42.976  40.210   9.180
 1931POPC   GL228094  43.065  39.849   9.111
 1931POPC   C1A28095  42.868  40.165   8.754
 1931POPC   D2A28096  43.246  40.226   8.489
 1931POPC   C3A28097  43.151  40.045   8.113
 1931POPC   C4A28098  42.805  40.170   7.946
 1931POPC   C1B28099  42.717  39.685   8.881
 1931POPC   C2B28100  42.718  39.749   8.450
 1931POPC   C3B28101  42.707  39.485   8.117
 1931POPC   C4B28102  42.890  39.692   7.799
 1932POPC   NC328103   4.432  15.780   9.591
 1932POPC   PO428104   3.959  16.145   9.259
 1932POPC   GL128105   4.355  16.101   9.071
 1932POPC   GL228106   4.586  15.837   9.120
 1932POPC   C1A28107   4.305  16.032   8.629
 1932POPC   D2A28108   4.205  16.267   8.254
 1932POPC   C3A28109   4.234  15.918   7.997
 1932POPC   C4A28110   4.318  15.776   7.580
 1932POPC   C1B28111   4.758  15.807   8.720
 1932POPC   C2B28112   4.620  15.753   8.305
 1932POPC   C3B28113   4.708  15.707   7.888
 1932POPC   C4B28114   4.825  15.679   7.474
 1933POPC   NC328115  24.146  31.268   9.538
 1933POPC   PO428116  23.605  31.619   9.365
 1933POPC   GL128117  23.584  31.255   9.168
 1933POPC   GL228118  23.908  31.288   9.082
 1933POPC   C1A28119  23.458  31.280   8.755
 1933POPC   D2A28120  23.682  31.299   8.397
 1933POPC   C3A28121  23.510  31.470   8.076
 1933POPC   C4A28122  23.317  31.329   7.711
 1933POPC   C1B28123  24.142  31.260   8.729
 1933POPC   C2B28124  24.171  31.426   8.371
 1933POPC   C3B28125  24.096  31.363   8.003
 1933POPC   C4B28126  23.826  31.398   7.673
 1934POPC   NC328127  19.623  15.894   9.617
 1934POPC   PO428128  20.119  16.312   9.434
 1934POPC   GL128129  19.879  16.057   9.163
 1934POPC   GL228130  19.753  15.731   9.156
 1934POPC   C1A28131  19.970  16.021   8.722
 1934POPC   D2A28132  19.929  15.716   8.418
 1934POPC   C3A28133  20.043  15.858   8.024
 1934POPC   C4A28134  19.844  16.007   7.622
 1934POPC   C1B28135  19.519  15.816   8.780
 1934POPC   C2B28136  19.416  15.747   8.374
 1934POPC   C3B28137  19.552  15.771   7.969
 1934POPC   C4B28138  19.338  15.895   7.601
 1935POPC   NC328139  20.965  13.044   9.437
 1935POPC   PO428140  21.569  12.736   9.542
 1935POPC   GL128141  21.376  12.883   9.158
 1935POPC   GL228142  21.334  12.594   8.948
 1935POPC   C1A28143  21.243  13.033   8.731
 1935POPC   D2A28144  21.412  12.900   8.351
 1935POPC   C3A28145  21.484  13.245   8.104
 1935POPC   C4A28146  21.485  13.253   7.687
 1935POPC   C1B28147  20.942  12.629   8.659
 1935POPC   C2B28148  20.787  12.580   8.291
 1935POPC   C3B28149  21.121  12.594   8.025
 1935POPC   C4B28150  21.477  12.756   7.821
 1936POPC   NC328151  41.043   9.485   9.543
 1936POPC   PO428152  40.751  10.094   9.742
 1936POPC   GL128153  40.767   9.912   9.320
 1936POPC   GL228154  40.480   9.994   9.106
 1936POPC   C1A28155  40.846   9.634   8.920
 1936POPC   D2A28156  40.734   9.544   8.460
 1936POPC   C3A28157  41.059   9.507   8.098
 1936POPC   C4A28158  40.908   9.547   7.651
 1936POPC   C1B28159  40.568   9.982   8.668
 1936POPC   C2B28160  40.430   9.976   8.273
 1936POPC   C3B28161  40.692   9.840   8.015
 1936POPC   C4B28162  40.874  10.073   7.749
 1937POPC   NC328163  18.554  14.415   9.385
 1937POPC   PO428164  19.116  14.112   9.407
 1937POPC   GL128165  19.094  14.416   9.092
 1937POPC   GL228166  19.252  14.720   9.152
 1937POPC   C1A28167  19.198  14.389   8.658
 1937POPC   D2A28168  19.003  14.171   8.268
 1937POPC   C3A28169  19.188  14.176   7.816
 1937POPC   C4A28170  18.991  14.175   7.371
 1937POPC   C1B28171  19.037  14.866   8.800
 1937POPC   C2B28172  18.869  14.689   8.423
 1937POPC   C3B28173  19.080  14.638   8.032
 1937POPC   C4B28174  18.929  14.603   7.625
 1938POPC   NC328175  12.919  28.766   9.692
 1938POPC   PO428176  12.929  28.178   9.405
 1938POPC   GL128177  12.954  28.302   8.997
 1938POPC   GL228178  13.096  28.631   9.138
 1938POPC   C1A28179  12.678  28.370   8.592
 1938POPC   D2A28180  12.451  28.499   8.197
 1938POPC   C3A28181  12.654  28.318   7.829
 1938POPC   C4A28182  13.052  28.128   7.811
 1938POPC   C1B28183  13.115  28.652   8.695
 1938POPC   C2B28184  13.097  28.493   8.293
 1938POPC   C3B28185  13.040  28.680   7.927
 1938POPC   C4B28186  13.016  28.647   7.502
 1939POPC   NC328187   4.892  39.709   9.573
 1939POPC   PO428188   4.861  40.388   9.582
 1939POPC   GL128189   4.916  40.273   9.137
 1939POPC   GL228190   4.984  39.916   9.112
 1939POPC   C1A28191   5.121  40.211   8.727
 1939POPC   D2A28192   5.368  40.260   8.353
 1939POPC   C3A28193   5.084  40.099   8.041
 1939POPC   C4A28194   4.791  40.248   7.731
 1939POPC   C1B28195   5.267  39.712   8.794
 1939POPC   C2B28196   5.322  39.491   8.406
 1939POPC   C3B28197   5.245  39.593   7.963
 1939POPC   C4B28198   5.139  39.837   7.603
 1940POPC   NC328199   6.624  15.373   9.528
 1940POPC   PO428200   7.122  14.919   9.297
 1940POPC   GL128201   6.669  14.969   9.164
 1940POPC   GL228202   6.809  15.255   9.070
 1940POPC   C1A28203   6.440  15.206   8.765
 1940POPC   D2A28204   6.307  15.019   8.374
 1940POPC   C3A28205   6.487  15.110   7.922
 1940POPC   C4A28206   6.334  15.299   7.518
 1940POPC   C1B28207   6.877  14.969   8.700
 1940POPC   C2B28208   6.797  15.117   8.333
 1940POPC   C3B28209   6.916  15.448   8.097
 1940POPC   C4B28210   7.163  15.292   7.791
 1941POPC   NC328211  42.095  30.018   9.485
 1941POPC   PO428212  42.762  29.783   9.512
 1941POPC   GL128213  42.595  29.939   9.172
 1941POPC   GL228214  42.312  29.717   9.128
 1941POPC   C1A28215  42.607  29.906   8.749
 1941POPC   D2A28216  42.364  29.720   8.448
 1941POPC   C3A28217  42.534  29.844   8.105
 1941POPC   C4A28218  42.663  29.972   7.741
 1941POPC   C1B28219  42.123  29.988   8.832
 1941POPC   C2B28220  42.247  30.207   8.470
 1941POPC   C3B28221  42.186  30.200   8.055
 1941POPC   C4B28222  42.164  30.005   7.676
 1942POPC   NC328223   4.083  36.377   9.429
 1942POPC   PO428224   3.892  35.885   9.239
 1942POPC   GL128225   4.110  36.186   8.948
 1942POPC   GL228226   4.455  36.291   9.066
 1942POPC   C1A28227   4.047  36.229   8.499
 1942POPC   D2A28228   4.312  36.305   8.139
 1942POPC   C3A28229   4.181  36.296   7.699
 1942POPC   C4A28230   3.814  36.372   7.465
 1942POPC   C1B28231   4.571  36.252   8.622
 1942POPC   C2B28232   4.731  36.036   8.245
 1942POPC   C3B28233   4.610  36.016   7.801
 1942POPC   C4B28234   4.592  35.998   7.337
 1943POPC   NC328235  11.164  29.662   9.546
 1943POPC   PO428236  10.585  30.112   9.517
 1943POPC   GL128237  10.418  29.990   9.142
 1943POPC   GL228238  10.513  29.625   9.208
 1943POPC   C1A28239  10.225  30.217   8.770
 1943POPC   D2A28240  10.062  30.205   8.380
 1943POPC   C3A28241  10.342  29.993   8.093
 1943POPC   C4A28242  10.324  30.067   7.665
 1943POPC   C1B28243  10.770  29.797   8.839
 1943POPC   C2B28244  10.930  29.867   8.419
 1943POPC   C3B28245  10.921  29.613   8.063
 1943POPC   C4B28246  10.772  29.865   7.731
 1944POPC   NC328247  11.449  21.678   9.670
 1944POPC   PO428248  11.068  22.261   9.631
 1944POPC   GL128249  11.420  22.198   9.363
 1944POPC   GL228250  11.169  22.287   9.128
 1944POPC   C1A28251  11.598  22.153   8.939
 1944POPC   D2A28252  11.387  22.077   8.564
 1944POPC   C3A28253  11.493  22.161   8.136
 1944POPC   C4A28254  11.342  21.950   7.776
 1944POPC   C1B28255  11.096  22.495   8.738
 1944POPC   C2B28256  11.099  22.467   8.286
 1944POPC   C3B28257  11.189  22.436   7.844
 1944POPC   C4B28258  11.062  22.669   7.569
 1945POPC   NC328259  27.890  14.497   9.781
 1945POPC   PO428260  27.764  14.231   9.147
 1945POPC   GL128261  27.581  14.509   8.917
 1945POPC   GL228262  27.365  14.751   9.031
 1945POPC   C1A28263  27.764  14.546   8.548
 1945POPC   D2A28264  27.578  14.168   8.415
 1945POPC   C3A28265  27.779  14.125   8.070
 1945POPC   C4A28266  27.737  14.398   7.760
 1945POPC   C1B28267  27.285  14.756   8.574
 1945POPC   C2B28268  27.434  14.648   8.173
 1945POPC   C3B28269  27.286  14.578   7.803
 1945POPC   C4B28270  27.344  14.848   7.417
 1946POPC   NC328271   8.869   0.163   9.502
 1946POPC   PO428272   8.940   0.835   9.544
 1946POPC   GL128273   8.870   0.659   9.161
 1946POPC   GL228274   9.068   0.383   9.037
 1946POPC   C1A28275   8.945   0.838   8.762
 1946POPC   D2A28276   9.226   0.667   8.466
 1946POPC   C3A28277   8.989   0.487   8.147
 1946POPC   C4A28278   8.897   0.466   7.727
 1946POPC   C1B28279   9.301   0.190   8.677
 1946POPC   C2B28280   9.333   0.108   8.240
 1946POPC   C3B28281   9.348   0.273   7.846
 1946POPC   C4B28282   9.300   0.228   7.417
 1947POPC   NC328283  40.307  36.574   9.460
 1947POPC   PO428284  40.889  36.782   9.552
 1947POPC   GL128285  40.865  36.907   9.154
 1947POPC   GL228286  40.554  36.953   9.179
 1947POPC   C1A28287  40.715  36.744   8.762
 1947POPC   D2A28288  40.885  36.750   8.378
 1947POPC   C3A28289  40.597  36.742   8.071
 1947POPC   C4A28290  40.814  36.975   7.794
 1947POPC   C1B28291  40.411  37.159   8.849
 1947POPC   C2B28292  40.542  37.131   8.449
 1947POPC   C3B28293  40.567  37.288   8.079
 1947POPC   C4B28294  40.437  37.468   7.703
 1948POPC   NC328295  44.787  36.319   9.957
 1948POPC   PO428296  44.816  36.002   9.420
 1948POPC   GL128297  44.636  35.779   9.104
 1948POPC   GL228298  44.906  35.654   8.936
 1948POPC   C1A28299  44.458  35.837   8.696
 1948POPC   D2A28300  44.579  35.882   8.281
 1948POPC   C3A28301  44.361  36.138   7.953
 1948POPC   C4A28302  44.433  36.197   7.500
 1948POPC   C1B28303  44.917  36.080   8.756
 1948POPC   C2B28304  44.767  36.326   8.401
 1948POPC   C3B28305  44.867  36.237   7.964
 1948POPC   C4B28306  44.792  36.518   7.657
 1949POPC   NC328307  30.183   8.929   9.509
 1949POPC   PO428308  29.698   9.385   9.350
 1949POPC   GL128309  29.945   9.075   9.081
 1949POPC   GL228310  30.292   8.919   9.034
 1949POPC   C1A28311  30.021   9.074   8.644
 1949POPC   D2A28312  29.769   9.322   8.393
 1949POPC   C3A28313  29.849   9.236   7.968
 1949POPC   C4A28314  29.592   9.209   7.567
 1949POPC   C1B28315  30.407   8.681   8.687
 1949POPC   C2B28316  30.293   8.786   8.271
 1949POPC   C3B28317  30.192   8.599   7.894
 1949POPC   C4B28318  29.837   8.778   7.724
 1950POPC   NC328319  33.696  14.187   9.497
 1950POPC   PO428320  33.881  14.742   9.417
 1950POPC   GL128321  33.616  14.655   9.057
 1950POPC   GL228322  33.493  14.312   9.066
 1950POPC   C1A28323  33.772  14.491   8.661
 1950POPC   D2A28324  34.102  14.382   8.326
 1950POPC   C3A28325  34.105  14.708   7.994
 1950POPC   C4A28326  33.940  14.757   7.571
 1950POPC   C1B28327  33.453  14.058   8.736
 1950POPC   C2B28328  33.656  14.124   8.343
 1950POPC   C3B28329  33.702  14.372   7.968
 1950POPC   C4B28330  33.642  14.240   7.537
 1951POPC   NC328331  42.522  15.653   9.519
 1951POPC   PO428332  42.030  16.056   9.483
 1951POPC   GL128333  42.174  15.820   9.134
 1951POPC   GL228334  42.518  15.943   9.077
 1951POPC   C1A28335  42.339  15.588   8.770
 1951POPC   D2A28336  42.257  15.430   8.403
 1951POPC   C3A28337  42.206  15.771   8.140
 1951POPC   C4A28338  42.093  15.897   7.745
 1951POPC   C1B28339  42.389  16.088   8.622
 1951POPC   C2B28340  42.438  16.240   8.165
 1951POPC   C3B28341  42.434  16.324   7.691
 1951POPC   C4B28342  42.530  16.357   7.216
 1952POPC   NC328343   3.905  30.923  10.046
 1952POPC   PO428344   4.015  31.275   9.476
 1952POPC   GL128345   4.259  31.386   9.112
 1952POPC   GL228346   4.216  31.742   9.044
 1952POPC   C1A28347   4.416  31.334   8.675
 1952POPC   D2A28348   4.357  31.605   8.295
 1952POPC   C3A28349   4.362  31.404   7.902
 1952POPC   C4A28350   4.657  31.055   7.852
 1952POPC   C1B28351   3.978  31.582   8.683
 1952POPC   C2B28352   3.852  31.633   8.254
 1952POPC   C3B28353   4.036  31.837   7.908
 1952POPC   C4B28354   4.271  31.729   7.508
 1953POPC   NC328355  21.632  17.335   9.659
 1953POPC   PO428356  21.422  17.906   9.296
 1953POPC   GL128357  21.680  17.773   9.026
 1953POPC   GL228358  21.599  17.440   9.047
 1953POPC   C1A28359  21.632  17.775   8.649
 1953POPC   D2A28360  21.314  17.801   8.398
 1953POPC   C3A28361  21.493  17.533   8.118
 1953POPC   C4A28362  21.638  17.769   7.763
 1953POPC   C1B28363  21.265  17.383   8.713
 1953POPC   C2B28364  20.993  17.411   8.334
 1953POPC   C3B28365  21.022  17.681   7.994
 1953POPC   C4B28366  21.224  17.445   7.709
 1954POPC   NC328367  30.878  12.699   9.490
 1954POPC   PO428368  30.472  13.257   9.482
 1954POPC   GL128369  30.795  13.123   9.193
 1954POPC   GL228370  30.589  12.835   9.090
 1954POPC   C1A28371  30.938  12.965   8.759
 1954POPC   D2A28372  30.619  12.862   8.450
 1954POPC   C3A28373  30.733  12.723   8.076
 1954POPC   C4A28374  30.835  12.811   7.670
 1954POPC   C1B28375  30.499  12.505   8.782
 1954POPC   C2B28376  30.211  12.518   8.429
 1954POPC   C3B28377  30.243  12.583   8.007
 1954POPC   C4B28378  30.555  12.355   7.759
 1955POPC   NC328379  24.165  23.405   9.552
 1955POPC   PO428380  24.800  23.632   9.524
 1955POPC   GL128381  24.618  23.487   9.184
 1955POPC   GL228382  24.433  23.807   9.154
 1955POPC   C1A28383  24.770  23.598   8.794
 1955POPC   D2A28384  24.490  23.668   8.490
 1955POPC   C3A28385  24.496  23.926   8.187
 1955POPC   C4A28386  24.533  23.883   7.764
 1955POPC   C1B28387  24.124  23.690   8.844
 1955POPC   C2B28388  23.978  23.716   8.408
 1955POPC   C3B28389  24.072  23.559   7.982
 1955POPC   C4B28390  24.141  23.646   7.546
 1956POPC   NC328391  35.523  13.831   9.370
 1956POPC   PO428392  35.135  13.338   9.502
 1956POPC   GL128393  35.212  13.488   9.107
 1956POPC   GL228394  35.549  13.398   9.055
 1956POPC   C1A28395  35.338  13.668   8.703
 1956POPC   D2A28396  35.305  13.510   8.292
 1956POPC   C3A28397  35.274  13.886   8.053
 1956POPC   C4A28398  35.220  13.700   7.699
 1956POPC   C1B28399  35.620  13.209   8.646
 1956POPC   C2B28400  35.775  13.267   8.210
 1956POPC   C3B28401  35.506  13.269   7.845
 1956POPC   C4B28402  35.647  13.419   7.463
 1957POPC   NC328403  41.098  24.949   9.350
 1957POPC   PO428404  40.513  25.377   9.507
 1957POPC   GL128405  40.658  25.247   9.131
 1957POPC   GL228406  40.961  25.375   9.096
 1957POPC   C1A28407  40.621  25.280   8.676
 1957POPC   D2A28408  40.467  24.956   8.368
 1957POPC   C3A28409  40.752  25.004   8.013
 1957POPC   C4A28410  40.674  25.463   7.898
 1957POPC   C1B28411  41.118  25.363   8.691
 1957POPC   C2B28412  41.035  25.372   8.248
 1957POPC   C3B28413  41.175  25.506   7.815
 1957POPC   C4B28414  41.150  25.587   7.330
 1958POPC   NC328415  34.036  25.366   9.594
 1958POPC   PO428416  33.701  24.746   9.698
 1958POPC   GL128417  33.742  25.079   9.304
 1958POPC   GL228418  34.044  25.128   9.121
 1958POPC   C1A28419  33.616  25.262   8.898
 1958POPC   D2A28420  33.520  25.275   8.446
 1958POPC   C3A28421  33.714  25.297   8.034
 1958POPC   C4A28422  33.783  25.217   7.597
 1958POPC   C1B28423  34.111  25.356   8.762
 1958POPC   C2B28424  34.041  25.520   8.360
 1958POPC   C3B28425  34.207  25.432   7.912
 1958POPC   C4B28426  34.274  25.364   7.463
 1959POPC   NC328427  36.161  24.629   9.508
 1959POPC   PO428428  35.657  24.094   9.529
 1959POPC   GL128429  35.926  24.334   9.170
 1959POPC   GL228430  36.315  24.378   9.087
 1959POPC   C1A28431  35.899  24.629   8.779
 1959POPC   D2A28432  36.223  24.686   8.424
 1959POPC   C3A28433  36.176  24.654   7.989
 1959POPC   C4A28434  35.855  24.696   7.706
 1959POPC   C1B28435  36.212  24.252   8.677
 1959POPC   C2B28436  35.892  24.268   8.366
 1959POPC   C3B28437  35.927  24.207   7.939
 1959POPC   C4B28438  36.332  24.026   7.787
 1960POPC   NC328439  14.837  18.960   9.446
 1960POPC   PO428440  14.191  19.271   9.528
 1960POPC   GL128441  14.394  19.080   9.191
 1960POPC   GL228442  14.701  19.282   9.080
 1960POPC   C1A28443  14.351  18.803   8.836
 1960POPC   D2A28444  14.573  18.817   8.465
 1960POPC   C3A28445  14.282  18.816   8.141
 1960POPC   C4A28446  14.218  18.970   7.758
 1960POPC   C1B28447  14.466  19.316   8.717
 1960POPC   C2B28448  14.575  19.460   8.309
 1960POPC   C3B28449  14.537  19.373   7.883
 1960POPC   C4B28450  14.503  19.293   7.459
 1961POPC   NC328451  38.165   8.094   9.252
 1961POPC   PO428452  38.667   8.474   9.572
 1961POPC   GL128453  38.719   8.334   9.189
 1961POPC   GL228454  38.417   8.534   9.108
 1961POPC   C1A28455  38.634   8.099   8.809
 1961POPC   D2A28456  38.308   8.134   8.483
 1961POPC   C3A28457  38.455   8.136   8.043
 1961POPC   C4A28458  38.632   8.359   7.700
 1961POPC   C1B28459  38.351   8.655   8.692
 1961POPC   C2B28460  38.349   8.606   8.264
 1961POPC   C3B28461  38.203   8.600   7.838
 1961POPC   C4B28462  38.206   8.425   7.405
 1962POPC   NC328463  41.550  37.831   9.530
 1962POPC   PO428464  41.189  37.303   9.452
 1962POPC   GL128465  41.519  37.344   9.156
 1962POPC   GL228466  41.830  37.583   9.174
 1962POPC   C1A28467  41.473  37.453   8.739
 1962POPC   D2A28468  41.745  37.573   8.423
 1962POPC   C3A28469  41.577  37.447   8.053
 1962POPC   C4A28470  41.368  37.794   7.827
 1962POPC   C1B28471  42.022  37.795   8.819
 1962POPC   C2B28472  42.035  37.978   8.376
 1962POPC   C3B28473  41.850  37.909   8.008
 1962POPC   C4B28474  41.894  37.625   7.688
 1963POPC   NC328475  26.101  26.550   9.910
 1963POPC   PO428476  25.720  26.788   9.377
 1963POPC   GL128477  25.963  26.691   9.028
 1963POPC   GL228478  25.730  26.511   8.822
 1963POPC   C1A28479  25.995  26.901   8.630
 1963POPC   D2A28480  25.750  26.968   8.275
 1963POPC   C3A28481  26.036  27.063   7.954
 1963POPC   C4A28482  26.219  27.023   7.554
 1963POPC   C1B28483  26.070  26.391   8.547
 1963POPC   C2B28484  26.219  26.640   8.218
 1963POPC   C3B28485  26.120  26.583   7.799
 1963POPC   C4B28486  25.829  26.697   7.519
 1964POPC   NC328487  24.317  39.569   9.493
 1964POPC   PO428488  24.440  40.224   9.382
 1964POPC   GL128489  24.758  40.141   9.090
 1964POPC   GL228490  24.750  39.760   9.200
 1964POPC   C1A28491  24.680  40.185   8.630
 1964POPC   D2A28492  24.312  40.165   8.372
 1964POPC   C3A28493  24.434  40.346   7.988
 1964POPC   C4A28494  24.752  40.233   7.690
 1964POPC   C1B28495  24.463  39.754   8.858
 1964POPC   C2B28496  24.612  39.697   8.456
 1964POPC   C3B28497  24.650  39.898   8.090
 1964POPC   C4B28498  24.544  39.798   7.676
 1965POPC   NC328499  13.990   6.323   9.298
 1965POPC   PO428500  14.539   6.354   9.639
 1965POPC   GL128501  14.481   6.452   9.173
 1965POPC   GL228502  14.768   6.273   9.079
 1965POPC   C1A28503  14.462   6.634   8.735
 1965POPC   D2A28504  14.257   6.750   8.301
 1965POPC   C3A28505  14.275   6.488   7.917
 1965POPC   C4A28506  14.360   6.253   7.511
 1965POPC   C1B28507  14.626   6.135   8.702
 1965POPC   C2B28508  14.499   6.252   8.309
 1965POPC   C3B28509  14.754   6.341   7.948
 1965POPC   C4B28510  14.862   6.246   7.546
 1966POPC   NC328511  19.087   4.110   9.465
 1966POPC   PO428512  19.345   4.804   9.659
 1966POPC   GL128513  19.278   4.562   9.270
 1966POPC   GL228514  19.014   4.641   9.035
 1966POPC   C1A28515  19.481   4.444   8.871
 1966POPC   D2A28516  19.468   4.503   8.434
 1966POPC   C3A28517  19.108   4.451   8.103
 1966POPC   C4A28518  18.979   4.343   7.667
 1966POPC   C1B28519  18.985   4.275   8.768
 1966POPC   C2B28520  18.801   4.112   8.396
 1966POPC   C3B28521  18.693   4.041   7.990
 1966POPC   C4B28522  18.559   4.060   7.529
 1967POPC   NC328523   3.685  18.511   9.487
 1967POPC   PO428524   3.850  17.837   9.491
 1967POPC   GL128525   3.553  18.035   9.138
 1967POPC   GL228526   3.539  18.359   9.016
 1967POPC   C1A28527   3.309  17.982   8.750
 1967POPC   D2A28528   3.514  18.272   8.498
 1967POPC   C3A28529   3.547  18.243   8.106
 1967POPC   C4A28530   3.477  18.022   7.767
 1967POPC   C1B28531   3.547  18.701   8.761
 1967POPC   C2B28532   3.547  18.786   8.340
 1967POPC   C3B28533   3.857  18.663   8.073
 1967POPC   C4B28534   3.721  18.490   7.703
 1968POPC   NC328535  23.510  35.588   9.488
 1968POPC   PO428536  23.635  34.985   9.518
 1968POPC   GL128537  23.868  35.144   9.177
 1968POPC   GL228538  23.980  35.486   9.241
 1968POPC   C1A28539  23.622  35.375   8.869
 1968POPC   D2A28540  23.422  35.605   8.541
 1968POPC   C3A28541  23.391  35.285   8.252
 1968POPC   C4A28542  23.451  35.119   7.841
 1968POPC   C1B28543  24.158  35.408   8.835
 1968POPC   C2B28544  23.933  35.433   8.467
 1968POPC   C3B28545  23.895  35.204   8.114
 1968POPC   C4B28546  23.917  35.348   7.741
 1969POPC   NC328547  14.139  21.996   9.385
 1969POPC   PO428548  13.448  21.974   9.416
 1969POPC   GL128549  13.717  22.068   9.088
 1969POPC   GL228550  13.852  22.395   9.180
 1969POPC   C1A28551  13.576  21.952   8.669
 1969POPC   D2A28552  13.273  22.022   8.327
 1969POPC   C3A28553  13.477  22.145   7.931
 1969POPC   C4A28554  13.792  22.017   7.574
 1969POPC   C1B28555  13.661  22.465   8.787
 1969POPC   C2B28556  13.731  22.326   8.359
 1969POPC   C3B28557  13.955  22.285   7.969
 1969POPC   C4B28558  13.982  22.500   7.601
 1970POPC   NC328559  44.403  42.818   9.335
 1970POPC   PO428560  44.598  42.286   9.671
 1970POPC   GL128561  44.699  42.394   9.228
 1970POPC   GL228562  44.994  42.594   9.150
 1970POPC   C1A28563  44.831  42.190   8.826
 1970POPC   D2A28564   0.096  42.351   8.474
 1970POPC   C3A28565  44.961  42.277   8.084
 1970POPC   C4A28566  44.616  42.144   7.889
 1970POPC   C1B28567  44.786  42.661   8.751
 1970POPC   C2B28568  44.576  42.466   8.401
 1970POPC   C3B28569  44.326  42.560   8.042
 1970POPC   C4B28570  44.677  42.656   7.834
 1971POPC   NC328571  17.087   6.821   9.591
 1971POPC   PO428572  16.518   6.486   9.645
 1971POPC   GL128573  16.462   6.713   9.231
 1971POPC   GL228574  16.814   6.751   9.139
 1971POPC   C1A28575  16.418   6.706   8.749
 1971POPC   D2A28576  16.362   6.404   8.369
 1971POPC   C3A28577  16.355   6.638   7.961
 1971POPC   C4A28578  16.350   6.906   7.579
 1971POPC   C1B28579  16.950   6.647   8.722
 1971POPC   C2B28580  16.759   6.711   8.319
 1971POPC   C3B28581  16.880   6.593   7.919
 1971POPC   C4B28582  16.830   6.737   7.506
 1972POPC   NC328583  33.413  26.074   9.637
 1972POPC   PO428584  32.775  26.183   9.593
 1972POPC   GL128585  33.058  26.085   9.233
 1972POPC   GL228586  33.382  25.876   9.167
 1972POPC   C1A28587  32.945  26.011   8.810
 1972POPC   D2A28588  32.760  25.979   8.402
 1972POPC   C3A28589  32.998  26.004   8.074
 1972POPC   C4A28590  33.056  26.132   7.683
 1972POPC   C1B28591  33.314  25.661   8.771
 1972POPC   C2B28592  33.145  25.605   8.347
 1972POPC   C3B28593  33.368  25.707   7.918
 1972POPC   C4B28594  33.341  25.705   7.440
 1973POPC   NC328595  29.765  17.881   9.613
 1973POPC   PO428596  29.886  18.544   9.503
 1973POPC   GL128597  29.929  18.396   9.063
 1973POPC   GL228598  30.146  18.106   9.050
 1973POPC   C1A28599  29.787  18.381   8.649
 1973POPC   D2A28600  29.705  18.295   8.219
 1973POPC   C3A28601  30.041  18.260   7.897
 1973POPC   C4A28602  30.101  18.537   7.512
 1973POPC   C1B28603  29.741  17.925   8.894
 1973POPC   C2B28604  29.404  17.996   8.594
 1973POPC   C3B28605  29.331  17.948   8.153
 1973POPC   C4B28606  29.587  18.037   7.764
 1974POPC   NC328607   2.936   6.146   9.315
 1974POPC   PO428608   2.409   5.741   9.652
 1974POPC   GL128609   2.496   5.620   9.191
 1974POPC   GL228610   2.830   5.687   9.128
 1974POPC   C1A28611   2.520   5.759   8.727
 1974POPC   D2A28612   2.608   6.131   8.431
 1974POPC   C3A28613   2.972   6.120   8.140
 1974POPC   C4A28614   3.045   6.024   7.709
 1974POPC   C1B28615   3.065   5.548   8.814
 1974POPC   C2B28616   3.058   5.657   8.413
 1974POPC   C3B28617   2.871   5.539   8.032
 1974POPC   C4B28618   2.962   5.528   7.616
 1975POPC   NC328619   1.304  21.263   9.542
 1975POPC   PO428620   1.471  21.904   9.356
 1975POPC   GL128621   1.323  21.537   9.089
 1975POPC   GL228622   1.512  21.166   9.102
 1975POPC   C1A28623   1.054  21.591   8.704
 1975POPC   D2A28624   0.772  21.498   8.328
 1975POPC   C3A28625   0.951  21.418   7.943
 1975POPC   C4A28626   1.201  21.317   7.577
 1975POPC   C1B28627   1.166  21.104   8.824
 1975POPC   C2B28628   1.099  21.112   8.382
 1975POPC   C3B28629   1.320  21.073   8.031
 1975POPC   C4B28630   1.650  21.108   7.788
 1976POPC   NC328631  30.359   7.372   9.527
 1976POPC   PO428632  30.967   7.743   9.524
 1976POPC   GL128633  30.686   7.665   9.171
 1976POPC   GL228634  30.661   7.314   9.098
 1976POPC   C1A28635  30.792   7.772   8.758
 1976POPC   D2A28636  30.849   7.564   8.375
 1976POPC   C3A28637  30.608   7.716   8.033
 1976POPC   C4A28638  30.445   7.514   7.690
 1976POPC   C1B28639  30.424   7.431   8.722
 1976POPC   C2B28640  30.422   7.274   8.328
 1976POPC   C3B28641  30.735   7.104   8.106
 1976POPC   C4B28642  30.696   7.053   7.685
 1977POPC   NC328643  20.864  32.491   9.412
 1977POPC   PO428644  20.764  31.829   9.280
 1977POPC   GL128645  20.525  32.133   9.037
 1977POPC   GL228646  20.639  32.482   8.941
 1977POPC   C1A28647  20.357  32.099   8.598
 1977POPC   D2A28648  20.311  31.984   8.141
 1977POPC   C3A28649  20.661  31.911   7.844
 1977POPC   C4A28650  20.654  31.903   7.333
 1977POPC   C1B28651  21.018  32.607   8.724
 1977POPC   C2B28652  21.178  32.415   8.358
 1977POPC   C3B28653  21.064  32.251   7.963
 1977POPC   C4B28654  20.809  32.342   7.598
 1978POPC   NC328655   3.120  23.039   9.430
 1978POPC   PO428656   3.741  22.877   9.460
 1978POPC   GL128657   3.468  22.800   9.136
 1978POPC   GL228658   3.738  22.612   8.996
 1978POPC   C1A28659   3.434  22.988   8.737
 1978POPC   D2A28660   3.761  23.132   8.449
 1978POPC   C3A28661   3.589  23.012   8.077
 1978POPC   C4A28662   3.292  23.013   7.784
 1978POPC   C1B28663   3.829  22.642   8.567
 1978POPC   C2B28664   3.872  22.591   8.125
 1978POPC   C3B28665   3.645  22.581   7.753
 1978POPC   C4B28666   3.761  22.590   7.259
 1979POPC   NC328667   4.156  41.253   9.845
 1979POPC   PO428668   4.399  41.781   9.525
 1979POPC   GL128669   4.530  41.590   9.149
 1979POPC   GL228670   4.194  41.452   9.144
 1979POPC   C1A28671   4.466  41.475   8.716
 1979POPC   D2A28672   4.160  41.498   8.425
 1979POPC   C3A28673   4.373  41.397   8.101
 1979POPC   C4A28674   4.550  41.336   7.748
 1979POPC   C1B28675   3.976  41.756   8.871
 1979POPC   C2B28676   3.905  41.949   8.455
 1979POPC   C3B28677   3.902  41.752   8.045
 1979POPC   C4B28678   4.135  41.608   7.700
 1980POPC   NC328679   7.411   7.551   9.607
 1980POPC   PO428680   7.182   6.977   9.516
 1980POPC   GL128681   7.309   7.274   9.168
 1980POPC   GL228682   7.196   7.643   9.157
 1980POPC   C1A28683   7.533   7.340   8.773
 1980POPC   D2A28684   7.526   7.541   8.377
 1980POPC   C3A28685   7.465   7.402   7.978
 1980POPC   C4A28686   7.796   7.230   7.814
 1980POPC   C1B28687   7.230   7.766   8.742
 1980POPC   C2B28688   7.055   7.667   8.330
 1980POPC   C3B28689   7.232   7.853   7.987
 1980POPC   C4B28690   7.188   7.792   7.594
 1981POPC   NC328691   9.800  26.477   9.326
 1981POPC   PO428692   9.870  27.177   9.487
 1981POPC   GL128693   9.608  26.950   9.222
 1981POPC   GL228694   9.406  27.233   9.234
 1981POPC   C1A28695   9.702  26.775   8.778
 1981POPC   D2A28696   9.955  26.844   8.414
 1981POPC   C3A28697   9.733  26.762   8.047
 1981POPC   C4A28698  10.005  26.838   7.705
 1981POPC   C1B28699   9.585  27.278   8.822
 1981POPC   C2B28700   9.505  27.101   8.432
 1981POPC   C3B28701   9.450  27.271   8.061
 1981POPC   C4B28702   9.405  27.011   7.743
 1982POPC   NC328703  28.588  35.509   9.461
 1982POPC   PO428704  27.999  35.149   9.647
 1982POPC   GL128705  28.235  35.149   9.245
 1982POPC   GL228706  28.595  35.075   9.197
 1982POPC   C1A28707  28.300  35.356   8.821
 1982POPC   D2A28708  28.401  35.581   8.414
 1982POPC   C3A28709  28.366  35.427   7.984
 1982POPC   C4A28710  28.386  35.204   7.580
 1982POPC   C1B28711  28.531  34.907   8.764
 1982POPC   C2B28712  28.565  35.074   8.336
 1982POPC   C3B28713  28.767  35.001   7.898
 1982POPC   C4B28714  28.707  34.840   7.439
 1983POPC   NC328715   8.370  10.347   9.418
 1983POPC   PO428716   7.723  10.579   9.581
 1983POPC   GL128717   7.915  10.493   9.174
 1983POPC   GL228718   7.738  10.175   9.190
 1983POPC   C1A28719   8.204  10.553   8.796
 1983POPC   D2A28720   8.494  10.605   8.426
 1983POPC   C3A28721   8.280  10.530   8.037
 1983POPC   C4A28722   8.168  10.730   7.679
 1983POPC   C1B28723   7.948  10.070   8.791
 1983POPC   C2B28724   8.231  10.158   8.435
 1983POPC   C3B28725   8.217  10.015   7.997
 1983POPC   C4B28726   7.969  10.223   7.692
 1984POPC   NC328727  22.784  32.360   9.686
 1984POPC   PO428728  23.293  31.930   9.747
 1984POPC   GL128729  23.035  32.005   9.367
 1984POPC   GL228730  23.313  32.071   9.184
 1984POPC   C1A28731  22.874  31.984   8.906
 1984POPC   D2A28732  22.659  32.094   8.484
 1984POPC   C3A28733  22.902  32.159   8.079
 1984POPC   C4A28734  22.847  31.963   7.651
 1984POPC   C1B28735  23.201  32.426   8.915
 1984POPC   C2B28736  23.121  32.470   8.466
 1984POPC   C3B28737  23.166  32.615   8.029
 1984POPC   C4B28738  23.124  32.397   7.631
 1985POPC   NC328739  11.700  17.505   9.478
 1985POPC   PO428740  12.269  17.783   9.406
 1985POPC   GL128741  11.994  17.611   9.065
 1985POPC   GL228742  11.691  17.859   9.121
 1985POPC   C1A28743  12.080  17.313   8.709
 1985POPC   D2A28744  12.258  17.041   8.351
 1985POPC   C3A28745  12.163  17.201   7.926
 1985POPC   C4A28746  12.266  17.370   7.521
 1985POPC   C1B28747  11.620  17.740   8.728
 1985POPC   C2B28748  11.844  17.682   8.361
 1985POPC   C3B28749  11.753  17.695   7.941
 1985POPC   C4B28750  11.951  17.743   7.570
 1986POPC   NC328751   7.547  15.001   9.422
 1986POPC   PO428752   7.069  15.336   9.659
 1986POPC   GL128753   7.294  15.366   9.137
 1986POPC   GL228754   7.615  15.245   8.995
 1986POPC   C1A28755   7.256  15.289   8.663
 1986POPC   D2A28756   7.292  14.991   8.312
 1986POPC   C3A28757   7.578  15.196   8.052
 1986POPC   C4A28758   7.737  15.299   7.619
 1986POPC   C1B28759   7.636  14.902   8.679
 1986POPC   C2B28760   7.854  14.820   8.291
 1986POPC   C3B28761   7.794  14.821   7.807
 1986POPC   C4B28762   7.879  14.871   7.352
 1987POPC   NC328763   8.591  16.931   9.803
 1987POPC   PO428764   9.199  16.607   9.472
 1987POPC   GL128765   8.996  16.790   9.163
 1987POPC   GL228766   8.829  16.506   9.034
 1987POPC   C1A28767   8.850  16.948   8.765
 1987POPC   D2A28768   8.988  16.915   8.389
 1987POPC   C3A28769   8.701  16.988   8.097
 1987POPC   C4A28770   8.928  16.868   7.767
 1987POPC   C1B28771   8.938  16.430   8.619
 1987POPC   C2B28772   8.803  16.463   8.178
 1987POPC   C3B28773   8.943  16.356   7.753
 1987POPC   C4B28774   8.803  16.384   7.324
 1988POPC   NC328775   4.831  42.774   9.582
 1988POPC   PO428776   5.199  42.219   9.504
 1988POPC   GL128777   5.016  42.351   9.156
 1988POPC   GL228778   5.248  42.638   9.177
 1988POPC   C1A28779   4.882  42.191   8.745
 1988POPC   D2A28780   5.051  41.936   8.390
 1988POPC   C3A28781   5.048  42.111   7.985
 1988POPC   C4A28782   4.934  42.135   7.564
 1988POPC   C1B28783   5.305  42.480   8.751
 1988POPC   C2B28784   5.373  42.319   8.358
 1988POPC   C3B28785   5.380  42.516   7.949
 1988POPC   C4B28786   5.245  42.521   7.519
 1989POPC   NC328787   1.520   0.279   9.435
 1989POPC   PO428788   1.165   0.853   9.605
 1989POPC   GL128789   1.020   0.542   9.229
 1989POPC   GL228790   1.154   0.268   9.078
 1989POPC   C1A28791   0.883   0.578   8.765
 1989POPC   D2A28792   0.887   0.283   8.392
 1989POPC   C3A28793   0.877   0.527   8.003
 1989POPC   C4A28794   1.112   0.481   7.615
 1989POPC   C1B28795   1.415   0.113   8.777
 1989POPC   C2B28796   1.470   0.241   8.402
 1989POPC   C3B28797   1.288   0.208   8.030
 1989POPC   C4B28798   1.489   0.083   7.661
 1990POPC   NC328799  27.781  43.989   9.502
 1990POPC   PO428800  27.126  44.043   9.616
 1990POPC   GL128801  27.371  43.928   9.182
 1990POPC   GL228802  27.669  44.180   9.053
 1990POPC   C1A28803  27.541  43.804   8.755
 1990POPC   D2A28804  27.748  43.976   8.395
 1990POPC   C3A28805  27.551  43.798   8.021
 1990POPC   C4A28806  27.710  43.816   7.603
 1990POPC   C1B28807  27.429  44.312   8.697
 1990POPC   C2B28808  27.272  44.174   8.250
 1990POPC   C3B28809  27.417  44.238   7.797
 1990POPC   C4B28810  27.258  44.191   7.353
 1991POPC   NC328811  32.459  28.980   9.623
 1991POPC   PO428812  32.009  29.384   9.415
 1991POPC   GL128813  32.087  29.221   9.067
 1991POPC   GL228814  32.451  29.245   9.115
 1991POPC   C1A28815  31.999  29.420   8.698
 1991POPC   D2A28816  32.199  29.357   8.326
 1991POPC   C3A28817  32.010  29.044   8.105
 1991POPC   C4A28818  32.071  29.091   7.685
 1991POPC   C1B28819  32.427  29.059   8.699
 1991POPC   C2B28820  32.678  29.008   8.335
 1991POPC   C3B28821  32.518  29.111   7.970
 1991POPC   C4B28822  32.558  29.087   7.557
 1992POPC   NC328823   5.210  22.107   9.391
 1992POPC   PO428824   4.627  21.853   9.283
 1992POPC   GL128825   4.839  22.244   9.064
 1992POPC   GL228826   5.213  22.359   8.962
 1992POPC   C1A28827   4.918  22.128   8.630
 1992POPC   D2A28828   5.091  21.995   8.243
 1992POPC   C3A28829   4.796  22.149   7.962
 1992POPC   C4A28830   4.769  22.465   7.704
 1992POPC   C1B28831   5.434  22.246   8.586
 1992POPC   C2B28832   5.470  22.400   8.150
 1992POPC   C3B28833   5.290  22.348   7.722
 1992POPC   C4B28834   5.399  22.165   7.284
 1993POPC   NC328835  20.231  24.452   9.536
 1993POPC   PO428836  20.851  24.314   9.622
 1993POPC   GL128837  20.891  24.359   9.146
 1993POPC   GL228838  20.563  24.418   9.106
 1993POPC   C1A28839  20.985  24.586   8.741
 1993POPC   D2A28840  20.821  24.864   8.406
 1993POPC   C3A28841  20.805  24.684   8.003
 1993POPC   C4A28842  20.747  24.319   7.738
 1993POPC   C1B28843  20.477  24.544   8.681
 1993POPC   C2B28844  20.348  24.688   8.270
 1993POPC   C3B28845  20.301  24.545   7.847
 1993POPC   C4B28846  20.237  24.220   7.517
 1994POPC   NC328847  32.646  12.193   9.650
 1994POPC   PO428848  32.069  11.933   9.510
 1994POPC   GL128849  32.370  11.897   9.180
 1994POPC   GL228850  32.527  12.206   9.126
 1994POPC   C1A28851  32.158  12.055   8.790
 1994POPC   D2A28852  31.880  11.951   8.444
 1994POPC   C3A28853  32.054  12.129   8.060
 1994POPC   C4A28854  32.214  12.016   7.635
 1994POPC   C1B28855  32.678  11.991   8.742
 1994POPC   C2B28856  32.672  12.128   8.294
 1994POPC   C3B28857  32.428  12.470   8.063
 1994POPC   C4B28858  32.139  12.525   7.683
 1995POPC   NC328859  27.087   8.323   9.504
 1995POPC   PO428860  27.045   7.719   9.724
 1995POPC   GL128861  26.944   7.913   9.252
 1995POPC   GL228862  26.658   8.204   9.215
 1995POPC   C1A28863  27.137   7.908   8.805
 1995POPC   D2A28864  27.192   7.716   8.369
 1995POPC   C3A28865  26.968   7.922   8.027
 1995POPC   C4A28866  27.116   8.275   7.805
 1995POPC   C1B28867  26.668   8.098   8.773
 1995POPC   C2B28868  26.866   8.284   8.399
 1995POPC   C3B28869  26.780   8.536   8.032
 1995POPC   C4B28870  26.818   8.595   7.527
 1996POPC   NC328871   1.770  41.991   9.263
 1996POPC   PO428872   1.919  42.663   9.249
 1996POPC   GL128873   2.148  42.303   9.113
 1996POPC   GL228874   2.453  42.374   9.028
 1996POPC   C1A28875   2.118  42.146   8.685
 1996POPC   D2A28876   1.950  42.431   8.352
 1996POPC   C3A28877   1.958  42.268   7.958
 1996POPC   C4A28878   1.914  41.912   7.736
 1996POPC   C1B28879   2.332  42.624   8.678
 1996POPC   C2B28880   2.515  42.692   8.331
 1996POPC   C3B28881   2.312  42.741   7.946
 1996POPC   C4B28882   1.957  42.713   7.716
 1997POPC   NC328883  16.097   6.695   9.626
 1997POPC   PO428884  16.036   6.126   9.386
 1997POPC   GL128885  16.005   6.456   9.125
 1997POPC   GL228886  15.805   6.718   9.208
 1997POPC   C1A28887  15.959   6.478   8.697
 1997POPC   D2A28888  16.003   6.761   8.379
 1997POPC   C3A28889  15.830   6.546   8.057
 1997POPC   C4A28890  15.898   6.649   7.659
 1997POPC   C1B28891  15.781   6.953   8.827
 1997POPC   C2B28892  15.755   7.196   8.444
 1997POPC   C3B28893  15.612   7.030   8.053
 1997POPC   C4B28894  15.499   6.957   7.634
 1998POPC   NC328895  23.517  12.639   9.511
 1998POPC   PO428896  23.975  13.101   9.620
 1998POPC   GL128897  23.789  12.952   9.186
 1998POPC   GL228898  23.664  12.624   9.027
 1998POPC   C1A28899  23.777  13.005   8.720
 1998POPC   D2A28900  23.829  12.757   8.382
 1998POPC   C3A28901  23.976  12.939   8.049
 1998POPC   C4A28902  23.979  13.237   7.744
 1998POPC   C1B28903  23.639  12.374   8.669
 1998POPC   C2B28904  23.619  12.312   8.240
 1998POPC   C3B28905  23.516  12.652   7.977
 1998POPC   C4B28906  23.638  12.860   7.594
 1999POPC   NC328907  28.480  13.895   9.607
 1999POPC   PO428908  28.160  13.365   9.451
 1999POPC   GL128909  28.456  13.529   9.179
 1999POPC   GL228910  28.693  13.285   9.019
 1999POPC   C1A28911  28.486  13.658   8.757
 1999POPC   D2A28912  28.385  13.448   8.378
 1999POPC   C3A28913  28.312  13.671   7.990
 1999POPC   C4A28914  27.914  13.706   7.815
 1999POPC   C1B28915  28.911  13.421   8.620
 1999POPC   C2B28916  28.834  13.270   8.205
 1999POPC   C3B28917  28.756  13.450   7.810
 1999POPC   C4B28918  28.497  13.419   7.410
 2000POPC   NC328919  28.516   9.325   9.777
 2000POPC   PO428920  28.368   8.701   9.352
 2000POPC   GL128921  28.383   8.643   8.957
 2000POPC   GL228922  28.336   8.974   8.878
 2000POPC   C1A28923  28.134   8.604   8.596
 2000POPC   D2A28924  28.084   9.001   8.382
 2000POPC   C3A28925  28.163   8.926   7.965
 2000POPC   C4A28926  28.467   8.653   7.749
 2000POPC   C1B28927  28.566   9.320   8.721
 2000POPC   C2B28928  28.406   9.445   8.365
 2000POPC   C3B28929  28.549   9.299   7.991
 2000POPC   C4B28930  28.682   9.448   7.609
 2001POPC   NC328931   5.640  23.662   9.465
 2001POPC   PO428932   6.257  23.965   9.430
 2001POPC   GL128933   5.973  23.870   9.101
 2001POPC   GL228934   5.781  23.567   8.995
 2001POPC   C1A28935   5.790  24.007   8.721
 2001POPC   D2A28936   5.920  24.123   8.290
 2001POPC   C3A28937   5.740  23.881   8.008
 2001POPC   C4A28938   5.865  23.857   7.618
 2001POPC   C1B28939   5.638  23.398   8.622
 2001POPC   C2B28940   5.599  23.432   8.181
 2001POPC   C3B28941   5.782  23.301   7.803
 2001POPC   C4B28942   6.120  23.328   7.510
 2002POPC   NC328943  27.874  17.777   9.538
 2002POPC   PO428944  27.213  17.520   9.516
 2002POPC   GL128945  27.529  17.604   9.189
 2002POPC   GL228946  27.832  17.402   9.182
 2002POPC   C1A28947  27.425  17.551   8.775
 2002POPC   D2A28948  27.310  17.310   8.443
 2002POPC   C3A28949  27.477  17.533   8.098
 2002POPC   C4A28950  27.522  17.859   7.817
 2002POPC   C1B28951  28.031  17.468   8.831
 2002POPC   C2B28952  27.845  17.453   8.445
 2002POPC   C3B28953  28.017  17.577   8.054
 2002POPC   C4B28954  27.940  17.620   7.620
 2003POPC   NC328955  16.113  19.864   9.680
 2003POPC   PO428956  15.598  20.003   9.397
 2003POPC   GL128957  15.877  19.739   9.182
 2003POPC   GL228958  16.263  19.712   9.211
 2003POPC   C1A28959  15.836  19.870   8.770
 2003POPC   D2A28960  16.001  19.816   8.405
 2003POPC   C3A28961  15.741  19.755   8.103
 2003POPC   C4A28962  15.748  20.020   7.788
 2003POPC   C1B28963  16.217  19.517   8.804
 2003POPC   C2B28964  16.289  19.337   8.400
 2003POPC   C3B28965  16.215  19.523   8.027
 2003POPC   C4B28966  16.062  19.642   7.647
 2004POPC   NC328967   4.285  24.114   9.654
 2004POPC   PO428968   3.986  23.582   9.565
 2004POPC   GL128969   4.234  23.790   9.259
 2004POPC   GL228970   4.300  23.471   9.109
 2004POPC   C1A28971   4.377  23.900   8.858
 2004POPC   D2A28972   4.278  23.850   8.442
 2004POPC   C3A28973   4.562  23.851   8.103
 2004POPC   C4A28974   4.467  23.915   7.670
 2004POPC   C1B28975   4.141  23.411   8.695
 2004POPC   C2B28976   4.384  23.367   8.301
 2004POPC   C3B28977   4.369  23.440   7.849
 2004POPC   C4B28978   4.099  23.361   7.489
 2005POPC   NC328979  28.313  19.756   9.729
 2005POPC   PO428980  27.797  19.508   9.517
 2005POPC   GL128981  28.056  19.834   9.273
 2005POPC   GL228982  28.425  19.796   9.219
 2005POPC   C1A28983  28.038  19.934   8.820
 2005POPC   D2A28984  28.137  19.683   8.435
 2005POPC   C3A28985  28.226  19.959   8.098
 2005POPC   C4A28986  27.934  20.137   7.820
 2005POPC   C1B28987  28.504  19.623   8.800
 2005POPC   C2B28988  28.700  19.640   8.365
 2005POPC   C3B28989  28.617  19.669   7.915
 2005POPC   C4B28990  28.559  20.097   7.719
 2006POPC   NC328991  37.955  16.240   9.330
 2006POPC   PO428992  37.804  15.613   9.634
 2006POPC   GL128993  37.553  15.635   9.210
 2006POPC   GL228994  37.482  15.995   9.140
 2006POPC   C1A28995  37.390  15.685   8.745
 2006POPC   D2A28996  37.612  15.984   8.430
 2006POPC   C3A28997  37.693  15.857   8.037
 2006POPC   C4A28998  37.864  15.678   7.695
 2006POPC   C1B28999  37.277  16.197   8.740
 2006POPC   C2B29000  37.263  16.331   8.275
 2006POPC   C3B29001  37.566  16.328   7.909
 2006POPC   C4B29002  37.598  16.175   7.490
 2007POPC   NC329003  17.224   1.865   9.360
 2007POPC   PO429004  17.656   2.409   9.502
 2007POPC   GL129005  17.509   2.206   9.133
 2007POPC   GL229006  17.811   2.108   9.099
 2007POPC   C1A29007  17.567   1.997   8.683
 2007POPC   D2A29008  17.707   1.986   8.257
 2007POPC   C3A29009  17.390   2.041   7.921
 2007POPC   C4A29010  17.149   1.812   7.605
 2007POPC   C1B29011  18.079   1.872   8.831
 2007POPC   C2B29012  17.990   1.574   8.502
 2007POPC   C3B29013  18.118   1.699   8.105
 2007POPC   C4B29014  17.949   1.969   7.814
 2008POPC   NC329015  27.855   3.204   9.491
 2008POPC   PO429016  27.391   3.687   9.390
 2008POPC   GL129017  27.581   3.426   9.102
 2008POPC   GL229018  27.918   3.533   9.130
 2008POPC   C1A29019  27.719   3.402   8.681
 2008POPC   D2A29020  27.602   3.188   8.336
 2008POPC   C3A29021  27.510   3.538   8.079
 2008POPC   C4A29022  27.607   3.775   7.710
 2008POPC   C1B29023  28.167   3.247   8.896
 2008POPC   C2B29024  28.182   3.219   8.478
 2008POPC   C3B29025  28.024   3.405   8.139
 2008POPC   C4B29026  27.968   3.398   7.734
 2009POPC   NC329027  32.488   9.760   9.955
 2009POPC   PO429028  32.007   9.350   9.822
 2009POPC   GL129029  31.946   9.489   9.187
 2009POPC   GL229030  32.244   9.767   9.129
 2009POPC   C1A29031  32.199   9.422   8.773
 2009POPC   D2A29032  32.353   9.669   8.423
 2009POPC   C3A29033  32.133   9.602   8.066
 2009POPC   C4A29034  31.986   9.437   7.710
 2009POPC   C1B29035  32.387  10.022   8.796
 2009POPC   C2B29036  32.467  10.169   8.353
 2009POPC   C3B29037  32.308  10.077   7.955
 2009POPC   C4B29038  32.153   9.905   7.588
 2010POPC   NC329039  44.165  20.580   9.347
 2010POPC   PO429040  44.755  20.535   9.620
 2010POPC   GL129041  44.892  20.821   9.284
 2010POPC   GL229042  44.561  20.834   9.167
 2010POPC   C1A29043  44.924  20.695   8.842
 2010POPC   D2A29044  44.891  20.429   8.507
 2010POPC   C3A29045  44.893  20.589   8.104
 2010POPC   C4A29046  44.560  20.463   7.817
 2010POPC   C1B29047  44.436  20.678   8.743
 2010POPC   C2B29048  44.451  20.764   8.326
 2010POPC   C3B29049  44.168  20.775   8.002
 2010POPC   C4B29050  44.279  20.895   7.617
 2011POPC   NC329051   5.002  26.414   9.400
 2011POPC   PO429052   5.332  25.899   9.491
 2011POPC   GL129053   4.961  25.875   9.237
 2011POPC   GL229054   5.119  26.114   9.008
 2011POPC   C1A29055   4.773  25.789   8.827
 2011POPC   D2A29056   4.861  26.081   8.457
 2011POPC   C3A29057   4.758  25.922   8.039
 2011POPC   C4A29058   4.992  25.894   7.653
 2011POPC   C1B29059   5.207  26.436   8.718
 2011POPC   C2B29060   5.277  26.367   8.305
 2011POPC   C3B29061   5.054  26.344   7.940
 2011POPC   C4B29062   4.985  26.721   7.758
 2012POPC   NC329063  31.660  43.724   9.629
 2012POPC   PO429064  32.226  43.949   9.743
 2012POPC   GL129065  32.234  43.763   9.235
 2012POPC   GL229066  32.363  44.018   9.012
 2012POPC   C1A29067  32.320  43.601   8.760
 2012POPC   D2A29068  32.142  43.805   8.364
 2012POPC   C3A29069  32.355  43.747   7.959
 2012POPC   C4A29070  32.168  43.680   7.553
 2012POPC   C1B29071  32.577  44.226   8.674
 2012POPC   C2B29072  32.451  44.191   8.246
 2012POPC   C3B29073  32.487  44.332   7.848
 2012POPC   C4B29074  32.390  44.123   7.527
 2013POPC   NC329075   8.425  41.188   9.465
 2013POPC   PO429076   7.907  40.790   9.524
 2013POPC   GL129077   8.094  40.749   9.139
 2013POPC   GL229078   8.395  40.916   9.049
 2013POPC   C1A29079   8.195  40.549   8.764
 2013POPC   D2A29080   8.072  40.831   8.474
 2013POPC   C3A29081   8.170  40.772   8.061
 2013POPC   C4A29082   7.953  40.929   7.716
 2013POPC   C1B29083   8.384  41.194   8.722
 2013POPC   C2B29084   8.469  41.147   8.314
 2013POPC   C3B29085   8.283  41.258   7.960
 2013POPC   C4B29086   8.452  41.009   7.655
 2014POPC   NC329087  21.204  29.408   9.471
 2014POPC   PO429088  21.795  29.087   9.298
 2014POPC   GL129089  21.552  29.411   8.999
 2014POPC   GL229090  21.215  29.600   8.998
 2014POPC   C1A29091  21.382  29.447   8.552
 2014POPC   D2A29092  21.439  29.155   8.235
 2014POPC   C3A29093  21.593  29.190   7.824
 2014POPC   C4A29094  21.515  28.990   7.442
 2014POPC   C1B29095  20.969  29.270   8.836
 2014POPC   C2B29096  20.908  29.152   8.423
 2014POPC   C3B29097  20.976  29.044   7.997
 2014POPC   C4B29098  21.095  29.272   7.649
 2015POPC   NC329099  14.994  44.446   9.577
 2015POPC   PO429100  15.281  44.920   9.540
 2015POPC   GL129101  15.244  44.651   9.143
 2015POPC   GL229102  15.030  44.348   9.063
 2015POPC   C1A29103  15.179  44.648   8.672
 2015POPC   D2A29104  15.101  44.443   8.262
 2015POPC   C3A29105  15.188  44.617   7.844
 2015POPC   C4A29106  15.529  44.625   7.521
 2015POPC   C1B29107  14.826  44.226   8.650
 2015POPC   C2B29108  14.670  44.171   8.209
 2015POPC   C3B29109  14.890  44.179   7.806
 2015POPC   C4B29110  14.854  44.504   7.463
 2016POPC   NC329111  22.557  36.811   9.429
 2016POPC   PO429112  23.220  37.028   9.469
 2016POPC   GL129113  22.964  37.000   9.123
 2016POPC   GL229114  23.129  36.696   9.085
 2016POPC   C1A29115  22.886  37.126   8.671
 2016POPC   D2A29116  22.752  36.937   8.260
 2016POPC   C3A29117  23.001  37.022   7.879
 2016POPC   C4A29118  23.255  36.793   7.580
 2016POPC   C1B29119  23.073  36.643   8.691
 2016POPC   C2B29120  23.262  36.756   8.319
 2016POPC   C3B29121  23.141  36.512   7.989
 2016POPC   C4B29122  22.762  36.577   7.770
 2017POPC   NC329123  14.359  27.951   9.608
 2017POPC   PO429124  14.575  27.300   9.446
 2017POPC   GL129125  14.407  27.448   9.091
 2017POPC   GL229126  14.153  27.654   9.227
 2017POPC   C1A29127  14.203  27.328   8.712
 2017POPC   D2A29128  14.324  27.164   8.322
 2017POPC   C3A29129  14.513  27.449   8.071
 2017POPC   C4A29130  14.378  27.304   7.716
 2017POPC   C1B29131  14.165  27.826   8.819
 2017POPC   C2B29132  14.344  27.783   8.430
 2017POPC   C3B29133  14.308  27.946   8.022
 2017POPC   C4B29134  14.373  27.802   7.623
 2018POPC   NC329135  11.378  32.785   9.624
 2018POPC   PO429136  11.865  33.262   9.513
 2018POPC   GL129137  11.609  33.048   9.156
 2018POPC   GL229138  11.252  32.886   9.157
 2018POPC   C1A29139  11.365  33.100   8.732
 2018POPC   D2A29140  11.058  33.050   8.370
 2018POPC   C3A29141  11.207  33.194   7.957
 2018POPC   C4A29142  11.570  33.041   7.723
 2018POPC   C1B29143  11.038  32.632   8.842
 2018POPC   C2B29144  10.901  32.551   8.397
 2018POPC   C3B29145  11.090  32.625   7.979
 2018POPC   C4B29146  11.076  32.862   7.579
 2019POPC   NC329147  35.049  11.517   9.568
 2019POPC   PO429148  34.299  11.486   9.513
 2019POPC   GL129149  34.612  11.363   9.200
 2019POPC   GL229150  34.468  11.050   9.071
 2019POPC   C1A29151  34.770  11.299   8.760
 2019POPC   D2A29152  34.718  11.529   8.371
 2019POPC   C3A29153  34.886  11.351   8.009
 2019POPC   C4A29154  34.660  11.495   7.692
 2019POPC   C1B29155  34.236  11.296   8.840
 2019POPC   C2B29156  34.333  11.171   8.452
 2019POPC   C3B29157  34.303  11.262   8.044
 2019POPC   C4B29158  34.376  11.072   7.655
 2020POPC   NC329159  33.457  14.910   9.482
 2020POPC   PO429160  32.911  15.289   9.582
 2020POPC   GL129161  32.994  15.149   9.207
 2020POPC   GL229162  32.633  15.171   9.149
 2020POPC   C1A29163  33.263  15.059   8.873
 2020POPC   D2A29164  33.136  15.031   8.464
 2020POPC   C3A29165  33.303  15.214   8.108
 2020POPC   C4A29166  33.184  15.149   7.691
 2020POPC   C1B29167  32.781  15.328   8.768
 2020POPC   C2B29168  32.636  15.329   8.358
 2020POPC   C3B29169  32.762  15.102   7.998
 2020POPC   C4B29170  32.676  14.715   7.763
 2021POPC   NC329171   9.611  21.644   9.519
 2021POPC   PO429172   9.667  21.069   9.807
 2021POPC   GL129173   9.707  21.163   9.294
 2021POPC   GL229174   9.799  21.490   9.079
 2021POPC   C1A29175   9.559  21.115   8.845
 2021POPC   D2A29176   9.796  21.297   8.513
 2021POPC   C3A29177   9.795  21.278   8.069
 2021POPC   C4A29178   9.688  21.487   7.676
 2021POPC   C1B29179  10.121  21.603   8.764
 2021POPC   C2B29180  10.189  21.556   8.317
 2021POPC   C3B29181   9.973  21.794   7.975
 2021POPC   C4B29182   9.823  21.972   7.573
 2022POPC   NC329183  13.162  23.113   9.759
 2022POPC   PO429184  13.624  22.747   9.475
 2022POPC   GL129185  13.739  22.917   9.099
 2022POPC   GL229186  13.749  23.261   9.248
 2022POPC   C1A29187  13.927  22.867   8.668
 2022POPC   D2A29188  13.615  22.836   8.351
 2022POPC   C3A29189  13.637  22.670   7.976
 2022POPC   C4A29190  13.605  22.884   7.675
 2022POPC   C1B29191  13.805  23.327   8.803
 2022POPC   C2B29192  13.993  23.334   8.392
 2022POPC   C3B29193  13.829  23.187   8.033
 2022POPC   C4B29194  13.731  23.369   7.678
 2023POPC   NC329195  11.756  10.552   9.524
 2023POPC   PO429196  12.428  10.726   9.466
 2023POPC   GL129197  12.173  10.488   9.194
 2023POPC   GL229198  11.911  10.699   9.066
 2023POPC   C1A29199  12.292  10.427   8.771
 2023POPC   D2A29200  12.518  10.424   8.381
 2023POPC   C3A29201  12.404  10.628   8.014
 2023POPC   C4A29202  12.252  10.508   7.636
 2023POPC   C1B29203  11.786  10.349   8.791
 2023POPC   C2B29204  11.996  10.210   8.365
 2023POPC   C3B29205  11.874  10.234   7.890
 2023POPC   C4B29206  11.814  10.407   7.432
 2024POPC   NC329207  32.301  31.855   9.626
 2024POPC   PO429208  32.166  32.497   9.455
 2024POPC   GL129209  32.286  32.317   9.119
 2024POPC   GL229210  32.500  32.029   9.189
 2024POPC   C1A29211  32.137  32.302   8.715
 2024POPC   D2A29212  32.333  32.332   8.339
 2024POPC   C3A29213  32.078  32.230   7.985
 2024POPC   C4A29214  32.170  32.066   7.564
 2024POPC   C1B29215  32.507  31.813   8.803
 2024POPC   C2B29216  32.493  31.860   8.382
 2024POPC   C3B29217  32.368  31.808   7.977
 2024POPC   C4B29218  32.680  31.734   7.704
 2025POPC   NC329219  34.735  18.287   9.517
 2025POPC   PO429220  34.201  18.693   9.472
 2025POPC   GL129221  34.423  18.441   9.143
 2025POPC   GL229222  34.718  18.578   9.010
 2025POPC   C1A29223  34.547  18.131   8.819
 2025POPC   D2A29224  34.391  18.101   8.409
 2025POPC   C3A29225  34.588  18.125   8.050
 2025POPC   C4A29226  34.502  18.018   7.649
 2025POPC   C1B29227  34.425  18.625   8.641
 2025POPC   C2B29228  34.462  18.612   8.187
 2025POPC   C3B29229  34.649  18.544   7.758
 2025POPC   C4B29230  34.993  18.298   7.760
 2026POPC   NC329231   7.989  31.054   9.293
 2026POPC   PO429232   8.588  30.831   9.530
 2026POPC   GL129233   8.379  30.598   9.215
 2026POPC   GL229234   8.508  30.801   8.981
 2026POPC   C1A29235   8.266  30.347   8.832
 2026POPC   D2A29236   8.160  30.472   8.393
 2026POPC   C3A29237   8.456  30.543   8.067
 2026POPC   C4A29238   8.249  30.373   7.722
 2026POPC   C1B29239   8.128  30.840   8.727
 2026POPC   C2B29240   8.060  31.142   8.450
 2026POPC   C3B29241   8.312  31.128   8.115
 2026POPC   C4B29242   8.107  30.884   7.803
 2027POPC   NC329243  27.403  14.048   9.375
 2027POPC   PO429244  26.820  14.414   9.421
 2027POPC   GL129245  26.669  14.410   9.038
 2027POPC   GL229246  26.900  14.623   8.891
 2027POPC   C1A29247  26.776  14.190   8.646
 2027POPC   D2A29248  27.000  14.396   8.343
 2027POPC   C3A29249  26.826  14.362   7.962
 2027POPC   C4A29250  26.998  14.185   7.610
 2027POPC   C1B29251  26.599  14.674   8.570
 2027POPC   C2B29252  26.412  14.379   8.293
 2027POPC   C3B29253  26.311  14.314   7.865
 2027POPC   C4B29254  26.579  14.421   7.518
 2028POPC   NC329255  28.654  33.486   9.240
 2028POPC   PO429256  28.256  33.930   9.625
 2028POPC   GL129257  28.327  33.893   9.172
 2028POPC   GL229258  28.547  34.112   9.048
 2028POPC   C1A29259  28.179  33.780   8.739
 2028POPC   D2A29260  28.015  33.888   8.311
 2028POPC   C3A29261  28.225  34.041   7.910
 2028POPC   C4A29262  28.199  34.123   7.434
 2028POPC   C1B29263  28.602  34.046   8.605
 2028POPC   C2B29264  28.710  33.740   8.269
 2028POPC   C3B29265  28.604  33.657   7.840
 2028POPC   C4B29266  28.826  33.978   7.627
 2029POPC   NC329267  37.122  22.960   9.601
 2029POPC   PO429268  36.599  22.563   9.557
 2029POPC   GL129269  36.938  22.620   9.200
 2029POPC   GL229270  37.007  22.977   9.130
 2029POPC   C1A29271  37.025  22.697   8.725
 2029POPC   D2A29272  36.871  22.979   8.405
 2029POPC   C3A29273  37.004  22.919   8.008
 2029POPC   C4A29274  36.763  22.838   7.646
 2029POPC   C1B29275  37.075  23.199   8.799
 2029POPC   C2B29276  37.287  23.321   8.447
 2029POPC   C3B29277  37.379  23.279   8.051
 2029POPC   C4B29278  37.075  23.301   7.700
 2030POPC   NC329279   9.640  27.659   9.468
 2030POPC   PO429280  10.267  27.977   9.423
 2030POPC   GL129281   9.948  27.894   9.110
 2030POPC   GL229282   9.579  27.776   8.986
 2030POPC   C1A29283   9.980  27.600   8.748
 2030POPC   D2A29284   9.781  27.556   8.354
 2030POPC   C3A29285   9.940  27.257   8.039
 2030POPC   C4A29286   9.773  27.333   7.635
 2030POPC   C1B29287   9.774  28.060   8.671
 2030POPC   C2B29288   9.848  28.073   8.254
 2030POPC   C3B29289   9.824  27.803   7.871
 2030POPC   C4B29290   9.823  27.781   7.396
 2031POPC   NC329291  14.070  23.791   9.578
 2031POPC   PO429292  14.700  24.030   9.437
 2031POPC   GL129293  14.442  23.805   9.137
 2031POPC   GL229294  14.125  23.606   9.110
 2031POPC   C1A29295  14.490  23.734   8.718
 2031POPC   D2A29296  14.531  23.512   8.325
 2031POPC   C3A29297  14.463  23.727   7.939
 2031POPC   C4A29298  14.732  23.568   7.596
 2031POPC   C1B29299  13.996  23.786   8.759
 2031POPC   C2B29300  14.103  23.841   8.361
 2031POPC   C3B29301  13.969  23.697   7.986
 2031POPC   C4B29302  14.052  24.008   7.666
 2032POPC   NC329303  26.551  28.810   9.370
 2032POPC   PO429304  27.008  29.357   9.449
 2032POPC   GL129305  26.788  29.214   9.114
 2032POPC   GL229306  26.959  28.911   9.114
 2032POPC   C1A29307  26.780  29.294   8.636
 2032POPC   D2A29308  26.733  29.569   8.267
 2032POPC   C3A29309  26.551  29.333   7.937
 2032POPC   C4A29310  26.640  29.270   7.499
 2032POPC   C1B29311  27.090  28.873   8.708
 2032POPC   C2B29312  26.996  28.949   8.287
 2032POPC   C3B29313  26.881  28.682   7.951
 2032POPC   C4B29314  27.116  28.799   7.635
 2033POPC   NC329315  29.626  36.861   9.431
 2033POPC   PO429316  30.294  37.167   9.644
 2033POPC   GL129317  30.168  37.150   9.202
 2033POPC   GL229318  29.839  37.051   9.024
 2033POPC   C1A29319  30.297  36.954   8.816
 2033POPC   D2A29320  30.084  36.643   8.573
 2033POPC   C3A29321  30.138  36.737   8.157
 2033POPC   C4A29322  30.183  36.833   7.738
 2033POPC   C1B29323  29.620  36.701   8.795
 2033POPC   C2B29324  29.626  36.742   8.342
 2033POPC   C3B29325  29.764  37.072   8.021
 2033POPC   C4B29326  29.735  37.133   7.581
 2034POPC   NC329327  31.288   1.328   9.434
 2034POPC   PO429328  30.666   0.999   9.447
 2034POPC   GL129329  30.613   1.211   9.104
 2034POPC   GL229330  30.850   1.446   9.176
 2034POPC   C1A29331  30.679   1.071   8.719
 2034POPC   D2A29332  30.736   1.203   8.315
 2034POPC   C3A29333  30.524   1.069   7.949
 2034POPC   C4A29334  30.596   1.207   7.537
 2034POPC   C1B29335  30.691   1.601   8.780
 2034POPC   C2B29336  30.770   1.726   8.379
 2034POPC   C3B29337  30.707   1.582   7.951
 2034POPC   C4B29338  30.573   1.696   7.553
 2035POPC   NC329339   9.393  44.707   9.595
 2035POPC   PO429340   9.912  44.305   9.603
 2035POPC   GL129341   9.891  44.499   9.228
 2035POPC   GL229342   9.774  44.825   9.252
 2035POPC   C1A29343   9.587  44.457   8.911
 2035POPC   D2A29344   9.380  44.683   8.580
 2035POPC   C3A29345   9.545  44.646   8.160
 2035POPC   C4A29346   9.437  44.789   7.728
 2035POPC   C1B29347   9.757  44.942   8.821
 2035POPC   C2B29348   9.811   0.058   8.421
 2035POPC   C3B29349   9.802   0.076   7.999
 2035POPC   C4B29350   9.964  44.800   7.753
 2036POPC   NC329351   6.070  20.287   9.419
 2036POPC   PO429352   5.527  19.992   9.300
 2036POPC   GL129353   5.860  19.790   9.096
 2036POPC   GL229354   6.014  20.088   8.954
 2036POPC   C1A29355   6.009  19.638   8.694
 2036POPC   D2A29356   6.006  19.713   8.262
 2036POPC   C3A29357   5.807  19.529   7.916
 2036POPC   C4A29358   5.961  19.580   7.497
 2036POPC   C1B29359   5.680  20.034   8.652
 2036POPC   C2B29360   5.710  20.109   8.238
 2036POPC   C3B29361   5.846  20.049   7.831
 2036POPC   C4B29362   5.860  20.071   7.401
 2037POPC   NC329363  11.070  17.147   9.548
 2037POPC   PO429364  11.299  17.739   9.489
 2037POPC   GL129365  11.216  17.606   9.108
 2037POPC   GL229366  11.380  17.322   9.123
 2037POPC   C1A29367  11.113  17.484   8.703
 2037POPC   D2A29368  11.366  17.507   8.348
 2037POPC   C3A29369  11.129  17.481   8.030
 2037POPC   C4A29370  11.320  17.529   7.692
 2037POPC   C1B29371  11.579  17.242   8.753
 2037POPC   C2B29372  11.749  17.161   8.339
 2037POPC   C3B29373  11.630  17.212   7.959
 2037POPC   C4B29374  11.738  17.290   7.554
 2038POPC   NC329375  37.886  27.991   9.510
 2038POPC   PO429376  37.667  28.557   9.681
 2038POPC   GL129377  37.734  28.421   9.251
 2038POPC   GL229378  37.496  28.196   9.119
 2038POPC   C1A29379  37.979  28.301   8.892
 2038POPC   D2A29380  37.990  28.501   8.466
 2038POPC   C3A29381  37.855  28.458   8.027
 2038POPC   C4A29382  37.872  28.169   7.700
 2038POPC   C1B29383  37.521  28.384   8.714
 2038POPC   C2B29384  37.577  28.168   8.332
 2038POPC   C3B29385  37.400  28.207   7.928
 2038POPC   C4B29386  37.446  28.551   7.636
 2039POPC   NC329387   4.332  17.999   9.511
 2039POPC   PO429388   4.153  18.712   9.521
 2039POPC   GL129389   4.299  18.458   9.177
 2039POPC   GL229390   4.027  18.234   9.162
 2039POPC   C1A29391   4.450  18.140   8.859
 2039POPC   D2A29392   4.640  17.883   8.520
 2039POPC   C3A29393   4.493  17.998   8.121
 2039POPC   C4A29394   4.534  18.066   7.694
 2039POPC   C1B29395   3.991  18.354   8.718
 2039POPC   C2B29396   4.019  18.145   8.301
 2039POPC   C3B29397   4.022  18.096   7.830
 2039POPC   C4B29398   4.172  18.420   7.499
 2040POPC   NC329399  34.713  35.833   9.418
 2040POPC   PO429400  34.134  36.177   9.568
 2040POPC   GL129401  34.424  36.181   9.214
 2040POPC   GL229402  34.211  35.899   9.115
 2040POPC   C1A29403  34.632  36.129   8.804
 2040POPC   D2A29404  34.838  36.315   8.448
 2040POPC   C3A29405  34.775  36.175   8.035
 2040POPC   C4A29406  34.626  36.294   7.603
 2040POPC   C1B29407  34.336  35.723   8.727
 2040POPC   C2B29408  34.579  35.773   8.344
 2040POPC   C3B29409  34.406  35.839   7.922
 2040POPC   C4B29410  34.370  35.769   7.446
 2041POPC   NC329411  14.736  20.619   9.553
 2041POPC   PO429412  14.072  20.809   9.527
 2041POPC   GL129413  14.371  20.799   9.223
 2041POPC   GL229414  14.443  20.458   9.151
 2041POPC   C1A29415  14.453  20.813   8.785
 2041POPC   D2A29416  14.500  20.577   8.386
 2041POPC   C3A29417  14.420  20.732   7.975
 2041POPC   C4A29418  14.659  20.581   7.667
 2041POPC   C1B29419  14.319  20.274   8.763
 2041POPC   C2B29420  14.154  20.196   8.343
 2041POPC   C3B29421  14.338  20.214   7.918
 2041POPC   C4B29422  14.230  20.337   7.491
 2042POPC   NC329423  17.423  31.101   9.415
 2042POPC   PO429424  17.494  31.732   9.456
 2042POPC   GL129425  17.601  31.471   9.103
 2042POPC   GL229426  17.300  31.371   8.968
 2042POPC   C1A29427  17.713  31.464   8.648
 2042POPC   D2A29428  17.775  31.594   8.206
 2042POPC   C3A29429  17.480  31.517   7.860
 2042POPC   C4A29430  17.213  31.708   7.566
 2042POPC   C1B29431  17.295  31.160   8.568
 2042POPC   C2B29432  17.288  31.129   8.127
 2042POPC   C3B29433  17.049  31.244   7.735
 2042POPC   C4B29434  17.006  31.318   7.278
 2043POPC   NC329435  21.709   3.992   9.742
 2043POPC   PO429436  22.266   3.895   9.368
 2043POPC   GL129437  22.134   4.222   9.112
 2043POPC   GL229438  22.369   4.490   9.104
 2043POPC   C1A29439  22.106   4.209   8.672
 2043POPC   D2A29440  22.144   4.020   8.280
 2043POPC   C3A29441  21.970   4.188   7.906
 2043POPC   C4A29442  22.044   4.465   7.557
 2043POPC   C1B29443  22.557   4.676   8.734
 2043POPC   C2B29444  22.373   4.796   8.360
 2043POPC   C3B29445  22.276   4.614   8.000
 2043POPC   C4B29446  22.531   4.642   7.681
 2044POPC   NC329447  39.277  33.214   9.617
 2044POPC   PO429448  39.037  32.570   9.508
 2044POPC   GL129449  39.281  32.746   9.149
 2044POPC   GL229450  39.305  33.113   9.135
 2044POPC   C1A29451  39.249  32.872   8.699
 2044POPC   D2A29452  39.025  32.999   8.346
 2044POPC   C3A29453  39.215  32.833   8.025
 2044POPC   C4A29454  39.393  32.864   7.598
 2044POPC   C1B29455  39.299  33.393   8.796
 2044POPC   C2B29456  39.388  33.319   8.385
 2044POPC   C3B29457  39.173  33.330   7.988
 2044POPC   C4B29458  39.296  33.367   7.593
 2045POPC   NC329459  27.307  25.129   9.520
 2045POPC   PO429460  27.892  25.648   9.595
 2045POPC   GL129461  27.816  25.528   9.142
 2045POPC   GL229462  27.620  25.205   9.123
 2045POPC   C1A29463  27.669  25.549   8.720
 2045POPC   D2A29464  27.543  25.270   8.365
 2045POPC   C3A29465  27.631  25.568   8.062
 2045POPC   C4A29466  27.849  25.527   7.690
 2045POPC   C1B29467  27.841  25.080   8.774
 2045POPC   C2B29468  27.899  24.922   8.380
 2045POPC   C3B29469  27.876  25.085   7.992
 2045POPC   C4B29470  27.668  25.031   7.662
 2046POPC   NC329471  13.040  14.527   9.515
 2046POPC   PO429472  12.448  14.469   9.579
 2046POPC   GL129473  12.506  14.333   9.165
 2046POPC   GL229474  12.850  14.281   9.098
 2046POPC   C1A29475  12.555  14.497   8.731
 2046POPC   D2A29476  12.942  14.584   8.488
 2046POPC   C3A29477  12.952  14.535   8.041
 2046POPC   C4A29478  12.908  14.645   7.584
 2046POPC   C1B29479  12.728  14.036   8.711
 2046POPC   C2B29480  12.639  14.170   8.265
 2046POPC   C3B29481  12.864  14.066   7.836
 2046POPC   C4B29482  13.185  14.227   7.512
 2047POPC   NC329483  15.668   2.796   9.581
 2047POPC   PO429484  16.250   2.987   9.503
 2047POPC   GL129485  16.035   2.804   9.125
 2047POPC   GL229486  15.730   2.567   9.125
 2047POPC   C1A29487  16.057   3.015   8.708
 2047POPC   D2A29488  16.188   2.956   8.299
 2047POPC   C3A29489  15.821   2.895   8.071
 2047POPC   C4A29490  15.802   2.761   7.665
 2047POPC   C1B29491  15.728   2.610   8.683
 2047POPC   C2B29492  15.666   2.411   8.278
 2047POPC   C3B29493  15.999   2.380   7.965
 2047POPC   C4B29494  16.150   2.401   7.552
 2048POPC   NC329495  19.699  16.550   9.476
 2048POPC   PO429496  20.186  17.037   9.420
 2048POPC   GL129497  20.103  16.835   9.017
 2048POPC   GL229498  19.940  16.554   9.040
 2048POPC   C1A29499  19.796  16.784   8.635
 2048POPC   D2A29500  19.582  16.978   8.312
 2048POPC   C3A29501  19.750  16.984   7.877
 2048POPC   C4A29502  20.154  16.790   7.694
 2048POPC   C1B29503  19.596  16.346   8.866
 2048POPC   C2B29504  19.519  16.249   8.469
 2048POPC   C3B29505  19.692  16.248   8.075
 2048POPC   C4B29506  19.752  16.500   7.731
 2049POPC   NC329507  22.202  28.871   9.444
 2049POPC   PO429508  22.178  28.210   9.589
 2049POPC   GL129509  22.105  28.153   9.136
 2049POPC   GL229510  22.348  27.911   9.087
 2049POPC   C1A29511  22.113  28.483   8.808
 2049POPC   D2A29512  22.254  28.425   8.363
 2049POPC   C3A29513  22.290  28.665   7.973
 2049POPC   C4A29514  22.301  28.547   7.522
 2049POPC   C1B29515  22.398  28.071   8.706
 2049POPC   C2B29516  22.432  27.943   8.301
 2049POPC   C3B29517  22.507  28.193   7.949
 2049POPC   C4B29518  22.563  28.088   7.548
 2050POPC   NC329519  12.356  25.553   9.364
 2050POPC   PO429520  11.744  25.247   9.374
 2050POPC   GL129521  11.989  25.340   9.051
 2050POPC   GL229522  12.194  25.095   9.099
 2050POPC   C1A29523  12.168  25.643   8.749
 2050POPC   D2A29524  12.279  25.609   8.324
 2050POPC   C3A29525  11.983  25.392   8.132
 2050POPC   C4A29526  11.811  25.381   7.745
 2050POPC   C1B29527  12.398  25.023   8.728
 2050POPC   C2B29528  12.657  24.952   8.373
 2050POPC   C3B29529  12.547  24.846   7.958
 2050POPC   C4B29530  12.287  25.168   7.796
 2051POPC   NC329531  27.385   7.697   9.418
 2051POPC   PO429532  27.887   7.244   9.584
 2051POPC   GL129533  27.920   7.336   9.144
 2051POPC   GL229534  27.783   7.635   9.109
 2051POPC   C1A29535  27.791   7.203   8.726
 2051POPC   D2A29536  27.509   7.283   8.376
 2051POPC   C3A29537  27.377   6.959   8.087
 2051POPC   C4A29538  27.553   7.159   7.747
 2051POPC   C1B29539  27.607   7.696   8.709
 2051POPC   C2B29540  27.731   7.771   8.288
 2051POPC   C3B29541  27.536   7.641   7.912
 2051POPC   C4B29542  27.285   7.854   7.604
 2052POPC   NC329543  13.281  25.770   9.244
 2052POPC   PO429544  13.239  26.414   9.396
 2052POPC   GL129545  13.386  26.202   9.004
 2052POPC   GL229546  13.732  26.189   8.923
 2052POPC   C1A29547  13.428  26.079   8.571
 2052POPC   D2A29548  13.779  26.139   8.305
 2052POPC   C3A29549  13.585  26.011   7.954
 2052POPC   C4A29550  13.432  25.907   7.543
 2052POPC   C1B29551  13.808  25.750   8.673
 2052POPC   C2B29552  13.956  25.531   8.277
 2052POPC   C3B29553  13.824  25.593   7.836
 2052POPC   C4B29554  13.931  26.018   7.557
 2053POPC   NC329555   0.565  43.029   9.544
 2053POPC   PO429556  44.843  42.944   9.497
 2053POPC   GL129557   0.202  43.112   9.171
 2053POPC   GL229558   0.458  42.835   9.099
 2053POPC   C1A29559   0.313  43.424   8.790
 2053POPC   D2A29560   0.320  43.628   8.331
 2053POPC   C3A29561   0.378  43.332   7.946
 2053POPC   C4A29562   0.556  42.899   7.872
 2053POPC   C1B29563   0.316  42.743   8.745
 2053POPC   C2B29564   0.364  42.928   8.369
 2053POPC   C3B29565   0.089  42.779   8.109
 2053POPC   C4B29566   0.144  42.596   7.711
 2054POPC   NC329567   5.741  26.114   9.550
 2054POPC   PO429568   6.318  26.285   9.325
 2054POPC   GL129569   5.970  26.107   9.097
 2054POPC   GL229570   5.616  26.319   9.106
 2054POPC   C1A29571   5.921  25.730   8.845
 2054POPC   D2A29572   5.962  25.605   8.445
 2054POPC   C3A29573   5.921  25.957   8.222
 2054POPC   C4A29574   6.026  25.996   7.868
 2054POPC   C1B29575   5.601  26.105   8.726
 2054POPC   C2B29576   5.452  25.906   8.378
 2054POPC   C3B29577   5.501  26.080   7.916
 2054POPC   C4B29578   5.434  26.414   7.576
 2055POPC   NC329579  12.441  18.234   9.411
 2055POPC   PO429580  11.813  18.411   9.385
 2055POPC   GL129581  12.114  18.465   9.086
 2055POPC   GL229582  12.139  18.101   9.025
 2055POPC   C1A29583  12.332  18.389   8.687
 2055POPC   D2A29584  12.142  18.112   8.388
 2055POPC   C3A29585  12.282  18.324   8.032
 2055POPC   C4A29586  12.274  18.673   7.700
 2055POPC   C1B29587  11.787  18.227   8.763
 2055POPC   C2B29588  11.604  18.148   8.391
 2055POPC   C3B29589  11.774  18.205   7.986
 2055POPC   C4B29590  11.624  18.110   7.589
 2056POPC   NC329591  37.110   2.556   9.514
 2056POPC   PO429592  36.558   2.982   9.514
 2056POPC   GL129593  36.813   2.828   9.167
 2056POPC   GL229594  37.149   2.814   9.091
 2056POPC   C1A29595  36.827   2.603   8.778
 2056POPC   D2A29596  36.990   2.477   8.408
 2056POPC   C3A29597  36.932   2.700   8.027
 2056POPC   C4A29598  36.740   2.596   7.619
 2056POPC   C1B29599  37.328   2.804   8.708
 2056POPC   C2B29600  37.420   3.028   8.352
 2056POPC   C3B29601  37.323   3.039   7.921
 2056POPC   C4B29602  36.994   3.043   7.632
 2057POPC   NC329603  44.421  12.878   9.588
 2057POPC   PO429604   0.134  12.847   9.447
 2057POPC   GL129605  44.771  12.779   9.136
 2057POPC   GL229606  44.413  12.646   9.148
 2057POPC   C1A29607  44.540  13.008   8.786
 2057POPC   D2A29608  44.304  13.149   8.411
 2057POPC   C3A29609  44.457  13.061   8.004
 2057POPC   C4A29610  44.767  13.088   7.718
 2057POPC   C1B29611  44.430  12.507   8.734
 2057POPC   C2B29612  44.565  12.691   8.338
 2057POPC   C3B29613  44.633  12.578   7.886
 2057POPC   C4B29614  44.611  12.573   7.383
 2058POPC   NC329615  41.666  33.457   9.640
 2058POPC   PO429616  41.601  34.155   9.667
 2058POPC   GL129617  41.684  33.863   9.263
 2058POPC   GL229618  41.785  33.509   9.152
 2058POPC   C1A29619  41.638  33.829   8.799
 2058POPC   D2A29620  41.595  34.089   8.442
 2058POPC   C3A29621  41.534  33.908   8.111
 2058POPC   C4A29622  41.365  33.987   7.729
 2058POPC   C1B29623  41.414  33.386   8.858
 2058POPC   C2B29624  41.326  33.506   8.426
 2058POPC   C3B29625  41.350  33.478   7.978
 2058POPC   C4B29626  41.703  33.568   7.745
 2059POPC   NC329627  12.484  32.266   9.539
 2059POPC   PO429628  11.739  32.404   9.621
 2059POPC   GL129629  12.025  32.248   9.260
 2059POPC   GL229630  12.301  31.966   9.156
 2059POPC   C1A29631  12.026  32.324   8.816
 2059POPC   D2A29632  11.924  32.538   8.444
 2059POPC   C3A29633  11.978  32.288   8.062
 2059POPC   C4A29634  12.321  32.141   7.810
 2059POPC   C1B29635  12.133  31.849   8.736
 2059POPC   C2B29636  11.978  31.810   8.327
 2059POPC   C3B29637  11.758  31.818   7.950
 2059POPC   C4B29638  11.872  32.065   7.581
 2060POPC   NC329639  37.831  26.646   9.686
 2060POPC   PO429640  37.617  27.214   9.584
 2060POPC   GL129641  37.732  26.914   9.263
 2060POPC   GL229642  37.438  26.667   9.291
 2060POPC   C1A29643  37.864  26.899   8.818
 2060POPC   D2A29644  37.758  26.750   8.408
 2060POPC   C3A29645  37.632  27.040   8.064
 2060POPC   C4A29646  37.688  26.774   7.697
 2060POPC   C1B29647  37.337  26.926   8.919
 2060POPC   C2B29648  37.295  26.938   8.462
 2060POPC   C3B29649  37.317  26.665   8.091
 2060POPC   C4B29650  37.211  26.635   7.649
 2061POPC   NC329651   1.162  15.510   9.776
 2061POPC   PO429652   1.177  16.126   9.588
 2061POPC   GL129653   1.247  16.049   9.164
 2061POPC   GL229654   1.441  15.752   9.158
 2061POPC   C1A29655   1.110  15.908   8.753
 2061POPC   D2A29656   0.960  15.658   8.414
 2061POPC   C3A29657   0.953  15.880   8.010
 2061POPC   C4A29658   1.219  16.124   7.721
 2061POPC   C1B29659   1.614  15.703   8.745
 2061POPC   C2B29660   1.461  15.726   8.324
 2061POPC   C3B29661   1.551  15.780   7.887
 2061POPC   C4B29662   1.462  15.663   7.452
 2062POPC   NC329663  28.051  28.076   9.417
 2062POPC   PO429664  28.319  28.582   9.684
 2062POPC   GL129665  28.398  28.708   9.233
 2062POPC   GL229666  28.320  28.399   9.083
 2062POPC   C1A29667  28.580  28.760   8.820
 2062POPC   D2A29668  28.458  28.612   8.417
 2062POPC   C3A29669  28.590  28.262   8.167
 2062POPC   C4A29670  28.394  28.333   7.789
 2062POPC   C1B29671  28.302  28.132   8.702
 2062POPC   C2B29672  28.306  27.851   8.332
 2062POPC   C3B29673  28.126  27.922   7.939
 2062POPC   C4B29674  28.360  27.841   7.578
 2063POPC   NC329675   6.758  26.426   9.329
 2063POPC   PO429676   6.715  27.052   9.555
 2063POPC   GL129677   6.675  26.908   9.098
 2063POPC   GL229678   6.431  26.645   8.998
 2063POPC   C1A29679   6.605  26.922   8.629
 2063POPC   D2A29680   6.349  26.673   8.396
 2063POPC   C3A29681   6.518  26.694   7.992
 2063POPC   C4A29682   6.267  26.741   7.645
 2063POPC   C1B29683   6.688  26.397   8.697
 2063POPC   C2B29684   6.872  26.501   8.325
 2063POPC   C3B29685   6.922  26.327   7.908
 2063POPC   C4B29686   6.785  26.535   7.544
 2064POPC   NC329687   6.806   8.339   9.497
 2064POPC   PO429688   6.212   8.201   9.186
 2064POPC   GL129689   6.580   8.225   9.033
 2064POPC   GL229690   6.768   7.942   9.157
 2064POPC   C1A29691   6.528   8.276   8.601
 2064POPC   D2A29692   6.362   8.556   8.337
 2064POPC   C3A29693   6.548   8.439   7.993
 2064POPC   C4A29694   6.303   8.548   7.686
 2064POPC   C1B29695   6.740   7.840   8.720
 2064POPC   C2B29696   6.603   7.884   8.264
 2064POPC   C3B29697   6.747   7.991   7.841
 2064POPC   C4B29698   6.492   8.127   7.478
 2065POPC   NC329699  22.031  27.164   9.464
 2065POPC   PO429700  21.854  26.507   9.414
 2065POPC   GL129701  22.038  26.716   9.091
 2065POPC   GL229702  22.328  26.649   8.988
 2065POPC   C1A29703  21.998  26.764   8.633
 2065POPC   D2A29704  22.112  26.973   8.275
 2065POPC   C3A29705  22.006  26.822   7.870
 2065POPC   C4A29706  22.137  26.761   7.483
 2065POPC   C1B29707  22.382  27.056   8.787
 2065POPC   C2B29708  22.570  27.182   8.369
 2065POPC   C3B29709  22.436  27.184   7.919
 2065POPC   C4B29710  22.522  27.088   7.491
 2066POPC   NC329711  33.257   3.115   9.290
 2066POPC   PO429712  33.808   2.797   9.593
 2066POPC   GL129713  33.777   2.682   9.187
 2066POPC   GL229714  33.415   2.590   9.209
 2066POPC   C1A29715  33.981   2.908   8.821
 2066POPC   D2A29716  34.102   3.124   8.413
 2066POPC   C3A29717  34.051   2.888   8.075
 2066POPC   C4A29718  33.907   2.906   7.696
 2066POPC   C1B29719  33.483   2.755   8.788
 2066POPC   C2B29720  33.672   2.843   8.418
 2066POPC   C3B29721  33.534   2.984   8.051
 2066POPC   C4B29722  33.434   2.703   7.742
 2067POPC   NC329723   3.682  10.200   9.481
 2067POPC   PO429724   3.113  10.562   9.515
 2067POPC   GL129725   3.233  10.324   9.148
 2067POPC   GL229726   3.522  10.515   9.124
 2067POPC   C1A29727   3.373  10.277   8.701
 2067POPC   D2A29728   3.507  10.589   8.428
 2067POPC   C3A29729   3.370  10.500   8.021
 2067POPC   C4A29730   3.211  10.186   7.744
 2067POPC   C1B29731   3.846  10.393   8.853
 2067POPC   C2B29732   4.013  10.489   8.460
 2067POPC   C3B29733   3.875  10.638   8.076
 2067POPC   C4B29734   3.764  10.554   7.681
 2068POPC   NC329735  35.160   4.515   9.783
 2068POPC   PO429736  34.582   4.290   9.421
 2068POPC   GL129737  34.563   4.163   9.031
 2068POPC   GL229738  34.932   4.225   9.002
 2068POPC   C1A29739  34.423   4.411   8.703
 2068POPC   D2A29740  34.657   4.663   8.397
 2068POPC   C3A29741  34.540   4.499   8.002
 2068POPC   C4A29742  34.297   4.569   7.643
 2068POPC   C1B29743  34.885   4.244   8.588
 2068POPC   C2B29744  34.578   4.064   8.341
 2068POPC   C3B29745  34.793   4.045   7.975
 2068POPC   C4B29746  34.870   4.278   7.626
 2069POPC   NC329747  14.953  26.234   9.607
 2069POPC   PO429748  14.734  25.723   9.716
 2069POPC   GL129749  15.004  25.849   9.269
 2069POPC   GL229750  15.167  26.156   9.148
 2069POPC   C1A29751  14.934  25.859   8.784
 2069POPC   D2A29752  15.225  25.853   8.426
 2069POPC   C3A29753  15.178  26.023   8.001
 2069POPC   C4A29754  15.155  25.806   7.598
 2069POPC   C1B29755  15.198  26.284   8.715
 2069POPC   C2B29756  15.450  26.302   8.357
 2069POPC   C3B29757  15.491  26.439   7.975
 2069POPC   C4B29758  15.430  26.282   7.595
 2070POPC   NC329759   2.475  29.587   9.319
 2070POPC   PO429760   2.817  29.943   9.731
 2070POPC   GL129761   2.646  30.043   9.236
 2070POPC   GL229762   2.966  29.874   8.937
 2070POPC   C1A29763   2.520  29.997   8.815
 2070POPC   D2A29764   2.806  29.978   8.465
 2070POPC   C3A29765   2.650  29.955   8.077
 2070POPC   C4A29766   2.758  29.859   7.672
 2070POPC   C1B29767   2.764  29.520   8.733
 2070POPC   C2B29768   2.495  29.546   8.451
 2070POPC   C3B29769   2.449  29.489   8.052
 2070POPC   C4B29770   2.495  29.425   7.618
 2071POPC   NC329771   0.659   1.522   9.536
 2071POPC   PO429772   0.206   1.100   9.468
 2071POPC   GL129773   0.466   1.223   9.131
 2071POPC   GL229774   0.279   1.499   9.126
 2071POPC   C1A29775   0.693   1.111   8.744
 2071POPC   D2A29776   0.493   1.098   8.359
 2071POPC   C3A29777   0.738   1.049   8.048
 2071POPC   C4A29778   0.506   1.166   7.709
 2071POPC   C1B29779   0.286   1.424   8.685
 2071POPC   C2B29780   0.083   1.463   8.309
 2071POPC   C3B29781   0.079   1.313   7.909
 2071POPC   C4B29782   0.104   1.256   7.414
 2072POPC   NC329783  37.961   5.860   9.552
 2072POPC   PO429784  37.377   5.528   9.602
 2072POPC   GL129785  37.584   5.744   9.227
 2072POPC   GL229786  37.754   6.099   9.131
 2072POPC   C1A29787  37.640   5.748   8.802
 2072POPC   D2A29788  37.532   5.574   8.469
 2072POPC   C3A29789  37.800   5.700   8.187
 2072POPC   C4A29790  37.672   5.741   7.792
 2072POPC   C1B29791  37.534   6.257   8.751
 2072POPC   C2B29792  37.526   6.119   8.317
 2072POPC   C3B29793  37.809   6.194   7.995
 2072POPC   C4B29794  37.788   6.215   7.511
 2073POPC   NC329795  30.872  17.757   9.403
 2073POPC   PO429796  30.684  17.091   9.452
 2073POPC   GL129797  30.606  17.339   9.072
 2073POPC   GL229798  30.872  17.574   8.934
 2073POPC   C1A29799  30.481  17.273   8.634
 2073POPC   D2A29800  30.148  17.355   8.291
 2073POPC   C3A29801  30.336  17.284   7.867
 2073POPC   C4A29802  30.714  17.549   7.790
 2073POPC   C1B29803  31.050  17.166   8.846
 2073POPC   C2B29804  30.927  17.009   8.459
 2073POPC   C3B29805  30.848  17.050   8.018
 2073POPC   C4B29806  31.090  17.087   7.647
 2074POPC   NC329807  17.988  10.467   9.584
 2074POPC   PO429808  17.399  10.686   9.698
 2074POPC   GL129809  17.357  10.390   9.331
 2074POPC   GL229810  17.641  10.506   9.192
 2074POPC   C1A29811  17.298  10.339   8.840
 2074POPC   D2A29812  17.162  10.441   8.375
 2074POPC   C3A29813  17.446  10.424   8.005
 2074POPC   C4A29814  17.462  10.594   7.552
 2074POPC   C1B29815  17.828  10.390   8.815
 2074POPC   C2B29816  17.742  10.488   8.439
 2074POPC   C3B29817  17.946  10.436   8.091
 2074POPC   C4B29818  17.881  10.342   7.702
 2075POPC   NC329819  25.802  31.514   9.455
 2075POPC   PO429820  26.522  31.287   9.457
 2075POPC   GL129821  26.256  31.582   9.209
 2075POPC   GL229822  26.064  31.315   9.041
 2075POPC   C1A29823  25.997  31.794   8.857
 2075POPC   D2A29824  26.082  31.638   8.444
 2075POPC   C3A29825  25.889  31.692   8.068
 2075POPC   C4A29826  26.015  31.562   7.691
 2075POPC   C1B29827  25.724  31.364   8.730
 2075POPC   C2B29828  25.645  31.300   8.307
 2075POPC   C3B29829  25.662  30.993   8.021
 2075POPC   C4B29830  25.920  31.052   7.698
 2076POPC   NC329831  31.004  21.612   9.596
 2076POPC   PO429832  31.661  21.336   9.541
 2076POPC   GL129833  31.496  21.441   9.189
 2076POPC   GL229834  31.167  21.250   9.192
 2076POPC   C1A29835  31.721  21.538   8.808
 2076POPC   D2A29836  31.921  21.542   8.381
 2076POPC   C3A29837  31.717  21.507   8.005
 2076POPC   C4A29838  31.768  21.167   7.740
 2076POPC   C1B29839  31.405  21.117   8.816
 2076POPC   C2B29840  31.458  21.235   8.400
 2076POPC   C3B29841  31.317  21.105   7.990
 2076POPC   C4B29842  31.266  21.204   7.542
 2077POPC   NC329843  33.589  38.793   9.445
 2077POPC   PO429844  33.815  38.125   9.573
 2077POPC   GL129845  33.775  38.373   9.216
 2077POPC   GL229846  33.511  38.236   9.011
 2077POPC   C1A29847  34.013  38.492   8.852
 2077POPC   D2A29848  34.152  38.377   8.425
 2077POPC   C3A29849  33.842  38.301   8.114
 2077POPC   C4A29850  33.780  38.352   7.687
 2077POPC   C1B29851  33.541  38.429   8.589
 2077POPC   C2B29852  33.474  38.639   8.166
 2077POPC   C3B29853  33.667  38.839   7.791
 2077POPC   C4B29854  33.637  39.164   7.436
 2078POPC   NC329855  22.772  29.935   9.495
 2078POPC   PO429856  23.367  29.811   9.435
 2078POPC   GL129857  23.111  29.878   9.065
 2078POPC   GL229858  22.915  30.159   9.046
 2078POPC   C1A29859  22.923  29.941   8.610
 2078POPC   D2A29860  22.735  30.162   8.260
 2078POPC   C3A29861  22.891  29.913   7.944
 2078POPC   C4A29862  23.318  29.931   7.795
 2078POPC   C1B29863  23.298  30.257   8.771
 2078POPC   C2B29864  23.277  30.320   8.292
 2078POPC   C3B29865  23.018  30.414   7.909
 2078POPC   C4B29866  22.616  30.282   7.720
 2079POPC   NC329867  15.156   9.775   9.464
 2079POPC   PO429868  15.534   9.253   9.533
 2079POPC   GL129869  15.587   9.546   9.194
 2079POPC   GL229870  15.577   9.922   9.163
 2079POPC   C1A29871  15.400   9.570   8.791
 2079POPC   D2A29872  15.096   9.642   8.450
 2079POPC   C3A29873  15.308   9.734   8.048
 2079POPC   C4A29874  15.192   9.677   7.588
 2079POPC   C1B29875  15.247  10.064   8.855
 2079POPC   C2B29876  15.006  10.147   8.489
 2079POPC   C3B29877  15.031  10.160   8.048
 2079POPC   C4B29878  15.289  10.161   7.672
 2080POPC   NC329879  38.061  20.899   9.505
 2080POPC   PO429880  37.945  20.232   9.411
 2080POPC   GL129881  38.016  20.364   8.988
 2080POPC   GL229882  38.239  20.617   9.108
 2080POPC   C1A29883  38.172  20.609   8.599
 2080POPC   D2A29884  38.189  20.896   8.234
 2080POPC   C3A29885  38.236  20.629   7.884
 2080POPC   C4A29886  38.612  20.412   7.733
 2080POPC   C1B29887  38.363  21.002   8.880
 2080POPC   C2B29888  38.613  20.971   8.520
 2080POPC   C3B29889  38.668  21.005   8.092
 2080POPC   C4B29890  38.741  21.376   7.863
 2081POPC   NC329891  35.258   0.900   9.448
 2081POPC   PO429892  35.443   0.196   9.519
 2081POPC   GL129893  35.260   0.260   9.136
 2081POPC   GL229894  35.003   0.543   9.040
 2081POPC   C1A29895  35.439   0.464   8.803
 2081POPC   D2A29896  35.271   0.431   8.429
 2081POPC   C3A29897  35.519   0.505   8.075
 2081POPC   C4A29898  35.302   0.313   7.739
 2081POPC   C1B29899  35.096   0.855   8.696
 2081POPC   C2B29900  35.198   0.886   8.228
 2081POPC   C3B29901  34.942   0.725   7.842
 2081POPC   C4B29902  34.954   0.825   7.382
 2082POPC   NC329903  20.543  15.626   9.675
 2082POPC   PO429904  20.515  14.983   9.499
 2082POPC   GL129905  20.617  15.148   9.069
 2082POPC   GL229906  20.889  14.965   8.948
 2082POPC   C1A29907  20.676  15.314   8.622
 2082POPC   D2A29908  20.275  15.302   8.358
 2082POPC   C3A29909  20.277  15.163   7.921
 2082POPC   C4A29910  20.399  15.330   7.556
 2082POPC   C1B29911  20.530  14.848   8.656
 2082POPC   C2B29912  20.546  14.878   8.227
 2082POPC   C3B29913  20.746  14.964   7.807
 2082POPC   C4B29914  21.193  14.971   7.646
 2083POPC   NC329915  40.021  37.507   9.557
 2083POPC   PO429916  39.625  38.054   9.516
 2083POPC   GL129917  39.910  37.829   9.173
 2083POPC   GL229918  39.897  37.426   9.076
 2083POPC   C1A29919  40.061  37.809   8.737
 2083POPC   D2A29920  40.274  37.666   8.332
 2083POPC   C3A29921  40.152  37.840   7.927
 2083POPC   C4A29922  40.397  38.041   7.603
 2083POPC   C1B29923  39.647  37.514   8.716
 2083POPC   C2B29924  39.771  37.657   8.326
 2083POPC   C3B29925  39.708  37.583   7.907
 2083POPC   C4B29926  39.576  37.508   7.468
 2084POPC   NC329927  32.204   2.594   9.546
 2084POPC   PO429928  32.208   3.248   9.731
 2084POPC   GL129929  32.202   3.037   9.244
 2084POPC   GL229930  32.123   2.676   9.065
 2084POPC   C1A29931  32.142   3.076   8.765
 2084POPC   D2A29932  31.977   2.778   8.487
 2084POPC   C3A29933  32.017   3.001   8.124
 2084POPC   C4A29934  32.246   2.908   7.789
 2084POPC   C1B29935  32.394   2.513   8.737
 2084POPC   C2B29936  32.688   2.425   8.412
 2084POPC   C3B29937  32.576   2.580   8.047
 2084POPC   C4B29938  32.483   2.482   7.653
 2085POPC   NC329939  19.014   7.913   9.498
 2085POPC   PO429940  19.369   8.456   9.564
 2085POPC   GL129941  19.048   8.377   9.207
 2085POPC   GL229942  19.144   8.067   9.034
 2085POPC   C1A29943  18.807   8.340   8.772
 2085POPC   D2A29944  18.946   8.472   8.334
 2085POPC   C3A29945  18.824   8.475   7.831
 2085POPC   C4A29946  19.125   8.188   7.549
 2085POPC   C1B29947  18.815   7.839   8.850
 2085POPC   C2B29948  18.730   7.929   8.424
 2085POPC   C3B29949  18.878   8.052   8.054
 2085POPC   C4B29950  18.661   8.021   7.616
 2086POPC   NC329951  44.886   9.499   9.471
 2086POPC   PO429952  44.259   9.393   9.411
 2086POPC   GL129953  44.511   9.529   9.105
 2086POPC   GL229954  44.613   9.868   9.183
 2086POPC   C1A29955  44.819   9.536   8.822
 2086POPC   D2A29956  44.925   9.741   8.443
 2086POPC   C3A29957  44.838   9.594   8.057
 2086POPC   C4A29958  44.710   9.439   7.674
 2086POPC   C1B29959  44.520   9.919   8.728
 2086POPC   C2B29960  44.410   9.753   8.300
 2086POPC   C3B29961  44.428   9.818   7.839
 2086POPC   C4B29962  44.412  10.004   7.375
 2087POPC   NC329963  31.643  15.828   9.465
 2087POPC   PO429964  31.181  16.330   9.617
 2087POPC   GL129965  31.289  16.059   9.172
 2087POPC   GL229966  31.559  16.170   9.028
 2087POPC   C1A29967  31.486  15.768   8.755
 2087POPC   D2A29968  31.303  15.579   8.381
 2087POPC   C3A29969  31.341  15.798   7.991
 2087POPC   C4A29970  31.567  15.743   7.619
 2087POPC   C1B29971  31.452  16.255   8.600
 2087POPC   C2B29972  31.466  16.340   8.168
 2087POPC   C3B29973  31.679  16.200   7.820
 2087POPC   C4B29974  31.871  16.094   7.412
 2088POPC   NC329975  31.490  12.918   9.947
 2088POPC   PO429976  31.647  12.449   9.432
 2088POPC   GL129977  31.619  12.817   9.175
 2088POPC   GL229978  31.723  13.149   9.328
 2088POPC   C1A29979  31.432  12.798   8.758
 2088POPC   D2A29980  31.469  12.640   8.334
 2088POPC   C3A29981  31.250  12.763   7.987
 2088POPC   C4A29982  31.594  12.642   7.765
 2088POPC   C1B29983  31.663  13.243   8.864
 2088POPC   C2B29984  31.713  13.087   8.430
 2088POPC   C3B29985  31.579  13.206   8.003
 2088POPC   C4B29986  31.222  13.233   7.704
 2089POPC   NC329987  23.844  24.176   9.431
 2089POPC   PO429988  23.524  24.805   9.433
 2089POPC   GL129989  23.760  24.653   9.111
 2089POPC   GL229990  24.092  24.615   9.186
 2089POPC   C1A29991  23.614  24.428   8.757
 2089POPC   D2A29992  23.645  24.635   8.382
 2089POPC   C3A29993  23.886  24.564   8.052
 2089POPC   C4A29994  23.655  24.375   7.767
 2089POPC   C1B29995  24.097  24.302   8.842
 2089POPC   C2B29996  24.126  24.238   8.411
 2089POPC   C3B29997  24.013  24.068   8.031
 2089POPC   C4B29998  24.103  24.130   7.641
 2090POPC   NC329999  27.109  20.363   9.318
 2090POPC   PO430000  27.677  20.849   9.463
 2090POPC   GL130001  27.514  20.667   9.130
 2090POPC   GL230002  27.237  20.836   9.175
 2090POPC   C1A30003  27.599  20.403   8.767
 2090POPC   D2A30004  27.559  20.580   8.372
 2090POPC   C3A30005  27.548  20.422   7.995
 2090POPC   C4A30006  27.281  20.541   7.661
 2090POPC   C1B30007  27.205  20.768   8.741
 2090POPC   C2B30008  27.166  20.914   8.330
 2090POPC   C3B30009  27.429  20.923   7.972
 2090POPC   C4B30010  27.237  21.062   7.598
 2091POPC   NC330011  28.609  33.629   9.747
 2091POPC   PO430012  28.176  33.115   9.492
 2091POPC   GL130013  28.359  32.915   9.119
 2091POPC   GL230014  28.630  32.646   9.206
 2091POPC   C1A30015  28.314  33.071   8.704
 2091POPC   D2A30016  28.365  33.358   8.365
 2091POPC   C3A30017  28.389  33.133   7.981
 2091POPC   C4A30018  28.056  33.090   7.691
 2091POPC   C1B30019  28.619  32.655   8.752
 2091POPC   C2B30020  28.725  32.870   8.343
 2091POPC   C3B30021  28.696  32.672   7.924
 2091POPC   C4B30022  28.497  32.753   7.551
 2092POPC   NC330023  41.447  39.404   9.587
 2092POPC   PO430024  41.315  38.775   9.323
 2092POPC   GL130025  41.375  39.002   9.005
 2092POPC   GL230026  41.630  39.166   9.164
 2092POPC   C1A30027  41.423  39.379   8.751
 2092POPC   D2A30028  41.234  39.485   8.403
 2092POPC   C3A30029  41.452  39.405   8.058
 2092POPC   C4A30030  41.786  39.538   7.868
 2092POPC   C1B30031  41.831  39.067   8.787
 2092POPC   C2B30032  41.861  39.263   8.408
 2092POPC   C3B30033  41.823  39.060   8.053
 2092POPC   C4B30034  41.715  38.971   7.686
 2093POPC   NC330035   7.676  30.190   9.449
 2093POPC   PO430036   7.073  29.997   9.537
 2093POPC   GL130037   7.291  29.822   9.184
 2093POPC   GL230038   7.626  29.753   9.188
 2093POPC   C1A30039   7.253  29.978   8.767
 2093POPC   D2A30040   7.388  29.812   8.378
 2093POPC   C3A30041   7.479  30.007   8.006
 2093POPC   C4A30042   7.213  29.934   7.695
 2093POPC   C1B30043   7.822  29.934   8.845
 2093POPC   C2B30044   7.809  30.105   8.461
 2093POPC   C3B30045   7.975  30.099   8.090
 2093POPC   C4B30046   7.895  29.990   7.680
 2094POPC   NC330047  28.921  34.340   9.453
 2094POPC   PO430048  29.492  34.723   9.477
 2094POPC   GL130049  29.291  34.604   9.141
 2094POPC   GL230050  28.982  34.742   9.141
 2094POPC   C1A30051  29.260  34.620   8.717
 2094POPC   D2A30052  29.464  34.389   8.463
 2094POPC   C3A30053  29.248  34.506   8.122
 2094POPC   C4A30054  29.390  34.545   7.722
 2094POPC   C1B30055  28.798  34.486   8.837
 2094POPC   C2B30056  28.768  34.518   8.429
 2094POPC   C3B30057  28.713  34.246   8.078
 2094POPC   C4B30058  28.893  34.482   7.752
 2095POPC   NC330059  33.758  23.477   9.519
 2095POPC   PO430060  33.592  24.143   9.733
 2095POPC   GL130061  33.883  24.075   9.303
 2095POPC   GL230062  33.980  23.742   9.135
 2095POPC   C1A30063  33.943  24.112   8.790
 2095POPC   D2A30064  34.082  23.933   8.349
 2095POPC   C3A30065  33.776  23.964   7.957
 2095POPC   C4A30066  33.632  23.955   7.510
 2095POPC   C1B30067  34.087  23.494   8.765
 2095POPC   C2B30068  34.112  23.348   8.322
 2095POPC   C3B30069  33.869  23.453   7.987
 2095POPC   C4B30070  33.880  23.496   7.510
 2096POPC   NC330071   7.496  12.433   9.363
 2096POPC   PO430072   6.970  12.053   9.389
 2096POPC   GL130073   7.202  12.161   9.026
 2096POPC   GL230074   7.067  12.480   9.074
 2096POPC   C1A30075   7.520  12.045   8.699
 2096POPC   D2A30076   7.698  11.801   8.389
 2096POPC   C3A30077   7.564  12.002   8.046
 2096POPC   C4A30078   7.391  11.760   7.734
 2096POPC   C1B30079   7.025  12.453   8.639
 2096POPC   C2B30080   7.080  12.126   8.325
 2096POPC   C3B30081   7.065  12.153   7.878
 2096POPC   C4B30082   6.790  12.252   7.497
 2097POPC   NC330083  18.595  10.157   9.468
 2097POPC   PO430084  18.687  10.865   9.413
 2097POPC   GL130085  18.423  10.577   9.237
 2097POPC   GL230086  18.117  10.674   9.108
 2097POPC   C1A30087  18.480  10.505   8.830
 2097POPC   D2A30088  18.247  10.537   8.493
 2097POPC   C3A30089  18.458  10.333   8.184
 2097POPC   C4A30090  18.404  10.384   7.753
 2097POPC   C1B30091  17.877  10.893   8.769
 2097POPC   C2B30092  17.985  10.972   8.340
 2097POPC   C3B30093  18.246  10.820   7.993
 2097POPC   C4B30094  18.093  10.801   7.549
 2098POPC   NC330095  35.968   6.462   9.326
 2098POPC   PO430096  36.509   6.916   9.294
 2098POPC   GL130097  36.308   6.676   8.976
 2098POPC   GL230098  36.342   6.319   8.994
 2098POPC   C1A30099  35.991   6.557   8.667
 2098POPC   D2A30100  35.804   6.715   8.272
 2098POPC   C3A30101  35.992   6.564   7.884
 2098POPC   C4A30102  35.954   6.689   7.441
 2098POPC   C1B30103  36.519   6.395   8.576
 2098POPC   C2B30104  36.474   6.518   8.128
 2098POPC   C3B30105  36.498   6.287   7.725
 2098POPC   C4B30106  36.404   6.334   7.273
 2099POPC   NC330107  37.248  28.413   9.518
 2099POPC   PO430108  36.592  28.375   9.710
 2099POPC   GL130109  36.676  28.312   9.211
 2099POPC   GL230110  36.973  28.143   9.170
 2099POPC   C1A30111  36.916  28.501   8.773
 2099POPC   D2A30112  37.136  28.425   8.374
 2099POPC   C3A30113  37.130  28.704   8.023
 2099POPC   C4A30114  36.805  28.590   7.741
 2099POPC   C1B30115  37.149  28.055   8.763
 2099POPC   C2B30116  37.152  27.895   8.396
 2099POPC   C3B30117  36.824  27.915   8.129
 2099POPC   C4B30118  36.944  28.082   7.744
 2100POPC   NC330119  42.879  34.060   9.531
 2100POPC   PO430120  43.198  33.420   9.526
 2100POPC   GL130121  43.180  33.770   9.199
 2100POPC   GL230122  43.473  33.623   9.131
 2100POPC   C1A30123  43.008  33.878   8.744
 2100POPC   D2A30124  42.844  34.009   8.312
 2100POPC   C3A30125  43.011  33.810   7.952
 2100POPC   C4A30126  43.293  33.909   7.597
 2100POPC   C1B30127  43.494  33.777   8.724
 2100POPC   C2B30128  43.347  33.820   8.334
 2100POPC   C3B30129  43.439  33.565   7.974
 2100POPC   C4B30130  43.760  33.725   7.765
 2101POPC   NC330131   9.331  20.913   9.532
 2101POPC   PO430132   8.687  20.893   9.712
 2101POPC   GL130133   8.897  20.658   9.307
 2101POPC   GL230134   9.130  20.842   9.085
 2101POPC   C1A30135   8.871  20.458   8.864
 2101POPC   D2A30136   8.945  20.206   8.502
 2101POPC   C3A30137   8.865  20.490   8.146
 2101POPC   C4A30138   8.843  20.571   7.705
 2101POPC   C1B30139   9.183  20.827   8.667
 2101POPC   C2B30140   9.364  21.044   8.341
 2101POPC   C3B30141   9.464  20.924   7.935
 2101POPC   C4B30142   9.317  20.854   7.518
 2102POPC   NC330143   9.890  22.443   9.557
 2102POPC   PO430144   9.362  22.012   9.671
 2102POPC   GL130145   9.683  22.084   9.270
 2102POPC   GL230146  10.040  22.243   9.137
 2102POPC   C1A30147   9.752  21.964   8.838
 2102POPC   D2A30148   9.524  22.161   8.497
 2102POPC   C3A30149   9.692  22.216   8.078
 2102POPC   C4A30150   9.561  22.384   7.736
 2102POPC   C1B30151  10.069  22.340   8.722
 2102POPC   C2B30152  10.050  22.073   8.394
 2102POPC   C3B30153  10.197  22.295   8.027
 2102POPC   C4B30154  10.079  22.398   7.640
 2103POPC   NC330155  17.703  24.847   9.846
 2103POPC   PO430156  18.060  24.491   9.627
 2103POPC   GL130157  17.850  24.456   9.165
 2103POPC   GL230158  17.915  24.182   8.902
 2103POPC   C1A30159  17.517  24.575   8.818
 2103POPC   D2A30160  17.457  24.765   8.375
 2103POPC   C3A30161  17.264  24.587   7.979
 2103POPC   C4A30162  17.372  24.246   7.686
 2103POPC   C1B30163  17.913  24.456   8.521
 2103POPC   C2B30164  18.174  24.639   8.184
 2103POPC   C3B30165  18.137  24.650   7.742
 2103POPC   C4B30166  17.819  24.415   7.498
 2104POPC   NC330167  21.118   2.493   9.365
 2104POPC   PO430168  21.528   2.979   9.420
 2104POPC   GL130169  21.387   2.818   9.062
 2104POPC   GL230170  21.754   2.841   8.990
 2104POPC   C1A30171  21.110   2.755   8.683
 2104POPC   D2A30172  21.321   2.750   8.264
 2104POPC   C3A30173  21.182   2.799   7.864
 2104POPC   C4A30174  21.096   2.480   7.525
 2104POPC   C1B30175  21.615   2.945   8.628
 2104POPC   C2B30176  21.805   2.673   8.370
 2104POPC   C3B30177  21.933   2.860   8.055
 2104POPC   C4B30178  21.632   3.052   7.827
 2105POPC   NC330179   8.436   1.824   9.483
 2105POPC   PO430180   7.808   1.937   9.574
 2105POPC   GL130181   8.036   1.995   9.184
 2105POPC   GL230182   8.350   2.230   9.149
 2105POPC   C1A30183   8.042   2.114   8.751
 2105POPC   D2A30184   8.158   2.262   8.341
 2105POPC   C3A30185   7.953   2.131   7.994
 2105POPC   C4A30186   8.118   1.725   7.954
 2105POPC   C1B30187   8.519   1.912   8.815
 2105POPC   C2B30188   8.680   1.760   8.403
 2105POPC   C3B30189   8.606   1.946   7.998
 2105POPC   C4B30190   8.400   2.301   7.793
 2106POPC   NC330191  34.113   8.416   9.621
 2106POPC   PO430192  33.631   7.901   9.652
 2106POPC   GL130193  33.922   8.084   9.258
 2106POPC   GL230194  34.016   8.391   9.122
 2106POPC   C1A30195  33.902   8.000   8.797
 2106POPC   D2A30196  33.788   7.811   8.417
 2106POPC   C3A30197  33.842   8.056   8.069
 2106POPC   C4A30198  33.866   8.039   7.632
 2106POPC   C1B30199  33.759   8.489   8.790
 2106POPC   C2B30200  33.932   8.436   8.423
 2106POPC   C3B30201  33.903   8.660   8.074
 2106POPC   C4B30202  33.970   8.531   7.708
 2107POPC   NC330203  33.468  43.875   9.699
 2107POPC   PO430204  33.961  43.720   9.214
 2107POPC   GL130205  34.036  44.098   9.023
 2107POPC   GL230206  33.668  44.098   9.067
 2107POPC   C1A30207  34.127  44.179   8.601
 2107POPC   D2A30208  34.131  43.835   8.318
 2107POPC   C3A30209  33.865  43.848   7.968
 2107POPC   C4A30210  34.066  44.124   7.700
 2107POPC   C1B30211  33.667  43.925   8.644
 2107POPC   C2B30212  33.417  43.890   8.281
 2107POPC   C3B30213  33.345  43.896   7.873
 2107POPC   C4B30214  33.558  44.236   7.747
 2108POPC   NC330215   4.795   4.536   9.872
 2108POPC   PO430216   5.318   4.463   9.503
 2108POPC   GL130217   5.015   4.158   9.307
 2108POPC   GL230218   5.174   3.849   9.197
 2108POPC   C1A30219   4.844   4.175   8.883
 2108POPC   D2A30220   4.688   4.249   8.474
 2108POPC   C3A30221   4.936   4.464   8.182
 2108POPC   C4A30222   4.986   4.408   7.734
 2108POPC   C1B30223   5.361   4.156   8.898
 2108POPC   C2B30224   5.239   4.136   8.460
 2108POPC   C3B30225   5.391   4.210   8.024
 2108POPC   C4B30226   5.326   3.981   7.629
 2109POPC   NC330227  41.140  23.362   9.562
 2109POPC   PO430228  40.720  22.746   9.469
 2109POPC   GL130229  40.955  22.995   9.174
 2109POPC   GL230230  41.290  22.828   9.133
 2109POPC   C1A30231  40.761  23.079   8.770
 2109POPC   D2A30232  40.533  23.101   8.384
 2109POPC   C3A30233  40.669  23.074   7.938
 2109POPC   C4A30234  40.405  23.124   7.549
 2109POPC   C1B30235  41.124  22.731   8.707
 2109POPC   C2B30236  40.994  22.846   8.282
 2109POPC   C3B30237  41.048  22.685   7.845
 2109POPC   C4B30238  40.980  22.524   7.387
 2110POPC   NC330239  33.352  37.122   9.666
 2110POPC   PO430240  32.876  36.885   9.308
 2110POPC   GL130241  33.095  36.944   8.970
 2110POPC   GL230242  33.279  37.236   9.123
 2110POPC   C1A30243  32.861  36.834   8.598
 2110POPC   D2A30244  32.567  36.730   8.257
 2110POPC   C3A30245  32.770  36.778   7.865
 2110POPC   C4A30246  33.232  36.737   7.854
 2110POPC   C1B30247  33.210  37.338   8.682
 2110POPC   C2B30248  33.215  37.078   8.302
 2110POPC   C3B30249  33.050  37.210   7.922
 2110POPC   C4B30250  33.244  37.541   7.823
 2111POPC   NC330251  11.364   1.007   9.391
 2111POPC   PO430252  11.045   0.527   9.769
 2111POPC   GL130253  11.054   0.523   9.293
 2111POPC   GL230254  11.025   0.830   9.057
 2111POPC   C1A30255  11.078   0.389   8.834
 2111POPC   D2A30256  11.137   0.637   8.460
 2111POPC   C3A30257  11.323   0.361   8.146
 2111POPC   C4A30258  11.228   0.296   7.732
 2111POPC   C1B30259  11.426   0.925   8.774
 2111POPC   C2B30260  11.595   0.908   8.370
 2111POPC   C3B30261  11.339   0.861   8.015
 2111POPC   C4B30262  11.357   0.744   7.581
 2112POPC   NC330263   7.483   9.079   9.782
 2112POPC   PO430264   6.993   8.778   9.424
 2112POPC   GL130265   7.289   9.167   9.263
 2112POPC   GL230266   7.652   9.260   9.143
 2112POPC   C1A30267   7.261   9.133   8.806
 2112POPC   D2A30268   7.064   9.147   8.424
 2112POPC   C3A30269   7.176   8.831   8.115
 2112POPC   C4A30270   7.217   8.944   7.709
 2112POPC   C1B30271   7.766   9.031   8.783
 2112POPC   C2B30272   7.574   8.921   8.421
 2112POPC   C3B30273   7.636   9.032   8.016
 2112POPC   C4B30274   7.664   8.720   7.720
 2113POPC   NC330275   1.024  22.956   9.865
 2113POPC   PO430276   1.362  23.134   9.354
 2113POPC   GL130277   1.285  23.026   8.994
 2113POPC   GL230278   1.484  22.759   9.001
 2113POPC   C1A30279   1.259  23.037   8.580
 2113POPC   D2A30280   1.239  23.257   8.253
 2113POPC   C3A30281   1.224  22.894   8.004
 2113POPC   C4A30282   1.560  22.725   7.773
 2113POPC   C1B30283   1.085  22.600   8.754
 2113POPC   C2B30284   0.950  22.595   8.377
 2113POPC   C3B30285   0.754  22.412   8.085
 2113POPC   C4B30286   0.843  22.566   7.722
 2114POPC   NC330287   5.456  10.497   9.436
 2114POPC   PO430288   6.029  10.605   9.779
 2114POPC   GL130289   5.951  10.469   9.264
 2114POPC   GL230290   5.672  10.451   9.007
 2114POPC   C1A30291   6.069  10.554   8.754
 2114POPC   D2A30292   6.243  10.621   8.326
 2114POPC   C3A30293   6.097  10.447   7.929
 2114POPC   C4A30294   6.013  10.659   7.517
 2114POPC   C1B30295   5.605  10.291   8.620
 2114POPC   C2B30296   5.666  10.333   8.177
 2114POPC   C3B30297   5.585  10.500   7.777
 2114POPC   C4B30298   5.568  10.439   7.323
 2115POPC   NC330299  37.216  43.132   9.352
 2115POPC   PO430300  36.631  43.280   9.555
 2115POPC   GL130301  36.707  43.183   9.156
 2115POPC   GL230302  36.583  42.847   9.102
 2115POPC   C1A30303  36.930  43.285   8.795
 2115POPC   D2A30304  36.999  43.498   8.473
 2115POPC   C3A30305  37.224  43.275   8.192
 2115POPC   C4A30306  37.107  43.166   7.788
 2115POPC   C1B30307  36.576  42.968   8.688
 2115POPC   C2B30308  36.801  43.022   8.286
 2115POPC   C3B30309  36.643  42.940   7.859
 2115POPC   C4B30310  36.524  42.882   7.421
 2116POPC   NC330311  36.532   6.476   9.428
 2116POPC   PO430312  37.026   6.735   9.648
 2116POPC   GL130313  37.027   6.586   9.200
 2116POPC   GL230314  36.830   6.774   8.946
 2116POPC   C1A30315  36.996   6.323   8.813
 2116POPC   D2A30316  37.021   6.285   8.341
 2116POPC   C3A30317  36.958   6.433   7.911
 2116POPC   C4A30318  36.845   6.547   7.467
 2116POPC   C1B30319  36.779   7.125   8.657
 2116POPC   C2B30320  36.702   7.089   8.197
 2116POPC   C3B30321  36.909   6.925   7.846
 2116POPC   C4B30322  37.236   6.859   7.555
 2117POPC   NC330323  44.418  40.291   9.338
 2117POPC   PO430324  44.652  39.737   9.782
 2117POPC   GL130325  44.732  39.936   9.226
 2117POPC   GL230326   0.074  40.076   9.206
 2117POPC   C1A30327  44.525  39.994   8.747
 2117POPC   D2A30328  44.314  40.015   8.288
 2117POPC   C3A30329  44.488  40.042   7.900
 2117POPC   C4A30330  44.871  39.929   7.793
 2117POPC   C1B30331   0.007  40.170   8.759
 2117POPC   C2B30332  44.802  40.218   8.330
 2117POPC   C3B30333  44.840  40.435   7.930
 2117POPC   C4B30334  44.987  40.342   7.504
 2118POPC   NC330335  21.820  27.948   9.482
 2118POPC   PO430336  22.373  27.545   9.460
 2118POPC   GL130337  22.190  27.437   9.066
 2118POPC   GL230338  21.897  27.633   9.071
 2118POPC   C1A30339  22.357  27.553   8.657
 2118POPC   D2A30340  22.152  27.491   8.248
 2118POPC   C3A30341  22.296  27.702   7.869
 2118POPC   C4A30342  22.375  27.617   7.451
 2118POPC   C1B30343  21.929  27.826   8.645
 2118POPC   C2B30344  21.918  27.941   8.185
 2118POPC   C3B30345  21.778  27.672   7.842
 2118POPC   C4B30346  21.510  27.383   7.573
 2119POPC   NC330347  31.110   4.177   9.527
 2119POPC   PO430348  30.465   4.412   9.429
 2119POPC   GL130349  30.752   4.280   9.154
 2119POPC   GL230350  30.955   4.552   9.206
 2119POPC   C1A30351  30.621   4.181   8.751
 2119POPC   D2A30352  30.319   4.231   8.417
 2119POPC   C3A30353  30.538   4.186   8.038
 2119POPC   C4A30354  30.823   4.123   7.720
 2119POPC   C1B30355  30.964   4.567   8.771
 2119POPC   C2B30356  30.859   4.430   8.353
 2119POPC   C3B30357  30.947   4.558   7.943
 2119POPC   C4B30358  30.905   4.550   7.463
 2120POPC   NC330359  40.178   0.520   9.461
 2120POPC   PO430360  40.646  44.977   9.549
 2120POPC   GL130361  40.439   0.061   9.113
 2120POPC   GL230362  40.074   0.130   9.157
 2120POPC   C1A30363  40.267   0.412   8.787
 2120POPC   D2A30364  39.943   0.551   8.499
 2120POPC   C3A30365  40.061   0.490   8.109
 2120POPC   C4A30366  39.954   0.401   7.724
 2120POPC   C1B30367  39.751   0.239   8.854
 2120POPC   C2B30368  39.529   0.212   8.469
 2120POPC   C3B30369  39.602   0.271   8.069
 2120POPC   C4B30370  39.720  44.950   7.780
 2121POPC   NC330371  13.755  20.443   9.474
 2121POPC   PO430372  13.231  20.909   9.396
 2121POPC   GL130373  13.589  20.791   9.091
 2121POPC   GL230374  13.936  20.593   9.034
 2121POPC   C1A30375  13.532  20.556   8.706
 2121POPC   D2A30376  13.670  20.421   8.301
 2121POPC   C3A30377  13.481  20.689   7.998
 2121POPC   C4A30378  13.664  20.982   7.696
 2121POPC   C1B30379  13.961  20.827   8.667
 2121POPC   C2B30380  14.000  20.817   8.233
 2121POPC   C3B30381  13.955  20.567   7.860
 2121POPC   C4B30382  13.642  20.342   7.643
 2122POPC   NC330383   9.127  38.056   9.471
 2122POPC   PO430384   8.897  37.421   9.681
 2122POPC   GL130385   8.857  37.368   9.247
 2122POPC   GL230386   8.927  37.687   9.176
 2122POPC   C1A30387   9.026  37.356   8.795
 2122POPC   D2A30388   8.826  37.389   8.384
 2122POPC   C3A30389   9.038  37.509   8.011
 2122POPC   C4A30390   9.203  37.528   7.610
 2122POPC   C1B30391   8.890  37.914   8.788
 2122POPC   C2B30392   8.981  37.910   8.346
 2122POPC   C3B30393   9.189  37.999   7.939
 2122POPC   C4B30394   9.092  38.013   7.490
 2123POPC   NC330395  14.173   2.320   9.432
 2123POPC   PO430396  13.669   2.857   9.546
 2123POPC   GL130397  13.547   2.723   9.168
 2123POPC   GL230398  13.672   2.410   9.257
 2123POPC   C1A30399  13.506   2.806   8.741
 2123POPC   D2A30400  13.249   2.905   8.395
 2123POPC   C3A30401  13.456   2.800   8.007
 2123POPC   C4A30402  13.448   2.822   7.566
 2123POPC   C1B30403  13.846   2.407   8.845
 2123POPC   C2B30404  13.705   2.416   8.419
 2123POPC   C3B30405  13.886   2.461   7.975
 2123POPC   C4B30406  13.958   2.700   7.575
 2124POPC   NC330407  43.462  28.858   9.569
 2124POPC   PO430408  42.874  29.120   9.498
 2124POPC   GL130409  43.198  29.109   9.188
 2124POPC   GL230410  43.268  28.758   9.102
 2124POPC   C1A30411  43.259  29.165   8.750
 2124POPC   D2A30412  43.087  29.125   8.320
 2124POPC   C3A30413  43.319  29.394   7.967
 2124POPC   C4A30414  43.474  29.230   7.532
 2124POPC   C1B30415  43.184  28.648   8.694
 2124POPC   C2B30416  43.183  28.564   8.266
 2124POPC   C3B30417  43.336  28.839   7.974
 2124POPC   C4B30418  43.044  29.019   7.769
 2125POPC   NC330419  44.511  19.153   9.719
 2125POPC   PO430420   0.216  19.317   9.744
 2125POPC   GL130421  44.859  19.285   9.350
 2125POPC   GL230422  44.538  19.046   9.238
 2125POPC   C1A30423  44.813  19.236   8.864
 2125POPC   D2A30424  44.926  18.953   8.495
 2125POPC   C3A30425  44.860  19.100   8.082
 2125POPC   C4A30426  44.783  18.915   7.703
 2125POPC   C1B30427  44.370  19.003   8.814
 2125POPC   C2B30428  44.438  19.134   8.378
 2125POPC   C3B30429  44.373  19.174   7.935
 2125POPC   C4B30430  44.328  18.987   7.516
 2126POPC   NC330431  41.344  24.217   9.432
 2126POPC   PO430432  41.543  24.843   9.323
 2126POPC   GL130433  41.554  24.563   9.056
 2126POPC   GL230434  41.198  24.522   9.028
 2126POPC   C1A30435  41.561  24.623   8.629
 2126POPC   D2A30436  41.791  24.412   8.298
 2126POPC   C3A30437  41.612  24.592   7.930
 2126POPC   C4A30438  41.726  24.722   7.542
 2126POPC   C1B30439  41.114  24.234   8.732
 2126POPC   C2B30440  41.281  24.318   8.337
 2126POPC   C3B30441  41.451  24.120   8.008
 2126POPC   C4B30442  41.327  24.208   7.576
 2127POPC   NC330443  18.181  30.450   9.442
 2127POPC   PO430444  18.559  30.925   9.711
 2127POPC   GL130445  18.453  30.926   9.206
 2127POPC   GL230446  18.117  30.802   9.073
 2127POPC   C1A30447  18.495  30.830   8.746
 2127POPC   D2A30448  18.222  30.879   8.431
 2127POPC   C3A30449  18.395  30.780   8.032
 2127POPC   C4A30450  18.311  30.952   7.616
 2127POPC   C1B30451  18.123  30.476   8.755
 2127POPC   C2B30452  18.258  30.375   8.333
 2127POPC   C3B30453  18.104  30.364   7.914
 2127POPC   C4B30454  18.206  30.117   7.527
 2128POPC   NC330455   7.335  18.200   9.420
 2128POPC   PO430456   7.773  18.777   9.512
 2128POPC   GL130457   7.707  18.470   9.171
 2128POPC   GL230458   7.350  18.515   9.004
 2128POPC   C1A30459   7.654  18.164   8.824
 2128POPC   D2A30460   7.478  18.161   8.412
 2128POPC   C3A30461   7.696  18.132   8.037
 2128POPC   C4A30462   7.674  18.399   7.722
 2128POPC   C1B30463   7.111  18.165   8.792
 2128POPC   C2B30464   6.975  18.181   8.364
 2128POPC   C3B30465   7.147  18.398   8.024
 2128POPC   C4B30466   7.263  18.108   7.762
 2129POPC   NC330467  34.916  25.586   9.384
 2129POPC   PO430468  34.422  25.162   9.462
 2129POPC   GL130469  34.652  25.182   9.118
 2129POPC   GL230470  34.757  24.874   8.947
 2129POPC   C1A30471  34.639  25.397   8.778
 2129POPC   D2A30472  34.536  25.474   8.378
 2129POPC   C3A30473  34.640  25.179   8.091
 2129POPC   C4A30474  34.732  25.369   7.739
 2129POPC   C1B30475  34.411  24.950   8.630
 2129POPC   C2B30476  34.189  25.039   8.251
 2129POPC   C3B30477  34.086  24.899   7.819
 2129POPC   C4B30478  34.219  24.860   7.359
 2130POPC   NC330479   7.958  19.181   9.349
 2130POPC   PO430480   8.598  18.882   9.476
 2130POPC   GL130481   8.418  19.125   9.099
 2130POPC   GL230482   8.089  19.025   8.906
 2130POPC   C1A30483   8.466  19.220   8.651
 2130POPC   D2A30484   8.156  19.035   8.341
 2130POPC   C3A30485   8.259  19.144   7.940
 2130POPC   C4A30486   8.625  19.419   7.914
 2130POPC   C1B30487   7.849  19.314   8.615
 2130POPC   C2B30488   7.810  19.357   8.147
 2130POPC   C3B30489   7.833  19.305   7.690
 2130POPC   C4B30490   7.897  19.280   7.245
 2131POPC   NC330491  40.632  42.542   9.567
 2131POPC   PO430492  41.149  42.090   9.622
 2131POPC   GL130493  40.892  42.159   9.217
 2131POPC   GL230494  40.544  42.345   9.113
 2131POPC   C1A30495  40.888  42.170   8.759
 2131POPC   D2A30496  40.627  42.129   8.404
 2131POPC   C3A30497  40.854  42.088   8.074
 2131POPC   C4A30498  41.057  42.310   7.771
 2131POPC   C1B30499  40.401  42.488   8.704
 2131POPC   C2B30500  40.259  42.465   8.273
 2131POPC   C3B30501  40.470  42.360   7.884
 2131POPC   C4B30502  40.501  41.956   7.711
 2132POPC   NC330503  12.792  25.714   9.672
 2132POPC   PO430504  12.437  25.091   9.537
 2132POPC   GL130505  12.679  25.254   9.122
 2132POPC   GL230506  12.996  25.401   9.016
 2132POPC   C1A30507  12.662  25.429   8.664
 2132POPC   D2A30508  12.932  25.415   8.319
 2132POPC   C3A30509  12.683  25.564   8.027
 2132POPC   C4A30510  12.778  25.276   7.781
 2132POPC   C1B30511  13.061  25.751   8.665
 2132POPC   C2B30512  13.035  25.932   8.262
 2132POPC   C3B30513  13.130  25.741   7.898
 2132POPC   C4B30514  12.964  25.656   7.487
 2133POPC   NC330515   6.006   2.373   9.571
 2133POPC   PO430516   6.114   3.030   9.564
 2133POPC   GL130517   5.904   2.839   9.204
 2133POPC   GL230518   5.606   3.045   9.152
 2133POPC   C1A30519   5.726   2.726   8.773
 2133POPC   D2A30520   5.454   2.600   8.395
 2133POPC   C3A30521   5.695   2.680   7.996
 2133POPC   C4A30522   6.042   2.816   7.706
 2133POPC   C1B30523   5.658   3.245   8.777
 2133POPC   C2B30524   5.902   3.180   8.447
 2133POPC   C3B30525   5.853   3.213   8.034
 2133POPC   C4B30526   5.705   3.193   7.634
 2134POPC   NC330527  12.490   2.460   9.754
 2134POPC   PO430528  12.135   2.939   9.419
 2134POPC   GL130529  12.175   2.667   9.093
 2134POPC   GL230530  12.413   2.468   9.257
 2134POPC   C1A30531  12.025   2.773   8.714
 2134POPC   D2A30532  12.284   2.957   8.444
 2134POPC   C3A30533  12.176   2.744   8.103
 2134POPC   C4A30534  12.255   2.911   7.708
 2134POPC   C1B30535  12.519   2.351   8.857
 2134POPC   C2B30536  12.339   2.360   8.462
 2134POPC   C3B30537  12.523   2.375   8.072
 2134POPC   C4B30538  12.339   2.409   7.727
 2135POPC   NC330539  26.186  16.326   9.506
 2135POPC   PO430540  25.687  15.829   9.401
 2135POPC   GL130541  25.939  16.020   9.169
 2135POPC   GL230542  25.688  16.160   8.959
 2135POPC   C1A30543  26.201  16.058   8.838
 2135POPC   D2A30544  26.268  16.317   8.488
 2135POPC   C3A30545  26.133  16.145   8.107
 2135POPC   C4A30546  26.320  15.829   7.802
 2135POPC   C1B30547  25.782  15.847   8.613
 2135POPC   C2B30548  25.820  15.749   8.151
 2135POPC   C3B30549  25.837  15.931   7.731
 2135POPC   C4B30550  25.772  15.730   7.310
 2136POPC   NC330551  36.164  12.388   9.509
 2136POPC   PO430552  36.437  11.787   9.286
 2136POPC   GL130553  36.159  12.048   9.139
 2136POPC   GL230554  35.836  12.047   9.279
 2136POPC   C1A30555  35.977  12.349   8.857
 2136POPC   D2A30556  35.974  12.290   8.401
 2136POPC   C3A30557  36.242  12.029   8.122
 2136POPC   C4A30558  36.057  11.680   7.861
 2136POPC   C1B30559  35.775  11.900   8.845
 2136POPC   C2B30560  35.526  12.076   8.530
 2136POPC   C3B30561  35.692  11.946   8.126
 2136POPC   C4B30562  35.880  12.176   7.760
 2137POPC   NC330563  18.191  42.539   9.965
 2137POPC   PO430564  17.957  41.971   9.619
 2137POPC   GL130565  18.150  42.085   9.226
 2137POPC   GL230566  18.509  42.197   9.262
 2137POPC   C1A30567  18.098  42.344   8.865
 2137POPC   D2A30568  18.240  42.312   8.444
 2137POPC   C3A30569  18.035  42.501   8.100
 2137POPC   C4A30570  18.094  42.314   7.723
 2137POPC   C1B30571  18.597  42.189   8.809
 2137POPC   C2B30572  18.740  42.319   8.388
 2137POPC   C3B30573  18.543  42.450   8.013
 2137POPC   C4B30574  18.628  42.450   7.592
 2138POPC   NC330575  43.766   2.543   9.538
 2138POPC   PO430576  44.397   2.694   9.583
 2138POPC   GL130577  44.157   2.533   9.191
 2138POPC   GL230578  43.851   2.670   9.051
 2138POPC   C1A30579  44.160   2.391   8.763
 2138POPC   D2A30580  44.023   2.560   8.369
 2138POPC   C3A30581  44.097   2.439   7.951
 2138POPC   C4A30582  43.850   2.534   7.596
 2138POPC   C1B30583  44.022   2.941   8.715
 2138POPC   C2B30584  43.926   3.069   8.279
 2138POPC   C3B30585  43.768   2.993   7.838
 2138POPC   C4B30586  43.526   3.074   7.450
 2139POPC   NC330587  18.238  43.252   9.825
 2139POPC   PO430588  18.282  42.637   9.516
 2139POPC   GL130589  18.380  42.974   9.229
 2139POPC   GL230590  18.667  42.726   9.151
 2139POPC   C1A30591  18.299  43.246   8.838
 2139POPC   D2A30592  18.465  43.315   8.405
 2139POPC   C3A30593  18.247  43.434   7.984
 2139POPC   C4A30594  18.124  43.292   7.553
 2139POPC   C1B30595  18.439  42.688   8.806
 2139POPC   C2B30596  18.175  42.836   8.504
 2139POPC   C3B30597  18.260  42.945   8.079
 2139POPC   C4B30598  18.419  42.907   7.673
 2140POPC   NC330599   6.248  41.326   9.664
 2140POPC   PO430600   6.806  41.521   9.462
 2140POPC   GL130601   6.527  41.401   9.144
 2140POPC   GL230602   6.324  41.687   9.143
 2140POPC   C1A30603   6.505  41.393   8.690
 2140POPC   D2A30604   6.265  41.451   8.305
 2140POPC   C3A30605   6.455  41.592   7.936
 2140POPC   C4A30606   6.538  41.563   7.469
 2140POPC   C1B30607   6.503  41.910   8.819
 2140POPC   C2B30608   6.615  41.849   8.412
 2140POPC   C3B30609   6.541  42.148   8.123
 2140POPC   C4B30610   6.661  42.011   7.752
 2141POPC   NC330611  36.901   1.489   9.549
 2141POPC   PO430612  37.001   2.114   9.544
 2141POPC   GL130613  36.750   2.259   9.197
 2141POPC   GL230614  36.511   1.980   9.175
 2141POPC   C1A30615  36.820   2.092   8.779
 2141POPC   D2A30616  36.985   1.935   8.397
 2141POPC   C3A30617  36.967   2.164   8.006
 2141POPC   C4A30618  36.674   2.057   7.715
 2141POPC   C1B30619  36.347   1.842   8.780
 2141POPC   C2B30620  36.555   1.654   8.451
 2141POPC   C3B30621  36.577   1.683   8.047
 2141POPC   C4B30622  36.387   1.634   7.637
 2142POPC   NC330623  40.217  44.784   9.504
 2142POPC   PO430624  39.565  44.513   9.597
 2142POPC   GL130625  39.758  44.734   9.229
 2142POPC   GL230626  40.117  44.621   9.037
 2142POPC   C1A30627  39.704  44.743   8.795
 2142POPC   D2A30628  39.954  44.510   8.504
 2142POPC   C3A30629  39.961  44.557   8.079
 2142POPC   C4A30630  40.151  44.347   7.755
 2142POPC   C1B30631  40.176  44.925   8.700
 2142POPC   C2B30632  39.988   0.024   8.314
 2142POPC   C3B30633  40.200  44.994   7.907
 2142POPC   C4B30634  40.440  44.740   7.597
 2143POPC   NC330635  26.982  14.874   9.391
 2143POPC   PO430636  26.556  15.360   9.238
 2143POPC   GL130637  26.744  15.099   8.983
 2143POPC   GL230638  26.463  14.891   9.013
 2143POPC   C1A30639  26.912  15.119   8.584
 2143POPC   D2A30640  26.862  15.451   8.254
 2143POPC   C3A30641  26.798  15.292   7.859
 2143POPC   C4A30642  26.449  15.290   7.624
 2143POPC   C1B30643  26.395  15.175   8.609
 2143POPC   C2B30644  26.545  15.048   8.223
 2143POPC   C3B30645  26.912  14.855   8.108
 2143POPC   C4B30646  26.891  14.817   7.665
 2144POPC   NC330647  17.787   3.661   9.517
 2144POPC   PO430648  17.219   3.962   9.214
 2144POPC   GL130649  17.469   3.587   9.106
 2144POPC   GL230650  17.245   3.391   8.899
 2144POPC   C1A30651  17.774   3.462   8.777
 2144POPC   D2A30652  17.889   3.722   8.357
 2144POPC   C3A30653  17.786   3.647   7.866
 2144POPC   C4A30654  17.574   3.417   7.463
 2144POPC   C1B30655  17.366   3.710   8.594
 2144POPC   C2B30656  17.361   3.707   8.156
 2144POPC   C3B30657  17.117   3.548   7.818
 2144POPC   C4B30658  17.102   3.264   7.467
 2145POPC   NC330659  21.691  31.136   9.380
 2145POPC   PO430660  21.166  30.757   9.591
 2145POPC   GL130661  21.206  30.643   9.157
 2145POPC   GL230662  21.564  30.676   9.180
 2145POPC   C1A30663  21.247  30.432   8.756
 2145POPC   D2A30664  21.052  30.567   8.377
 2145POPC   C3A30665  21.174  30.890   8.074
 2145POPC   C4A30666  20.998  30.548   7.785
 2145POPC   C1B30667  21.565  30.836   8.758
 2145POPC   C2B30668  21.699  30.642   8.356
 2145POPC   C3B30669  21.482  30.508   7.992
 2145POPC   C4B30670  21.388  30.815   7.600
 2146POPC   NC330671   6.513  18.389   9.706
 2146POPC   PO430672   7.072  18.591   9.411
 2146POPC   GL130673   6.687  18.572   9.198
 2146POPC   GL230674   6.637  18.226   9.127
 2146POPC   C1A30675   6.517  18.576   8.765
 2146POPC   D2A30676   6.671  18.595   8.340
 2146POPC   C3A30677   6.635  18.325   7.979
 2146POPC   C4A30678   6.782  18.542   7.643
 2146POPC   C1B30679   6.601  18.074   8.702
 2146POPC   C2B30680   6.602  17.842   8.283
 2146POPC   C3B30681   6.861  17.859   7.945
 2146POPC   C4B30682   6.832  18.050   7.521
 2147POPC   NC330683  20.732  34.092   9.639
 2147POPC   PO430684  20.322  33.537   9.527
 2147POPC   GL130685  20.569  33.812   9.241
 2147POPC   GL230686  20.919  33.799   9.209
 2147POPC   C1A30687  20.602  33.966   8.826
 2147POPC   D2A30688  20.618  33.775   8.413
 2147POPC   C3A30689  20.664  34.027   8.055
 2147POPC   C4A30690  20.549  34.038   7.647
 2147POPC   C1B30691  20.885  33.536   8.789
 2147POPC   C2B30692  20.900  33.369   8.310
 2147POPC   C3B30693  20.689  33.514   7.877
 2147POPC   C4B30694  20.749  33.622   7.404
 2148POPC   NC330695  18.470  20.151   9.648
 2148POPC   PO430696  18.171  19.571   9.444
 2148POPC   GL130697  18.440  19.697   9.207
 2148POPC   GL230698  18.399  20.045   9.149
 2148POPC   C1A30699  18.372  19.719   8.764
 2148POPC   D2A30700  18.113  19.763   8.429
 2148POPC   C3A30701  18.206  19.524   8.126
 2148POPC   C4A30702  18.163  19.773   7.837
 2148POPC   C1B30703  18.568  20.212   8.753
 2148POPC   C2B30704  18.418  20.194   8.335
 2148POPC   C3B30705  18.584  20.029   7.951
 2148POPC   C4B30706  18.747  20.268   7.586
 2149POPC   NC330707  30.076   2.239   9.381
 2149POPC   PO430708  30.180   2.906   9.543
 2149POPC   GL130709  29.985   2.823   9.159
 2149POPC   GL230710  29.645   2.804   9.245
 2149POPC   C1A30711  30.050   2.905   8.715
 2149POPC   D2A30712  29.840   2.761   8.337
 2149POPC   C3A30713  30.113   2.825   8.016
 2149POPC   C4A30714  30.052   3.196   7.846
 2149POPC   C1B30715  29.581   2.779   8.800
 2149POPC   C2B30716  29.489   2.433   8.520
 2149POPC   C3B30717  29.567   2.321   8.080
 2149POPC   C4B30718  29.699   2.642   7.758
 2150POPC   NC330719   6.015  21.046   9.504
 2150POPC   PO430720   5.619  21.576   9.404
 2150POPC   GL130721   5.922  21.454   9.143
 2150POPC   GL230722   5.657  21.407   8.907
 2150POPC   C1A30723   6.110  21.530   8.735
 2150POPC   D2A30724   6.039  21.677   8.346
 2150POPC   C3A30725   5.799  21.458   8.071
 2150POPC   C4A30726   5.649  21.368   7.691
 2150POPC   C1B30727   6.012  21.059   8.836
 2150POPC   C2B30728   6.155  21.082   8.429
 2150POPC   C3B30729   5.967  20.980   8.070
 2150POPC   C4B30730   6.066  21.056   7.673
 2151POPC   NC330731  33.590  32.246   9.648
 2151POPC   PO430732  34.244  31.951   9.487
 2151POPC   GL130733  33.862  32.107   9.204
 2151POPC   GL230734  33.630  32.435   9.191
 2151POPC   C1A30735  33.665  32.005   8.794
 2151POPC   D2A30736  33.368  32.016   8.410
 2151POPC   C3A30737  33.518  32.093   7.990
 2151POPC   C4A30738  33.950  32.108   7.854
 2151POPC   C1B30739  33.834  32.556   8.834
 2151POPC   C2B30740  33.843  32.341   8.429
 2151POPC   C3B30741  33.786  32.550   8.045
 2151POPC   C4B30742  33.926  32.580   7.657
 2152POPC   NC330743   2.499  10.863   9.484
 2152POPC   PO430744   2.500  11.552   9.396
 2152POPC   GL130745   2.598  11.225   9.129
 2152POPC   GL230746   2.288  11.114   9.074
 2152POPC   C1A30747   2.852  11.166   8.773
 2152POPC   D2A30748   3.005  11.466   8.513
 2152POPC   C3A30749   2.841  11.346   8.149
 2152POPC   C4A30750   2.846  11.375   7.740
 2152POPC   C1B30751   2.382  10.952   8.662
 2152POPC   C2B30752   2.687  10.892   8.336
 2152POPC   C3B30753   2.550  10.983   7.917
 2152POPC   C4B30754   2.381  11.156   7.551
 2153POPC   NC330755   6.727   6.978   9.396
 2153POPC   PO430756   6.529   7.587   9.477
 2153POPC   GL130757   6.510   7.506   9.027
 2153POPC   GL230758   6.808   7.331   8.999
 2153POPC   C1A30759   6.283   7.664   8.610
 2153POPC   D2A30760   6.175   7.573   8.183
 2153POPC   C3A30761   6.520   7.520   7.902
 2153POPC   C4A30762   6.956   7.400   7.858
 2153POPC   C1B30763   6.711   7.359   8.556
 2153POPC   C2B30764   6.705   7.073   8.230
 2153POPC   C3B30765   6.579   6.989   7.838
 2153POPC   C4B30766   6.656   7.170   7.460
 2154POPC   NC330767  30.963   8.964   9.772
 2154POPC   PO430768  30.552   9.327   9.521
 2154POPC   GL130769  30.733   9.120   9.173
 2154POPC   GL230770  31.048   8.964   9.246
 2154POPC   C1A30771  30.631   9.134   8.726
 2154POPC   D2A30772  30.788   8.889   8.374
 2154POPC   C3A30773  30.638   9.047   7.956
 2154POPC   C4A30774  30.275   9.138   7.720
 2154POPC   C1B30775  31.144   9.070   8.829
 2154POPC   C2B30776  31.254   9.216   8.434
 2154POPC   C3B30777  31.151   9.028   8.040
 2154POPC   C4B30778  31.034   9.297   7.710
 2155POPC   NC330779   4.505  43.653   9.567
 2155POPC   PO430780   3.960  44.154   9.485
 2155POPC   GL130781   4.260  43.986   9.237
 2155POPC   GL230782   4.475  44.230   9.158
 2155POPC   C1A30783   4.354  43.706   8.924
 2155POPC   D2A30784   4.433  43.677   8.519
 2155POPC   C3A30785   4.087  43.774   8.280
 2155POPC   C4A30786   4.148  43.649   7.864
 2155POPC   C1B30787   4.421  44.223   8.741
 2155POPC   C2B30788   4.650  44.119   8.393
 2155POPC   C3B30789   4.421  44.073   8.025
 2155POPC   C4B30790   4.344  44.399   7.747
 2156POPC   NC330791  43.794  38.817   9.524
 2156POPC   PO430792  43.991  38.177   9.522
 2156POPC   GL130793  43.816  38.398   9.177
 2156POPC   GL230794  44.063  38.644   9.121
 2156POPC   C1A30795  43.648  38.655   8.806
 2156POPC   D2A30796  43.677  38.876   8.403
 2156POPC   C3A30797  43.602  38.638   8.020
 2156POPC   C4A30798  43.709  38.677   7.595
 2156POPC   C1B30799  44.076  38.367   8.742
 2156POPC   C2B30800  44.043  38.508   8.317
 2156POPC   C3B30801  44.120  38.551   7.893
 2156POPC   C4B30802  44.213  38.161   7.720
 2157POPC   NC330803  38.181  31.296   9.477
 2157POPC   PO430804  38.720  31.639   9.690
 2157POPC   GL130805  38.640  31.494   9.286
 2157POPC   GL230806  38.833  31.169   9.314
 2157POPC   C1A30807  38.464  31.640   8.877
 2157POPC   D2A30808  38.351  31.712   8.450
 2157POPC   C3A30809  38.261  31.335   8.196
 2157POPC   C4A30810  38.281  31.316   7.754
 2157POPC   C1B30811  38.867  31.305   8.873
 2157POPC   C2B30812  38.692  31.253   8.454
 2157POPC   C3B30813  38.831  31.206   8.028
 2157POPC   C4B30814  38.734  31.144   7.587
 2158POPC   NC330815  33.563   5.019   9.568
 2158POPC   PO430816  34.196   5.037   9.480
 2158POPC   GL130817  33.896   5.214   9.191
 2158POPC   GL230818  33.724   4.912   9.080
 2158POPC   C1A30819  33.931   5.284   8.750
 2158POPC   D2A30820  33.814   5.116   8.346
 2158POPC   C3A30821  33.573   5.355   8.067
 2158POPC   C4A30822  33.811   5.412   7.724
 2158POPC   C1B30823  33.754   4.718   8.669
 2158POPC   C2B30824  33.676   4.624   8.217
 2158POPC   C3B30825  33.656   4.896   7.831
 2158POPC   C4B30826  33.950   4.950   7.456
 2159POPC   NC330827   2.887  43.934   9.506
 2159POPC   PO430828   2.415  43.517   9.409
 2159POPC   GL130829   2.547  43.913   9.136
 2159POPC   GL230830   2.929  44.037   9.021
 2159POPC   C1A30831   2.519  44.109   8.731
 2159POPC   D2A30832   2.352  44.023   8.326
 2159POPC   C3A30833   2.656  43.962   7.985
 2159POPC   C4A30834   2.685  43.744   7.546
 2159POPC   C1B30835   3.014  43.994   8.566
 2159POPC   C2B30836   3.152  43.677   8.272
 2159POPC   C3B30837   3.143  43.769   7.845
 2159POPC   C4B30838   3.113  43.495   7.514
 2160POPC   NC330839   3.895   2.029   9.446
 2160POPC   PO430840   3.242   1.824   9.447
 2160POPC   GL130841   3.457   2.039   9.145
 2160POPC   GL230842   3.710   1.796   9.026
 2160POPC   C1A30843   3.634   2.226   8.784
 2160POPC   D2A30844   3.694   1.943   8.460
 2160POPC   C3A30845   3.687   2.256   8.131
 2160POPC   C4A30846   3.539   2.212   7.737
 2160POPC   C1B30847   3.479   1.520   8.740
 2160POPC   C2B30848   3.328   1.549   8.319
 2160POPC   C3B30849   3.598   1.743   7.986
 2160POPC   C4B30850   3.507   1.750   7.548
 2161POPC   NC330851  14.180  17.997   9.485
 2161POPC   PO430852  14.531  18.597   9.426
 2161POPC   GL130853  14.237  18.398   9.161
 2161POPC   GL230854  14.489  18.196   9.064
 2161POPC   C1A30855  14.109  18.324   8.752
 2161POPC   D2A30856  14.358  18.347   8.403
 2161POPC   C3A30857  14.217  18.306   7.985
 2161POPC   C4A30858  14.516  18.504   7.774
 2161POPC   C1B30859  14.462  17.940   8.719
 2161POPC   C2B30860  14.394  17.839   8.339
 2161POPC   C3B30861  14.624  18.028   8.073
 2161POPC   C4B30862  14.549  17.971   7.682
 2162POPC   NC330863  38.910  33.998   9.415
 2162POPC   PO430864  39.442  33.620   9.470
 2162POPC   GL130865  39.298  33.805   9.109
 2162POPC   GL230866  39.435  34.102   9.205
 2162POPC   C1A30867  39.066  33.835   8.702
 2162POPC   D2A30868  38.890  33.550   8.371
 2162POPC   C3A30869  38.923  33.756   7.934
 2162POPC   C4A30870  38.925  33.687   7.437
 2162POPC   C1B30871  39.492  34.154   8.775
 2162POPC   C2B30872  39.360  34.151   8.357
 2162POPC   C3B30873  39.516  34.120   7.954
 2162POPC   C4B30874  39.341  33.854   7.675
 2163POPC   NC330875  31.175  36.252   9.469
 2163POPC   PO430876  30.554  36.267   9.529
 2163POPC   GL130877  30.610  36.085   9.142
 2163POPC   GL230878  30.829  36.382   9.089
 2163POPC   C1A30879  30.715  35.986   8.696
 2163POPC   D2A30880  31.003  35.938   8.328
 2163POPC   C3A30881  30.894  36.046   7.896
 2163POPC   C4A30882  31.058  36.031   7.444
 2163POPC   C1B30883  30.482  36.432   8.800
 2163POPC   C2B30884  30.389  36.290   8.345
 2163POPC   C3B30885  30.422  36.332   7.875
 2163POPC   C4B30886  30.770  36.434   7.549
 2164POPC   NC330887   7.871  35.504   9.467
 2164POPC   PO430888   8.305  34.965   9.483
 2164POPC   GL130889   8.150  35.208   9.170
 2164POPC   GL230890   7.918  34.966   9.093
 2164POPC   C1A30891   8.056  35.514   8.824
 2164POPC   D2A30892   8.353  35.492   8.482
 2164POPC   C3A30893   8.278  35.685   8.101
 2164POPC   C4A30894   8.209  35.471   7.745
 2164POPC   C1B30895   8.109  35.029   8.700
 2164POPC   C2B30896   7.932  35.214   8.321
 2164POPC   C3B30897   7.956  35.048   7.894
 2164POPC   C4B30898   8.023  35.068   7.432
 2165POPC   NC330899   4.060   8.767   9.543
 2165POPC   PO430900   3.360   8.861   9.515
 2165POPC   GL130901   3.589   8.963   9.140
 2165POPC   GL230902   3.694   9.302   9.218
 2165POPC   C1A30903   3.783   8.991   8.701
 2165POPC   D2A30904   3.837   8.889   8.272
 2165POPC   C3A30905   3.471   8.866   8.033
 2165POPC   C4A30906   3.374   9.011   7.674
 2165POPC   C1B30907   3.501   9.413   8.797
 2165POPC   C2B30908   3.549   9.308   8.308
 2165POPC   C3B30909   3.794   9.223   7.886
 2165POPC   C4B30910   3.702   9.287   7.394
 2166POPC   NC330911  16.266   4.093   9.633
 2166POPC   PO430912  16.295   4.621   9.290
 2166POPC   GL130913  16.579   4.293   9.251
 2166POPC   GL230914  16.778   4.534   9.116
 2166POPC   C1A30915  16.602   4.084   8.862
 2166POPC   D2A30916  16.840   4.013   8.480
 2166POPC   C3A30917  16.673   4.212   8.126
 2166POPC   C4A30918  16.989   4.221   7.841
 2166POPC   C1B30919  16.864   4.683   8.735
 2166POPC   C2B30920  17.029   4.569   8.370
 2166POPC   C3B30921  16.947   4.807   8.056
 2166POPC   C4B30922  16.742   4.643   7.756
 2167POPC   NC330923  43.334   8.848   9.423
 2167POPC   PO430924  42.660   8.699   9.378
 2167POPC   GL130925  42.845   8.940   8.997
 2167POPC   GL230926  43.170   9.112   8.976
 2167POPC   C1A30927  42.934   9.006   8.531
 2167POPC   D2A30928  43.238   8.778   8.269
 2167POPC   C3A30929  43.221   8.784   7.824
 2167POPC   C4A30930  43.315   8.980   7.412
 2167POPC   C1B30931  43.576   9.214   8.784
 2167POPC   C2B30932  43.586   9.334   8.371
 2167POPC   C3B30933  43.312   9.273   8.039
 2167POPC   C4B30934  42.985   9.215   7.740
 2168POPC   NC330935  24.321  17.640   9.704
 2168POPC   PO430936  24.255  17.037   9.748
 2168POPC   GL130937  24.258  17.363   9.308
 2168POPC   GL230938  24.608  17.455   9.240
 2168POPC   C1A30939  24.233  17.359   8.856
 2168POPC   D2A30940  24.455  17.458   8.494
 2168POPC   C3A30941  24.448  17.239   8.098
 2168POPC   C4A30942  24.379  17.475   7.711
 2168POPC   C1B30943  24.723  17.715   8.885
 2168POPC   C2B30944  24.654  17.933   8.507
 2168POPC   C3B30945  24.609  17.755   8.103
 2168POPC   C4B30946  24.928  17.904   7.866
 2169POPC   NC330947  27.164   6.267   9.475
 2169POPC   PO430948  26.994   6.929   9.555
 2169POPC   GL130949  27.048   6.697   9.197
 2169POPC   GL230950  26.685   6.708   9.093
 2169POPC   C1A30951  27.070   6.551   8.772
 2169POPC   D2A30952  26.907   6.663   8.359
 2169POPC   C3A30953  27.110   6.505   7.961
 2169POPC   C4A30954  27.064   6.773   7.618
 2169POPC   C1B30955  26.550   6.472   8.711
 2169POPC   C2B30956  26.513   6.346   8.260
 2169POPC   C3B30957  26.618   6.664   7.922
 2169POPC   C4B30958  26.555   6.804   7.474
 2170POPC   NC330959   4.443   1.194   9.494
 2170POPC   PO430960   4.901   1.566   9.552
 2170POPC   GL130961   4.645   1.475   9.102
 2170POPC   GL230962   4.248   1.409   9.067
 2170POPC   C1A30963   4.519   1.391   8.617
 2170POPC   D2A30964   4.415   1.088   8.260
 2170POPC   C3A30965   4.348   1.024   7.816
 2170POPC   C4A30966   4.546   0.832   7.454
 2170POPC   C1B30967   4.091   1.664   8.708
 2170POPC   C2B30968   4.069   1.489   8.289
 2170POPC   C3B30969   4.116   1.510   7.807
 2170POPC   C4B30970   3.955   1.619   7.360
 2171POPC   NC330971   5.066   8.919   9.844
 2171POPC   PO430972   5.439   8.704   9.340
 2171POPC   GL130973   5.276   8.734   8.925
 2171POPC   GL230974   4.882   8.718   8.908
 2171POPC   C1A30975   5.153   9.031   8.616
 2171POPC   D2A30976   4.813   8.889   8.385
 2171POPC   C3A30977   4.824   9.125   8.029
 2171POPC   C4A30978   5.046   9.342   7.715
 2171POPC   C1B30979   4.781   8.399   8.634
 2171POPC   C2B30980   4.913   8.367   8.233
 2171POPC   C3B30981   5.075   8.657   7.965
 2171POPC   C4B30982   4.964   8.865   7.580
 2172POPC   NC330983  44.742  11.771   9.311
 2172POPC   PO430984  44.441  12.330   9.583
 2172POPC   GL130985  44.442  12.149   9.165
 2172POPC   GL230986  44.795  12.252   9.161
 2172POPC   C1A30987  44.561  12.018   8.704
 2172POPC   D2A30988  44.633  12.181   8.274
 2172POPC   C3A30989  44.427  12.078   7.891
 2172POPC   C4A30990  44.447  12.093   7.422
 2172POPC   C1B30991  44.943  12.404   8.786
 2172POPC   C2B30992   0.031  12.484   8.371
 2172POPC   C3B30993   0.132  12.279   7.987
 2172POPC   C4B30994  44.876  12.184   7.650
 2173POPC   NC330995  43.256  39.017   9.435
 2173POPC   PO430996  42.764  39.420   9.522
 2173POPC   GL130997  42.987  39.288   9.109
 2173POPC   GL230998  43.330  39.417   9.096
 2173POPC   C1A30999  43.211  38.998   8.780
 2173POPC   D2A31000  43.046  39.115   8.360
 2173POPC   C3A31001  43.218  39.024   7.945
 2173POPC   C4A31002  43.017  38.781   7.594
 2173POPC   C1B31003  43.150  39.508   8.659
 2173POPC   C2B31004  43.206  39.547   8.188
 2173POPC   C3B31005  43.411  39.656   7.787
 2173POPC   C4B31006  43.406  39.504   7.361
 2174POPC   NC331007   2.127  11.829   9.500
 2174POPC   PO431008   1.491  12.012   9.334
 2174POPC   GL131009   1.813  12.097   9.123
 2174POPC   GL231010   1.620  12.385   9.008
 2174POPC   C1A31011   2.083  12.167   8.777
 2174POPC   D2A31012   2.186  11.882   8.487
 2174POPC   C3A31013   2.238  11.997   8.056
 2174POPC   C4A31014   1.961  11.753   7.809
 2174POPC   C1B31015   1.568  12.237   8.607
 2174POPC   C2B31016   1.840  12.245   8.263
 2174POPC   C3B31017   1.770  12.224   7.820
 2174POPC   C4B31018   1.674  12.246   7.374
 2175POPC   NC331019  10.474  17.935   9.583
 2175POPC   PO431020  10.648  17.289   9.702
 2175POPC   GL131021  10.590  17.304   9.244
 2175POPC   GL231022  10.868  17.177   9.086
 2175POPC   C1A31023  10.510  17.591   8.867
 2175POPC   D2A31024  10.408  17.828   8.462
 2175POPC   C3A31025  10.181  17.548   8.170
 2175POPC   C4A31026  10.299  17.181   7.871
 2175POPC   C1B31027  10.674  17.131   8.679
 2175POPC   C2B31028  10.646  17.374   8.300
 2175POPC   C3B31029  10.645  17.558   7.889
 2175POPC   C4B31030  10.869  17.297   7.606
 2176POPC   NC331031  28.249  12.120   9.377
 2176POPC   PO431032  27.506  12.073   9.491
 2176POPC   GL131033  27.779  11.986   9.212
 2176POPC   GL231034  27.844  12.326   9.153
 2176POPC   C1A31035  27.703  11.880   8.775
 2176POPC   D2A31036  27.361  11.952   8.464
 2176POPC   C3A31037  27.533  11.832   8.085
 2176POPC   C4A31038  27.548  11.940   7.672
 2176POPC   C1B31039  27.618  12.374   8.786
 2176POPC   C2B31040  27.767  12.246   8.394
 2176POPC   C3B31041  27.608  12.341   8.019
 2176POPC   C4B31042  27.864  12.337   7.676
 2177POPC   NC331043  13.721   8.938   9.476
 2177POPC   PO431044  13.166   9.411   9.297
 2177POPC   GL131045  13.365   9.084   9.054
 2177POPC   GL231046  13.465   8.736   9.077
 2177POPC   C1A31047  13.762   9.097   8.802
 2177POPC   D2A31048  13.862   8.985   8.380
 2177POPC   C3A31049  13.542   8.986   8.075
 2177POPC   C4A31050  13.656   9.129   7.676
 2177POPC   C1B31051  13.388   8.808   8.609
 2177POPC   C2B31052  13.548   8.534   8.312
 2177POPC   C3B31053  13.469   8.496   7.898
 2177POPC   C4B31054  13.290   8.781   7.612
 2178POPC   NC331055   8.432  20.517   9.561
 2178POPC   PO431056   7.868  20.609   9.213
 2178POPC   GL131057   8.131  20.486   8.945
 2178POPC   GL231058   8.426  20.631   9.060
 2178POPC   C1A31059   7.936  20.508   8.538
 2178POPC   D2A31060   7.816  20.788   8.203
 2178POPC   C3A31061   8.114  20.584   7.956
 2178POPC   C4A31062   7.991  20.158   7.831
 2178POPC   C1B31063   8.449  20.618   8.582
 2178POPC   C2B31064   8.309  20.921   8.307
 2178POPC   C3B31065   8.475  20.940   7.895
 2178POPC   C4B31066   8.343  20.958   7.485
 2179POPC   NC331067   9.244   5.210   9.256
 2179POPC   PO431068   8.763   4.798   9.466
 2179POPC   GL131069   8.784   4.958   9.061
 2179POPC   GL231070   8.630   5.287   9.039
 2179POPC   C1A31071   8.939   4.862   8.641
 2179POPC   D2A31072   8.856   5.103   8.273
 2179POPC   C3A31073   8.716   5.262   7.917
 2179POPC   C4A31074   8.904   5.028   7.608
 2179POPC   C1B31075   8.896   5.360   8.699
 2179POPC   C2B31076   9.304   5.278   8.459
 2179POPC   C3B31077   9.275   5.252   7.998
 2179POPC   C4B31078   9.094   5.540   7.701
 2180POPC   NC331079  23.524  41.354   9.495
 2180POPC   PO431080  23.644  41.989   9.720
 2180POPC   GL131081  23.922  41.586   9.317
 2180POPC   GL231082  23.732  41.380   9.063
 2180POPC   C1A31083  24.051  41.600   8.785
 2180POPC   D2A31084  23.969  41.548   8.332
 2180POPC   C3A31085  23.795  41.796   8.003
 2180POPC   C4A31086  24.049  42.071   7.743
 2180POPC   C1B31087  23.692  41.240   8.668
 2180POPC   C2B31088  23.839  41.076   8.290
 2180POPC   C3B31089  23.709  41.278   7.880
 2180POPC   C4B31090  23.490  41.303   7.440
 2181POPC   NC331091   6.922  31.827   9.397
 2181POPC   PO431092   6.822  32.486   9.454
 2181POPC   GL131093   6.755  32.240   9.109
 2181POPC   GL231094   6.408  32.302   9.050
 2181POPC   C1A31095   6.758  32.370   8.679
 2181POPC   D2A31096   6.576  32.290   8.294
 2181POPC   C3A31097   6.869  32.067   8.061
 2181POPC   C4A31098   6.882  32.252   7.671
 2181POPC   C1B31099   6.309  32.065   8.680
 2181POPC   C2B31100   6.157  31.976   8.280
 2181POPC   C3B31101   6.381  31.956   7.927
 2181POPC   C4B31102   6.384  32.231   7.646
 2182POPC   NC331103  15.629  26.896   9.591
 2182POPC   PO431104  16.231  26.715   9.532
 2182POPC   GL131105  15.907  26.809   9.156
 2182POPC   GL231106  15.548  26.633   9.170
 2182POPC   C1A31107  15.921  27.020   8.724
 2182POPC   D2A31108  16.218  27.014   8.342
 2182POPC   C3A31109  16.161  27.157   7.887
 2182POPC   C4A31110  16.073  26.906   7.525
 2182POPC   C1B31111  15.625  26.591   8.743
 2182POPC   C2B31112  15.854  26.640   8.370
 2182POPC   C3B31113  15.833  26.800   7.976
 2182POPC   C4B31114  15.596  26.783   7.594
 2183POPC   NC331115  11.633  15.745   9.734
 2183POPC   PO431116  11.867  16.291   9.483
 2183POPC   GL131117  11.646  16.194   9.138
 2183POPC   GL231118  11.922  16.398   8.963
 2183POPC   C1A31119  11.676  16.005   8.732
 2183POPC   D2A31120  11.828  16.150   8.356
 2183POPC   C3A31121  11.701  15.906   8.018
 2183POPC   C4A31122  11.949  15.737   7.687
 2183POPC   C1B31123  12.217  16.137   8.729
 2183POPC   C2B31124  12.503  15.948   8.416
 2183POPC   C3B31125  12.493  16.064   7.988
 2183POPC   C4B31126  12.099  16.227   7.920
 2184POPC   NC331127   6.884  29.582   9.394
 2184POPC   PO431128   6.571  30.000   9.856
 2184POPC   GL131129   6.560  30.004   9.336
 2184POPC   GL231130   6.837  30.041   9.092
 2184POPC   C1A31131   6.415  29.998   8.845
 2184POPC   D2A31132   6.758  30.101   8.502
 2184POPC   C3A31133   6.722  30.006   8.063
 2184POPC   C4A31134   6.727  30.267   7.695
 2184POPC   C1B31135   6.810  29.685   8.778
 2184POPC   C2B31136   6.923  29.567   8.365
 2184POPC   C3B31137   6.973  29.572   7.939
 2184POPC   C4B31138   6.745  29.760   7.586
 2185POPC   NC331139  12.129  22.395   9.512
 2185POPC   PO431140  11.911  21.726   9.576
 2185POPC   GL131141  12.001  21.958   9.187
 2185POPC   GL231142  12.303  22.108   9.012
 2185POPC   C1A31143  11.950  21.836   8.759
 2185POPC   D2A31144  11.893  22.044   8.420
 2185POPC   C3A31145  12.046  21.898   8.026
 2185POPC   C4A31146  11.846  21.909   7.695
 2185POPC   C1B31147  12.027  22.380   8.812
 2185POPC   C2B31148  12.039  22.569   8.420
 2185POPC   C3B31149  11.952  22.393   8.056
 2185POPC   C4B31150  12.132  22.326   7.716
 2186POPC   NC331151  10.226  36.780   9.562
 2186POPC   PO431152  10.882  36.939   9.510
 2186POPC   GL131153  10.637  37.045   9.108
 2186POPC   GL231154  10.334  36.834   9.068
 2186POPC   C1A31155  10.587  37.068   8.646
 2186POPC   D2A31156  10.454  36.840   8.284
 2186POPC   C3A31157  10.544  37.122   7.966
 2186POPC   C4A31158  10.655  37.093   7.537
 2186POPC   C1B31159  10.148  37.186   8.857
 2186POPC   C2B31160  10.112  37.187   8.416
 2186POPC   C3B31161  10.063  37.357   8.025
 2186POPC   C4B31162  10.145  37.152   7.631
 2187POPC   NC331163   3.415  29.541   9.455
 2187POPC   PO431164   3.426  28.875   9.406
 2187POPC   GL131165   3.664  28.975   9.042
 2187POPC   GL231166   3.713  29.352   9.077
 2187POPC   C1A31167   3.453  28.911   8.613
 2187POPC   D2A31168   3.277  29.083   8.191
 2187POPC   C3A31169   3.475  28.867   7.845
 2187POPC   C4A31170   3.885  28.679   7.887
 2187POPC   C1B31171   3.824  29.282   8.643
 2187POPC   C2B31172   3.791  29.125   8.206
 2187POPC   C3B31173   3.692  29.317   7.814
 2187POPC   C4B31174   3.340  29.541   7.621
 2188POPC   NC331175  13.148  38.663   9.419
 2188POPC   PO431176  12.565  38.302   9.421
 2188POPC   GL131177  12.896  38.216   9.149
 2188POPC   GL231178  12.778  38.505   8.997
 2188POPC   C1A31179  13.220  38.300   8.820
 2188POPC   D2A31180  13.195  38.159   8.393
 2188POPC   C3A31181  13.039  38.407   8.048
 2188POPC   C4A31182  13.159  38.304   7.637
 2188POPC   C1B31183  12.725  38.226   8.665
 2188POPC   C2B31184  12.724  38.035   8.282
 2188POPC   C3B31185  12.706  38.107   7.813
 2188POPC   C4B31186  12.686  38.509   7.620
 2189POPC   NC331187   0.132  16.203   9.567
 2189POPC   PO431188  44.975  15.601   9.269
 2189POPC   GL131189  44.892  15.932   9.055
 2189POPC   GL231190  44.579  15.968   8.914
 2189POPC   C1A31191   0.019  16.118   8.703
 2189POPC   D2A31192  44.709  16.104   8.419
 2189POPC   C3A31193  44.818  16.023   8.029
 2189POPC   C4A31194  44.566  15.837   7.765
 2189POPC   C1B31195  44.436  16.368   8.764
 2189POPC   C2B31196  44.435  16.526   8.336
 2189POPC   C3B31197  44.495  16.411   7.921
 2189POPC   C4B31198  44.216  16.202   7.670
 2190POPC   NC331199  14.679   0.920   9.688
 2190POPC   PO431200  14.394   1.518   9.476
 2190POPC   GL131201  14.461   1.271   9.094
 2190POPC   GL231202  14.380   0.923   9.126
 2190POPC   C1A31203  14.245   1.226   8.691
 2190POPC   D2A31204  14.145   1.276   8.244
 2190POPC   C3A31205  14.491   1.246   7.944
 2190POPC   C4A31206  14.472   1.160   7.494
 2190POPC   C1B31207  14.407   0.735   8.698
 2190POPC   C2B31208  14.354   0.806   8.241
 2190POPC   C3B31209  14.349   0.764   7.790
 2190POPC   C4B31210  14.370   0.700   7.302
 2191POPC   NC331211  25.526  33.957   9.373
 2191POPC   PO431212  25.231  34.551   9.562
 2191POPC   GL131213  25.352  34.478   9.156
 2191POPC   GL231214  25.674  34.673   9.168
 2191POPC   C1A31215  25.220  34.556   8.717
 2191POPC   D2A31216  25.163  34.697   8.289
 2191POPC   C3A31217  25.265  34.406   7.992
 2191POPC   C4A31218  25.106  34.485   7.619
 2191POPC   C1B31219  25.712  34.440   8.791
 2191POPC   C2B31220  25.692  34.678   8.418
 2191POPC   C3B31221  25.728  34.623   8.000
 2191POPC   C4B31222  25.452  34.849   7.756
 2192POPC   NC331223  19.760   2.266   9.543
 2192POPC   PO431224  19.171   2.035   9.502
 2192POPC   GL131225  19.525   1.900   9.221
 2192POPC   GL231226  19.778   2.116   9.062
 2192POPC   C1A31227  19.494   1.873   8.729
 2192POPC   D2A31228  19.400   1.765   8.275
 2192POPC   C3A31229  19.668   1.956   7.941
 2192POPC   C4A31230  19.737   1.753   7.524
 2192POPC   C1B31231  19.991   2.210   8.666
 2192POPC   C2B31232  20.048   2.139   8.230
 2192POPC   C3B31233  20.158   2.162   7.818
 2192POPC   C4B31234  20.209   2.578   7.644
 2193POPC   NC331235  28.749  43.147   9.538
 2193POPC   PO431236  29.377  42.859   9.567
 2193POPC   GL131237  29.095  42.960   9.214
 2193POPC   GL231238  29.082  43.308   9.147
 2193POPC   C1A31239  28.819  43.011   8.837
 2193POPC   D2A31240  28.906  42.732   8.487
 2193POPC   C3A31241  28.890  42.878   8.066
 2193POPC   C4A31242  28.787  43.173   7.790
 2193POPC   C1B31243  29.304  43.098   8.776
 2193POPC   C2B31244  29.127  43.200   8.405
 2193POPC   C3B31245  29.190  43.350   8.003
 2193POPC   C4B31246  29.445  43.183   7.712
 2194POPC   NC331247  11.912  39.330   9.553
 2194POPC   PO431248  12.516  39.174   9.251
 2194POPC   GL131249  12.087  39.078   9.122
 2194POPC   GL231250  11.987  39.380   8.998
 2194POPC   C1A31251  11.944  38.915   8.728
 2194POPC   D2A31252  12.133  38.881   8.331
 2194POPC   C3A31253  11.879  39.010   7.988
 2194POPC   C4A31254  11.985  39.351   7.688
 2194POPC   C1B31255  12.274  39.291   8.607
 2194POPC   C2B31256  12.303  39.311   8.118
 2194POPC   C3B31257  12.486  39.317   7.702
 2194POPC   C4B31258  12.350  39.496   7.296
 2195POPC   NC331259  14.076  30.844   9.527
 2195POPC   PO431260  14.179  30.226   9.419
 2195POPC   GL131261  14.351  30.452   9.062
 2195POPC   GL231262  14.565  30.741   9.081
 2195POPC   C1A31263  14.182  30.740   8.768
 2195POPC   D2A31264  14.323  30.987   8.442
 2195POPC   C3A31265  14.207  30.777   8.107
 2195POPC   C4A31266  14.240  30.888   7.735
 2195POPC   C1B31267  14.715  30.655   8.673
 2195POPC   C2B31268  14.691  30.639   8.237
 2195POPC   C3B31269  14.661  30.572   7.809
 2195POPC   C4B31270  14.830  30.528   7.369
 2196POPC   NC331271   7.656  13.244   9.926
 2196POPC   PO431272   8.098  13.013   9.430
 2196POPC   GL131273   8.254  12.976   9.054
 2196POPC   GL231274   8.593  12.994   9.072
 2196POPC   C1A31275   8.063  13.104   8.678
 2196POPC   D2A31276   8.103  13.222   8.249
 2196POPC   C3A31277   8.132  12.880   7.958
 2196POPC   C4A31278   7.814  12.742   7.630
 2196POPC   C1B31279   8.594  13.219   8.718
 2196POPC   C2B31280   8.526  12.987   8.371
 2196POPC   C3B31281   8.704  13.012   8.004
 2196POPC   C4B31282   8.607  13.159   7.638
 2197POPC   NC331283  29.298   0.788   9.474
 2197POPC   PO431284  29.016   1.453   9.534
 2197POPC   GL131285  28.924   1.352   9.162
 2197POPC   GL231286  28.625   1.496   9.087
 2197POPC   C1A31287  29.196   1.374   8.782
 2197POPC   D2A31288  29.358   1.022   8.548
 2197POPC   C3A31289  29.290   0.994   8.120
 2197POPC   C4A31290  29.215   1.168   7.738
 2197POPC   C1B31291  28.742   1.177   8.742
 2197POPC   C2B31292  28.889   1.151   8.366
 2197POPC   C3B31293  28.803   1.326   8.004
 2197POPC   C4B31294  28.588   1.103   7.713
 2198POPC   NC331295   6.438  38.420   9.529
 2198POPC   PO431296   7.116  38.089   9.407
 2198POPC   GL131297   6.762  38.287   9.155
 2198POPC   GL231298   6.407  38.139   9.117
 2198POPC   C1A31299   6.589  38.485   8.785
 2198POPC   D2A31300   6.447  38.717   8.435
 2198POPC   C3A31301   6.677  38.608   8.076
 2198POPC   C4A31302   6.687  38.524   7.624
 2198POPC   C1B31303   6.249  38.064   8.712
 2198POPC   C2B31304   6.484  38.181   8.339
 2198POPC   C3B31305   6.543  38.134   7.901
 2198POPC   C4B31306   6.533  38.050   7.428
 2199POPC   NC331307  17.331   5.252   9.531
 2199POPC   PO431308  17.851   4.898   9.351
 2199POPC   GL131309  17.512   5.050   9.090
 2199POPC   GL231310  17.265   5.346   9.048
 2199POPC   C1A31311  17.674   5.195   8.723
 2199POPC   D2A31312  17.836   4.984   8.413
 2199POPC   C3A31313  17.758   5.142   8.064
 2199POPC   C4A31314  17.714   4.937   7.747
 2199POPC   C1B31315  17.180   5.087   8.690
 2199POPC   C2B31316  17.272   5.168   8.286
 2199POPC   C3B31317  17.274   5.139   7.844
 2199POPC   C4B31318  17.263   5.253   7.426
 2200POPC   NC331319  18.119  39.129   9.499
 2200POPC   PO431320  18.729  39.448   9.532
 2200POPC   GL131321  18.460  39.247   9.145
 2200POPC   GL231322  18.070  39.389   9.082
 2200POPC   C1A31323  18.352  39.328   8.695
 2200POPC   D2A31324  18.072  39.426   8.355
 2200POPC   C3A31325  18.321  39.246   8.056
 2200POPC   C4A31326  18.418  39.079   7.666
 2200POPC   C1B31327  17.746  39.501   8.770
 2200POPC   C2B31328  17.600  39.688   8.397
 2200POPC   C3B31329  17.711  39.570   7.996
 2200POPC   C4B31330  17.965  39.351   7.717
 2201POPC   NC331331  30.856  34.170   9.545
 2201POPC   PO431332  30.491  34.718   9.431
 2201POPC   GL131333  30.707  34.445   9.125
 2201POPC   GL231334  30.481  34.133   9.188
 2201POPC   C1A31335  30.796  34.487   8.666
 2201POPC   D2A31336  30.735  34.569   8.221
 2201POPC   C3A31337  30.982  34.392   7.889
 2201POPC   C4A31338  30.964  34.530   7.484
 2201POPC   C1B31339  30.627  34.009   8.791
 2201POPC   C2B31340  30.800  34.041   8.355
 2201POPC   C3B31341  30.576  34.124   7.966
 2201POPC   C4B31342  30.622  34.158   7.510
 2202POPC   NC331343  42.931  32.234   9.521
 2202POPC   PO431344  43.608  32.218   9.617
 2202POPC   GL131345  43.348  32.219   9.258
 2202POPC   GL231346  43.276  32.576   9.267
 2202POPC   C1A31347  43.135  32.194   8.846
 2202POPC   D2A31348  43.206  31.963   8.478
 2202POPC   C3A31349  43.131  32.084   8.081
 2202POPC   C4A31350  43.222  31.887   7.709
 2202POPC   C1B31351  43.294  32.706   8.828
 2202POPC   C2B31352  43.236  32.507   8.415
 2202POPC   C3B31353  43.289  32.570   7.979
 2202POPC   C4B31354  43.061  32.389   7.657
 2203POPC   NC331355  41.096  43.235   9.408
 2203POPC   PO431356  41.683  43.413   9.558
 2203POPC   GL131357  41.580  43.178   9.158
 2203POPC   GL231358  41.277  42.956   9.046
 2203POPC   C1A31359  41.719  42.890   8.827
 2203POPC   D2A31360  41.815  43.051   8.403
 2203POPC   C3A31361  41.715  42.879   8.006
 2203POPC   C4A31362  41.658  43.087   7.615
 2203POPC   C1B31363  41.323  43.196   8.714
 2203POPC   C2B31364  41.286  42.992   8.365
 2203POPC   C3B31365  41.231  43.035   7.967
 2203POPC   C4B31366  41.291  42.750   7.660
 2204POPC   NC331367  24.184  22.538   9.437
 2204POPC   PO431368  23.861  23.074   9.673
 2204POPC   GL131369  23.776  23.031   9.221
 2204POPC   GL231370  24.040  23.207   9.090
 2204POPC   C1A31371  23.556  22.844   8.836
 2204POPC   D2A31372  23.356  22.959   8.431
 2204POPC   C3A31373  23.511  22.837   8.022
 2204POPC   C4A31374  23.433  22.894   7.526
 2204POPC   C1B31375  24.077  22.841   8.796
 2204POPC   C2B31376  23.915  22.791   8.379
 2204POPC   C3B31377  24.044  22.973   7.992
 2204POPC   C4B31378  23.961  23.012   7.555
 2205POPC   NC331379   4.879  28.471   9.749
 2205POPC   PO431380   4.228  28.335   9.470
 2205POPC   GL131381   4.479  28.073   9.236
 2205POPC   GL231382   4.796  28.243   9.235
 2205POPC   C1A31383   4.544  27.998   8.805
 2205POPC   D2A31384   4.579  28.159   8.382
 2205POPC   C3A31385   4.244  28.412   8.144
 2205POPC   C4A31386   4.365  28.273   7.741
 2205POPC   C1B31387   4.790  28.454   8.801
 2205POPC   C2B31388   4.559  28.674   8.453
 2205POPC   C3B31389   4.700  28.581   8.018
 2205POPC   C4B31390   4.865  28.548   7.593
 2206POPC   NC331391  15.645  23.486   9.510
 2206POPC   PO431392  16.199  23.905   9.452
 2206POPC   GL131393  15.903  23.800   9.110
 2206POPC   GL231394  15.796  23.480   9.038
 2206POPC   C1A31395  15.877  23.976   8.683
 2206POPC   D2A31396  16.040  24.068   8.273
 2206POPC   C3A31397  15.938  23.839   7.903
 2206POPC   C4A31398  16.007  23.637   7.495
 2206POPC   C1B31399  15.902  23.443   8.643
 2206POPC   C2B31400  15.860  23.270   8.233
 2206POPC   C3B31401  15.686  23.400   7.830
 2206POPC   C4B31402  15.594  23.343   7.378
 2207POPC   NC331403   1.087  18.430   9.485
 2207POPC   PO431404   1.543  17.925   9.324
 2207POPC   GL131405   1.214  18.137   9.088
 2207POPC   GL231406   0.888  18.024   9.162
 2207POPC   C1A31407   1.167  18.404   8.737
 2207POPC   D2A31408   1.340  18.623   8.345
 2207POPC   C3A31409   1.350  18.459   7.946
 2207POPC   C4A31410   1.695  18.436   7.673
 2207POPC   C1B31411   0.915  17.939   8.701
 2207POPC   C2B31412   1.138  18.125   8.324
 2207POPC   C3B31413   1.258  17.948   7.945
 2207POPC   C4B31414   0.881  17.902   7.710
 2208POPC   NC331415  12.580  11.869   9.618
 2208POPC   PO431416  13.123  12.068   9.566
 2208POPC   GL131417  12.879  11.879   9.197
 2208POPC   GL231418  12.556  11.662   9.153
 2208POPC   C1A31419  12.894  11.971   8.769
 2208POPC   D2A31420  13.094  12.157   8.427
 2208POPC   C3A31421  12.954  12.020   8.016
 2208POPC   C4A31422  13.154  12.077   7.617
 2208POPC   C1B31423  12.396  12.002   8.892
 2208POPC   C2B31424  12.497  12.035   8.433
 2208POPC   C3B31425  12.432  11.987   7.968
 2208POPC   C4B31426  12.643  12.238   7.629
 2209POPC   NC331427  23.567  27.785   9.496
 2209POPC   PO431428  23.906  27.237   9.653
 2209POPC   GL131429  23.949  27.441   9.223
 2209POPC   GL231430  23.920  27.842   9.135
 2209POPC   C1A31431  23.733  27.481   8.832
 2209POPC   D2A31432  23.632  27.427   8.411
 2209POPC   C3A31433  23.941  27.391   8.106
 2209POPC   C4A31434  23.700  27.464   7.753
 2209POPC   C1B31435  24.014  27.900   8.704
 2209POPC   C2B31436  23.848  27.904   8.277
 2209POPC   C3B31437  24.044  27.838   7.871
 2209POPC   C4B31438  23.927  27.787   7.438
 2210POPC   NC331439  37.240   5.060   9.601
 2210POPC   PO431440  37.831   4.639   9.624
 2210POPC   GL131441  37.730   5.009   9.296
 2210POPC   GL231442  37.410   5.035   9.101
 2210POPC   C1A31443  37.823   5.270   8.879
 2210POPC   D2A31444  37.857   5.208   8.390
 2210POPC   C3A31445  37.558   5.269   8.057
 2210POPC   C4A31446  37.628   5.253   7.627
 2210POPC   C1B31447  37.384   5.107   8.643
 2210POPC   C2B31448  37.154   5.004   8.240
 2210POPC   C3B31449  37.147   5.071   7.787
 2210POPC   C4B31450  37.322   4.813   7.483
 2211POPC   NC331451   5.291  39.049   9.513
 2211POPC   PO431452   5.393  39.739   9.464
 2211POPC   GL131453   5.169  39.439   9.215
 2211POPC   GL231454   5.462  39.302   9.086
 2211POPC   C1A31455   4.935  39.275   8.862
 2211POPC   D2A31456   4.751  39.386   8.474
 2211POPC   C3A31457   4.932  39.222   8.121
 2211POPC   C4A31458   5.095  39.181   7.717
 2211POPC   C1B31459   5.304  38.918   8.901
 2211POPC   C2B31460   5.204  38.964   8.494
 2211POPC   C3B31461   5.417  39.067   8.128
 2211POPC   C4B31462   5.383  38.777   7.778
 2212POPC   NC331463  37.642  34.481   9.656
 2212POPC   PO431464  38.011  34.892   9.260
 2212POPC   GL131465  37.690  34.627   9.179
 2212POPC   GL231466  37.921  34.338   9.248
 2212POPC   C1A31467  37.497  34.657   8.802
 2212POPC   D2A31468  37.672  34.951   8.469
 2212POPC   C3A31469  37.660  34.833   8.054
 2212POPC   C4A31470  37.430  34.621   7.754
 2212POPC   C1B31471  37.875  34.283   8.809
 2212POPC   C2B31472  37.658  34.338   8.395
 2212POPC   C3B31473  37.845  34.356   7.992
 2212POPC   C4B31474  37.993  34.646   7.695
 2213POPC   NC331475   0.621  38.135   9.401
 2213POPC   PO431476   0.478  37.488   9.588
 2213POPC   GL131477   0.430  37.709   9.198
 2213POPC   GL231478   0.127  37.885   9.133
 2213POPC   C1A31479   0.536  37.868   8.783
 2213POPC   D2A31480   0.831  37.990   8.445
 2213POPC   C3A31481   0.835  37.874   8.016
 2213POPC   C4A31482   0.684  37.551   7.794
 2213POPC   C1B31483   0.053  37.518   8.923
 2213POPC   C2B31484   0.181  37.641   8.503
 2213POPC   C3B31485   0.311  37.775   8.096
 2213POPC   C4B31486   0.233  37.653   7.656
 2214POPC   NC331487   7.232  41.692   9.580
 2214POPC   PO431488   7.889  41.685   9.454
 2214POPC   GL131489   7.575  41.547   9.164
 2214POPC   GL231490   7.201  41.477   9.124
 2214POPC   C1A31491   7.473  41.662   8.753
 2214POPC   D2A31492   7.469  41.583   8.363
 2214POPC   C3A31493   7.573  41.807   8.031
 2214POPC   C4A31494   7.517  41.706   7.615
 2214POPC   C1B31495   6.958  41.617   8.786
 2214POPC   C2B31496   6.954  41.435   8.391
 2214POPC   C3B31497   7.111  41.557   7.989
 2214POPC   C4B31498   7.016  41.730   7.561
 2215POPC   NC331499  26.906  43.778   9.939
 2215POPC   PO431500  26.856  43.197   9.472
 2215POPC   GL131501  26.772  43.180   9.078
 2215POPC   GL231502  27.026  42.927   9.012
 2215POPC   C1A31503  26.559  42.946   8.768
 2215POPC   D2A31504  26.260  42.953   8.448
 2215POPC   C3A31505  26.398  42.951   8.054
 2215POPC   C4A31506  26.539  42.678   7.733
 2215POPC   C1B31507  27.054  43.018   8.581
 2215POPC   C2B31508  26.793  43.203   8.348
 2215POPC   C3B31509  26.730  43.319   7.952
 2215POPC   C4B31510  27.000  43.280   7.653
 2216POPC   NC331511   9.771   1.880   9.480
 2216POPC   PO431512   9.678   1.160   9.500
 2216POPC   GL131513   9.833   1.204   9.077
 2216POPC   GL231514   9.859   0.846   9.008
 2216POPC   C1A31515   9.843   1.154   8.610
 2216POPC   D2A31516   9.812   1.065   8.181
 2216POPC   C3A31517   9.915   1.394   7.829
 2216POPC   C4A31518  10.032   1.549   7.382
 2216POPC   C1B31519   9.427   0.999   8.847
 2216POPC   C2B31520   9.347   1.159   8.409
 2216POPC   C3B31521   9.357   0.957   7.989
 2216POPC   C4B31522   9.294   0.740   7.606
 2217POPC   NC331523  18.781   4.916   9.564
 2217POPC   PO431524  19.163   5.388   9.293
 2217POPC   GL131525  18.940   5.136   9.090
 2217POPC   GL231526  18.652   5.290   9.047
 2217POPC   C1A31527  19.017   5.105   8.654
 2217POPC   D2A31528  19.224   4.923   8.315
 2217POPC   C3A31529  19.115   5.007   7.932
 2217POPC   C4A31530  18.935   4.876   7.575
 2217POPC   C1B31531  18.584   5.352   8.598
 2217POPC   C2B31532  18.792   5.286   8.210
 2217POPC   C3B31533  18.673   5.280   7.764
 2217POPC   C4B31534  18.731   5.268   7.286
 2218POPC   NC331535  24.832  10.468   9.318
 2218POPC   PO431536  25.464  10.769   9.401
 2218POPC   GL131537  25.288  10.566   9.108
 2218POPC   GL231538  25.351  10.256   9.311
 2218POPC   C1A31539  25.165  10.690   8.689
 2218POPC   D2A31540  25.232  11.036   8.365
 2218POPC   C3A31541  25.179  10.869   7.955
 2218POPC   C4A31542  24.921  10.585   7.694
 2218POPC   C1B31543  25.489  10.165   8.881
 2218POPC   C2B31544  25.554  10.347   8.464
 2218POPC   C3B31545  25.335  10.393   8.064
 2218POPC   C4B31546  25.411  10.477   7.631
 2219POPC   NC331547  26.461  32.401   9.556
 2219POPC   PO431548  25.845  32.023   9.480
 2219POPC   GL131549  26.076  32.267   9.184
 2219POPC   GL231550  26.000  32.603   9.343
 2219POPC   C1A31551  26.193  32.265   8.717
 2219POPC   D2A31552  25.975  32.133   8.323
 2219POPC   C3A31553  26.107  32.136   7.878
 2219POPC   C4A31554  26.108  31.994   7.425
 2219POPC   C1B31555  25.882  32.650   8.909
 2219POPC   C2B31556  25.926  32.763   8.492
 2219POPC   C3B31557  26.089  32.605   8.123
 2219POPC   C4B31558  25.955  32.682   7.718
 2220POPC   NC331559  25.071  13.794   9.398
 2220POPC   PO431560  25.603  13.346   9.520
 2220POPC   GL131561  25.362  13.431   9.178
 2220POPC   GL231562  25.506  13.768   9.133
 2220POPC   C1A31563  25.170  13.489   8.766
 2220POPC   D2A31564  25.405  13.553   8.358
 2220POPC   C3A31565  25.252  13.588   7.950
 2220POPC   C4A31566  25.155  13.519   7.544
 2220POPC   C1B31567  25.444  13.912   8.756
 2220POPC   C2B31568  25.097  13.934   8.494
 2220POPC   C3B31569  25.097  14.051   8.079
 2220POPC   C4B31570  24.998  13.996   7.685
 2221POPC   NC331571  11.169  40.002   9.644
 2221POPC   PO431572  11.717  40.429   9.379
 2221POPC   GL131573  11.434  40.228   9.115
 2221POPC   GL231574  11.118  40.307   9.201
 2221POPC   C1A31575  11.366  39.987   8.743
 2221POPC   D2A31576  11.375  39.698   8.395
 2221POPC   C3A31577  11.268  39.873   7.982
 2221POPC   C4A31578  11.387  40.282   7.800
 2221POPC   C1B31579  10.877  40.126   8.895
 2221POPC   C2B31580  10.919  40.038   8.497
 2221POPC   C3B31581  11.125  40.272   8.254
 2221POPC   C4B31582  10.916  40.387   7.906
 2222POPC   NC331583  36.877  20.477   9.639
 2222POPC   PO431584  36.550  21.040   9.732
 2222POPC   GL131585  36.766  20.828   9.297
 2222POPC   GL231586  36.738  20.476   9.157
 2222POPC   C1A31587  36.772  20.866   8.844
 2222POPC   D2A31588  36.766  20.798   8.397
 2222POPC   C3A31589  37.024  20.711   8.033
 2222POPC   C4A31590  36.674  20.727   7.687
 2222POPC   C1B31591  36.787  20.343   8.741
 2222POPC   C2B31592  36.923  20.286   8.319
 2222POPC   C3B31593  36.824  20.274   7.857
 2222POPC   C4B31594  37.101  20.472   7.564
 2223POPC   NC331595  19.251  12.897   9.645
 2223POPC   PO431596  19.906  12.708   9.452
 2223POPC   GL131597  20.018  12.805   9.074
 2223POPC   GL231598  20.239  13.041   9.108
 2223POPC   C1A31599  19.898  12.702   8.685
 2223POPC   D2A31600  19.689  12.627   8.311
 2223POPC   C3A31601  19.880  12.760   7.937
 2223POPC   C4A31602  19.690  12.694   7.550
 2223POPC   C1B31603  20.227  13.115   8.699
 2223POPC   C2B31604  20.029  13.072   8.329
 2223POPC   C3B31605  20.201  13.162   7.962
 2223POPC   C4B31606  20.276  12.957   7.593
 2224POPC   NC331607  10.995  13.481   9.503
 2224POPC   PO431608  11.567  13.685   9.388
 2224POPC   GL131609  11.392  13.612   9.036
 2224POPC   GL231610  11.104  13.747   9.095
 2224POPC   C1A31611  11.407  13.472   8.631
 2224POPC   D2A31612  11.675  13.404   8.311
 2224POPC   C3A31613  11.524  13.692   8.004
 2224POPC   C4A31614  11.450  13.570   7.614
 2224POPC   C1B31615  10.930  13.591   8.757
 2224POPC   C2B31616  11.028  13.660   8.336
 2224POPC   C3B31617  11.013  13.567   7.926
 2224POPC   C4B31618  10.963  13.883   7.675
 2225POPC   NC331619  32.080   1.114   9.310
 2225POPC   PO431620  32.772   1.051   9.571
 2225POPC   GL131621  32.575   0.979   9.165
 2225POPC   GL231622  32.440   1.264   8.989
 2225POPC   C1A31623  32.499   0.832   8.728
 2225POPC   D2A31624  32.340   0.780   8.289
 2225POPC   C3A31625  32.355   1.157   8.010
 2225POPC   C4A31626  32.431   1.608   7.864
 2225POPC   C1B31627  32.166   1.221   8.644
 2225POPC   C2B31628  32.159   1.500   8.324
 2225POPC   C3B31629  32.002   1.791   8.076
 2225POPC   C4B31630  31.894   1.690   7.645
 2226POPC   NC331631  27.933  34.160   9.399
 2226POPC   PO431632  27.406  33.751   9.447
 2226POPC   GL131633  27.576  33.865   9.110
 2226POPC   GL231634  27.862  33.685   9.169
 2226POPC   C1A31635  27.572  33.719   8.704
 2226POPC   D2A31636  27.520  33.999   8.375
 2226POPC   C3A31637  27.472  33.826   8.008
 2226POPC   C4A31638  27.713  33.990   7.676
 2226POPC   C1B31639  27.903  33.349   8.882
 2226POPC   C2B31640  27.856  33.248   8.459
 2226POPC   C3B31641  27.938  33.442   8.056
 2226POPC   C4B31642  27.678  33.458   7.712
 2227POPC   NC331643  32.201  30.459   9.487
 2227POPC   PO431644  32.486  31.016   9.402
 2227POPC   GL131645  32.164  30.846   9.134
 2227POPC   GL231646  31.862  31.037   9.081
 2227POPC   C1A31647  32.099  30.487   8.847
 2227POPC   D2A31648  32.370  30.284   8.539
 2227POPC   C3A31649  32.423  30.556   8.176
 2227POPC   C4A31650  32.389  30.544   7.746
 2227POPC   C1B31651  32.023  30.973   8.657
 2227POPC   C2B31652  31.955  30.629   8.353
 2227POPC   C3B31653  31.918  30.525   7.908
 2227POPC   C4B31654  32.017  30.868   7.617
 2228POPC   NC331655  16.104   7.815   9.337
 2228POPC   PO431656  15.989   7.122   9.476
 2228POPC   GL131657  16.100   7.315   9.101
 2228POPC   GL231658  15.794   7.433   9.010
 2228POPC   C1A31659  16.225   7.199   8.687
 2228POPC   D2A31660  16.394   7.084   8.302
 2228POPC   C3A31661  16.111   7.117   7.978
 2228POPC   C4A31662  16.103   7.375   7.616
 2228POPC   C1B31663  15.504   7.660   8.701
 2228POPC   C2B31664  15.427   7.550   8.280
 2228POPC   C3B31665  15.679   7.518   7.888
 2228POPC   C4B31666  15.586   7.410   7.437
 2229POPC   NC331667  14.913   2.268   9.499
 2229POPC   PO431668  15.330   1.729   9.375
 2229POPC   GL131669  15.267   2.035   9.052
 2229POPC   GL231670  14.985   1.984   9.086
 2229POPC   C1A31671  15.287   2.096   8.629
 2229POPC   D2A31672  15.349   1.823   8.310
 2229POPC   C3A31673  15.202   1.957   7.966
 2229POPC   C4A31674  15.221   1.796   7.599
 2229POPC   C1B31675  14.810   2.236   8.803
 2229POPC   C2B31676  14.655   2.131   8.415
 2229POPC   C3B31677  14.869   2.300   8.117
 2229POPC   C4B31678  14.973   2.424   7.715
 2230POPC   NC331679  43.665  16.060   9.507
 2230POPC   PO431680  44.367  16.096   9.390
 2230POPC   GL131681  44.087  16.071   9.027
 2230POPC   GL231682  43.735  16.154   9.015
 2230POPC   C1A31683  44.172  15.927   8.592
 2230POPC   D2A31684  44.265  16.019   8.165
 2230POPC   C3A31685  43.979  15.815   7.898
 2230POPC   C4A31686  43.565  15.957   7.907
 2230POPC   C1B31687  43.685  15.804   8.746
 2230POPC   C2B31688  43.742  15.672   8.339
 2230POPC   C3B31689  43.548  15.441   8.014
 2230POPC   C4B31690  43.557  15.581   7.574
 2231POPC   NC331691   2.446  27.777   9.348
 2231POPC   PO431692   2.978  27.365   9.451
 2231POPC   GL131693   2.981  27.482   9.049
 2231POPC   GL231694   2.893  27.848   9.101
 2231POPC   C1A31695   2.782  27.516   8.631
 2231POPC   D2A31696   2.428  27.693   8.382
 2231POPC   C3A31697   2.532  27.659   7.971
 2231POPC   C4A31698   2.707  27.465   7.595
 2231POPC   C1B31699   3.162  27.850   8.762
 2231POPC   C2B31700   3.247  27.613   8.376
 2231POPC   C3B31701   3.022  27.576   7.974
 2231POPC   C4B31702   2.956  27.891   7.595
 2232POPC   NC331703  11.911  13.229   9.815
 2232POPC   PO431704  12.146  12.658   9.483
 2232POPC   GL131705  12.035  12.891   9.150
 2232POPC   GL231706  11.697  12.760   9.155
 2232POPC   C1A31707  12.074  13.151   8.734
 2232POPC   D2A31708  12.365  13.079   8.389
 2232POPC   C3A31709  12.288  12.737   8.104
 2232POPC   C4A31710  12.240  12.634   7.685
 2232POPC   C1B31711  11.890  12.673   8.738
 2232POPC   C2B31712  11.846  12.859   8.362
 2232POPC   C3B31713  11.796  12.779   7.952
 2232POPC   C4B31714  11.695  13.107   7.637
 2233POPC   NC331715  18.092   4.609   9.616
 2233POPC   PO431716  18.750   4.468   9.437
 2233POPC   GL131717  18.501   4.339   9.103
 2233POPC   GL231718  18.137   4.428   9.142
 2233POPC   C1A31719  18.434   4.344   8.677
 2233POPC   D2A31720  18.254   4.101   8.367
 2233POPC   C3A31721  18.226   4.229   7.944
 2233POPC   C4A31722  18.048   4.144   7.550
 2233POPC   C1B31723  18.052   4.668   8.772
 2233POPC   C2B31724  18.277   4.754   8.394
 2233POPC   C3B31725  18.095   4.716   8.003
 2233POPC   C4B31726  17.762   4.434   7.858
 2234POPC   NC331727  12.351   9.544   9.419
 2234POPC   PO431728  11.993  10.139   9.560
 2234POPC   GL131729  11.964   9.996   9.156
 2234POPC   GL231730  12.322   9.987   9.162
 2234POPC   C1A31731  11.900   9.841   8.730
 2234POPC   D2A31732  12.120   9.598   8.450
 2234POPC   C3A31733  12.011   9.736   8.085
 2234POPC   C4A31734  12.043   9.704   7.678
 2234POPC   C1B31735  12.408   9.922   8.770
 2234POPC   C2B31736  12.538   9.907   8.373
 2234POPC   C3B31737  12.358  10.084   8.007
 2234POPC   C4B31738  12.395  10.038   7.579
 2235POPC   NC331739  11.686  31.935   9.835
 2235POPC   PO431740  11.522  31.361   9.531
 2235POPC   GL131741  11.505  31.405   9.102
 2235POPC   GL231742  11.200  31.555   9.056
 2235POPC   C1A31743  11.437  31.207   8.697
 2235POPC   D2A31744  11.645  31.405   8.322
 2235POPC   C3A31745  11.527  31.328   7.902
 2235POPC   C4A31746  11.449  31.400   7.443
 2235POPC   C1B31747  11.289  31.703   8.625
 2235POPC   C2B31748  11.273  31.766   8.157
 2235POPC   C3B31749  11.094  31.574   7.758
 2235POPC   C4B31750  11.010  31.662   7.291
 2236POPC   NC331751  37.781  38.710   9.508
 2236POPC   PO431752  37.974  38.004   9.497
 2236POPC   GL131753  37.801  38.278   9.192
 2236POPC   GL231754  38.114  38.448   9.163
 2236POPC   C1A31755  37.659  38.485   8.798
 2236POPC   D2A31756  37.758  38.823   8.481
 2236POPC   C3A31757  37.712  38.735   8.027
 2236POPC   C4A31758  37.483  38.636   7.642
 2236POPC   C1B31759  38.071  38.188   8.758
 2236POPC   C2B31760  37.891  38.292   8.332
 2236POPC   C3B31761  37.962  38.307   7.876
 2236POPC   C4B31762  37.700  38.184   7.545
 2237POPC   NC331763  44.990  31.202   9.520
 2237POPC   PO431764   0.628  30.907   9.516
 2237POPC   GL131765   0.575  30.815   9.130
 2237POPC   GL231766   0.225  30.846   9.173
 2237POPC   C1A31767   0.724  30.774   8.708
 2237POPC   D2A31768   0.482  30.681   8.319
 2237POPC   C3A31769   0.605  30.949   7.949
 2237POPC   C4A31770   0.667  30.907   7.495
 2237POPC   C1B31771   0.218  30.631   8.789
 2237POPC   C2B31772   0.019  30.381   8.490
 2237POPC   C3B31773   0.272  30.262   8.147
 2237POPC   C4B31774   0.300  30.573   7.795
 2238POPC   NC331775   7.231  14.059   9.532
 2238POPC   PO431776   7.708  13.566   9.591
 2238POPC   GL131777   7.534  13.714   9.196
 2238POPC   GL231778   7.602  14.064   9.193
 2238POPC   C1A31779   7.318  13.557   8.781
 2238POPC   D2A31780   7.270  13.452   8.302
 2238POPC   C3A31781   7.299  13.575   7.842
 2238POPC   C4A31782   7.389  13.469   7.420
 2238POPC   C1B31783   7.238  14.066   8.883
 2238POPC   C2B31784   7.329  13.960   8.461
 2238POPC   C3B31785   7.352  14.045   8.032
 2238POPC   C4B31786   7.722  13.955   7.760
 2239POPC   NC331787  41.106  36.043   9.542
 2239POPC   PO431788  40.399  36.108   9.453
 2239POPC   GL131789  40.751  36.035   9.174
 2239POPC   GL231790  40.833  36.385   9.130
 2239POPC   C1A31791  40.742  36.025   8.731
 2239POPC   D2A31792  40.575  36.339   8.452
 2239POPC   C3A31793  40.670  36.227   8.028
 2239POPC   C4A31794  40.498  36.081   7.665
 2239POPC   C1B31795  41.095  36.414   8.735
 2239POPC   C2B31796  41.108  36.282   8.307
 2239POPC   C3B31797  41.084  36.523   7.919
 2239POPC   C4B31798  40.766  36.525   7.595
 2240POPC   NC331799  23.895  28.730   9.477
 2240POPC   PO431800  24.125  29.364   9.573
 2240POPC   GL131801  23.999  29.229   9.184
 2240POPC   GL231802  23.698  29.130   9.162
 2240POPC   C1A31803  23.927  29.302   8.742
 2240POPC   D2A31804  24.158  29.151   8.434
 2240POPC   C3A31805  23.916  29.162   8.097
 2240POPC   C4A31806  23.880  29.065   7.699
 2240POPC   C1B31807  23.458  29.122   8.782
 2240POPC   C2B31808  23.492  29.303   8.373
 2240POPC   C3B31809  23.419  29.041   8.007
 2240POPC   C4B31810  23.106  29.008   7.697
 2241POPC   NC331811  42.178   8.716   9.411
 2241POPC   PO431812  42.216   9.314   9.223
 2241POPC   GL131813  42.344   9.003   9.003
 2241POPC   GL231814  42.229   8.669   8.902
 2241POPC   C1A31815  42.407   9.066   8.597
 2241POPC   D2A31816  42.229   8.837   8.279
 2241POPC   C3A31817  42.309   9.141   7.977
 2241POPC   C4A31818  42.026   9.430   7.829
 2241POPC   C1B31819  42.600   8.597   8.602
 2241POPC   C2B31820  42.704   8.663   8.141
 2241POPC   C3B31821  42.394   8.684   7.771
 2241POPC   C4B31822  42.389   8.543   7.321
 2242POPC   NC331823  32.758   7.347   9.443
 2242POPC   PO431824  33.420   7.394   9.303
 2242POPC   GL131825  33.112   7.410   9.020
 2242POPC   GL231826  32.848   7.683   9.060
 2242POPC   C1A31827  33.151   7.563   8.598
 2242POPC   D2A31828  33.347   7.719   8.199
 2242POPC   C3A31829  33.210   7.444   7.892
 2242POPC   C4A31830  33.040   7.162   7.594
 2242POPC   C1B31831  32.669   7.351   8.774
 2242POPC   C2B31832  32.795   7.273   8.353
 2242POPC   C3B31833  32.677   7.327   7.929
 2242POPC   C4B31834  32.798   7.675   7.658
 2243POPC   NC331835  28.360  11.092   9.542
 2243POPC   PO431836  28.105  11.776   9.664
 2243POPC   GL131837  28.052  11.503   9.303
 2243POPC   GL231838  28.412  11.484   9.211
 2243POPC   C1A31839  28.064  11.268   8.906
 2243POPC   D2A31840  28.369  11.162   8.567
 2243POPC   C3A31841  28.241  11.085   8.140
 2243POPC   C4A31842  28.489  11.165   7.763
 2243POPC   C1B31843  28.658  11.507   8.824
 2243POPC   C2B31844  28.810  11.580   8.427
 2243POPC   C3B31845  28.498  11.583   8.106
 2243POPC   C4B31846  28.556  11.656   7.670
 2244POPC   NC331847  20.300  40.120   9.388
 2244POPC   PO431848  19.680  40.171   9.482
 2244POPC   GL131849  19.875  40.005   9.123
 2244POPC   GL231850  19.701  39.726   9.046
 2244POPC   C1A31851  20.131  40.054   8.745
 2244POPC   D2A31852  20.095  40.387   8.494
 2244POPC   C3A31853  20.175  40.374   8.071
 2244POPC   C4A31854  20.097  40.112   7.761
 2244POPC   C1B31855  19.621  40.016   8.662
 2244POPC   C2B31856  19.756  40.117   8.215
 2244POPC   C3B31857  19.604  40.161   7.791
 2244POPC   C4B31858  19.322  40.298   7.469
 2245POPC   NC331859  18.892  38.121   9.449
 2245POPC   PO431860  19.221  38.618   9.816
 2245POPC   GL131861  18.898  38.576   9.285
 2245POPC   GL231862  19.014  38.298   9.006
 2245POPC   C1A31863  18.913  38.741   8.827
 2245POPC   D2A31864  19.184  38.441   8.532
 2245POPC   C3A31865  19.080  38.370   8.088
 2245POPC   C4A31866  18.804  38.596   7.835
 2245POPC   C1B31867  18.652  38.322   8.725
 2245POPC   C2B31868  18.483  38.240   8.315
 2245POPC   C3B31869  18.668  37.979   8.041
 2245POPC   C4B31870  18.838  37.950   7.650
 2246POPC   NC331871  29.214  19.435   9.838
 2246POPC   PO431872  28.971  18.945   9.460
 2246POPC   GL131873  29.192  18.940   9.130
 2246POPC   GL231874  29.257  19.269   9.146
 2246POPC   C1A31875  28.975  18.969   8.760
 2246POPC   D2A31876  29.071  18.935   8.358
 2246POPC   C3A31877  28.906  19.230   8.106
 2246POPC   C4A31878  28.858  18.957   7.760
 2246POPC   C1B31879  29.440  19.235   8.743
 2246POPC   C2B31880  29.471  19.306   8.317
 2246POPC   C3B31881  29.365  19.095   7.934
 2246POPC   C4B31882  29.303  19.050   7.501
 2247POPC   NC331883  19.140  10.821   9.392
 2247POPC   PO431884  19.156  10.098   9.508
 2247POPC   GL131885  18.945  10.346   9.163
 2247POPC   GL231886  19.250  10.404   9.089
 2247POPC   C1A31887  18.892  10.242   8.699
 2247POPC   D2A31888  19.178  10.390   8.343
 2247POPC   C3A31889  19.241  10.144   7.991
 2247POPC   C4A31890  18.844  10.107   7.877
 2247POPC   C1B31891  19.146  10.681   8.752
 2247POPC   C2B31892  18.755  10.686   8.446
 2247POPC   C3B31893  18.799  10.673   7.994
 2247POPC   C4B31894  19.241  10.627   7.844
 2248POPC   NC331895  43.968   1.744   9.486
 2248POPC   PO431896  43.433   2.231   9.500
 2248POPC   GL131897  43.798   2.141   9.144
 2248POPC   GL231898  44.092   1.895   9.035
 2248POPC   C1A31899  43.781   2.017   8.674
 2248POPC   D2A31900  43.645   1.854   8.290
 2248POPC   C3A31901  43.750   2.043   7.921
 2248POPC   C4A31902  43.540   2.094   7.539
 2248POPC   C1B31903  44.295   1.922   8.670
 2248POPC   C2B31904  44.167   2.060   8.288
 2248POPC   C3B31905  44.250   1.912   7.883
 2248POPC   C4B31906  44.028   1.907   7.509
 2249POPC   NC331907   9.823   5.598   9.686
 2249POPC   PO431908   9.418   6.183   9.610
 2249POPC   GL131909   9.765   6.036   9.303
 2249POPC   GL231910   9.792   5.665   9.184
 2249POPC   C1A31911   9.782   6.034   8.832
 2249POPC   D2A31912   9.931   6.160   8.444
 2249POPC   C3A31913   9.664   6.172   8.111
 2249POPC   C4A31914   9.691   6.080   7.716
 2249POPC   C1B31915   9.755   5.497   8.764
 2249POPC   C2B31916   9.663   5.698   8.403
 2249POPC   C3B31917   9.452   5.722   8.036
 2249POPC   C4B31918   9.587   5.595   7.633
 2250POPC   NC331919  34.538  34.137   9.789
 2250POPC   PO431920  34.766  34.633   9.397
 2250POPC   GL131921  34.613  34.689   9.027
 2250POPC   GL231922  34.434  34.387   9.092
 2250POPC   C1A31923  34.619  34.905   8.632
 2250POPC   D2A31924  34.276  34.934   8.317
 2250POPC   C3A31925  34.288  34.918   7.884
 2250POPC   C4A31926  34.305  34.529   7.676
 2250POPC   C1B31927  34.541  34.289   8.714
 2250POPC   C2B31928  34.535  34.481   8.354
 2250POPC   C3B31929  34.468  34.246   8.051
 2250POPC   C4B31930  34.666  34.109   7.704
 2251POPC   NC331931  33.827   7.612   9.348
 2251POPC   PO431932  33.988   6.980   9.494
 2251POPC   GL131933  33.834   7.140   9.088
 2251POPC   GL231934  33.499   6.989   9.015
 2251POPC   C1A31935  33.669   7.359   8.679
 2251POPC   D2A31936  33.563   7.248   8.230
 2251POPC   C3A31937  33.762   7.554   7.907
 2251POPC   C4A31938  34.216   7.759   7.899
 2251POPC   C1B31939  33.751   6.850   8.662
 2251POPC   C2B31940  33.965   6.884   8.282
 2251POPC   C3B31941  33.887   6.972   7.851
 2251POPC   C4B31942  33.563   7.171   7.588
 2252POPC   NC331943  24.428  35.379   9.441
 2252POPC   PO431944  25.071  35.214   9.463
 2252POPC   GL131945  24.811  35.246   9.089
 2252POPC   GL231946  24.521  35.035   9.076
 2252POPC   C1A31947  24.647  35.404   8.694
 2252POPC   D2A31948  24.566  35.580   8.276
 2252POPC   C3A31949  24.190  35.657   8.082
 2252POPC   C4A31950  24.375  35.570   7.695
 2252POPC   C1B31951  24.220  34.907   8.777
 2252POPC   C2B31952  24.312  35.112   8.401
 2252POPC   C3B31953  24.422  35.160   7.992
 2252POPC   C4B31954  24.730  34.847   7.839
 2253POPC   NC331955   7.339  11.743   9.310
 2253POPC   PO431956   7.181  11.142   9.370
 2253POPC   GL131957   7.401  11.271   9.032
 2253POPC   GL231958   7.726  11.231   9.195
 2253POPC   C1A31959   7.345  11.555   8.667
 2253POPC   D2A31960   7.239  11.622   8.225
 2253POPC   C3A31961   7.238  11.209   8.044
 2253POPC   C4A31962   7.405  11.036   7.676
 2253POPC   C1B31963   7.831  11.392   8.774
 2253POPC   C2B31964   7.651  11.274   8.374
 2253POPC   C3B31965   7.711  11.426   7.966
 2253POPC   C4B31966   7.677  11.420   7.500
 2254POPC   NC331967   3.530  14.751   9.484
 2254POPC   PO431968   3.347  15.377   9.475
 2254POPC   GL131969   3.534  15.177   9.091
 2254POPC   GL231970   3.494  14.838   8.990
 2254POPC   C1A31971   3.619  15.249   8.644
 2254POPC   D2A31972   3.388  15.293   8.231
 2254POPC   C3A31973   3.629  15.490   7.868
 2254POPC   C4A31974   3.854  15.526   7.456
 2254POPC   C1B31975   3.372  14.803   8.572
 2254POPC   C2B31976   3.715  14.792   8.270
 2254POPC   C3B31977   3.604  14.947   7.895
 2254POPC   C4B31978   3.139  14.908   7.883
 2255POPC   NC331979   6.134  21.857   9.400
 2255POPC   PO431980   6.795  22.062   9.401
 2255POPC   GL131981   6.618  22.070   9.041
 2255POPC   GL231982   6.305  22.252   9.083
 2255POPC   C1A31983   6.718  22.284   8.666
 2255POPC   D2A31984   7.066  22.273   8.379
 2255POPC   C3A31985   6.976  22.411   7.999
 2255POPC   C4A31986   6.931  22.091   7.720
 2255POPC   C1B31987   6.269  22.024   8.675
 2255POPC   C2B31988   6.420  22.007   8.241
 2255POPC   C3B31989   6.446  22.163   7.813
 2255POPC   C4B31990   6.305  22.490   7.519
 2256POPC   NC331991  22.220  34.647   9.542
 2256POPC   PO431992  21.684  34.442   9.350
 2256POPC   GL131993  21.957  34.702   9.113
 2256POPC   GL231994  22.316  34.519   9.063
 2256POPC   C1A31995  22.082  34.836   8.741
 2256POPC   D2A31996  22.277  34.627   8.425
 2256POPC   C3A31997  22.080  34.745   8.050
 2256POPC   C4A31998  22.146  34.624   7.641
 2256POPC   C1B31999  22.091  34.274   8.759
 2256POPC   C2B32000  21.991  34.200   8.306
 2256POPC   C3B32001  21.852  34.273   7.868
 2256POPC   C4B32002  21.830  34.253   7.389
 2257POPC   NC332003  34.045  12.663   9.587
 2257POPC   PO432004  33.441  12.820   9.537
 2257POPC   GL132005  33.700  12.713   9.191
 2257POPC   GL232006  33.869  13.015   9.263
 2257POPC   C1A32007  33.639  12.531   8.766
 2257POPC   D2A32008  33.438  12.651   8.345
 2257POPC   C3A32009  33.634  12.565   7.918
 2257POPC   C4A32010  33.634  12.800   7.523
 2257POPC   C1B32011  34.023  13.066   8.867
 2257POPC   C2B32012  33.929  12.866   8.495
 2257POPC   C3B32013  34.053  12.822   8.104
 2257POPC   C4B32014  34.400  13.018   7.959
 2258POPC   NC332015  42.879  36.444   9.576
 2258POPC   PO432016  43.490  36.118   9.433
 2258POPC   GL132017  43.243  36.428   9.188
 2258POPC   GL232018  43.001  36.184   9.077
 2258POPC   C1A32019  43.175  36.545   8.733
 2258POPC   D2A32020  42.984  36.341   8.342
 2258POPC   C3A32021  43.110  36.485   7.932
 2258POPC   C4A32022  43.151  36.485   7.465
 2258POPC   C1B32023  43.021  35.941   8.679
 2258POPC   C2B32024  42.781  35.677   8.369
 2258POPC   C3B32025  42.671  35.730   7.957
 2258POPC   C4B32026  42.830  36.105   7.746
 2259POPC   NC332027  44.359  36.984   9.551
 2259POPC   PO432028  44.982  36.660   9.700
 2259POPC   GL132029  44.867  36.913   9.285
 2259POPC   GL232030  44.533  37.003   9.085
 2259POPC   C1A32031  44.976  37.015   8.848
 2259POPC   D2A32032  44.678  37.013   8.499
 2259POPC   C3A32033  44.849  36.789   8.127
 2259POPC   C4A32034  44.903  36.996   7.745
 2259POPC   C1B32035  44.433  37.386   8.844
 2259POPC   C2B32036  44.409  37.455   8.401
 2259POPC   C3B32037  44.491  37.180   8.022
 2259POPC   C4B32038  44.478  37.173   7.519
 2260POPC   NC332039  27.528  10.692   9.457
 2260POPC   PO432040  27.886  10.114   9.341
 2260POPC   GL132041  27.659  10.337   9.031
 2260POPC   GL232042  27.329  10.384   9.097
 2260POPC   C1A32043  27.548  10.504   8.619
 2260POPC   D2A32044  27.779  10.739   8.298
 2260POPC   C3A32045  27.760  10.459   7.945
 2260POPC   C4A32046  27.399  10.245   7.746
 2260POPC   C1B32047  27.204  10.799   8.868
 2260POPC   C2B32048  27.266  10.980   8.424
 2260POPC   C3B32049  27.327  10.749   8.032
 2260POPC   C4B32050  27.651  10.935   7.818
 2261POPC   NC332051   8.339  22.470   9.514
 2261POPC   PO432052   8.615  23.128   9.422
 2261POPC   GL132053   8.227  23.030   9.235
 2261POPC   GL232054   7.990  23.283   9.087
 2261POPC   C1A32055   8.196  22.811   8.865
 2261POPC   D2A32056   8.477  22.871   8.544
 2261POPC   C3A32057   8.315  22.801   8.164
 2261POPC   C4A32058   8.137  22.795   7.752
 2261POPC   C1B32059   8.151  23.324   8.685
 2261POPC   C2B32060   8.066  23.222   8.278
 2261POPC   C3B32061   8.252  23.265   7.890
 2261POPC   C4B32062   8.128  23.198   7.465
 2262POPC   NC332063  27.297  22.964   9.456
 2262POPC   PO432064  27.809  23.222   9.563
 2262POPC   GL132065  27.693  23.045   9.134
 2262POPC   GL232066  27.430  22.756   9.010
 2262POPC   C1A32067  27.508  23.195   8.758
 2262POPC   D2A32068  27.643  23.178   8.341
 2262POPC   C3A32069  27.501  22.903   8.045
 2262POPC   C4A32070  27.330  23.118   7.698
 2262POPC   C1B32071  27.786  22.693   8.736
 2262POPC   C2B32072  27.968  22.780   8.325
 2262POPC   C3B32073  27.957  22.644   7.913
 2262POPC   C4B32074  27.697  22.783   7.576
 2263POPC   NC332075  16.434  19.239   9.599
 2263POPC   PO432076  17.033  18.837   9.575
 2263POPC   GL132077  16.857  18.936   9.159
 2263POPC   GL232078  16.592  19.200   9.126
 2263POPC   C1A32079  16.825  18.771   8.717
 2263POPC   D2A32080  16.590  18.913   8.358
 2263POPC   C3A32081  16.704  18.774   7.960
 2263POPC   C4A32082  16.786  18.954   7.545
 2263POPC   C1B32083  16.694  19.257   8.728
 2263POPC   C2B32084  16.813  19.409   8.363
 2263POPC   C3B32085  16.748  19.280   7.956
 2263POPC   C4B32086  16.477  19.341   7.623
 2264POPC   NC332087  28.564  21.033   9.731
 2264POPC   PO432088  28.100  21.575   9.598
 2264POPC   GL132089  28.401  21.448   9.240
 2264POPC   GL232090  28.562  21.106   9.223
 2264POPC   C1A32091  28.473  21.622   8.813
 2264POPC   D2A32092  28.288  21.888   8.467
 2264POPC   C3A32093  28.268  21.662   8.073
 2264POPC   C4A32094  28.638  21.424   7.928
 2264POPC   C1B32095  28.416  21.079   8.787
 2264POPC   C2B32096  28.315  21.284   8.422
 2264POPC   C3B32097  28.359  21.041   8.074
 2264POPC   C4B32098  28.361  20.937   7.691
 2265POPC   NC332099  35.229   6.320   9.520
 2265POPC   PO432100  35.737   6.828   9.487
 2265POPC   GL132101  35.425   6.695   9.205
 2265POPC   GL232102  35.117   6.917   9.274
 2265POPC   C1A32103  35.486   6.461   8.806
 2265POPC   D2A32104  35.348   6.475   8.380
 2265POPC   C3A32105  35.494   6.358   7.965
 2265POPC   C4A32106  35.304   6.458   7.562
 2265POPC   C1B32107  35.087   6.825   8.822
 2265POPC   C2B32108  34.954   6.781   8.367
 2265POPC   C3B32109  35.203   6.802   7.986
 2265POPC   C4B32110  35.254   6.984   7.581
 2266POPC   NC332111  10.336  12.722   9.607
 2266POPC   PO432112  10.740  13.113   9.457
 2266POPC   GL132113  10.523  12.886   9.161
 2266POPC   GL232114  10.174  13.007   9.208
 2266POPC   C1A32115  10.463  12.667   8.781
 2266POPC   D2A32116  10.266  12.479   8.415
 2266POPC   C3A32117  10.434  12.556   8.008
 2266POPC   C4A32118  10.411  12.662   7.598
 2266POPC   C1B32119  10.186  13.107   8.769
 2266POPC   C2B32120  10.377  12.984   8.362
 2266POPC   C3B32121  10.159  12.991   7.958
 2266POPC   C4B32122  10.205  13.188   7.565
 2267POPC   NC332123  42.557   1.221   9.600
 2267POPC   PO432124  42.071   0.832   9.293
 2267POPC   GL132125  42.370   1.090   9.116
 2267POPC   GL232126  42.386   1.429   9.140
 2267POPC   C1A32127  42.378   1.093   8.690
 2267POPC   D2A32128  42.577   0.804   8.403
 2267POPC   C3A32129  42.389   0.906   8.022
 2267POPC   C4A32130  42.616   1.050   7.704
 2267POPC   C1B32131  42.134   1.560   8.811
 2267POPC   C2B32132  42.031   1.399   8.411
 2267POPC   C3B32133  41.945   1.542   8.027
 2267POPC   C4B32134  42.240   1.361   7.799
 2268POPC   NC332135   8.341  15.451   9.368
 2268POPC   PO432136   7.769  15.294   9.719
 2268POPC   GL132137   8.017  15.064   9.290
 2268POPC   GL232138   8.364  14.964   9.180
 2268POPC   C1A32139   8.075  15.120   8.802
 2268POPC   D2A32140   7.893  15.339   8.426
 2268POPC   C3A32141   8.101  15.193   8.016
 2268POPC   C4A32142   8.442  15.341   7.764
 2268POPC   C1B32143   8.599  15.105   8.789
 2268POPC   C2B32144   8.483  15.029   8.358
 2268POPC   C3B32145   8.704  14.956   7.990
 2268POPC   C4B32146   8.853  14.833   7.616
 2269POPC   NC332147  42.518  35.454   9.494
 2269POPC   PO432148  42.419  34.802   9.284
 2269POPC   GL132149  42.321  35.158   9.091
 2269POPC   GL232150  42.682  35.198   9.070
 2269POPC   C1A32151  42.317  35.455   8.732
 2269POPC   D2A32152  42.256  35.601   8.296
 2269POPC   C3A32153  42.170  35.294   7.958
 2269POPC   C4A32154  41.841  35.168   7.683
 2269POPC   C1B32155  42.584  35.017   8.689
 2269POPC   C2B32156  42.599  35.198   8.334
 2269POPC   C3B32157  42.597  35.028   7.982
 2269POPC   C4B32158  42.422  34.996   7.591
 2270POPC   NC332159   2.614  23.903   9.395
 2270POPC   PO432160   2.146  23.471   9.483
 2270POPC   GL132161   2.459  23.554   9.063
 2270POPC   GL232162   2.851  23.686   9.009
 2270POPC   C1A32163   2.532  23.704   8.624
 2270POPC   D2A32164   2.308  23.784   8.261
 2270POPC   C3A32165   2.497  23.680   7.887
 2270POPC   C4A32166   2.872  23.827   7.716
 2270POPC   C1B32167   3.057  23.774   8.623
 2270POPC   C2B32168   2.900  23.683   8.229
 2270POPC   C3B32169   2.977  23.378   7.928
 2270POPC   C4B32170   3.228  23.504   7.551
 2271POPC   NC332171  27.878  26.819   9.328
 2271POPC   PO432172  28.453  26.900   9.710
 2271POPC   GL132173  28.395  26.850   9.275
 2271POPC   GL232174  28.315  26.530   9.200
 2271POPC   C1A32175  28.461  26.826   8.817
 2271POPC   D2A32176  28.257  26.814   8.437
 2271POPC   C3A32177  28.411  26.725   8.030
 2271POPC   C4A32178  28.577  27.049   7.739
 2271POPC   C1B32179  28.076  26.448   8.793
 2271POPC   C2B32180  27.899  26.463   8.363
 2271POPC   C3B32181  27.817  26.600   7.937
 2271POPC   C4B32182  28.113  26.797   7.629
 2272POPC   NC332183  21.173  12.370   9.581
 2272POPC   PO432184  21.701  12.024   9.544
 2272POPC   GL132185  21.593  12.202   9.182
 2272POPC   GL232186  21.249  12.123   9.143
 2272POPC   C1A32187  21.678  12.177   8.753
 2272POPC   D2A32188  21.516  12.017   8.357
 2272POPC   C3A32189  21.666  12.195   7.975
 2272POPC   C4A32190  21.544  12.077   7.562
 2272POPC   C1B32191  21.169  12.174   8.720
 2272POPC   C2B32192  21.008  12.097   8.322
 2272POPC   C3B32193  21.159  12.108   7.907
 2272POPC   C4B32194  20.991  12.385   7.566
 2273POPC   NC332195  18.371  14.520   9.983
 2273POPC   PO432196  18.359  14.025   9.575
 2273POPC   GL132197  18.309  14.091   9.104
 2273POPC   GL232198  18.093  14.371   9.049
 2273POPC   C1A32199  18.521  14.322   8.738
 2273POPC   D2A32200  18.436  14.264   8.319
 2273POPC   C3A32201  18.619  14.414   8.007
 2273POPC   C4A32202  18.563  14.196   7.635
 2273POPC   C1B32203  18.033  14.440   8.596
 2273POPC   C2B32204  17.937  14.255   8.194
 2273POPC   C3B32205  18.098  14.340   7.800
 2273POPC   C4B32206  17.974  14.677   7.473
 2274POPC   NC332207  21.826  30.189   9.537
 2274POPC   PO432208  22.374  29.699   9.471
 2274POPC   GL132209  22.131  29.919   9.189
 2274POPC   GL232210  22.144  30.280   9.121
 2274POPC   C1A32211  21.966  29.873   8.804
 2274POPC   D2A32212  21.878  29.557   8.541
 2274POPC   C3A32213  21.938  29.637   8.139
 2274POPC   C4A32214  22.031  29.640   7.727
 2274POPC   C1B32215  22.442  30.103   8.800
 2274POPC   C2B32216  22.342  29.876   8.418
 2274POPC   C3B32217  22.285  30.004   8.012
 2274POPC   C4B32218  22.132  30.132   7.601
 2275POPC   NC332219   5.743   4.300   9.585
 2275POPC   PO432220   6.317   4.682   9.668
 2275POPC   GL132221   6.166   4.430   9.274
 2275POPC   GL232222   5.832   4.561   9.146
 2275POPC   C1A32223   6.069   4.159   8.879
 2275POPC   D2A32224   5.775   4.181   8.495
 2275POPC   C3A32225   5.935   4.081   8.069
 2275POPC   C4A32226   5.800   4.192   7.657
 2275POPC   C1B32227   6.114   4.651   8.788
 2275POPC   C2B32228   5.943   4.718   8.397
 2275POPC   C3B32229   5.795   4.571   8.029
 2275POPC   C4B32230   6.042   4.648   7.717
 2276POPC   NC332231  20.794  43.265   9.486
 2276POPC   PO432232  20.992  42.658   9.276
 2276POPC   GL132233  20.819  43.000   9.005
 2276POPC   GL232234  20.493  43.105   9.025
 2276POPC   C1A32235  20.698  43.205   8.584
 2276POPC   D2A32236  20.493  43.000   8.233
 2276POPC   C3A32237  20.803  42.901   7.872
 2276POPC   C4A32238  21.063  42.964   7.470
 2276POPC   C1B32239  20.205  43.227   8.683
 2276POPC   C2B32240  20.333  43.520   8.370
 2276POPC   C3B32241  20.603  43.423   8.008
 2276POPC   C4B32242  20.346  43.113   7.762
 2277POPC   NC332243  33.490   7.016   9.571
 2277POPC   PO432244  33.764   6.389   9.762
 2277POPC   GL132245  33.569   6.541   9.341
 2277POPC   GL232246  33.832   6.608   9.108
 2277POPC   C1A32247  33.407   6.506   8.863
 2277POPC   D2A32248  33.655   6.331   8.515
 2277POPC   C3A32249  33.536   6.343   8.082
 2277POPC   C4A32250  33.603   6.550   7.707
 2277POPC   C1B32251  34.053   6.290   8.867
 2277POPC   C2B32252  34.155   6.217   8.438
 2277POPC   C3B32253  34.052   6.444   8.040
 2277POPC   C4B32254  34.097   6.467   7.588
 2278POPC   NC332255  36.498  38.000  10.081
 2278POPC   PO432256  36.044  37.646   9.666
 2278POPC   GL132257  36.037  37.767   9.217
 2278POPC   GL232258  36.397  37.833   9.105
 2278POPC   C1A32259  35.774  37.775   8.838
 2278POPC   D2A32260  35.812  37.550   8.446
 2278POPC   C3A32261  35.773  37.752   8.051
 2278POPC   C4A32262  35.851  37.714   7.623
 2278POPC   C1B32263  36.253  37.630   8.722
 2278POPC   C2B32264  36.379  37.592   8.272
 2278POPC   C3B32265  36.350  37.633   7.789
 2278POPC   C4B32266  36.518  37.522   7.346
 2279POPC   NC332267  34.977  40.879   9.521
 2279POPC   PO432268  35.680  40.748   9.435
 2279POPC   GL132269  35.305  40.734   9.163
 2279POPC   GL232270  35.150  41.101   9.104
 2279POPC   C1A32271  35.201  40.656   8.749
 2279POPC   D2A32272  35.353  40.474   8.380
 2279POPC   C3A32273  35.301  40.653   7.994
 2279POPC   C4A32274  35.325  40.486   7.560
 2279POPC   C1B32275  35.493  41.101   8.845
 2279POPC   C2B32276  35.499  40.960   8.438
 2279POPC   C3B32277  35.560  41.088   8.048
 2279POPC   C4B32278  35.420  41.013   7.646
 2280POPC   NC332279  21.696  32.004   9.582
 2280POPC   PO432280  22.372  32.226   9.494
 2280POPC   GL132281  22.070  32.080   9.183
 2280POPC   GL232282  22.325  32.277   8.963
 2280POPC   C1A32283  21.920  32.049   8.758
 2280POPC   D2A32284  22.150  32.299   8.470
 2280POPC   C3A32285  22.081  32.210   8.056
 2280POPC   C4A32286  22.109  31.964   7.689
 2280POPC   C1B32287  22.550  32.568   8.658
 2280POPC   C2B32288  22.518  32.524   8.182
 2280POPC   C3B32289  22.503  32.338   7.759
 2280POPC   C4B32290  22.343  32.432   7.342
 2281POPC   NC332291  27.846  31.822   9.514
 2281POPC   PO432292  27.779  32.461   9.450
 2281POPC   GL132293  27.713  32.101   9.112
 2281POPC   GL232294  28.044  31.872   9.052
 2281POPC   C1A32295  27.443  32.018   8.728
 2281POPC   D2A32296  27.500  32.241   8.340
 2281POPC   C3A32297  27.276  32.231   7.941
 2281POPC   C4A32298  27.402  32.424   7.564
 2281POPC   C1B32299  27.939  32.033   8.652
 2281POPC   C2B32300  28.006  32.249   8.281
 2281POPC   C3B32301  27.811  32.216   7.888
 2281POPC   C4B32302  27.823  32.155   7.451
 2282POPC   NC332303  18.403  15.396   9.502
 2282POPC   PO432304  18.607  14.792   9.669
 2282POPC   GL132305  18.742  14.894   9.219
 2282POPC   GL232306  18.761  15.261   9.118
 2282POPC   C1A32307  18.530  14.887   8.784
 2282POPC   D2A32308  18.233  15.127   8.522
 2282POPC   C3A32309  18.152  15.288   8.114
 2282POPC   C4A32310  18.063  15.046   7.798
 2282POPC   C1B32311  18.460  15.461   8.844
 2282POPC   C2B32312  18.424  15.615   8.421
 2282POPC   C3B32313  18.618  15.452   8.065
 2282POPC   C4B32314  18.540  15.239   7.712
 2283POPC   NC332315  20.714  31.090   9.589
 2283POPC   PO432316  20.458  30.519   9.749
 2283POPC   GL132317  20.685  30.540   9.337
 2283POPC   GL232318  20.548  30.827   9.171
 2283POPC   C1A32319  20.747  30.484   8.876
 2283POPC   D2A32320  20.568  30.647   8.522
 2283POPC   C3A32321  20.554  30.377   8.186
 2283POPC   C4A32322  20.456  30.387   7.770
 2283POPC   C1B32323  20.888  30.959   8.852
 2283POPC   C2B32324  20.813  31.071   8.428
 2283POPC   C3B32325  20.683  30.858   8.061
 2283POPC   C4B32326  20.799  30.999   7.684
 2284POPC   NC332327  44.568  42.753   9.829
 2284POPC   PO432328  44.322  43.267   9.417
 2284POPC   GL132329  44.434  43.259   9.013
 2284POPC   GL232330  44.721  43.088   9.025
 2284POPC   C1A32331  44.402  42.956   8.662
 2284POPC   D2A32332  44.595  42.951   8.264
 2284POPC   C3A32333  44.374  43.057   7.895
 2284POPC   C4A32334  44.479  43.268   7.490
 2284POPC   C1B32335  44.950  43.110   8.651
 2284POPC   C2B32336  44.984  43.267   8.268
 2284POPC   C3B32337  44.886  43.171   7.858
 2284POPC   C4B32338  44.948  43.466   7.552
 2285POPC   NC332339  31.603  29.955   9.743
 2285POPC   PO432340  31.035  30.220   9.607
 2285POPC   GL132341  31.333  29.975   9.194
 2285POPC   GL232342  31.579  30.146   9.003
 2285POPC   C1A32343  31.476  29.756   8.716
 2285POPC   D2A32344  31.430  29.801   8.248
 2285POPC   C3A32345  31.678  30.060   7.953
 2285POPC   C4A32346  31.683  30.104   7.498
 2285POPC   C1B32347  31.179  30.185   8.683
 2285POPC   C2B32348  31.122  30.201   8.201
 2285POPC   C3B32349  31.213  30.257   7.743
 2285POPC   C4B32350  31.197  30.281   7.280
 2286POPC   NC332351  37.665  35.029   9.553
 2286POPC   PO432352  37.876  35.681   9.378
 2286POPC   GL132353  37.606  35.512   9.102
 2286POPC   GL232354  37.632  35.169   9.081
 2286POPC   C1A32355  37.729  35.486   8.699
 2286POPC   D2A32356  37.638  35.658   8.364
 2286POPC   C3A32357  37.666  35.379   8.054
 2286POPC   C4A32358  37.696  35.579   7.680
 2286POPC   C1B32359  37.344  35.155   8.798
 2286POPC   C2B32360  37.272  35.275   8.401
 2286POPC   C3B32361  37.227  35.078   8.037
 2286POPC   C4B32362  37.416  35.129   7.667
 2287POPC   NC332363  37.516  11.180   9.753
 2287POPC   PO432364  38.003  11.618   9.631
 2287POPC   GL132365  37.841  11.487   9.204
 2287POPC   GL232366  37.621  11.179   9.194
 2287POPC   C1A32367  37.762  11.410   8.741
 2287POPC   D2A32368  37.960  11.120   8.436
 2287POPC   C3A32369  37.822  11.167   8.006
 2287POPC   C4A32370  37.572  11.508   7.851
 2287POPC   C1B32371  37.318  11.186   8.781
 2287POPC   C2B32372  37.419  11.217   8.355
 2287POPC   C3B32373  37.288  11.089   7.954
 2287POPC   C4B32374  37.554  10.876   7.677
 2288POPC   NC332375  33.567  21.558   9.411
 2288POPC   PO432376  34.074  21.123   9.601
 2288POPC   GL132377  33.904  21.240   9.199
 2288POPC   GL232378  33.592  21.282   8.980
 2288POPC   C1A32379  34.060  21.422   8.825
 2288POPC   D2A32380  33.930  21.333   8.428
 2288POPC   C3A32381  34.011  21.531   8.044
 2288POPC   C4A32382  33.852  21.391   7.677
 2288POPC   C1B32383  33.618  21.665   8.763
 2288POPC   C2B32384  33.698  21.787   8.349
 2288POPC   C3B32385  33.491  21.625   7.969
 2288POPC   C4B32386  33.415  21.591   7.529
 2289POPC   NC332387  32.640   8.940   9.403
 2289POPC   PO432388  33.194   9.340   9.520
 2289POPC   GL132389  33.134   9.017   9.182
 2289POPC   GL232390  33.280   8.679   9.221
 2289POPC   C1A32391  32.953   8.983   8.761
 2289POPC   D2A32392  33.123   9.097   8.361
 2289POPC   C3A32393  32.820   9.143   8.022
 2289POPC   C4A32394  32.848   8.903   7.606
 2289POPC   C1B32395  33.254   8.567   8.781
 2289POPC   C2B32396  33.032   8.597   8.391
 2289POPC   C3B32397  33.121   8.715   7.988
 2289POPC   C4B32398  33.097   8.456   7.602
 2290POPC   NC332399  44.266  23.008   9.909
 2290POPC   PO432400  43.937  23.044   9.314
 2290POPC   GL132401  43.948  22.772   9.003
 2290POPC   GL232402  43.930  22.398   9.113
 2290POPC   C1A32403  43.862  22.908   8.595
 2290POPC   D2A32404  44.116  23.053   8.268
 2290POPC   C3A32405  43.834  22.983   7.957
 2290POPC   C4A32406  43.769  23.191   7.552
 2290POPC   C1B32407  43.996  22.392   8.671
 2290POPC   C2B32408  44.011  22.536   8.249
 2290POPC   C3B32409  43.962  22.471   7.824
 2290POPC   C4B32410  44.069  22.784   7.530
 2291POPC   NC332411  20.103  30.626   9.470
 2291POPC   PO432412  19.484  30.900   9.475
 2291POPC   GL132413  19.744  30.702   9.110
 2291POPC   GL232414  20.048  30.899   9.039
 2291POPC   C1A32415  19.671  30.724   8.653
 2291POPC   D2A32416  19.541  30.466   8.287
 2291POPC   C3A32417  19.765  30.409   7.918
 2291POPC   C4A32418  19.841  30.708   7.628
 2291POPC   C1B32419  20.151  30.595   8.784
 2291POPC   C2B32420  20.082  30.608   8.333
 2291POPC   C3B32421  20.198  30.788   7.960
 2291POPC   C4B32422  20.335  30.811   7.513
 2292POPC   NC332423   9.829  23.148   9.439
 2292POPC   PO432424   9.443  22.568   9.453
 2292POPC   GL132425   9.582  22.831   9.126
 2292POPC   GL232426   9.373  23.126   9.084
 2292POPC   C1A32427   9.861  22.794   8.781
 2292POPC   D2A32428   9.775  22.607   8.383
 2292POPC   C3A32429   9.884  22.711   7.979
 2292POPC   C4A32430   9.909  22.889   7.555
 2292POPC   C1B32431   9.694  23.262   8.809
 2292POPC   C2B32432   9.895  23.166   8.423
 2292POPC   C3B32433   9.715  23.176   8.036
 2292POPC   C4B32434   9.527  23.222   7.628
 2293POPC   NC332435  29.713  10.437   9.579
 2293POPC   PO432436  30.295  10.664   9.662
 2293POPC   GL132437  30.089  10.552   9.214
 2293POPC   GL232438  29.818  10.326   9.105
 2293POPC   C1A32439  30.001  10.584   8.730
 2293POPC   D2A32440  29.877  10.359   8.344
 2293POPC   C3A32441  29.906  10.532   7.937
 2293POPC   C4A32442  30.129  10.461   7.552
 2293POPC   C1B32443  29.569  10.191   8.730
 2293POPC   C2B32444  29.347  10.278   8.375
 2293POPC   C3B32445  29.336  10.109   7.991
 2293POPC   C4B32446  29.439  10.390   7.693
 2294POPC   NC332447  20.465  42.622   9.341
 2294POPC   PO432448  20.398  41.901   9.469
 2294POPC   GL132449  20.614  42.167   9.129
 2294POPC   GL232450  20.303  42.282   8.961
 2294POPC   C1A32451  20.779  42.343   8.696
 2294POPC   D2A32452  20.594  42.499   8.224
 2294POPC   C3A32453  20.723  42.410   7.750
 2294POPC   C4A32454  20.912  42.514   7.303
 2294POPC   C1B32455  20.039  42.484   8.624
 2294POPC   C2B32456  20.078  42.689   8.246
 2294POPC   C3B32457  20.250  42.581   7.856
 2294POPC   C4B32458  20.252  42.203   7.635
 2295POPC   NC332459  39.138  31.460   9.718
 2295POPC   PO432460  39.279  30.861   9.468
 2295POPC   GL132461  39.350  31.285   9.259
 2295POPC   GL232462  39.144  31.603   9.229
 2295POPC   C1A32463  39.393  31.383   8.828
 2295POPC   D2A32464  39.196  31.278   8.460
 2295POPC   C3A32465  39.365  31.351   8.083
 2295POPC   C4A32466  39.196  31.393   7.697
 2295POPC   C1B32467  38.948  31.846   8.926
 2295POPC   C2B32468  38.889  31.703   8.523
 2295POPC   C3B32469  39.002  31.715   8.083
 2295POPC   C4B32470  38.755  31.643   7.702
 2296POPC   NC332471   4.984   0.157   9.508
 2296POPC   PO432472   4.795   0.851   9.459
 2296POPC   GL132473   4.969   0.585   9.131
 2296POPC   GL232474   5.268   0.478   9.187
 2296POPC   C1A32475   4.913   0.454   8.708
 2296POPC   D2A32476   4.926   0.652   8.297
 2296POPC   C3A32477   5.015   0.454   7.879
 2296POPC   C4A32478   4.971   0.536   7.428
 2296POPC   C1B32479   5.378   0.272   8.802
 2296POPC   C2B32480   5.242   0.236   8.380
 2296POPC   C3B32481   5.418   0.175   8.010
 2296POPC   C4B32482   5.284   0.086   7.624
 2297POPC   NC332483  26.144  13.130   9.424
 2297POPC   PO432484  25.703  12.663   9.540
 2297POPC   GL132485  25.753  12.923   9.173
 2297POPC   GL232486  25.929  12.661   9.053
 2297POPC   C1A32487  25.962  13.030   8.729
 2297POPC   D2A32488  26.243  12.938   8.331
 2297POPC   C3A32489  26.194  13.155   7.917
 2297POPC   C4A32490  25.972  13.140   7.497
 2297POPC   C1B32491  26.072  12.546   8.625
 2297POPC   C2B32492  26.054  12.454   8.201
 2297POPC   C3B32493  26.037  12.656   7.833
 2297POPC   C4B32494  25.898  12.610   7.410
 2298POPC   NC332495   4.500  20.769   9.729
 2298POPC   PO432496   3.988  20.460   9.559
 2298POPC   GL132497   4.357  20.621   9.282
 2298POPC   GL232498   4.176  20.883   9.249
 2298POPC   C1A32499   4.519  20.841   8.875
 2298POPC   D2A32500   4.516  20.649   8.451
 2298POPC   C3A32501   4.543  20.835   8.031
 2298POPC   C4A32502   4.489  20.541   7.684
 2298POPC   C1B32503   4.061  20.611   8.886
 2298POPC   C2B32504   4.000  20.657   8.473
 2298POPC   C3B32505   4.159  20.507   8.078
 2298POPC   C4B32506   4.057  20.247   7.717
 2299POPC   NC332507  17.455  39.423   9.530
 2299POPC   PO432508  17.725  38.849   9.487
 2299POPC   GL132509  17.437  39.055   9.149
 2299POPC   GL232510  17.701  39.056   8.994
 2299POPC   C1A32511  17.332  39.213   8.706
 2299POPC   D2A32512  17.604  39.175   8.380
 2299POPC   C3A32513  17.401  39.173   8.006
 2299POPC   C4A32514  17.366  39.417   7.648
 2299POPC   C1B32515  17.869  38.830   8.673
 2299POPC   C2B32516  18.084  38.922   8.375
 2299POPC   C3B32517  17.873  38.943   8.007
 2299POPC   C4B32518  17.643  38.952   7.620
 2300POPC   NC332519   6.928   0.981   9.463
 2300POPC   PO432520   6.634   1.512   9.617
 2300POPC   GL132521   6.736   1.442   9.184
 2300POPC   GL232522   6.384   1.288   9.176
 2300POPC   C1A32523   6.840   1.309   8.744
 2300POPC   D2A32524   6.706   0.939   8.479
 2300POPC   C3A32525   6.527   0.952   8.058
 2300POPC   C4A32526   6.699   1.095   7.677
 2300POPC   C1B32527   6.331   1.196   8.738
 2300POPC   C2B32528   6.469   1.390   8.330
 2300POPC   C3B32529   6.623   1.571   7.929
 2300POPC   C4B32530   6.598   1.549   7.462
 2301POPC   NC332531  34.254  15.005   9.355
 2301POPC   PO432532  33.665  15.334   9.461
 2301POPC   GL132533  33.823  15.183   9.095
 2301POPC   GL232534  34.076  15.459   9.123
 2301POPC   C1A32535  33.722  15.017   8.664
 2301POPC   D2A32536  33.581  14.799   8.264
 2301POPC   C3A32537  33.741  15.069   7.911
 2301POPC   C4A32538  34.155  15.197   7.742
 2301POPC   C1B32539  33.773  15.653   8.832
 2301POPC   C2B32540  33.685  15.518   8.418
 2301POPC   C3B32541  33.873  15.573   8.027
 2301POPC   C4B32542  33.633  15.524   7.687
 2302POPC   NC332543   5.050  24.744   9.517
 2302POPC   PO432544   5.463  24.142   9.429
 2302POPC   GL132545   5.115  24.386   9.182
 2302POPC   GL232546   5.002  24.135   8.988
 2302POPC   C1A32547   4.982  24.679   8.866
 2302POPC   D2A32548   5.084  24.588   8.469
 2302POPC   C3A32549   4.833  24.648   8.148
 2302POPC   C4A32550   4.921  24.736   7.723
 2302POPC   C1B32551   5.360  24.274   8.766
 2302POPC   C2B32552   5.545  24.398   8.426
 2302POPC   C3B32553   5.394  24.267   8.062
 2302POPC   C4B32554   5.401  24.078   7.673
 2303POPC   NC332555   6.582  36.854   9.509
 2303POPC   PO432556   7.257  36.921   9.584
 2303POPC   GL132557   6.994  36.835   9.186
 2303POPC   GL232558   6.647  36.678   9.046
 2303POPC   C1A32559   6.774  37.145   8.879
 2303POPC   D2A32560   6.640  37.215   8.449
 2303POPC   C3A32561   6.789  36.961   8.114
 2303POPC   C4A32562   6.672  37.061   7.705
 2303POPC   C1B32563   6.609  36.718   8.618
 2303POPC   C2B32564   6.364  36.761   8.302
 2303POPC   C3B32565   6.387  36.625   7.909
 2303POPC   C4B32566   6.188  36.803   7.588
 2304POPC   NC332567   0.428  44.153   9.484
 2304POPC   PO432568   0.498  43.517   9.533
 2304POPC   GL132569   0.569  43.770   9.159
 2304POPC   GL232570   0.200  43.831   9.131
 2304POPC   C1A32571   0.770  43.660   8.726
 2304POPC   D2A32572   0.742  43.937   8.349
 2304POPC   C3A32573   0.605  43.826   7.919
 2304POPC   C4A32574   0.506  43.613   7.506
 2304POPC   C1B32575   0.354  43.936   8.732
 2304POPC   C2B32576   0.266  44.147   8.399
 2304POPC   C3B32577   0.131  44.072   8.011
 2304POPC   C4B32578   0.185  44.300   7.654
 2305POPC   NC332579  38.367  44.428   9.556
 2305POPC   PO432580  38.059  44.969   9.281
 2305POPC   GL132581  38.403  44.787   8.992
 2305POPC   GL232582  38.592  44.470   9.089
 2305POPC   C1A32583  38.731  44.889   8.672
 2305POPC   D2A32584  38.865  44.699   8.291
 2305POPC   C3A32585  38.673  44.708   7.902
 2305POPC   C4A32586  38.774  44.453   7.529
 2305POPC   C1B32587  38.494  44.456   8.630
 2305POPC   C2B32588  38.343  44.725   8.308
 2305POPC   C3B32589  38.161  44.572   7.930
 2305POPC   C4B32590  37.753  44.312   7.938
 2306POPC   NC332591  34.645  41.807   9.353
 2306POPC   PO432592  34.092  41.474   9.645
 2306POPC   GL132593  34.401  41.311   9.267
 2306POPC   GL232594  34.675  41.386   9.036
 2306POPC   C1A32595  34.320  41.156   8.802
 2306POPC   D2A32596  34.557  41.246   8.399
 2306POPC   C3A32597  34.331  41.411   8.065
 2306POPC   C4A32598  34.131  41.573   7.717
 2306POPC   C1B32599  34.493  41.643   8.709
 2306POPC   C2B32600  34.642  41.762   8.288
 2306POPC   C3B32601  34.557  41.807   7.823
 2306POPC   C4B32602  34.693  41.704   7.380
 2307POPC   NC332603  27.694  35.383   9.890
 2307POPC   PO432604  27.642  34.716   9.557
 2307POPC   GL132605  27.524  34.435   9.222
 2307POPC   GL232606  27.560  34.719   9.019
 2307POPC   C1A32607  27.655  34.273   8.799
 2307POPC   D2A32608  27.612  34.521   8.431
 2307POPC   C3A32609  27.481  34.365   8.005
 2307POPC   C4A32610  27.411  34.454   7.540
 2307POPC   C1B32611  27.481  34.980   8.664
 2307POPC   C2B32612  27.573  34.997   8.220
 2307POPC   C3B32613  27.549  34.845   7.812
 2307POPC   C4B32614  27.404  34.965   7.396
 2308POPC   NC332615  15.091  21.726   9.540
 2308POPC   PO432616  14.830  21.091   9.643
 2308POPC   GL132617  15.064  21.318   9.239
 2308POPC   GL232618  14.891  21.652   9.107
 2308POPC   C1A32619  15.017  21.324   8.741
 2308POPC   D2A32620  15.219  21.112   8.364
 2308POPC   C3A32621  15.246  21.216   7.916
 2308POPC   C4A32622  15.298  21.177   7.460
 2308POPC   C1B32623  14.954  21.842   8.776
 2308POPC   C2B32624  15.185  21.848   8.406
 2308POPC   C3B32625  15.271  21.690   8.041
 2308POPC   C4B32626  15.043  21.630   7.669
 2309POPC   NC332627  19.240  14.864   9.629
 2309POPC   PO432628  19.310  15.518   9.522
 2309POPC   GL132629  19.265  15.245   9.158
 2309POPC   GL232630  19.522  15.331   8.965
 2309POPC   C1A32631  19.105  15.365   8.726
 2309POPC   D2A32632  18.784  15.240   8.503
 2309POPC   C3A32633  19.014  15.132   8.180
 2309POPC   C4A32634  19.021  15.086   7.750
 2309POPC   C1B32635  19.554  14.932   8.806
 2309POPC   C2B32636  19.398  14.818   8.414
 2309POPC   C3B32637  19.466  14.981   8.011
 2309POPC   C4B32638  19.464  15.338   7.705
 2310POPC   NC332639  15.548  15.673   9.798
 2310POPC   PO432640  15.363  16.162   9.605
 2310POPC   GL132641  15.181  16.174   9.131
 2310POPC   GL232642  15.107  15.845   8.959
 2310POPC   C1A32643  15.178  16.238   8.642
 2310POPC   D2A32644  15.082  15.945   8.286
 2310POPC   C3A32645  15.060  16.150   7.887
 2310POPC   C4A32646  15.233  15.990   7.484
 2310POPC   C1B32647  14.755  15.957   8.669
 2310POPC   C2B32648  14.593  15.945   8.207
 2310POPC   C3B32649  14.809  15.708   7.866
 2310POPC   C4B32650  14.904  15.581   7.444
 2311POPC   NC332651  44.818   4.864   9.441
 2311POPC   PO432652  44.470   5.568   9.478
 2311POPC   GL132653  44.597   5.277   9.163
 2311POPC   GL232654  44.905   5.369   9.139
 2311POPC   C1A32655  44.676   5.021   8.786
 2311POPC   D2A32656  44.556   4.852   8.379
 2311POPC   C3A32657  44.656   5.093   8.001
 2311POPC   C4A32658  44.519   5.077   7.569
 2311POPC   C1B32659   0.135   5.271   8.803
 2311POPC   C2B32660  44.985   5.415   8.426
 2311POPC   C3B32661   0.126   5.434   8.012
 2311POPC   C4B32662  44.961   5.316   7.614
 2312POPC   NC332663  23.279  18.755   9.255
 2312POPC   PO432664  22.785  19.059   9.631
 2312POPC   GL132665  22.922  19.232   9.239
 2312POPC   GL232666  23.258  19.324   9.256
 2312POPC   C1A32667  22.868  19.224   8.771
 2312POPC   D2A32668  23.044  18.910   8.448
 2312POPC   C3A32669  22.842  18.807   8.044
 2312POPC   C4A32670  23.071  18.816   7.652
 2312POPC   C1B32671  23.381  19.290   8.795
 2312POPC   C2B32672  23.231  19.402   8.376
 2312POPC   C3B32673  23.188  19.197   7.980
 2312POPC   C4B32674  22.805  19.259   7.748
 2313POPC   NC332675  43.522  41.679   9.392
 2313POPC   PO432676  44.133  41.405   9.578
 2313POPC   GL132677  43.937  41.401   9.192
 2313POPC   GL232678  44.051  41.724   9.151
 2313POPC   C1A32679  43.848  41.452   8.737
 2313POPC   D2A32680  43.655  41.207   8.389
 2313POPC   C3A32681  43.888  41.264   7.994
 2313POPC   C4A32682  43.787  41.334   7.583
 2313POPC   C1B32683  43.962  41.964   8.787
 2313POPC   C2B32684  43.672  41.890   8.464
 2313POPC   C3B32685  43.649  41.726   8.063
 2313POPC   C4B32686  43.991  41.755   7.780
 2314POPC   NC332687  37.237  33.743   9.312
 2314POPC   PO432688  36.635  34.039   9.382
 2314POPC   GL132689  36.777  33.785   9.072
 2314POPC   GL232690  36.587  33.475   9.057
 2314POPC   C1A32691  37.020  33.857   8.679
 2314POPC   D2A32692  36.970  34.150   8.318
 2314POPC   C3A32693  37.112  34.047   7.911
 2314POPC   C4A32694  37.304  34.188   7.547
 2314POPC   C1B32695  36.551  33.660   8.643
 2314POPC   C2B32696  36.806  33.599   8.273
 2314POPC   C3B32697  36.681  33.792   7.908
 2314POPC   C4B32698  36.830  33.806   7.504
 2315POPC   NC332699  35.657  13.143   9.468
 2315POPC   PO432700  35.124  12.708   9.327
 2315POPC   GL132701  35.320  12.923   9.011
 2315POPC   GL232702  35.676  12.858   9.041
 2315POPC   C1A32703  35.134  12.972   8.603
 2315POPC   D2A32704  35.352  12.978   8.238
 2315POPC   C3A32705  35.244  12.818   7.836
 2315POPC   C4A32706  35.488  12.918   7.455
 2315POPC   C1B32707  35.608  12.662   8.651
 2315POPC   C2B32708  35.804  12.749   8.284
 2315POPC   C3B32709  35.758  12.803   7.891
 2315POPC   C4B32710  35.955  13.054   7.664
 2316POPC   NC332711  35.886   0.129   9.345
 2316POPC   PO432712  36.409   0.289   9.592
 2316POPC   GL132713  36.176   0.555   9.228
 2316POPC   GL232714  35.799   0.601   9.146
 2316POPC   C1A32715  36.113   0.397   8.777
 2316POPC   D2A32716  36.265   0.260   8.376
 2316POPC   C3A32717  36.069   0.315   8.007
 2316POPC   C4A32718  36.301   0.403   7.637
 2316POPC   C1B32719  35.814   0.800   8.723
 2316POPC   C2B32720  35.989   0.729   8.337
 2316POPC   C3B32721  35.895   0.802   7.908
 2316POPC   C4B32722  35.782   0.499   7.598
 2317POPC   NC332723  31.305   2.171   9.436
 2317POPC   PO432724  31.697   1.616   9.540
 2317POPC   GL132725  31.605   1.797   9.179
 2317POPC   GL232726  31.287   1.713   9.088
 2317POPC   C1A32727  31.692   1.646   8.761
 2317POPC   D2A32728  31.638   1.515   8.349
 2317POPC   C3A32729  31.499   1.835   8.050
 2317POPC   C4A32730  31.694   2.142   7.798
 2317POPC   C1B32731  31.353   2.043   8.768
 2317POPC   C2B32732  31.164   2.071   8.365
 2317POPC   C3B32733  31.218   2.270   7.962
 2317POPC   C4B32734  30.935   2.464   7.693
 2318POPC   NC332735  28.842  26.739   9.539
 2318POPC   PO432736  29.433  26.613   9.394
 2318POPC   GL132737  29.171  26.816   9.108
 2318POPC   GL232738  28.842  27.008   9.094
 2318POPC   C1A32739  28.953  26.667   8.725
 2318POPC   D2A32740  28.780  26.575   8.341
 2318POPC   C3A32741  28.932  26.655   7.906
 2318POPC   C4A32742  29.208  26.819   7.549
 2318POPC   C1B32743  29.082  27.151   8.758
 2318POPC   C2B32744  28.980  27.048   8.355
 2318POPC   C3B32745  29.120  27.119   7.974
 2318POPC   C4B32746  29.025  27.306   7.607
 2319POPC   NC332747   0.921  41.916   9.505
 2319POPC   PO432748   1.356  41.401   9.643
 2319POPC   GL132749   1.318  41.606   9.281
 2319POPC   GL232750   1.258  41.281   9.121
 2319POPC   C1A32751   1.245  41.750   8.878
 2319POPC   D2A32752   1.358  41.778   8.471
 2319POPC   C3A32753   1.045  41.575   8.264
 2319POPC   C4A32754   1.066  41.660   7.863
 2319POPC   C1B32755   1.473  41.318   8.745
 2319POPC   C2B32756   1.594  41.350   8.352
 2319POPC   C3B32757   1.406  41.284   7.995
 2319POPC   C4B32758   1.556  41.561   7.754
 2320POPC   NC332759  30.177  22.120   9.548
 2320POPC   PO432760  29.768  21.658   9.433
 2320POPC   GL132761  29.933  21.942   9.133
 2320POPC   GL232762  29.816  22.289   9.211
 2320POPC   C1A32763  30.051  22.037   8.731
 2320POPC   D2A32764  29.983  21.844   8.324
 2320POPC   C3A32765  29.894  22.067   7.950
 2320POPC   C4A32766  30.085  22.128   7.549
 2320POPC   C1B32767  29.706  22.433   8.799
 2320POPC   C2B32768  29.779  22.328   8.383
 2320POPC   C3B32769  29.829  22.559   8.016
 2320POPC   C4B32770  29.726  22.472   7.641
 2321POPC   NC332771  13.086  34.221   9.489
 2321POPC   PO432772  12.839  33.592   9.551
 2321POPC   GL132773  12.791  33.788   9.144
 2321POPC   GL232774  12.949  34.071   9.017
 2321POPC   C1A32775  12.548  33.865   8.779
 2321POPC   D2A32776  12.592  34.215   8.484
 2321POPC   C3A32777  12.614  33.993   8.099
 2321POPC   C4A32778  12.770  33.866   7.703
 2321POPC   C1B32779  13.034  33.913   8.579
 2321POPC   C2B32780  13.201  33.572   8.345
 2321POPC   C3B32781  13.065  33.490   7.938
 2321POPC   C4B32782  13.236  33.716   7.561
 2322POPC   NC332783  42.729  38.266   9.383
 2322POPC   PO432784  43.413  38.566   9.452
 2322POPC   GL132785  43.177  38.394   9.133
 2322POPC   GL232786  42.895  38.652   9.086
 2322POPC   C1A32787  43.204  38.419   8.704
 2322POPC   D2A32788  43.225  38.654   8.385
 2322POPC   C3A32789  43.066  38.546   8.032
 2322POPC   C4A32790  43.259  38.278   7.762
 2322POPC   C1B32791  42.697  38.397   8.737
 2322POPC   C2B32792  42.863  38.199   8.329
 2322POPC   C3B32793  42.755  38.160   7.885
 2322POPC   C4B32794  42.608  38.544   7.765
 2323POPC   NC332795  27.438  29.529   9.461
 2323POPC   PO432796  27.820  28.952   9.495
 2323POPC   GL132797  27.696  29.212   9.166
 2323POPC   GL232798  27.448  28.989   9.098
 2323POPC   C1A32799  27.719  29.194   8.734
 2323POPC   D2A32800  27.533  28.963   8.456
 2323POPC   C3A32801  27.723  29.046   8.099
 2323POPC   C4A32802  27.502  29.083   7.759
 2323POPC   C1B32803  27.249  29.334   8.834
 2323POPC   C2B32804  27.249  29.393   8.364
 2323POPC   C3B32805  27.085  29.328   7.925
 2323POPC   C4B32806  27.187  29.386   7.464
 2324POPC   NC332807   5.761  32.999   9.476
 2324POPC   PO432808   5.991  32.482   9.311
 2324POPC   GL132809   6.023  32.900   9.047
 2324POPC   GL232810   6.316  33.050   9.002
 2324POPC   C1A32811   5.975  33.199   8.641
 2324POPC   D2A32812   5.606  33.382   8.376
 2324POPC   C3A32813   5.706  33.483   7.941
 2324POPC   C4A32814   5.739  33.261   7.540
 2324POPC   C1B32815   6.303  32.662   8.692
 2324POPC   C2B32816   6.095  32.487   8.311
 2324POPC   C3B32817   6.055  32.573   7.864
 2324POPC   C4B32818   6.179  32.613   7.419
 2325POPC   NC332819  28.058  44.637   9.427
 2325POPC   PO432820  28.428   0.164   9.544
 2325POPC   GL132821  28.393  44.935   9.139
 2325POPC   GL232822  28.452  44.535   9.089
 2325POPC   C1A32823  28.279  44.838   8.714
 2325POPC   D2A32824  28.296  44.927   8.283
 2325POPC   C3A32825  28.159  44.759   7.883
 2325POPC   C4A32826  28.015  44.703   7.455
 2325POPC   C1B32827  28.581  44.442   8.627
 2325POPC   C2B32828  28.746  44.686   8.262
 2325POPC   C3B32829  28.638  44.913   7.870
 2325POPC   C4B32830  28.513  44.767   7.479
 2326POPC   NC332831  22.506  38.571   9.227
 2326POPC   PO432832  22.029  38.151   9.430
 2326POPC   GL132833  22.050  38.381   9.098
 2326POPC   GL232834  21.969  38.731   9.143
 2326POPC   C1A32835  22.177  38.268   8.703
 2326POPC   D2A32836  21.994  38.397   8.353
 2326POPC   C3A32837  22.112  38.331   7.942
 2326POPC   C4A32838  21.966  38.499   7.522
 2326POPC   C1B32839  22.133  38.789   8.716
 2326POPC   C2B32840  22.320  38.823   8.292
 2326POPC   C3B32841  22.089  38.842   7.900
 2326POPC   C4B32842  21.886  39.014   7.548
 2327POPC   NC332843  20.152  23.548   9.586
 2327POPC   PO432844  19.867  24.162   9.524
 2327POPC   GL132845  19.933  23.801   9.187
 2327POPC   GL232846  19.881  23.402   9.194
 2327POPC   C1A32847  20.028  23.618   8.764
 2327POPC   D2A32848  20.178  23.400   8.410
 2327POPC   C3A32849  19.994  23.570   8.045
 2327POPC   C4A32850  20.055  23.762   7.637
 2327POPC   C1B32851  19.686  23.214   8.835
 2327POPC   C2B32852  19.662  23.281   8.395
 2327POPC   C3B32853  19.549  23.314   7.963
 2327POPC   C4B32854  19.596  23.572   7.583
 2328POPC   NC332855  33.799   1.472   9.444
 2328POPC   PO432856  34.014   0.820   9.354
 2328POPC   GL132857  33.792   1.131   9.079
 2328POPC   GL232858  33.618   0.931   8.796
 2328POPC   C1A32859  33.803   1.391   8.749
 2328POPC   D2A32860  33.747   1.193   8.346
 2328POPC   C3A32861  33.821   1.359   7.951
 2328POPC   C4A32862  33.734   1.143   7.552
 2328POPC   C1B32863  34.095   0.991   8.710
 2328POPC   C2B32864  34.315   0.850   8.397
 2328POPC   C3B32865  34.104   0.943   8.015
 2328POPC   C4B32866  34.222   1.050   7.627
 2329POPC   NC332867  34.989  44.157   9.577
 2329POPC   PO432868  35.595  43.790   9.430
 2329POPC   GL132869  35.391  44.104   9.131
 2329POPC   GL232870  35.050  44.236   9.094
 2329POPC   C1A32871  35.402  44.160   8.693
 2329POPC   D2A32872  35.592  44.122   8.285
 2329POPC   C3A32873  35.581  43.768   8.014
 2329POPC   C4A32874  35.396  43.665   7.637
 2329POPC   C1B32875  34.961  43.948   8.776
 2329POPC   C2B32876  35.046  44.102   8.339
 2329POPC   C3B32877  35.058  43.864   7.955
 2329POPC   C4B32878  35.020  43.976   7.504
 2330POPC   NC332879  14.602  19.501   9.547
 2330POPC   PO432880  14.658  20.156   9.509
 2330POPC   GL132881  14.603  19.854   9.151
 2330POPC   GL232882  14.306  19.615   9.157
 2330POPC   C1A32883  14.724  19.789   8.714
 2330POPC   D2A32884  14.656  20.043   8.326
 2330POPC   C3A32885  14.701  19.852   7.918
 2330POPC   C4A32886  14.397  19.804   7.582
 2330POPC   C1B32887  14.194  19.763   8.784
 2330POPC   C2B32888  14.077  19.549   8.443
 2330POPC   C3B32889  14.175  19.673   8.051
 2330POPC   C4B32890  14.063  19.462   7.683
 2331POPC   NC332891  11.231  39.033   9.592
 2331POPC   PO432892  11.556  39.645   9.487
 2331POPC   GL132893  11.503  39.265   9.196
 2331POPC   GL232894  11.138  39.180   9.115
 2331POPC   C1A32895  11.553  39.314   8.740
 2331POPC   D2A32896  11.830  39.423   8.374
 2331POPC   C3A32897  11.584  39.452   7.987
 2331POPC   C4A32898  11.370  39.117   7.808
 2331POPC   C1B32899  11.085  39.561   8.875
 2331POPC   C2B32900  10.911  39.520   8.474
 2331POPC   C3B32901  11.065  39.406   8.080
 2331POPC   C4B32902  11.079  39.521   7.630
 2332POPC   NC332903  36.368  21.114   9.316
 2332POPC   PO432904  35.864  21.474   9.544
 2332POPC   GL132905  35.945  21.586   9.109
 2332POPC   GL232906  36.011  21.307   9.028
 2332POPC   C1A32907  36.112  21.623   8.672
 2332POPC   D2A32908  36.290  21.733   8.303
 2332POPC   C3A32909  36.348  21.506   7.956
 2332POPC   C4A32910  36.020  21.708   7.769
 2332POPC   C1B32911  36.147  21.113   8.655
 2332POPC   C2B32912  36.236  20.944   8.261
 2332POPC   C3B32913  36.273  20.988   7.877
 2332POPC   C4B32914  35.963  21.219   7.771
 2333POPC   NC332915  10.975  37.373   9.337
 2333POPC   PO432916  11.442  37.937   9.452
 2333POPC   GL132917  11.311  37.710   9.088
 2333POPC   GL232918  10.993  37.882   9.105
 2333POPC   C1A32919  11.372  37.733   8.627
 2333POPC   D2A32920  11.421  37.466   8.236
 2333POPC   C3A32921  11.433  37.649   7.817
 2333POPC   C4A32922  11.686  37.530   7.472
 2333POPC   C1B32923  10.872  37.960   8.665
 2333POPC   C2B32924  11.023  37.869   8.242
 2333POPC   C3B32925  10.939  37.899   7.780
 2333POPC   C4B32926  10.828  38.086   7.355
 2334POPC   NC332927   8.557  31.197   9.809
 2334POPC   PO432928   7.971  31.454   9.523
 2334POPC   GL132929   8.272  31.501   9.186
 2334POPC   GL232930   8.306  31.276   8.927
 2334POPC   C1A32931   8.365  31.777   8.844
 2334POPC   D2A32932   8.340  31.586   8.429
 2334POPC   C3A32933   8.392  31.826   8.066
 2334POPC   C4A32934   8.428  31.598   7.693
 2334POPC   C1B32935   7.931  31.535   8.793
 2334POPC   C2B32936   7.774  31.562   8.380
 2334POPC   C3B32937   7.937  31.430   7.963
 2334POPC   C4B32938   7.924  31.640   7.568
 2335POPC   NC332939  23.585  17.835   9.499
 2335POPC   PO432940  23.649  17.193   9.340
 2335POPC   GL132941  23.809  17.566   9.107
 2335POPC   GL232942  23.499  17.722   9.029
 2335POPC   C1A32943  23.876  17.666   8.656
 2335POPC   D2A32944  23.959  17.307   8.399
 2335POPC   C3A32945  23.936  17.372   7.964
 2335POPC   C4A32946  23.664  17.177   7.688
 2335POPC   C1B32947  23.484  17.376   8.738
 2335POPC   C2B32948  23.368  17.344   8.332
 2335POPC   C3B32949  23.429  17.546   7.953
 2335POPC   C4B32950  23.656  17.694   7.617
 2336POPC   NC332951   4.189  29.601   9.491
 2336POPC   PO432952   4.235  30.300   9.493
 2336POPC   GL132953   4.533  30.079   9.200
 2336POPC   GL232954   4.241  29.915   9.096
 2336POPC   C1A32955   4.595  29.946   8.730
 2336POPC   D2A32956   4.345  30.074   8.370
 2336POPC   C3A32957   4.487  29.992   7.959
 2336POPC   C4A32958   4.097  30.074   7.741
 2336POPC   C1B32959   4.108  29.744   8.718
 2336POPC   C2B32960   4.016  29.666   8.315
 2336POPC   C3B32961   4.143  29.596   7.929
 2336POPC   C4B32962   4.194  29.310   7.651
 2337POPC   NC332963   5.036  29.444   9.583
 2337POPC   PO432964   4.965  28.773   9.414
 2337POPC   GL132965   5.084  29.112   9.184
 2337POPC   GL232966   4.731  29.235   9.193
 2337POPC   C1A32967   5.313  29.167   8.806
 2337POPC   D2A32968   5.389  29.040   8.390
 2337POPC   C3A32969   5.340  29.334   8.080
 2337POPC   C4A32970   5.140  29.373   7.712
 2337POPC   C1B32971   4.800  29.001   8.786
 2337POPC   C2B32972   4.798  29.123   8.372
 2337POPC   C3B32973   4.925  29.025   7.987
 2337POPC   C4B32974   4.756  29.060   7.575
 2338POPC   NC332975  39.651   0.835   9.589
 2338POPC   PO432976  39.119   1.141   9.713
 2338POPC   GL132977  39.126   1.091   9.258
 2338POPC   GL232978  39.066   1.381   9.117
 2338POPC   C1A32979  39.311   1.066   8.800
 2338POPC   D2A32980  39.580   1.223   8.452
 2338POPC   C3A32981  39.382   1.154   8.062
 2338POPC   C4A32982  39.167   1.012   7.723
 2338POPC   C1B32983  38.865   1.532   8.805
 2338POPC   C2B32984  38.677   1.379   8.458
 2338POPC   C3B32985  38.845   1.210   8.072
 2338POPC   C4B32986  38.821   1.378   7.629
 2339POPC   NC332987  30.703  20.659   9.632
 2339POPC   PO432988  31.169  20.331   9.671
 2339POPC   GL132989  31.017  20.750   9.273
 2339POPC   GL232990  30.657  20.703   9.124
 2339POPC   C1A32991  31.015  20.800   8.804
 2339POPC   D2A32992  30.772  20.538   8.538
 2339POPC   C3A32993  30.755  20.621   8.131
 2339POPC   C4A32994  30.731  20.377   7.766
 2339POPC   C1B32995  30.406  20.802   8.742
 2339POPC   C2B32996  30.271  20.781   8.312
 2339POPC   C3B32997  30.318  20.684   7.877
 2339POPC   C4B32998  30.497  20.780   7.475
 2340POPC   NC332999  43.803  28.110   9.794
 2340POPC   PO433000  43.670  28.541   9.320
 2340POPC   GL133001  43.931  28.556   8.981
 2340POPC   GL233002  43.631  28.382   8.859
 2340POPC   C1A33003  44.075  28.268   8.638
 2340POPC   D2A33004  44.021  28.254   8.180
 2340POPC   C3A33005  44.204  28.601   7.969
 2340POPC   C4A33006  44.271  28.565   7.566
 2340POPC   C1B33007  43.611  28.428   8.492
 2340POPC   C2B33008  43.755  28.688   8.214
 2340POPC   C3B33009  43.716  28.510   7.816
 2340POPC   C4B33010  43.499  28.217   7.557
 2341POPC   NC333011  22.825  17.898   9.497
 2341POPC   PO433012  22.848  17.261   9.394
 2341POPC   GL133013  23.105  17.374   9.085
 2341POPC   GL233014  22.963  17.674   9.046
 2341POPC   C1A33015  22.984  17.321   8.682
 2341POPC   D2A33016  22.843  17.589   8.389
 2341POPC   C3A33017  22.955  17.402   8.040
 2341POPC   C4A33018  22.867  17.268   7.667
 2341POPC   C1B33019  23.166  17.837   8.680
 2341POPC   C2B33020  23.073  18.071   8.302
 2341POPC   C3B33021  22.800  17.922   8.010
 2341POPC   C4B33022  23.035  17.766   7.686
 2342POPC   NC333023  27.834   1.464   9.497
 2342POPC   PO433024  27.183   1.259   9.482
 2342POPC   GL133025  27.520   1.261   9.166
 2342POPC   GL233026  27.513   1.564   9.100
 2342POPC   C1A33027  27.738   1.146   8.799
 2342POPC   D2A33028  27.660   1.263   8.373
 2342POPC   C3A33029  27.633   1.083   7.936
 2342POPC   C4A33030  27.263   0.821   7.764
 2342POPC   C1B33031  27.876   1.647   8.869
 2342POPC   C2B33032  28.003   1.654   8.452
 2342POPC   C3B33033  27.816   1.616   8.051
 2342POPC   C4B33034  27.691   1.614   7.669
 2343POPC   NC333035   9.200  31.854   9.299
 2343POPC   PO433036   8.648  31.584   9.578
 2343POPC   GL133037   8.777  31.559   9.146
 2343POPC   GL233038   9.093  31.422   9.057
 2343POPC   C1A33039   8.751  31.436   8.712
 2343POPC   D2A33040   8.966  31.617   8.394
 2343POPC   C3A33041   8.768  31.488   8.057
 2343POPC   C4A33042   8.951  31.562   7.666
 2343POPC   C1B33043   9.305  31.374   8.721
 2343POPC   C2B33044   9.191  31.140   8.389
 2343POPC   C3B33045   9.207  31.259   7.982
 2343POPC   C4B33046   9.123  31.091   7.573
 2344POPC   NC333047   9.100   2.194   9.592
 2344POPC   PO433048   9.629   2.239   9.241
 2344POPC   GL133049   9.247   1.998   9.110
 2344POPC   GL233050   8.866   2.065   9.167
 2344POPC   C1A33051   9.065   1.945   8.707
 2344POPC   D2A33052   9.170   2.190   8.328
 2344POPC   C3A33053   9.153   1.987   7.962
 2344POPC   C4A33054   9.408   1.940   7.640
 2344POPC   C1B33055   8.782   2.356   8.839
 2344POPC   C2B33056   8.675   2.308   8.406
 2344POPC   C3B33057   8.846   2.418   7.989
 2344POPC   C4B33058   8.852   2.150   7.585
 2345POPC   NC333059  29.679   8.136   9.167
 2345POPC   PO433060  29.162   8.143   9.595
 2345POPC   GL133061  29.185   8.000   9.189
 2345POPC   GL233062  29.146   8.346   9.100
 2345POPC   C1A33063  29.068   7.903   8.765
 2345POPC   D2A33064  29.008   8.136   8.375
 2345POPC   C3A33065  29.300   8.150   8.027
 2345POPC   C4A33066  29.023   7.930   7.775
 2345POPC   C1B33067  29.240   8.521   8.680
 2345POPC   C2B33068  29.099   8.631   8.251
 2345POPC   C3B33069  28.942   8.483   7.851
 2345POPC   C4B33070  28.887   8.576   7.377
 2346POPC   NC333071  43.641  44.901   9.482
 2346POPC   PO433072  44.268  44.626   9.774
 2346POPC   GL133073  44.200  44.610   9.312
 2346POPC   GL233074  44.097  44.936   9.126
 2346POPC   C1A33075  44.159  44.489   8.866
 2346POPC   D2A33076  44.183  44.706   8.451
 2346POPC   C3A33077  43.893  44.529   8.112
 2346POPC   C4A33078  43.633  44.254   7.813
 2346POPC   C1B33079  43.998   0.138   8.670
 2346POPC   C2B33080  43.985   0.097   8.166
 2346POPC   C3B33081  43.927  44.883   7.745
 2346POPC   C4B33082  44.063  44.961   7.272
 2347POPC   NC333083  26.564  10.777   9.917
 2347POPC   PO433084  27.080  10.540   9.521
 2347POPC   GL133085  26.827  10.526   9.135
 2347POPC   GL233086  26.601  10.775   8.969
 2347POPC   C1A33087  26.976  10.353   8.749
 2347POPC   D2A33088  27.035  10.543   8.400
 2347POPC   C3A33089  26.821  10.508   8.038
 2347POPC   C4A33090  26.600  10.842   7.864
 2347POPC   C1B33091  26.487  10.338   8.782
 2347POPC   C2B33092  26.545  10.173   8.364
 2347POPC   C3B33093  26.377  10.258   7.924
 2347POPC   C4B33094  26.482  10.179   7.496
 2348POPC   NC333095  33.332  27.624   9.790
 2348POPC   PO433096  32.823  27.699   9.304
 2348POPC   GL133097  32.997  27.452   9.057
 2348POPC   GL233098  33.334  27.373   9.145
 2348POPC   C1A33099  32.933  27.605   8.645
 2348POPC   D2A33100  32.626  27.798   8.385
 2348POPC   C3A33101  32.686  27.677   7.951
 2348POPC   C4A33102  32.962  27.610   7.612
 2348POPC   C1B33103  33.299  27.245   8.682
 2348POPC   C2B33104  33.097  27.309   8.253
 2348POPC   C3B33105  33.314  27.353   7.858
 2348POPC   C4B33106  33.447  27.492   7.436
 2349POPC   NC333107   6.936  14.556   9.496
 2349POPC   PO433108   6.268  14.649   9.468
 2349POPC   GL133109   6.530  14.365   9.165
 2349POPC   GL233110   6.832  14.478   9.021
 2349POPC   C1A33111   6.618  14.073   8.793
 2349POPC   D2A33112   6.486  14.101   8.360
 2349POPC   C3A33113   6.808  14.115   8.045
 2349POPC   C4A33114   6.887  14.243   7.645
 2349POPC   C1B33115   6.537  14.602   8.719
 2349POPC   C2B33116   6.583  14.605   8.284
 2349POPC   C3B33117   6.567  14.592   7.864
 2349POPC   C4B33118   6.936  14.789   7.715
 2350POPC   NC333119  15.502   7.076   9.470
 2350POPC   PO433120  15.567   7.774   9.413
 2350POPC   GL133121  15.315   7.429   9.139
 2350POPC   GL233122  14.989   7.477   9.037
 2350POPC   C1A33123  15.303   7.189   8.710
 2350POPC   D2A33124  15.129   7.072   8.285
 2350POPC   C3A33125  15.191   7.313   7.884
 2350POPC   C4A33126  15.228   7.774   7.858
 2350POPC   C1B33127  14.974   7.608   8.616
 2350POPC   C2B33128  14.689   7.759   8.304
 2350POPC   C3B33129  14.739   7.634   7.895
 2350POPC   C4B33130  14.726   7.224   7.674
 2351POPC   NC333131  26.973   1.654   9.342
 2351POPC   PO433132  26.563   1.230   9.565
 2351POPC   GL133133  26.772   1.112   9.138
 2351POPC   GL233134  27.113   0.999   9.027
 2351POPC   C1A33135  26.778   1.025   8.653
 2351POPC   D2A33136  26.781   1.267   8.244
 2351POPC   C3A33137  26.743   1.028   7.827
 2351POPC   C4A33138  26.614   0.989   7.358
 2351POPC   C1B33139  27.228   1.367   8.726
 2351POPC   C2B33140  27.249   1.566   8.288
 2351POPC   C3B33141  27.167   1.307   7.901
 2351POPC   C4B33142  26.873   1.406   7.532
 2352POPC   NC333143  12.757   7.628   9.491
 2352POPC   PO433144  13.141   7.139   9.551
 2352POPC   GL133145  12.973   7.267   9.147
 2352POPC   GL233146  12.633   7.370   9.065
 2352POPC   C1A33147  13.056   7.421   8.729
 2352POPC   D2A33148  12.775   7.393   8.381
 2352POPC   C3A33149  12.930   7.233   8.000
 2352POPC   C4A33150  12.747   7.171   7.600
 2352POPC   C1B33151  12.673   7.753   8.793
 2352POPC   C2B33152  12.948   7.878   8.434
 2352POPC   C3B33153  12.942   7.761   8.033
 2352POPC   C4B33154  12.683   7.659   7.690
 2353POPC   NC333155   9.404  42.977   9.376
 2353POPC   PO433156   8.796  43.196   9.440
 2353POPC   GL133157   8.833  42.942   9.097
 2353POPC   GL233158   9.117  43.130   8.965
 2353POPC   C1A33159   8.822  42.810   8.691
 2353POPC   D2A33160   9.006  43.122   8.449
 2353POPC   C3A33161   8.915  43.164   8.030
 2353POPC   C4A33162   8.962  42.860   7.718
 2353POPC   C1B33163   9.464  43.384   8.770
 2353POPC   C2B33164   9.468  43.643   8.411
 2353POPC   C3B33165   9.292  43.538   7.994
 2353POPC   C4B33166   9.217  43.334   7.598
 2354POPC   NC333167  42.729   8.220   9.485
 2354POPC   PO433168  43.441   8.309   9.567
 2354POPC   GL133169  43.523   8.353   9.138
 2354POPC   GL233170  43.478   8.029   9.001
 2354POPC   C1A33171  43.411   8.459   8.679
 2354POPC   D2A33172  43.142   8.264   8.384
 2354POPC   C3A33173  43.116   8.300   7.943
 2354POPC   C4A33174  42.768   8.365   7.677
 2354POPC   C1B33175  43.591   7.945   8.588
 2354POPC   C2B33176  43.504   7.969   8.128
 2354POPC   C3B33177  43.492   8.068   7.648
 2354POPC   C4B33178  43.261   7.975   7.245
 2355POPC   NC333179  10.441  14.526   9.597
 2355POPC   PO433180  11.038  14.532   9.455
 2355POPC   GL133181  10.696  14.602   9.139
 2355POPC   GL233182  10.486  14.286   9.132
 2355POPC   C1A33183  10.691  14.469   8.678
 2355POPC   D2A33184  10.742  14.121   8.365
 2355POPC   C3A33185  10.739  14.267   7.889
 2355POPC   C4A33186  10.569  14.685   7.788
 2355POPC   C1B33187  10.214  14.278   8.754
 2355POPC   C2B33188  10.194  14.053   8.375
 2355POPC   C3B33189  10.277  14.335   8.057
 2355POPC   C4B33190  10.106  14.424   7.658
 2356POPC   NC333191  35.802  44.233   9.413
 2356POPC   PO433192  36.524  43.975   9.482
 2356POPC   GL133193  36.355  43.870   9.120
 2356POPC   GL233194  36.015  43.794   9.128
 2356POPC   C1A33195  36.374  43.982   8.710
 2356POPC   D2A33196  36.358  43.854   8.299
 2356POPC   C3A33197  36.495  44.162   8.038
 2356POPC   C4A33198  36.453  43.896   7.722
 2356POPC   C1B33199  35.874  43.983   8.731
 2356POPC   C2B33200  36.069  44.249   8.384
 2356POPC   C3B33201  36.003  44.066   7.968
 2356POPC   C4B33202  35.742  44.042   7.572
 2357POPC   NC333203  29.466  15.118   9.518
 2357POPC   PO433204  28.984  15.432   9.911
 2357POPC   GL133205  29.034  15.242   9.326
 2357POPC   GL233206  29.318  15.054   9.052
 2357POPC   C1A33207  29.061  15.389   8.809
 2357POPC   D2A33208  28.902  15.392   8.376
 2357POPC   C3A33209  29.162  15.379   7.998
 2357POPC   C4A33210  29.109  15.573   7.598
 2357POPC   C1B33211  29.218  14.863   8.676
 2357POPC   C2B33212  29.115  14.920   8.278
 2357POPC   C3B33213  28.904  14.721   7.999
 2357POPC   C4B33214  29.108  14.765   7.671
 2358POPC   NC333215  23.196  19.186   9.822
 2358POPC   PO433216  23.026  19.822   9.683
 2358POPC   GL133217  23.008  19.794   9.221
 2358POPC   GL233218  22.694  19.677   9.123
 2358POPC   C1A33219  23.094  19.705   8.771
 2358POPC   D2A33220  23.042  19.939   8.366
 2358POPC   C3A33221  23.090  19.709   7.975
 2358POPC   C4A33222  23.131  19.712   7.531
 2358POPC   C1B33223  22.669  19.950   8.769
 2358POPC   C2B33224  22.671  19.622   8.467
 2358POPC   C3B33225  22.532  19.576   8.090
 2358POPC   C4B33226  22.629  19.744   7.719
 2359POPC   NC333227   2.901  21.030   9.493
 2359POPC   PO433228   2.628  21.685   9.389
 2359POPC   GL133229   2.953  21.452   9.173
 2359POPC   GL233230   2.931  21.133   8.998
 2359POPC   C1A33231   3.031  21.613   8.781
 2359POPC   D2A33232   2.822  21.718   8.425
 2359POPC   C3A33233   3.050  21.634   8.073
 2359POPC   C4A33234   2.881  21.719   7.687
 2359POPC   C1B33235   2.698  21.222   8.657
 2359POPC   C2B33236   2.754  21.220   8.222
 2359POPC   C3B33237   2.535  21.328   7.846
 2359POPC   C4B33238   2.463  21.061   7.457
 2360POPC   NC333239   2.051   7.123   9.610
 2360POPC   PO433240   1.668   7.653   9.640
 2360POPC   GL133241   1.880   7.570   9.230
 2360POPC   GL233242   1.855   7.239   9.161
 2360POPC   C1A33243   2.128   7.553   8.806
 2360POPC   D2A33244   2.177   7.698   8.346
 2360POPC   C3A33245   1.975   7.561   7.962
 2360POPC   C4A33246   2.117   7.202   7.782
 2360POPC   C1B33247   1.686   7.314   8.778
 2360POPC   C2B33248   1.837   7.287   8.377
 2360POPC   C3B33249   1.689   7.068   8.027
 2360POPC   C4B33250   1.606   7.164   7.618
 2361POPC   NC333251  25.598   2.987   9.435
 2361POPC   PO433252  26.214   2.717   9.631
 2361POPC   GL133253  26.106   2.799   9.217
 2361POPC   GL233254  25.827   2.627   9.140
 2361POPC   C1A33255  26.235   2.695   8.817
 2361POPC   D2A33256  26.221   2.800   8.418
 2361POPC   C3A33257  25.909   2.643   8.129
 2361POPC   C4A33258  25.966   2.788   7.712
 2361POPC   C1B33259  25.756   2.803   8.704
 2361POPC   C2B33260  25.748   3.087   8.374
 2361POPC   C3B33261  25.565   3.003   7.984
 2361POPC   C4B33262  25.519   3.027   7.549
 2362POPC   NC333263  38.926  27.524   9.577
 2362POPC   PO433264  38.312  27.802   9.558
 2362POPC   GL133265  38.219  27.666   9.154
 2362POPC   GL233266  38.541  27.504   9.196
 2362POPC   C1A33267  38.216  27.876   8.730
 2362POPC   D2A33268  38.069  28.010   8.327
 2362POPC   C3A33269  38.244  27.825   7.957
 2362POPC   C4A33270  38.040  27.676   7.596
 2362POPC   C1B33271  38.610  27.560   8.768
 2362POPC   C2B33272  38.396  27.506   8.369
 2362POPC   C3B33273  38.481  27.170   8.047
 2362POPC   C4B33274  38.605  27.205   7.605
 2363POPC   NC333275  33.140  24.087   9.841
 2363POPC   PO433276  32.941  23.536   9.529
 2363POPC   GL133277  32.796  23.624   9.096
 2363POPC   GL233278  32.701  23.316   9.073
 2363POPC   C1A33279  32.870  23.886   8.718
 2363POPC   D2A33280  32.880  24.139   8.317
 2363POPC   C3A33281  32.714  23.958   7.933
 2363POPC   C4A33282  32.623  24.048   7.522
 2363POPC   C1B33283  32.901  23.361   8.676
 2363POPC   C2B33284  32.844  23.593   8.287
 2363POPC   C3B33285  33.180  23.792   8.032
 2363POPC   C4B33286  33.436  23.559   7.762
 2364POPC   NC333287  38.051  27.351   9.552
 2364POPC   PO433288  37.454  27.829   9.471
 2364POPC   GL133289  37.701  27.721   9.135
 2364POPC   GL233290  37.692  27.401   9.118
 2364POPC   C1A33291  37.663  27.859   8.730
 2364POPC   D2A33292  37.624  27.612   8.362
 2364POPC   C3A33293  37.706  27.786   7.988
 2364POPC   C4A33294  37.528  27.735   7.581
 2364POPC   C1B33295  37.948  27.430   8.769
 2364POPC   C2B33296  37.968  27.226   8.409
 2364POPC   C3B33297  38.011  27.373   8.027
 2364POPC   C4B33298  37.976  27.185   7.657
 2365POPC   NC333299   1.619  31.312   9.506
 2365POPC   PO433300   1.117  31.657   9.498
 2365POPC   GL133301   1.209  31.315   9.181
 2365POPC   GL233302   1.054  30.995   9.159
 2365POPC   C1A33303   1.366  31.208   8.750
 2365POPC   D2A33304   1.170  31.247   8.368
 2365POPC   C3A33305   1.332  31.573   8.150
 2365POPC   C4A33306   1.533  31.414   7.803
 2365POPC   C1B33307   0.867  31.250   8.799
 2365POPC   C2B33308   0.775  31.571   8.475
 2365POPC   C3B33309   0.799  31.440   8.032
 2365POPC   C4B33310   1.063  31.585   7.719
 2366POPC   NC333311  27.283   9.214   9.499
 2366POPC   PO433312  28.001   9.223   9.531
 2366POPC   GL133313  27.933   8.945   9.230
 2366POPC   GL233314  27.567   8.844   9.249
 2366POPC   C1A33315  27.816   8.976   8.826
 2366POPC   D2A33316  27.564   9.213   8.530
 2366POPC   C3A33317  27.695   9.174   8.106
 2366POPC   C4A33318  27.720   9.084   7.688
 2366POPC   C1B33319  27.255   8.959   8.879
 2366POPC   C2B33320  27.164   8.726   8.479
 2366POPC   C3B33321  27.308   8.695   8.043
 2366POPC   C4B33322  27.267   8.784   7.603
 2367POPC   NC333323  26.258   2.263   9.734
 2367POPC   PO433324  25.749   1.834   9.634
 2367POPC   GL133325  26.078   1.853   9.285
 2367POPC   GL233326  26.194   2.220   9.210
 2367POPC   C1A33327  26.008   1.812   8.818
 2367POPC   D2A33328  25.788   1.845   8.407
 2367POPC   C3A33329  26.030   1.824   7.997
 2367POPC   C4A33330  26.039   1.801   7.508
 2367POPC   C1B33331  26.328   2.204   8.772
 2367POPC   C2B33332  26.163   2.231   8.338
 2367POPC   C3B33333  26.409   2.171   7.948
 2367POPC   C4B33334  26.381   2.287   7.541
 2368POPC   NC333335   7.781  34.797   9.546
 2368POPC   PO433336   7.324  34.273   9.465
 2368POPC   GL133337   7.539  34.507   9.170
 2368POPC   GL233338   7.411  34.847   9.096
 2368POPC   C1A33339   7.438  34.460   8.762
 2368POPC   D2A33340   7.275  34.211   8.502
 2368POPC   C3A33341   7.440  34.313   8.122
 2368POPC   C4A33342   7.548  34.232   7.714
 2368POPC   C1B33343   7.594  34.936   8.676
 2368POPC   C2B33344   7.624  34.799   8.237
 2368POPC   C3B33345   7.569  34.730   7.793
 2368POPC   C4B33346   7.532  34.991   7.453
 2369POPC   NC333347  18.730  42.917   9.607
 2369POPC   PO433348  19.300  43.276   9.559
 2369POPC   GL133349  19.360  43.224   9.144
 2369POPC   GL233350  19.072  43.051   9.108
 2369POPC   C1A33351  19.214  43.382   8.733
 2369POPC   D2A33352  19.012  43.223   8.378
 2369POPC   C3A33353  19.183  43.348   8.045
 2369POPC   C4A33354  19.348  43.356   7.648
 2369POPC   C1B33355  18.773  43.075   8.789
 2369POPC   C2B33356  18.664  42.846   8.390
 2369POPC   C3B33357  18.809  42.915   7.998
 2369POPC   C4B33358  18.861  43.198   7.688
 2370POPC   NC333359  37.640   1.709   9.474
 2370POPC   PO433360  37.986   2.242   9.433
 2370POPC   GL133361  37.719   2.073   9.137
 2370POPC   GL233362  37.370   2.132   9.195
 2370POPC   C1A33363  37.634   1.912   8.747
 2370POPC   D2A33364  37.737   1.751   8.366
 2370POPC   C3A33365  37.776   1.994   7.975
 2370POPC   C4A33366  37.694   1.806   7.570
 2370POPC   C1B33367  37.313   2.304   8.778
 2370POPC   C2B33368  37.430   2.180   8.333
 2370POPC   C3B33369  37.327   1.791   8.040
 2370POPC   C4B33370  37.169   1.858   7.629
 2371POPC   NC333371   3.996  42.587   9.822
 2371POPC   PO433372   4.112  43.290   9.587
 2371POPC   GL133373   4.348  43.288   9.192
 2371POPC   GL233374   4.564  43.011   9.139
 2371POPC   C1A33375   4.230  43.077   8.766
 2371POPC   D2A33376   4.190  43.263   8.362
 2371POPC   C3A33377   4.250  43.036   8.007
 2371POPC   C4A33378   3.977  42.902   7.683
 2371POPC   C1B33379   4.687  43.300   8.808
 2371POPC   C2B33380   4.740  43.190   8.423
 2371POPC   C3B33381   4.680  43.342   8.030
 2371POPC   C4B33382   4.683  43.053   7.705
 2372POPC   NC333383  39.230  41.685   9.475
 2372POPC   PO433384  39.123  41.121   9.186
 2372POPC   GL133385  39.179  41.475   8.993
 2372POPC   GL233386  39.528  41.486   9.066
 2372POPC   C1A33387  39.295  41.495   8.575
 2372POPC   D2A33388  39.432  41.382   8.154
 2372POPC   C3A33389  39.171  41.605   7.823
 2372POPC   C4A33390  38.876  41.489   7.527
 2372POPC   C1B33391  39.603  41.841   8.809
 2372POPC   C2B33392  39.674  41.809   8.364
 2372POPC   C3B33393  39.614  41.834   7.923
 2372POPC   C4B33394  39.644  41.438   7.686
 2373POPC   NC333395  40.059  15.560   9.322
 2373POPC   PO433396  39.701  16.004   9.332
 2373POPC   GL133397  39.884  15.854   8.946
 2373POPC   GL233398  40.191  16.006   9.077
 2373POPC   C1A33399  40.251  15.758   8.644
 2373POPC   D2A33400  40.341  15.791   8.200
 2373POPC   C3A33401  39.965  15.717   7.974
 2373POPC   C4A33402  39.818  15.876   7.602
 2373POPC   C1B33403  40.089  16.274   8.713
 2373POPC   C2B33404  40.242  16.296   8.287
 2373POPC   C3B33405  40.151  16.188   7.857
 2373POPC   C4B33406  40.117  16.218   7.378
 2374POPC   NC333407  35.039  16.681   9.480
 2374POPC   PO433408  35.692  16.899   9.414
 2374POPC   GL133409  35.418  16.788   9.084
 2374POPC   GL233410  35.461  16.443   9.030
 2374POPC   C1A33411  35.335  16.892   8.648
 2374POPC   D2A33412  35.488  17.174   8.313
 2374POPC   C3A33413  35.297  17.067   7.975
 2374POPC   C4A33414  35.056  16.752   7.859
 2374POPC   C1B33415  35.137  16.394   8.706
 2374POPC   C2B33416  35.180  16.490   8.299
 2374POPC   C3B33417  35.536  16.637   8.087
 2374POPC   C4B33418  35.593  16.420   7.720
 2375POPC   NC333419  29.530  27.077   9.429
 2375POPC   PO433420  30.123  26.665   9.486
 2375POPC   GL133421  29.888  26.799   9.143
 2375POPC   GL233422  29.789  26.469   9.058
 2375POPC   C1A33423  29.868  26.829   8.689
 2375POPC   D2A33424  29.810  26.559   8.328
 2375POPC   C3A33425  29.821  26.813   7.946
 2375POPC   C4A33426  29.734  26.795   7.477
 2375POPC   C1B33427  29.451  26.540   8.725
 2375POPC   C2B33428  29.302  26.645   8.292
 2375POPC   C3B33429  29.436  26.503   7.869
 2375POPC   C4B33430  29.445  26.358   7.438
 2376POPC   NC333431  13.199  22.363   9.467
 2376POPC   PO433432  12.532  22.210   9.430
 2376POPC   GL133433  12.845  22.334   9.084
 2376POPC   GL233434  13.184  22.148   8.991
 2376POPC   C1A33435  12.746  22.174   8.685
 2376POPC   D2A33436  12.384  22.203   8.421
 2376POPC   C3A33437  12.544  22.328   8.027
 2376POPC   C4A33438  12.966  22.170   7.873
 2376POPC   C1B33439  13.185  22.453   8.637
 2376POPC   C2B33440  13.202  22.530   8.189
 2376POPC   C3B33441  13.142  22.640   7.744
 2376POPC   C4B33442  12.876  22.699   7.371
 2377POPC   NC333443  31.115  30.694   9.529
 2377POPC   PO433444  31.754  30.346   9.519
 2377POPC   GL133445  31.540  30.615   9.205
 2377POPC   GL233446  31.209  30.466   9.111
 2377POPC   C1A33447  31.609  30.590   8.756
 2377POPC   D2A33448  31.599  30.280   8.415
 2377POPC   C3A33449  31.449  30.569   8.081
 2377POPC   C4A33450  31.597  30.947   7.871
 2377POPC   C1B33451  31.120  30.702   8.793
 2377POPC   C2B33452  31.012  30.690   8.394
 2377POPC   C3B33453  31.060  30.958   8.053
 2377POPC   C4B33454  31.164  30.775   7.683
 2378POPC   NC333455  40.161  25.832   9.589
 2378POPC   PO433456  39.981  25.134   9.400
 2378POPC   GL133457  39.902  25.106   9.022
 2378POPC   GL233458  40.226  25.043   8.924
 2378POPC   C1A33459  39.686  25.185   8.692
 2378POPC   D2A33460  39.688  25.436   8.347
 2378POPC   C3A33461  39.808  25.261   7.998
 2378POPC   C4A33462  40.004  25.485   7.706
 2378POPC   C1B33463  40.140  25.339   8.571
 2378POPC   C2B33464  40.259  25.400   8.174
 2378POPC   C3B33465  40.291  25.085   7.843
 2378POPC   C4B33466  40.128  25.030   7.451
 2379POPC   NC333467   7.693  13.204   9.293
 2379POPC   PO433468   7.207  12.791   9.483
 2379POPC   GL133469   7.408  12.855   9.070
 2379POPC   GL233470   7.768  12.748   9.062
 2379POPC   C1A33471   7.513  13.068   8.671
 2379POPC   D2A33472   7.609  13.054   8.248
 2379POPC   C3A33473   7.258  13.040   7.970
 2379POPC   C4A33474   7.278  12.969   7.531
 2379POPC   C1B33475   7.542  12.553   8.683
 2379POPC   C2B33476   7.335  12.604   8.256
 2379POPC   C3B33477   7.395  12.528   7.809
 2379POPC   C4B33478   7.673  12.244   7.606
 2380POPC   NC333479   6.917  41.093   9.357
 2380POPC   PO433480   7.001  40.414   9.394
 2380POPC   GL133481   6.737  40.656   9.118
 2380POPC   GL233482   6.464  40.871   9.177
 2380POPC   C1A33483   6.793  40.888   8.749
 2380POPC   D2A33484   6.957  40.814   8.360
 2380POPC   C3A33485   6.692  40.657   8.020
 2380POPC   C4A33486   6.857  40.754   7.637
 2380POPC   C1B33487   6.272  40.932   8.771
 2380POPC   C2B33488   6.481  40.995   8.360
 2380POPC   C3B33489   6.726  41.162   8.022
 2380POPC   C4B33490   6.462  41.086   7.698
 2381POPC   NC333491  12.735  39.574   9.430
 2381POPC   PO433492  13.170  39.069   9.631
 2381POPC   GL133493  13.098  39.234   9.200
 2381POPC   GL233494  12.944  38.974   9.065
 2381POPC   C1A33495  13.033  39.321   8.711
 2381POPC   D2A33496  12.757  39.313   8.361
 2381POPC   C3A33497  12.891  39.463   7.972
 2381POPC   C4A33498  12.986  39.298   7.552
 2381POPC   C1B33499  12.731  38.890   8.672
 2381POPC   C2B33500  12.956  38.852   8.302
 2381POPC   C3B33501  12.812  38.937   7.903
 2381POPC   C4B33502  13.090  38.820   7.598
 2382POPC   NC333503   4.140  16.434   9.560
 2382POPC   PO433504   4.769  16.643   9.569
 2382POPC   GL133505   4.450  16.616   9.197
 2382POPC   GL233506   4.103  16.766   9.163
 2382POPC   C1A33507   4.431  16.508   8.758
 2382POPC   D2A33508   4.489  16.746   8.395
 2382POPC   C3A33509   4.391  16.680   7.967
 2382POPC   C4A33510   4.275  16.327   7.709
 2382POPC   C1B33511   4.272  16.997   8.814
 2382POPC   C2B33512   4.100  17.065   8.399
 2382POPC   C3B33513   4.081  17.187   8.001
 2382POPC   C4B33514   4.059  16.939   7.669
 2383POPC   NC333515   6.448  28.690   9.512
 2383POPC   PO433516   6.219  28.070   9.482
 2383POPC   GL133517   6.588  28.266   9.212
 2383POPC   GL233518   6.570  28.637   9.049
 2383POPC   C1A33519   6.769  28.255   8.804
 2383POPC   D2A33520   6.620  28.135   8.429
 2383POPC   C3A33521   6.584  28.277   7.991
 2383POPC   C4A33522   6.670  28.351   7.531
 2383POPC   C1B33523   6.745  28.736   8.697
 2383POPC   C2B33524   6.935  28.533   8.366
 2383POPC   C3B33525   6.895  28.673   7.963
 2383POPC   C4B33526   6.530  28.779   7.765
 2384POPC   NC333527   5.019  24.033   9.510
 2384POPC   PO433528   5.230  23.444   9.601
 2384POPC   GL133529   5.164  23.651   9.209
 2384POPC   GL233530   4.798  23.683   9.094
 2384POPC   C1A33531   5.318  23.762   8.816
 2384POPC   D2A33532   5.405  23.884   8.406
 2384POPC   C3A33533   5.178  23.757   8.048
 2384POPC   C4A33534   5.367  23.580   7.706
 2384POPC   C1B33535   4.828  23.793   8.625
 2384POPC   C2B33536   4.932  24.134   8.315
 2384POPC   C3B33537   4.930  24.194   7.853
 2384POPC   C4B33538   4.952  23.877   7.533
 2385POPC   NC333539  39.121   8.442   9.550
 2385POPC   PO433540  39.605   8.093   9.418
 2385POPC   GL133541  39.250   8.163   9.132
 2385POPC   GL233542  39.215   8.524   9.056
 2385POPC   C1A33543  39.158   8.136   8.691
 2385POPC   D2A33544  39.279   8.453   8.395
 2385POPC   C3A33545  39.526   8.323   8.018
 2385POPC   C4A33546  39.433   7.925   7.821
 2385POPC   C1B33547  38.870   8.560   8.769
 2385POPC   C2B33548  38.778   8.352   8.388
 2385POPC   C3B33549  39.005   8.220   8.017
 2385POPC   C4B33550  39.128   8.456   7.635
 2386POPC   NC333551  13.372   1.822   9.725
 2386POPC   PO433552  12.870   2.255   9.538
 2386POPC   GL133553  13.093   2.081   9.216
 2386POPC   GL233554  13.123   1.722   9.268
 2386POPC   C1A33555  12.950   2.041   8.784
 2386POPC   D2A33556  12.798   2.125   8.402
 2386POPC   C3A33557  12.840   2.003   7.938
 2386POPC   C4A33558  12.765   2.231   7.524
 2386POPC   C1B33559  13.240   1.638   8.838
 2386POPC   C2B33560  13.023   1.632   8.414
 2386POPC   C3B33561  13.243   1.699   7.997
 2386POPC   C4B33562  13.084   1.693   7.577
 2387POPC   NC333563  19.045   1.576   9.430
 2387POPC   PO433564  18.642   1.064   9.331
 2387POPC   GL133565  18.924   1.041   9.032
 2387POPC   GL233566  19.063   1.373   8.982
 2387POPC   C1A33567  18.854   1.125   8.613
 2387POPC   D2A33568  18.939   1.398   8.305
 2387POPC   C3A33569  18.978   1.183   7.945
 2387POPC   C4A33570  18.930   1.404   7.595
 2387POPC   C1B33571  19.325   1.388   8.634
 2387POPC   C2B33572  19.410   1.227   8.226
 2387POPC   C3B33573  19.461   1.323   7.785
 2387POPC   C4B33574  19.279   1.075   7.463
 2388POPC   NC333575  12.810  21.043   9.260
 2388POPC   PO433576  12.701  20.416   9.555
 2388POPC   GL133577  12.771  20.559   9.142
 2388POPC   GL233578  13.109  20.569   9.034
 2388POPC   C1A33579  12.731  20.721   8.704
 2388POPC   D2A33580  12.540  20.741   8.325
 2388POPC   C3A33581  12.766  20.797   7.938
 2388POPC   C4A33582  12.741  20.583   7.522
 2388POPC   C1B33583  13.188  20.947   8.742
 2388POPC   C2B33584  13.052  21.039   8.336
 2388POPC   C3B33585  13.230  21.133   7.947
 2388POPC   C4B33586  13.167  20.838   7.608
 2389POPC   NC333587  32.475  37.527   9.407
 2389POPC   PO433588  32.158  38.177   9.319
 2389POPC   GL133589  32.110  37.752   9.117
 2389POPC   GL233590  32.469  37.780   8.967
 2389POPC   C1A33591  32.152  37.458   8.764
 2389POPC   D2A33592  32.418  37.618   8.445
 2389POPC   C3A33593  32.316  37.844   8.088
 2389POPC   C4A33594  32.020  37.975   7.758
 2389POPC   C1B33595  32.661  37.331   8.813
 2389POPC   C2B33596  32.738  37.252   8.353
 2389POPC   C3B33597  32.551  37.331   7.945
 2389POPC   C4B33598  32.531  37.153   7.529
 2390POPC   NC333599   6.869  43.505   9.501
 2390POPC   PO433600   6.795  44.260   9.452
 2390POPC   GL133601   6.821  43.900   9.158
 2390POPC   GL233602   6.515  43.702   9.091
 2390POPC   C1A33603   6.944  43.754   8.746
 2390POPC   D2A33604   7.234  43.915   8.406
 2390POPC   C3A33605   7.037  43.973   8.041
 2390POPC   C4A33606   6.950  43.814   7.642
 2390POPC   C1B33607   6.486  44.034   8.756
 2390POPC   C2B33608   6.589  44.133   8.305
 2390POPC   C3B33609   6.535  43.907   7.912
 2390POPC   C4B33610   6.480  43.833   7.462
 2391POPC   NC333611   0.661  25.516   9.684
 2391POPC   PO433612   0.829  24.936   9.650
 2391POPC   GL133613   0.786  25.227   9.262
 2391POPC   GL233614   0.427  25.318   9.232
 2391POPC   C1A33615   0.862  25.217   8.793
 2391POPC   D2A33616   0.701  25.335   8.378
 2391POPC   C3A33617   0.798  25.101   8.001
 2391POPC   C4A33618   0.602  25.222   7.606
 2391POPC   C1B33619   0.329  25.160   8.791
 2391POPC   C2B33620   0.311  24.999   8.344
 2391POPC   C3B33621   0.289  25.274   8.001
 2391POPC   C4B33622   0.064  25.247   7.608
 2392POPC   NC333623  10.204  21.373   9.366
 2392POPC   PO433624  10.911  21.443   9.578
 2392POPC   GL133625  10.722  21.492   9.183
 2392POPC   GL233626  10.585  21.185   9.079
 2392POPC   C1A33627  10.668  21.545   8.727
 2392POPC   D2A33628  10.755  21.257   8.392
 2392POPC   C3A33629  10.609  21.369   8.005
 2392POPC   C4A33630  10.633  21.525   7.593
 2392POPC   C1B33631  10.349  21.147   8.673
 2392POPC   C2B33632  10.198  21.025   8.301
 2392POPC   C3B33633  10.255  21.001   7.890
 2392POPC   C4B33634  10.173  21.397   7.745
 2393POPC   NC333635  38.003  10.395   9.523
 2393POPC   PO433636  37.561   9.817   9.567
 2393POPC   GL133637  37.435   9.740   9.150
 2393POPC   GL233638  37.202   9.486   9.176
 2393POPC   C1A33639  37.632   9.831   8.748
 2393POPC   D2A33640  37.941   9.946   8.401
 2393POPC   C3A33641  37.823   9.974   7.943
 2393POPC   C4A33642  37.598   9.858   7.525
 2393POPC   C1B33643  37.345   9.399   8.741
 2393POPC   C2B33644  37.610   9.477   8.353
 2393POPC   C3B33645  37.555   9.490   7.884
 2393POPC   C4B33646  37.257   9.411   7.530
 2394POPC   NC333647  30.101  29.457   9.532
 2394POPC   PO433648  29.845  28.797   9.408
 2394POPC   GL133649  29.844  29.220   9.176
 2394POPC   GL233650  30.183  29.348   9.038
 2394POPC   C1A33651  29.720  29.434   8.790
 2394POPC   D2A33652  29.916  29.321   8.372
 2394POPC   C3A33653  29.646  29.303   7.990
 2394POPC   C4A33654  29.593  29.447   7.554
 2394POPC   C1B33655  30.031  28.996   8.769
 2394POPC   C2B33656  29.985  28.793   8.376
 2394POPC   C3B33657  30.094  29.038   7.981
 2394POPC   C4B33658  30.319  29.050   7.608
 2395POPC   NC333659  30.974  43.971   9.903
 2395POPC   PO433660  30.581  44.207   9.382
 2395POPC   GL133661  30.543  44.212   8.973
 2395POPC   GL233662  30.365  43.930   8.845
 2395POPC   C1A33663  30.672  44.325   8.572
 2395POPC   D2A33664  30.976  44.143   8.304
 2395POPC   C3A33665  30.698  44.045   7.973
 2395POPC   C4A33666  30.664  44.019   7.533
 2395POPC   C1B33667  30.798  43.814   8.671
 2395POPC   C2B33668  30.957  43.640   8.254
 2395POPC   C3B33669  30.674  43.517   7.949
 2395POPC   C4B33670  30.328  43.693   7.763
 2396POPC   NC333671  18.559  39.900   9.538
 2396POPC   PO433672  17.914  39.627   9.508
 2396POPC   GL133673  18.133  39.907   9.196
 2396POPC   GL233674  18.419  39.753   9.076
 2396POPC   C1A33675  18.255  40.239   8.845
 2396POPC   D2A33676  18.321  40.437   8.492
 2396POPC   C3A33677  18.303  40.374   8.076
 2396POPC   C4A33678  18.482  40.124   7.866
 2396POPC   C1B33679  18.153  39.779   8.716
 2396POPC   C2B33680  18.099  39.967   8.358
 2396POPC   C3B33681  18.167  39.762   7.963
 2396POPC   C4B33682  18.485  39.599   7.722
 2397POPC   NC333683   1.379  17.476   9.412
 2397POPC   PO433684   0.714  17.292   9.460
 2397POPC   GL133685   0.851  17.508   9.062
 2397POPC   GL233686   1.216  17.638   8.979
 2397POPC   C1A33687   0.994  17.388   8.625
 2397POPC   D2A33688   1.258  17.627   8.411
 2397POPC   C3A33689   0.894  17.692   8.197
 2397POPC   C4A33690   0.847  17.447   7.867
 2397POPC   C1B33691   1.439  17.254   8.798
 2397POPC   C2B33692   1.521  17.161   8.369
 2397POPC   C3B33693   1.362  17.344   7.966
 2397POPC   C4B33694   1.137  17.111   7.647
 2398POPC   NC333695   0.730  24.488   9.529
 2398POPC   PO433696   0.124  24.669   9.287
 2398POPC   GL133697   0.383  24.344   9.058
 2398POPC   GL233698   0.723  24.186   9.111
 2398POPC   C1A33699   0.391  24.272   8.599
 2398POPC   D2A33700   0.113  24.129   8.227
 2398POPC   C3A33701   0.076  24.426   7.876
 2398POPC   C4A33702   0.389  24.782   7.802
 2398POPC   C1B33703   0.873  24.458   8.781
 2398POPC   C2B33704   0.714  24.671   8.400
 2398POPC   C3B33705   0.549  24.370   8.084
 2398POPC   C4B33706   0.407  24.034   7.807
 2399POPC   NC333707  40.961  44.951   9.210
 2399POPC   PO433708  40.469  44.408   9.340
 2399POPC   GL133709  40.669  44.580   9.023
 2399POPC   GL233710  41.038  44.506   8.946
 2399POPC   C1A33711  40.541  44.553   8.632
 2399POPC   D2A33712  40.414  44.734   8.278
 2399POPC   C3A33713  40.740  44.864   8.008
 2399POPC   C4A33714  40.879  44.512   7.749
 2399POPC   C1B33715  40.996  44.816   8.564
 2399POPC   C2B33716  41.107   0.173   8.285
 2399POPC   C3B33717  41.034   0.294   7.858
 2399POPC   C4B33718  40.957  44.974   7.532
 2400POPC   NC333719   6.945  25.964   9.749
 2400POPC   PO433720   7.678  25.983   9.613
 2400POPC   GL133721   7.604  26.181   9.145
 2400POPC   GL233722   7.365  25.984   8.969
 2400POPC   C1A33723   7.464  26.395   8.692
 2400POPC   D2A33724   7.350  26.333   8.216
 2400POPC   C3A33725   7.639  26.173   7.878
 2400POPC   C4A33726   7.653  26.224   7.422
 2400POPC   C1B33727   7.475  25.621   8.719
 2400POPC   C2B33728   7.745  25.446   8.385
 2400POPC   C3B33729   7.639  25.637   7.998
 2400POPC   C4B33730   7.277  25.805   7.762
 2401POPC   NC333731  43.214  23.573   9.683
 2401POPC   PO433732  42.852  24.156   9.555
 2401POPC   GL133733  43.001  23.885   9.174
 2401POPC   GL233734  43.009  23.499   9.221
 2401POPC   C1A33735  43.117  23.766   8.714
 2401POPC   D2A33736  43.380  23.662   8.310
 2401POPC   C3A33737  43.385  23.799   7.859
 2401POPC   C4A33738  43.472  23.579   7.472
 2401POPC   C1B33739  42.789  23.355   8.864
 2401POPC   C2B33740  42.781  23.452   8.425
 2401POPC   C3B33741  42.967  23.517   8.025
 2401POPC   C4B33742  42.913  23.772   7.657
 2402POPC   NC333743  42.595  33.254   9.417
 2402POPC   PO433744  42.505  32.671   9.706
 2402POPC   GL133745  42.229  32.881   9.311
 2402POPC   GL233746  42.210  33.204   9.092
 2402POPC   C1A33747  42.191  32.746   8.845
 2402POPC   D2A33748  42.487  32.731   8.497
 2402POPC   C3A33749  42.338  32.791   8.076
 2402POPC   C4A33750  42.550  32.859   7.680
 2402POPC   C1B33751  42.304  33.210   8.648
 2402POPC   C2B33752  42.560  33.181   8.295
 2402POPC   C3B33753  42.400  33.296   7.929
 2402POPC   C4B33754  42.587  33.392   7.557
 2403POPC   NC333755  22.012  16.432   9.460
 2403POPC   PO433756  21.865  17.090   9.332
 2403POPC   GL133757  22.083  16.778   9.070
 2403POPC   GL233758  21.935  16.480   8.939
 2403POPC   C1A33759  22.184  16.872   8.651
 2403POPC   D2A33760  21.943  16.670   8.328
 2403POPC   C3A33761  22.035  16.848   7.925
 2403POPC   C4A33762  22.439  17.038   7.845
 2403POPC   C1B33763  22.249  16.365   8.646
 2403POPC   C2B33764  22.565  16.537   8.409
 2403POPC   C3B33765  22.511  16.564   8.011
 2403POPC   C4B33766  22.218  16.402   7.748
 2404POPC   NC333767  35.172  12.269   9.467
 2404POPC   PO433768  35.493  11.693   9.441
 2404POPC   GL133769  35.314  11.966   9.091
 2404POPC   GL233770  35.458  12.326   9.044
 2404POPC   C1A33771  35.047  11.919   8.725
 2404POPC   D2A33772  35.164  11.763   8.348
 2404POPC   C3A33773  35.071  11.846   7.945
 2404POPC   C4A33774  35.445  11.910   7.677
 2404POPC   C1B33775  35.139  12.430   8.747
 2404POPC   C2B33776  35.204  12.500   8.347
 2404POPC   C3B33777  35.490  12.400   8.039
 2404POPC   C4B33778  35.406  12.410   7.592
 2405POPC   NC333779   7.185  38.545   9.325
 2405POPC   PO433780   7.825  38.726   9.418
 2405POPC   GL133781   7.745  38.504   9.047
 2405POPC   GL233782   7.552  38.215   9.159
 2405POPC   C1A33783   7.737  38.203   8.697
 2405POPC   D2A33784   7.481  38.260   8.348
 2405POPC   C3A33785   7.545  38.106   7.968
 2405POPC   C4A33786   7.591  38.437   7.694
 2405POPC   C1B33787   7.223  38.162   8.784
 2405POPC   C2B33788   6.982  38.364   8.434
 2405POPC   C3B33789   7.149  38.464   7.992
 2405POPC   C4B33790   7.057  38.179   7.660
 2406POPC   NC333791  14.242  31.631   9.472
 2406POPC   PO433792  14.546  30.947   9.531
 2406POPC   GL133793  14.432  31.245   9.206
 2406POPC   GL233794  14.657  31.580   9.175
 2406POPC   C1A33795  14.146  31.232   8.872
 2406POPC   D2A33796  13.997  31.425   8.494
 2406POPC   C3A33797  14.107  31.291   8.047
 2406POPC   C4A33798  14.342  31.357   7.615
 2406POPC   C1B33799  14.454  31.613   8.788
 2406POPC   C2B33800  14.484  31.497   8.371
 2406POPC   C3B33801  14.393  31.699   7.981
 2406POPC   C4B33802  14.504  31.846   7.543
 2407POPC   NC333803   6.385  35.877   9.432
 2407POPC   PO433804   6.784  36.414   9.453
 2407POPC   GL133805   6.679  36.170   9.079
 2407POPC   GL233806   6.824  35.879   9.064
 2407POPC   C1A33807   6.769  36.116   8.614
 2407POPC   D2A33808   6.544  36.274   8.259
 2407POPC   C3A33809   6.509  36.009   7.898
 2407POPC   C4A33810   6.686  36.098   7.517
 2407POPC   C1B33811   7.171  35.814   8.788
 2407POPC   C2B33812   7.265  36.005   8.425
 2407POPC   C3B33813   7.008  36.040   8.071
 2407POPC   C4B33814   6.948  35.732   7.778
 2408POPC   NC333815  32.194   8.081   9.462
 2408POPC   PO433816  32.260   8.732   9.595
 2408POPC   GL133817  32.344   8.435   9.143
 2408POPC   GL233818  32.527   8.088   9.071
 2408POPC   C1A33819  32.334   8.375   8.702
 2408POPC   D2A33820  32.407   8.217   8.315
 2408POPC   C3A33821  32.028   8.221   8.093
 2408POPC   C4A33822  32.082   8.424   7.730
 2408POPC   C1B33823  32.548   7.823   8.646
 2408POPC   C2B33824  32.520   7.743   8.180
 2408POPC   C3B33825  32.404   7.992   7.813
 2408POPC   C4B33826  32.573   8.190   7.447
 2409POPC   NC333827  42.868  21.672   9.579
 2409POPC   PO433828  43.414  21.375   9.516
 2409POPC   GL133829  43.145  21.393   9.181
 2409POPC   GL233830  43.123  21.759   9.148
 2409POPC   C1A33831  43.090  21.197   8.778
 2409POPC   D2A33832  42.959  21.451   8.451
 2409POPC   C3A33833  42.912  21.333   8.040
 2409POPC   C4A33834  43.211  21.017   7.866
 2409POPC   C1B33835  43.319  21.650   8.753
 2409POPC   C2B33836  43.421  21.645   8.315
 2409POPC   C3B33837  43.388  21.494   7.918
 2409POPC   C4B33838  43.368  21.732   7.575
 2410POPC   NC333839  28.775   0.225   9.845
 2410POPC   PO433840  29.359   0.314   9.475
 2410POPC   GL133841  29.315   0.253   9.079
 2410POPC   GL233842  29.618   0.094   9.059
 2410POPC   C1A33843  29.038   0.281   8.699
 2410POPC   D2A33844  28.941   0.649   8.452
 2410POPC   C3A33845  29.044   0.562   8.026
 2410POPC   C4A33846  28.927   0.734   7.637
 2410POPC   C1B33847  29.538   0.314   8.648
 2410POPC   C2B33848  29.358   0.178   8.271
 2410POPC   C3B33849  29.591   0.271   7.902
 2410POPC   C4B33850  29.503   0.678   7.781
 2411POPC   NC333851   8.022  36.830   9.374
 2411POPC   PO433852   8.284  37.271   9.784
 2411POPC   GL133853   8.347  37.236   9.255
 2411POPC   GL233854   8.501  37.008   9.081
 2411POPC   C1A33855   8.136  37.212   8.786
 2411POPC   D2A33856   8.220  37.361   8.352
 2411POPC   C3A33857   8.098  37.106   7.996
 2411POPC   C4A33858   8.369  36.996   7.681
 2411POPC   C1B33859   8.266  36.722   8.796
 2411POPC   C2B33860   8.177  36.555   8.404
 2411POPC   C3B33861   8.256  36.605   8.010
 2411POPC   C4B33862   8.023  36.628   7.662
 2412POPC   NC333863  18.681   8.699   9.491
 2412POPC   PO433864  17.996   8.810   9.508
 2412POPC   GL133865  18.192   9.041   9.168
 2412POPC   GL233866  18.509   9.194   9.251
 2412POPC   C1A33867  18.065   9.097   8.744
 2412POPC   D2A33868  18.089   8.844   8.388
 2412POPC   C3A33869  18.060   9.060   8.032
 2412POPC   C4A33870  18.125   8.892   7.645
 2412POPC   C1B33871  18.555   9.210   8.782
 2412POPC   C2B33872  18.451   9.299   8.319
 2412POPC   C3B33873  18.542   9.137   7.834
 2412POPC   C4B33874  18.475   9.127   7.345
 2413POPC   NC333875  18.486   1.478   9.498
 2413POPC   PO433876  17.870   1.455   9.714
 2413POPC   GL133877  18.028   1.352   9.230
 2413POPC   GL233878  18.168   1.064   9.190
 2413POPC   C1A33879  17.944   1.086   8.750
 2413POPC   D2A33880  18.075   0.905   8.316
 2413POPC   C3A33881  18.058   1.213   7.967
 2413POPC   C4A33882  18.014   1.518   7.609
 2413POPC   C1B33883  18.364   1.358   8.826
 2413POPC   C2B33884  18.421   1.295   8.383
 2413POPC   C3B33885  18.534   1.425   7.987
 2413POPC   C4B33886  18.455   1.249   7.616
 2414POPC   NC333887  35.449  30.327   9.448
 2414POPC   PO433888  35.189  29.730   9.313
 2414POPC   GL133889  35.308  30.006   9.056
 2414POPC   GL233890  35.640  29.969   9.165
 2414POPC   C1A33891  35.269  29.850   8.662
 2414POPC   D2A33892  35.145  30.002   8.283
 2414POPC   C3A33893  35.176  29.814   7.897
 2414POPC   C4A33894  35.044  30.186   7.697
 2414POPC   C1B33895  35.742  30.130   8.786
 2414POPC   C2B33896  35.629  30.095   8.372
 2414POPC   C3B33897  35.632  29.985   7.979
 2414POPC   C4B33898  35.841  30.166   7.682
 2415POPC   NC333899   8.401   7.054   9.605
 2415POPC   PO433900   7.835   7.393   9.499
 2415POPC   GL133901   8.122   7.413   9.177
 2415POPC   GL233902   8.454   7.468   9.297
 2415POPC   C1A33903   8.055   7.424   8.745
 2415POPC   D2A33904   8.009   7.528   8.331
 2415POPC   C3A33905   8.200   7.252   8.115
 2415POPC   C4A33906   8.284   7.081   7.754
 2415POPC   C1B33907   8.539   7.282   8.890
 2415POPC   C2B33908   8.564   7.459   8.463
 2415POPC   C3B33909   8.413   7.717   8.106
 2415POPC   C4B33910   8.205   7.586   7.720
 2416POPC   NC333911  42.512  10.323   9.570
 2416POPC   PO433912  42.309  10.978   9.372
 2416POPC   GL133913  42.291  10.615   9.072
 2416POPC   GL233914  42.516  10.284   9.059
 2416POPC   C1A33915  42.325  10.520   8.630
 2416POPC   D2A33916  42.442  10.302   8.267
 2416POPC   C3A33917  42.596  10.556   7.904
 2416POPC   C4A33918  42.683  10.725   7.471
 2416POPC   C1B33919  42.101  10.146   8.856
 2416POPC   C2B33920  41.977  10.115   8.391
 2416POPC   C3B33921  42.085  10.265   7.905
 2416POPC   C4B33922  41.994  10.214   7.432
 2417POPC   NC333923   4.859  27.735   9.440
 2417POPC   PO433924   5.195  27.188   9.328
 2417POPC   GL133925   5.139  27.347   8.931
 2417POPC   GL233926   4.819  27.445   9.017
 2417POPC   C1A33927   5.309  27.643   8.595
 2417POPC   D2A33928   5.400  27.868   8.200
 2417POPC   C3A33929   5.365  27.543   7.915
 2417POPC   C4A33930   5.591  27.281   7.658
 2417POPC   C1B33931   4.798  27.602   8.606
 2417POPC   C2B33932   4.921  27.677   8.190
 2417POPC   C3B33933   4.950  27.777   7.749
 2417POPC   C4B33934   4.845  27.627   7.286
 2418POPC   NC333935  35.812  23.745   9.819
 2418POPC   PO433936  36.254  23.928   9.322
 2418POPC   GL133937  36.125  23.841   8.931
 2418POPC   GL233938  35.790  23.976   8.839
 2418POPC   C1A33939  36.227  23.738   8.551
 2418POPC   D2A33940  36.251  23.401   8.306
 2418POPC   C3A33941  36.180  23.558   7.949
 2418POPC   C4A33942  36.271  23.518   7.550
 2418POPC   C1B33943  35.720  23.587   8.626
 2418POPC   C2B33944  35.504  23.412   8.241
 2418POPC   C3B33945  35.697  23.491   7.848
 2418POPC   C4B33946  35.900  23.847   7.583
 2419POPC   NC333947  13.687  26.300   9.425
 2419POPC   PO433948  13.710  26.970   9.437
 2419POPC   GL133949  13.587  26.689   9.119
 2419POPC   GL233950  13.930  26.635   9.044
 2419POPC   C1A33951  13.391  26.630   8.723
 2419POPC   D2A33952  13.375  26.944   8.406
 2419POPC   C3A33953  13.476  26.833   8.026
 2419POPC   C4A33954  13.736  26.506   7.899
 2419POPC   C1B33955  13.790  26.981   8.749
 2419POPC   C2B33956  13.824  27.217   8.380
 2419POPC   C3B33957  13.891  27.113   7.923
 2419POPC   C4B33958  13.958  27.208   7.460
 2420POPC   NC333959  19.501  41.113   9.120
 2420POPC   PO433960  19.606  41.751   9.439
 2420POPC   GL133961  19.716  41.598   9.056
 2420POPC   GL233962  20.057  41.455   9.113
 2420POPC   C1A33963  19.658  41.533   8.616
 2420POPC   D2A33964  19.737  41.168   8.353
 2420POPC   C3A33965  20.117  41.276   8.123
 2420POPC   C4A33966  20.124  41.261   7.693
 2420POPC   C1B33967  20.149  41.677   8.731
 2420POPC   C2B33968  20.080  41.733   8.315
 2420POPC   C3B33969  20.085  41.727   7.872
 2420POPC   C4B33970  20.344  41.720   7.533
 2421POPC   NC333971  43.328  26.298   9.533
 2421POPC   PO433972  43.279  25.638   9.382
 2421POPC   GL133973  42.954  25.853   9.133
 2421POPC   GL233974  42.974  26.212   9.169
 2421POPC   C1A33975  42.815  26.020   8.725
 2421POPC   D2A33976  42.980  26.268   8.374
 2421POPC   C3A33977  43.127  26.058   8.000
 2421POPC   C4A33978  43.013  26.195   7.600
 2421POPC   C1B33979  43.244  26.251   8.835
 2421POPC   C2B33980  43.383  26.531   8.576
 2421POPC   C3B33981  43.402  26.506   8.167
 2421POPC   C4B33982  43.452  26.428   7.748
 2422POPC   NC333983  21.161   5.377   9.325
 2422POPC   PO433984  21.799   5.153   9.503
 2422POPC   GL133985  21.733   5.183   8.959
 2422POPC   GL233986  21.365   5.170   8.923
 2422POPC   C1A33987  21.573   4.855   8.617
 2422POPC   D2A33988  21.401   4.889   8.234
 2422POPC   C3A33989  21.593   5.177   7.930
 2422POPC   C4A33990  21.620   5.614   7.764
 2422POPC   C1B33991  21.022   5.237   8.663
 2422POPC   C2B33992  20.873   5.079   8.320
 2422POPC   C3B33993  21.068   5.168   7.933
 2422POPC   C4B33994  21.094   5.555   7.652
 2423POPC   NC333995  42.149  26.526   9.289
 2423POPC   PO433996  42.289  27.074   9.732
 2423POPC   GL133997  42.464  26.978   9.235
 2423POPC   GL233998  42.336  27.207   9.008
 2423POPC   C1A33999  42.445  26.772   8.775
 2423POPC   D2A34000  42.556  26.593   8.357
 2423POPC   C3A34001  42.450  26.737   7.955
 2423POPC   C4A34002  42.633  26.644   7.555
 2423POPC   C1B34003  42.019  27.027   8.706
 2423POPC   C2B34004  42.101  26.887   8.323
 2423POPC   C3B34005  41.976  26.970   7.899
 2423POPC   C4B34006  42.206  26.923   7.537
 2424POPC   NC334007  44.275   5.152   9.553
 2424POPC   PO434008  43.666   4.975   9.512
 2424POPC   GL134009  43.965   5.011   9.167
 2424POPC   GL234010  44.086   5.364   9.129
 2424POPC   C1A34011  43.923   5.086   8.732
 2424POPC   D2A34012  44.060   5.017   8.320
 2424POPC   C3A34013  43.745   4.851   8.105
 2424POPC   C4A34014  43.690   5.104   7.788
 2424POPC   C1B34015  44.325   5.408   8.721
 2424POPC   C2B34016  44.190   5.507   8.282
 2424POPC   C3B34017  44.120   5.361   7.864
 2424POPC   C4B34018  44.009   5.633   7.468
 2425POPC   NC334019   4.110  40.352   9.410
 2425POPC   PO434020   4.437  39.877   9.724
 2425POPC   GL134021   4.479  39.994   9.247
 2425POPC   GL234022   4.432  40.314   9.028
 2425POPC   C1A34023   4.411  39.865   8.778
 2425POPC   D2A34024   4.129  39.835   8.384
 2425POPC   C3A34025   4.317  39.763   7.942
 2425POPC   C4A34026   4.628  39.789   7.598
 2425POPC   C1B34027   4.091  40.285   8.747
 2425POPC   C2B34028   3.792  40.237   8.450
 2425POPC   C3B34029   3.750  40.221   8.019
 2425POPC   C4B34030   4.100  40.211   7.753
 2426POPC   NC334031   6.730  24.161   9.464
 2426POPC   PO434032   6.299  24.686   9.497
 2426POPC   GL134033   6.534  24.534   9.185
 2426POPC   GL234034   6.311  24.310   9.051
 2426POPC   C1A34035   6.764  24.398   8.823
 2426POPC   D2A34036   6.624  24.414   8.406
 2426POPC   C3A34037   6.842  24.187   8.068
 2426POPC   C4A34038   6.764  24.263   7.625
 2426POPC   C1B34039   6.287  24.083   8.674
 2426POPC   C2B34040   6.402  23.988   8.241
 2426POPC   C3B34041   6.333  24.321   7.927
 2426POPC   C4B34042   6.240  24.308   7.447
 2427POPC   NC334043   2.679  26.362   9.542
 2427POPC   PO434044   3.161  25.952   9.659
 2427POPC   GL134045   2.990  26.094   9.202
 2427POPC   GL234046   2.627  26.012   9.181
 2427POPC   C1A34047   2.849  25.847   8.772
 2427POPC   D2A34048   2.532  25.784   8.467
 2427POPC   C3A34049   2.661  25.735   8.034
 2427POPC   C4A34050   2.896  25.996   7.779
 2427POPC   C1B34051   2.657  26.321   8.862
 2427POPC   C2B34052   2.624  26.392   8.443
 2427POPC   C3B34053   2.715  26.406   8.020
 2427POPC   C4B34054   2.430  26.215   7.733
 2428POPC   NC334055   7.270   3.022   9.428
 2428POPC   PO434056   7.813   2.634   9.387
 2428POPC   GL134057   7.638   2.904   9.084
 2428POPC   GL234058   7.369   2.705   9.028
 2428POPC   C1A34059   7.591   2.960   8.628
 2428POPC   D2A34060   7.337   2.690   8.333
 2428POPC   C3A34061   7.372   2.793   7.900
 2428POPC   C4A34062   7.631   2.610   7.579
 2428POPC   C1B34063   7.105   2.938   8.729
 2428POPC   C2B34064   6.876   2.921   8.334
 2428POPC   C3B34065   6.891   2.522   8.090
 2428POPC   C4B34066   7.071   2.416   7.678
 2429POPC   NC334067   4.441  31.094   9.526
 2429POPC   PO434068   5.033  30.887   9.489
 2429POPC   GL134069   4.856  30.863   9.087
 2429POPC   GL234070   4.699  30.564   9.096
 2429POPC   C1A34071   5.018  30.790   8.656
 2429POPC   D2A34072   5.252  30.574   8.316
 2429POPC   C3A34073   5.074  30.727   7.899
 2429POPC   C4A34074   4.925  30.847   7.458
 2429POPC   C1B34075   4.928  30.311   8.784
 2429POPC   C2B34076   4.817  30.275   8.309
 2429POPC   C3B34077   5.119  30.226   7.951
 2429POPC   C4B34078   5.133  30.359   7.502
 2430POPC   NC334079  17.181   0.252   9.288
 2430POPC   PO434080  17.274   0.782   9.752
 2430POPC   GL134081  17.335   0.770   9.276
 2430POPC   GL234082  17.124   0.626   8.970
 2430POPC   C1A34083  17.614   0.699   8.928
 2430POPC   D2A34084  17.610   0.743   8.491
 2430POPC   C3A34085  17.664   0.465   8.149
 2430POPC   C4A34086  17.739   0.613   7.709
 2430POPC   C1B34087  17.193   0.458   8.586
 2430POPC   C2B34088  17.010   0.513   8.193
 2430POPC   C3B34089  17.243   0.564   7.838
 2430POPC   C4B34090  17.228   0.370   7.426
 2431POPC   NC334091  25.843  30.498   9.562
 2431POPC   PO434092  25.684  31.068   9.312
 2431POPC   GL134093  25.923  30.748   9.132
 2431POPC   GL234094  26.258  30.730   9.271
 2431POPC   C1A34095  26.046  30.615   8.760
 2431POPC   D2A34096  25.951  30.885   8.441
 2431POPC   C3A34097  26.131  30.703   8.100
 2431POPC   C4A34098  26.226  30.626   7.686
 2431POPC   C1B34099  26.386  30.951   8.889
 2431POPC   C2B34100  26.347  31.225   8.536
 2431POPC   C3B34101  26.206  31.218   8.092
 2431POPC   C4B34102  26.439  31.113   7.678
 2432POPC   NC334103  44.165  23.804   9.476
 2432POPC   PO434104  43.482  23.704   9.341
 2432POPC   GL134105  43.615  23.989   9.019
 2432POPC   GL234106  43.965  24.029   9.045
 2432POPC   C1A34107  43.728  23.944   8.581
 2432POPC   D2A34108  43.871  23.513   8.405
 2432POPC   C3A34109  43.834  23.537   7.978
 2432POPC   C4A34110  43.879  23.968   7.851
 2432POPC   C1B34111  44.244  23.914   8.709
 2432POPC   C2B34112  44.199  23.926   8.262
 2432POPC   C3B34113  44.324  23.677   7.900
 2432POPC   C4B34114  44.224  23.248   7.774
 2433POPC   NC334115  24.259  15.178   9.637
 2433POPC   PO434116  24.700  14.834   9.460
 2433POPC   GL134117  24.734  15.007   9.069
 2433POPC   GL234118  24.817  15.305   9.226
 2433POPC   C1A34119  24.674  14.990   8.605
 2433POPC   D2A34120  24.314  14.895   8.295
 2433POPC   C3A34121  24.284  15.100   7.925
 2433POPC   C4A34122  24.689  15.022   7.753
 2433POPC   C1B34123  24.844  15.557   8.866
 2433POPC   C2B34124  24.923  15.450   8.479
 2433POPC   C3B34125  24.684  15.318   8.164
 2433POPC   C4B34126  24.634  15.520   7.769
 2434POPC   NC334127  22.751  27.243   9.476
 2434POPC   PO434128  23.093  27.868   9.529
 2434POPC   GL134129  23.062  27.533   9.194
 2434POPC   GL234130  22.703  27.466   9.045
 2434POPC   C1A34131  23.224  27.517   8.767
 2434POPC   D2A34132  23.326  27.856   8.433
 2434POPC   C3A34133  23.283  27.640   8.031
 2434POPC   C4A34134  23.136  27.194   7.978
 2434POPC   C1B34135  22.802  27.806   8.846
 2434POPC   C2B34136  22.845  27.653   8.452
 2434POPC   C3B34137  22.743  27.571   8.085
 2434POPC   C4B34138  22.826  27.692   7.726
 2435POPC   NC334139   1.557  44.384   9.757
 2435POPC   PO434140   1.887  44.912   9.478
 2435POPC   GL134141   2.050  44.850   9.084
 2435POPC   GL234142   2.212  44.543   9.006
 2435POPC   C1A34143   1.885  44.868   8.692
 2435POPC   D2A34144   1.737  44.830   8.283
 2435POPC   C3A34145   1.901  44.779   7.872
 2435POPC   C4A34146   1.896  44.856   7.412
 2435POPC   C1B34147   2.132  44.424   8.629
 2435POPC   C2B34148   2.011  44.408   8.258
 2435POPC   C3B34149   2.154  44.296   7.929
 2435POPC   C4B34150   1.965  44.371   7.571
 2436POPC   NC334151  38.368   6.388   9.503
 2436POPC   PO434152  38.780   6.843   9.368
 2436POPC   GL134153  38.602   6.623   9.048
 2436POPC   GL234154  38.631   6.293   9.047
 2436POPC   C1A34155  38.623   6.576   8.605
 2436POPC   D2A34156  38.556   6.919   8.329
 2436POPC   C3A34157  38.396   6.833   7.938
 2436POPC   C4A34158  38.386   6.851   7.482
 2436POPC   C1B34159  38.200   6.393   8.839
 2436POPC   C2B34160  38.155   6.550   8.377
 2436POPC   C3B34161  38.309   6.342   8.015
 2436POPC   C4B34162  38.436   6.330   7.583
 2437POPC   NC334163   2.034   3.555   9.525
 2437POPC   PO434164   1.602   4.009   9.393
 2437POPC   GL134165   1.918   3.875   9.088
 2437POPC   GL234166   1.925   3.510   9.039
 2437POPC   C1A34167   2.083   3.810   8.646
 2437POPC   D2A34168   1.907   3.597   8.267
 2437POPC   C3A34169   1.963   3.681   7.823
 2437POPC   C4A34170   1.772   3.882   7.484
 2437POPC   C1B34171   2.138   3.283   8.736
 2437POPC   C2B34172   2.289   3.267   8.344
 2437POPC   C3B34173   2.170   3.236   7.941
 2437POPC   C4B34174   2.324   3.187   7.546
 2438POPC   NC334175  34.435  16.556   9.643
 2438POPC   PO434176  34.751  17.164   9.576
 2438POPC   GL134177  34.641  16.878   9.242
 2438POPC   GL234178  34.537  17.144   9.104
 2438POPC   C1A34179  34.799  16.759   8.826
 2438POPC   D2A34180  34.882  16.886   8.376
 2438POPC   C3A34181  34.641  16.609   8.111
 2438POPC   C4A34182  34.638  16.477   7.673
 2438POPC   C1B34183  34.296  17.045   8.816
 2438POPC   C2B34184  34.389  16.911   8.460
 2438POPC   C3B34185  34.398  17.098   8.099
 2438POPC   C4B34186  34.568  16.966   7.751
 2439POPC   NC334187  13.802   5.967   9.750
 2439POPC   PO434188  13.584   6.618   9.527
 2439POPC   GL134189  13.595   6.653   9.122
 2439POPC   GL234190  13.883   6.796   9.106
 2439POPC   C1A34191  13.441   6.532   8.739
 2439POPC   D2A34192  13.415   6.280   8.376
 2439POPC   C3A34193  13.375   6.519   8.040
 2439POPC   C4A34194  13.443   6.547   7.636
 2439POPC   C1B34195  13.945   6.616   8.708
 2439POPC   C2B34196  13.737   6.701   8.341
 2439POPC   C3B34197  13.839   6.751   7.950
 2439POPC   C4B34198  13.957   6.580   7.539
 2440POPC   NC334199  15.246  38.083   9.480
 2440POPC   PO434200  14.971  38.680   9.629
 2440POPC   GL134201  15.046  38.483   9.231
 2440POPC   GL234202  15.422  38.501   9.214
 2440POPC   C1A34203  15.033  38.611   8.811
 2440POPC   D2A34204  15.277  38.587   8.451
 2440POPC   C3A34205  15.014  38.607   8.082
 2440POPC   C4A34206  14.778  38.722   7.715
 2440POPC   C1B34207  15.428  38.254   8.825
 2440POPC   C2B34208  15.556  38.165   8.368
 2440POPC   C3B34209  15.323  38.087   7.966
 2440POPC   C4B34210  14.997  38.252   7.699
 2441POPC   NC334211   3.229  16.850   9.567
 2441POPC   PO434212   3.839  16.785   9.619
 2441POPC   GL134213   3.623  16.612   9.289
 2441POPC   GL234214   3.571  16.931   9.155
 2441POPC   C1A34215   3.599  16.546   8.838
 2441POPC   D2A34216   3.757  16.565   8.429
 2441POPC   C3A34217   3.399  16.459   8.187
 2441POPC   C4A34218   3.373  16.325   7.779
 2441POPC   C1B34219   3.736  17.043   8.786
 2441POPC   C2B34220   3.578  17.066   8.376
 2441POPC   C3B34221   3.671  16.877   8.019
 2441POPC   C4B34222   3.853  16.497   7.900
 2442POPC   NC334223   1.924  20.819   9.541
 2442POPC   PO434224   2.030  20.094   9.471
 2442POPC   GL134225   2.100  20.483   9.189
 2442POPC   GL234226   1.783  20.684   9.073
 2442POPC   C1A34227   2.174  20.620   8.745
 2442POPC   D2A34228   1.962  20.546   8.357
 2442POPC   C3A34229   2.235  20.401   8.023
 2442POPC   C4A34230   2.298  20.543   7.605
 2442POPC   C1B34231   1.629  20.868   8.690
 2442POPC   C2B34232   1.764  21.049   8.311
 2442POPC   C3B34233   2.076  20.904   7.984
 2442POPC   C4B34234   1.805  20.602   7.800
 2443POPC   NC334235  29.368  15.788   9.615
 2443POPC   PO434236  28.791  15.662   9.322
 2443POPC   GL134237  29.151  15.804   9.134
 2443POPC   GL234238  29.420  15.534   9.169
 2443POPC   C1A34239  29.035  15.996   8.740
 2443POPC   D2A34240  29.061  16.175   8.306
 2443POPC   C3A34241  28.932  15.905   7.977
 2443POPC   C4A34242  29.165  16.138   7.703
 2443POPC   C1B34243  29.487  15.666   8.761
 2443POPC   C2B34244  29.320  15.754   8.383
 2443POPC   C3B34245  29.448  15.819   7.991
 2443POPC   C4B34246  29.626  15.652   7.623
 2444POPC   NC334247  21.461  42.533   9.343
 2444POPC   PO434248  21.381  41.926   9.285
 2444POPC   GL134249  21.242  42.154   8.963
 2444POPC   GL234250  21.467  42.461   8.855
 2444POPC   C1A34251  21.128  41.894   8.604
 2444POPC   D2A34252  20.882  42.088   8.269
 2444POPC   C3A34253  21.109  42.484   8.049
 2444POPC   C4A34254  21.293  42.538   7.646
 2444POPC   C1B34255  21.252  42.372   8.507
 2444POPC   C2B34256  21.368  42.050   8.165
 2444POPC   C3B34257  21.613  42.137   7.828
 2444POPC   C4B34258  22.032  42.127   7.648
 2445POPC   NC334259  34.036  28.304   9.588
 2445POPC   PO434260  33.340  28.419   9.445
 2445POPC   GL134261  33.660  28.237   9.198
 2445POPC   GL234262  33.922  28.497   9.139
 2445POPC   C1A34263  33.589  28.296   8.771
 2445POPC   D2A34264  33.446  28.525   8.443
 2445POPC   C3A34265  33.682  28.457   8.104
 2445POPC   C4A34266  33.678  28.182   7.758
 2445POPC   C1B34267  34.091  28.187   8.875
 2445POPC   C2B34268  33.995  28.202   8.455
 2445POPC   C3B34269  34.125  28.222   8.039
 2445POPC   C4B34270  34.069  28.551   7.726
 2446POPC   NC334271  22.701  13.161   9.262
 2446POPC   PO434272  22.206  12.840   9.514
 2446POPC   GL134273  22.049  12.808   9.119
 2446POPC   GL234274  22.226  12.515   9.056
 2446POPC   C1A34275  22.234  12.963   8.725
 2446POPC   D2A34276  22.345  12.826   8.293
 2446POPC   C3A34277  21.986  12.854   7.980
 2446POPC   C4A34278  22.076  12.934   7.556
 2446POPC   C1B34279  22.497  12.486   8.700
 2446POPC   C2B34280  22.528  12.288   8.296
 2446POPC   C3B34281  22.270  12.441   7.935
 2446POPC   C4B34282  22.322  12.487   7.493
 2447POPC   NC334283   0.750   4.865   9.515
 2447POPC   PO434284   0.138   5.184   9.528
 2447POPC   GL134285   0.492   5.246   9.209
 2447POPC   GL234286   0.544   4.917   9.059
 2447POPC   C1A34287   0.677   5.311   8.761
 2447POPC   D2A34288   0.457   5.217   8.361
 2447POPC   C3A34289   0.612   5.295   7.940
 2447POPC   C4A34290   0.400   5.074   7.559
 2447POPC   C1B34291   0.187   4.764   8.834
 2447POPC   C2B34292   0.064   4.889   8.423
 2447POPC   C3B34293   0.166   4.925   7.991
 2447POPC   C4B34294   0.290   4.559   7.746
 2448POPC   NC334295   6.379  25.780   9.468
 2448POPC   PO434296   6.618  26.303   9.748
 2448POPC   GL134297   6.703  25.981   9.190
 2448POPC   GL234298   6.917  25.760   9.168
 2448POPC   C1A34299   6.441  25.926   8.805
 2448POPC   D2A34300   6.247  26.178   8.525
 2448POPC   C3A34301   6.467  26.178   8.166
 2448POPC   C4A34302   6.435  26.247   7.755
 2448POPC   C1B34303   6.950  25.840   8.739
 2448POPC   C2B34304   6.947  25.991   8.331
 2448POPC   C3B34305   6.801  25.821   7.957
 2448POPC   C4B34306   6.751  25.913   7.537
 2449POPC   NC334307   7.205  42.566   9.583
 2449POPC   PO434308   7.557  42.063   9.813
 2449POPC   GL134309   7.497  42.069   9.324
 2449POPC   GL234310   7.479  42.424   9.165
 2449POPC   C1A34311   7.214  42.060   8.932
 2449POPC   D2A34312   7.330  42.084   8.485
 2449POPC   C3A34313   7.058  42.047   8.139
 2449POPC   C4A34314   7.267  42.142   7.772
 2449POPC   C1B34315   7.179  42.598   8.837
 2449POPC   C2B34316   7.241  42.778   8.416
 2449POPC   C3B34317   7.338  42.611   7.998
 2449POPC   C4B34318   7.720  42.699   7.752
 2450POPC   NC334319  43.399  24.201   9.422
 2450POPC   PO434320  43.010  24.700   9.599
 2450POPC   GL134321  42.980  24.536   9.187
 2450POPC   GL234322  43.324  24.613   9.122
 2450POPC   C1A34323  42.953  24.668   8.727
 2450POPC   D2A34324  43.143  24.767   8.307
 2450POPC   C3A34325  43.045  24.615   7.897
 2450POPC   C4A34326  43.033  24.777   7.472
 2450POPC   C1B34327  43.240  24.267   8.801
 2450POPC   C2B34328  43.264  24.171   8.370
 2450POPC   C3B34329  43.431  24.299   7.978
 2450POPC   C4B34330  43.368  24.397   7.542
 2451POPC   NC334331   6.697  33.345   9.538
 2451POPC   PO434332   6.450  33.941   9.324
 2451POPC   GL134333   6.462  33.550   9.140
 2451POPC   GL234334   6.804  33.582   9.116
 2451POPC   C1A34335   6.493  33.456   8.724
 2451POPC   D2A34336   6.480  33.777   8.432
 2451POPC   C3A34337   6.619  33.731   8.007
 2451POPC   C4A34338   6.562  34.036   7.704
 2451POPC   C1B34339   6.906  33.841   8.795
 2451POPC   C2B34340   6.975  33.836   8.381
 2451POPC   C3B34341   7.142  33.893   8.002
 2451POPC   C4B34342   6.958  33.749   7.609
 2452POPC   NC334343  11.361  20.061   9.509
 2452POPC   PO434344  10.810  19.660   9.499
 2452POPC   GL134345  11.078  19.875   9.150
 2452POPC   GL234346  11.498  19.742   9.151
 2452POPC   C1A34347  11.216  19.848   8.729
 2452POPC   D2A34348  10.999  19.799   8.364
 2452POPC   C3A34349  11.148  19.878   7.964
 2452POPC   C4A34350  11.233  19.868   7.562
 2452POPC   C1B34351  11.745  19.807   8.777
 2452POPC   C2B34352  11.601  19.717   8.351
 2452POPC   C3B34353  11.729  19.924   7.980
 2452POPC   C4B34354  11.702  20.017   7.556
 2453POPC   NC334355   3.956   0.190   9.648
 2453POPC   PO434356   3.467   0.662   9.727
 2453POPC   GL134357   3.503   0.323   9.397
 2453POPC   GL234358   3.511   0.609   9.194
 2453POPC   C1A34359   3.502   0.136   8.938
 2453POPC   D2A34360   3.595   0.311   8.483
 2453POPC   C3A34361   3.580   0.203   8.049
 2453POPC   C4A34362   3.402   0.148   7.648
 2453POPC   C1B34363   3.774   0.660   8.819
 2453POPC   C2B34364   3.909   0.717   8.408
 2453POPC   C3B34365   3.593   0.705   8.107
 2453POPC   C4B34366   3.624   0.636   7.674
 2454POPC   NC334367  38.812  37.077   9.746
 2454POPC   PO434368  39.147  36.733   9.226
 2454POPC   GL134369  39.258  36.838   8.923
 2454POPC   GL234370  39.393  37.166   9.019
 2454POPC   C1A34371  39.429  36.658   8.563
 2454POPC   D2A34372  39.449  36.677   8.124
 2454POPC   C3A34373  39.152  36.803   7.808
 2454POPC   C4A34374  39.186  36.573   7.458
 2454POPC   C1B34375  39.301  37.174   8.571
 2454POPC   C2B34376  39.602  37.154   8.259
 2454POPC   C3B34377  39.533  37.125   7.870
 2454POPC   C4B34378  39.157  37.324   7.715
 2455POPC   NC334379  10.973  21.032   9.906
 2455POPC   PO434380  11.003  20.452   9.480
 2455POPC   GL134381  11.310  20.502   9.187
 2455POPC   GL234382  11.584  20.269   9.108
 2455POPC   C1A34383  11.271  20.743   8.841
 2455POPC   D2A34384  11.094  20.596   8.447
 2455POPC   C3A34385  11.326  20.716   8.119
 2455POPC   C4A34386  11.291  20.864   7.707
 2455POPC   C1B34387  11.441  20.290   8.694
 2455POPC   C2B34388  11.371  20.208   8.259
 2455POPC   C3B34389  11.415  20.329   7.808
 2455POPC   C4B34390  11.369  20.298   7.318
 2456POPC   NC334391  12.415  38.732   9.327
 2456POPC   PO434392  11.737  38.865   9.509
 2456POPC   GL134393  11.847  38.608   9.127
 2456POPC   GL234394  12.150  38.373   9.087
 2456POPC   C1A34395  11.784  38.380   8.738
 2456POPC   D2A34396  11.981  38.408   8.349
 2456POPC   C3A34397  11.838  38.404   7.968
 2456POPC   C4A34398  11.531  38.632   7.814
 2456POPC   C1B34399  12.325  38.544   8.706
 2456POPC   C2B34400  12.523  38.523   8.298
 2456POPC   C3B34401  12.310  38.605   7.935
 2456POPC   C4B34402  12.233  38.880   7.639
 2457POPC   NC334403   6.105  29.279   9.487
 2457POPC   PO434404   5.431  29.231   9.542
 2457POPC   GL134405   5.703  29.192   9.146
 2457POPC   GL234406   5.767  28.838   8.999
 2457POPC   C1A34407   5.812  29.215   8.674
 2457POPC   D2A34408   5.871  28.844   8.376
 2457POPC   C3A34409   5.702  28.950   7.969
 2457POPC   C4A34410   5.651  29.297   7.661
 2457POPC   C1B34411   6.209  28.911   8.807
 2457POPC   C2B34412   6.384  28.856   8.362
 2457POPC   C3B34413   6.211  29.095   8.020
 2457POPC   C4B34414   6.073  29.023   7.628
 2458POPC   NC334415   3.261   4.630   9.585
 2458POPC   PO434416   3.809   4.163   9.479
 2458POPC   GL134417   3.630   4.431   9.190
 2458POPC   GL234418   3.748   4.190   8.941
 2458POPC   C1A34419   3.617   4.689   8.823
 2458POPC   D2A34420   3.621   4.544   8.412
 2458POPC   C3A34421   3.454   4.794   8.126
 2458POPC   C4A34422   3.585   4.557   7.823
 2458POPC   C1B34423   3.343   4.262   8.733
 2458POPC   C2B34424   3.168   4.158   8.327
 2458POPC   C3B34425   3.235   4.160   7.856
 2458POPC   C4B34426   3.191   4.025   7.391
 2459POPC   NC334427  34.879  13.080   9.224
 2459POPC   PO434428  34.299  13.124   9.577
 2459POPC   GL134429  34.368  12.819   9.203
 2459POPC   GL234430  34.679  12.686   8.990
 2459POPC   C1A34431  34.204  12.588   8.850
 2459POPC   D2A34432  34.356  12.549   8.420
 2459POPC   C3A34433  34.731  12.718   8.219
 2459POPC   C4A34434  34.562  12.566   7.826
 2459POPC   C1B34435  34.529  12.994   8.672
 2459POPC   C2B34436  34.744  13.279   8.366
 2459POPC   C3B34437  34.962  13.211   7.993
 2459POPC   C4B34438  34.798  12.974   7.652
 2460POPC   NC334439  42.649  44.782   9.528
 2460POPC   PO434440  43.365  44.526   9.546
 2460POPC   GL134441  43.030  44.501   9.278
 2460POPC   GL234442  43.035  44.848   9.151
 2460POPC   C1A34443  43.004  44.399   8.831
 2460POPC   D2A34444  43.197  44.528   8.440
 2460POPC   C3A34445  43.161  44.335   8.047
 2460POPC   C4A34446  43.023  44.290   7.594
 2460POPC   C1B34447  43.392  44.764   8.872
 2460POPC   C2B34448  43.628  44.827   8.482
 2460POPC   C3B34449  43.508  44.878   8.059
 2460POPC   C4B34450  43.292  44.688   7.721
 2461POPC   NC334451  34.212   4.577   9.469
 2461POPC   PO434452  33.477   4.573   9.455
 2461POPC   GL134453  33.701   4.338   9.113
 2461POPC   GL234454  34.055   4.188   9.181
 2461POPC   C1A34455  33.636   4.215   8.665
 2461POPC   D2A34456  33.605   3.992   8.256
 2461POPC   C3A34457  33.519   4.234   7.861
 2461POPC   C4A34458  33.256   4.199   7.480
 2461POPC   C1B34459  34.097   4.010   8.779
 2461POPC   C2B34460  34.076   4.194   8.371
 2461POPC   C3B34461  34.040   4.075   7.954
 2461POPC   C4B34462  33.930   4.223   7.542
 2462POPC   NC334463  24.977  20.400   9.543
 2462POPC   PO434464  25.441  20.771   9.445
 2462POPC   GL134465  25.208  20.635   9.112
 2462POPC   GL234466  25.283  20.965   8.967
 2462POPC   C1A34467  25.196  20.303   8.792
 2462POPC   D2A34468  25.016  20.317   8.348
 2462POPC   C3A34469  25.215  20.253   7.925
 2462POPC   C4A34470  25.131  20.429   7.503
 2462POPC   C1B34471  25.190  20.789   8.599
 2462POPC   C2B34472  25.360  20.865   8.219
 2462POPC   C3B34473  25.238  20.830   7.791
 2462POPC   C4B34474  25.343  20.862   7.306
 2463POPC   NC334475  19.344  28.802   9.379
 2463POPC   PO434476  19.873  28.782   9.740
 2463POPC   GL134477  19.856  28.756   9.226
 2463POPC   GL234478  19.867  28.406   9.059
 2463POPC   C1A34479  19.693  28.804   8.769
 2463POPC   D2A34480  19.622  28.861   8.299
 2463POPC   C3A34481  19.737  28.501   8.010
 2463POPC   C4A34482  20.054  28.537   7.665
 2463POPC   C1B34483  19.828  28.326   8.595
 2463POPC   C2B34484  20.097  28.226   8.236
 2463POPC   C3B34485  20.067  28.037   7.814
 2463POPC   C4B34486  20.252  28.010   7.392
 2464POPC   NC334487  23.921   5.349   9.400
 2464POPC   PO434488  23.497   5.863   9.655
 2464POPC   GL134489  23.646   5.733   9.203
 2464POPC   GL234490  23.516   5.395   9.098
 2464POPC   C1A34491  23.952   5.673   8.817
 2464POPC   D2A34492  24.117   5.893   8.427
 2464POPC   C3A34493  23.806   5.988   8.085
 2464POPC   C4A34494  23.605   6.091   7.688
 2464POPC   C1B34495  23.445   5.665   8.729
 2464POPC   C2B34496  23.371   5.921   8.367
 2464POPC   C3B34497  23.246   5.818   7.943
 2464POPC   C4B34498  23.365   5.660   7.548
 2465POPC   NC334499  20.956  15.103   9.448
 2465POPC   PO434500  21.584  15.068   9.446
 2465POPC   GL134501  21.466  15.123   9.067
 2465POPC   GL234502  21.211  15.339   9.093
 2465POPC   C1A34503  21.643  15.128   8.672
 2465POPC   D2A34504  21.438  15.263   8.278
 2465POPC   C3A34505  21.676  15.309   7.911
 2465POPC   C4A34506  21.716  15.062   7.550
 2465POPC   C1B34507  21.256  15.493   8.711
 2465POPC   C2B34508  20.987  15.639   8.379
 2465POPC   C3B34509  20.988  15.379   8.025
 2465POPC   C4B34510  21.259  15.491   7.707
 2466POPC   NC334511  25.238  30.932   9.377
 2466POPC   PO434512  25.330  31.564   9.603
 2466POPC   GL134513  25.328  31.469   9.188
 2466POPC   GL234514  24.985  31.342   9.141
 2466POPC   C1A34515  25.303  31.695   8.792
 2466POPC   D2A34516  25.094  31.841   8.403
 2466POPC   C3A34517  25.369  31.705   8.075
 2466POPC   C4A34518  25.540  31.428   7.755
 2466POPC   C1B34519  25.202  31.194   8.766
 2466POPC   C2B34520  25.144  31.320   8.357
 2466POPC   C3B34521  25.151  31.150   7.945
 2466POPC   C4B34522  25.131  31.262   7.507
 2467POPC   NC334523   6.327  20.635   9.820
 2467POPC   PO434524   5.738  20.585   9.595
 2467POPC   GL134525   5.753  20.650   9.187
 2467POPC   GL234526   5.631  20.981   9.203
 2467POPC   C1A34527   5.896  20.566   8.791
 2467POPC   D2A34528   5.725  20.623   8.393
 2467POPC   C3A34529   6.054  20.480   8.151
 2467POPC   C4A34530   6.022  20.552   7.749
 2467POPC   C1B34531   5.521  20.946   8.808
 2467POPC   C2B34532   5.650  21.136   8.454
 2467POPC   C3B34533   5.443  21.067   8.082
 2467POPC   C4B34534   5.579  20.846   7.766
 2468POPC   NC334535   5.075  13.054   9.533
 2468POPC   PO434536   4.803  12.433   9.368
 2468POPC   GL134537   5.118  12.721   9.118
 2468POPC   GL234538   5.140  13.119   9.050
 2468POPC   C1A34539   5.071  12.802   8.673
 2468POPC   D2A34540   5.224  13.007   8.346
 2468POPC   C3A34541   5.026  12.765   8.054
 2468POPC   C4A34542   5.006  12.722   7.624
 2468POPC   C1B34543   4.783  13.204   8.788
 2468POPC   C2B34544   4.715  13.096   8.361
 2468POPC   C3B34545   4.912  13.248   7.970
 2468POPC   C4B34546   4.784  13.172   7.540
 2469POPC   NC334547  39.466  28.475   9.227
 2469POPC   PO434548  39.020  28.002   9.561
 2469POPC   GL134549  39.010  28.237   9.164
 2469POPC   GL234550  39.275  28.111   8.936
 2469POPC   C1A34551  38.914  28.545   8.803
 2469POPC   D2A34552  39.023  28.708   8.408
 2469POPC   C3A34553  38.931  28.367   8.116
 2469POPC   C4A34554  39.151  28.207   7.755
 2469POPC   C1B34555  39.374  28.373   8.580
 2469POPC   C2B34556  39.453  28.392   8.146
 2469POPC   C3B34557  39.660  28.150   7.812
 2469POPC   C4B34558  39.531  28.019   7.387
 2470POPC   NC334559  31.791  34.524   9.520
 2470POPC   PO434560  32.456  34.806   9.630
 2470POPC   GL134561  32.300  34.624   9.263
 2470POPC   GL234562  32.034  34.821   9.167
 2470POPC   C1A34563  32.343  34.465   8.849
 2470POPC   D2A34564  32.183  34.480   8.418
 2470POPC   C3A34565  32.355  34.593   8.002
 2470POPC   C4A34566  32.499  34.312   7.668
 2470POPC   C1B34567  32.188  34.937   8.738
 2470POPC   C2B34568  32.046  35.038   8.299
 2470POPC   C3B34569  31.886  34.851   7.884
 2470POPC   C4B34570  32.178  34.732   7.511
 2471POPC   NC334571  28.912   7.736   9.542
 2471POPC   PO434572  29.603   7.737   9.386
 2471POPC   GL134573  29.396   7.508   9.073
 2471POPC   GL234574  29.025   7.496   9.107
 2471POPC   C1A34575  29.427   7.462   8.625
 2471POPC   D2A34576  29.292   7.656   8.212
 2471POPC   C3A34577  29.320   7.451   7.794
 2471POPC   C4A34578  29.376   7.259   7.358
 2471POPC   C1B34579  28.880   7.143   8.866
 2471POPC   C2B34580  29.000   7.171   8.463
 2471POPC   C3B34581  28.964   6.937   8.112
 2471POPC   C4B34582  28.879   7.199   7.772
 2472POPC   NC334583   7.816  41.258   9.582
 2472POPC   PO434584   8.443  41.618   9.685
 2472POPC   GL134585   8.277  41.559   9.169
 2472POPC   GL234586   8.033  41.283   9.122
 2472POPC   C1A34587   8.306  41.759   8.757
 2472POPC   D2A34588   8.236  41.601   8.355
 2472POPC   C3A34589   8.113  41.793   7.974
 2472POPC   C4A34590   8.427  41.657   7.674
 2472POPC   C1B34591   7.908  41.408   8.713
 2472POPC   C2B34592   7.859  41.247   8.292
 2472POPC   C3B34593   7.657  41.301   7.921
 2472POPC   C4B34594   7.962  41.457   7.617
 2473POPC   NC334595  10.019  28.386   9.400
 2473POPC   PO434596   9.512  28.103   9.368
 2473POPC   GL134597   9.615  28.371   9.053
 2473POPC   GL234598   9.689  28.717   9.175
 2473POPC   C1A34599   9.454  28.449   8.655
 2473POPC   D2A34600   9.506  28.546   8.234
 2473POPC   C3A34601   9.531  28.246   7.901
 2473POPC   C4A34602   9.873  28.244   7.601
 2473POPC   C1B34603   9.794  28.808   8.751
 2473POPC   C2B34604   9.973  28.551   8.436
 2473POPC   C3B34605   9.951  28.568   7.986
 2473POPC   C4B34606   9.583  28.697   7.719
 2474POPC   NC334607  32.071   9.742   9.584
 2474POPC   PO434608  31.469   9.323   9.436
 2474POPC   GL134609  31.455   9.615   9.094
 2474POPC   GL234610  31.673   9.921   9.206
 2474POPC   C1A34611  31.376   9.767   8.664
 2474POPC   D2A34612  31.334   9.989   8.278
 2474POPC   C3A34613  31.228   9.719   7.962
 2474POPC   C4A34614  31.389   9.653   7.563
 2474POPC   C1B34615  31.875   9.850   8.792
 2474POPC   C2B34616  31.964  10.030   8.386
 2474POPC   C3B34617  31.772   9.978   7.987
 2474POPC   C4B34618  31.678  10.069   7.586
 2475POPC   NC334619  15.533   8.031   9.797
 2475POPC   PO434620  15.898   8.336   9.368
 2475POPC   GL134621  15.933   8.262   9.002
 2475POPC   GL234622  15.818   7.941   8.961
 2475POPC   C1A34623  16.132   8.194   8.639
 2475POPC   D2A34624  16.482   8.056   8.458
 2475POPC   C3A34625  16.447   8.249   8.090
 2475POPC   C4A34626  16.135   8.281   7.777
 2475POPC   C1B34627  16.062   7.689   8.675
 2475POPC   C2B34628  16.104   7.546   8.277
 2475POPC   C3B34629  16.114   7.804   7.941
 2475POPC   C4B34630  15.933   7.860   7.540
 2476POPC   NC334631  35.040  36.778   9.412
 2476POPC   PO434632  35.678  37.115   9.484
 2476POPC   GL134633  35.616  36.934   9.095
 2476POPC   GL234634  35.263  36.882   8.957
 2476POPC   C1A34635  35.632  37.106   8.699
 2476POPC   D2A34636  35.352  37.096   8.374
 2476POPC   C3A34637  35.602  37.264   8.063
 2476POPC   C4A34638  35.623  37.108   7.667
 2476POPC   C1B34639  35.259  36.584   8.603
 2476POPC   C2B34640  35.177  36.514   8.133
 2476POPC   C3B34641  35.178  36.806   7.779
 2476POPC   C4B34642  35.217  36.691   7.301
 2477POPC   NC334643   0.163  33.874   9.640
 2477POPC   PO434644   0.805  33.882   9.705
 2477POPC   GL134645   0.533  33.832   9.263
 2477POPC   GL234646   0.242  34.039   9.157
 2477POPC   C1A34647   0.349  33.676   8.819
 2477POPC   D2A34648   0.247  33.438   8.402
 2477POPC   C3A34649   0.420  33.664   8.033
 2477POPC   C4A34650   0.506  33.787   7.588
 2477POPC   C1B34651   0.135  34.139   8.744
 2477POPC   C2B34652   0.154  33.926   8.379
 2477POPC   C3B34653   0.113  34.067   7.962
 2477POPC   C4B34654  44.807  34.265   7.761
 2478POPC   NC334655   7.602   0.464   9.588
 2478POPC   PO434656   7.719  44.797   9.582
 2478POPC   GL134657   7.542   0.108   9.223
 2478POPC   GL234658   7.220   0.334   9.264
 2478POPC   C1A34659   7.603   0.513   8.949
 2478POPC   D2A34660   7.539   0.623   8.507
 2478POPC   C3A34661   7.719   0.465   8.121
 2478POPC   C4A34662   7.617   0.157   7.837
 2478POPC   C1B34663   7.151   0.346   8.802
 2478POPC   C2B34664   7.061   0.535   8.383
 2478POPC   C3B34665   7.193   0.384   8.016
 2478POPC   C4B34666   7.397   0.592   7.698
 2479POPC   NC334667  21.951  41.209   9.784
 2479POPC   PO434668  21.872  40.640   9.465
 2479POPC   GL134669  22.147  40.886   9.222
 2479POPC   GL234670  21.953  41.150   9.270
 2479POPC   C1A34671  22.311  40.838   8.807
 2479POPC   D2A34672  22.330  40.567   8.433
 2479POPC   C3A34673  22.355  40.792   8.058
 2479POPC   C4A34674  22.368  40.672   7.652
 2479POPC   C1B34675  21.865  41.127   8.824
 2479POPC   C2B34676  22.061  41.063   8.420
 2479POPC   C3B34677  21.945  41.134   8.022
 2479POPC   C4B34678  22.047  41.081   7.591
 2480POPC   NC334679   3.751  20.886   9.538
 2480POPC   PO434680   3.122  20.618   9.542
 2480POPC   GL134681   3.313  20.368   9.240
 2480POPC   GL234682   3.663  20.435   9.169
 2480POPC   C1A34683   3.290  20.477   8.808
 2480POPC   D2A34684   3.359  20.694   8.465
 2480POPC   C3A34685   3.059  20.774   8.174
 2480POPC   C4A34686   3.186  20.675   7.779
 2480POPC   C1B34687   3.743  20.217   8.772
 2480POPC   C2B34688   3.755  20.250   8.305
 2480POPC   C3B34689   3.670  20.653   8.070
 2480POPC   C4B34690   3.880  20.714   7.697
 2481POPC   NC334691  42.665  13.335   9.471
 2481POPC   PO434692  42.373  13.901   9.541
 2481POPC   GL134693  42.328  13.662   9.196
 2481POPC   GL234694  42.663  13.705   9.124
 2481POPC   C1A34695  42.273  13.723   8.758
 2481POPC   D2A34696  42.051  13.704   8.378
 2481POPC   C3A34697  42.307  13.871   8.032
 2481POPC   C4A34698  42.527  13.672   7.735
 2481POPC   C1B34699  42.740  13.476   8.739
 2481POPC   C2B34700  42.616  13.506   8.290
 2481POPC   C3B34701  42.908  13.411   7.948
 2481POPC   C4B34702  42.785  13.315   7.488
 2482POPC   NC334703   5.233   7.976   9.553
 2482POPC   PO434704   4.814   8.560   9.660
 2482POPC   GL134705   4.927   8.375   9.281
 2482POPC   GL234706   5.246   8.273   9.159
 2482POPC   C1A34707   4.826   8.046   9.007
 2482POPC   D2A34708   4.883   7.865   8.603
 2482POPC   C3A34709   5.174   7.932   8.248
 2482POPC   C4A34710   5.004   8.012   7.833
 2482POPC   C1B34711   5.245   8.204   8.725
 2482POPC   C2B34712   5.423   8.441   8.410
 2482POPC   C3B34713   5.688   8.302   8.078
 2482POPC   C4B34714   5.498   8.129   7.719
 2483POPC   NC334715   1.966  17.922   9.536
 2483POPC   PO434716   2.215  17.305   9.493
 2483POPC   GL134717   2.211  17.320   9.060
 2483POPC   GL234718   1.861  17.194   9.084
 2483POPC   C1A34719   2.249  17.363   8.589
 2483POPC   D2A34720   2.447  17.628   8.233
 2483POPC   C3A34721   2.229  17.698   7.823
 2483POPC   C4A34722   2.287  17.623   7.334
 2483POPC   C1B34723   1.827  17.578   8.839
 2483POPC   C2B34724   1.802  17.612   8.406
 2483POPC   C3B34725   1.890  17.371   8.046
 2483POPC   C4B34726   1.769  17.510   7.649
 2484POPC   NC334727  23.438  38.236   9.492
 2484POPC   PO434728  23.872  38.637   9.322
 2484POPC   GL134729  23.857  38.260   9.158
 2484POPC   GL234730  23.528  38.241   8.989
 2484POPC   C1A34731  23.973  38.315   8.750
 2484POPC   D2A34732  23.744  38.307   8.376
 2484POPC   C3A34733  23.863  38.403   7.962
 2484POPC   C4A34734  23.553  38.283   7.655
 2484POPC   C1B34735  23.546  38.622   8.745
 2484POPC   C2B34736  23.463  38.761   8.340
 2484POPC   C3B34737  23.311  38.578   7.982
 2484POPC   C4B34738  23.133  38.631   7.584
 2485POPC   NC334739  26.013  43.995   9.503
 2485POPC   PO434740  26.548  43.617   9.703
 2485POPC   GL134741  26.358  43.717   9.271
 2485POPC   GL234742  26.374  44.088   9.163
 2485POPC   C1A34743  26.157  43.818   8.803
 2485POPC   D2A34744  26.012  44.161   8.482
 2485POPC   C3A34745  25.986  44.091   7.997
 2485POPC   C4A34746  25.909  43.679   7.734
 2485POPC   C1B34747  26.536  44.164   8.715
 2485POPC   C2B34748  26.448  44.044   8.275
 2485POPC   C3B34749  26.454  44.139   7.831
 2485POPC   C4B34750  26.266  43.942   7.483
 2486POPC   NC334751   4.190  13.518   9.498
 2486POPC   PO434752   4.584  14.154   9.524
 2486POPC   GL134753   4.482  13.818   9.214
 2486POPC   GL234754   4.137  13.860   9.116
 2486POPC   C1A34755   4.522  13.705   8.793
 2486POPC   D2A34756   4.414  13.856   8.400
 2486POPC   C3A34757   4.505  13.534   8.182
 2486POPC   C4A34758   4.466  13.459   7.806
 2486POPC   C1B34759   3.997  13.645   8.747
 2486POPC   C2B34760   3.999  13.553   8.330
 2486POPC   C3B34761   4.034  13.713   7.962
 2486POPC   C4B34762   4.045  13.579   7.528
 2487POPC   NC334763   0.027  13.723   9.343
 2487POPC   PO434764  44.640  13.307   9.657
 2487POPC   GL134765  44.560  13.519   9.188
 2487POPC   GL234766  44.672  13.857   9.022
 2487POPC   C1A34767  44.495  13.523   8.707
 2487POPC   D2A34768  44.691  13.476   8.289
 2487POPC   C3A34769  44.431  13.601   7.966
 2487POPC   C4A34770  44.162  13.389   7.744
 2487POPC   C1B34771   0.045  14.015   8.782
 2487POPC   C2B34772   0.183  14.088   8.375
 2487POPC   C3B34773  44.985  13.989   7.991
 2487POPC   C4B34774  44.900  13.581   7.797
 2488POPC   NC334775  31.031  19.989   9.379
 2488POPC   PO434776  30.534  19.897   9.797
 2488POPC   GL134777  30.496  19.824   9.333
 2488POPC   GL234778  30.735  19.576   9.231
 2488POPC   C1A34779  30.615  19.974   8.894
 2488POPC   D2A34780  30.675  19.810   8.488
 2488POPC   C3A34781  30.557  20.057   8.153
 2488POPC   C4A34782  30.585  19.904   7.743
 2488POPC   C1B34783  30.907  19.438   8.840
 2488POPC   C2B34784  31.023  19.426   8.421
 2488POPC   C3B34785  30.849  19.507   8.039
 2488POPC   C4B34786  31.015  19.641   7.639
 2489POPC   NC334787  38.572  28.205   9.576
 2489POPC   PO434788  38.318  28.799   9.471
 2489POPC   GL134789  38.484  28.472   9.132
 2489POPC   GL234790  38.523  28.072   9.103
 2489POPC   C1A34791  38.434  28.395   8.690
 2489POPC   D2A34792  38.496  28.570   8.309
 2489POPC   C3A34793  38.341  28.323   7.973
 2489POPC   C4A34794  38.278  28.432   7.516
 2489POPC   C1B34795  38.775  28.041   8.749
 2489POPC   C2B34796  38.600  28.012   8.346
 2489POPC   C3B34797  38.755  27.914   7.947
 2489POPC   C4B34798  38.662  28.133   7.614
 2490POPC   NC334799   7.442  15.600   9.541
 2490POPC   PO434800   7.542  16.249   9.527
 2490POPC   GL134801   7.439  15.966   9.156
 2490POPC   GL234802   7.175  16.191   9.100
 2490POPC   C1A34803   7.546  15.732   8.726
 2490POPC   D2A34804   7.350  15.652   8.299
 2490POPC   C3A34805   7.547  15.670   7.883
 2490POPC   C4A34806   7.525  15.841   7.455
 2490POPC   C1B34807   7.118  15.988   8.654
 2490POPC   C2B34808   6.922  15.972   8.245
 2490POPC   C3B34809   7.109  15.900   7.826
 2490POPC   C4B34810   7.009  15.945   7.371
 2491POPC   NC334811  21.095  11.377   9.513
 2491POPC   PO434812  20.470  11.397   9.471
 2491POPC   GL134813  20.712  11.428   9.080
 2491POPC   GL234814  20.967  11.689   9.121
 2491POPC   C1A34815  20.651  11.316   8.628
 2491POPC   D2A34816  20.637  11.062   8.262
 2491POPC   C3A34817  20.579  11.269   7.875
 2491POPC   C4A34818  20.310  11.287   7.509
 2491POPC   C1B34819  20.899  11.746   8.691
 2491POPC   C2B34820  20.938  11.583   8.280
 2491POPC   C3B34821  20.819  11.726   7.888
 2491POPC   C4B34822  20.673  11.615   7.490
 2492POPC   NC334823  41.575  42.256   9.684
 2492POPC   PO434824  41.376  42.895   9.545
 2492POPC   GL134825  41.287  42.507   9.279
 2492POPC   GL234826  41.605  42.389   9.183
 2492POPC   C1A34827  41.324  42.481   8.794
 2492POPC   D2A34828  41.586  42.582   8.445
 2492POPC   C3A34829  41.346  42.529   8.131
 2492POPC   C4A34830  41.600  42.393   7.867
 2492POPC   C1B34831  41.879  42.408   8.821
 2492POPC   C2B34832  42.000  42.195   8.456
 2492POPC   C3B34833  41.862  42.007   8.066
 2492POPC   C4B34834  41.972  41.766   7.695
 2493POPC   NC334835  24.003  25.869   9.541
 2493POPC   PO434836  23.479  26.342   9.519
 2493POPC   GL134837  23.711  26.088   9.165
 2493POPC   GL234838  23.939  25.797   9.058
 2493POPC   C1A34839  23.568  25.921   8.755
 2493POPC   D2A34840  23.668  26.060   8.357
 2493POPC   C3A34841  23.581  25.787   8.047
 2493POPC   C4A34842  23.791  25.710   7.655
 2493POPC   C1B34843  24.057  26.104   8.737
 2493POPC   C2B34844  24.193  26.166   8.330
 2493POPC   C3B34845  24.025  26.040   7.970
 2493POPC   C4B34846  24.036  26.180   7.608
 2494POPC   NC334847  44.412   7.954   9.378
 2494POPC   PO434848  44.705   7.343   9.684
 2494POPC   GL134849  44.700   7.209   9.254
 2494POPC   GL234850  44.540   7.499   9.208
 2494POPC   C1A34851  44.900   7.344   8.853
 2494POPC   D2A34852  44.890   7.665   8.496
 2494POPC   C3A34853  44.830   7.450   8.106
 2494POPC   C4A34854  44.736   7.609   7.695
 2494POPC   C1B34855  44.464   7.617   8.783
 2494POPC   C2B34856  44.371   7.479   8.363
 2494POPC   C3B34857  44.281   7.474   7.898
 2494POPC   C4B34858  44.092   7.650   7.473
 2495POPC   NC334859   2.320   8.582   9.477
 2495POPC   PO434860   2.942   8.220   9.643
 2495POPC   GL134861   2.875   8.220   9.115
 2495POPC   GL234862   3.036   8.526   8.922
 2495POPC   C1A34863   2.610   8.323   8.727
 2495POPC   D2A34864   2.565   8.024   8.387
 2495POPC   C3A34865   2.755   7.961   7.997
 2495POPC   C4A34866   2.692   7.956   7.539
 2495POPC   C1B34867   3.108   8.307   8.575
 2495POPC   C2B34868   3.038   8.375   8.144
 2495POPC   C3B34869   2.793   8.407   7.754
 2495POPC   C4B34870   2.886   8.367   7.307
 2496POPC   NC334871  37.097   0.870   9.419
 2496POPC   PO434872  36.606   1.229   9.777
 2496POPC   GL134873  36.501   1.416   9.274
 2496POPC   GL234874  36.881   1.332   9.066
 2496POPC   C1A34875  36.444   1.339   8.829
 2496POPC   D2A34876  36.751   1.182   8.527
 2496POPC   C3A34877  36.705   1.183   8.072
 2496POPC   C4A34878  36.844   1.430   7.699
 2496POPC   C1B34879  37.248   1.145   8.789
 2496POPC   C2B34880  37.405   1.145   8.339
 2496POPC   C3B34881  37.230   1.156   7.901
 2496POPC   C4B34882  37.021   0.994   7.511
 2497POPC   NC334883   8.436   8.664   9.416
 2497POPC   PO434884   7.794   8.925   9.479
 2497POPC   GL134885   8.125   8.996   9.157
 2497POPC   GL234886   8.066   8.699   9.048
 2497POPC   C1A34887   8.268   9.155   8.720
 2497POPC   D2A34888   8.017   9.199   8.350
 2497POPC   C3A34889   8.148   9.036   7.969
 2497POPC   C4A34890   7.938   9.172   7.615
 2497POPC   C1B34891   8.407   8.677   8.762
 2497POPC   C2B34892   8.368   8.473   8.375
 2497POPC   C3B34893   8.412   8.607   7.965
 2497POPC   C4B34894   8.617   8.488   7.609
 2498POPC   NC334895  25.053   6.986   9.468
 2498POPC   PO434896  24.848   7.582   9.465
 2498POPC   GL134897  24.625   7.562   9.127
 2498POPC   GL234898  24.524   7.234   9.095
 2498POPC   C1A34899  24.728   7.587   8.706
 2498POPC   D2A34900  24.661   7.455   8.294
 2498POPC   C3A34901  24.728   7.750   7.940
 2498POPC   C4A34902  24.686   7.577   7.509
 2498POPC   C1B34903  24.242   7.472   8.798
 2498POPC   C2B34904  24.160   7.561   8.359
 2498POPC   C3B34905  24.201   7.777   7.972
 2498POPC   C4B34906  24.138   7.638   7.539
 2499POPC   NC334907   3.430  26.304   9.499
 2499POPC   PO434908   3.284  25.687   9.226
 2499POPC   GL134909   3.593  25.862   9.034
 2499POPC   GL234910   3.502  26.206   9.010
 2499POPC   C1A34911   3.545  25.835   8.602
 2499POPC   D2A34912   3.531  26.113   8.289
 2499POPC   C3A34913   3.472  25.920   7.895
 2499POPC   C4A34914   3.648  26.131   7.533
 2499POPC   C1B34915   3.191  26.202   8.685
 2499POPC   C2B34916   3.028  26.099   8.289
 2499POPC   C3B34917   3.216  26.352   7.954
 2499POPC   C4B34918   3.143  26.384   7.549
 2500POPC   NC334919  23.480   3.774   9.757
 2500POPC   PO434920  22.912   3.801   9.412
 2500POPC   GL134921  22.788   3.735   9.030
 2500POPC   GL234922  22.834   3.380   9.036
 2500POPC   C1A34923  22.947   3.733   8.606
 2500POPC   D2A34924  22.979   3.949   8.218
 2500POPC   C3A34925  23.076   3.659   7.898
 2500POPC   C4A34926  22.867   3.583   7.519
 2500POPC   C1B34927  23.063   3.239   8.654
 2500POPC   C2B34928  22.881   3.291   8.227
 2500POPC   C3B34929  22.924   3.154   7.785
 2500POPC   C4B34930  22.996   3.145   7.287
 2501POPC   NC334931  35.918   4.071   9.838
 2501POPC   PO434932  36.273   3.628   9.456
 2501POPC   GL134933  36.161   3.584   9.077
 2501POPC   GL234934  35.880   3.431   9.045
 2501POPC   C1A34935  36.298   3.396   8.683
 2501POPC   D2A34936  36.427   3.408   8.240
 2501POPC   C3A34937  36.100   3.331   7.922
 2501POPC   C4A34938  35.729   3.103   7.927
 2501POPC   C1B34939  35.878   3.689   8.665
 2501POPC   C2B34940  35.762   3.870   8.250
 2501POPC   C3B34941  35.969   3.845   7.880
 2501POPC   C4B34942  36.388   3.765   7.843
 2502POPC   NC334943  41.729  15.682   9.447
 2502POPC   PO434944  41.399  16.267   9.376
 2502POPC   GL134945  41.630  16.033   9.076
 2502POPC   GL234946  41.437  15.724   9.035
 2502POPC   C1A34947  41.465  16.007   8.617
 2502POPC   D2A34948  41.317  16.034   8.191
 2502POPC   C3A34949  41.608  16.057   7.881
 2502POPC   C4A34950  41.551  16.313   7.495
 2502POPC   C1B34951  41.835  15.690   8.772
 2502POPC   C2B34952  41.770  15.664   8.373
 2502POPC   C3B34953  41.404  15.532   8.222
 2502POPC   C4B34954  41.506  15.557   7.830
 2503POPC   NC334955  36.966   5.694   9.676
 2503POPC   PO434956  36.363   6.049   9.462
 2503POPC   GL134957  36.773   5.995   9.315
 2503POPC   GL234958  36.628   5.667   9.229
 2503POPC   C1A34959  37.086   5.767   9.016
 2503POPC   D2A34960  37.190   5.897   8.621
 2503POPC   C3A34961  37.171   5.800   8.160
 2503POPC   C4A34962  37.301   6.076   7.833
 2503POPC   C1B34963  36.634   5.938   8.850
 2503POPC   C2B34964  36.713   5.873   8.486
 2503POPC   C3B34965  36.622   6.011   8.141
 2503POPC   C4B34966  36.799   5.865   7.813
 2504POPC   NC334967   0.310  21.161   9.511
 2504POPC   PO434968   0.847  21.604   9.535
 2504POPC   GL134969   0.688  21.343   9.201
 2504POPC   GL234970   0.315  21.446   9.090
 2504POPC   C1A34971   0.642  21.271   8.759
 2504POPC   D2A34972   0.274  21.419   8.532
 2504POPC   C3A34973   0.306  21.517   8.106
 2504POPC   C4A34974   0.494  21.298   7.782
 2504POPC   C1B34975  44.988  21.191   8.880
 2504POPC   C2B34976  44.860  21.057   8.450
 2504POPC   C3B34977   0.035  21.084   8.004
 2504POPC   C4B34978   0.171  21.000   7.538
 2505POPC   NC334979  39.925  31.864   9.252
 2505POPC   PO434980  39.838  31.277   9.483
 2505POPC   GL134981  39.861  31.381   9.057
 2505POPC   GL234982  40.221  31.453   8.979
 2505POPC   C1A34983  39.899  31.500   8.602
 2505POPC   D2A34984  40.202  31.289   8.312
 2505POPC   C3A34985  39.912  31.184   7.995
 2505POPC   C4A34986  39.709  31.453   7.708
 2505POPC   C1B34987  40.325  31.801   8.722
 2505POPC   C2B34988  40.276  31.824   8.303
 2505POPC   C3B34989  40.077  31.680   7.965
 2505POPC   C4B34990  40.265  31.647   7.576
 2506POPC   NC334991  18.529  13.588   9.655
 2506POPC   PO434992  17.898  13.416   9.800
 2506POPC   GL134993  18.111  13.565   9.356
 2506POPC   GL234994  18.418  13.366   9.190
 2506POPC   C1A34995  18.146  13.678   8.886
 2506POPC   D2A34996  18.143  13.884   8.479
 2506POPC   C3A34997  18.177  13.809   8.008
 2506POPC   C4A34998  17.984  13.869   7.592
 2506POPC   C1B34999  18.421  13.290   8.709
 2506POPC   C2B35000  18.525  13.523   8.323
 2506POPC   C3B35001  18.488  13.359   7.903
 2506POPC   C4B35002  18.364  13.049   7.539
 2507POPC   NC335003  24.945  17.066   9.389
 2507POPC   PO435004  25.424  16.608   9.527
 2507POPC   GL135005  25.349  16.544   9.079
 2507POPC   GL235006  24.985  16.496   9.076
 2507POPC   C1A35007  25.553  16.587   8.664
 2507POPC   D2A35008  25.291  16.637   8.318
 2507POPC   C3A35009  25.396  16.576   7.894
 2507POPC   C4A35010  25.039  16.382   7.711
 2507POPC   C1B35011  24.873  16.642   8.654
 2507POPC   C2B35012  24.850  16.929   8.303
 2507POPC   C3B35013  25.141  17.033   8.008
 2507POPC   C4B35014  25.139  16.912   7.610
 2508POPC   NC335015  10.350  29.150   9.656
 2508POPC   PO435016  10.995  29.218   9.483
 2508POPC   GL135017  10.641  29.070   9.208
 2508POPC   GL235018  10.286  28.976   9.147
 2508POPC   C1A35019  10.519  29.296   8.831
 2508POPC   D2A35020  10.653  29.426   8.463
 2508POPC   C3A35021  10.635  29.178   8.097
 2508POPC   C4A35022  10.644  29.377   7.681
 2508POPC   C1B35023  10.323  28.837   8.722
 2508POPC   C2B35024  10.205  29.004   8.334
 2508POPC   C3B35025  10.190  29.055   7.883
 2508POPC   C4B35026  10.222  29.203   7.463
 2509POPC   NC335027  37.698  40.974   9.535
 2509POPC   PO435028  37.926  41.532   9.877
 2509POPC   GL135029  37.977  41.503   9.399
 2509POPC   GL235030  37.647  41.475   9.220
 2509POPC   C1A35031  38.080  41.436   8.931
 2509POPC   D2A35032  37.813  41.482   8.538
 2509POPC   C3A35033  37.857  41.491   8.077
 2509POPC   C4A35034  37.808  41.598   7.629
 2509POPC   C1B35035  37.407  41.628   8.830
 2509POPC   C2B35036  37.413  41.833   8.424
 2509POPC   C3B35037  37.345  41.593   8.062
 2509POPC   C4B35038  37.435  41.281   7.766
 2510POPC   NC335039  39.318  44.162   9.397
 2510POPC   PO435040  38.866  44.750   9.481
 2510POPC   GL135041  38.984  44.815   9.105
 2510POPC   GL235042  39.265  44.584   9.096
 2510POPC   C1A35043  39.221  44.995   8.803
 2510POPC   D2A35044  39.331  44.704   8.483
 2510POPC   C3A35045  39.340  44.835   8.106
 2510POPC   C4A35046  39.158  44.649   7.784
 2510POPC   C1B35047  38.998  44.413   8.758
 2510POPC   C2B35048  39.076  44.228   8.346
 2510POPC   C3B35049  39.482  44.314   8.136
 2510POPC   C4B35050  39.613  44.455   7.723
 2511POPC   NC335051  27.524  17.181   9.521
 2511POPC   PO435052  27.572  16.588   9.468
 2511POPC   GL135053  27.749  16.866   9.179
 2511POPC   GL235054  27.927  16.620   9.023
 2511POPC   C1A35055  27.650  17.084   8.798
 2511POPC   D2A35056  27.741  16.896   8.394
 2511POPC   C3A35057  27.480  17.006   8.062
 2511POPC   C4A35058  27.602  17.242   7.706
 2511POPC   C1B35059  27.533  16.581   8.755
 2511POPC   C2B35060  27.295  16.515   8.346
 2511POPC   C3B35061  27.380  16.525   7.905
 2511POPC   C4B35062  27.771  16.689   7.763
 2512POPC   NC335063  37.015  32.140   9.497
 2512POPC   PO435064  36.437  32.538   9.551
 2512POPC   GL135065  36.619  32.261   9.176
 2512POPC   GL235066  36.973  32.304   9.019
 2512POPC   C1A35067  36.627  32.100   8.735
 2512POPC   D2A35068  36.731  32.337   8.343
 2512POPC   C3A35069  36.677  32.153   7.933
 2512POPC   C4A35070  36.691  32.292   7.489
 2512POPC   C1B35071  37.129  32.102   8.590
 2512POPC   C2B35072  37.184  32.164   8.129
 2512POPC   C3B35073  37.131  32.107   7.685
 2512POPC   C4B35074  37.102  31.766   7.379
 2513POPC   NC335075  35.577   7.260   9.531
 2513POPC   PO435076  34.923   7.408   9.443
 2513POPC   GL135077  35.255   7.411   9.121
 2513POPC   GL235078  35.562   7.176   9.044
 2513POPC   C1A35079  35.226   7.306   8.695
 2513POPC   D2A35080  35.003   7.286   8.341
 2513POPC   C3A35081  35.279   7.317   7.999
 2513POPC   C4A35082  35.492   7.459   7.654
 2513POPC   C1B35083  35.765   7.346   8.668
 2513POPC   C2B35084  35.775   7.251   8.198
 2513POPC   C3B35085  35.688   6.993   7.822
 2513POPC   C4B35086  35.700   7.139   7.339
 2514POPC   NC335087  25.811  10.486   9.544
 2514POPC   PO435088  26.450  10.628   9.494
 2514POPC   GL135089  26.160  10.556   9.125
 2514POPC   GL235090  25.801  10.543   9.046
 2514POPC   C1A35091  26.135  10.666   8.653
 2514POPC   D2A35092  26.400  10.667   8.319
 2514POPC   C3A35093  26.136  10.704   7.979
 2514POPC   C4A35094  25.829  10.751   7.598
 2514POPC   C1B35095  25.981  10.214   8.773
 2514POPC   C2B35096  26.045  10.267   8.325
 2514POPC   C3B35097  25.822  10.345   7.946
 2514POPC   C4B35098  25.983  10.266   7.530
 2515POPC   NC335099  18.842  39.017   9.463
 2515POPC   PO435100  19.336  39.448   9.320
 2515POPC   GL135101  19.071  39.235   9.047
 2515POPC   GL235102  18.881  39.531   9.066
 2515POPC   C1A35103  19.168  39.106   8.605
 2515POPC   D2A35104  19.172  39.415   8.253
 2515POPC   C3A35105  19.434  39.307   7.915
 2515POPC   C4A35106  19.436  38.996   7.610
 2515POPC   C1B35107  18.859  39.502   8.665
 2515POPC   C2B35108  18.718  39.206   8.378
 2515POPC   C3B35109  18.828  39.107   7.982
 2515POPC   C4B35110  18.977  39.432   7.722
 2516POPC   NC335111   0.659  36.107   9.514
 2516POPC   PO435112   1.280  36.175   9.438
 2516POPC   GL135113   0.981  36.215   9.074
 2516POPC   GL235114   1.266  36.229   8.862
 2516POPC   C1A35115   0.868  36.501   8.704
 2516POPC   D2A35116   0.765  36.464   8.253
 2516POPC   C3A35117   1.124  36.348   8.005
 2516POPC   C4A35118   1.248  35.943   7.790
 2516POPC   C1B35119   1.427  36.511   8.526
 2516POPC   C2B35120   1.519  36.671   8.107
 2516POPC   C3B35121   1.640  36.316   7.830
 2516POPC   C4B35122   2.023  36.214   7.582
 2517POPC   NC335123  35.631   8.875   9.576
 2517POPC   PO435124  36.236   9.039   9.904
 2517POPC   GL135125  36.116   8.944   9.378
 2517POPC   GL235126  35.828   8.699   9.152
 2517POPC   C1A35127  36.197   8.905   8.895
 2517POPC   D2A35128  35.884   8.922   8.546
 2517POPC   C3A35129  36.038   9.102   8.175
 2517POPC   C4A35130  36.343   9.201   7.858
 2517POPC   C1B35131  35.914   8.453   8.746
 2517POPC   C2B35132  36.179   8.469   8.350
 2517POPC   C3B35133  36.237   8.684   7.943
 2517POPC   C4B35134  36.069   8.667   7.495
 2518POPC   NC335135   1.240  11.512   9.836
 2518POPC   PO435136   1.453  11.018   9.440
 2518POPC   GL135137   1.490  11.163   9.080
 2518POPC   GL235138   1.135  11.199   9.105
 2518POPC   C1A35139   1.423  11.361   8.691
 2518POPC   D2A35140   1.270  11.426   8.292
 2518POPC   C3A35141   1.499  11.314   7.926
 2518POPC   C4A35142   1.499  11.032   7.605
 2518POPC   C1B35143   0.916  11.303   8.761
 2518POPC   C2B35144   0.817  11.121   8.404
 2518POPC   C3B35145   0.851  11.285   8.017
 2518POPC   C4B35146   0.875  11.031   7.679
 2519POPC   NC335147  15.691  21.942   9.651
 2519POPC   PO435148  16.241  22.297   9.656
 2519POPC   GL135149  15.979  22.229   9.272
 2519POPC   GL235150  15.624  22.254   9.248
 2519POPC   C1A35151  15.833  22.434   8.826
 2519POPC   D2A35152  15.663  22.424   8.430
 2519POPC   C3A35153  15.922  22.351   8.093
 2519POPC   C4A35154  15.812  22.346   7.690
 2519POPC   C1B35155  15.804  21.947   8.903
 2519POPC   C2B35156  15.694  21.937   8.481
 2519POPC   C3B35157  15.735  21.871   8.054
 2519POPC   C4B35158  16.046  21.892   7.805
 2520POPC   NC335159  21.437  24.481  10.226
 2520POPC   PO435160  21.414  24.336   9.552
 2520POPC   GL135161  21.464  24.272   9.152
 2520POPC   GL235162  21.354  24.570   9.094
 2520POPC   C1A35163  21.353  24.110   8.762
 2520POPC   D2A35164  21.542  24.124   8.363
 2520POPC   C3A35165  21.208  24.227   8.051
 2520POPC   C4A35166  21.233  24.550   7.757
 2520POPC   C1B35167  21.497  24.598   8.672
 2520POPC   C2B35168  21.282  24.648   8.312
 2520POPC   C3B35169  21.299  24.975   8.053
 2520POPC   C4B35170  21.605  24.898   7.744
 2521POPC   NC335171  17.105  19.980   9.630
 2521POPC   PO435172  16.525  19.689   9.701
 2521POPC   GL135173  16.778  19.693   9.297
 2521POPC   GL235174  16.815  20.045   9.216
 2521POPC   C1A35175  16.688  19.741   8.836
 2521POPC   D2A35176  16.495  19.793   8.442
 2521POPC   C3A35177  16.656  19.768   8.019
 2521POPC   C4A35178  16.532  19.847   7.601
 2521POPC   C1B35179  16.987  20.149   8.809
 2521POPC   C2B35180  16.963  19.980   8.408
 2521POPC   C3B35181  16.949  20.169   8.027
 2521POPC   C4B35182  17.005  20.051   7.591
 2522POPC   NC335183  40.127  41.985   9.332
 2522POPC   PO435184  39.888  41.370   9.418
 2522POPC   GL135185  40.050  41.557   9.055
 2522POPC   GL235186  40.333  41.394   8.939
 2522POPC   C1A35187  40.067  41.694   8.645
 2522POPC   D2A35188  40.173  41.915   8.269
 2522POPC   C3A35189  40.102  41.656   7.916
 2522POPC   C4A35190  40.002  41.775   7.528
 2522POPC   C1B35191  40.283  41.194   8.637
 2522POPC   C2B35192  40.195  41.314   8.283
 2522POPC   C3B35193  40.239  41.134   7.925
 2522POPC   C4B35194  40.106  41.259   7.568
 2523POPC   NC335195  40.182   1.669   9.444
 2523POPC   PO435196  40.097   0.955   9.596
 2523POPC   GL135197  39.891   1.137   9.224
 2523POPC   GL235198  39.587   1.319   9.137
 2523POPC   C1A35199  39.834   0.966   8.815
 2523POPC   D2A35200  40.062   1.066   8.433
 2523POPC   C3A35201  39.841   0.944   8.086
 2523POPC   C4A35202  40.087   0.873   7.761
 2523POPC   C1B35203  39.861   1.516   8.795
 2523POPC   C2B35204  40.109   1.602   8.418
 2523POPC   C3B35205  40.352   1.608   8.042
 2523POPC   C4B35206  40.245   1.363   7.727
 2524POPC   NC335207  18.258   5.438   9.846
 2524POPC   PO435208  18.216   6.008   9.495
 2524POPC   GL135209  18.015   6.052   9.132
 2524POPC   GL235210  18.332   6.056   8.974
 2524POPC   C1A35211  17.896   5.939   8.706
 2524POPC   D2A35212  17.817   6.110   8.286
 2524POPC   C3A35213  18.107   6.007   7.954
 2524POPC   C4A35214  17.962   5.562   7.889
 2524POPC   C1B35215  18.664   6.184   8.680
 2524POPC   C2B35216  18.732   5.930   8.341
 2524POPC   C3B35217  18.466   5.669   8.090
 2524POPC   C4B35218  18.380   5.690   7.647
 2525POPC   NC335219  33.609   9.138   9.549
 2525POPC   PO435220  33.664   8.459   9.490
 2525POPC   GL135221  33.767   8.823   9.185
 2525POPC   GL235222  33.937   9.146   9.172
 2525POPC   C1A35223  33.565   9.001   8.819
 2525POPC   D2A35224  33.539   8.804   8.423
 2525POPC   C3A35225  33.583   9.059   8.084
 2525POPC   C4A35226  33.544   8.822   7.712
 2525POPC   C1B35227  34.140   9.209   8.817
 2525POPC   C2B35228  34.057   8.984   8.470
 2525POPC   C3B35229  34.146   9.141   8.094
 2525POPC   C4B35230  33.994   9.063   7.714
 2526POPC   NC335231  10.830  24.066   9.408
 2526POPC   PO435232  10.249  23.752   9.510
 2526POPC   GL135233  10.417  23.537   9.120
 2526POPC   GL235234  10.736  23.613   9.154
 2526POPC   C1A35235  10.536  23.566   8.656
 2526POPC   D2A35236  10.368  23.841   8.309
 2526POPC   C3A35237  10.319  23.768   7.907
 2526POPC   C4A35238  10.495  23.428   7.775
 2526POPC   C1B35239  10.922  23.878   8.809
 2526POPC   C2B35240  10.858  23.924   8.407
 2526POPC   C3B35241  10.806  23.721   8.034
 2526POPC   C4B35242  10.722  23.845   7.590
 2527POPC   NC335243  10.182  12.168   9.687
 2527POPC   PO435244   9.610  11.794   9.814
 2527POPC   GL135245   9.791  11.964   9.387
 2527POPC   GL235246   9.840  11.694   9.153
 2527POPC   C1A35247   9.877  12.162   8.938
 2527POPC   D2A35248  10.029  12.031   8.490
 2527POPC   C3A35249   9.893  12.119   8.048
 2527POPC   C4A35250   9.529  12.230   7.767
 2527POPC   C1B35251   9.602  11.779   8.724
 2527POPC   C2B35252   9.446  11.910   8.288
 2527POPC   C3B35253   9.415  11.724   7.857
 2527POPC   C4B35254   9.566  11.572   7.459
 2528POPC   NC335255  36.501  28.797   9.541
 2528POPC   PO435256  35.897  29.087   9.608
 2528POPC   GL135257  36.030  28.943   9.199
 2528POPC   GL235258  36.197  28.623   9.173
 2528POPC   C1A35259  35.897  28.932   8.789
 2528POPC   D2A35260  35.895  29.204   8.466
 2528POPC   C3A35261  35.891  29.018   8.080
 2528POPC   C4A35262  36.198  29.186   7.824
 2528POPC   C1B35263  36.417  28.586   8.830
 2528POPC   C2B35264  36.252  28.750   8.457
 2528POPC   C3B35265  36.224  28.628   8.057
 2528POPC   C4B35266  36.318  28.715   7.664
 2529POPC   NC335267  38.336  41.709   9.765
 2529POPC   PO435268  38.920  41.367   9.668
 2529POPC   GL135269  38.695  41.425   9.262
 2529POPC   GL235270  38.445  41.715   9.225
 2529POPC   C1A35271  38.666  41.426   8.799
 2529POPC   D2A35272  38.772  41.680   8.441
 2529POPC   C3A35273  38.689  41.510   8.023
 2529POPC   C4A35274  38.362  41.493   7.694
 2529POPC   C1B35275  38.357  41.855   8.771
 2529POPC   C2B35276  38.263  41.720   8.330
 2529POPC   C3B35277  38.127  41.896   7.919
 2529POPC   C4B35278  38.158  41.961   7.480
 2530POPC   NC335279  37.118  24.764   9.403
 2530POPC   PO435280  36.887  24.260   9.815
 2530POPC   GL135281  36.793  24.327   9.334
 2530POPC   GL235282  36.919  24.047   9.126
 2530POPC   C1A35283  36.806  24.473   8.870
 2530POPC   D2A35284  37.141  24.578   8.530
 2530POPC   C3A35285  37.020  24.621   8.097
 2530POPC   C4A35286  36.674  24.660   7.827
 2530POPC   C1B35287  36.642  23.993   8.750
 2530POPC   C2B35288  36.546  24.073   8.303
 2530POPC   C3B35289  36.795  24.158   7.933
 2530POPC   C4B35290  36.684  24.259   7.475
 2531POPC   NC335291  15.285  21.115   9.733
 2531POPC   PO435292  15.248  20.550   9.416
 2531POPC   GL135293  14.956  20.465   9.120
 2531POPC   GL235294  14.880  20.821   9.123
 2531POPC   C1A35295  14.843  20.314   8.731
 2531POPC   D2A35296  15.008  20.474   8.344
 2531POPC   C3A35297  14.980  20.304   7.944
 2531POPC   C4A35298  15.386  20.358   7.770
 2531POPC   C1B35299  14.956  20.824   8.718
 2531POPC   C2B35300  14.718  21.045   8.412
 2531POPC   C3B35301  14.878  20.883   8.062
 2531POPC   C4B35302  15.113  20.778   7.743
 2532POPC   NC335303  41.232  10.221   9.342
 2532POPC   PO435304  41.690  10.583   9.596
 2532POPC   GL135305  41.514  10.584   9.126
 2532POPC   GL235306  41.192  10.673   9.047
 2532POPC   C1A35307  41.776  10.546   8.739
 2532POPC   D2A35308  41.900  10.644   8.325
 2532POPC   C3A35309  41.633  10.377   8.091
 2532POPC   C4A35310  41.561  10.259   7.686
 2532POPC   C1B35311  41.109  10.957   8.702
 2532POPC   C2B35312  41.288  11.113   8.298
 2532POPC   C3B35313  41.472  10.884   7.982
 2532POPC   C4B35314  41.311  10.828   7.566
 2533POPC   NC335315  41.023  12.070   9.467
 2533POPC   PO435316  40.659  12.613   9.535
 2533POPC   GL135317  40.803  12.408   9.118
 2533POPC   GL235318  41.181  12.367   9.075
 2533POPC   C1A35319  40.692  12.087   8.783
 2533POPC   D2A35320  40.488  11.828   8.445
 2533POPC   C3A35321  40.464  12.028   8.032
 2533POPC   C4A35322  40.771  11.949   7.703
 2533POPC   C1B35323  41.096  12.398   8.637
 2533POPC   C2B35324  40.888  12.328   8.273
 2533POPC   C3B35325  41.102  12.282   7.899
 2533POPC   C4B35326  40.990  12.372   7.459
 2534POPC   NC335327  19.540  14.114   9.242
 2534POPC   PO435328  19.682  14.800   9.478
 2534POPC   GL135329  19.739  14.564   9.111
 2534POPC   GL235330  20.008  14.345   9.117
 2534POPC   C1A35331  19.723  14.449   8.648
 2534POPC   D2A35332  19.483  14.346   8.236
 2534POPC   C3A35333  19.607  14.506   7.830
 2534POPC   C4A35334  20.036  14.418   7.697
 2534POPC   C1B35335  20.058  14.017   8.789
 2534POPC   C2B35336  19.893  14.034   8.366
 2534POPC   C3B35337  19.775  14.038   7.938
 2534POPC   C4B35338  19.813  14.025   7.491
 2535POPC   NC335339  27.601  30.411   9.521
 2535POPC   PO435340  28.016  30.832   9.217
 2535POPC   GL135341  27.566  30.728   9.082
 2535POPC   GL235342  27.525  30.371   9.013
 2535POPC   C1A35343  27.352  30.670   8.646
 2535POPC   D2A35344  27.633  30.897   8.352
 2535POPC   C3A35345  27.637  30.681   7.980
 2535POPC   C4A35346  27.384  30.732   7.613
 2535POPC   C1B35347  27.840  30.491   8.672
 2535POPC   C2B35348  28.075  30.460   8.269
 2535POPC   C3B35349  28.095  30.407   7.812
 2535POPC   C4B35350  28.197  30.446   7.345
 2536POPC   NC335351  27.895   5.605   9.638
 2536POPC   PO435352  27.429   5.938   9.283
 2536POPC   GL135353  27.576   5.669   8.997
 2536POPC   GL235354  27.890   5.670   9.130
 2536POPC   C1A35355  27.582   5.638   8.558
 2536POPC   D2A35356  27.536   6.017   8.339
 2536POPC   C3A35357  27.357   5.969   7.943
 2536POPC   C4A35358  27.476   5.684   7.582
 2536POPC   C1B35359  28.001   5.857   8.736
 2536POPC   C2B35360  27.984   5.781   8.271
 2536POPC   C3B35361  27.861   5.884   7.860
 2536POPC   C4B35362  27.941   5.817   7.392
 2537POPC   NC335363   1.030  16.564   9.524
 2537POPC   PO435364   1.526  17.057   9.496
 2537POPC   GL135365   1.430  16.837   9.127
 2537POPC   GL235366   1.051  16.888   9.091
 2537POPC   C1A35367   1.348  16.763   8.685
 2537POPC   D2A35368   1.057  16.866   8.379
 2537POPC   C3A35369   1.322  16.818   8.025
 2537POPC   C4A35370   1.546  16.507   7.767
 2537POPC   C1B35371   1.020  16.442   8.895
 2537POPC   C2B35372   0.915  16.332   8.467
 2537POPC   C3B35373   0.936  16.427   8.049
 2537POPC   C4B35374   0.996  16.629   7.685
 2538POPC   NC335375   9.980  20.732   9.812
 2538POPC   PO435376  10.141  20.932   9.220
 2538POPC   GL135377   9.852  20.700   8.962
 2538POPC   GL235378   9.592  20.646   9.166
 2538POPC   C1A35379   9.851  20.432   8.591
 2538POPC   D2A35380   9.841  20.671   8.235
 2538POPC   C3A35381   9.847  20.604   7.833
 2538POPC   C4A35382   9.835  20.998   7.593
 2538POPC   C1B35383   9.391  20.402   8.815
 2538POPC   C2B35384   9.364  20.499   8.331
 2538POPC   C3B35385   9.323  20.442   7.870
 2538POPC   C4B35386   9.253  20.331   7.422
 2539POPC   NC335387  30.086  37.582   9.698
 2539POPC   PO435388  29.437  37.419   9.461
 2539POPC   GL135389  29.806  37.534   9.209
 2539POPC   GL235390  29.634  37.520   8.915
 2539POPC   C1A35391  30.122  37.483   8.801
 2539POPC   D2A35392  30.394  37.652   8.439
 2539POPC   C3A35393  30.307  37.643   7.999
 2539POPC   C4A35394  29.962  37.529   7.773
 2539POPC   C1B35395  29.407  37.633   8.532
 2539POPC   C2B35396  29.455  37.650   8.075
 2539POPC   C3B35397  29.499  37.691   7.630
 2539POPC   C4B35398  29.448  37.867   7.219
 2540POPC   NC335399  44.153   7.003   9.457
 2540POPC   PO435400  44.045   7.646   9.400
 2540POPC   GL135401  44.036   7.492   9.038
 2540POPC   GL235402  44.197   7.200   8.996
 2540POPC   C1A35403  43.963   7.599   8.649
 2540POPC   D2A35404  43.687   7.502   8.327
 2540POPC   C3A35405  43.778   7.576   7.887
 2540POPC   C4A35406  43.566   7.551   7.476
 2540POPC   C1B35407  44.035   7.107   8.596
 2540POPC   C2B35408  44.004   7.130   8.157
 2540POPC   C3B35409  43.719   6.951   7.852
 2540POPC   C4B35410  43.467   6.960   7.455
 2541POPC   NC335411   1.721  24.432   9.403
 2541POPC   PO435412   1.113  24.236   9.443
 2541POPC   GL135413   1.333  24.369   9.068
 2541POPC   GL235414   1.337  24.697   9.158
 2541POPC   C1A35415   1.513  24.412   8.653
 2541POPC   D2A35416   1.392  24.126   8.329
 2541POPC   C3A35417   1.028  24.294   8.273
 2541POPC   C4A35418   0.980  24.603   7.931
 2541POPC   C1B35419   1.220  24.830   8.754
 2541POPC   C2B35420   1.237  24.749   8.350
 2541POPC   C3B35421   1.506  24.566   8.089
 2541POPC   C4B35422   1.522  24.540   7.680
 2542POPC   NC335423  34.056  18.208   9.439
 2542POPC   PO435424  33.472  18.516   9.329
 2542POPC   GL135425  33.674  18.216   9.096
 2542POPC   GL235426  33.914  18.474   9.047
 2542POPC   C1A35427  33.601  17.987   8.746
 2542POPC   D2A35428  33.439  18.023   8.348
 2542POPC   C3A35429  33.680  18.147   7.975
 2542POPC   C4A35430  33.614  18.416   7.640
 2542POPC   C1B35431  34.010  18.313   8.683
 2542POPC   C2B35432  33.992  18.411   8.271
 2542POPC   C3B35433  34.158  18.359   7.845
 2542POPC   C4B35434  34.061  18.208   7.418
 2543POPC   NC335435   0.253  41.174   9.436
 2543POPC   PO435436   0.462  41.819   9.482
 2543POPC   GL135437   0.428  41.569   9.101
 2543POPC   GL235438   0.055  41.509   9.086
 2543POPC   C1A35439   0.615  41.604   8.665
 2543POPC   D2A35440   0.501  41.378   8.273
 2543POPC   C3A35441   0.594  41.487   7.851
 2543POPC   C4A35442   0.702  41.817   7.546
 2543POPC   C1B35443   0.100  41.336   8.653
 2543POPC   C2B35444  44.994  41.303   8.207
 2543POPC   C3B35445   0.116  41.308   7.759
 2543POPC   C4B35446   0.165  41.202   7.288
 2544POPC   NC335447  43.679   7.910   9.453
 2544POPC   PO435448  44.225   8.108   9.791
 2544POPC   GL135449  44.014   8.275   9.303
 2544POPC   GL235450  43.999   8.017   9.054
 2544POPC   C1A35451  43.893   8.445   8.816
 2544POPC   D2A35452  43.834   8.317   8.367
 2544POPC   C3A35453  43.596   8.478   8.024
 2544POPC   C4A35454  43.682   8.660   7.608
 2544POPC   C1B35455  44.176   8.048   8.649
 2544POPC   C2B35456  44.068   7.878   8.238
 2544POPC   C3B35457  43.937   8.095   7.905
 2544POPC   C4B35458  43.983   8.219   7.513
 2545POPC   NC335459  28.986  36.094   9.470
 2545POPC   PO435460  29.650  36.009   9.444
 2545POPC   GL135461  29.362  36.006   9.113
 2545POPC   GL235462  29.238  36.380   9.103
 2545POPC   C1A35463  29.252  36.080   8.686
 2545POPC   D2A35464  29.268  36.388   8.358
 2545POPC   C3A35465  29.341  36.268   7.912
 2545POPC   C4A35466  29.236  36.325   7.449
 2545POPC   C1B35467  28.828  36.290   8.865
 2545POPC   C2B35468  28.664  36.443   8.479
 2545POPC   C3B35469  28.846  36.326   8.090
 2545POPC   C4B35470  28.651  36.211   7.725
 2546POPC   NC335471   0.371  19.416   9.326
 2546POPC   PO435472  44.948  18.804   9.457
 2546POPC   GL135473   0.161  18.936   9.085
 2546POPC   GL235474   0.517  18.972   9.102
 2546POPC   C1A35475   0.301  19.187   8.716
 2546POPC   D2A35476   0.332  19.385   8.349
 2546POPC   C3A35477   0.354  19.032   8.129
 2546POPC   C4A35478   0.266  19.106   7.744
 2546POPC   C1B35479   0.776  19.284   8.803
 2546POPC   C2B35480   0.809  19.184   8.346
 2546POPC   C3B35481   0.741  19.264   7.917
 2546POPC   C4B35482   0.730  19.303   7.484
 2547POPC   NC335483   8.658  27.787   9.589
 2547POPC   PO435484   9.300  27.516   9.729
 2547POPC   GL135485   9.030  27.551   9.325
 2547POPC   GL235486   8.715  27.665   9.108
 2547POPC   C1A35487   9.106  27.453   8.885
 2547POPC   D2A35488   9.260  27.551   8.491
 2547POPC   C3A35489   8.985  27.440   8.162
 2547POPC   C4A35490   9.126  27.462   7.728
 2547POPC   C1B35491   8.697  27.986   8.770
 2547POPC   C2B35492   8.853  27.936   8.353
 2547POPC   C3B35493   8.848  27.892   7.923
 2547POPC   C4B35494   8.855  27.828   7.482
 2548POPC   NC335495  26.444  39.803   9.459
 2548POPC   PO435496  25.847  40.139   9.695
 2548POPC   GL135497  26.012  40.037   9.263
 2548POPC   GL235498  26.151  39.744   9.055
 2548POPC   C1A35499  25.960  40.158   8.830
 2548POPC   D2A35500  25.954  40.194   8.374
 2548POPC   C3A35501  25.720  39.863   8.136
 2548POPC   C4A35502  25.689  39.907   7.693
 2548POPC   C1B35503  26.215  39.749   8.596
 2548POPC   C2B35504  26.227  39.815   8.142
 2548POPC   C3B35505  26.190  39.945   7.701
 2548POPC   C4B35506  26.173  40.270   7.379
 2549POPC   NC335507  30.196  33.568   9.563
 2549POPC   PO435508  29.736  34.066   9.502
 2549POPC   GL135509  29.970  33.949   9.171
 2549POPC   GL235510  29.852  33.622   9.168
 2549POPC   C1A35511  29.953  34.117   8.749
 2549POPC   D2A35512  29.803  34.018   8.357
 2549POPC   C3A35513  30.078  33.972   8.041
 2549POPC   C4A35514  30.133  34.144   7.673
 2549POPC   C1B35515  29.819  33.368   8.823
 2549POPC   C2B35516  29.889  33.500   8.402
 2549POPC   C3B35517  30.065  33.425   8.019
 2549POPC   C4B35518  30.062  33.375   7.600
 2550POPC   NC335519   5.290   2.802   9.458
 2550POPC   PO435520   4.889   2.372   9.744
 2550POPC   GL135521   5.094   2.408   9.249
 2550POPC   GL235522   4.973   2.792   9.075
 2550POPC   C1A35523   5.121   2.415   8.795
 2550POPC   D2A35524   4.821   2.673   8.552
 2550POPC   C3A35525   4.998   2.728   8.166
 2550POPC   C4A35526   5.238   2.430   7.891
 2550POPC   C1B35527   5.252   2.921   8.730
 2550POPC   C2B35528   5.383   3.094   8.283
 2550POPC   C3B35529   5.280   2.985   7.817
 2550POPC   C4B35530   5.288   3.158   7.348
 2551POPC   NC335531  39.521  32.512   9.548
 2551POPC   PO435532  39.372  31.847   9.611
 2551POPC   GL135533  39.272  32.155   9.261
 2551POPC   GL235534  39.598  32.240   9.120
 2551POPC   C1A35535  39.195  32.344   8.836
 2551POPC   D2A35536  39.155  32.114   8.472
 2551POPC   C3A35537  39.143  32.243   8.064
 2551POPC   C4A35538  39.088  32.479   7.706
 2551POPC   C1B35539  39.451  31.895   8.833
 2551POPC   C2B35540  39.447  31.716   8.422
 2551POPC   C3B35541  39.507  31.847   7.997
 2551POPC   C4B35542  39.671  32.044   7.640
 2552POPC   NC335543  40.329  24.846   9.558
 2552POPC   PO435544  40.935  24.490   9.452
 2552POPC   GL135545  40.627  24.624   9.205
 2552POPC   GL235546  40.642  24.339   9.022
 2552POPC   C1A35547  40.678  24.796   8.816
 2552POPC   D2A35548  40.831  24.593   8.450
 2552POPC   C3A35549  40.540  24.489   8.109
 2552POPC   C4A35550  40.745  24.391   7.713
 2552POPC   C1B35551  40.552  24.188   8.627
 2552POPC   C2B35552  40.823  24.096   8.276
 2552POPC   C3B35553  40.986  23.966   7.889
 2552POPC   C4B35554  40.799  23.939   7.486
 2553POPC   NC335555  22.336  17.101   9.364
 2553POPC   PO435556  22.010  17.589   9.670
 2553POPC   GL135557  22.114  17.570   9.204
 2553POPC   GL235558  22.440  17.729   9.194
 2553POPC   C1A35559  22.009  17.415   8.753
 2553POPC   D2A35560  21.958  17.589   8.304
 2553POPC   C3A35561  21.991  17.372   7.889
 2553POPC   C4A35562  21.954  17.534   7.431
 2553POPC   C1B35563  22.524  17.535   8.807
 2553POPC   C2B35564  22.392  17.363   8.415
 2553POPC   C3B35565  22.472  17.514   8.012
 2553POPC   C4B35566  22.421  17.468   7.576
 2554POPC   NC335567  11.221  28.821   9.416
 2554POPC   PO435568  11.554  29.413   9.626
 2554POPC   GL135569  11.386  29.354   9.179
 2554POPC   GL235570  11.018  29.406   9.023
 2554POPC   C1A35571  11.379  29.168   8.785
 2554POPC   D2A35572  11.139  29.234   8.388
 2554POPC   C3A35573  11.431  29.397   8.096
 2554POPC   C4A35574  11.632  29.218   7.729
 2554POPC   C1B35575  10.906  28.982   8.783
 2554POPC   C2B35576  10.795  28.749   8.408
 2554POPC   C3B35577  10.945  28.761   7.984
 2554POPC   C4B35578  11.082  29.142   7.855
 2555POPC   NC335579  11.857   7.226   9.322
 2555POPC   PO435580  12.318   7.724   9.402
 2555POPC   GL135581  12.161   7.574   9.047
 2555POPC   GL235582  11.850   7.726   9.034
 2555POPC   C1A35583  12.327   7.396   8.655
 2555POPC   D2A35584  12.316   7.130   8.307
 2555POPC   C3A35585  12.424   7.322   7.978
 2555POPC   C4A35586  12.262   7.388   7.601
 2555POPC   C1B35587  11.823   7.507   8.668
 2555POPC   C2B35588  11.979   7.508   8.246
 2555POPC   C3B35589  11.923   7.195   7.933
 2555POPC   C4B35590  11.837   7.168   7.465
 2556POPC   NC335591  19.659  42.933   9.449
 2556POPC   PO435592  20.371  43.055   9.496
 2556POPC   GL135593  19.995  43.117   9.139
 2556POPC   GL235594  19.777  42.861   8.953
 2556POPC   C1A35595  19.721  43.329   8.803
 2556POPC   D2A35596  19.790  43.499   8.393
 2556POPC   C3A35597  19.988  43.203   8.128
 2556POPC   C4A35598  19.869  42.904   7.820
 2556POPC   C1B35599  19.419  42.907   8.725
 2556POPC   C2B35600  19.508  43.049   8.313
 2556POPC   C3B35601  19.368  42.916   7.909
 2556POPC   C4B35602  19.530  42.892   7.446
 2557POPC   NC335603  12.577  39.923  10.005
 2557POPC   PO435604  12.931  39.996   9.534
 2557POPC   GL135605  12.775  39.983   9.096
 2557POPC   GL235606  12.998  39.721   9.010
 2557POPC   C1A35607  12.842  40.044   8.609
 2557POPC   D2A35608  12.697  40.173   8.175
 2557POPC   C3A35609  12.955  40.072   7.799
 2557POPC   C4A35610  13.291  40.101   7.455
 2557POPC   C1B35611  12.614  39.625   8.767
 2557POPC   C2B35612  12.480  39.736   8.341
 2557POPC   C3B35613  12.501  39.785   7.884
 2557POPC   C4B35614  12.755  39.725   7.492
 2558POPC   NC335615  21.741  22.652   9.847
 2558POPC   PO435616  22.139  22.999   9.450
 2558POPC   GL135617  22.019  22.811   9.099
 2558POPC   GL235618  22.206  22.482   9.175
 2558POPC   C1A35619  22.015  23.001   8.703
 2558POPC   D2A35620  21.843  23.050   8.298
 2558POPC   C3A35621  22.148  23.090   7.940
 2558POPC   C4A35622  22.193  23.198   7.500
 2558POPC   C1B35623  22.335  22.594   8.745
 2558POPC   C2B35624  22.344  22.818   8.363
 2558POPC   C3B35625  22.477  22.677   7.999
 2558POPC   C4B35626  22.289  22.692   7.622
 2559POPC   NC335627  33.166  22.345   9.535
 2559POPC   PO435628  32.856  21.802   9.423
 2559POPC   GL135629  32.898  22.124   9.144
 2559POPC   GL235630  33.287  22.188   9.074
 2559POPC   C1A35631  32.928  22.056   8.737
 2559POPC   D2A35632  33.256  21.969   8.502
 2559POPC   C3A35633  33.054  21.866   8.164
 2559POPC   C4A35634  33.098  21.912   7.758
 2559POPC   C1B35635  33.247  22.451   8.700
 2559POPC   C2B35636  32.986  22.385   8.341
 2559POPC   C3B35637  33.117  22.382   7.929
 2559POPC   C4B35638  33.442  22.473   7.642
 2560POPC   NC335639  39.017  39.958   9.323
 2560POPC   PO435640  38.624  40.405   9.674
 2560POPC   GL135641  38.539  40.131   9.289
 2560POPC   GL235642  38.717  40.217   9.012
 2560POPC   C1A35643  38.316  39.936   8.878
 2560POPC   D2A35644  38.322  39.719   8.463
 2560POPC   C3A35645  38.501  40.025   8.157
 2560POPC   C4A35646  38.321  40.113   7.771
 2560POPC   C1B35647  38.764  39.983   8.622
 2560POPC   C2B35648  38.807  39.653   8.311
 2560POPC   C3B35649  38.692  39.665   7.833
 2560POPC   C4B35650  38.802  39.505   7.409
 2561POPC   NC335651  44.652  34.630   9.572
 2561POPC   PO435652  44.859  34.102   9.945
 2561POPC   GL135653  44.549  34.223   9.313
 2561POPC   GL235654  44.481  34.581   9.128
 2561POPC   C1A35655  44.673  34.301   8.788
 2561POPC   D2A35656  44.811  34.283   8.353
 2561POPC   C3A35657  44.811  34.601   8.155
 2561POPC   C4A35658  44.480  34.609   7.917
 2561POPC   C1B35659  44.612  34.837   8.798
 2561POPC   C2B35660  44.543  35.051   8.406
 2561POPC   C3B35661  44.643  35.066   7.996
 2561POPC   C4B35662  44.884  34.832   7.696
 2562POPC   NC335663  34.128  43.288   9.231
 2562POPC   PO435664  33.605  43.096   9.519
 2562POPC   GL135665  33.651  43.151   9.090
 2562POPC   GL235666  33.744  42.808   9.083
 2562POPC   C1A35667  33.732  43.353   8.663
 2562POPC   D2A35668  33.943  43.128   8.315
 2562POPC   C3A35669  33.794  43.307   7.960
 2562POPC   C4A35670  33.969  43.295   7.574
 2562POPC   C1B35671  33.707  42.849   8.683
 2562POPC   C2B35672  33.483  42.929   8.350
 2562POPC   C3B35673  33.632  42.794   7.988
 2562POPC   C4B35674  33.559  42.994   7.606
 2563POPC   NC335675  15.114  24.285   9.427
 2563POPC   PO435676  14.781  24.853   9.478
 2563POPC   GL135677  14.888  24.649   9.038
 2563POPC   GL235678  15.116  24.373   8.947
 2563POPC   C1A35679  14.994  24.626   8.545
 2563POPC   D2A35680  15.353  24.638   8.241
 2563POPC   C3A35681  15.255  24.580   7.833
 2563POPC   C4A35682  15.055  24.408   7.496
 2563POPC   C1B35683  15.124  24.057   8.582
 2563POPC   C2B35684  15.080  24.199   8.183
 2563POPC   C3B35685  14.798  24.493   8.070
 2563POPC   C4B35686  14.762  24.763   7.741
 2564POPC   NC335687  18.427   6.414   9.572
 2564POPC   PO435688  18.062   6.979   9.714
 2564POPC   GL135689  18.127   6.727   9.303
 2564POPC   GL235690  18.406   6.947   9.237
 2564POPC   C1A35691  18.357   6.554   8.918
 2564POPC   D2A35692  18.195   6.343   8.541
 2564POPC   C3A35693  18.448   6.348   8.192
 2564POPC   C4A35694  18.387   6.497   7.787
 2564POPC   C1B35695  18.369   7.044   8.786
 2564POPC   C2B35696  18.483   6.785   8.466
 2564POPC   C3B35697  18.217   6.835   8.121
 2564POPC   C4B35698  18.113   6.980   7.720
 2565POPC   NC335699  37.960  16.947   9.581
 2565POPC   PO435700  37.558  16.483   9.285
 2565POPC   GL135701  37.815  16.729   9.098
 2565POPC   GL235702  37.642  17.014   9.177
 2565POPC   C1A35703  37.715  16.711   8.673
 2565POPC   D2A35704  37.709  16.673   8.259
 2565POPC   C3A35705  37.348  16.769   7.999
 2565POPC   C4A35706  37.507  16.715   7.565
 2565POPC   C1B35707  37.438  17.123   8.806
 2565POPC   C2B35708  37.490  17.141   8.352
 2565POPC   C3B35709  37.704  17.101   7.946
 2565POPC   C4B35710  37.860  17.118   7.520
 2566POPC   NC335711  43.260  40.690   9.361
 2566POPC   PO435712  42.621  41.029   9.396
 2566POPC   GL135713  42.801  40.740   9.131
 2566POPC   GL235714  43.025  41.042   9.039
 2566POPC   C1A35715  42.928  40.662   8.714
 2566POPC   D2A35716  42.690  40.802   8.399
 2566POPC   C3A35717  42.882  40.708   8.045
 2566POPC   C4A35718  42.965  41.004   7.724
 2566POPC   C1B35719  43.371  40.902   8.741
 2566POPC   C2B35720  43.345  40.758   8.304
 2566POPC   C3B35721  43.438  41.013   7.933
 2566POPC   C4B35722  43.410  41.020   7.486
 2567POPC   NC335723   8.016   3.686   9.486
 2567POPC   PO435724   8.636   4.087   9.473
 2567POPC   GL135725   8.348   3.844   9.156
 2567POPC   GL235726   8.497   3.571   8.936
 2567POPC   C1A35727   8.139   3.888   8.752
 2567POPC   D2A35728   8.416   3.685   8.446
 2567POPC   C3A35729   8.399   3.801   8.040
 2567POPC   C4A35730   8.107   3.725   7.726
 2567POPC   C1B35731   8.243   3.279   8.712
 2567POPC   C2B35732   8.026   3.081   8.401
 2567POPC   C3B35733   8.112   3.128   7.996
 2567POPC   C4B35734   8.228   3.187   7.579
 2568POPC   NC335735  31.021  33.197   9.384
 2568POPC   PO435736  30.634  33.754   9.583
 2568POPC   GL135737  30.723  33.643   9.183
 2568POPC   GL235738  30.407  33.612   9.107
 2568POPC   C1A35739  30.958  33.618   8.801
 2568POPC   D2A35740  31.142  33.387   8.468
 2568POPC   C3A35741  31.036  33.604   8.102
 2568POPC   C4A35742  30.936  33.830   7.743
 2568POPC   C1B35743  30.204  33.682   8.793
 2568POPC   C2B35744  30.320  33.777   8.441
 2568POPC   C3B35745  30.517  33.651   8.127
 2568POPC   C4B35746  30.419  33.722   7.695
 2569POPC   NC335747  33.997  24.385   9.782
 2569POPC   PO435748  33.920  24.620   9.208
 2569POPC   GL135749  33.677  24.714   8.936
 2569POPC   GL235750  33.358  24.827   9.053
 2569POPC   C1A35751  33.847  24.905   8.606
 2569POPC   D2A35752  33.745  24.815   8.214
 2569POPC   C3A35753  33.870  24.466   7.998
 2569POPC   C4A35754  33.956  24.413   7.591
 2569POPC   C1B35755  33.336  24.790   8.575
 2569POPC   C2B35756  33.264  24.930   8.159
 2569POPC   C3B35757  33.481  24.798   7.785
 2569POPC   C4B35758  33.437  24.414   7.556
 2570POPC   NC335759  40.192  25.518   9.188
 2570POPC   PO435760  39.928  26.181   9.400
 2570POPC   GL135761  40.122  25.983   9.043
 2570POPC   GL235762  39.867  25.702   8.831
 2570POPC   C1A35763  40.266  25.905   8.617
 2570POPC   D2A35764  39.979  25.843   8.265
 2570POPC   C3A35765  40.220  25.923   7.907
 2570POPC   C4A35766  40.280  26.354   7.812
 2570POPC   C1B35767  39.794  26.150   8.706
 2570POPC   C2B35768  39.751  26.416   8.356
 2570POPC   C3B35769  39.789  26.298   7.940
 2570POPC   C4B35770  39.758  25.938   7.684
 2571POPC   NC335771  10.664  40.853   9.541
 2571POPC   PO435772   9.979  40.747   9.543
 2571POPC   GL135773  10.301  40.646   9.208
 2571POPC   GL235774  10.655  40.565   9.135
 2571POPC   C1A35775  10.337  40.823   8.811
 2571POPC   D2A35776  10.145  41.032   8.501
 2571POPC   C3A35777  10.357  40.946   8.113
 2571POPC   C4A35778  10.500  40.645   7.815
 2571POPC   C1B35779  10.784  40.596   8.719
 2571POPC   C2B35780  10.849  40.722   8.293
 2571POPC   C3B35781  10.842  40.993   7.935
 2571POPC   C4B35782  10.740  40.960   7.480
 2572POPC   NC335783  30.156  30.445   9.388
 2572POPC   PO435784  29.491  30.608   9.505
 2572POPC   GL135785  29.608  30.613   9.070
 2572POPC   GL235786  29.973  30.678   8.958
 2572POPC   C1A35787  29.642  30.458   8.638
 2572POPC   D2A35788  30.004  30.622   8.429
 2572POPC   C3A35789  29.902  30.662   8.010
 2572POPC   C4A35790  29.555  30.540   7.689
 2572POPC   C1B35791  30.128  31.078   8.746
 2572POPC   C2B35792  30.054  31.339   8.389
 2572POPC   C3B35793  30.045  31.199   7.981
 2572POPC   C4B35794  29.810  30.998   7.657
 2573POPC   NC335795   9.624   8.504   9.402
 2573POPC   PO435796   9.279   7.988   9.644
 2573POPC   GL135797   9.561   7.988   9.241
 2573POPC   GL235798   9.973   8.037   9.193
 2573POPC   C1A35799   9.661   8.058   8.803
 2573POPC   D2A35800   9.597   8.280   8.451
 2573POPC   C3A35801   9.679   7.994   8.149
 2573POPC   C4A35802   9.562   8.093   7.741
 2573POPC   C1B35803  10.102   8.315   8.792
 2573POPC   C2B35804  10.123   8.242   8.338
 2573POPC   C3B35805  10.003   8.296   7.899
 2573POPC   C4B35806  10.164   8.278   7.466
 2574POPC   NC335807   5.740  11.451   9.527
 2574POPC   PO435808   6.363  11.260   9.333
 2574POPC   GL135809   5.994  11.242   9.123
 2574POPC   GL235810   5.831  10.973   9.297
 2574POPC   C1A35811   5.864  11.408   8.717
 2574POPC   D2A35812   5.984  11.344   8.284
 2574POPC   C3A35813   6.007  11.668   7.951
 2574POPC   C4A35814   5.994  11.695   7.492
 2574POPC   C1B35815   5.643  10.958   8.880
 2574POPC   C2B35816   5.693  10.772   8.472
 2574POPC   C3B35817   5.796  10.868   8.060
 2574POPC   C4B35818   5.728  11.246   7.855
 2575POPC   NC335819  18.792   2.257   9.302
 2575POPC   PO435820  19.111   2.824   9.648
 2575POPC   GL135821  18.955   2.947   9.199
 2575POPC   GL235822  19.053   2.662   9.144
 2575POPC   C1A35823  18.845   2.904   8.759
 2575POPC   D2A35824  18.797   3.073   8.359
 2575POPC   C3A35825  18.922   2.782   8.066
 2575POPC   C4A35826  18.956   2.753   7.641
 2575POPC   C1B35827  19.335   2.866   8.837
 2575POPC   C2B35828  19.273   2.786   8.419
 2575POPC   C3B35829  19.423   2.833   7.984
 2575POPC   C4B35830  19.437   2.651   7.562
 2576POPC   NC335831  41.846  42.959   9.544
 2576POPC   PO435832  42.364  43.381   9.520
 2576POPC   GL135833  42.118  43.257   9.215
 2576POPC   GL235834  42.411  43.029   9.112
 2576POPC   C1A35835  42.073  43.241   8.801
 2576POPC   D2A35836  42.350  43.091   8.468
 2576POPC   C3A35837  42.191  43.127   8.046
 2576POPC   C4A35838  42.130  42.874   7.681
 2576POPC   C1B35839  42.537  43.424   8.877
 2576POPC   C2B35840  42.577  43.601   8.474
 2576POPC   C3B35841  42.656  43.357   8.121
 2576POPC   C4B35842  42.583  43.233   7.706
 2577POPC   NC335843  43.272   1.392   9.359
 2577POPC   PO435844  42.900   0.866   9.561
 2577POPC   GL135845  42.898   1.027   9.151
 2577POPC   GL235846  43.257   0.989   9.037
 2577POPC   C1A35847  42.875   1.226   8.742
 2577POPC   D2A35848  43.113   1.169   8.359
 2577POPC   C3A35849  42.984   1.305   7.951
 2577POPC   C4A35850  43.115   0.932   7.726
 2577POPC   C1B35851  43.391   1.356   8.751
 2577POPC   C2B35852  43.599   1.365   8.393
 2577POPC   C3B35853  43.464   1.450   8.006
 2577POPC   C4B35854  43.584   1.598   7.612
 2578POPC   NC335855  36.835  15.290   9.465
 2578POPC   PO435856  36.974  15.908   9.532
 2578POPC   GL135857  36.996  15.811   9.119
 2578POPC   GL235858  36.731  15.580   9.053
 2578POPC   C1A35859  36.786  16.041   8.783
 2578POPC   D2A35860  36.795  16.024   8.338
 2578POPC   C3A35861  37.149  15.793   8.191
 2578POPC   C4A35862  37.253  15.937   7.797
 2578POPC   C1B35863  36.734  15.552   8.598
 2578POPC   C2B35864  36.548  15.578   8.188
 2578POPC   C3B35865  36.750  15.734   7.845
 2578POPC   C4B35866  36.760  16.175   7.798
 2579POPC   NC335867  13.729  38.080   9.442
 2579POPC   PO435868  13.602  38.736   9.374
 2579POPC   GL135869  13.774  38.594   9.005
 2579POPC   GL235870  13.719  38.283   8.984
 2579POPC   C1A35871  13.773  38.695   8.586
 2579POPC   D2A35872  13.432  38.593   8.320
 2579POPC   C3A35873  13.490  38.666   7.881
 2579POPC   C4A35874  13.812  38.730   7.578
 2579POPC   C1B35875  13.998  38.244   8.660
 2579POPC   C2B35876  13.817  38.253   8.288
 2579POPC   C3B35877  13.537  38.165   7.978
 2579POPC   C4B35878  13.651  38.249   7.568
 2580POPC   NC335879  16.265  16.980   9.833
 2580POPC   PO435880  16.148  17.680   9.664
 2580POPC   GL135881  16.120  17.615   9.190
 2580POPC   GL235882  16.137  17.276   9.059
 2580POPC   C1A35883  16.023  17.689   8.730
 2580POPC   D2A35884  16.124  17.742   8.300
 2580POPC   C3A35885  15.988  17.492   7.966
 2580POPC   C4A35886  15.876  17.201   7.659
 2580POPC   C1B35887  15.786  17.232   8.775
 2580POPC   C2B35888  15.694  17.380   8.352
 2580POPC   C3B35889  15.484  17.504   7.925
 2580POPC   C4B35890  15.522  17.504   7.454
 2581POPC   NC335891   8.487  37.667   9.665
 2581POPC   PO435892   7.891  37.362   9.389
 2581POPC   GL135893   8.096  37.631   9.085
 2581POPC   GL235894   8.416  37.746   9.174
 2581POPC   C1A35895   8.001  37.724   8.675
 2581POPC   D2A35896   7.963  37.877   8.268
 2581POPC   C3A35897   8.267  37.727   7.934
 2581POPC   C4A35898   8.210  37.469   7.535
 2581POPC   C1B35899   8.529  37.534   8.806
 2581POPC   C2B35900   8.479  37.787   8.440
 2581POPC   C3B35901   8.474  38.154   8.196
 2581POPC   C4B35902   8.691  38.085   7.838
 2582POPC   NC335903  33.288   8.190   9.537
 2582POPC   PO435904  32.807   8.507   9.292
 2582POPC   GL135905  33.047   8.204   9.075
 2582POPC   GL235906  33.447   8.189   9.072
 2582POPC   C1A35907  32.883   8.202   8.679
 2582POPC   D2A35908  32.947   7.972   8.339
 2582POPC   C3A35909  32.897   8.122   7.940
 2582POPC   C4A35910  32.641   8.479   7.858
 2582POPC   C1B35911  33.378   8.032   8.683
 2582POPC   C2B35912  33.445   8.287   8.355
 2582POPC   C3B35913  33.469   8.351   7.940
 2582POPC   C4B35914  33.369   7.968   7.719
 2583POPC   NC335915   5.756  22.719   9.457
 2583POPC   PO435916   5.980  23.304   9.400
 2583POPC   GL135917   5.764  23.053   9.063
 2583POPC   GL235918   5.552  22.745   9.001
 2583POPC   C1A35919   5.915  22.946   8.669
 2583POPC   D2A35920   6.017  23.167   8.320
 2583POPC   C3A35921   6.036  22.899   8.008
 2583POPC   C4A35922   5.940  22.836   7.590
 2583POPC   C1B35923   5.398  22.946   8.666
 2583POPC   C2B35924   5.541  22.920   8.263
 2583POPC   C3B35925   5.502  22.851   7.836
 2583POPC   C4B35926   5.409  23.128   7.479
 2584POPC   NC335927  42.075  36.342   9.617
 2584POPC   PO435928  41.520  36.055   9.758
 2584POPC   GL135929  41.574  36.027   9.293
 2584POPC   GL235930  41.355  36.277   9.146
 2584POPC   C1A35931  41.713  35.980   8.862
 2584POPC   D2A35932  41.569  36.269   8.547
 2584POPC   C3A35933  41.602  36.263   8.091
 2584POPC   C4A35934  41.775  36.080   7.724
 2584POPC   C1B35935  41.216  35.924   8.875
 2584POPC   C2B35936  41.209  35.712   8.486
 2584POPC   C3B35937  41.278  35.851   8.080
 2584POPC   C4B35938  41.199  36.069   7.693
 2585POPC   NC335939  18.990   0.828   9.528
 2585POPC   PO435940  18.616   0.259   9.485
 2585POPC   GL135941  18.896   0.491   9.160
 2585POPC   GL235942  19.252   0.658   9.122
 2585POPC   C1A35943  18.879   0.580   8.733
 2585POPC   D2A35944  18.852   0.321   8.355
 2585POPC   C3A35945  18.949   0.497   7.948
 2585POPC   C4A35946  18.984   0.351   7.507
 2585POPC   C1B35947  19.297   0.867   8.700
 2585POPC   C2B35948  19.124   0.816   8.307
 2585POPC   C3B35949  19.341   0.819   7.917
 2585POPC   C4B35950  19.396   0.597   7.557
 2586POPC   NC335951  18.738   3.181   9.591
 2586POPC   PO435952  18.089   3.309   9.543
 2586POPC   GL135953  18.174   3.386   9.131
 2586POPC   GL235954  18.548   3.293   9.130
 2586POPC   C1A35955  18.241   3.679   8.777
 2586POPC   D2A35956  18.500   3.652   8.420
 2586POPC   C3A35957  18.304   3.710   8.024
 2586POPC   C4A35958  18.525   3.573   7.691
 2586POPC   C1B35959  18.436   3.202   8.716
 2586POPC   C2B35960  18.134   3.267   8.425
 2586POPC   C3B35961  18.100   3.249   8.012
 2586POPC   C4B35962  18.038   3.289   7.595
 2587POPC   NC335963   1.032  42.666   9.260
 2587POPC   PO435964   1.352  42.111   9.421
 2587POPC   GL135965   1.269  42.226   9.034
 2587POPC   GL235966   0.917  42.178   9.050
 2587POPC   C1A35967   1.444  42.267   8.616
 2587POPC   D2A35968   1.313  42.565   8.286
 2587POPC   C3A35969   1.459  42.421   7.901
 2587POPC   C4A35970   1.460  41.990   7.987
 2587POPC   C1B35971   0.947  42.055   8.597
 2587POPC   C2B35972   0.944  42.123   8.155
 2587POPC   C3B35973   0.934  42.526   7.933
 2587POPC   C4B35974   1.080  42.896   7.753
 2588POPC   NC335975   2.307  19.706   9.432
 2588POPC   PO435976   1.758  19.401   9.466
 2588POPC   GL135977   1.907  19.730   9.091
 2588POPC   GL235978   2.209  19.994   9.018
 2588POPC   C1A35979   1.969  19.781   8.646
 2588POPC   D2A35980   2.074  20.026   8.338
 2588POPC   C3A35981   2.029  19.748   7.993
 2588POPC   C4A35982   2.370  19.546   7.765
 2588POPC   C1B35983   1.834  20.225   8.836
 2588POPC   C2B35984   1.575  20.175   8.488
 2588POPC   C3B35985   1.687  20.186   8.057
 2588POPC   C4B35986   1.940  20.131   7.685
 2589POPC   NC335987  29.009  10.828   9.475
 2589POPC   PO435988  29.357  10.324   9.312
 2589POPC   GL135989  28.939  10.300   9.130
 2589POPC   GL235990  28.972  10.603   8.979
 2589POPC   C1A35991  28.724  10.221   8.706
 2589POPC   D2A35992  28.869  10.124   8.260
 2589POPC   C3A35993  28.992  10.483   7.929
 2589POPC   C4A35994  29.000  10.426   7.438
 2589POPC   C1B35995  29.300  10.706   8.676
 2589POPC   C2B35996  29.242  10.892   8.272
 2589POPC   C3B35997  29.356  10.860   7.844
 2589POPC   C4B35998  29.283  10.821   7.385
 2590POPC   NC335999  37.903   7.696   9.601
 2590POPC   PO436000  37.352   7.280   9.540
 2590POPC   GL136001  37.624   7.464   9.258
 2590POPC   GL236002  37.875   7.256   9.303
 2590POPC   C1A36003  37.706   7.676   8.869
 2590POPC   D2A36004  37.581   7.663   8.419
 2590POPC   C3A36005  37.778   7.451   8.081
 2590POPC   C4A36006  37.707   7.551   7.656
 2590POPC   C1B36007  37.807   7.177   8.867
 2590POPC   C2B36008  37.644   7.110   8.456
 2590POPC   C3B36009  37.915   6.952   8.113
 2590POPC   C4B36010  38.138   7.232   7.756
 2591POPC   NC336011   4.556  38.775   9.621
 2591POPC   PO436012   5.092  38.340   9.618
 2591POPC   GL136013   5.150  38.490   9.243
 2591POPC   GL236014   4.948  38.765   9.257
 2591POPC   C1A36015   5.209  38.278   8.872
 2591POPC   D2A36016   5.094  38.448   8.481
 2591POPC   C3A36017   5.226  38.250   8.108
 2591POPC   C4A36018   5.090  38.375   7.713
 2591POPC   C1B36019   4.822  38.755   8.814
 2591POPC   C2B36020   4.726  38.812   8.353
 2591POPC   C3B36021   4.778  38.784   7.872
 2591POPC   C4B36022   4.785  38.923   7.394
 2592POPC   NC336023  37.365  12.964   9.453
 2592POPC   PO436024  37.836  12.573   9.420
 2592POPC   GL136025  37.758  12.829   9.112
 2592POPC   GL236026  37.478  12.657   9.033
 2592POPC   C1A36027  37.595  13.139   8.845
 2592POPC   D2A36028  37.515  13.194   8.412
 2592POPC   C3A36029  37.818  13.056   8.124
 2592POPC   C4A36030  37.733  12.899   7.698
 2592POPC   C1B36031  37.587  12.576   8.603
 2592POPC   C2B36032  37.567  12.619   8.143
 2592POPC   C3B36033  37.767  12.420   7.802
 2592POPC   C4B36034  37.752  12.531   7.321
 2593POPC   NC336035  28.363  25.798   9.596
 2593POPC   PO436036  27.959  26.382   9.539
 2593POPC   GL136037  28.110  26.047   9.213
 2593POPC   GL236038  28.511  26.051   9.177
 2593POPC   C1A36039  28.233  25.920   8.781
 2593POPC   D2A36040  28.415  25.761   8.381
 2593POPC   C3A36041  28.181  25.902   8.009
 2593POPC   C4A36042  28.162  26.289   7.793
 2593POPC   C1B36043  28.566  26.313   8.797
 2593POPC   C2B36044  28.376  26.279   8.378
 2593POPC   C3B36045  28.614  26.222   7.997
 2593POPC   C4B36046  28.556  26.011   7.598
 2594POPC   NC336047  24.989  14.498   9.581
 2594POPC   PO436048  25.463  14.097   9.509
 2594POPC   GL136049  25.295  14.287   9.193
 2594POPC   GL236050  25.059  14.132   9.000
 2594POPC   C1A36051  25.477  14.414   8.804
 2594POPC   D2A36052  25.444  14.284   8.398
 2594POPC   C3A36053  25.326  14.511   8.076
 2594POPC   C4A36054  25.416  14.356   7.720
 2594POPC   C1B36055  25.017  14.595   8.890
 2594POPC   C2B36056  25.140  14.754   8.513
 2594POPC   C3B36057  24.901  14.794   8.148
 2594POPC   C4B36058  24.871  14.478   7.810
 2595POPC   NC336059  19.908   0.129   9.585
 2595POPC   PO436060  20.091   0.687   9.373
 2595POPC   GL136061  19.788   0.642   9.011
 2595POPC   GL236062  19.638   0.312   9.091
 2595POPC   C1A36063  19.891   0.389   8.607
 2595POPC   D2A36064  20.193   0.117   8.314
 2595POPC   C3A36065  20.064   0.195   7.877
 2595POPC   C4A36066  19.735   0.479   7.901
 2595POPC   C1B36067  19.373   0.365   8.698
 2595POPC   C2B36068  19.358   0.359   8.242
 2595POPC   C3B36069  19.331   0.148   7.837
 2595POPC   C4B36070  19.598   0.011   7.469
 2596POPC   NC336071  28.409   3.962   9.559
 2596POPC   PO436072  28.310   3.324   9.545
 2596POPC   GL136073  28.432   3.625   9.175
 2596POPC   GL236074  28.209   3.939   9.101
 2596POPC   C1A36075  28.620   3.535   8.778
 2596POPC   D2A36076  28.731   3.215   8.497
 2596POPC   C3A36077  28.569   3.329   8.133
 2596POPC   C4A36078  28.563   3.622   7.807
 2596POPC   C1B36079  28.160   3.748   8.700
 2596POPC   C2B36080  28.346   3.782   8.289
 2596POPC   C3B36081  28.106   3.867   7.898
 2596POPC   C4B36082  28.040   3.780   7.430
 2597POPC   NC336083  40.198  17.645  10.106
 2597POPC   PO436084  39.991  17.747   9.577
 2597POPC   GL136085  39.927  17.521   9.109
 2597POPC   GL236086  39.606  17.341   9.026
 2597POPC   C1A36087  39.988  17.298   8.659
 2597POPC   D2A36088  39.844  17.225   8.206
 2597POPC   C3A36089  40.001  17.576   7.956
 2597POPC   C4A36090  39.953  17.700   7.511
 2597POPC   C1B36091  39.491  17.360   8.579
 2597POPC   C2B36092  39.604  17.682   8.261
 2597POPC   C3B36093  39.526  17.662   7.816
 2597POPC   C4B36094  39.631  17.238   7.726
 2598POPC   NC336095   9.314  24.756   9.414
 2598POPC   PO436096   9.488  24.114   9.530
 2598POPC   GL136097   9.147  24.209   9.184
 2598POPC   GL236098   8.805  24.356   9.229
 2598POPC   C1A36099   9.034  24.383   8.762
 2598POPC   D2A36100   9.074  24.298   8.317
 2598POPC   C3A36101   8.873  24.535   8.032
 2598POPC   C4A36102   8.993  24.567   7.615
 2598POPC   C1B36103   8.552  24.204   8.863
 2598POPC   C2B36104   8.582  24.293   8.419
 2598POPC   C3B36105   8.454  24.240   7.967
 2598POPC   C4B36106   8.556  24.264   7.518
 2599POPC   NC336107  24.744   4.043   9.362
 2599POPC   PO436108  24.326   4.545   9.481
 2599POPC   GL136109  24.343   4.291   9.118
 2599POPC   GL236110  24.608   4.488   9.031
 2599POPC   C1A36111  24.496   4.080   8.710
 2599POPC   D2A36112  24.330   4.190   8.266
 2599POPC   C3A36113  24.487   3.995   7.903
 2599POPC   C4A36114  24.320   4.064   7.462
 2599POPC   C1B36115  24.253   4.747   8.839
 2599POPC   C2B36116  24.067   4.741   8.410
 2599POPC   C3B36117  24.253   4.649   8.009
 2599POPC   C4B36118  24.533   4.476   7.719
 2600POPC   NC336119  35.255  29.353   9.559
 2600POPC   PO436120  35.321  28.736   9.301
 2600POPC   GL136121  35.482  29.067   9.103
 2600POPC   GL236122  35.157  29.235   9.089
 2600POPC   C1A36123  35.425  29.212   8.676
 2600POPC   D2A36124  35.413  29.080   8.273
 2600POPC   C3A36125  35.419  29.326   7.929
 2600POPC   C4A36126  35.731  29.249   7.626
 2600POPC   C1B36127  34.950  29.418   8.764
 2600POPC   C2B36128  35.078  29.467   8.353
 2600POPC   C3B36129  34.890  29.409   7.994
 2600POPC   C4B36130  35.073  29.418   7.569
 2601POPC   NC336131  36.396  33.654   9.493
 2601POPC   PO436132  35.980  34.132   9.459
 2601POPC   GL136133  36.187  33.879   9.093
 2601POPC   GL236134  36.079  33.539   9.119
 2601POPC   C1A36135  36.020  33.751   8.676
 2601POPC   D2A36136  35.734  33.914   8.421
 2601POPC   C3A36137  35.840  33.697   8.062
 2601POPC   C4A36138  35.823  33.801   7.635
 2601POPC   C1B36139  36.213  33.294   8.739
 2601POPC   C2B36140  36.391  33.274   8.339
 2601POPC   C3B36141  36.284  33.476   7.981
 2601POPC   C4B36142  36.317  33.693   7.555
 2602POPC   NC336143  33.989  13.465   9.466
 2602POPC   PO436144  33.457  13.811   9.408
 2602POPC   GL136145  33.757  13.801   9.101
 2602POPC   GL236146  33.723  13.456   9.034
 2602POPC   C1A36147  33.960  13.910   8.694
 2602POPC   D2A36148  33.963  13.740   8.250
 2602POPC   C3A36149  33.758  13.860   7.889
 2602POPC   C4A36150  33.461  13.559   7.905
 2602POPC   C1B36151  33.749  13.445   8.597
 2602POPC   C2B36152  33.780  13.257   8.184
 2602POPC   C3B36153  33.900  13.190   7.759
 2602POPC   C4B36154  33.920  13.392   7.343
 2603POPC   NC336155  13.624  39.141   9.578
 2603POPC   PO436156  13.891  39.692   9.327
 2603POPC   GL136157  13.603  39.340   9.121
 2603POPC   GL236158  13.856  39.085   9.082
 2603POPC   C1A36159  13.433  39.026   8.775
 2603POPC   D2A36160  13.573  39.069   8.298
 2603POPC   C3A36161  13.325  39.155   7.925
 2603POPC   C4A36162  13.481  39.201   7.489
 2603POPC   C1B36163  13.839  39.311   8.681
 2603POPC   C2B36164  13.841  39.499   8.286
 2603POPC   C3B36165  13.731  39.498   7.871
 2603POPC   C4B36166  13.732  39.676   7.451
 2604POPC   NC336167  41.400   8.651   9.431
 2604POPC   PO436168  41.957   9.021   9.687
 2604POPC   GL136169  41.813   9.002   9.207
 2604POPC   GL236170  41.469   9.017   9.070
 2604POPC   C1A36171  41.861   8.975   8.714
 2604POPC   D2A36172  41.650   8.804   8.316
 2604POPC   C3A36173  41.380   9.066   8.060
 2604POPC   C4A36174  41.511   9.360   7.745
 2604POPC   C1B36175  41.306   8.766   8.716
 2604POPC   C2B36176  41.027   8.753   8.331
 2604POPC   C3B36177  41.085   8.656   7.927
 2604POPC   C4B36178  41.430   8.672   7.655
 2605POPC   NC336179  28.139  34.718   9.762
 2605POPC   PO436180  28.788  34.775   9.598
 2605POPC   GL136181  28.449  34.591   9.260
 2605POPC   GL236182  28.058  34.663   9.246
 2605POPC   C1A36183  28.270  34.457   8.825
 2605POPC   D2A36184  28.259  34.364   8.388
 2605POPC   C3A36185  28.420  34.662   8.090
 2605POPC   C4A36186  28.396  34.504   7.729
 2605POPC   C1B36187  28.014  34.901   8.836
 2605POPC   C2B36188  28.052  34.862   8.402
 2605POPC   C3B36189  27.934  34.577   8.049
 2605POPC   C4B36190  27.897  34.484   7.632
 2606POPC   NC336191  22.626   9.916   9.956
 2606POPC   PO436192  22.673   9.702   9.503
 2606POPC   GL136193  22.787   9.588   9.024
 2606POPC   GL236194  23.045   9.849   8.912
 2606POPC   C1A36195  22.842   9.582   8.537
 2606POPC   D2A36196  23.142   9.828   8.352
 2606POPC   C3A36197  23.308   9.736   7.955
 2606POPC   C4A36198  23.381   9.545   7.522
 2606POPC   C1B36199  22.793  10.106   8.594
 2606POPC   C2B36200  22.467  10.047   8.256
 2606POPC   C3B36201  22.495  10.133   7.800
 2606POPC   C4B36202  22.627  10.020   7.373
 2607POPC   NC336203  32.993  16.577   9.578
 2607POPC   PO436204  33.482  16.915   9.411
 2607POPC   GL136205  33.123  16.816   9.128
 2607POPC   GL236206  33.132  16.459   9.078
 2607POPC   C1A36207  32.930  16.884   8.706
 2607POPC   D2A36208  32.830  16.797   8.274
 2607POPC   C3A36209  33.141  16.582   8.016
 2607POPC   C4A36210  33.272  16.736   7.556
 2607POPC   C1B36211  32.747  16.443   8.862
 2607POPC   C2B36212  32.592  16.335   8.428
 2607POPC   C3B36213  32.637  16.407   7.992
 2607POPC   C4B36214  32.811  16.595   7.647
 2608POPC   NC336215  10.678  28.184   9.549
 2608POPC   PO436216  10.290  28.705   9.564
 2608POPC   GL136217  10.448  28.490   9.157
 2608POPC   GL236218  10.132  28.391   8.918
 2608POPC   C1A36219  10.600  28.419   8.750
 2608POPC   D2A36220  10.428  28.333   8.378
 2608POPC   C3A36221  10.456  28.599   8.044
 2608POPC   C4A36222  10.640  28.369   7.714
 2608POPC   C1B36223  10.306  27.996   8.750
 2608POPC   C2B36224  10.301  27.828   8.332
 2608POPC   C3B36225  10.240  28.108   7.951
 2608POPC   C4B36226  10.315  28.006   7.537
 2609POPC   NC336227  19.331  21.924   9.551
 2609POPC   PO436228  19.721  22.532   9.449
 2609POPC   GL136229  19.348  22.442   9.191
 2609POPC   GL236230  19.215  22.086   9.094
 2609POPC   C1A36231  19.112  22.492   8.818
 2609POPC   D2A36232  19.149  22.296   8.474
 2609POPC   C3A36233  19.181  22.436   8.077
 2609POPC   C4A36234  19.138  22.342   7.660
 2609POPC   C1B36235  18.858  21.989   8.811
 2609POPC   C2B36236  18.893  21.867   8.357
 2609POPC   C3B36237  19.045  21.907   7.911
 2609POPC   C4B36238  19.052  21.915   7.403
 2610POPC   NC336239  30.995  18.991   9.336
 2610POPC   PO436240  31.540  18.695   9.566
 2610POPC   GL136241  31.409  19.115   9.137
 2610POPC   GL236242  31.631  19.396   9.129
 2610POPC   C1A36243  31.228  19.019   8.705
 2610POPC   D2A36244  31.105  18.925   8.295
 2610POPC   C3A36245  31.365  18.796   7.966
 2610POPC   C4A36246  31.058  18.676   7.650
 2610POPC   C1B36247  31.450  19.465   8.726
 2610POPC   C2B36248  31.504  19.263   8.313
 2610POPC   C3B36249  31.328  19.330   7.906
 2610POPC   C4B36250  31.543  19.512   7.530
 2611POPC   NC336251   6.727  22.511   9.338
 2611POPC   PO436252   6.765  23.135   9.436
 2611POPC   GL136253   6.631  22.955   9.093
 2611POPC   GL236254   6.293  23.088   9.028
 2611POPC   C1A36255   6.669  23.060   8.672
 2611POPC   D2A36256   6.496  23.004   8.295
 2611POPC   C3A36257   6.832  23.066   8.011
 2611POPC   C4A36258   7.160  23.343   7.877
 2611POPC   C1B36259   6.337  22.674   8.791
 2611POPC   C2B36260   6.316  22.500   8.375
 2611POPC   C3B36261   6.487  22.626   7.977
 2611POPC   C4B36262   6.444  22.973   7.696
 2612POPC   NC336263  11.618  31.870   9.301
 2612POPC   PO436264  10.981  31.771   9.463
 2612POPC   GL136265  11.160  32.075   9.127
 2612POPC   GL236266  11.402  32.366   9.218
 2612POPC   C1A36267  11.281  32.213   8.693
 2612POPC   D2A36268  11.573  32.164   8.354
 2612POPC   C3A36269  11.432  32.199   7.924
 2612POPC   C4A36270  11.400  31.910   7.549
 2612POPC   C1B36271  11.576  32.610   8.867
 2612POPC   C2B36272  11.418  32.671   8.451
 2612POPC   C3B36273  11.601  32.670   8.064
 2612POPC   C4B36274  11.681  32.537   7.650
 2613POPC   NC336275   6.440   2.763   9.369
 2613POPC   PO436276   7.113   2.590   9.517
 2613POPC   GL136277   6.879   2.737   9.132
 2613POPC   GL236278   6.726   2.472   8.916
 2613POPC   C1A36279   6.611   2.939   8.782
 2613POPC   D2A36280   6.342   2.927   8.423
 2613POPC   C3A36281   6.474   3.017   8.003
 2613POPC   C4A36282   6.879   2.941   7.798
 2613POPC   C1B36283   6.376   2.396   8.570
 2613POPC   C2B36284   6.234   2.534   8.123
 2613POPC   C3B36285   6.519   2.577   7.735
 2613POPC   C4B36286   6.479   2.386   7.308
 2614POPC   NC336287  23.238  39.065   9.475
 2614POPC   PO436288  23.838  39.457   9.542
 2614POPC   GL136289  23.596  39.362   9.200
 2614POPC   GL236290  23.631  39.020   9.086
 2614POPC   C1A36291  23.699  39.393   8.769
 2614POPC   D2A36292  23.838  39.275   8.395
 2614POPC   C3A36293  23.731  39.547   8.116
 2614POPC   C4A36294  23.653  39.375   7.779
 2614POPC   C1B36295  23.964  38.907   8.726
 2614POPC   C2B36296  23.968  38.800   8.257
 2614POPC   C3B36297  23.704  38.856   7.826
 2614POPC   C4B36298  23.595  38.685   7.370
 2615POPC   NC336299  39.192   1.586   9.557
 2615POPC   PO436300  39.033   2.290   9.525
 2615POPC   GL136301  39.027   1.969   9.173
 2615POPC   GL236302  39.344   1.812   9.124
 2615POPC   C1A36303  39.089   2.032   8.712
 2615POPC   D2A36304  39.292   2.158   8.295
 2615POPC   C3A36305  39.075   2.145   7.924
 2615POPC   C4A36306  39.134   2.305   7.537
 2615POPC   C1B36307  39.361   1.580   8.754
 2615POPC   C2B36308  39.156   1.489   8.383
 2615POPC   C3B36309  39.172   1.616   7.963
 2615POPC   C4B36310  39.493   1.853   7.793
 2616POPC   NC336311   1.785  10.163   9.507
 2616POPC   PO436312   2.137  10.673   9.704
 2616POPC   GL136313   1.751  10.564   9.232
 2616POPC   GL236314   1.774  10.251   9.004
 2616POPC   C1A36315   1.720  10.751   8.793
 2616POPC   D2A36316   1.942  10.814   8.393
 2616POPC   C3A36317   1.744  10.716   8.002
 2616POPC   C4A36318   1.561  10.391   7.755
 2616POPC   C1B36319   1.991  10.337   8.602
 2616POPC   C2B36320   2.336  10.501   8.353
 2616POPC   C3B36321   2.253  10.560   7.933
 2616POPC   C4B36322   2.345  10.194   7.725
 2617POPC   NC336323   5.086   1.985   9.522
 2617POPC   PO436324   5.602   2.458   9.374
 2617POPC   GL136325   5.513   2.172   9.017
 2617POPC   GL236326   5.212   1.958   9.037
 2617POPC   C1A36327   5.517   1.910   8.647
 2617POPC   D2A36328   5.273   1.722   8.281
 2617POPC   C3A36329   5.491   1.782   7.870
 2617POPC   C4A36330   5.774   1.898   7.538
 2617POPC   C1B36331   5.011   1.918   8.672
 2617POPC   C2B36332   5.033   2.220   8.341
 2617POPC   C3B36333   4.766   2.245   8.025
 2617POPC   C4B36334   4.990   1.897   7.848
 2618POPC   NC336335  25.837  28.134   9.554
 2618POPC   PO436336  26.092  28.771   9.355
 2618POPC   GL136337  25.740  28.549   9.214
 2618POPC   GL236338  25.894  28.255   9.064
 2618POPC   C1A36339  25.678  28.623   8.784
 2618POPC   D2A36340  25.977  28.820   8.505
 2618POPC   C3A36341  26.137  28.475   8.250
 2618POPC   C4A36342  26.045  28.476   7.819
 2618POPC   C1B36343  26.123  28.123   8.690
 2618POPC   C2B36344  26.047  27.935   8.296
 2618POPC   C3B36345  25.974  27.965   7.862
 2618POPC   C4B36346  26.251  27.994   7.485
 2619POPC   NC336347  34.824  43.264   9.607
 2619POPC   PO436348  34.334  42.848   9.398
 2619POPC   GL136349  34.644  43.027   9.149
 2619POPC   GL236350  34.869  42.773   9.057
 2619POPC   C1A36351  34.692  43.254   8.734
 2619POPC   D2A36352  34.365  43.387   8.400
 2619POPC   C3A36353  34.334  43.227   7.959
 2619POPC   C4A36354  34.468  43.215   7.497
 2619POPC   C1B36355  34.555  42.649   8.787
 2619POPC   C2B36356  34.408  42.885   8.483
 2619POPC   C3B36357  34.734  43.039   8.212
 2619POPC   C4B36358  34.741  42.916   7.783
 2620POPC   NC336359  39.786  24.007   9.541
 2620POPC   PO436360  40.376  23.682   9.547
 2620POPC   GL136361  40.050  23.692   9.202
 2620POPC   GL236362  39.767  23.471   9.174
 2620POPC   C1A36363  40.072  23.814   8.742
 2620POPC   D2A36364  40.015  23.498   8.378
 2620POPC   C3A36365  40.037  23.651   7.925
 2620POPC   C4A36366  40.002  23.558   7.450
 2620POPC   C1B36367  39.616  23.628   8.787
 2620POPC   C2B36368  39.656  23.870   8.406
 2620POPC   C3B36369  39.573  23.588   8.111
 2620POPC   C4B36370  39.565  23.503   7.712
 2621POPC   NC336371  14.176  27.015   9.306
 2621POPC   PO436372  14.561  26.444   9.443
 2621POPC   GL136373  14.514  26.689   9.072
 2621POPC   GL236374  14.636  26.966   9.085
 2621POPC   C1A36375  14.265  26.748   8.679
 2621POPC   D2A36376  13.980  26.737   8.306
 2621POPC   C3A36377  14.259  26.785   7.951
 2621POPC   C4A36378  14.578  26.573   7.789
 2621POPC   C1B36379  14.656  27.084   8.707
 2621POPC   C2B36380  14.685  26.807   8.381
 2621POPC   C3B36381  14.745  26.982   8.004
 2621POPC   C4B36382  14.801  27.081   7.586
 2622POPC   NC336383  21.942  12.437   9.499
 2622POPC   PO436384  22.442  11.868   9.516
 2622POPC   GL136385  22.136  12.024   9.201
 2622POPC   GL236386  21.909  11.782   9.074
 2622POPC   C1A36387  22.177  12.091   8.743
 2622POPC   D2A36388  22.052  12.099   8.315
 2622POPC   C3A36389  22.309  11.939   7.981
 2622POPC   C4A36390  22.065  12.043   7.653
 2622POPC   C1B36391  22.293  11.609   8.845
 2622POPC   C2B36392  22.341  11.643   8.386
 2622POPC   C3B36393  21.974  11.579   8.029
 2622POPC   C4B36394  22.096  11.550   7.541
 2623POPC   NC336395  40.926  25.590   9.617
 2623POPC   PO436396  40.661  26.172   9.499
 2623POPC   GL136397  40.698  25.812   9.208
 2623POPC   GL236398  41.092  25.853   9.203
 2623POPC   C1A36399  40.819  25.791   8.762
 2623POPC   D2A36400  41.009  26.167   8.548
 2623POPC   C3A36401  40.766  26.346   8.229
 2623POPC   C4A36402  40.809  26.310   7.792
 2623POPC   C1B36403  41.343  25.816   8.828
 2623POPC   C2B36404  41.296  25.778   8.399
 2623POPC   C3B36405  41.004  25.897   8.089
 2623POPC   C4B36406  41.218  25.994   7.723
 2624POPC   NC336407  12.513  28.146   9.193
 2624POPC   PO436408  12.030  28.543   9.496
 2624POPC   GL136409  12.147  28.480   9.075
 2624POPC   GL236410  12.032  28.141   9.000
 2624POPC   C1A36411  12.235  28.639   8.666
 2624POPC   D2A36412  11.922  28.563   8.374
 2624POPC   C3A36413  12.001  28.545   7.942
 2624POPC   C4A36414  12.215  28.462   7.537
 2624POPC   C1B36415  11.743  28.144   8.642
 2624POPC   C2B36416  11.822  28.076   8.196
 2624POPC   C3B36417  12.203  28.086   7.921
 2624POPC   C4B36418  12.347  27.952   7.526
 2625POPC   NC336419  41.350  32.571   9.446
 2625POPC   PO436420  41.895  32.219   9.472
 2625POPC   GL136421  41.576  32.195   9.140
 2625POPC   GL236422  41.370  32.444   8.960
 2625POPC   C1A36423  41.576  32.016   8.744
 2625POPC   D2A36424  41.789  32.051   8.401
 2625POPC   C3A36425  41.565  32.046   8.047
 2625POPC   C4A36426  41.701  32.303   7.727
 2625POPC   C1B36427  41.738  32.501   8.694
 2625POPC   C2B36428  41.618  32.532   8.265
 2625POPC   C3B36429  41.302  32.529   7.944
 2625POPC   C4B36430  41.342  32.634   7.487
 2626POPC   NC336431  30.648  30.228   9.859
 2626POPC   PO436432  30.482  30.739   9.528
 2626POPC   GL136433  30.717  30.648   9.175
 2626POPC   GL236434  30.854  30.937   9.133
 2626POPC   C1A36435  30.655  30.492   8.756
 2626POPC   D2A36436  30.508  30.631   8.327
 2626POPC   C3A36437  30.765  30.532   7.954
 2626POPC   C4A36438  30.760  30.427   7.513
 2626POPC   C1B36439  30.679  31.008   8.753
 2626POPC   C2B36440  30.639  31.147   8.361
 2626POPC   C3B36441  30.535  31.024   7.961
 2626POPC   C4B36442  30.722  30.960   7.559
 2627POPC   NC336443  24.320  21.038   9.946
 2627POPC   PO436444  24.716  21.368   9.484
 2627POPC   GL136445  24.678  21.301   9.076
 2627POPC   GL236446  24.780  20.946   9.090
 2627POPC   C1A36447  24.455  21.442   8.726
 2627POPC   D2A36448  24.508  21.347   8.289
 2627POPC   C3A36449  24.249  21.355   7.914
 2627POPC   C4A36450  24.466  21.531   7.590
 2627POPC   C1B36451  24.489  20.952   8.741
 2627POPC   C2B36452  24.240  20.941   8.410
 2627POPC   C3B36453  24.372  20.868   7.993
 2627POPC   C4B36454  24.484  20.995   7.575
 2628POPC   NC336455  44.520  17.679   9.392
 2628POPC   PO436456   0.098  17.443   9.604
 2628POPC   GL136457  44.849  17.391   9.143
 2628POPC   GL236458  44.619  17.698   8.904
 2628POPC   C1A36459  44.950  17.400   8.705
 2628POPC   D2A36460  44.691  17.558   8.365
 2628POPC   C3A36461  44.843  17.359   8.001
 2628POPC   C4A36462  44.978  17.425   7.560
 2628POPC   C1B36463  44.410  17.357   8.774
 2628POPC   C2B36464  44.171  17.271   8.462
 2628POPC   C3B36465  44.306  17.227   8.061
 2628POPC   C4B36466  44.480  17.307   7.660
 2629POPC   NC336467  10.549   8.015   9.567
 2629POPC   PO436468  10.102   8.494   9.427
 2629POPC   GL136469  10.471   8.296   9.146
 2629POPC   GL236470  10.483   7.923   9.079
 2629POPC   C1A36471  10.709   8.225   8.738
 2629POPC   D2A36472  10.614   8.430   8.344
 2629POPC   C3A36473  10.499   8.285   7.939
 2629POPC   C4A36474  10.645   8.376   7.526
 2629POPC   C1B36475  10.318   7.865   8.677
 2629POPC   C2B36476  10.569   7.904   8.315
 2629POPC   C3B36477  10.934   8.073   8.109
 2629POPC   C4B36478  10.787   7.929   7.722
 2630POPC   NC336479  25.562  26.351   9.273
 2630POPC   PO436480  26.056  25.970   9.588
 2630POPC   GL136481  26.108  25.810   9.182
 2630POPC   GL236482  26.096  26.169   9.076
 2630POPC   C1A36483  26.283  25.813   8.764
 2630POPC   D2A36484  26.204  25.898   8.389
 2630POPC   C3A36485  26.118  26.151   8.068
 2630POPC   C4A36486  26.038  25.898   7.709
 2630POPC   C1B36487  25.817  26.010   8.764
 2630POPC   C2B36488  25.576  26.185   8.457
 2630POPC   C3B36489  25.667  26.452   8.129
 2630POPC   C4B36490  25.658  26.278   7.737
 2631POPC   NC336491  26.512  20.910   9.481
 2631POPC   PO436492  26.106  20.491   9.893
 2631POPC   GL136493  26.171  20.495   9.361
 2631POPC   GL236494  25.880  20.633   9.172
 2631POPC   C1A36495  26.282  20.593   8.860
 2631POPC   D2A36496  26.264  20.884   8.461
 2631POPC   C3A36497  26.096  20.763   8.050
 2631POPC   C4A36498  26.127  20.446   7.727
 2631POPC   C1B36499  25.638  20.567   8.792
 2631POPC   C2B36500  25.543  20.383   8.376
 2631POPC   C3B36501  25.642  20.544   7.959
 2631POPC   C4B36502  25.734  20.700   7.569
 2632POPC   NC336503   7.292  28.854   9.435
 2632POPC   PO436504   7.389  29.490   9.591
 2632POPC   GL136505   7.549  29.256   9.216
 2632POPC   GL236506   7.202  29.275   9.142
 2632POPC   C1A36507   7.499  28.994   8.798
 2632POPC   D2A36508   7.396  28.773   8.386
 2632POPC   C3A36509   7.315  28.988   7.971
 2632POPC   C4A36510   7.239  29.226   7.568
 2632POPC   C1B36511   7.352  29.484   8.786
 2632POPC   C2B36512   7.432  29.312   8.382
 2632POPC   C3B36513   7.458  29.475   7.970
 2632POPC   C4B36514   7.584  29.613   7.568
 2633POPC   NC336515  33.546  34.659   9.393
 2633POPC   PO436516  34.153  34.242   9.558
 2633POPC   GL136517  33.977  34.539   9.161
 2633POPC   GL236518  33.701  34.756   8.928
 2633POPC   C1A36519  34.146  34.651   8.741
 2633POPC   D2A36520  33.818  34.727   8.421
 2633POPC   C3A36521  33.944  34.581   8.039
 2633POPC   C4A36522  33.874  34.793   7.596
 2633POPC   C1B36523  33.692  34.342   8.753
 2633POPC   C2B36524  33.608  34.087   8.390
 2633POPC   C3B36525  33.425  34.149   7.991
 2633POPC   C4B36526  33.686  34.328   7.694
 2634POPC   NC336527  38.706  29.074   9.476
 2634POPC   PO436528  38.169  29.349   9.821
 2634POPC   GL136529  38.217  29.285   9.340
 2634POPC   GL236530  38.042  29.049   9.142
 2634POPC   C1A36531  38.383  29.349   8.892
 2634POPC   D2A36532  38.203  29.472   8.505
 2634POPC   C3A36533  38.411  29.340   8.106
 2634POPC   C4A36534  38.514  29.173   7.693
 2634POPC   C1B36535  38.220  28.865   8.777
 2634POPC   C2B36536  38.145  28.967   8.357
 2634POPC   C3B36537  38.204  28.843   7.964
 2634POPC   C4B36538  38.068  28.909   7.568
 2635POPC   NC336539   3.041  44.860   9.415
 2635POPC   PO436540   3.710  44.770   9.510
 2635POPC   GL136541   3.458  44.619   9.143
 2635POPC   GL236542   3.689  44.304   9.062
 2635POPC   C1A36543   3.199  44.715   8.755
 2635POPC   D2A36544   3.231  44.936   8.341
 2635POPC   C3A36545   3.399  44.739   7.949
 2635POPC   C4A36546   3.241  44.658   7.545
 2635POPC   C1B36547   3.440  44.254   8.735
 2635POPC   C2B36548   3.450  44.403   8.314
 2635POPC   C3B36549   3.458  44.231   7.858
 2635POPC   C4B36550   3.564  44.293   7.408
 2636POPC   NC336551   9.307  33.657   9.463
 2636POPC   PO436552   8.831  34.066   9.688
 2636POPC   GL136553   9.087  34.017   9.215
 2636POPC   GL236554   9.301  34.233   9.082
 2636POPC   C1A36555   8.982  33.920   8.742
 2636POPC   D2A36556   8.785  34.002   8.317
 2636POPC   C3A36557   8.885  33.731   7.951
 2636POPC   C4A36558   9.041  33.710   7.533
 2636POPC   C1B36559   9.438  34.139   8.666
 2636POPC   C2B36560   9.242  34.225   8.254
 2636POPC   C3B36561   9.239  34.096   7.800
 2636POPC   C4B36562   9.446  34.154   7.341
 2637POPC   NC336563   8.478  25.195   9.471
 2637POPC   PO436564   7.843  25.458   9.343
 2637POPC   GL136565   8.062  25.170   9.133
 2637POPC   GL236566   7.931  25.346   8.855
 2637POPC   C1A36567   8.408  25.179   8.822
 2637POPC   D2A36568   8.299  25.310   8.399
 2637POPC   C3A36569   8.506  25.229   8.027
 2637POPC   C4A36570   8.469  25.339   7.619
 2637POPC   C1B36571   7.977  24.977   8.624
 2637POPC   C2B36572   7.962  24.975   8.188
 2637POPC   C3B36573   8.098  25.014   7.744
 2637POPC   C4B36574   7.854  24.973   7.357
 2638POPC   NC336575  22.299  26.354   9.401
 2638POPC   PO436576  22.056  25.771   9.586
 2638POPC   GL136577  22.047  25.684   9.160
 2638POPC   GL236578  22.274  25.949   9.061
 2638POPC   C1A36579  22.024  25.654   8.708
 2638POPC   D2A36580  22.337  25.777   8.418
 2638POPC   C3A36581  22.263  26.022   8.052
 2638POPC   C4A36582  22.309  25.795   7.665
 2638POPC   C1B36583  22.278  26.245   8.692
 2638POPC   C2B36584  22.286  26.483   8.313
 2638POPC   C3B36585  22.396  26.517   7.911
 2638POPC   C4B36586  22.233  26.285   7.589
 2639POPC   NC336587   6.083  43.716   9.400
 2639POPC   PO436588   5.827  44.256   9.532
 2639POPC   GL136589   5.869  44.085   9.091
 2639POPC   GL236590   5.707  43.756   9.012
 2639POPC   C1A36591   5.852  44.037   8.629
 2639POPC   D2A36592   5.667  43.683   8.393
 2639POPC   C3A36593   5.586  43.802   7.956
 2639POPC   C4A36594   5.731  44.221   7.761
 2639POPC   C1B36595   6.083  43.572   8.764
 2639POPC   C2B36596   6.306  43.690   8.406
 2639POPC   C3B36597   6.082  43.967   8.153
 2639POPC   C4B36598   6.051  43.820   7.768
 2640POPC   NC336599  41.935  41.991   9.311
 2640POPC   PO436600  41.502  41.489   9.545
 2640POPC   GL136601  41.605  41.610   9.178
 2640POPC   GL236602  41.417  41.912   9.226
 2640POPC   C1A36603  41.563  41.375   8.796
 2640POPC   D2A36604  41.380  41.349   8.380
 2640POPC   C3A36605  41.598  41.550   8.034
 2640POPC   C4A36606  41.549  41.481   7.595
 2640POPC   C1B36607  41.571  41.995   8.798
 2640POPC   C2B36608  41.428  42.097   8.420
 2640POPC   C3B36609  41.343  41.982   8.034
 2640POPC   C4B36610  41.504  41.975   7.630
 2641POPC   NC336611  28.696  16.075   9.484
 2641POPC   PO436612  28.078  15.739   9.621
 2641POPC   GL136613  28.256  15.892   9.266
 2641POPC   GL236614  28.325  15.599   9.081
 2641POPC   C1A36615  28.400  16.088   8.879
 2641POPC   D2A36616  28.293  16.110   8.433
 2641POPC   C3A36617  28.572  16.267   8.153
 2641POPC   C4A36618  28.546  16.234   7.725
 2641POPC   C1B36619  28.200  15.667   8.668
 2641POPC   C2B36620  28.368  15.464   8.319
 2641POPC   C3B36621  28.421  15.758   8.014
 2641POPC   C4B36622  28.074  15.859   7.789
 2642POPC   NC336623  11.506  34.373   9.694
 2642POPC   PO436624  11.012  34.803   9.536
 2642POPC   GL136625  11.181  34.500   9.203
 2642POPC   GL236626  11.541  34.394   9.195
 2642POPC   C1A36627  11.297  34.578   8.749
 2642POPC   D2A36628  11.285  34.788   8.334
 2642POPC   C3A36629  11.338  34.555   7.961
 2642POPC   C4A36630  11.502  34.765   7.594
 2642POPC   C1B36631  11.593  34.161   8.810
 2642POPC   C2B36632  11.459  34.248   8.375
 2642POPC   C3B36633  11.623  34.139   7.961
 2642POPC   C4B36634  11.408  34.160   7.580
 2643POPC   NC336635   5.495   7.270   9.326
 2643POPC   PO436636   4.878   7.629   9.520
 2643POPC   GL136637   5.045   7.496   9.128
 2643POPC   GL236638   5.245   7.762   8.987
 2643POPC   C1A36639   4.835   7.314   8.758
 2643POPC   D2A36640   4.649   7.487   8.388
 2643POPC   C3A36641   4.952   7.487   8.047
 2643POPC   C4A36642   4.888   7.568   7.589
 2643POPC   C1B36643   5.286   7.542   8.602
 2643POPC   C2B36644   5.363   7.187   8.331
 2643POPC   C3B36645   5.495   7.280   7.931
 2643POPC   C4B36646   5.356   7.653   7.752
 2644POPC   NC336647   5.845  13.275   9.520
 2644POPC   PO436648   5.448  12.733   9.556
 2644POPC   GL136649   5.586  12.950   9.220
 2644POPC   GL236650   5.919  12.873   9.174
 2644POPC   C1A36651   5.576  12.851   8.790
 2644POPC   D2A36652   5.716  12.511   8.522
 2644POPC   C3A36653   5.515  12.627   8.156
 2644POPC   C4A36654   5.428  12.934   7.815
 2644POPC   C1B36655   5.959  13.236   8.875
 2644POPC   C2B36656   5.899  13.336   8.433
 2644POPC   C3B36657   5.871  13.043   8.069
 2644POPC   C4B36658   6.009  12.606   8.021
 2645POPC   NC336659   1.107   8.827   9.629
 2645POPC   PO436660   1.525   8.892   9.134
 2645POPC   GL136661   1.100   8.905   9.076
 2645POPC   GL236662   1.048   9.190   9.232
 2645POPC   C1A36663   0.987   8.920   8.649
 2645POPC   D2A36664   1.288   8.995   8.317
 2645POPC   C3A36665   1.223   8.851   7.884
 2645POPC   C4A36666   1.378   8.591   7.539
 2645POPC   C1B36667   1.254   9.359   8.816
 2645POPC   C2B36668   1.283   9.513   8.417
 2645POPC   C3B36669   1.282   9.404   7.984
 2645POPC   C4B36670   1.130   9.274   7.588
 2646POPC   NC336671   1.703  42.952   9.530
 2646POPC   PO436672   1.044  43.107   9.440
 2646POPC   GL136673   1.031  43.352   9.072
 2646POPC   GL236674   0.694  43.290   9.102
 2646POPC   C1A36675   1.190  43.363   8.642
 2646POPC   D2A36676   1.183  43.093   8.243
 2646POPC   C3A36677   1.548  42.927   8.005
 2646POPC   C4A36678   1.549  42.948   7.560
 2646POPC   C1B36679   0.722  43.125   8.693
 2646POPC   C2B36680   0.757  43.366   8.302
 2646POPC   C3B36681   0.887  43.370   7.872
 2646POPC   C4B36682   0.744  43.167   7.457
 2647POPC   NC336683  39.606  25.355   9.548
 2647POPC   PO436684  38.984  25.178   9.455
 2647POPC   GL136685  39.284  25.088   9.110
 2647POPC   GL236686  39.456  25.404   9.072
 2647POPC   C1A36687  39.220  25.031   8.644
 2647POPC   D2A36688  39.515  24.934   8.274
 2647POPC   C3A36689  39.325  25.090   7.915
 2647POPC   C4A36690  38.895  25.279   7.857
 2647POPC   C1B36691  39.358  25.599   8.697
 2647POPC   C2B36692  39.197  25.498   8.285
 2647POPC   C3B36693  39.422  25.603   7.899
 2647POPC   C4B36694  39.456  25.611   7.452
 2648POPC   NC336695   1.167  30.441   9.453
 2648POPC   PO436696   1.597  30.926   9.270
 2648POPC   GL136697   1.374  30.627   8.967
 2648POPC   GL236698   1.069  30.392   8.963
 2648POPC   C1A36699   1.292  30.579   8.518
 2648POPC   D2A36700   0.990  30.780   8.236
 2648POPC   C3A36701   1.135  31.033   7.860
 2648POPC   C4A36702   1.304  30.833   7.477
 2648POPC   C1B36703   1.176  30.083   8.623
 2648POPC   C2B36704   1.324  30.139   8.212
 2648POPC   C3B36705   1.307  30.486   7.920
 2648POPC   C4B36706   0.921  30.564   7.735
 2649POPC   NC336707  26.395  43.222   9.547
 2649POPC   PO436708  25.849  43.565   9.418
 2649POPC   GL136709  26.122  43.302   9.106
 2649POPC   GL236710  26.049  42.955   8.984
 2649POPC   C1A36711  26.029  43.340   8.686
 2649POPC   D2A36712  25.789  43.207   8.385
 2649POPC   C3A36713  25.964  43.230   8.001
 2649POPC   C4A36714  26.246  43.243   7.680
 2649POPC   C1B36715  25.821  42.771   8.664
 2649POPC   C2B36716  25.847  42.749   8.232
 2649POPC   C3B36717  25.639  42.842   7.883
 2649POPC   C4B36718  26.003  42.789   7.665
 2650POPC   NC336719  26.999  26.976   9.592
 2650POPC   PO436720  26.392  26.875   9.760
 2650POPC   GL136721  26.541  26.846   9.278
 2650POPC   GL236722  26.508  26.483   9.145
 2650POPC   C1A36723  26.862  26.945   8.910
 2650POPC   D2A36724  26.935  27.177   8.494
 2650POPC   C3A36725  27.096  27.012   8.107
 2650POPC   C4A36726  26.966  27.002   7.677
 2650POPC   C1B36727  26.472  26.658   8.713
 2650POPC   C2B36728  26.712  26.744   8.329
 2650POPC   C3B36729  26.648  26.644   7.883
 2650POPC   C4B36730  26.911  26.520   7.522
 2651POPC   NC336731  41.960  43.739   9.401
 2651POPC   PO436732  41.202  43.879   9.516
 2651POPC   GL136733  41.320  44.047   9.077
 2651POPC   GL236734  41.694  43.996   9.027
 2651POPC   C1A36735  41.405  43.964   8.613
 2651POPC   D2A36736  41.802  43.961   8.347
 2651POPC   C3A36737  41.646  43.953   7.912
 2651POPC   C4A36738  41.195  44.110   7.842
 2651POPC   C1B36739  41.673  43.579   8.799
 2651POPC   C2B36740  41.528  43.495   8.361
 2651POPC   C3B36741  41.729  43.408   7.984
 2651POPC   C4B36742  41.689  43.585   7.540
 2652POPC   NC336743  35.632  40.288   9.390
 2652POPC   PO436744  34.943  40.373   9.410
 2652POPC   GL136745  35.184  40.202   9.109
 2652POPC   GL236746  35.323  39.863   9.220
 2652POPC   C1A36747  35.447  40.192   8.774
 2652POPC   D2A36748  35.487  39.972   8.369
 2652POPC   C3A36749  35.532  40.181   7.991
 2652POPC   C4A36750  35.384  39.982   7.638
 2652POPC   C1B36751  35.190  39.755   8.800
 2652POPC   C2B36752  34.996  39.877   8.423
 2652POPC   C3B36753  35.138  39.736   8.020
 2652POPC   C4B36754  34.954  39.598   7.669
 2653POPC   NC336755  27.943  25.215   9.516
 2653POPC   PO436756  28.508  25.351   9.624
 2653POPC   GL136757  28.318  25.409   9.212
 2653POPC   GL236758  28.212  25.062   9.114
 2653POPC   C1A36759  28.236  25.410   8.750
 2653POPC   D2A36760  28.032  25.425   8.353
 2653POPC   C3A36761  28.283  25.397   7.969
 2653POPC   C4A36762  28.528  25.136   7.696
 2653POPC   C1B36763  28.308  24.887   8.666
 2653POPC   C2B36764  28.352  24.908   8.165
 2653POPC   C3B36765  28.169  24.708   7.785
 2653POPC   C4B36766  27.979  24.687   7.380
 2654POPC   NC336767   9.956  41.027   9.932
 2654POPC   PO436768   9.394  40.782   9.583
 2654POPC   GL136769   9.583  40.875   9.191
 2654POPC   GL236770   9.905  40.938   9.050
 2654POPC   C1A36771   9.483  40.832   8.766
 2654POPC   D2A36772   9.290  40.670   8.409
 2654POPC   C3A36773   9.571  40.699   8.076
 2654POPC   C4A36774   9.549  40.680   7.663
 2654POPC   C1B36775   9.910  40.543   8.860
 2654POPC   C2B36776   9.866  40.527   8.440
 2654POPC   C3B36777  10.045  40.494   8.017
 2654POPC   C4B36778  10.030  40.811   7.710
 2655POPC   NC336779   6.423  27.684   9.629
 2655POPC   PO436780   7.101  27.712   9.788
 2655POPC   GL136781   6.932  27.668   9.343
 2655POPC   GL236782   6.682  27.424   9.240
 2655POPC   C1A36783   6.774  27.762   8.904
 2655POPC   D2A36784   6.711  27.619   8.504
 2655POPC   C3A36785   6.843  27.807   8.127
 2655POPC   C4A36786   6.650  27.774   7.740
 2655POPC   C1B36787   6.431  27.344   8.873
 2655POPC   C2B36788   6.293  27.313   8.452
 2655POPC   C3B36789   6.456  27.435   8.073
 2655POPC   C4B36790   6.510  27.170   7.752
 2656POPC   NC336791  24.617  26.447   9.495
 2656POPC   PO436792  24.473  25.792   9.707
 2656POPC   GL136793  24.421  25.885   9.258
 2656POPC   GL236794  24.235  26.211   9.207
 2656POPC   C1A36795  24.377  25.686   8.837
 2656POPC   D2A36796  24.556  25.820   8.443
 2656POPC   C3A36797  24.437  25.765   8.009
 2656POPC   C4A36798  24.429  25.770   7.572
 2656POPC   C1B36799  24.565  26.189   8.871
 2656POPC   C2B36800  24.700  26.322   8.484
 2656POPC   C3B36801  24.771  26.167   8.080
 2656POPC   C4B36802  24.739  26.266   7.664
 2657POPC   NC336803  18.793   2.392   9.761
 2657POPC   PO436804  18.671   1.814   9.235
 2657POPC   GL136805  19.042   1.887   9.012
 2657POPC   GL236806  19.193   2.198   9.014
 2657POPC   C1A36807  18.993   1.851   8.602
 2657POPC   D2A36808  18.638   1.807   8.343
 2657POPC   C3A36809  18.859   1.835   7.948
 2657POPC   C4A36810  19.241   1.790   7.743
 2657POPC   C1B36811  19.009   2.395   8.685
 2657POPC   C2B36812  19.187   2.260   8.315
 2657POPC   C3B36813  19.153   2.328   7.905
 2657POPC   C4B36814  18.763   2.286   7.656
 2658POPC   NC336815   7.316  10.797   9.633
 2658POPC   PO436816   6.995  10.264   9.795
 2658POPC   GL136817   7.227  10.445   9.290
 2658POPC   GL236818   7.461  10.740   9.155
 2658POPC   C1A36819   7.129  10.563   8.813
 2658POPC   D2A36820   7.308  10.857   8.460
 2658POPC   C3A36821   7.222  10.682   8.030
 2658POPC   C4A36822   7.259  10.342   7.714
 2658POPC   C1B36823   7.732  10.875   8.809
 2658POPC   C2B36824   8.067  10.985   8.489
 2658POPC   C3B36825   7.904  10.951   8.050
 2658POPC   C4B36826   7.685  10.632   7.776
 2659POPC   NC336827  10.395  16.924   9.567
 2659POPC   PO436828  10.261  16.227   9.503
 2659POPC   GL136829  10.440  16.437   9.138
 2659POPC   GL236830  10.503  16.798   9.074
 2659POPC   C1A36831  10.279  16.494   8.710
 2659POPC   D2A36832  10.339  16.759   8.325
 2659POPC   C3A36833  10.304  16.532   7.908
 2659POPC   C4A36834  10.623  16.472   7.567
 2659POPC   C1B36835  10.776  16.626   8.732
 2659POPC   C2B36836  10.853  16.626   8.267
 2659POPC   C3B36837  10.716  16.864   7.873
 2659POPC   C4B36838  10.980  16.838   7.451
 2660POPC   NC336839   8.016   9.345   9.515
 2660POPC   PO436840   8.258   9.911   9.379
 2660POPC   GL136841   7.992   9.683   9.141
 2660POPC   GL236842   8.273   9.474   9.093
 2660POPC   C1A36843   7.906   9.530   8.749
 2660POPC   D2A36844   7.982   9.711   8.363
 2660POPC   C3A36845   7.781   9.545   8.010
 2660POPC   C4A36846   7.803   9.752   7.635
 2660POPC   C1B36847   8.381   9.734   8.743
 2660POPC   C2B36848   8.558   9.784   8.351
 2660POPC   C3B36849   8.603   9.674   7.986
 2660POPC   C4B36850   8.255   9.498   7.831
 2661POPC   NC336851   8.014  42.005   9.761
 2661POPC   PO436852   8.450  42.368   9.480
 2661POPC   GL136853   8.294  42.331   9.100
 2661POPC   GL236854   8.034  42.126   9.243
 2661POPC   C1A36855   8.312  42.635   8.760
 2661POPC   D2A36856   8.142  42.600   8.351
 2661POPC   C3A36857   8.284  42.273   8.083
 2661POPC   C4A36858   8.293  42.384   7.667
 2661POPC   C1B36859   7.844  41.983   8.879
 2661POPC   C2B36860   7.854  41.954   8.445
 2661POPC   C3B36861   7.750  42.276   8.137
 2661POPC   C4B36862   7.781  42.177   7.722
 2662POPC   NC336863  13.465  36.906   9.588
 2662POPC   PO436864  14.036  37.329   9.537
 2662POPC   GL136865  13.748  37.047   9.173
 2662POPC   GL236866  13.576  36.693   9.144
 2662POPC   C1A36867  13.645  36.930   8.718
 2662POPC   D2A36868  13.449  37.064   8.340
 2662POPC   C3A36869  13.752  36.989   8.027
 2662POPC   C4A36870  13.783  37.223   7.690
 2662POPC   C1B36871  13.244  36.515   8.890
 2662POPC   C2B36872  13.189  36.588   8.476
 2662POPC   C3B36873  13.395  36.621   8.078
 2662POPC   C4B36874  13.292  36.958   7.799
 2663POPC   NC336875  25.259  26.873   9.479
 2663POPC   PO436876  25.502  27.466   9.301
 2663POPC   GL136877  25.492  27.030   8.971
 2663POPC   GL236878  25.306  26.720   9.016
 2663POPC   C1A36879  25.259  26.941   8.573
 2663POPC   D2A36880  25.174  26.962   8.135
 2663POPC   C3A36881  25.491  26.871   7.842
 2663POPC   C4A36882  25.403  26.963   7.416
 2663POPC   C1B36883  25.189  26.398   8.721
 2663POPC   C2B36884  25.152  26.471   8.299
 2663POPC   C3B36885  25.167  26.486   7.873
 2663POPC   C4B36886  25.181  26.509   7.427
 2664POPC   NC336887  27.080  36.659   9.473
 2664POPC   PO436888  26.516  36.974   9.571
 2664POPC   GL136889  26.640  36.753   9.199
 2664POPC   GL236890  26.837  37.030   9.160
 2664POPC   C1A36891  26.961  36.699   8.816
 2664POPC   D2A36892  26.904  36.881   8.405
 2664POPC   C3A36893  27.180  36.786   8.102
 2664POPC   C4A36894  27.039  37.100   7.836
 2664POPC   C1B36895  26.604  37.062   8.771
 2664POPC   C2B36896  26.400  37.229   8.421
 2664POPC   C3B36897  26.554  37.105   8.032
 2664POPC   C4B36898  26.401  37.274   7.666
 2665POPC   NC336899  26.716  18.833   9.320
 2665POPC   PO436900  26.951  19.467   9.369
 2665POPC   GL136901  26.808  19.266   9.068
 2665POPC   GL236902  26.451  19.236   9.014
 2665POPC   C1A36903  26.883  19.090   8.713
 2665POPC   D2A36904  26.735  19.328   8.383
 2665POPC   C3A36905  26.910  19.180   8.024
 2665POPC   C4A36906  26.795  18.833   7.806
 2665POPC   C1B36907  26.406  18.909   8.683
 2665POPC   C2B36908  26.449  18.917   8.215
 2665POPC   C3B36909  26.373  19.076   7.786
 2665POPC   C4B36910  26.437  18.914   7.362
 2666POPC   NC336911  29.331   9.866   9.374
 2666POPC   PO436912  28.718   9.564   9.427
 2666POPC   GL136913  28.957   9.642   9.080
 2666POPC   GL236914  29.244   9.401   9.088
 2666POPC   C1A36915  28.924   9.747   8.663
 2666POPC   D2A36916  28.898   9.523   8.309
 2666POPC   C3A36917  28.990   9.691   7.933
 2666POPC   C4A36918  28.887  10.030   7.743
 2666POPC   C1B36919  29.470   9.661   8.770
 2666POPC   C2B36920  29.359   9.748   8.373
 2666POPC   C3B36921  29.426   9.491   8.060
 2666POPC   C4B36922  29.473   9.701   7.725
 2667POPC   NC336923   2.994  38.216   9.557
 2667POPC   PO436924   3.645  38.161   9.712
 2667POPC   GL136925   3.684  38.357   9.276
 2667POPC   GL236926   3.318  38.339   9.163
 2667POPC   C1A36927   3.679  38.328   8.784
 2667POPC   D2A36928   3.583  38.294   8.313
 2667POPC   C3A36929   3.775  38.588   8.027
 2667POPC   C4A36930   3.606  38.806   7.674
 2667POPC   C1B36931   3.137  38.335   8.735
 2667POPC   C2B36932   3.165  38.595   8.362
 2667POPC   C3B36933   3.265  38.546   7.948
 2667POPC   C4B36934   3.306  38.142   7.779
 2668POPC   NC336935  33.525  24.441   9.383
 2668POPC   PO436936  32.817  24.309   9.569
 2668POPC   GL136937  32.917  24.675   9.308
 2668POPC   GL236938  33.029  24.428   9.060
 2668POPC   C1A36939  32.767  24.831   8.905
 2668POPC   D2A36940  32.869  24.589   8.553
 2668POPC   C3A36941  32.797  24.678   8.135
 2668POPC   C4A36942  32.953  24.857   7.754
 2668POPC   C1B36943  33.359  24.301   8.780
 2668POPC   C2B36944  33.627  24.372   8.453
 2668POPC   C3B36945  33.371  24.418   8.104
 2668POPC   C4B36946  33.040  24.321   7.848
 2669POPC   NC336947  28.089  22.828   9.533
 2669POPC   PO436948  28.696  23.026   9.218
 2669POPC   GL136949  28.325  22.900   9.085
 2669POPC   GL236950  28.174  23.236   9.199
 2669POPC   C1A36951  28.338  22.744   8.660
 2669POPC   D2A36952  28.527  22.957   8.273
 2669POPC   C3A36953  28.409  22.854   7.836
 2669POPC   C4A36954  28.178  22.616   7.444
 2669POPC   C1B36955  28.027  23.164   8.766
 2669POPC   C2B36956  28.134  23.290   8.376
 2669POPC   C3B36957  28.013  23.175   7.976
 2669POPC   C4B36958  28.076  23.103   7.558
 2670POPC   NC336959  44.029  15.077   9.764
 2670POPC   PO436960  43.602  15.560   9.582
 2670POPC   GL136961  43.890  15.295   9.306
 2670POPC   GL236962  43.855  14.964   9.054
 2670POPC   C1A36963  43.973  15.418   8.895
 2670POPC   D2A36964  43.762  15.213   8.554
 2670POPC   C3A36965  44.035  15.279   8.187
 2670POPC   C4A36966  43.970  15.325   7.739
 2670POPC   C1B36967  43.763  14.683   8.733
 2670POPC   C2B36968  43.938  14.780   8.334
 2670POPC   C3B36969  43.780  14.904   7.948
 2670POPC   C4B36970  43.871  14.872   7.494
 2671POPC   NC336971   5.564  21.811   9.788
 2671POPC   PO436972   5.969  22.307   9.488
 2671POPC   GL136973   5.774  22.307   9.127
 2671POPC   GL236974   5.640  22.011   9.146
 2671POPC   C1A36975   5.900  22.407   8.719
 2671POPC   D2A36976   5.908  22.173   8.334
 2671POPC   C3A36977   5.988  22.394   7.964
 2671POPC   C4A36978   5.793  22.322   7.593
 2671POPC   C1B36979   5.757  21.890   8.761
 2671POPC   C2B36980   5.534  21.775   8.399
 2671POPC   C3B36981   5.600  21.930   7.985
 2671POPC   C4B36982   6.032  21.891   7.881
 2672POPC   NC336983  14.601  30.426   9.508
 2672POPC   PO436984  15.275  30.645   9.618
 2672POPC   GL136985  15.304  30.842   9.208
 2672POPC   GL236986  15.054  30.626   9.114
 2672POPC   C1A36987  15.207  30.936   8.729
 2672POPC   D2A36988  15.347  30.684   8.332
 2672POPC   C3A36989  15.136  30.738   7.969
 2672POPC   C4A36990  15.128  31.145   7.914
 2672POPC   C1B36991  15.185  30.423   8.726
 2672POPC   C2B36992  15.362  30.159   8.421
 2672POPC   C3B36993  15.489  30.281   7.994
 2672POPC   C4B36994  15.293  30.409   7.607
 2673POPC   NC336995  29.586  35.548   9.428
 2673POPC   PO436996  30.184  35.599   9.207
 2673POPC   GL136997  30.113  35.294   8.953
 2673POPC   GL236998  29.743  35.376   8.970
 2673POPC   C1A36999  29.981  35.106   8.584
 2673POPC   D2A37000  29.639  35.378   8.383
 2673POPC   C3A37001  29.663  35.389   7.962
 2673POPC   C4A37002  30.113  35.354   7.869
 2673POPC   C1B37003  29.511  35.059   8.748
 2673POPC   C2B37004  29.583  34.870   8.344
 2673POPC   C3B37005  29.844  34.919   7.967
 2673POPC   C4B37006  29.697  35.042   7.550
 2674POPC   NC337007  23.743  26.800   9.592
 2674POPC   PO437008  23.169  27.011   9.390
 2674POPC   GL137009  23.619  27.003   9.145
 2674POPC   GL237010  23.873  26.682   9.124
 2674POPC   C1A37011  23.779  26.980   8.715
 2674POPC   D2A37012  23.469  26.940   8.392
 2674POPC   C3A37013  23.654  26.975   8.015
 2674POPC   C4A37014  23.476  27.011   7.633
 2674POPC   C1B37015  23.661  26.459   8.798
 2674POPC   C2B37016  23.815  26.549   8.401
 2674POPC   C3B37017  23.786  26.476   7.992
 2674POPC   C4B37018  23.745  26.602   7.564
 2675POPC   NC337019  34.321  17.377   9.497
 2675POPC   PO437020  33.749  17.814   9.483
 2675POPC   GL137021  33.772  17.637   9.080
 2675POPC   GL237022  34.093  17.459   9.053
 2675POPC   C1A37023  33.735  17.492   8.662
 2675POPC   D2A37024  33.497  17.485   8.287
 2675POPC   C3A37025  33.863  17.417   8.071
 2675POPC   C4A37026  34.001  17.161   7.768
 2675POPC   C1B37027  34.119  17.830   8.780
 2675POPC   C2B37028  33.950  17.875   8.352
 2675POPC   C3B37029  34.087  17.858   7.918
 2675POPC   C4B37030  33.760  17.730   7.672
 2676POPC   NC337031   1.507   4.845   9.420
 2676POPC   PO437032   0.978   5.276   9.500
 2676POPC   GL137033   1.222   5.210   9.170
 2676POPC   GL237034   1.101   4.907   9.124
 2676POPC   C1A37035   1.227   5.259   8.738
 2676POPC   D2A37036   0.980   5.108   8.354
 2676POPC   C3A37037   1.190   5.025   8.005
 2676POPC   C4A37038   1.239   5.423   7.874
 2676POPC   C1B37039   0.944   4.814   8.762
 2676POPC   C2B37040   0.642   4.769   8.471
 2676POPC   C3B37041   0.667   4.795   8.037
 2676POPC   C4B37042   0.863   4.939   7.649
 2677POPC   NC337043   5.812  14.831   9.514
 2677POPC   PO437044   6.087  15.512   9.580
 2677POPC   GL137045   6.090  15.190   9.240
 2677POPC   GL237046   5.717  15.222   9.182
 2677POPC   C1A37047   5.988  15.027   8.806
 2677POPC   D2A37048   5.847  15.260   8.460
 2677POPC   C3A37049   6.048  15.325   8.085
 2677POPC   C4A37050   5.913  15.110   7.767
 2677POPC   C1B37051   5.659  15.550   8.854
 2677POPC   C2B37052   5.539  15.671   8.410
 2677POPC   C3B37053   5.573  15.486   8.006
 2677POPC   C4B37054   5.504  15.314   7.563
 2678POPC   NC337055  33.976  20.673   9.484
 2678POPC   PO437056  33.459  20.341   9.687
 2678POPC   GL137057  33.539  20.496   9.214
 2678POPC   GL237058  33.623  20.812   9.160
 2678POPC   C1A37059  33.538  20.524   8.768
 2678POPC   D2A37060  33.794  20.426   8.441
 2678POPC   C3A37061  33.640  20.626   8.089
 2678POPC   C4A37062  33.355  20.640   7.764
 2678POPC   C1B37063  33.959  20.887   8.831
 2678POPC   C2B37064  34.077  20.846   8.393
 2678POPC   C3B37065  34.087  21.019   7.980
 2678POPC   C4B37066  33.799  20.885   7.652
 2679POPC   NC337067  14.937  39.136   9.681
 2679POPC   PO437068  15.300  39.642   9.545
 2679POPC   GL137069  15.180  39.354   9.178
 2679POPC   GL237070  15.143  38.988   9.211
 2679POPC   C1A37071  15.194  39.266   8.710
 2679POPC   D2A37072  15.101  39.052   8.328
 2679POPC   C3A37073  15.200  39.208   7.934
 2679POPC   C4A37074  15.046  39.118   7.509
 2679POPC   C1B37075  15.480  38.903   8.902
 2679POPC   C2B37076  15.586  39.003   8.446
 2679POPC   C3B37077  15.513  38.792   8.029
 2679POPC   C4B37078  15.273  38.689   7.629
 2680POPC   NC337079  23.419  42.347   9.557
 2680POPC   PO437080  23.711  41.994   9.176
 2680POPC   GL137081  23.726  42.391   9.106
 2680POPC   GL237082  23.376  42.549   9.083
 2680POPC   C1A37083  23.688  42.481   8.697
 2680POPC   D2A37084  23.537  42.171   8.401
 2680POPC   C3A37085  23.700  42.288   8.053
 2680POPC   C4A37086  23.600  42.277   7.675
 2680POPC   C1B37087  23.189  42.490   8.630
 2680POPC   C2B37088  23.302  42.604   8.175
 2680POPC   C3B37089  23.190  42.586   7.709
 2680POPC   C4B37090  23.208  42.241   7.366
 2681POPC   NC337091  16.527  11.644   9.397
 2681POPC   PO437092  17.051  11.255   9.461
 2681POPC   GL137093  16.777  11.106   9.095
 2681POPC   GL237094  16.567  11.366   8.991
 2681POPC   C1A37095  16.781  11.117   8.626
 2681POPC   D2A37096  16.965  10.931   8.292
 2681POPC   C3A37097  16.923  11.184   7.945
 2681POPC   C4A37098  16.786  10.933   7.649
 2681POPC   C1B37099  16.474  11.561   8.606
 2681POPC   C2B37100  16.485  11.431   8.183
 2681POPC   C3B37101  16.629  11.637   7.810
 2681POPC   C4B37102  16.417  11.626   7.373
 2682POPC   NC337103  21.788  23.324   9.431
 2682POPC   PO437104  22.229  23.760   9.614
 2682POPC   GL137105  22.088  23.780   9.169
 2682POPC   GL237106  21.694  23.797   9.125
 2682POPC   C1A37107  22.309  23.706   8.748
 2682POPC   D2A37108  22.225  23.418   8.374
 2682POPC   C3A37109  22.344  23.589   7.938
 2682POPC   C4A37110  22.275  23.702   7.496
 2682POPC   C1B37111  21.879  24.013   8.755
 2682POPC   C2B37112  22.110  23.995   8.350
 2682POPC   C3B37113  21.898  23.993   7.941
 2682POPC   C4B37114  21.860  24.027   7.479
 2683POPC   NC337115  44.395  13.708   9.653
 2683POPC   PO437116  43.768  13.750   9.517
 2683POPC   GL137117  44.067  13.708   9.212
 2683POPC   GL237118  44.256  14.019   9.260
 2683POPC   C1A37119  43.941  13.536   8.808
 2683POPC   D2A37120  43.652  13.663   8.475
 2683POPC   C3A37121  43.807  13.507   8.087
 2683POPC   C4A37122  43.683  13.479   7.653
 2683POPC   C1B37123  44.203  13.968   8.797
 2683POPC   C2B37124  44.169  13.782   8.375
 2683POPC   C3B37125  44.034  13.931   7.956
 2683POPC   C4B37126  43.688  13.991   7.709
 2684POPC   NC337127   0.971  14.077   9.449
 2684POPC   PO437128   1.436  14.640   9.442
 2684POPC   GL137129   1.228  14.427   9.136
 2684POPC   GL237130   1.322  14.106   9.091
 2684POPC   C1A37131   1.228  14.450   8.706
 2684POPC   D2A37132   1.232  14.654   8.306
 2684POPC   C3A37133   0.991  14.447   7.980
 2684POPC   C4A37134   1.314  14.375   7.705
 2684POPC   C1B37135   1.033  13.958   8.783
 2684POPC   C2B37136   1.088  14.107   8.374
 2684POPC   C3B37137   1.288  13.994   8.041
 2684POPC   C4B37138   1.062  13.890   7.707
 2685POPC   NC337139  33.373  36.666   9.310
 2685POPC   PO437140  33.822  37.126   9.528
 2685POPC   GL137141  33.772  37.119   9.104
 2685POPC   GL237142  33.794  36.822   9.100
 2685POPC   C1A37143  33.615  37.006   8.676
 2685POPC   D2A37144  33.870  37.122   8.335
 2685POPC   C3A37145  33.623  37.078   7.966
 2685POPC   C4A37146  33.441  37.122   7.569
 2685POPC   C1B37147  34.086  36.751   8.771
 2685POPC   C2B37148  34.020  36.627   8.356
 2685POPC   C3B37149  34.055  36.793   7.934
 2685POPC   C4B37150  34.235  36.618   7.532
 2686POPC   NC337151   7.771  43.909   9.657
 2686POPC   PO437152   8.435  44.099   9.616
 2686POPC   GL137153   8.226  43.785   9.307
 2686POPC   GL237154   8.143  44.015   9.119
 2686POPC   C1A37155   8.141  43.608   8.850
 2686POPC   D2A37156   8.241  43.771   8.424
 2686POPC   C3A37157   8.427  43.495   8.093
 2686POPC   C4A37158   8.227  43.585   7.691
 2686POPC   C1B37159   7.953  44.077   8.728
 2686POPC   C2B37160   7.779  44.117   8.306
 2686POPC   C3B37161   7.953  43.959   7.925
 2686POPC   C4B37162   8.188  44.098   7.536
 2687POPC   NC337163  10.129   8.922   9.606
 2687POPC   PO437164   9.523   8.956   9.542
 2687POPC   GL137165   9.709   9.106   9.163
 2687POPC   GL237166  10.075   9.198   9.191
 2687POPC   C1A37167   9.547   9.004   8.747
 2687POPC   D2A37168   9.310   8.843   8.390
 2687POPC   C3A37169   9.338   9.120   8.033
 2687POPC   C4A37170   9.579   9.102   7.666
 2687POPC   C1B37171  10.057   8.857   8.858
 2687POPC   C2B37172   9.875   8.719   8.447
 2687POPC   C3B37173   9.913   8.799   7.993
 2687POPC   C4B37174  10.283   8.724   7.713
 2688POPC   NC337175  43.553  17.761   9.412
 2688POPC   PO437176  44.141  17.343   9.331
 2688POPC   GL137177  43.979  17.597   9.045
 2688POPC   GL237178  44.157  17.873   9.070
 2688POPC   C1A37179  43.758  17.534   8.672
 2688POPC   D2A37180  43.664  17.144   8.466
 2688POPC   C3A37181  43.646  17.279   8.062
 2688POPC   C4A37182  43.913  17.251   7.741
 2688POPC   C1B37183  44.198  17.786   8.604
 2688POPC   C2B37184  43.987  17.643   8.207
 2688POPC   C3B37185  44.190  17.692   7.851
 2688POPC   C4B37186  44.359  17.956   7.558
 2689POPC   NC337187   3.208  42.593   9.425
 2689POPC   PO437188   3.689  42.261   9.758
 2689POPC   GL137189   3.660  42.288   9.290
 2689POPC   GL237190   3.994  42.423   9.164
 2689POPC   C1A37191   3.634  42.162   8.849
 2689POPC   D2A37192   3.378  42.084   8.450
 2689POPC   C3A37193   3.519  42.085   7.994
 2689POPC   C4A37194   3.454  42.306   7.550
 2689POPC   C1B37195   3.878  42.671   8.757
 2689POPC   C2B37196   3.876  42.755   8.271
 2689POPC   C3B37197   3.819  42.482   7.875
 2689POPC   C4B37198   4.002  42.393   7.417
 2690POPC   NC337199  32.584  27.934   9.614
 2690POPC   PO437200  32.361  28.529   9.615
 2690POPC   GL137201  32.144  28.424   9.190
 2690POPC   GL237202  32.011  28.069   9.175
 2690POPC   C1A37203  32.096  28.624   8.766
 2690POPC   D2A37204  32.321  28.653   8.354
 2690POPC   C3A37205  32.221  28.618   7.922
 2690POPC   C4A37206  31.915  28.600   7.626
 2690POPC   C1B37207  31.915  28.132   8.761
 2690POPC   C2B37208  32.220  28.134   8.426
 2690POPC   C3B37209  32.468  28.188   8.065
 2690POPC   C4B37210  32.357  28.006   7.672
 2691POPC   NC337211  27.490  26.106   9.552
 2691POPC   PO437212  27.256  25.547   9.342
 2691POPC   GL137213  27.441  25.874   9.103
 2691POPC   GL237214  27.319  26.244   9.097
 2691POPC   C1A37215  27.729  26.058   8.828
 2691POPC   D2A37216  27.873  25.937   8.432
 2691POPC   C3A37217  27.614  26.102   8.164
 2691POPC   C4A37218  27.714  26.013   7.798
 2691POPC   C1B37219  27.178  26.056   8.714
 2691POPC   C2B37220  27.098  26.124   8.313
 2691POPC   C3B37221  27.200  25.902   7.958
 2691POPC   C4B37222  27.264  26.207   7.690
 2692POPC   NC337223  35.876  19.273   9.464
 2692POPC   PO437224  36.496  19.050   9.570
 2692POPC   GL137225  36.252  19.062   9.166
 2692POPC   GL237226  36.353  19.310   9.005
 2692POPC   C1A37227  36.106  18.853   8.772
 2692POPC   D2A37228  35.984  18.945   8.360
 2692POPC   C3A37229  36.265  18.861   8.051
 2692POPC   C4A37230  36.453  19.048   7.731
 2692POPC   C1B37231  35.928  19.344   8.808
 2692POPC   C2B37232  35.818  19.435   8.375
 2692POPC   C3B37233  36.213  19.422   8.132
 2692POPC   C4B37234  36.451  19.546   7.763
 2693POPC   NC337235  39.942   2.932   9.475
 2693POPC   PO437236  40.029   2.318   9.444
 2693POPC   GL137237  40.032   2.468   9.035
 2693POPC   GL237238  39.785   2.708   9.047
 2693POPC   C1A37239  39.847   2.466   8.615
 2693POPC   D2A37240  39.663   2.529   8.254
 2693POPC   C3A37241  40.010   2.531   7.984
 2693POPC   C4A37242  40.374   2.716   7.778
 2693POPC   C1B37243  39.655   2.961   8.697
 2693POPC   C2B37244  39.676   3.039   8.255
 2693POPC   C3B37245  39.698   2.916   7.826
 2693POPC   C4B37246  39.690   3.123   7.398
 2694POPC   NC337247   2.108  18.965   9.544
 2694POPC   PO437248   1.491  18.674   9.343
 2694POPC   GL137249   1.814  18.977   9.146
 2694POPC   GL237250   2.128  19.263   9.138
 2694POPC   C1A37251   2.090  18.893   8.807
 2694POPC   D2A37252   2.307  19.040   8.457
 2694POPC   C3A37253   2.247  18.753   8.132
 2694POPC   C4A37254   2.099  18.801   7.711
 2694POPC   C1B37255   1.815  19.321   8.781
 2694POPC   C2B37256   1.919  19.362   8.365
 2694POPC   C3B37257   2.045  19.225   7.997
 2694POPC   C4B37258   1.674  19.347   7.793
 2695POPC   NC337259  44.956  18.320   9.389
 2695POPC   PO437260  44.324  18.075   9.562
 2695POPC   GL137261  44.509  18.226   9.156
 2695POPC   GL237262  44.676  18.579   9.040
 2695POPC   C1A37263  44.483  18.226   8.714
 2695POPC   D2A37264  44.538  18.623   8.499
 2695POPC   C3A37265  44.482  18.679   8.046
 2695POPC   C4A37266  44.376  18.476   7.636
 2695POPC   C1B37267   0.000  18.423   8.712
 2695POPC   C2B37268   0.079  18.053   8.388
 2695POPC   C3B37269  44.989  17.854   7.942
 2695POPC   C4B37270  44.914  17.929   7.467
 2696POPC   NC337271  28.331  37.940   9.557
 2696POPC   PO437272  28.200  37.269   9.333
 2696POPC   GL137273  28.167  37.684   9.151
 2696POPC   GL237274  28.541  37.835   9.110
 2696POPC   C1A37275  28.135  37.873   8.756
 2696POPC   D2A37276  28.431  37.810   8.440
 2696POPC   C3A37277  28.306  37.870   8.041
 2696POPC   C4A37278  28.629  37.933   7.742
 2696POPC   C1B37279  28.534  37.502   8.840
 2696POPC   C2B37280  28.278  37.336   8.553
 2696POPC   C3B37281  28.263  37.363   8.087
 2696POPC   C4B37282  28.536  37.421   7.720
 2697POPC   NC337283  33.645   3.235   9.699
 2697POPC   PO437284  33.928   3.881   9.579
 2697POPC   GL137285  33.763   3.765   9.181
 2697POPC   GL237286  34.102   3.635   9.136
 2697POPC   C1A37287  33.602   3.704   8.753
 2697POPC   D2A37288  33.591   3.369   8.424
 2697POPC   C3A37289  33.557   3.534   8.006
 2697POPC   C4A37290  33.590   3.290   7.634
 2697POPC   C1B37291  34.063   3.493   8.740
 2697POPC   C2B37292  34.011   3.635   8.314
 2697POPC   C3B37293  34.029   3.392   7.916
 2697POPC   C4B37294  34.049   3.711   7.583
 2698POPC   NC337295  37.503   9.358   9.607
 2698POPC   PO437296  38.035   9.077   9.432
 2698POPC   GL137297  37.783   9.326   9.176
 2698POPC   GL237298  37.519   9.072   9.155
 2698POPC   C1A37299  37.825   9.243   8.760
 2698POPC   D2A37300  38.011   9.019   8.462
 2698POPC   C3A37301  37.765   9.046   8.098
 2698POPC   C4A37302  37.547   8.964   7.725
 2698POPC   C1B37303  37.322   8.889   8.783
 2698POPC   C2B37304  37.393   8.770   8.356
 2698POPC   C3B37305  37.195   8.619   7.963
 2698POPC   C4B37306  37.328   8.531   7.534
 2699POPC   NC337307  38.185  11.146   9.447
 2699POPC   PO437308  38.760  11.394   9.720
 2699POPC   GL137309  38.729  11.558   9.287
 2699POPC   GL237310  38.362  11.592   9.219
 2699POPC   C1A37311  38.758  11.322   8.878
 2699POPC   D2A37312  38.535  11.022   8.562
 2699POPC   C3A37313  38.576  11.091   8.092
 2699POPC   C4A37314  38.707  11.382   7.759
 2699POPC   C1B37315  38.257  11.404   8.818
 2699POPC   C2B37316  38.350  11.498   8.378
 2699POPC   C3B37317  38.230  11.477   7.927
 2699POPC   C4B37318  38.314  11.568   7.477
 2700POPC   NC337319  36.573   4.713   9.514
 2700POPC   PO437320  36.812   5.270   9.686
 2700POPC   GL137321  36.938   5.263   9.255
 2700POPC   GL237322  36.898   4.926   9.162
 2700POPC   C1A37323  36.796   5.354   8.835
 2700POPC   D2A37324  37.015   5.438   8.470
 2700POPC   C3A37325  36.834   5.398   8.053
 2700POPC   C4A37326  36.627   5.055   7.814
 2700POPC   C1B37327  36.946   4.846   8.732
 2700POPC   C2B37328  36.781   4.659   8.364
 2700POPC   C3B37329  36.927   4.610   7.942
 2700POPC   C4B37330  36.671   4.570   7.596
 2701POPC   NC337331  23.450  19.938   9.477
 2701POPC   PO437332  24.102  19.731   9.544
 2701POPC   GL137333  23.865  19.826   9.151
 2701POPC   GL237334  23.534  19.755   9.007
 2701POPC   C1A37335  23.985  19.981   8.756
 2701POPC   D2A37336  23.971  20.111   8.326
 2701POPC   C3A37337  23.971  19.842   7.959
 2701POPC   C4A37338  23.594  19.772   7.711
 2701POPC   C1B37339  23.487  20.010   8.620
 2701POPC   C2B37340  23.492  20.016   8.151
 2701POPC   C3B37341  23.276  20.172   7.758
 2701POPC   C4B37342  23.370  20.100   7.304
 2702POPC   NC337343  36.915  43.677   9.581
 2702POPC   PO437344  37.230  44.337   9.398
 2702POPC   GL137345  37.107  43.922   9.200
 2702POPC   GL237346  37.219  43.594   9.072
 2702POPC   C1A37347  36.803  43.774   8.871
 2702POPC   D2A37348  36.830  43.988   8.461
 2702POPC   C3A37349  36.844  43.791   8.074
 2702POPC   C4A37350  36.910  44.119   7.728
 2702POPC   C1B37351  37.268  43.904   8.735
 2702POPC   C2B37352  37.390  43.775   8.356
 2702POPC   C3B37353  37.300  44.018   8.041
 2702POPC   C4B37354  37.397  43.967   7.642
 2703POPC   NC337355  17.751   7.384   9.610
 2703POPC   PO437356  17.110   7.282   9.730
 2703POPC   GL137357  17.296   7.567   9.321
 2703POPC   GL237358  17.567   7.458   9.143
 2703POPC   C1A37359  17.364   7.694   8.768
 2703POPC   D2A37360  17.707   7.708   8.403
 2703POPC   C3A37361  17.558   7.583   7.975
 2703POPC   C4A37362  17.096   7.469   7.881
 2703POPC   C1B37363  17.650   7.272   8.721
 2703POPC   C2B37364  17.495   7.213   8.351
 2703POPC   C3B37365  17.729   7.082   8.046
 2703POPC   C4B37366  17.624   7.095   7.656
 2704POPC   NC337367   9.817  16.249   9.348
 2704POPC   PO437368   9.890  16.887   9.554
 2704POPC   GL137369   9.960  16.715   9.159
 2704POPC   GL237370   9.595  16.694   9.151
 2704POPC   C1A37371   9.907  16.844   8.730
 2704POPC   D2A37372   9.978  17.145   8.406
 2704POPC   C3A37373   9.910  16.889   8.061
 2704POPC   C4A37374   9.961  16.832   7.630
 2704POPC   C1B37375   9.370  16.844   8.800
 2704POPC   C2B37376   9.488  17.014   8.397
 2704POPC   C3B37377   9.414  16.984   7.935
 2704POPC   C4B37378   9.390  16.634   7.661
 2705POPC   NC337379  25.312   2.031   9.508
 2705POPC   PO437380  25.468   1.420   9.293
 2705POPC   GL137381  25.582   1.798   9.090
 2705POPC   GL237382  25.679   2.137   9.172
 2705POPC   C1A37383  25.372   2.025   8.754
 2705POPC   D2A37384  25.013   2.111   8.458
 2705POPC   C3A37385  25.089   2.029   8.023
 2705POPC   C4A37386  25.379   1.697   7.844
 2705POPC   C1B37387  25.808   2.291   8.761
 2705POPC   C2B37388  25.573   2.324   8.386
 2705POPC   C3B37389  25.608   2.150   8.000
 2705POPC   C4B37390  25.940   2.264   7.753
 2706POPC   NC337391   9.361  20.014   9.436
 2706POPC   PO437392   8.728  20.190   9.424
 2706POPC   GL137393   8.831  19.973   9.034
 2706POPC   GL237394   9.182  19.938   8.940
 2706POPC   C1A37395   8.811  19.655   8.718
 2706POPC   D2A37396   9.070  19.690   8.405
 2706POPC   C3A37397   8.865  19.837   8.087
 2706POPC   C4A37398   8.989  20.057   7.763
 2706POPC   C1B37399   9.390  19.539   8.783
 2706POPC   C2B37400   9.598  19.490   8.383
 2706POPC   C3B37401   9.482  19.669   7.988
 2706POPC   C4B37402   9.127  19.476   7.793
 2707POPC   NC337403   1.095  36.589   9.378
 2707POPC   PO437404   1.371  37.166   9.537
 2707POPC   GL137405   1.207  37.059   9.143
 2707POPC   GL237406   0.865  36.986   9.171
 2707POPC   C1A37407   1.382  36.971   8.738
 2707POPC   D2A37408   1.437  37.234   8.356
 2707POPC   C3A37409   1.498  37.158   7.900
 2707POPC   C4A37410   1.377  37.253   7.432
 2707POPC   C1B37411   0.885  37.015   8.720
 2707POPC   C2B37412   1.092  36.847   8.328
 2707POPC   C3B37413   1.107  36.850   7.865
 2707POPC   C4B37414   0.876  37.135   7.593
 2708POPC   NC337415   7.674  21.004   9.360
 2708POPC   PO437416   7.289  21.597   9.578
 2708POPC   GL137417   7.357  21.389   9.201
 2708POPC   GL237418   7.161  21.100   9.299
 2708POPC   C1A37419   7.493  21.396   8.752
 2708POPC   D2A37420   7.483  21.196   8.334
 2708POPC   C3A37421   7.477  21.456   7.972
 2708POPC   C4A37422   7.785  21.565   7.684
 2708POPC   C1B37423   7.069  21.114   8.872
 2708POPC   C2B37424   7.002  21.344   8.507
 2708POPC   C3B37425   7.009  21.235   8.074
 2708POPC   C4B37426   7.094  21.088   7.650
 2709POPC   NC337427  20.991   6.911  10.202
 2709POPC   PO437428  21.044   6.679   9.646
 2709POPC   GL137429  21.095   6.729   9.138
 2709POPC   GL237430  21.343   6.470   9.062
 2709POPC   C1A37431  20.960   6.500   8.720
 2709POPC   D2A37432  21.060   6.535   8.270
 2709POPC   C3A37433  20.869   6.447   7.861
 2709POPC   C4A37434  20.952   6.715   7.480
 2709POPC   C1B37435  21.465   6.465   8.608
 2709POPC   C2B37436  21.461   6.184   8.257
 2709POPC   C3B37437  21.746   6.146   7.870
 2709POPC   C4B37438  21.858   6.435   7.511
 2710POPC   NC337439  28.285   2.914   9.732
 2710POPC   PO437440  28.645   2.382   9.555
 2710POPC   GL137441  28.656   2.655   9.199
 2710POPC   GL237442  28.331   2.851   9.216
 2710POPC   C1A37443  28.681   2.761   8.756
 2710POPC   D2A37444  28.434   2.805   8.347
 2710POPC   C3A37445  28.737   2.833   8.050
 2710POPC   C4A37446  28.744   3.092   7.713
 2710POPC   C1B37447  28.199   2.742   8.793
 2710POPC   C2B37448  27.881   2.780   8.496
 2710POPC   C3B37449  27.933   2.808   8.072
 2710POPC   C4B37450  28.270   3.020   7.884
 2711POPC   NC337451  36.461  27.960   9.559
 2711POPC   PO437452  35.950  28.265   9.395
 2711POPC   GL137453  35.974  28.087   9.045
 2711POPC   GL237454  36.288  28.059   9.057
 2711POPC   C1A37455  36.043  28.302   8.675
 2711POPC   D2A37456  35.828  28.453   8.360
 2711POPC   C3A37457  35.952  28.176   8.061
 2711POPC   C4A37458  35.979  28.342   7.659
 2711POPC   C1B37459  36.610  28.096   8.748
 2711POPC   C2B37460  36.552  28.308   8.339
 2711POPC   C3B37461  36.453  28.205   7.883
 2711POPC   C4B37462  36.547  28.252   7.435
 2712POPC   NC337463   6.426  44.572   9.570
 2712POPC   PO437464   7.058  44.926   9.651
 2712POPC   GL137465   6.808  44.757   9.251
 2712POPC   GL237466   7.019  44.537   9.040
 2712POPC   C1A37467   6.538  44.559   8.851
 2712POPC   D2A37468   6.319  44.581   8.403
 2712POPC   C3A37469   6.479  44.598   7.971
 2712POPC   C4A37470   6.800  44.937   7.848
 2712POPC   C1B37471   6.948  44.304   8.668
 2712POPC   C2B37472   6.886  44.570   8.302
 2712POPC   C3B37473   6.945  44.441   7.892
 2712POPC   C4B37474   6.756  44.265   7.564
 2713POPC   NC337475   6.777  17.380   9.554
 2713POPC   PO437476   6.617  17.967   9.562
 2713POPC   GL137477   6.661  17.679   9.145
 2713POPC   GL237478   6.628  17.278   9.071
 2713POPC   C1A37479   6.524  17.588   8.719
 2713POPC   D2A37480   6.391  17.334   8.386
 2713POPC   C3A37481   6.527  17.416   7.975
 2713POPC   C4A37482   6.451  17.726   7.660
 2713POPC   C1B37483   6.844  17.195   8.690
 2713POPC   C2B37484   6.817  17.059   8.299
 2713POPC   C3B37485   7.025  17.349   8.038
 2713POPC   C4B37486   6.918  17.469   7.630
 2714POPC   NC337487  43.502  23.214   9.298
 2714POPC   PO437488  43.814  22.856   9.823
 2714POPC   GL137489  43.556  22.702   9.328
 2714POPC   GL237490  43.192  22.810   9.192
 2714POPC   C1A37491  43.505  22.623   8.841
 2714POPC   D2A37492  43.519  22.561   8.380
 2714POPC   C3A37493  43.284  22.783   8.050
 2714POPC   C4A37494  43.446  22.834   7.662
 2714POPC   C1B37495  43.187  23.020   8.743
 2714POPC   C2B37496  43.463  23.152   8.363
 2714POPC   C3B37497  43.400  23.276   7.919
 2714POPC   C4B37498  43.047  23.186   7.634
 2715POPC   NC337499  23.043   5.782   9.603
 2715POPC   PO437500  22.472   5.864   9.368
 2715POPC   GL137501  22.773   5.641   9.119
 2715POPC   GL237502  23.127   5.728   9.119
 2715POPC   C1A37503  22.909   5.565   8.695
 2715POPC   D2A37504  22.889   5.753   8.303
 2715POPC   C3A37505  22.712   5.762   7.896
 2715POPC   C4A37506  22.880   5.785   7.521
 2715POPC   C1B37507  23.170   6.082   8.836
 2715POPC   C2B37508  22.945   6.236   8.482
 2715POPC   C3B37509  22.916   6.220   8.039
 2715POPC   C4B37510  23.122   6.245   7.641
 2716POPC   NC337511   0.302  40.476   9.474
 2716POPC   PO437512  44.937  40.959   9.186
 2716POPC   GL137513   0.258  40.646   9.005
 2716POPC   GL237514   0.607  40.490   9.082
 2716POPC   C1A37515   0.339  40.557   8.606
 2716POPC   D2A37516   0.586  40.852   8.394
 2716POPC   C3A37517   0.347  40.932   8.042
 2716POPC   C4A37518   0.512  41.013   7.671
 2716POPC   C1B37519   0.838  40.501   8.715
 2716POPC   C2B37520   0.720  40.356   8.319
 2716POPC   C3B37521   0.766  40.617   7.956
 2716POPC   C4B37522   0.437  40.504   7.694
 2717POPC   NC337523  18.911  17.148   9.328
 2717POPC   PO437524  18.831  17.803   9.567
 2717POPC   GL137525  19.055  17.680   9.198
 2717POPC   GL237526  19.307  17.456   9.165
 2717POPC   C1A37527  19.247  17.868   8.819
 2717POPC   D2A37528  19.244  17.701   8.403
 2717POPC   C3A37529  19.021  17.689   8.039
 2717POPC   C4A37530  19.236  17.672   7.627
 2717POPC   C1B37531  19.068  17.376   8.758
 2717POPC   C2B37532  18.868  17.277   8.372
 2717POPC   C3B37533  18.907  17.161   7.941
 2717POPC   C4B37534  18.719  17.476   7.677
 2718POPC   NC337535   6.991  30.570   9.499
 2718POPC   PO437536   7.600  30.829   9.374
 2718POPC   GL137537   7.252  30.724   9.085
 2718POPC   GL237538   7.268  30.344   9.144
 2718POPC   C1A37539   7.264  30.784   8.637
 2718POPC   D2A37540   7.695  30.725   8.415
 2718POPC   C3A37541   7.683  30.514   8.009
 2718POPC   C4A37542   7.752  30.579   7.566
 2718POPC   C1B37543   7.555  30.394   8.805
 2718POPC   C2B37544   7.355  30.333   8.403
 2718POPC   C3B37545   7.105  30.361   8.057
 2718POPC   C4B37546   7.258  30.421   7.642
 2719POPC   NC337547  18.096  12.020   9.475
 2719POPC   PO437548  18.548  12.395   9.316
 2719POPC   GL137549  18.332  12.026   9.035
 2719POPC   GL237550  18.360  11.657   9.140
 2719POPC   C1A37551  18.259  11.966   8.607
 2719POPC   D2A37552  18.504  12.208   8.284
 2719POPC   C3A37553  18.301  12.144   7.903
 2719POPC   C4A37554  17.953  11.855   7.913
 2719POPC   C1B37555  18.537  11.534   8.732
 2719POPC   C2B37556  18.550  11.689   8.303
 2719POPC   C3B37557  18.423  11.638   7.923
 2719POPC   C4B37558  18.412  11.799   7.534
 2720POPC   NC337559  41.855   8.364  10.174
 2720POPC   PO437560  41.834   8.430   9.535
 2720POPC   GL137561  41.631   8.296   9.142
 2720POPC   GL237562  41.713   8.561   8.968
 2720POPC   C1A37563  41.388   8.220   8.751
 2720POPC   D2A37564  41.457   8.065   8.308
 2720POPC   C3A37565  41.336   8.219   7.903
 2720POPC   C4A37566  41.508   8.207   7.457
 2720POPC   C1B37567  41.856   8.406   8.554
 2720POPC   C2B37568  41.794   8.356   8.081
 2720POPC   C3B37569  41.755   7.937   7.814
 2720POPC   C4B37570  41.930   7.880   7.357
 2721POPC   NC337571  20.111  18.201   9.498
 2721POPC   PO437572  19.516  18.529   9.497
 2721POPC   GL137573  19.764  18.341   9.142
 2721POPC   GL237574  20.065  18.074   9.035
 2721POPC   C1A37575  19.808  18.370   8.727
 2721POPC   D2A37576  19.950  18.422   8.331
 2721POPC   C3A37577  19.697  18.467   7.950
 2721POPC   C4A37578  20.022  18.308   7.687
 2721POPC   C1B37579  20.005  17.872   8.681
 2721POPC   C2B37580  19.682  17.962   8.445
 2721POPC   C3B37581  19.800  17.975   8.046
 2721POPC   C4B37582  19.604  18.018   7.644
 2722POPC   NC337583  25.553  16.998   9.744
 2722POPC   PO437584  26.130  16.884   9.616
 2722POPC   GL137585  26.094  16.879   9.191
 2722POPC   GL237586  25.863  16.619   9.142
 2722POPC   C1A37587  26.121  17.009   8.764
 2722POPC   D2A37588  26.038  16.792   8.387
 2722POPC   C3A37589  26.387  16.676   8.112
 2722POPC   C4A37590  26.373  16.421   7.770
 2722POPC   C1B37591  25.634  16.994   8.943
 2722POPC   C2B37592  25.444  17.104   8.521
 2722POPC   C3B37593  25.634  16.974   8.114
 2722POPC   C4B37594  25.987  16.810   7.851
 2723POPC   NC337595   6.464   3.748   9.539
 2723POPC   PO437596   6.935   3.310   9.258
 2723POPC   GL137597   6.476   3.377   9.131
 2723POPC   GL237598   6.477   3.737   9.037
 2723POPC   C1A37599   6.379   3.369   8.685
 2723POPC   D2A37600   6.793   3.405   8.581
 2723POPC   C3A37601   6.855   3.438   8.176
 2723POPC   C4A37602   6.709   3.429   7.795
 2723POPC   C1B37603   6.458   3.879   8.622
 2723POPC   C2B37604   6.774   4.035   8.343
 2723POPC   C3B37605   6.787   3.923   7.928
 2723POPC   C4B37606   6.368   3.861   7.758
 2724POPC   NC337607   4.139  14.307   9.577
 2724POPC   PO437608   3.921  14.866   9.289
 2724POPC   GL137609   4.176  14.553   8.997
 2724POPC   GL237610   4.440  14.312   9.072
 2724POPC   C1A37611   4.134  14.159   8.713
 2724POPC   D2A37612   3.936  14.088   8.324
 2724POPC   C3A37613   4.215  14.314   8.045
 2724POPC   C4A37614   4.540  14.489   7.744
 2724POPC   C1B37615   4.684  14.215   8.673
 2724POPC   C2B37616   4.709  14.241   8.208
 2724POPC   C3B37617   4.579  13.979   7.876
 2724POPC   C4B37618   4.633  14.014   7.395
 2725POPC   NC337619  27.857  37.060   9.542
 2725POPC   PO437620  27.213  37.182   9.473
 2725POPC   GL137621  27.445  36.890   9.189
 2725POPC   GL237622  27.763  36.698   9.188
 2725POPC   C1A37623  27.598  36.990   8.784
 2725POPC   D2A37624  27.357  37.138   8.445
 2725POPC   C3A37625  27.541  37.185   8.056
 2725POPC   C4A37626  27.542  36.937   7.714
 2725POPC   C1B37627  27.737  36.482   8.801
 2725POPC   C2B37628  27.589  36.621   8.407
 2725POPC   C3B37629  27.736  36.547   8.012
 2725POPC   C4B37630  27.755  36.261   7.677
 2726POPC   NC337631   3.649   1.080   9.647
 2726POPC   PO437632   4.170   0.814   9.426
 2726POPC   GL137633   3.888   1.022   9.161
 2726POPC   GL237634   3.672   1.317   9.193
 2726POPC   C1A37635   3.886   1.180   8.738
 2726POPC   D2A37636   3.634   1.153   8.381
 2726POPC   C3A37637   3.888   1.095   8.017
 2726POPC   C4A37638   3.818   1.113   7.579
 2726POPC   C1B37639   3.415   1.033   8.921
 2726POPC   C2B37640   3.139   1.032   8.561
 2726POPC   C3B37641   3.173   1.026   8.117
 2726POPC   C4B37642   3.426   1.277   7.877
 2727POPC   NC337643  31.953  28.242   9.640
 2727POPC   PO437644  31.420  28.627   9.452
 2727POPC   GL137645  31.500  28.383   9.125
 2727POPC   GL237646  31.490  28.038   9.240
 2727POPC   C1A37647  31.579  28.521   8.715
 2727POPC   D2A37648  31.826  28.466   8.351
 2727POPC   C3A37649  31.574  28.545   8.036
 2727POPC   C4A37650  31.423  28.489   7.652
 2727POPC   C1B37651  31.381  28.025   8.785
 2727POPC   C2B37652  31.333  28.216   8.365
 2727POPC   C3B37653  31.407  28.052   7.952
 2727POPC   C4B37654  31.140  27.848   7.674
 2728POPC   NC337655  38.796  29.853   9.588
 2728POPC   PO437656  38.231  29.788   9.347
 2728POPC   GL137657  38.374  30.075   9.094
 2728POPC   GL237658  38.276  30.366   9.227
 2728POPC   C1A37659  38.546  29.936   8.726
 2728POPC   D2A37660  38.661  29.673   8.432
 2728POPC   C3A37661  38.459  29.847   8.082
 2728POPC   C4A37662  38.620  29.680   7.710
 2728POPC   C1B37663  38.193  30.478   8.807
 2728POPC   C2B37664  38.335  30.302   8.424
 2728POPC   C3B37665  38.174  30.293   8.035
 2728POPC   C4B37666  38.047  29.984   7.752
 2729POPC   NC337667  16.670  26.751   9.466
 2729POPC   PO437668  17.181  26.897   9.292
 2729POPC   GL137669  16.797  26.938   8.982
 2729POPC   GL237670  16.420  26.981   9.077
 2729POPC   C1A37671  16.708  26.879   8.516
 2729POPC   D2A37672  16.861  26.726   8.081
 2729POPC   C3A37673  17.036  27.033   7.770
 2729POPC   C4A37674  16.859  27.301   7.452
 2729POPC   C1B37675  16.287  26.667   8.778
 2729POPC   C2B37676  16.364  26.511   8.364
 2729POPC   C3B37677  16.337  26.670   7.964
 2729POPC   C4B37678  16.557  26.916   7.685
 2730POPC   NC337679  29.296  21.658   9.458
 2730POPC   PO437680  28.894  22.139   9.371
 2730POPC   GL137681  29.120  22.179   9.022
 2730POPC   GL237682  29.411  21.993   9.069
 2730POPC   C1A37683  29.078  22.099   8.589
 2730POPC   D2A37684  28.783  21.927   8.301
 2730POPC   C3A37685  28.974  22.156   7.998
 2730POPC   C4A37686  29.320  22.465   7.962
 2730POPC   C1B37687  29.549  21.939   8.645
 2730POPC   C2B37688  29.438  21.973   8.204
 2730POPC   C3B37689  29.425  21.974   7.745
 2730POPC   C4B37690  29.290  21.691   7.408
 2731POPC   NC337691  38.079  37.483   9.486
 2731POPC   PO437692  38.747  37.580   9.576
 2731POPC   GL137693  38.517  37.733   9.226
 2731POPC   GL237694  38.779  37.963   9.164
 2731POPC   C1A37695  38.224  37.641   8.854
 2731POPC   D2A37696  38.175  37.320   8.491
 2731POPC   C3A37697  38.321  37.489   8.096
 2731POPC   C4A37698  38.230  37.344   7.688
 2731POPC   C1B37699  38.568  38.107   8.819
 2731POPC   C2B37700  38.507  37.889   8.421
 2731POPC   C3B37701  38.749  37.789   8.036
 2731POPC   C4B37702  38.497  37.767   7.679
 2732POPC   NC337703  40.867  10.928   9.388
 2732POPC   PO437704  40.873  11.638   9.471
 2732POPC   GL137705  40.956  11.386   9.126
 2732POPC   GL237706  40.621  11.206   9.065
 2732POPC   C1A37707  40.813  11.553   8.757
 2732POPC   D2A37708  40.844  11.313   8.449
 2732POPC   C3A37709  40.818  11.429   8.059
 2732POPC   C4A37710  40.684  11.448   7.644
 2732POPC   C1B37711  40.556  10.928   8.712
 2732POPC   C2B37712  40.697  10.856   8.279
 2732POPC   C3B37713  40.497  11.002   7.916
 2732POPC   C4B37714  40.489  11.033   7.429
 2733POPC   NC337715  13.590  17.199   9.606
 2733POPC   PO437716  14.108  17.533   9.527
 2733POPC   GL137717  13.837  17.443   9.158
 2733POPC   GL237718  13.458  17.464   9.145
 2733POPC   C1A37719  13.715  17.407   8.715
 2733POPC   D2A37720  13.466  17.426   8.339
 2733POPC   C3A37721  13.688  17.388   7.922
 2733POPC   C4A37722  14.106  17.238   7.882
 2733POPC   C1B37723  13.356  17.780   8.789
 2733POPC   C2B37724  13.086  17.768   8.406
 2733POPC   C3B37725  13.235  17.680   7.964
 2733POPC   C4B37726  13.282  17.430   7.579
 2734POPC   NC337727  38.495   0.042   9.404
 2734POPC   PO437728  38.258   0.663   9.544
 2734POPC   GL137729  38.353   0.480   9.137
 2734POPC   GL237730  38.240   0.823   9.044
 2734POPC   C1A37731  38.314   0.221   8.720
 2734POPC   D2A37732  38.533   0.187   8.310
 2734POPC   C3A37733  38.321   0.083   7.931
 2734POPC   C4A37734  38.509   0.251   7.578
 2734POPC   C1B37735  38.442   0.712   8.668
 2734POPC   C2B37736  38.228   0.575   8.337
 2734POPC   C3B37737  38.265   0.584   7.920
 2734POPC   C4B37738  38.082   0.511   7.537
 2735POPC   NC337739  21.049  39.523   9.440
 2735POPC   PO437740  21.344  40.124   9.608
 2735POPC   GL137741  21.162  39.984   9.217
 2735POPC   GL237742  20.919  40.215   9.089
 2735POPC   C1A37743  21.268  39.773   8.824
 2735POPC   D2A37744  21.533  39.917   8.475
 2735POPC   C3A37745  21.472  39.792   8.038
 2735POPC   C4A37746  21.213  39.812   7.684
 2735POPC   C1B37747  21.242  40.282   8.738
 2735POPC   C2B37748  21.344  40.400   8.297
 2735POPC   C3B37749  21.443  40.334   7.862
 2735POPC   C4B37750  21.652  40.066   7.559
 2736POPC   NC337751  34.116   6.504   9.507
 2736POPC   PO437752  34.783   6.529   9.496
 2736POPC   GL137753  34.646   6.693   9.116
 2736POPC   GL237754  34.308   6.825   9.128
 2736POPC   C1A37755  34.706   6.497   8.727
 2736POPC   D2A37756  34.626   6.353   8.325
 2736POPC   C3A37757  34.945   6.343   8.059
 2736POPC   C4A37758  34.844   6.551   7.721
 2736POPC   C1B37759  34.251   6.731   8.720
 2736POPC   C2B37760  34.459   6.898   8.396
 2736POPC   C3B37761  34.491   6.773   7.998
 2736POPC   C4B37762  34.769   7.044   7.759
 2737POPC   NC337763  31.022  32.513   9.885
 2737POPC   PO437764  30.603  32.848   9.393
 2737POPC   GL137765  30.619  33.149   9.055
 2737POPC   GL237766  30.914  33.124   8.888
 2737POPC   C1A37767  30.540  33.328   8.624
 2737POPC   D2A37768  30.736  33.141   8.264
 2737POPC   C3A37769  30.714  33.290   7.856
 2737POPC   C4A37770  30.530  33.299   7.459
 2737POPC   C1B37771  30.652  32.805   8.684
 2737POPC   C2B37772  30.715  32.627   8.271
 2737POPC   C3B37773  30.834  32.790   7.878
 2737POPC   C4B37774  30.529  32.510   7.704
 2738POPC   NC337775   0.047  34.481  10.138
 2738POPC   PO437776  44.983  34.303   9.492
 2738POPC   GL137777   0.003  34.547   9.096
 2738POPC   GL237778   0.368  34.520   9.006
 2738POPC   C1A37779   0.060  34.646   8.624
 2738POPC   D2A37780   0.312  34.404   8.320
 2738POPC   C3A37781   0.276  34.554   7.913
 2738POPC   C4A37782   0.400  34.951   7.757
 2738POPC   C1B37783   0.625  34.194   8.769
 2738POPC   C2B37784   0.670  34.018   8.354
 2738POPC   C3B37785   0.614  34.130   7.944
 2738POPC   C4B37786   0.587  34.324   7.570
 2739POPC   NC337787  12.181  26.576   9.845
 2739POPC   PO437788  11.938  26.755   9.232
 2739POPC   GL137789  12.210  26.924   8.948
 2739POPC   GL237790  11.999  27.190   8.860
 2739POPC   C1A37791  12.090  26.850   8.500
 2739POPC   D2A37792  12.071  26.508   8.241
 2739POPC   C3A37793  12.343  26.536   7.940
 2739POPC   C4A37794  12.289  26.620   7.515
 2739POPC   C1B37795  12.402  27.246   8.581
 2739POPC   C2B37796  12.457  27.141   8.139
 2739POPC   C3B37797  12.110  26.992   7.899
 2739POPC   C4B37798  11.833  27.164   7.610
 2740POPC   NC337799   3.977  27.851   9.522
 2740POPC   PO437800   4.523  27.392   9.493
 2740POPC   GL137801   4.336  27.580   9.124
 2740POPC   GL237802   3.992  27.489   9.076
 2740POPC   C1A37803   4.293  27.563   8.649
 2740POPC   D2A37804   4.180  27.434   8.247
 2740POPC   C3A37805   4.491  27.527   7.930
 2740POPC   C4A37806   4.482  27.796   7.598
 2740POPC   C1B37807   4.053  27.923   8.895
 2740POPC   C2B37808   4.059  28.078   8.485
 2740POPC   C3B37809   4.184  27.920   8.078
 2740POPC   C4B37810   4.001  27.671   7.767
 2741POPC   NC337811  16.682  28.959   9.638
 2741POPC   PO437812  16.615  28.368   9.620
 2741POPC   GL137813  16.698  28.637   9.208
 2741POPC   GL237814  16.608  29.020   9.143
 2741POPC   C1A37815  16.728  28.513   8.754
 2741POPC   D2A37816  16.826  28.736   8.350
 2741POPC   C3A37817  16.706  28.527   7.925
 2741POPC   C4A37818  16.898  28.339   7.537
 2741POPC   C1B37819  16.469  28.958   8.708
 2741POPC   C2B37820  16.424  29.056   8.246
 2741POPC   C3B37821  16.506  28.976   7.775
 2741POPC   C4B37822  16.494  28.644   7.441
 2742POPC   NC337823  35.998  20.946   9.718
 2742POPC   PO437824  36.280  20.588   9.341
 2742POPC   GL137825  36.227  20.744   9.022
 2742POPC   GL237826  35.887  20.859   9.187
 2742POPC   C1A37827  36.338  20.639   8.641
 2742POPC   D2A37828  36.041  20.462   8.354
 2742POPC   C3A37829  36.277  20.483   7.997
 2742POPC   C4A37830  36.282  20.414   7.586
 2742POPC   C1B37831  35.803  20.721   8.775
 2742POPC   C2B37832  35.610  20.746   8.405
 2742POPC   C3B37833  35.722  20.819   7.994
 2742POPC   C4B37834  35.934  20.743   7.611
 2743POPC   NC337835  29.385  28.760   9.506
 2743POPC   PO437836  28.815  29.044   9.447
 2743POPC   GL137837  29.112  29.165   9.111
 2743POPC   GL237838  29.430  28.963   9.027
 2743POPC   C1A37839  29.106  29.299   8.680
 2743POPC   D2A37840  29.186  29.516   8.286
 2743POPC   C3A37841  29.150  29.362   7.853
 2743POPC   C4A37842  29.010  29.183   7.483
 2743POPC   C1B37843  29.530  29.023   8.577
 2743POPC   C2B37844  29.249  29.020   8.244
 2743POPC   C3B37845  29.184  28.843   7.865
 2743POPC   C4B37846  29.454  28.945   7.551
 2744POPC   NC337847  39.167  11.610   9.696
 2744POPC   PO437848  39.739  11.351   9.524
 2744POPC   GL137849  39.434  11.449   9.210
 2744POPC   GL237850  39.489  11.796   9.244
 2744POPC   C1A37851  39.322  11.295   8.772
 2744POPC   D2A37852  39.419  11.125   8.344
 2744POPC   C3A37853  39.108  11.187   8.026
 2744POPC   C4A37854  39.151  11.182   7.587
 2744POPC   C1B37855  39.553  11.766   8.813
 2744POPC   C2B37856  39.350  11.734   8.428
 2744POPC   C3B37857  39.457  11.575   8.028
 2744POPC   C4B37858  39.467  11.628   7.573
 2745POPC   NC337859   6.307  18.908   9.319
 2745POPC   PO437860   6.847  19.110   9.687
 2745POPC   GL137861   6.775  19.106   9.233
 2745POPC   GL237862   7.049  18.968   9.054
 2745POPC   C1A37863   6.638  19.074   8.766
 2745POPC   D2A37864   6.828  19.075   8.343
 2745POPC   C3A37865   6.526  19.012   8.001
 2745POPC   C4A37866   6.562  18.995   7.531
 2745POPC   C1B37867   6.988  19.423   8.882
 2745POPC   C2B37868   6.849  19.561   8.446
 2745POPC   C3B37869   6.868  19.464   7.985
 2745POPC   C4B37870   6.962  19.365   7.550
 2746POPC   NC337871  19.882  18.838   9.424
 2746POPC   PO437872  19.707  19.469   9.448
 2746POPC   GL137873  19.643  19.162   9.081
 2746POPC   GL237874  19.521  18.799   9.052
 2746POPC   C1A37875  19.496  19.099   8.638
 2746POPC   D2A37876  19.487  18.895   8.213
 2746POPC   C3A37877  19.701  19.150   7.926
 2746POPC   C4A37878  20.094  19.254   7.794
 2746POPC   C1B37879  19.932  18.855   8.784
 2746POPC   C2B37880  19.959  19.010   8.382
 2746POPC   C3B37881  20.054  18.818   8.025
 2746POPC   C4B37882  19.897  18.805   7.595
 2747POPC   NC337883  13.153  10.857   9.465
 2747POPC   PO437884  12.792  11.454   9.559
 2747POPC   GL137885  12.784  11.164   9.209
 2747POPC   GL237886  13.004  11.391   9.112
 2747POPC   C1A37887  12.700  10.964   8.784
 2747POPC   D2A37888  12.772  11.161   8.355
 2747POPC   C3A37889  12.774  10.993   7.945
 2747POPC   C4A37890  12.716  11.196   7.570
 2747POPC   C1B37891  12.816  11.479   8.747
 2747POPC   C2B37892  12.965  11.645   8.368
 2747POPC   C3B37893  13.071  11.501   7.969
 2747POPC   C4B37894  13.315  11.591   7.589
 2748POPC   NC337895  19.561  40.594   9.629
 2748POPC   PO437896  19.782  41.215   9.473
 2748POPC   GL137897  19.931  40.852   9.221
 2748POPC   GL237898  19.681  40.581   9.143
 2748POPC   C1A37899  19.951  40.794   8.755
 2748POPC   D2A37900  20.237  40.852   8.382
 2748POPC   C3A37901  19.967  40.823   7.996
 2748POPC   C4A37902  19.649  41.104   7.832
 2748POPC   C1B37903  19.469  40.523   8.758
 2748POPC   C2B37904  19.635  40.611   8.366
 2748POPC   C3B37905  19.498  40.607   7.972
 2748POPC   C4B37906  19.749  40.609   7.585
 2749POPC   NC337907   4.732  21.355   9.473
 2749POPC   PO437908   5.106  21.859   9.759
 2749POPC   GL137909   5.121  21.633   9.287
 2749POPC   GL237910   5.211  21.277   9.216
 2749POPC   C1A37911   5.194  21.656   8.817
 2749POPC   D2A37912   5.214  21.368   8.451
 2749POPC   C3A37913   5.254  21.547   8.022
 2749POPC   C4A37914   4.859  21.670   7.829
 2749POPC   C1B37915   5.002  21.087   8.855
 2749POPC   C2B37916   4.789  21.067   8.455
 2749POPC   C3B37917   4.921  21.174   8.046
 2749POPC   C4B37918   4.710  21.224   7.651
 2750POPC   NC337919   1.334  44.314   9.271
 2750POPC   PO437920   1.207  44.920   9.466
 2750POPC   GL137921   1.160  44.752   9.055
 2750POPC   GL237922   1.546  44.746   9.093
 2750POPC   C1A37923   1.036  44.830   8.601
 2750POPC   D2A37924   1.259  44.725   8.248
 2750POPC   C3A37925   1.174  44.726   7.853
 2750POPC   C4A37926   0.910   0.004   7.735
 2750POPC   C1B37927   1.483  44.571   8.681
 2750POPC   C2B37928   1.525  44.297   8.338
 2750POPC   C3B37929   1.561  44.350   7.903
 2750POPC   C4B37930   1.508  44.203   7.469
 2751POPC   NC337931  25.735  35.695   9.261
 2751POPC   PO437932  26.062  35.108   9.548
 2751POPC   GL137933  25.829  35.176   9.204
 2751POPC   GL237934  26.084  35.375   9.076
 2751POPC   C1A37935  25.731  35.190   8.757
 2751POPC   D2A37936  25.768  35.438   8.376
 2751POPC   C3A37937  25.778  35.158   8.030
 2751POPC   C4A37938  25.859  35.222   7.597
 2751POPC   C1B37939  26.190  35.574   8.684
 2751POPC   C2B37940  26.208  35.652   8.226
 2751POPC   C3B37941  26.283  35.347   7.911
 2751POPC   C4B37942  26.613  35.048   7.780
 2752POPC   NC337943  20.479  38.816   9.413
 2752POPC   PO437944  20.125  38.295   9.536
 2752POPC   GL137945  20.269  38.276   9.115
 2752POPC   GL237946  20.607  38.362   9.209
 2752POPC   C1A37947  20.442  38.503   8.728
 2752POPC   D2A37948  20.748  38.714   8.435
 2752POPC   C3A37949  20.689  38.556   8.005
 2752POPC   C4A37950  20.387  38.255   7.795
 2752POPC   C1B37951  20.862  38.202   8.909
 2752POPC   C2B37952  20.994  38.283   8.493
 2752POPC   C3B37953  21.143  38.284   8.061
 2752POPC   C4B37954  20.906  38.193   7.702
 2753POPC   NC337955  31.874  18.442   9.364
 2753POPC   PO437956  32.482  18.286   9.422
 2753POPC   GL137957  32.315  18.375   9.042
 2753POPC   GL237958  32.286  18.729   9.110
 2753POPC   C1A37959  32.501  18.298   8.629
 2753POPC   D2A37960  32.569  18.530   8.223
 2753POPC   C3A37961  32.301  18.365   7.901
 2753POPC   C4A37962  32.035  17.986   7.888
 2753POPC   C1B37963  32.202  18.720   8.650
 2753POPC   C2B37964  32.039  18.410   8.354
 2753POPC   C3B37965  31.783  18.443   7.976
 2753POPC   C4B37966  31.840  18.695   7.599
 2754POPC   NC337967  38.213  15.829   9.741
 2754POPC   PO437968  38.705  16.087   9.370
 2754POPC   GL137969  38.494  15.882   9.049
 2754POPC   GL237970  38.140  15.839   9.086
 2754POPC   C1A37971  38.331  15.697   8.643
 2754POPC   D2A37972  38.175  15.869   8.256
 2754POPC   C3A37973  38.340  15.731   7.862
 2754POPC   C4A37974  38.354  15.985   7.458
 2754POPC   C1B37975  38.292  16.206   8.744
 2754POPC   C2B37976  38.628  16.182   8.417
 2754POPC   C3B37977  38.554  16.153   7.979
 2754POPC   C4B37978  38.063  16.170   7.816
 2755POPC   NC337979  30.958  23.465   9.551
 2755POPC   PO437980  30.482  24.063   9.498
 2755POPC   GL137981  30.444  23.752   9.158
 2755POPC   GL237982  30.795  23.604   9.085
 2755POPC   C1A37983  30.384  23.760   8.693
 2755POPC   D2A37984  30.217  23.580   8.266
 2755POPC   C3A37985  30.409  23.783   7.912
 2755POPC   C4A37986  30.553  23.625   7.504
 2755POPC   C1B37987  30.805  24.030   8.918
 2755POPC   C2B37988  30.813  24.009   8.488
 2755POPC   C3B37989  30.859  23.963   8.050
 2755POPC   C4B37990  30.860  23.524   7.943
 2756POPC   NC337991  25.015  38.920   9.545
 2756POPC   PO437992  25.485  39.311   9.434
 2756POPC   GL137993  25.240  39.286   9.072
 2756POPC   GL237994  25.098  39.005   9.046
 2756POPC   C1A37995  25.291  39.420   8.636
 2756POPC   D2A37996  25.302  39.312   8.208
 2756POPC   C3A37997  25.473  39.482   7.869
 2756POPC   C4A37998  25.406  39.273   7.507
 2756POPC   C1B37999  25.162  38.855   8.646
 2756POPC   C2B38000  25.063  38.723   8.224
 2756POPC   C3B38001  25.131  38.946   7.838
 2756POPC   C4B38002  24.920  39.108   7.470
 2757POPC   NC338003  41.968  44.709   9.487
 2757POPC   PO438004  42.467  44.320   9.612
 2757POPC   GL138005  42.333  44.542   9.187
 2757POPC   GL238006  42.594  44.634   9.049
 2757POPC   C1A38007  42.218  44.666   8.727
 2757POPC   D2A38008  42.065  44.514   8.339
 2757POPC   C3A38009  42.261  44.706   7.980
 2757POPC   C4A38010  42.093  44.538   7.631
 2757POPC   C1B38011  42.719  44.775   8.657
 2757POPC   C2B38012  42.693  44.558   8.266
 2757POPC   C3B38013  42.768  44.661   7.833
 2757POPC   C4B38014  42.601  44.676   7.398
 2758POPC   NC338015  12.694  17.617   9.459
 2758POPC   PO438016  13.161  17.215   9.485
 2758POPC   GL138017  12.972  17.199   9.112
 2758POPC   GL238018  12.610  17.243   9.089
 2758POPC   C1A38019  13.112  17.330   8.724
 2758POPC   D2A38020  12.985  17.239   8.324
 2758POPC   C3A38021  12.752  17.506   8.032
 2758POPC   C4A38022  12.779  17.458   7.578
 2758POPC   C1B38023  12.592  17.358   8.637
 2758POPC   C2B38024  12.328  17.543   8.317
 2758POPC   C3B38025  12.261  17.800   7.975
 2758POPC   C4B38026  12.455  17.847   7.597
 2759POPC   NC338027  37.128  26.115   9.329
 2759POPC   PO438028  37.750  26.028   9.573
 2759POPC   GL138029  37.646  26.137   9.200
 2759POPC   GL238030  37.871  26.417   9.200
 2759POPC   C1A38031  37.558  25.927   8.811
 2759POPC   D2A38032  37.797  25.796   8.459
 2759POPC   C3A38033  37.631  25.866   8.073
 2759POPC   C4A38034  37.880  25.925   7.700
 2759POPC   C1B38035  37.586  26.464   8.823
 2759POPC   C2B38036  37.522  26.284   8.411
 2759POPC   C3B38037  37.677  26.352   7.991
 2759POPC   C4B38038  37.486  26.221   7.632
 2760POPC   NC338039   9.909  41.232   9.450
 2760POPC   PO438040   9.504  41.726   9.649
 2760POPC   GL138041   9.765  41.791   9.220
 2760POPC   GL238042   9.877  41.471   9.020
 2760POPC   C1A38043   9.930  41.894   8.780
 2760POPC   D2A38044   9.969  41.554   8.453
 2760POPC   C3A38045   9.694  41.596   8.099
 2760POPC   C4A38046   9.859  41.764   7.771
 2760POPC   C1B38047   9.542  41.472   8.730
 2760POPC   C2B38048   9.552  41.176   8.388
 2760POPC   C3B38049   9.864  41.120   8.093
 2760POPC   C4B38050   9.602  41.159   7.790
 2761POPC   NC338051  24.444  12.400   9.440
 2761POPC   PO438052  24.176  11.784   9.537
 2761POPC   GL138053  24.381  11.926   9.135
 2761POPC   GL238054  24.411  12.247   8.970
 2761POPC   C1A38055  24.515  11.807   8.712
 2761POPC   D2A38056  24.351  11.819   8.301
 2761POPC   C3A38057  24.594  12.065   8.038
 2761POPC   C4A38058  24.884  11.805   7.815
 2761POPC   C1B38059  24.121  12.493   8.767
 2761POPC   C2B38060  24.128  12.346   8.380
 2761POPC   C3B38061  24.303  12.532   8.071
 2761POPC   C4B38062  24.079  12.564   7.703
 2762POPC   NC338063  27.680  15.474   9.802
 2762POPC   PO438064  27.521  14.840   9.498
 2762POPC   GL138065  27.710  15.121   9.212
 2762POPC   GL238066  27.819  14.953   8.886
 2762POPC   C1A38067  27.851  15.442   8.944
 2762POPC   D2A38068  27.837  15.376   8.441
 2762POPC   C3A38069  27.670  15.491   7.986
 2762POPC   C4A38070  27.554  15.361   7.522
 2762POPC   C1B38071  27.446  15.204   8.744
 2762POPC   C2B38072  27.320  15.236   8.306
 2762POPC   C3B38073  27.321  15.094   7.889
 2762POPC   C4B38074  27.736  14.923   7.745
 2763POPC   NC338075  34.215  32.938   9.573
 2763POPC   PO438076  33.695  33.386   9.598
 2763POPC   GL138077  33.694  33.158   9.200
 2763POPC   GL238078  33.378  33.282   9.184
 2763POPC   C1A38079  33.863  33.068   8.799
 2763POPC   D2A38080  33.942  32.851   8.425
 2763POPC   C3A38081  33.908  33.047   8.083
 2763POPC   C4A38082  34.062  33.114   7.718
 2763POPC   C1B38083  33.359  33.157   8.768
 2763POPC   C2B38084  33.553  33.251   8.397
 2763POPC   C3B38085  33.401  33.052   8.056
 2763POPC   C4B38086  33.575  32.955   7.680
 2764POPC   NC338087  37.663   4.201   9.613
 2764POPC   PO438088  37.048   4.588   9.509
 2764POPC   GL138089  37.443   4.545   9.241
 2764POPC   GL238090  37.808   4.514   9.137
 2764POPC   C1A38091  37.461   4.403   8.781
 2764POPC   D2A38092  37.791   4.302   8.478
 2764POPC   C3A38093  37.677   4.285   8.035
 2764POPC   C4A38094  37.756   4.185   7.578
 2764POPC   C1B38095  37.803   4.778   8.745
 2764POPC   C2B38096  37.606   4.759   8.337
 2764POPC   C3B38097  37.570   4.770   7.910
 2764POPC   C4B38098  37.851   4.705   7.548
 2765POPC   NC338099  10.673  33.414   9.588
 2765POPC   PO438100  10.408  34.007   9.500
 2765POPC   GL138101  10.277  34.010   9.085
 2765POPC   GL238102  10.189  33.654   9.151
 2765POPC   C1A38103  10.466  34.162   8.668
 2765POPC   D2A38104  10.539  34.163   8.202
 2765POPC   C3A38105  10.685  33.773   8.112
 2765POPC   C4A38106  10.793  33.570   7.778
 2765POPC   C1B38107  10.273  33.535   8.768
 2765POPC   C2B38108  10.264  33.763   8.403
 2765POPC   C3B38109  10.155  33.850   7.991
 2765POPC   C4B38110  10.258  33.616   7.626
 2766POPC   NC338111   3.366  14.189   9.464
 2766POPC   PO438112   3.792  14.535   9.780
 2766POPC   GL138113   3.751  14.383   9.213
 2766POPC   GL238114   3.397  14.327   8.990
 2766POPC   C1A38115   3.756  14.486   8.705
 2766POPC   D2A38116   3.438  14.312   8.387
 2766POPC   C3A38117   3.489  14.435   7.949
 2766POPC   C4A38118   3.893  14.534   7.714
 2766POPC   C1B38119   3.122  14.048   8.724
 2766POPC   C2B38120   3.062  13.951   8.287
 2766POPC   C3B38121   3.131  13.992   7.823
 2766POPC   C4B38122   3.291  14.061   7.400
 2767POPC   NC338123  32.612  17.835   9.400
 2767POPC   PO438124  32.146  17.344   9.438
 2767POPC   GL138125  32.356  17.484   9.090
 2767POPC   GL238126  32.720  17.404   9.103
 2767POPC   C1A38127  32.446  17.766   8.742
 2767POPC   D2A38128  32.620  17.714   8.315
 2767POPC   C3A38129  32.374  17.577   7.932
 2767POPC   C4A38130  32.046  17.546   7.595
 2767POPC   C1B38131  32.561  17.255   8.693
 2767POPC   C2B38132  32.471  17.198   8.273
 2767POPC   C3B38133  32.625  17.091   7.872
 2767POPC   C4B38134  32.497  17.316   7.489
 2768POPC   NC338135   3.774  31.663   9.394
 2768POPC   PO438136   3.565  32.165   9.545
 2768POPC   GL138137   3.544  32.190   9.085
 2768POPC   GL238138   3.730  31.921   8.969
 2768POPC   C1A38139   3.329  32.319   8.683
 2768POPC   D2A38140   3.475  32.413   8.258
 2768POPC   C3A38141   3.628  32.185   7.895
 2768POPC   C4A38142   3.538  32.450   7.535
 2768POPC   C1B38143   3.714  32.031   8.557
 2768POPC   C2B38144   3.405  31.911   8.266
 2768POPC   C3B38145   3.474  31.672   7.904
 2768POPC   C4B38146   3.741  31.657   7.523
 2769POPC   NC338147  14.776  22.188   9.805
 2769POPC   PO438148  14.331  22.443   9.386
 2769POPC   GL138149  14.338  22.323   9.004
 2769POPC   GL238150  14.457  21.988   8.938
 2769POPC   C1A38151  14.269  22.461   8.624
 2769POPC   D2A38152  14.243  22.154   8.347
 2769POPC   C3A38153  14.452  22.283   7.970
 2769POPC   C4A38154  14.353  22.147   7.541
 2769POPC   C1B38155  14.079  21.810   8.723
 2769POPC   C2B38156  13.887  21.781   8.283
 2769POPC   C3B38157  14.132  21.789   7.903
 2769POPC   C4B38158  14.523  21.683   7.702
 2770POPC   NC338159  18.587  40.754   9.791
 2770POPC   PO438160  18.262  40.329   9.454
 2770POPC   GL138161  18.156  40.671   9.115
 2770POPC   GL238162  17.961  40.945   9.002
 2770POPC   C1A38163  18.389  40.878   8.735
 2770POPC   D2A38164  18.308  40.890   8.279
 2770POPC   C3A38165  18.557  40.809   7.909
 2770POPC   C4A38166  18.441  40.534   7.570
 2770POPC   C1B38167  17.874  40.629   8.672
 2770POPC   C2B38168  17.886  40.594   8.205
 2770POPC   C3B38169  18.044  40.784   7.826
 2770POPC   C4B38170  17.827  41.064   7.542
 2771POPC   NC338171   5.136  16.350   9.601
 2771POPC   PO438172   5.348  16.991   9.621
 2771POPC   GL138173   5.167  16.754   9.252
 2771POPC   GL238174   5.376  16.450   9.150
 2771POPC   C1A38175   4.850  16.785   8.911
 2771POPC   D2A38176   4.992  16.735   8.497
 2771POPC   C3A38177   4.898  16.678   8.103
 2771POPC   C4A38178   4.916  16.843   7.747
 2771POPC   C1B38179   5.418  16.567   8.716
 2771POPC   C2B38180   5.370  16.525   8.247
 2771POPC   C3B38181   5.409  16.758   7.910
 2771POPC   C4B38182   5.438  16.658   7.500
 2772POPC   NC338183  43.406  18.741   9.545
 2772POPC   PO438184  42.832  19.010   9.601
 2772POPC   GL138185  43.155  19.110   9.228
 2772POPC   GL238186  43.420  19.324   9.021
 2772POPC   C1A38187  43.028  19.159   8.771
 2772POPC   D2A38188  43.071  18.949   8.379
 2772POPC   C3A38189  42.897  19.124   8.003
 2772POPC   C4A38190  43.071  19.160   7.605
 2772POPC   C1B38191  43.462  19.351   8.544
 2772POPC   C2B38192  43.382  19.268   8.105
 2772POPC   C3B38193  43.477  19.448   7.714
 2772POPC   C4B38194  43.684  19.622   7.347
 2773POPC   NC338195  38.139  35.313   9.410
 2773POPC   PO438196  38.688  35.491   9.698
 2773POPC   GL138197  38.516  35.599   9.270
 2773POPC   GL238198  38.565  35.289   9.105
 2773POPC   C1A38199  38.551  35.704   8.820
 2773POPC   D2A38200  38.696  35.377   8.555
 2773POPC   C3A38201  38.537  35.395   8.158
 2773POPC   C4A38202  38.285  35.459   7.812
 2773POPC   C1B38203  38.225  35.319   8.769
 2773POPC   C2B38204  38.071  35.278   8.367
 2773POPC   C3B38205  38.115  35.046   8.021
 2773POPC   C4B38206  37.914  35.140   7.661
 2774POPC   NC338207  10.927  20.957   9.410
 2774POPC   PO438208  11.451  21.226   9.813
 2774POPC   GL138209  11.313  21.347   9.300
 2774POPC   GL238210  11.178  21.735   9.237
 2774POPC   C1A38211  11.100  21.287   8.863
 2774POPC   D2A38212  11.216  21.079   8.474
 2774POPC   C3A38213  11.257  21.237   8.073
 2774POPC   C4A38214  11.094  21.512   7.813
 2774POPC   C1B38215  11.436  21.674   8.894
 2774POPC   C2B38216  11.347  21.578   8.479
 2774POPC   C3B38217  11.595  21.665   8.146
 2774POPC   C4B38218  11.672  21.457   7.802
 2775POPC   NC338219  31.831  27.461   9.554
 2775POPC   PO438220  31.219  27.606   9.433
 2775POPC   GL138221  31.405  27.553   9.058
 2775POPC   GL238222  31.775  27.613   9.074
 2775POPC   C1A38223  31.184  27.548   8.671
 2775POPC   D2A38224  31.090  27.725   8.266
 2775POPC   C3A38225  31.373  27.518   7.982
 2775POPC   C4A38226  31.763  27.667   7.823
 2775POPC   C1B38227  31.711  27.656   8.640
 2775POPC   C2B38228  31.767  27.934   8.300
 2775POPC   C3B38229  31.930  28.159   7.940
 2775POPC   C4B38230  31.724  28.106   7.544
 2776POPC   NC338231  42.365  27.473   9.477
 2776POPC   PO438232  41.766  27.883   9.464
 2776POPC   GL138233  42.136  27.806   9.176
 2776POPC   GL238234  41.995  27.567   9.033
 2776POPC   C1A38235  42.416  27.678   8.790
 2776POPC   D2A38236  42.217  27.416   8.456
 2776POPC   C3A38237  42.389  27.239   8.080
 2776POPC   C4A38238  42.417  27.378   7.684
 2776POPC   C1B38239  41.932  27.820   8.667
 2776POPC   C2B38240  42.171  27.920   8.332
 2776POPC   C3B38241  42.411  27.751   8.053
 2776POPC   C4B38242  42.556  27.893   7.701
 2777POPC   NC338243  41.320  40.420   9.342
 2777POPC   PO438244  41.623  39.856   9.618
 2777POPC   GL138245  41.614  40.031   9.193
 2777POPC   GL238246  41.259  40.012   9.032
 2777POPC   C1A38247  41.738  39.895   8.782
 2777POPC   D2A38248  41.688  39.750   8.372
 2777POPC   C3A38249  41.362  39.895   8.096
 2777POPC   C4A38250  41.441  39.863   7.670
 2777POPC   C1B38251  41.282  40.097   8.579
 2777POPC   C2B38252  41.418  40.379   8.241
 2777POPC   C3B38253  41.439  40.351   7.831
 2777POPC   C4B38254  41.165  40.242   7.496
 2778POPC   NC338255  34.403  23.257   9.497
 2778POPC   PO438256  34.933  22.768   9.446
 2778POPC   GL138257  34.660  22.931   9.067
 2778POPC   GL238258  34.441  23.218   8.991
 2778POPC   C1A38259  34.820  23.110   8.651
 2778POPC   D2A38260  35.057  23.106   8.255
 2778POPC   C3A38261  34.776  22.973   7.905
 2778POPC   C4A38262  34.590  22.794   7.540
 2778POPC   C1B38263  34.314  22.963   8.607
 2778POPC   C2B38264  34.233  22.583   8.288
 2778POPC   C3B38265  34.261  22.826   7.928
 2778POPC   C4B38266  34.287  23.220   7.794
 2779POPC   NC338267   4.897   6.472   9.382
 2779POPC   PO438268   5.435   6.809   9.390
 2779POPC   GL138269   5.268   6.598   9.051
 2779POPC   GL238270   4.891   6.645   8.920
 2779POPC   C1A38271   5.280   6.792   8.661
 2779POPC   D2A38272   5.010   6.769   8.346
 2779POPC   C3A38273   5.275   6.793   7.993
 2779POPC   C4A38274   5.383   6.484   7.733
 2779POPC   C1B38275   5.038   6.302   8.689
 2779POPC   C2B38276   4.947   6.172   8.310
 2779POPC   C3B38277   4.889   6.449   7.974
 2779POPC   C4B38278   4.906   6.429   7.573
 2780POPC   NC338279   9.128  19.043   9.494
 2780POPC   PO438280   9.066  19.653   9.369
 2780POPC   GL138281   8.909  19.290   9.081
 2780POPC   GL238282   8.904  18.870   9.075
 2780POPC   C1A38283   9.038  19.144   8.671
 2780POPC   D2A38284   9.136  19.225   8.269
 2780POPC   C3A38285   9.021  18.994   7.955
 2780POPC   C4A38286   9.190  18.876   7.605
 2780POPC   C1B38287   8.728  18.724   8.694
 2780POPC   C2B38288   8.648  18.892   8.286
 2780POPC   C3B38289   8.595  18.768   7.850
 2780POPC   C4B38290   8.759  18.616   7.481
 2781POPC   NC338291  20.208  14.639   9.515
 2781POPC   PO438292  20.749  14.160   9.463
 2781POPC   GL138293  20.501  14.242   9.097
 2781POPC   GL238294  20.500  14.608   9.100
 2781POPC   C1A38295  20.392  14.363   8.651
 2781POPC   D2A38296  20.682  14.353   8.282
 2781POPC   C3A38297  20.483  14.512   7.893
 2781POPC   C4A38298  20.471  14.386   7.444
 2781POPC   C1B38299  20.863  14.483   8.816
 2781POPC   C2B38300  20.984  14.757   8.462
 2781POPC   C3B38301  21.083  14.653   8.055
 2781POPC   C4B38302  20.940  14.460   7.698
 2782POPC   NC338303  19.402  24.206   9.526
 2782POPC   PO438304  18.863  24.202   9.663
 2782POPC   GL138305  18.925  24.290   9.201
 2782POPC   GL238306  19.228  24.472   9.070
 2782POPC   C1A38307  18.888  24.183   8.736
 2782POPC   D2A38308  18.822  24.364   8.308
 2782POPC   C3A38309  19.017  24.370   7.860
 2782POPC   C4A38310  18.857  24.224   7.398
 2782POPC   C1B38311  19.101  24.652   8.639
 2782POPC   C2B38312  19.047  24.812   8.198
 2782POPC   C3B38313  19.240  24.898   7.795
 2782POPC   C4B38314  19.305  24.975   7.332
 2783POPC   NC338315   3.677   7.856   9.389
 2783POPC   PO438316   3.637   7.188   9.491
 2783POPC   GL138317   3.505   7.272   9.072
 2783POPC   GL238318   3.470   7.611   8.970
 2783POPC   C1A38319   3.764   7.288   8.703
 2783POPC   D2A38320   3.672   7.553   8.367
 2783POPC   C3A38321   3.709   7.399   7.933
 2783POPC   C4A38322   3.522   7.625   7.604
 2783POPC   C1B38323   3.122   7.789   8.720
 2783POPC   C2B38324   3.169   7.868   8.315
 2783POPC   C3B38325   3.216   7.551   8.028
 2783POPC   C4B38326   2.942   7.558   7.703
 2784POPC   NC338327   5.652  41.098   9.443
 2784POPC   PO438328   6.013  41.736   9.585
 2784POPC   GL138329   5.865  41.515   9.241
 2784POPC   GL238330   5.803  41.817   9.114
 2784POPC   C1A38331   5.991  41.456   8.787
 2784POPC   D2A38332   5.782  41.319   8.399
 2784POPC   C3A38333   5.839  41.543   7.998
 2784POPC   C4A38334   6.070  41.395   7.636
 2784POPC   C1B38335   5.975  42.042   8.798
 2784POPC   C2B38336   6.100  41.924   8.410
 2784POPC   C3B38337   6.071  42.038   7.999
 2784POPC   C4B38338   6.155  41.882   7.620
 2785POPC   NC338339  41.108   1.830   9.438
 2785POPC   PO438340  41.743   1.948   9.477
 2785POPC   GL138341  41.686   2.022   9.064
 2785POPC   GL238342  41.338   1.918   9.001
 2785POPC   C1A38343  41.609   2.161   8.658
 2785POPC   D2A38344  41.476   1.973   8.254
 2785POPC   C3A38345  41.759   1.998   7.885
 2785POPC   C4A38346  41.648   1.805   7.528
 2785POPC   C1B38347  41.095   1.970   8.611
 2785POPC   C2B38348  40.977   2.010   8.161
 2785POPC   C3B38349  41.240   2.027   7.778
 2785POPC   C4B38350  41.462   2.351   7.538
 2786POPC   NC338351  36.367  38.909   9.685
 2786POPC   PO438352  35.705  38.858   9.458
 2786POPC   GL138353  36.092  39.056   9.239
 2786POPC   GL238354  36.229  39.434   9.242
 2786POPC   C1A38355  36.174  39.143   8.797
 2786POPC   D2A38356  36.244  38.955   8.388
 2786POPC   C3A38357  35.995  39.187   8.109
 2786POPC   C4A38358  35.823  39.060   7.730
 2786POPC   C1B38359  36.460  39.560   8.830
 2786POPC   C2B38360  36.335  39.469   8.415
 2786POPC   C3B38361  36.320  39.567   7.990
 2786POPC   C4B38362  36.488  39.354   7.629
 2787POPC   NC338363  35.945  20.233   9.373
 2787POPC   PO438364  36.207  19.606   9.413
 2787POPC   GL138365  36.212  19.792   9.063
 2787POPC   GL238366  36.403  20.084   9.173
 2787POPC   C1A38367  36.204  19.704   8.606
 2787POPC   D2A38368  36.008  19.916   8.284
 2787POPC   C3A38369  35.982  19.792   7.857
 2787POPC   C4A38370  35.865  20.085   7.551
 2787POPC   C1B38371  36.231  20.181   8.766
 2787POPC   C2B38372  36.448  20.147   8.392
 2787POPC   C3B38373  36.433  19.989   7.991
 2787POPC   C4B38374  36.522  20.002   7.544
 2788POPC   NC338375  34.468  32.343   9.613
 2788POPC   PO438376  33.859  32.638   9.619
 2788POPC   GL138377  34.157  32.536   9.234
 2788POPC   GL238378  34.543  32.528   9.143
 2788POPC   C1A38379  34.238  32.273   8.848
 2788POPC   D2A38380  34.531  32.367   8.517
 2788POPC   C3A38381  34.319  32.287   8.152
 2788POPC   C4A38382  34.409  32.304   7.708
 2788POPC   C1B38383  34.696  32.064   8.902
 2788POPC   C2B38384  34.694  31.887   8.432
 2788POPC   C3B38385  34.818  32.202   8.084
 2788POPC   C4B38386  34.903  32.267   7.617
 2789POPC   NC338387  16.341   8.519   9.467
 2789POPC   PO438388  16.593   7.863   9.404
 2789POPC   GL138389  16.770   8.115   9.099
 2789POPC   GL238390  16.966   8.419   9.081
 2789POPC   C1A38391  16.948   8.058   8.702
 2789POPC   D2A38392  16.943   8.291   8.324
 2789POPC   C3A38393  16.893   7.997   7.964
 2789POPC   C4A38394  16.592   8.087   7.637
 2789POPC   C1B38395  16.545   8.462   8.826
 2789POPC   C2B38396  16.373   8.639   8.447
 2789POPC   C3B38397  16.619   8.744   8.088
 2789POPC   C4B38398  16.912   8.499   7.854
 2790POPC   NC338399   5.185  14.688   9.611
 2790POPC   PO438400   5.324  14.169   9.247
 2790POPC   GL138401   5.036  14.332   9.017
 2790POPC   GL238402   4.875  14.566   9.205
 2790POPC   C1A38403   5.141  14.593   8.701
 2790POPC   D2A38404   5.379  14.653   8.340
 2790POPC   C3A38405   5.121  14.554   7.981
 2790POPC   C4A38406   4.983  14.242   7.678
 2790POPC   C1B38407   4.644  14.708   8.820
 2790POPC   C2B38408   4.765  14.737   8.379
 2790POPC   C3B38409   4.775  14.927   7.976
 2790POPC   C4B38410   4.932  14.795   7.557
 2791POPC   NC338411  14.733  26.871   9.567
 2791POPC   PO438412  15.273  26.563   9.647
 2791POPC   GL138413  15.038  26.633   9.258
 2791POPC   GL238414  15.141  26.962   9.243
 2791POPC   C1A38415  14.985  26.719   8.825
 2791POPC   D2A38416  15.191  26.735   8.441
 2791POPC   C3A38417  15.003  26.515   8.101
 2791POPC   C4A38418  15.108  26.707   7.728
 2791POPC   C1B38419  15.392  27.033   8.848
 2791POPC   C2B38420  15.525  27.111   8.398
 2791POPC   C3B38421  15.441  27.134   7.953
 2791POPC   C4B38422  15.722  27.293   7.624
 2792POPC   NC338423   9.069  23.092   9.497
 2792POPC   PO438424   8.773  22.556   9.724
 2792POPC   GL138425   8.726  22.665   9.242
 2792POPC   GL238426   8.853  22.964   9.011
 2792POPC   C1A38427   8.688  22.506   8.821
 2792POPC   D2A38428   8.984  22.633   8.479
 2792POPC   C3A38429   8.870  22.927   8.165
 2792POPC   C4A38430   8.635  22.843   7.787
 2792POPC   C1B38431   9.065  23.148   8.646
 2792POPC   C2B38432   9.400  22.967   8.403
 2792POPC   C3B38433   9.361  22.819   7.982
 2792POPC   C4B38434   9.069  23.038   7.692
 2793POPC   NC338435  22.342  42.599   9.812
 2793POPC   PO438436  21.887  42.318   9.476
 2793POPC   GL138437  21.938  42.245   9.015
 2793POPC   GL238438  21.732  41.985   8.922
 2793POPC   C1A38439  22.187  42.350   8.600
 2793POPC   D2A38440  22.510  42.331   8.242
 2793POPC   C3A38441  22.419  42.459   7.779
 2793POPC   C4A38442  22.732  42.440   7.461
 2793POPC   C1B38443  21.708  42.124   8.533
 2793POPC   C2B38444  21.649  42.462   8.214
 2793POPC   C3B38445  21.756  42.657   7.815
 2793POPC   C4B38446  22.067  42.806   7.530
 2794POPC   NC338447   4.265  26.380   9.402
 2794POPC   PO438448   4.107  25.751   9.404
 2794POPC   GL138449   4.336  25.946   9.089
 2794POPC   GL238450   4.037  26.131   9.037
 2794POPC   C1A38451   4.365  26.046   8.631
 2794POPC   D2A38452   4.336  26.220   8.216
 2794POPC   C3A38453   4.271  25.924   7.871
 2794POPC   C4A38454   4.523  26.024   7.536
 2794POPC   C1B38455   3.879  26.229   8.677
 2794POPC   C2B38456   3.889  26.477   8.350
 2794POPC   C3B38457   3.883  26.272   7.956
 2794POPC   C4B38458   4.112  26.320   7.580
 2795POPC   NC338459  30.107  12.948   9.489
 2795POPC   PO438460  29.639  12.547   9.332
 2795POPC   GL138461  29.745  12.976   9.108
 2795POPC   GL238462  30.089  13.205   9.070
 2795POPC   C1A38463  29.685  12.962   8.672
 2795POPC   D2A38464  29.740  12.726   8.314
 2795POPC   C3A38465  29.611  12.888   7.916
 2795POPC   C4A38466  29.947  12.816   7.644
 2795POPC   C1B38467  30.173  12.895   8.798
 2795POPC   C2B38468  30.136  13.031   8.407
 2795POPC   C3B38469  30.057  13.149   8.025
 2795POPC   C4B38470  30.382  13.028   7.771
 2796POPC   NC338471  31.575  20.199   9.461
 2796POPC   PO438472  31.200  19.547   9.434
 2796POPC   GL138473  31.384  19.824   9.084
 2796POPC   GL238474  31.761  19.902   9.097
 2796POPC   C1A38475  31.145  19.878   8.699
 2796POPC   D2A38476  31.061  20.165   8.375
 2796POPC   C3A38477  31.052  19.992   8.000
 2796POPC   C4A38478  31.400  19.968   7.731
 2796POPC   C1B38479  31.667  19.942   8.674
 2796POPC   C2B38480  31.464  19.777   8.300
 2796POPC   C3B38481  31.730  19.662   7.980
 2796POPC   C4B38482  31.917  19.981   7.702
 2797POPC   NC338483   1.210  25.183   9.567
 2797POPC   PO438484   1.764  24.906   9.350
 2797POPC   GL138485   1.548  25.344   9.193
 2797POPC   GL238486   1.285  25.201   9.082
 2797POPC   C1A38487   1.194  25.642   8.891
 2797POPC   D2A38488   1.294  25.741   8.457
 2797POPC   C3A38489   1.061  25.637   8.089
 2797POPC   C4A38490   1.061  25.450   7.690
 2797POPC   C1B38491   1.473  25.274   8.696
 2797POPC   C2B38492   1.214  25.250   8.399
 2797POPC   C3B38493   1.325  25.177   8.038
 2797POPC   C4B38494   1.271  24.973   7.696
 2798POPC   NC338495  21.210  31.741   9.340
 2798POPC   PO438496  21.380  32.349   9.540
 2798POPC   GL138497  21.285  32.470   9.128
 2798POPC   GL238498  21.062  32.189   9.047
 2798POPC   C1A38499  21.533  32.449   8.741
 2798POPC   D2A38500  21.655  32.241   8.355
 2798POPC   C3A38501  21.552  32.458   7.993
 2798POPC   C4A38502  21.534  32.126   7.730
 2798POPC   C1B38503  20.878  32.085   8.655
 2798POPC   C2B38504  21.040  31.864   8.313
 2798POPC   C3B38505  21.218  31.750   7.965
 2798POPC   C4B38506  21.104  31.910   7.579
 2799POPC   NC338507  19.919   1.098   9.340
 2799POPC   PO438508  19.278   1.163   9.418
 2799POPC   GL138509  19.499   1.115   9.067
 2799POPC   GL238510  19.614   1.440   9.049
 2799POPC   C1A38511  19.761   1.122   8.689
 2799POPC   D2A38512  19.843   1.405   8.356
 2799POPC   C3A38513  19.895   1.130   8.003
 2799POPC   C4A38514  19.775   0.921   7.634
 2799POPC   C1B38515  19.957   1.659   8.802
 2799POPC   C2B38516  20.232   1.709   8.410
 2799POPC   C3B38517  20.089   1.644   7.949
 2799POPC   C4B38518  20.115   1.340   7.577
 2800POPC   NC338519  22.961  37.399   9.525
 2800POPC   PO438520  23.017  38.041   9.539
 2800POPC   GL138521  23.112  37.814   9.128
 2800POPC   GL238522  23.241  37.450   9.097
 2800POPC   C1A38523  22.819  37.631   8.798
 2800POPC   D2A38524  22.735  37.663   8.345
 2800POPC   C3A38525  23.023  37.959   8.135
 2800POPC   C4A38526  23.066  38.145   7.730
 2800POPC   C1B38527  23.309  37.537   8.648
 2800POPC   C2B38528  23.175  37.394   8.229
 2800POPC   C3B38529  23.006  37.544   7.835
 2800POPC   C4B38530  22.715  37.448   7.521
 2801POPC   NC338531  30.241  14.450   9.511
 2801POPC   PO438532  30.928  14.023   9.653
 2801POPC   GL138533  31.055  14.191   9.200
 2801POPC   GL238534  30.811  14.491   9.046
 2801POPC   C1A38535  30.974  14.112   8.763
 2801POPC   D2A38536  30.860  14.437   8.433
 2801POPC   C3A38537  30.810  14.378   7.985
 2801POPC   C4A38538  30.424  14.499   7.762
 2801POPC   C1B38539  30.481  14.301   8.748
 2801POPC   C2B38540  30.287  14.033   8.454
 2801POPC   C3B38541  30.371  14.103   8.068
 2801POPC   C4B38542  30.283  13.991   7.677
 2802POPC   NC338543  29.313  27.797   9.493
 2802POPC   PO438544  29.053  27.167   9.512
 2802POPC   GL138545  28.971  27.488   9.205
 2802POPC   GL238546  29.322  27.444   9.104
 2802POPC   C1A38547  28.988  27.655   8.764
 2802POPC   D2A38548  29.240  27.485   8.412
 2802POPC   C3A38549  29.188  27.631   8.006
 2802POPC   C4A38550  29.379  27.718   7.622
 2802POPC   C1B38551  29.582  27.247   8.777
 2802POPC   C2B38552  29.569  27.083   8.345
 2802POPC   C3B38553  29.589  27.297   7.945
 2802POPC   C4B38554  29.515  27.238   7.521
 2803POPC   NC338555  24.185  19.318   9.882
 2803POPC   PO438556  24.416  18.791   9.492
 2803POPC   GL138557  24.534  18.851   9.101
 2803POPC   GL238558  24.203  18.818   9.022
 2803POPC   C1A38559  24.702  18.914   8.689
 2803POPC   D2A38560  24.617  19.247   8.420
 2803POPC   C3A38561  24.747  19.153   8.014
 2803POPC   C4A38562  24.607  18.847   7.749
 2803POPC   C1B38563  24.216  19.060   8.686
 2803POPC   C2B38564  24.054  19.184   8.323
 2803POPC   C3B38565  24.227  19.107   7.944
 2803POPC   C4B38566  24.134  18.928   7.530
 2804POPC   NC338567  14.350  24.674   9.479
 2804POPC   PO438568  13.838  24.230   9.644
 2804POPC   GL138569  14.085  24.185   9.186
 2804POPC   GL238570  14.436  24.334   9.121
 2804POPC   C1A38571  14.189  24.247   8.691
 2804POPC   D2A38572  14.452  24.578   8.471
 2804POPC   C3A38573  14.347  24.754   8.059
 2804POPC   C4A38574  14.255  24.842   7.625
 2804POPC   C1B38575  14.683  24.208   8.771
 2804POPC   C2B38576  14.621  24.057   8.354
 2804POPC   C3B38577  14.336  24.211   8.084
 2804POPC   C4B38578  14.428  24.372   7.708
 2805POPC   NC338579   3.596  23.840   9.574
 2805POPC   PO438580   2.960  23.475   9.453
 2805POPC   GL138581   3.372  23.472   9.182
 2805POPC   GL238582   3.736  23.658   9.129
 2805POPC   C1A38583   3.476  23.497   8.734
 2805POPC   D2A38584   3.292  23.363   8.359
 2805POPC   C3A38585   3.419  23.608   8.029
 2805POPC   C4A38586   3.688  23.392   7.763
 2805POPC   C1B38587   3.848  23.865   8.750
 2805POPC   C2B38588   3.825  23.642   8.349
 2805POPC   C3B38589   3.970  23.767   7.947
 2805POPC   C4B38590   3.630  23.916   7.658
 2806POPC   NC338591   4.280  38.172  10.138
 2806POPC   PO438592   4.336  37.689   9.685
 2806POPC   GL138593   4.402  37.876   9.199
 2806POPC   GL238594   4.418  37.630   8.945
 2806POPC   C1A38595   4.212  38.089   8.773
 2806POPC   D2A38596   4.080  38.147   8.301
 2806POPC   C3A38597   4.314  37.915   7.949
 2806POPC   C4A38598   4.672  37.631   7.936
 2806POPC   C1B38599   4.113  37.590   8.627
 2806POPC   C2B38600   4.032  37.597   8.205
 2806POPC   C3B38601   3.978  37.358   7.827
 2806POPC   C4B38602   3.961  37.236   7.389
 2807POPC   NC338603  38.319   3.535   9.745
 2807POPC   PO438604  38.437   2.925   9.528
 2807POPC   GL138605  38.487   2.663   9.173
 2807POPC   GL238606  38.567   2.331   9.295
 2807POPC   C1A38607  38.295   2.719   8.757
 2807POPC   D2A38608  38.210   3.065   8.455
 2807POPC   C3A38609  38.196   2.910   8.031
 2807POPC   C4A38610  38.253   3.069   7.617
 2807POPC   C1B38611  38.611   2.305   8.850
 2807POPC   C2B38612  38.450   2.330   8.438
 2807POPC   C3B38613  38.601   2.371   8.040
 2807POPC   C4B38614  38.435   2.596   7.685
 2808POPC   NC338615   9.579  32.779   9.332
 2808POPC   PO438616  10.148  33.161   9.569
 2808POPC   GL138617   9.933  33.108   9.182
 2808POPC   GL238618  10.034  32.745   9.144
 2808POPC   C1A38619   9.688  33.165   8.772
 2808POPC   D2A38620   9.448  33.241   8.389
 2808POPC   C3A38621   9.670  33.120   8.017
 2808POPC   C4A38622   9.514  32.799   7.761
 2808POPC   C1B38623  10.003  32.549   8.753
 2808POPC   C2B38624   9.893  32.726   8.362
 2808POPC   C3B38625  10.080  32.659   7.959
 2808POPC   C4B38626  10.282  32.725   7.553
 2809POPC   NC338627  23.427  33.841   9.553
 2809POPC   PO438628  24.076  34.097   9.647
 2809POPC   GL138629  23.862  33.831   9.266
 2809POPC   GL238630  23.548  33.633   9.100
 2809POPC   C1A38631  23.931  33.775   8.815
 2809POPC   D2A38632  23.924  33.990   8.440
 2809POPC   C3A38633  23.944  33.806   8.063
 2809POPC   C4A38634  23.745  33.820   7.706
 2809POPC   C1B38635  23.555  33.397   8.731
 2809POPC   C2B38636  23.563  33.583   8.342
 2809POPC   C3B38637  23.380  33.586   7.971
 2809POPC   C4B38638  23.432  33.403   7.561
 2810POPC   NC338639  43.880  32.538   9.429
 2810POPC   PO438640  44.166  31.957   9.532
 2810POPC   GL138641  43.956  32.130   9.121
 2810POPC   GL238642  43.704  32.418   8.986
 2810POPC   C1A38643  44.103  32.315   8.717
 2810POPC   D2A38644  44.200  32.087   8.371
 2810POPC   C3A38645  44.190  32.363   8.061
 2810POPC   C4A38646  44.093  32.309   7.672
 2810POPC   C1B38647  43.621  32.220   8.608
 2810POPC   C2B38648  43.699  32.358   8.181
 2810POPC   C3B38649  43.588  32.247   7.740
 2810POPC   C4B38650  43.445  32.152   7.332
 2811POPC   NC338651   2.997  28.735   9.353
 2811POPC   PO438652   2.652  28.190   9.449
 2811POPC   GL138653   2.671  28.379   9.084
 2811POPC   GL238654   2.524  28.694   9.160
 2811POPC   C1A38655   2.777  28.193   8.695
 2811POPC   D2A38656   2.862  27.956   8.325
 2811POPC   C3A38657   2.831  28.202   7.978
 2811POPC   C4A38658   2.765  28.574   7.768
 2811POPC   C1B38659   2.395  28.663   8.737
 2811POPC   C2B38660   2.528  28.497   8.360
 2811POPC   C3B38661   2.351  28.153   8.136
 2811POPC   C4B38662   2.410  28.054   7.692
 2812POPC   NC338663  13.601   7.094   9.533
 2812POPC   PO438664  14.060   7.513   9.427
 2812POPC   GL138665  13.839   7.304   9.105
 2812POPC   GL238666  13.464   7.162   9.065
 2812POPC   C1A38667  13.817   7.518   8.741
 2812POPC   D2A38668  13.459   7.660   8.512
 2812POPC   C3A38669  13.428   7.544   8.089
 2812POPC   C4A38670  13.670   7.702   7.735
 2812POPC   C1B38671  13.627   7.030   8.712
 2812POPC   C2B38672  13.776   7.213   8.339
 2812POPC   C3B38673  13.864   7.279   7.940
 2812POPC   C4B38674  13.740   7.056   7.573
 2813POPC   NC338675  10.167  13.700   9.483
 2813POPC   PO438676  10.838  13.914   9.498
 2813POPC   GL138677  10.584  13.772   9.171
 2813POPC   GL238678  10.516  13.418   9.088
 2813POPC   C1A38679  10.510  13.862   8.761
 2813POPC   D2A38680  10.522  13.575   8.415
 2813POPC   C3A38681  10.544  13.798   8.038
 2813POPC   C4A38682  10.296  13.953   7.708
 2813POPC   C1B38683  10.705  13.141   8.753
 2813POPC   C2B38684  10.867  13.176   8.339
 2813POPC   C3B38685  10.595  13.274   7.985
 2813POPC   C4B38686  10.576  13.530   7.615
 2814POPC   NC338687   8.715  39.529   9.646
 2814POPC   PO438688   8.209  39.112   9.672
 2814POPC   GL138689   8.187  39.120   9.203
 2814POPC   GL238690   8.188  38.811   9.071
 2814POPC   C1A38691   8.068  39.205   8.745
 2814POPC   D2A38692   8.129  39.429   8.337
 2814POPC   C3A38693   7.891  39.308   7.974
 2814POPC   C4A38694   8.049  39.386   7.579
 2814POPC   C1B38695   8.116  38.678   8.704
 2814POPC   C2B38696   8.130  38.896   8.336
 2814POPC   C3B38697   8.142  38.871   7.920
 2814POPC   C4B38698   7.951  38.802   7.574
 2815POPC   NC338699   7.980  16.307   9.359
 2815POPC   PO438700   7.873  15.580   9.275
 2815POPC   GL138701   7.932  15.918   9.034
 2815POPC   GL238702   8.263  15.975   9.060
 2815POPC   C1A38703   7.986  16.011   8.625
 2815POPC   D2A38704   7.828  15.902   8.239
 2815POPC   C3A38705   8.070  15.703   7.911
 2815POPC   C4A38706   8.036  15.803   7.484
 2815POPC   C1B38707   8.482  16.171   8.699
 2815POPC   C2B38708   8.326  16.172   8.284
 2815POPC   C3B38709   8.133  16.216   7.898
 2815POPC   C4B38710   8.493  16.035   7.708
 2816POPC   NC338711   5.844   8.450   9.350
 2816POPC   PO438712   6.042   9.021   9.699
 2816POPC   GL138713   5.832   9.018   9.251
 2816POPC   GL238714   5.939   8.806   8.996
 2816POPC   C1A38715   5.609   9.140   8.838
 2816POPC   D2A38716   5.624   9.275   8.386
 2816POPC   C3A38717   5.390   9.098   8.030
 2816POPC   C4A38718   5.518   9.175   7.580
 2816POPC   C1B38719   6.110   9.096   8.664
 2816POPC   C2B38720   6.214   9.070   8.221
 2816POPC   C3B38721   6.214   9.037   7.783
 2816POPC   C4B38722   5.938   8.807   7.452
 2817POPC   NC338723  38.021  15.249   9.444
 2817POPC   PO438724  37.346  15.086   9.502
 2817POPC   GL138725  37.615  15.050   9.180
 2817POPC   GL238726  37.943  14.867   9.131
 2817POPC   C1A38727  37.738  15.319   8.852
 2817POPC   D2A38728  37.840  15.533   8.492
 2817POPC   C3A38729  37.746  15.363   8.095
 2817POPC   C4A38730  37.417  15.430   7.825
 2817POPC   C1B38731  37.791  14.799   8.782
 2817POPC   C2B38732  37.783  14.989   8.434
 2817POPC   C3B38733  37.939  14.894   8.078
 2817POPC   C4B38734  37.724  15.019   7.699
 2818POPC   NC338735  10.687  25.716   9.485
 2818POPC   PO438736  10.194  26.232   9.452
 2818POPC   GL138737  10.402  26.121   9.089
 2818POPC   GL238738  10.744  26.094   9.161
 2818POPC   C1A38739  10.581  26.278   8.683
 2818POPC   D2A38740  10.606  26.396   8.261
 2818POPC   C3A38741  10.829  26.234   7.922
 2818POPC   C4A38742  10.436  26.061   7.818
 2818POPC   C1B38743  10.655  25.797   8.804
 2818POPC   C2B38744  10.799  25.904   8.374
 2818POPC   C3B38745  10.858  25.706   7.950
 2818POPC   C4B38746  10.828  25.854   7.512
 2819POPC   NC338747  41.723  25.632   9.387
 2819POPC   PO438748  41.815  26.280   9.517
 2819POPC   GL138749  41.461  26.231   9.242
 2819POPC   GL238750  41.716  26.066   9.056
 2819POPC   C1A38751  41.412  26.357   8.791
 2819POPC   D2A38752  41.573  26.203   8.413
 2819POPC   C3A38753  41.291  26.348   8.100
 2819POPC   C4A38754  41.281  26.497   7.683
 2819POPC   C1B38755  41.870  25.833   8.710
 2819POPC   C2B38756  41.973  25.882   8.284
 2819POPC   C3B38757  41.664  25.902   7.961
 2819POPC   C4B38758  41.597  25.650   7.573
 2820POPC   NC338759  28.864  17.727   9.458
 2820POPC   PO438760  28.194  17.403   9.537
 2820POPC   GL138761  28.409  17.570   9.212
 2820POPC   GL238762  28.668  17.359   9.136
 2820POPC   C1A38763  28.461  17.767   8.823
 2820POPC   D2A38764  28.210  17.840   8.489
 2820POPC   C3A38765  28.396  17.948   8.134
 2820POPC   C4A38766  28.400  17.761   7.750
 2820POPC   C1B38767  28.532  17.287   8.742
 2820POPC   C2B38768  28.572  17.481   8.333
 2820POPC   C3B38769  28.503  17.286   7.924
 2820POPC   C4B38770  28.785  17.319   7.575
 2821POPC   NC338771  17.605  44.371   9.499
 2821POPC   PO438772  17.473  44.957   9.488
 2821POPC   GL138773  17.734  44.759   9.144
 2821POPC   GL238774  17.403  44.699   9.021
 2821POPC   C1A38775  17.772  44.586   8.691
 2821POPC   D2A38776  17.516  44.520   8.300
 2821POPC   C3A38777  17.630  44.625   7.878
 2821POPC   C4A38778  17.576  44.375   7.486
 2821POPC   C1B38779  17.402  44.966   8.649
 2821POPC   C2B38780  17.188   0.004   8.252
 2821POPC   C3B38781  17.343   0.081   7.873
 2821POPC   C4B38782  17.768   0.122   7.774
 2822POPC   NC338783  33.222  20.699   9.518
 2822POPC   PO438784  32.550  20.894   9.500
 2822POPC   GL138785  32.746  20.546   9.218
 2822POPC   GL238786  33.045  20.306   9.226
 2822POPC   C1A38787  32.929  20.607   8.838
 2822POPC   D2A38788  32.831  20.800   8.477
 2822POPC   C3A38789  33.144  20.846   8.193
 2822POPC   C4A38790  32.906  20.916   7.838
 2822POPC   C1B38791  32.985  20.104   8.806
 2822POPC   C2B38792  33.039  20.332   8.412
 2822POPC   C3B38793  33.023  20.346   7.976
 2822POPC   C4B38794  32.674  20.449   7.719
 2823POPC   NC338795   7.538   4.909   9.578
 2823POPC   PO438796   7.432   5.508   9.338
 2823POPC   GL138797   7.552   5.131   9.127
 2823POPC   GL238798   7.240   4.918   9.144
 2823POPC   C1A38799   7.533   5.065   8.711
 2823POPC   D2A38800   7.432   5.359   8.398
 2823POPC   C3A38801   7.429   5.109   8.059
 2823POPC   C4A38802   7.631   5.013   7.712
 2823POPC   C1B38803   7.042   5.173   8.818
 2823POPC   C2B38804   6.996   5.074   8.397
 2823POPC   C3B38805   6.942   5.256   8.021
 2823POPC   C4B38806   7.055   4.908   7.755
 2824POPC   NC338807  35.854  23.697   9.316
 2824POPC   PO438808  35.193  23.625   9.595
 2824POPC   GL138809  35.308  23.560   9.161
 2824POPC   GL238810  35.367  23.902   9.154
 2824POPC   C1A38811  35.253  23.412   8.707
 2824POPC   D2A38812  35.020  23.645   8.393
 2824POPC   C3A38813  35.099  23.636   7.997
 2824POPC   C4A38814  35.222  23.301   7.773
 2824POPC   C1B38815  35.268  23.945   8.725
 2824POPC   C2B38816  35.473  23.934   8.314
 2824POPC   C3B38817  35.469  23.956   7.866
 2824POPC   C4B38818  35.432  23.695   7.469
 2825POPC   NC338819  39.130  36.315   9.445
 2825POPC   PO438820  39.604  35.790   9.485
 2825POPC   GL138821  39.565  35.997   9.070
 2825POPC   GL238822  39.474  36.350   9.074
 2825POPC   C1A38823  39.473  35.873   8.631
 2825POPC   D2A38824  39.608  35.691   8.262
 2825POPC   C3A38825  39.502  35.926   7.895
 2825POPC   C4A38826  39.612  36.346   7.778
 2825POPC   C1B38827  39.173  36.246   8.757
 2825POPC   C2B38828  39.231  36.231   8.318
 2825POPC   C3B38829  39.119  36.306   7.923
 2825POPC   C4B38830  38.838  36.143   7.687
 2826POPC   NC338831  26.969  16.065   9.429
 2826POPC   PO438832  26.349  15.908   9.633
 2826POPC   GL138833  26.552  15.867   9.175
 2826POPC   GL238834  26.906  15.688   9.086
 2826POPC   C1A38835  26.689  15.972   8.720
 2826POPC   D2A38836  26.533  15.870   8.297
 2826POPC   C3A38837  26.738  16.054   7.930
 2826POPC   C4A38838  26.664  16.180   7.458
 2826POPC   C1B38839  27.118  15.617   8.673
 2826POPC   C2B38840  27.298  15.749   8.252
 2826POPC   C3B38841  27.181  15.619   7.820
 2826POPC   C4B38842  26.788  15.691   7.531
 2827POPC   NC338843  10.225  19.543   9.429
 2827POPC   PO438844  10.449  19.011   9.465
 2827POPC   GL138845  10.598  19.012   9.082
 2827POPC   GL238846  10.617  19.391   9.100
 2827POPC   C1A38847  10.396  18.827   8.731
 2827POPC   D2A38848  10.387  18.889   8.300
 2827POPC   C3A38849  10.323  18.941   7.871
 2827POPC   C4A38850  10.720  19.020   7.665
 2827POPC   C1B38851  10.492  19.333   8.689
 2827POPC   C2B38852  10.673  19.322   8.279
 2827POPC   C3B38853  10.456  19.432   7.930
 2827POPC   C4B38854  10.367  19.380   7.522
 2828POPC   NC338855   4.145  44.584   9.501
 2828POPC   PO438856   4.657  44.958   9.248
 2828POPC   GL138857   4.360  44.701   9.017
 2828POPC   GL238858   3.982  44.716   9.054
 2828POPC   C1A38859   4.227  44.732   8.602
 2828POPC   D2A38860   4.348  44.546   8.251
 2828POPC   C3A38861   4.434  44.865   7.946
 2828POPC   C4A38862   4.322  44.854   7.494
 2828POPC   C1B38863   3.716  44.698   8.726
 2828POPC   C2B38864   3.741  44.829   8.370
 2828POPC   C3B38865   3.939  44.800   8.035
 2828POPC   C4B38866   3.859  44.597   7.694
 2829POPC   NC338867  40.575  24.106   9.473
 2829POPC   PO438868  40.831  23.512   9.271
 2829POPC   GL138869  40.854  23.872   9.092
 2829POPC   GL238870  40.499  23.842   9.037
 2829POPC   C1A38871  40.866  23.795   8.686
 2829POPC   D2A38872  40.920  23.435   8.440
 2829POPC   C3A38873  40.775  23.544   8.072
 2829POPC   C4A38874  40.957  23.480   7.696
 2829POPC   C1B38875  40.462  23.516   8.703
 2829POPC   C2B38876  40.421  23.783   8.341
 2829POPC   C3B38877  40.462  23.958   7.937
 2829POPC   C4B38878  40.463  23.615   7.647
 2830POPC   NC338879  24.119  16.601   9.707
 2830POPC   PO438880  24.514  16.933   9.268
 2830POPC   GL138881  24.338  16.774   8.955
 2830POPC   GL238882  24.096  16.520   9.063
 2830POPC   C1A38883  24.403  16.934   8.582
 2830POPC   D2A38884  24.162  16.819   8.286
 2830POPC   C3A38885  24.409  16.692   7.930
 2830POPC   C4A38886  24.631  16.971   7.668
 2830POPC   C1B38887  24.293  16.348   8.673
 2830POPC   C2B38888  24.267  16.224   8.246
 2830POPC   C3B38889  24.110  16.277   7.811
 2830POPC   C4B38890  24.206  16.542   7.429
 2831POPC   NC338891   9.210   1.200   9.591
 2831POPC   PO438892   8.886   1.765   9.585
 2831POPC   GL138893   9.044   1.533   9.177
 2831POPC   GL238894   9.425   1.514   9.207
 2831POPC   C1A38895   8.974   1.383   8.704
 2831POPC   D2A38896   8.721   1.118   8.358
 2831POPC   C3A38897   8.844   0.953   7.916
 2831POPC   C4A38898   8.800   0.898   7.432
 2831POPC   C1B38899   9.469   1.561   8.759
 2831POPC   C2B38900   9.269   1.663   8.343
 2831POPC   C3B38901   9.355   1.486   7.924
 2831POPC   C4B38902   9.153   1.228   7.584
 2832POPC   NC338903  38.233  12.550   9.181
 2832POPC   PO438904  38.587  13.056   9.473
 2832POPC   GL138905  38.555  13.099   9.063
 2832POPC   GL238906  38.215  13.056   9.033
 2832POPC   C1A38907  38.582  12.907   8.661
 2832POPC   D2A38908  38.565  12.708   8.246
 2832POPC   C3A38909  38.640  13.030   7.897
 2832POPC   C4A38910  38.414  13.178   7.493
 2832POPC   C1B38911  38.012  12.895   8.650
 2832POPC   C2B38912  38.054  12.598   8.310
 2832POPC   C3B38913  38.180  12.761   7.920
 2832POPC   C4B38914  38.185  12.708   7.512
 2833POPC   NC338915   6.219  17.864   9.353
 2833POPC   PO438916   6.079  18.548   9.521
 2833POPC   GL138917   5.932  18.405   9.134
 2833POPC   GL238918   5.733  18.090   9.191
 2833POPC   C1A38919   6.101  18.290   8.737
 2833POPC   D2A38920   6.292  18.255   8.351
 2833POPC   C3A38921   6.122  18.280   7.966
 2833POPC   C4A38922   6.244  18.647   7.753
 2833POPC   C1B38923   5.732  17.962   8.746
 2833POPC   C2B38924   5.779  18.097   8.299
 2833POPC   C3B38925   5.724  17.963   7.843
 2833POPC   C4B38926   5.983  17.834   7.463
 2834POPC   NC338927  36.655  19.513   9.497
 2834POPC   PO438928  37.110  20.068   9.545
 2834POPC   GL138929  36.923  19.978   9.145
 2834POPC   GL238930  36.977  19.619   9.131
 2834POPC   C1A38931  36.662  19.840   8.792
 2834POPC   D2A38932  36.657  19.654   8.386
 2834POPC   C3A38933  36.902  19.821   8.109
 2834POPC   C4A38934  36.913  19.762   7.715
 2834POPC   C1B38935  37.138  19.638   8.729
 2834POPC   C2B38936  37.182  19.463   8.336
 2834POPC   C3B38937  37.332  19.585   7.926
 2834POPC   C4B38938  37.303  19.542   7.455
 2835POPC   NC338939  19.996  41.968   9.271
 2835POPC   PO438940  19.994  42.601   9.310
 2835POPC   GL138941  19.771  42.344   9.022
 2835POPC   GL238942  19.508  42.119   9.071
 2835POPC   C1A38943  19.789  42.034   8.666
 2835POPC   D2A38944  19.649  41.964   8.287
 2835POPC   C3A38945  19.900  42.172   8.010
 2835POPC   C4A38946  19.783  42.051   7.586
 2835POPC   C1B38947  19.409  42.376   8.675
 2835POPC   C2B38948  19.583  42.491   8.260
 2835POPC   C3B38949  19.557  42.475   7.795
 2835POPC   C4B38950  19.438  42.356   7.374
 2836POPC   NC338951  40.363  41.269   9.406
 2836POPC   PO438952  39.967  40.702   9.388
 2836POPC   GL138953  40.152  40.899   9.085
 2836POPC   GL238954  39.903  41.082   8.977
 2836POPC   C1A38955  40.195  40.700   8.691
 2836POPC   D2A38956  40.342  40.784   8.283
 2836POPC   C3A38957  40.122  40.619   7.992
 2836POPC   C4A38958  40.069  40.755   7.579
 2836POPC   C1B38959  39.763  41.246   8.611
 2836POPC   C2B38960  39.806  40.951   8.273
 2836POPC   C3B38961  39.706  40.954   7.851
 2836POPC   C4B38962  39.692  41.010   7.376
 2837POPC   NC338963   2.023  15.177   9.531
 2837POPC   PO438964   2.486  15.425   9.149
 2837POPC   GL138965   2.224  15.004   9.100
 2837POPC   GL238966   1.870  14.841   9.184
 2837POPC   C1A38967   2.170  14.760   8.762
 2837POPC   D2A38968   2.229  15.035   8.430
 2837POPC   C3A38969   2.049  14.965   8.049
 2837POPC   C4A38970   2.171  15.136   7.700
 2837POPC   C1B38971   1.795  15.114   8.830
 2837POPC   C2B38972   1.668  15.246   8.436
 2837POPC   C3B38973   1.532  15.044   8.063
 2837POPC   C4B38974   1.639  15.298   7.756
 2838POPC   NC338975  10.561   9.683   9.633
 2838POPC   PO438976  11.079   9.942   9.324
 2838POPC   GL138977  10.679   9.844   9.134
 2838POPC   GL238978  10.379   9.638   9.168
 2838POPC   C1A38979  10.703   9.644   8.734
 2838POPC   D2A38980  10.747   9.388   8.381
 2838POPC   C3A38981  10.638   9.612   8.007
 2838POPC   C4A38982  10.735   9.668   7.566
 2838POPC   C1B38983  10.242   9.820   8.777
 2838POPC   C2B38984  10.266   9.582   8.413
 2838POPC   C3B38985  10.109   9.743   8.065
 2838POPC   C4B38986  10.239   9.719   7.708
 2839POPC   NC338987   2.535  23.208   9.441
 2839POPC   PO438988   2.922  22.640   9.384
 2839POPC   GL138989   2.914  22.835   9.019
 2839POPC   GL238990   2.831  23.168   9.032
 2839POPC   C1A38991   2.703  22.780   8.676
 2839POPC   D2A38992   2.807  22.556   8.340
 2839POPC   C3A38993   2.866  22.870   8.063
 2839POPC   C4A38994   2.847  22.842   7.623
 2839POPC   C1B38995   2.849  23.288   8.616
 2839POPC   C2B38996   2.586  23.288   8.256
 2839POPC   C3B38997   2.515  23.162   7.835
 2839POPC   C4B38998   2.719  23.381   7.493
 2840POPC   NC338999   8.183  23.555   9.469
 2840POPC   PO439000   7.914  24.231   9.434
 2840POPC   GL139001   8.156  24.036   9.124
 2840POPC   GL239002   8.333  23.702   9.019
 2840POPC   C1A39003   8.095  23.997   8.695
 2840POPC   D2A39004   8.443  23.803   8.511
 2840POPC   C3A39005   8.400  23.742   8.102
 2840POPC   C4A39006   8.397  23.772   7.672
 2840POPC   C1B39007   8.634  23.422   8.790
 2840POPC   C2B39008   8.576  23.316   8.350
 2840POPC   C3B39009   8.739  23.391   7.954
 2840POPC   C4B39010   8.634  23.305   7.532
 2841POPC   NC339011  11.391  35.110   9.534
 2841POPC   PO439012  10.884  35.577   9.427
 2841POPC   GL139013  11.093  35.287   9.158
 2841POPC   GL239014  11.451  35.382   9.101
 2841POPC   C1A39015  11.226  35.102   8.759
 2841POPC   D2A39016  11.211  35.379   8.428
 2841POPC   C3A39017  11.354  35.285   8.047
 2841POPC   C4A39018  11.216  35.261   7.665
 2841POPC   C1B39019  11.669  35.526   8.767
 2841POPC   C2B39020  11.626  35.700   8.412
 2841POPC   C3B39021  11.385  35.802   8.117
 2841POPC   C4B39022  11.633  35.665   7.768
 2842POPC   NC339023  44.393   6.056   9.491
 2842POPC   PO439024   0.064   6.128   9.568
 2842POPC   GL139025  44.813   5.936   9.229
 2842POPC   GL239026  44.640   6.219   9.056
 2842POPC   C1A39027  44.808   5.746   8.829
 2842POPC   D2A39028  44.560   5.817   8.487
 2842POPC   C3A39029  44.656   5.641   8.097
 2842POPC   C4A39030  44.533   5.583   7.694
 2842POPC   C1B39031  44.620   6.405   8.622
 2842POPC   C2B39032  44.770   6.199   8.226
 2842POPC   C3B39033  44.587   6.084   7.835
 2842POPC   C4B39034  44.794   6.192   7.431
 2843POPC   NC339035  24.839  24.085   9.433
 2843POPC   PO439036  25.525  23.913   9.523
 2843POPC   GL139037  25.189  23.734   9.215
 2843POPC   GL239038  25.228  23.378   9.075
 2843POPC   C1A39039  25.239  23.788   8.775
 2843POPC   D2A39040  25.564  23.674   8.465
 2843POPC   C3A39041  25.370  23.748   8.082
 2843POPC   C4A39042  25.405  23.783   7.631
 2843POPC   C1B39043  25.236  23.322   8.591
 2843POPC   C2B39044  24.950  23.523   8.295
 2843POPC   C3B39045  24.966  23.554   7.834
 2843POPC   C4B39046  25.357  23.288   7.694
 2844POPC   NC339047  41.861  10.891   9.281
 2844POPC   PO439048  41.839  11.439   9.638
 2844POPC   GL139049  42.052  11.437   9.196
 2844POPC   GL239050  42.064  11.199   8.947
 2844POPC   C1A39051  41.918  11.655   8.761
 2844POPC   D2A39052  41.998  11.856   8.327
 2844POPC   C3A39053  42.082  11.567   7.965
 2844POPC   C4A39054  42.457  11.517   7.700
 2844POPC   C1B39055  42.386  11.024   8.696
 2844POPC   C2B39056  42.399  10.869   8.280
 2844POPC   C3B39057  42.476  11.050   7.904
 2844POPC   C4B39058  42.293  11.071   7.506
 2845POPC   NC339059  22.601  35.263   9.478
 2845POPC   PO439060  21.928  35.085   9.494
 2845POPC   GL139061  22.172  35.301   9.193
 2845POPC   GL239062  22.387  35.029   9.091
 2845POPC   C1A39063  22.181  35.414   8.769
 2845POPC   D2A39064  22.066  35.226   8.391
 2845POPC   C3A39065  22.168  35.334   7.987
 2845POPC   C4A39066  22.004  35.106   7.650
 2845POPC   C1B39067  22.558  35.051   8.666
 2845POPC   C2B39068  22.519  35.008   8.207
 2845POPC   C3B39069  22.505  34.987   7.768
 2845POPC   C4B39070  22.390  34.986   7.327
 2846POPC   NC339071  33.996  35.787   9.766
 2846POPC   PO439072  33.529  36.176   9.419
 2846POPC   GL139073  33.685  36.304   9.085
 2846POPC   GL239074  33.987  36.371   9.110
 2846POPC   C1A39075  33.640  36.491   8.715
 2846POPC   D2A39076  33.598  36.237   8.406
 2846POPC   C3A39077  33.786  36.288   8.051
 2846POPC   C4A39078  33.682  36.509   7.731
 2846POPC   C1B39079  34.078  36.201   8.718
 2846POPC   C2B39080  34.340  36.225   8.375
 2846POPC   C3B39081  34.289  36.343   7.979
 2846POPC   C4B39082  34.073  36.137   7.659
 2847POPC   NC339083  42.907  19.449   9.596
 2847POPC   PO439084  43.475  19.435   9.508
 2847POPC   GL139085  43.197  19.723   9.248
 2847POPC   GL239086  42.923  19.549   9.094
 2847POPC   C1A39087  43.064  19.962   8.840
 2847POPC   D2A39088  42.933  19.964   8.384
 2847POPC   C3A39089  43.175  20.147   8.019
 2847POPC   C4A39090  43.409  19.974   7.655
 2847POPC   C1B39091  42.709  19.593   8.693
 2847POPC   C2B39092  42.635  19.569   8.246
 2847POPC   C3B39093  42.611  19.935   7.971
 2847POPC   C4B39094  42.881  20.014   7.608
 2848POPC   NC339095  41.306  36.869   9.411
 2848POPC   PO439096  41.807  36.499   9.275
 2848POPC   GL139097  41.724  36.872   9.095
 2848POPC   GL239098  42.001  37.108   9.228
 2848POPC   C1A39099  41.398  36.920   8.762
 2848POPC   D2A39100  41.386  36.719   8.347
 2848POPC   C3A39101  41.359  36.954   7.967
 2848POPC   C4A39102  41.562  36.650   7.721
 2848POPC   C1B39103  41.919  37.221   8.790
 2848POPC   C2B39104  41.739  37.077   8.423
 2848POPC   C3B39105  41.851  36.938   8.068
 2848POPC   C4B39106  41.833  37.116   7.727
 2849POPC   NC339107  28.255  18.484   9.698
 2849POPC   PO439108  28.857  18.186   9.525
 2849POPC   GL139109  28.571  18.128   9.172
 2849POPC   GL239110  28.314  18.411   9.187
 2849POPC   C1A39111  28.496  18.262   8.726
 2849POPC   D2A39112  28.645  18.579   8.441
 2849POPC   C3A39113  28.449  18.464   8.047
 2849POPC   C4A39114  28.586  18.225   7.717
 2849POPC   C1B39115  28.048  18.503   8.823
 2849POPC   C2B39116  27.911  18.432   8.387
 2849POPC   C3B39117  27.972  18.634   7.984
 2849POPC   C4B39118  28.155  18.483   7.596
 2850POPC   NC339119  13.398  30.190   9.251
 2850POPC   PO439120  13.719  30.621   9.725
 2850POPC   GL139121  13.635  30.709   9.274
 2850POPC   GL239122  13.833  30.471   9.125
 2850POPC   C1A39123  13.347  30.772   8.913
 2850POPC   D2A39124  13.364  30.761   8.463
 2850POPC   C3A39125  13.746  30.992   8.317
 2850POPC   C4A39126  13.756  30.951   7.905
 2850POPC   C1B39127  13.745  30.488   8.696
 2850POPC   C2B39128  13.783  30.498   8.269
 2850POPC   C3B39129  13.440  30.544   7.993
 2850POPC   C4B39130  13.362  30.308   7.643
 2851POPC   NC339131   4.348   6.231   9.478
 2851POPC   PO439132   4.560   6.807   9.434
 2851POPC   GL139133   4.414   6.558   9.086
 2851POPC   GL239134   4.059   6.481   9.065
 2851POPC   C1A39135   4.434   6.723   8.670
 2851POPC   D2A39136   4.550   6.997   8.358
 2851POPC   C3A39137   4.551   6.830   7.956
 2851POPC   C4A39138   4.338   6.485   7.759
 2851POPC   C1B39139   3.923   6.707   8.664
 2851POPC   C2B39140   4.073   6.733   8.210
 2851POPC   C3B39141   4.075   6.955   7.790
 2851POPC   C4B39142   4.134   6.947   7.327
 2852POPC   NC339143  32.120   5.350   9.521
 2852POPC   PO439144  32.523   4.840   9.562
 2852POPC   GL139145  32.415   5.058   9.174
 2852POPC   GL239146  32.748   5.176   9.130
 2852POPC   C1A39147  32.186   5.061   8.755
 2852POPC   D2A39148  32.311   4.916   8.343
 2852POPC   C3A39149  32.191   5.124   7.950
 2852POPC   C4A39150  31.776   5.306   7.880
 2852POPC   C1B39151  32.621   5.320   8.701
 2852POPC   C2B39152  32.751   5.220   8.289
 2852POPC   C3B39153  32.709   5.246   7.861
 2852POPC   C4B39154  32.469   5.521   7.740
 2853POPC   NC339155  32.429  24.694   9.485
 2853POPC   PO439156  32.067  24.016   9.456
 2853POPC   GL139157  32.163  24.356   9.160
 2853POPC   GL239158  32.523  24.321   9.153
 2853POPC   C1A39159  32.228  24.664   8.799
 2853POPC   D2A39160  31.943  24.737   8.427
 2853POPC   C3A39161  32.106  24.680   7.982
 2853POPC   C4A39162  32.206  24.794   7.534
 2853POPC   C1B39163  32.531  24.256   8.744
 2853POPC   C2B39164  32.381  24.395   8.360
 2853POPC   C3B39165  32.273  24.187   7.999
 2853POPC   C4B39166  32.179  24.290   7.594
 2854POPC   NC339167  31.807   5.941   9.484
 2854POPC   PO439168  32.369   5.754   9.582
 2854POPC   GL139169  32.516   5.945   9.218
 2854POPC   GL239170  32.457   5.604   9.099
 2854POPC   C1A39171  32.636   5.938   8.767
 2854POPC   D2A39172  32.565   5.743   8.368
 2854POPC   C3A39173  32.568   5.990   8.021
 2854POPC   C4A39174  32.375   6.003   7.628
 2854POPC   C1B39175  32.151   5.581   8.766
 2854POPC   C2B39176  32.164   5.449   8.349
 2854POPC   C3B39177  32.087   5.726   7.990
 2854POPC   C4B39178  32.006   5.613   7.539
 2855POPC   NC339179   7.437   8.687   9.292
 2855POPC   PO439180   7.445   7.987   9.468
 2855POPC   GL139181   7.504   8.078   9.067
 2855POPC   GL239182   7.182   8.263   9.141
 2855POPC   C1A39183   7.738   7.901   8.703
 2855POPC   D2A39184   7.492   8.039   8.380
 2855POPC   C3A39185   7.562   8.291   8.065
 2855POPC   C4A39186   7.456   8.228   7.662
 2855POPC   C1B39187   7.020   8.284   8.786
 2855POPC   C2B39188   6.996   8.168   8.409
 2855POPC   C3B39189   7.062   8.328   8.078
 2855POPC   C4B39190   6.998   8.472   7.736
 2856POPC   NC339191  39.439  26.288   9.433
 2856POPC   PO439192  39.797  25.697   9.330
 2856POPC   GL139193  39.479  25.922   9.093
 2856POPC   GL239194  39.139  25.828   9.207
 2856POPC   C1A39195  39.294  26.120   8.721
 2856POPC   D2A39196  39.452  25.981   8.304
 2856POPC   C3A39197  39.291  26.178   7.927
 2856POPC   C4A39198  39.155  26.016   7.520
 2856POPC   C1B39199  38.905  25.797   8.813
 2856POPC   C2B39200  38.909  25.961   8.380
 2856POPC   C3B39201  38.950  25.801   7.954
 2856POPC   C4B39202  38.756  25.695   7.562
 2857POPC   NC339203  41.956   9.492   9.553
 2857POPC   PO439204  41.370   9.822   9.562
 2857POPC   GL139205  41.709   9.819   9.226
 2857POPC   GL239206  41.628  10.098   9.031
 2857POPC   C1A39207  41.842   9.704   8.775
 2857POPC   D2A39208  41.595   9.723   8.375
 2857POPC   C3A39209  41.763   9.860   7.978
 2857POPC   C4A39210  41.769   9.773   7.541
 2857POPC   C1B39211  41.342   9.793   8.840
 2857POPC   C2B39212  41.095   9.888   8.485
 2857POPC   C3B39213  41.249  10.012   8.101
 2857POPC   C4B39214  41.308   9.831   7.712
 2858POPC   NC339215  15.986  18.077   9.443
 2858POPC   PO439216  16.134  18.793   9.488
 2858POPC   GL139217  15.939  18.534   9.120
 2858POPC   GL239218  16.057  18.180   8.956
 2858POPC   C1A39219  15.849  18.518   8.672
 2858POPC   D2A39220  16.045  18.231   8.385
 2858POPC   C3A39221  16.095  18.468   8.032
 2858POPC   C4A39222  15.817  18.738   7.841
 2858POPC   C1B39223  15.657  18.049   8.694
 2858POPC   C2B39224  15.613  17.880   8.265
 2858POPC   C3B39225  15.880  17.990   7.907
 2858POPC   C4B39226  16.331  17.873   7.840
 2859POPC   NC339227  21.815  41.847   9.415
 2859POPC   PO439228  22.348  41.446   9.643
 2859POPC   GL139229  22.346  41.455   9.145
 2859POPC   GL239230  22.020  41.584   9.023
 2859POPC   C1A39231  22.338  41.383   8.674
 2859POPC   D2A39232  22.395  41.367   8.205
 2859POPC   C3A39233  22.144  41.591   7.925
 2859POPC   C4A39234  22.118  41.628   7.505
 2859POPC   C1B39235  22.247  41.874   8.766
 2859POPC   C2B39236  22.475  41.841   8.347
 2859POPC   C3B39237  22.469  41.972   7.870
 2859POPC   C4B39238  22.461  42.015   7.391
 2860POPC   NC339239   8.903  32.824   9.513
 2860POPC   PO439240   9.532  33.226   9.468
 2860POPC   GL139241   9.284  33.203   9.107
 2860POPC   GL239242   9.027  33.469   9.083
 2860POPC   C1A39243   9.206  32.937   8.745
 2860POPC   D2A39244   8.936  32.937   8.377
 2860POPC   C3A39245   9.104  33.055   7.981
 2860POPC   C4A39246   9.012  32.844   7.578
 2860POPC   C1B39247   8.950  33.393   8.638
 2860POPC   C2B39248   8.621  33.482   8.324
 2860POPC   C3B39249   8.487  33.366   7.909
 2860POPC   C4B39250   8.801  33.286   7.613
 2861POPC   NC339251  36.969   7.076   9.351
 2861POPC   PO439252  36.756   7.683   9.477
 2861POPC   GL139253  36.850   7.531   9.124
 2861POPC   GL239254  37.150   7.499   9.118
 2861POPC   C1A39255  36.756   7.660   8.742
 2861POPC   D2A39256  36.568   7.543   8.396
 2861POPC   C3A39257  36.770   7.559   8.013
 2861POPC   C4A39258  36.595   7.280   7.703
 2861POPC   C1B39259  37.281   7.300   8.772
 2861POPC   C2B39260  37.137   7.397   8.370
 2861POPC   C3B39261  37.278   7.583   7.981
 2861POPC   C4B39262  37.141   7.355   7.629
 2862POPC   NC339263  43.274  25.187   9.534
 2862POPC   PO439264  42.636  25.227   9.567
 2862POPC   GL139265  42.882  25.324   9.207
 2862POPC   GL239266  43.040  25.046   9.074
 2862POPC   C1A39267  42.848  25.482   8.777
 2862POPC   D2A39268  43.060  25.700   8.408
 2862POPC   C3A39269  42.971  25.449   8.049
 2862POPC   C4A39270  43.206  25.111   7.878
 2862POPC   C1B39271  43.375  24.952   8.743
 2862POPC   C2B39272  43.545  25.084   8.359
 2862POPC   C3B39273  43.619  24.841   8.001
 2862POPC   C4B39274  43.544  24.867   7.577
 2863POPC   NC339275  26.685  30.163   9.836
 2863POPC   PO439276  26.585  29.600   9.619
 2863POPC   GL139277  26.468  29.713   9.181
 2863POPC   GL239278  26.743  29.690   8.946
 2863POPC   C1A39279  26.446  30.086   8.852
 2863POPC   D2A39280  26.406  30.346   8.460
 2863POPC   C3A39281  26.611  30.154   8.094
 2863POPC   C4A39282  26.408  29.957   7.755
 2863POPC   C1B39283  27.046  29.793   8.626
 2863POPC   C2B39284  27.321  29.906   8.281
 2863POPC   C3B39285  27.160  29.860   7.889
 2863POPC   C4B39286  26.829  29.708   7.671
 2864POPC   NC339287   5.111   9.923   9.422
 2864POPC   PO439288   5.229   9.278   9.606
 2864POPC   GL139289   5.383   9.449   9.205
 2864POPC   GL239290   5.066   9.342   9.045
 2864POPC   C1A39291   5.378   9.587   8.743
 2864POPC   D2A39292   5.150   9.488   8.353
 2864POPC   C3A39293   5.384   9.617   7.972
 2864POPC   C4A39294   5.430  10.007   7.751
 2864POPC   C1B39295   4.846   9.650   8.792
 2864POPC   C2B39296   4.740   9.869   8.410
 2864POPC   C3B39297   4.801   9.672   8.029
 2864POPC   C4B39298   4.970   9.847   7.690
 2865POPC   NC339299  22.717  34.283   9.283
 2865POPC   PO439300  22.970  33.734   9.616
 2865POPC   GL139301  22.982  33.871   9.173
 2865POPC   GL239302  23.257  34.035   9.092
 2865POPC   C1A39303  22.941  34.029   8.692
 2865POPC   D2A39304  23.047  33.905   8.233
 2865POPC   C3A39305  22.874  34.091   7.851
 2865POPC   C4A39306  22.744  33.954   7.453
 2865POPC   C1B39307  23.444  33.945   8.687
 2865POPC   C2B39308  23.482  34.191   8.295
 2865POPC   C3B39309  23.367  34.145   7.882
 2865POPC   C4B39310  23.288  33.895   7.506
 2866POPC   NC339311  37.750  21.849   9.523
 2866POPC   PO439312  37.385  22.433   9.512
 2866POPC   GL139313  37.658  22.239   9.178
 2866POPC   GL239314  37.929  22.443   9.006
 2866POPC   C1A39315  37.654  22.052   8.794
 2866POPC   D2A39316  37.565  21.928   8.435
 2866POPC   C3A39317  37.667  22.236   8.125
 2866POPC   C4A39318  37.586  22.120   7.699
 2866POPC   C1B39319  38.153  22.069   8.791
 2866POPC   C2B39320  38.096  21.862   8.359
 2866POPC   C3B39321  38.057  21.945   7.935
 2866POPC   C4B39322  38.024  22.378   7.779
 2867POPC   NC339323  25.614  22.510   9.325
 2867POPC   PO439324  26.173  22.181   9.492
 2867POPC   GL139325  26.006  22.240   9.099
 2867POPC   GL239326  25.678  22.075   9.059
 2867POPC   C1A39327  26.147  22.045   8.723
 2867POPC   D2A39328  26.175  21.877   8.312
 2867POPC   C3A39329  26.282  22.227   8.056
 2867POPC   C4A39330  26.153  22.271   7.644
 2867POPC   C1B39331  25.674  22.335   8.716
 2867POPC   C2B39332  25.863  22.281   8.343
 2867POPC   C3B39333  25.717  22.273   7.945
 2867POPC   C4B39334  25.723  22.585   7.653
 2868POPC   NC339335  28.392  40.785   9.906
 2868POPC   PO439336  27.993  40.459   9.587
 2868POPC   GL139337  28.038  40.739   9.256
 2868POPC   GL239338  28.374  40.642   9.221
 2868POPC   C1A39339  28.142  40.720   8.764
 2868POPC   D2A39340  28.247  40.576   8.315
 2868POPC   C3A39341  28.198  40.858   7.956
 2868POPC   C4A39342  28.014  41.076   7.612
 2868POPC   C1B39343  28.542  40.416   8.854
 2868POPC   C2B39344  28.666  40.311   8.424
 2868POPC   C3B39345  28.748  40.560   8.052
 2868POPC   C4B39346  28.620  40.763   7.667
 2869POPC   NC339347  19.370  38.998   9.407
 2869POPC   PO439348  20.051  38.972   9.429
 2869POPC   GL139349  19.865  39.235   9.108
 2869POPC   GL239350  19.563  39.127   8.948
 2869POPC   C1A39351  19.934  39.338   8.675
 2869POPC   D2A39352  19.644  39.127   8.400
 2869POPC   C3A39353  19.810  38.969   8.037
 2869POPC   C4A39354  19.943  39.171   7.707
 2869POPC   C1B39355  19.445  39.518   8.676
 2869POPC   C2B39356  19.666  39.629   8.282
 2869POPC   C3B39357  19.783  39.667   7.821
 2869POPC   C4B39358  19.639  39.443   7.434
 2870POPC   NC339359   6.454  31.205   9.460
 2870POPC   PO439360   6.455  31.849   9.304
 2870POPC   GL139361   6.645  31.479   9.071
 2870POPC   GL239362   6.815  31.114   9.073
 2870POPC   C1A39363   6.587  31.385   8.666
 2870POPC   D2A39364   6.575  31.680   8.334
 2870POPC   C3A39365   6.625  31.510   7.921
 2870POPC   C4A39366   6.938  31.727   7.680
 2870POPC   C1B39367   7.084  31.278   8.702
 2870POPC   C2B39368   6.997  31.373   8.258
 2870POPC   C3B39369   7.089  31.245   7.821
 2870POPC   C4B39370   6.957  31.170   7.395
 2871POPC   NC339371  39.691  24.653   9.214
 2871POPC   PO439372  40.176  24.368   9.519
 2871POPC   GL139373  40.123  24.217   9.117
 2871POPC   GL239374  39.749  24.086   9.054
 2871POPC   C1A39375  40.226  24.537   8.804
 2871POPC   D2A39376  39.969  24.780   8.545
 2871POPC   C3A39377  40.064  24.715   8.134
 2871POPC   C4A39378  39.844  24.799   7.797
 2871POPC   C1B39379  39.827  24.257   8.690
 2871POPC   C2B39380  40.107  24.213   8.344
 2871POPC   C3B39381  39.967  24.179   7.916
 2871POPC   C4B39382  40.160  24.043   7.531
 2872POPC   NC339383  15.712   5.515   9.479
 2872POPC   PO439384  15.927   4.867   9.687
 2872POPC   GL139385  15.861   5.042   9.268
 2872POPC   GL239386  16.125   5.228   9.147
 2872POPC   C1A39387  15.877   4.969   8.804
 2872POPC   D2A39388  15.675   5.162   8.464
 2872POPC   C3A39389  15.633   4.847   8.110
 2872POPC   C4A39390  15.790   4.875   7.672
 2872POPC   C1B39391  16.251   5.338   8.758
 2872POPC   C2B39392  16.180   5.174   8.376
 2872POPC   C3B39393  15.965   5.214   8.011
 2872POPC   C4B39394  16.138   5.304   7.613
 2873POPC   NC339395  20.460   9.106   9.831
 2873POPC   PO439396  19.954   8.795   9.700
 2873POPC   GL139397  19.842   8.799   9.255
 2873POPC   GL239398  19.765   9.115   9.109
 2873POPC   C1A39399  19.777   8.717   8.785
 2873POPC   D2A39400  19.797   8.798   8.322
 2873POPC   C3A39401  20.152   8.702   8.029
 2873POPC   C4A39402  20.161   8.723   7.543
 2873POPC   C1B39403  19.940   9.210   8.663
 2873POPC   C2B39404  20.273   9.460   8.388
 2873POPC   C3B39405  20.227   9.657   7.940
 2873POPC   C4B39406  20.067   9.448   7.537
 2874POPC   NC339407  34.978  44.950   9.470
 2874POPC   PO439408  34.599  44.402   9.570
 2874POPC   GL139409  34.383  44.584   9.279
 2874POPC   GL239410  34.684  44.735   9.094
 2874POPC   C1A39411  34.242  44.590   8.895
 2874POPC   D2A39412  34.494  44.776   8.543
 2874POPC   C3A39413  34.357  44.673   8.122
 2874POPC   C4A39414  34.507  44.658   7.719
 2874POPC   C1B39415  34.906   0.043   8.811
 2874POPC   C2B39416  35.040  44.981   8.393
 2874POPC   C3B39417  34.942  44.741   8.025
 2874POPC   C4B39418  34.959  44.886   7.600
 2875POPC   NC339419   4.001  37.955   9.484
 2875POPC   PO439420   4.211  38.532   9.849
 2875POPC   GL139421   4.283  38.393   9.399
 2875POPC   GL239422   4.650  38.328   9.314
 2875POPC   C1A39423   4.319  38.588   8.978
 2875POPC   D2A39424   4.079  38.619   8.591
 2875POPC   C3A39425   4.253  38.697   8.196
 2875POPC   C4A39426   4.258  38.418   7.876
 2875POPC   C1B39427   4.695  38.264   8.852
 2875POPC   C2B39428   4.574  38.306   8.413
 2875POPC   C3B39429   4.706  38.240   7.983
 2875POPC   C4B39430   4.627  38.436   7.511
 2876POPC   NC339431   6.572  10.135   9.635
 2876POPC   PO439432   6.353   9.534   9.561
 2876POPC   GL139433   6.455   9.793   9.213
 2876POPC   GL239434   6.145   9.598   9.110
 2876POPC   C1A39435   6.793   9.911   8.871
 2876POPC   D2A39436   7.011   9.667   8.528
 2876POPC   C3A39437   6.909   9.753   8.109
 2876POPC   C4A39438   6.778   9.892   7.742
 2876POPC   C1B39439   6.383   9.631   8.737
 2876POPC   C2B39440   6.519   9.885   8.420
 2876POPC   C3B39441   6.369   9.984   8.039
 2876POPC   C4B39442   6.241   9.672   7.728
 2877POPC   NC339443  24.996  27.670   9.275
 2877POPC   PO439444  24.292  27.740   9.444
 2877POPC   GL139445  24.497  27.764   9.111
 2877POPC   GL239446  24.552  27.406   9.122
 2877POPC   C1A39447  24.561  27.810   8.686
 2877POPC   D2A39448  24.323  27.693   8.328
 2877POPC   C3A39449  24.550  27.762   7.974
 2877POPC   C4A39450  24.431  27.686   7.548
 2877POPC   C1B39451  24.250  27.416   8.781
 2877POPC   C2B39452  24.316  27.176   8.394
 2877POPC   C3B39453  24.454  27.242   7.976
 2877POPC   C4B39454  24.812  27.397   7.743
 2878POPC   NC339455  38.827  24.742   9.412
 2878POPC   PO439456  39.403  24.319   9.366
 2878POPC   GL139457  39.213  24.510   9.038
 2878POPC   GL239458  38.868  24.362   9.066
 2878POPC   C1A39459  39.420  24.559   8.620
 2878POPC   D2A39460  39.652  24.432   8.255
 2878POPC   C3A39461  39.452  24.538   7.919
 2878POPC   C4A39462  39.390  24.714   7.492
 2878POPC   C1B39463  38.924  24.421   8.630
 2878POPC   C2B39464  39.037  24.696   8.271
 2878POPC   C3B39465  38.990  24.721   7.833
 2878POPC   C4B39466  39.071  24.316   7.695
 2879POPC   NC339467  31.139  34.922   9.429
 2879POPC   PO439468  31.391  34.285   9.474
 2879POPC   GL139469  31.255  34.499   9.134
 2879POPC   GL239470  31.524  34.738   9.128
 2879POPC   C1A39471  31.290  34.613   8.707
 2879POPC   D2A39472  31.224  34.426   8.347
 2879POPC   C3A39473  31.376  34.678   8.047
 2879POPC   C4A39474  31.410  34.628   7.695
 2879POPC   C1B39475  31.793  34.569   8.815
 2879POPC   C2B39476  31.716  34.655   8.407
 2879POPC   C3B39477  31.776  34.375   8.065
 2879POPC   C4B39478  31.831  34.369   7.610
 2880POPC   NC339479  15.362  30.164   9.601
 2880POPC   PO439480  15.520  29.508   9.493
 2880POPC   GL139481  15.243  29.809   9.201
 2880POPC   GL239482  15.209  30.136   9.131
 2880POPC   C1A39483  15.113  29.802   8.754
 2880POPC   D2A39484  15.355  29.634   8.394
 2880POPC   C3A39485  15.149  29.684   7.990
 2880POPC   C4A39486  15.361  29.906   7.649
 2880POPC   C1B39487  14.794  30.194   8.915
 2880POPC   C2B39488  14.777  30.168   8.482
 2880POPC   C3B39489  14.985  30.243   8.088
 2880POPC   C4B39490  14.883  30.112   7.698
 2881POPC   NC339491  28.720  14.494   9.711
 2881POPC   PO439492  29.180  14.745   9.414
 2881POPC   GL139493  28.982  14.404   9.248
 2881POPC   GL239494  29.212  14.147   9.186
 2881POPC   C1A39495  28.785  14.385   8.873
 2881POPC   D2A39496  28.863  14.516   8.472
 2881POPC   C3A39497  29.010  14.226   8.140
 2881POPC   C4A39498  28.878  14.309   7.693
 2881POPC   C1B39499  29.285  14.329   8.799
 2881POPC   C2B39500  29.479  14.355   8.427
 2881POPC   C3B39501  29.420  14.493   8.014
 2881POPC   C4B39502  29.399  14.246   7.631
 2882POPC   NC339503  35.957  27.218   9.532
 2882POPC   PO439504  36.184  26.599   9.505
 2882POPC   GL139505  36.075  26.849   9.156
 2882POPC   GL239506  36.252  27.157   9.110
 2882POPC   C1A39507  35.855  26.737   8.781
 2882POPC   D2A39508  35.986  26.645   8.381
 2882POPC   C3A39509  35.816  26.660   7.983
 2882POPC   C4A39510  35.927  26.880   7.634
 2882POPC   C1B39511  36.093  27.193   8.735
 2882POPC   C2B39512  36.233  27.092   8.365
 2882POPC   C3B39513  36.090  27.197   8.021
 2882POPC   C4B39514  36.289  27.347   7.699
 2883POPC   NC339515  36.750  14.486   9.842
 2883POPC   PO439516  36.042  14.523   9.622
 2883POPC   GL139517  36.201  14.646   9.235
 2883POPC   GL239518  36.124  14.331   9.117
 2883POPC   C1A39519  36.377  14.640   8.810
 2883POPC   D2A39520  36.572  14.562   8.415
 2883POPC   C3A39521  36.380  14.671   8.017
 2883POPC   C4A39522  36.091  14.424   7.769
 2883POPC   C1B39523  36.230  14.072   8.768
 2883POPC   C2B39524  36.368  14.075   8.358
 2883POPC   C3B39525  36.131  13.979   8.021
 2883POPC   C4B39526  36.160  13.931   7.581
 2884POPC   NC339527  13.629   0.877   9.927
 2884POPC   PO439528  13.525   0.388   9.539
 2884POPC   GL139529  13.685   0.421   9.102
 2884POPC   GL239530  13.879   0.758   9.046
 2884POPC   C1A39531  13.558   0.340   8.660
 2884POPC   D2A39532  13.345   0.308   8.240
 2884POPC   C3A39533  13.550   0.471   7.857
 2884POPC   C4A39534  13.530   0.390   7.410
 2884POPC   C1B39535  13.514   0.827   8.839
 2884POPC   C2B39536  13.454   0.781   8.395
 2884POPC   C3B39537  13.699   0.929   8.046
 2884POPC   C4B39538  13.529   1.002   7.633
 2885POPC   NC339539  11.740  18.868   9.416
 2885POPC   PO439540  12.364  19.025   9.625
 2885POPC   GL139541  12.198  18.969   9.207
 2885POPC   GL239542  11.975  19.237   9.102
 2885POPC   C1A39543  12.079  18.875   8.765
 2885POPC   D2A39544  12.099  19.141   8.393
 2885POPC   C3A39545  12.349  19.061   8.014
 2885POPC   C4A39546  12.231  19.193   7.605
 2885POPC   C1B39547  11.722  19.284   8.723
 2885POPC   C2B39548  11.587  19.002   8.384
 2885POPC   C3B39549  11.592  19.106   7.956
 2885POPC   C4B39550  11.496  19.513   7.819
 2886POPC   NC339551  25.838   1.373   9.556
 2886POPC   PO439552  26.059   0.697   9.592
 2886POPC   GL139553  26.168   1.077   9.247
 2886POPC   GL239554  25.946   1.378   9.082
 2886POPC   C1A39555  26.354   1.256   8.835
 2886POPC   D2A39556  26.222   1.508   8.456
 2886POPC   C3A39557  26.318   1.400   8.045
 2886POPC   C4A39558  26.300   1.238   7.649
 2886POPC   C1B39559  25.794   1.333   8.679
 2886POPC   C2B39560  25.924   1.041   8.356
 2886POPC   C3B39561  25.942   1.013   7.921
 2886POPC   C4B39562  25.819   1.421   7.763
 2887POPC   NC339563  20.226  22.309   9.328
 2887POPC   PO439564  19.771  21.981   9.736
 2887POPC   GL139565  19.740  22.075   9.225
 2887POPC   GL239566  20.029  22.023   8.978
 2887POPC   C1A39567  19.602  22.215   8.771
 2887POPC   D2A39568  19.677  22.424   8.352
 2887POPC   C3A39569  19.647  22.233   7.952
 2887POPC   C4A39570  19.498  21.983   7.620
 2887POPC   C1B39571  20.090  22.364   8.655
 2887POPC   C2B39572  20.240  22.476   8.246
 2887POPC   C3B39573  20.100  22.440   7.811
 2887POPC   C4B39574  20.120  22.527   7.337
 2888POPC   NC339575  25.609  22.562   9.837
 2888POPC   PO439576  24.971  22.342   9.663
 2888POPC   GL139577  25.128  22.356   9.253
 2888POPC   GL239578  25.077  22.061   9.118
 2888POPC   C1A39579  25.108  22.455   8.802
 2888POPC   D2A39580  25.258  22.293   8.415
 2888POPC   C3A39581  25.089  22.501   8.073
 2888POPC   C4A39582  25.221  22.267   7.715
 2888POPC   C1B39583  25.298  21.931   8.777
 2888POPC   C2B39584  25.675  21.847   8.562
 2888POPC   C3B39585  25.711  21.749   8.141
 2888POPC   C4B39586  25.983  21.840   7.811
 2889POPC   NC339587  28.171  30.034   9.560
 2889POPC   PO439588  28.790  30.018   9.223
 2889POPC   GL139589  28.385  29.841   9.095
 2889POPC   GL239590  28.072  29.652   9.239
 2889POPC   C1A39591  28.500  29.803   8.670
 2889POPC   D2A39592  28.731  30.114   8.457
 2889POPC   C3A39593  28.491  30.162   8.110
 2889POPC   C4A39594  28.264  29.907   7.853
 2889POPC   C1B39595  28.099  29.515   8.780
 2889POPC   C2B39596  28.279  29.439   8.342
 2889POPC   C3B39597  28.096  29.422   7.905
 2889POPC   C4B39598  28.136  29.586   7.470
 2890POPC   NC339599  23.445  30.298   9.424
 2890POPC   PO439600  23.816  30.902   9.504
 2890POPC   GL139601  23.894  30.778   9.094
 2890POPC   GL239602  23.693  30.502   9.015
 2890POPC   C1A39603  23.787  30.904   8.721
 2890POPC   D2A39604  23.969  30.887   8.357
 2890POPC   C3A39605  23.765  30.973   7.959
 2890POPC   C4A39606  23.967  30.753   7.636
 2890POPC   C1B39607  23.721  30.429   8.550
 2890POPC   C2B39608  23.766  30.473   8.111
 2890POPC   C3B39609  23.517  30.536   7.773
 2890POPC   C4B39610  23.275  30.336   7.485
 2891POPC   NC339611  41.074  43.533   9.814
 2891POPC   PO439612  40.735  43.000   9.612
 2891POPC   GL139613  40.781  42.898   9.210
 2891POPC   GL239614  40.645  43.243   9.171
 2891POPC   C1A39615  40.858  42.704   8.851
 2891POPC   D2A39616  40.738  42.838   8.463
 2891POPC   C3A39617  40.836  42.608   8.156
 2891POPC   C4A39618  40.801  42.745   7.771
 2891POPC   C1B39619  40.830  43.230   8.792
 2891POPC   C2B39620  40.907  43.329   8.381
 2891POPC   C3B39621  40.729  43.200   8.044
 2891POPC   C4B39622  40.886  43.232   7.667
 2892POPC   NC339623  11.766  26.360   9.371
 2892POPC   PO439624  12.338  26.024   9.583
 2892POPC   GL139625  12.225  26.011   9.158
 2892POPC   GL239626  11.916  25.841   9.203
 2892POPC   C1A39627  12.215  26.212   8.751
 2892POPC   D2A39628  12.004  26.032   8.407
 2892POPC   C3A39629  12.151  26.049   7.968
 2892POPC   C4A39630  12.248  25.681   7.769
 2892POPC   C1B39631  11.637  25.686   8.887
 2892POPC   C2B39632  11.581  25.698   8.451
 2892POPC   C3B39633  11.712  25.805   8.050
 2892POPC   C4B39634  11.748  25.860   7.617
 2893POPC   NC339635   1.299   2.056   9.478
 2893POPC   PO439636   0.674   1.974   9.625
 2893POPC   GL139637   0.959   1.823   9.218
 2893POPC   GL239638   0.966   2.162   9.088
 2893POPC   C1A39639   1.185   1.865   8.747
 2893POPC   D2A39640   1.297   2.180   8.364
 2893POPC   C3A39641   1.254   2.044   7.902
 2893POPC   C4A39642   1.418   1.658   7.693
 2893POPC   C1B39643   0.756   2.137   8.695
 2893POPC   C2B39644   0.808   2.033   8.262
 2893POPC   C3B39645   0.785   2.287   7.898
 2893POPC   C4B39646   0.992   2.277   7.487
 2894POPC   NC339647   5.687  44.724   9.636
 2894POPC   PO439648   6.219   0.076   9.421
 2894POPC   GL139649   5.903  44.834   9.129
 2894POPC   GL239650   5.657  44.551   9.162
 2894POPC   C1A39651   5.922  44.580   8.720
 2894POPC   D2A39652   5.811  44.411   8.278
 2894POPC   C3A39653   5.960  44.655   7.920
 2894POPC   C4A39654   6.031  44.690   7.467
 2894POPC   C1B39655   5.426  44.505   8.788
 2894POPC   C2B39656   5.464  44.773   8.420
 2894POPC   C3B39657   5.424  44.664   7.987
 2894POPC   C4B39658   5.524  44.659   7.551
 2895POPC   NC339659  12.354   8.187   9.517
 2895POPC   PO439660  11.708   8.379   9.510
 2895POPC   GL139661  11.907   8.221   9.138
 2895POPC   GL239662  12.230   8.121   9.030
 2895POPC   C1A39663  11.771   8.168   8.729
 2895POPC   D2A39664  12.018   8.254   8.363
 2895POPC   C3A39665  11.851   8.333   7.991
 2895POPC   C4A39666  11.933   8.193   7.617
 2895POPC   C1B39667  12.206   7.890   8.651
 2895POPC   C2B39668  12.424   7.775   8.270
 2895POPC   C3B39669  12.210   7.812   7.872
 2895POPC   C4B39670  12.307   7.892   7.426
 2896POPC   NC339671  10.566  38.887   9.643
 2896POPC   PO439672  10.304  38.221   9.600
 2896POPC   GL139673  10.500  38.516   9.278
 2896POPC   GL239674  10.765  38.799   9.176
 2896POPC   C1A39675  10.637  38.361   8.891
 2896POPC   D2A39676  10.436  38.390   8.493
 2896POPC   C3A39677  10.461  38.115   8.152
 2896POPC   C4A39678  10.206  38.307   7.835
 2896POPC   C1B39679  10.948  38.765   8.810
 2896POPC   C2B39680  10.928  38.513   8.465
 2896POPC   C3B39681  10.921  38.363   8.066
 2896POPC   C4B39682  10.682  38.408   7.725
 2897POPC   NC339683  31.797  29.776   9.293
 2897POPC   PO439684  32.441  30.051   9.468
 2897POPC   GL139685  32.298  30.062   9.056
 2897POPC   GL239686  32.242  29.719   9.056
 2897POPC   C1A39687  31.967  30.003   8.716
 2897POPC   D2A39688  31.930  29.802   8.352
 2897POPC   C3A39689  32.223  29.994   8.128
 2897POPC   C4A39690  32.159  30.093   7.731
 2897POPC   C1B39691  32.410  29.740   8.645
 2897POPC   C2B39692  32.676  29.503   8.399
 2897POPC   C3B39693  32.620  29.640   8.001
 2897POPC   C4B39694  32.244  29.552   7.850
 2898POPC   NC339695  42.833  34.821   9.460
 2898POPC   PO439696  43.261  34.325   9.533
 2898POPC   GL139697  43.161  34.543   9.164
 2898POPC   GL239698  43.013  34.242   9.081
 2898POPC   C1A39699  43.056  34.858   8.821
 2898POPC   D2A39700  42.889  34.736   8.399
 2898POPC   C3A39701  43.087  34.779   8.011
 2898POPC   C4A39702  42.933  34.910   7.641
 2898POPC   C1B39703  43.111  34.365   8.683
 2898POPC   C2B39704  43.242  34.349   8.291
 2898POPC   C3B39705  43.132  34.298   7.883
 2898POPC   C4B39706  43.064  34.454   7.461
 2899POPC   NC339707   8.025  10.917   9.484
 2899POPC   PO439708   8.416  11.413   9.474
 2899POPC   GL139709   8.240  11.348   9.100
 2899POPC   GL239710   8.170  11.018   9.013
 2899POPC   C1A39711   8.342  11.422   8.685
 2899POPC   D2A39712   8.113  11.519   8.338
 2899POPC   C3A39713   8.283  11.498   7.953
 2899POPC   C4A39714   8.136  11.240   7.670
 2899POPC   C1B39715   8.546  10.967   8.814
 2899POPC   C2B39716   8.664  11.105   8.420
 2899POPC   C3B39717   8.422  11.030   8.092
 2899POPC   C4B39718   8.603  10.991   7.728
 2900POPC   NC339719  38.109  40.376   9.319
 2900POPC   PO439720  37.670  40.560   9.750
 2900POPC   GL139721  37.699  40.606   9.195
 2900POPC   GL239722  37.751  40.975   9.038
 2900POPC   C1A39723  37.642  40.579   8.739
 2900POPC   D2A39724  37.651  40.433   8.305
 2900POPC   C3A39725  37.564  40.719   7.987
 2900POPC   C4A39726  37.481  40.809   7.587
 2900POPC   C1B39727  38.053  40.931   8.686
 2900POPC   C2B39728  37.981  40.902   8.228
 2900POPC   C3B39729  37.927  41.048   7.800
 2900POPC   C4B39730  38.224  41.061   7.488
 2901POPC   NC339731  21.524  18.952   9.726
 2901POPC   PO439732  21.136  18.475   9.657
 2901POPC   GL139733  21.293  18.418   9.181
 2901POPC   GL239734  21.651  18.321   9.086
 2901POPC   C1A39735  21.305  18.192   8.744
 2901POPC   D2A39736  21.220  18.314   8.349
 2901POPC   C3A39737  21.334  18.232   7.940
 2901POPC   C4A39738  21.127  18.469   7.597
 2901POPC   C1B39739  21.807  18.252   8.646
 2901POPC   C2B39740  21.754  18.065   8.241
 2901POPC   C3B39741  21.824  18.245   7.865
 2901POPC   C4B39742  21.597  18.263   7.464
 2902POPC   NC339743   4.629  11.965   9.483
 2902POPC   PO439744   4.000  12.321   9.526
 2902POPC   GL139745   4.243  12.161   9.206
 2902POPC   GL239746   4.175  11.791   9.197
 2902POPC   C1A39747   4.225  12.254   8.780
 2902POPC   D2A39748   4.041  12.107   8.406
 2902POPC   C3A39749   4.250  12.327   8.070
 2902POPC   C4A39750   4.177  12.259   7.658
 2902POPC   C1B39751   4.366  11.733   8.783
 2902POPC   C2B39752   4.498  11.783   8.344
 2902POPC   C3B39753   4.296  11.839   7.934
 2902POPC   C4B39754   4.402  11.781   7.484
 2903POPC   NC339755  19.134  18.769   9.579
 2903POPC   PO439756  18.864  19.289   9.487
 2903POPC   GL139757  19.071  19.052   9.167
 2903POPC   GL239758  19.181  19.352   9.018
 2903POPC   C1A39759  19.059  18.846   8.765
 2903POPC   D2A39760  19.025  19.099   8.370
 2903POPC   C3A39761  19.044  18.903   7.941
 2903POPC   C4A39762  19.383  18.853   7.661
 2903POPC   C1B39763  19.232  19.557   8.622
 2903POPC   C2B39764  19.414  19.421   8.242
 2903POPC   C3B39765  19.262  19.368   7.815
 2903POPC   C4B39766  19.292  19.548   7.393
 2904POPC   NC339767  34.204  44.137   9.508
 2904POPC   PO439768  34.767  43.719   9.577
 2904POPC   GL139769  34.490  43.798   9.212
 2904POPC   GL239770  34.554  44.128   9.129
 2904POPC   C1A39771  34.460  43.792   8.743
 2904POPC   D2A39772  34.732  43.718   8.379
 2904POPC   C3A39773  34.549  43.774   7.992
 2904POPC   C4A39774  34.271  43.664   7.701
 2904POPC   C1B39775  34.626  44.312   8.738
 2904POPC   C2B39776  34.551  44.228   8.311
 2904POPC   C3B39777  34.739  44.255   7.907
 2904POPC   C4B39778  34.535  44.087   7.546
 2905POPC   NC339779   1.062  14.928   9.409
 2905POPC   PO439780   1.582  15.481   9.574
 2905POPC   GL139781   1.444  15.236   9.187
 2905POPC   GL239782   1.374  14.901   8.996
 2905POPC   C1A39783   1.242  15.353   8.781
 2905POPC   D2A39784   1.157  15.189   8.372
 2905POPC   C3A39785   1.194  15.419   7.991
 2905POPC   C4A39786   0.943  15.500   7.637
 2905POPC   C1B39787   0.967  14.883   8.759
 2905POPC   C2B39788   0.775  14.876   8.345
 2905POPC   C3B39789   0.936  14.961   7.925
 2905POPC   C4B39790   1.226  15.036   7.600
 2906POPC   NC339791   0.158  20.388   9.419
 2906POPC   PO439792   0.633  20.838   9.421
 2906POPC   GL139793   0.398  20.920   9.057
 2906POPC   GL239794   0.372  20.612   9.016
 2906POPC   C1A39795   0.316  20.896   8.596
 2906POPC   D2A39796   0.527  21.048   8.242
 2906POPC   C3A39797   0.448  20.778   7.904
 2906POPC   C4A39798   0.557  20.668   7.487
 2906POPC   C1B39799   0.543  20.393   8.682
 2906POPC   C2B39800   0.422  20.446   8.297
 2906POPC   C3B39801   0.289  20.282   7.936
 2906POPC   C4B39802   0.070  20.473   7.632
 2907POPC   NC339803   3.804  11.851   9.572
 2907POPC   PO439804   3.233  12.179   9.426
 2907POPC   GL139805   3.468  11.873   9.184
 2907POPC   GL239806   3.740  12.099   9.136
 2907POPC   C1A39807   3.618  11.810   8.747
 2907POPC   D2A39808   3.392  12.026   8.411
 2907POPC   C3A39809   3.436  11.888   8.001
 2907POPC   C4A39810   3.461  12.100   7.629
 2907POPC   C1B39811   3.705  12.374   8.801
 2907POPC   C2B39812   3.549  12.523   8.436
 2907POPC   C3B39813   3.689  12.328   8.071
 2907POPC   C4B39814   3.744  12.505   7.690
 2908POPC   NC339815  39.552  34.699   9.472
 2908POPC   PO439816  38.901  34.460   9.422
 2908POPC   GL139817  38.957  34.602   8.993
 2908POPC   GL239818  39.302  34.574   9.052
 2908POPC   C1A39819  38.960  34.922   8.609
 2908POPC   D2A39820  38.934  35.039   8.143
 2908POPC   C3A39821  38.895  34.646   7.890
 2908POPC   C4A39822  39.045  34.252   7.756
 2908POPC   C1B39823  39.414  34.671   8.667
 2908POPC   C2B39824  39.255  34.650   8.265
 2908POPC   C3B39825  39.415  34.612   7.871
 2908POPC   C4B39826  39.847  34.588   7.720
 2909POPC   NC339827  25.178   7.942   9.520
 2909POPC   PO439828  25.748   8.397   9.450
 2909POPC   GL139829  25.448   8.134   9.130
 2909POPC   GL239830  25.400   7.736   9.087
 2909POPC   C1A39831  25.375   8.064   8.678
 2909POPC   D2A39832  25.526   8.235   8.280
 2909POPC   C3A39833  25.367   8.426   7.897
 2909POPC   C4A39834  25.357   8.197   7.528
 2909POPC   C1B39835  25.229   7.577   8.720
 2909POPC   C2B39836  25.060   7.783   8.353
 2909POPC   C3B39837  25.237   7.912   7.969
 2909POPC   C4B39838  25.148   7.751   7.601
 2910POPC   NC339839  44.290  30.947   9.642
 2910POPC   PO439840  44.915  30.673   9.541
 2910POPC   GL139841  44.733  30.702   9.137
 2910POPC   GL239842  44.421  30.908   9.128
 2910POPC   C1A39843  44.755  30.809   8.696
 2910POPC   D2A39844  44.563  30.644   8.328
 2910POPC   C3A39845  44.818  30.494   8.020
 2910POPC   C4A39846  44.771  30.707   7.670
 2910POPC   C1B39847  44.255  30.861   8.695
 2910POPC   C2B39848  44.065  30.814   8.284
 2910POPC   C3B39849  44.315  30.892   7.922
 2910POPC   C4B39850  44.452  31.122   7.549
 2911POPC   NC339851  39.499  44.169   9.904
 2911POPC   PO439852  39.058  43.772   9.551
 2911POPC   GL139853  39.040  43.785   9.134
 2911POPC   GL239854  39.385  43.725   9.117
 2911POPC   C1A39855  38.959  43.621   8.731
 2911POPC   D2A39856  38.801  43.484   8.343
 2911POPC   C3A39857  38.971  43.733   7.999
 2911POPC   C4A39858  39.150  44.124   7.803
 2911POPC   C1B39859  39.356  43.980   8.759
 2911POPC   C2B39860  39.321  43.788   8.402
 2911POPC   C3B39861  39.487  43.774   8.058
 2911POPC   C4B39862  39.641  43.971   7.749
 2912POPC   NC339863   5.632  27.101   9.428
 2912POPC   PO439864   5.983  27.581   9.722
 2912POPC   GL139865   5.973  27.499   9.299
 2912POPC   GL239866   6.225  27.683   9.164
 2912POPC   C1A39867   5.860  27.503   8.858
 2912POPC   D2A39868   5.788  27.818   8.547
 2912POPC   C3A39869   5.840  27.594   8.156
 2912POPC   C4A39870   5.793  27.784   7.768
 2912POPC   C1B39871   6.283  27.894   8.793
 2912POPC   C2B39872   6.256  27.809   8.378
 2912POPC   C3B39873   6.225  27.913   7.998
 2912POPC   C4B39874   6.235  28.088   7.617
 2913POPC   NC339875  39.552   2.346   9.462
 2913POPC   PO439876  39.718   1.675   9.461
 2913POPC   GL139877  39.839   1.973   9.107
 2913POPC   GL239878  39.578   2.231   8.979
 2913POPC   C1A39879  40.108   2.037   8.718
 2913POPC   D2A39880  39.972   2.071   8.241
 2913POPC   C3A39881  40.308   2.118   7.905
 2913POPC   C4A39882  40.362   2.306   7.461
 2913POPC   C1B39883  39.620   1.991   8.632
 2913POPC   C2B39884  39.605   1.709   8.293
 2913POPC   C3B39885  39.801   1.472   7.967
 2913POPC   C4B39886  39.830   1.571   7.498
 2914POPC   NC339887  42.734  26.991   9.654
 2914POPC   PO439888  43.339  26.773   9.546
 2914POPC   GL139889  43.239  26.675   9.129
 2914POPC   GL239890  42.947  26.839   9.209
 2914POPC   C1A39891  42.923  26.626   8.762
 2914POPC   D2A39892  43.017  26.798   8.362
 2914POPC   C3A39893  42.987  26.653   7.932
 2914POPC   C4A39894  43.330  26.918   7.723
 2914POPC   C1B39895  42.840  27.142   8.894
 2914POPC   C2B39896  42.669  27.139   8.496
 2914POPC   C3B39897  42.900  27.205   8.095
 2914POPC   C4B39898  42.832  27.083   7.696
 2915POPC   NC339899   8.493   0.887   9.426
 2915POPC   PO439900   8.180   1.453   9.342
 2915POPC   GL139901   8.114   1.074   9.107
 2915POPC   GL239902   7.803   0.943   9.220
 2915POPC   C1A39903   8.260   1.064   8.684
 2915POPC   D2A39904   8.223   1.349   8.328
 2915POPC   C3A39905   8.366   1.196   7.928
 2915POPC   C4A39906   8.667   1.366   7.637
 2915POPC   C1B39907   7.698   1.027   8.777
 2915POPC   C2B39908   7.693   1.299   8.390
 2915POPC   C3B39909   7.856   1.274   7.973
 2915POPC   C4B39910   7.930   0.860   7.766
 2916POPC   NC339911   7.977  14.107   9.537
 2916POPC   PO439912   8.166  14.725   9.704
 2916POPC   GL139913   8.097  14.545   9.295
 2916POPC   GL239914   8.387  14.446   9.213
 2916POPC   C1A39915   8.084  14.582   8.810
 2916POPC   D2A39916   8.035  14.208   8.485
 2916POPC   C3A39917   8.249  14.219   8.092
 2916POPC   C4A39918   8.262  14.670   8.010
 2916POPC   C1B39919   8.593  14.602   8.873
 2916POPC   C2B39920   8.478  14.515   8.461
 2916POPC   C3B39921   8.717  14.449   8.100
 2916POPC   C4B39922   8.639  14.255   7.749
 2917POPC   NC339923  11.580  40.865   9.350
 2917POPC   PO439924  11.019  41.143   9.438
 2917POPC   GL139925  11.110  40.808   9.097
 2917POPC   GL239926  11.315  40.985   8.864
 2917POPC   C1A39927  11.273  40.510   8.723
 2917POPC   D2A39928  11.429  40.674   8.324
 2917POPC   C3A39929  11.346  40.933   7.977
 2917POPC   C4A39930  11.170  40.736   7.643
 2917POPC   C1B39931  11.731  40.779   8.726
 2917POPC   C2B39932  11.926  40.595   8.352
 2917POPC   C3B39933  11.805  40.531   7.925
 2917POPC   C4B39934  11.665  40.700   7.512
 2918POPC   NC339935  31.830   6.918   9.270
 2918POPC   PO439936  32.388   6.763   9.512
 2918POPC   GL139937  32.315   6.475   9.171
 2918POPC   GL239938  31.985   6.363   9.258
 2918POPC   C1A39939  32.204   6.544   8.732
 2918POPC   D2A39940  32.090   6.820   8.390
 2918POPC   C3A39941  32.478   6.886   8.185
 2918POPC   C4A39942  32.540   6.859   7.747
 2918POPC   C1B39943  32.111   6.074   8.897
 2918POPC   C2B39944  32.169   6.066   8.432
 2918POPC   C3B39945  32.228   6.386   8.078
 2918POPC   C4B39946  32.202   6.474   7.634
 2919POPC   NC339947  39.484  23.182   9.524
 2919POPC   PO439948  38.905  22.838   9.453
 2919POPC   GL139949  39.155  22.973   9.154
 2919POPC   GL239950  39.448  22.793   9.161
 2919POPC   C1A39951  39.166  22.884   8.735
 2919POPC   D2A39952  39.114  23.110   8.363
 2919POPC   C3A39953  39.109  22.782   8.075
 2919POPC   C4A39954  39.013  22.831   7.698
 2919POPC   C1B39955  39.613  23.083   8.865
 2919POPC   C2B39956  39.602  23.210   8.446
 2919POPC   C3B39957  39.484  23.099   8.000
 2919POPC   C4B39958  39.491  23.012   7.526
 2920POPC   NC339959   6.027  32.022   9.310
 2920POPC   PO439960   5.817  31.378   9.443
 2920POPC   GL139961   6.111  31.347   9.102
 2920POPC   GL239962   6.150  31.649   8.962
 2920POPC   C1A39963   5.926  31.136   8.771
 2920POPC   D2A39964   5.737  31.217   8.357
 2920POPC   C3A39965   5.693  31.276   7.901
 2920POPC   C4A39966   5.327  31.439   7.625
 2920POPC   C1B39967   6.120  31.545   8.559
 2920POPC   C2B39968   6.130  31.486   8.146
 2920POPC   C3B39969   5.946  31.723   7.823
 2920POPC   C4B39970   6.188  31.792   7.463
 2921POPC   NC339971  34.594   7.091   9.461
 2921POPC   PO439972  34.352   7.755   9.265
 2921POPC   GL139973  34.388   7.342   9.067
 2921POPC   GL239974  34.749   7.192   8.992
 2921POPC   C1A39975  34.184   7.235   8.690
 2921POPC   D2A39976  34.060   7.387   8.287
 2921POPC   C3A39977  34.315   7.254   7.933
 2921POPC   C4A39978  34.497   7.467   7.575
 2921POPC   C1B39979  34.721   7.536   8.717
 2921POPC   C2B39980  34.545   7.553   8.301
 2921POPC   C3B39981  34.808   7.534   7.949
 2921POPC   C4B39982  34.998   7.438   7.566
 2922POPC   NC339983  43.139  15.607   9.743
 2922POPC   PO439984  43.241  16.246   9.605
 2922POPC   GL139985  43.236  16.090   9.177
 2922POPC   GL239986  43.036  15.777   9.167
 2922POPC   C1A39987  43.288  16.104   8.722
 2922POPC   D2A39988  43.251  15.830   8.366
 2922POPC   C3A39989  43.074  15.988   8.003
 2922POPC   C4A39990  43.070  15.788   7.593
 2922POPC   C1B39991  42.853  15.757   8.736
 2922POPC   C2B39992  42.696  15.777   8.311
 2922POPC   C3B39993  42.616  15.865   7.855
 2922POPC   C4B39994  42.596  15.899   7.418
 2923POPC   NC339995  36.907  11.795   9.252
 2923POPC   PO439996  36.553  12.185   9.682
 2923POPC   GL139997  36.655  12.234   9.192
 2923POPC   GL239998  36.485  12.388   8.914
 2923POPC   C1A39999  36.872  12.126   8.734
 2923POPC   D2A40000  36.755  12.237   8.323
 2923POPC   C3A40001  36.917  12.004   7.988
 2923POPC   C4A40002  37.015  11.999   7.546
 2923POPC   C1B40003  36.382  11.997   8.646
 2923POPC   C2B40004  36.631  11.702   8.345
 2923POPC   C3B40005  36.577  11.655   7.884
 2923POPC   C4B40006  36.511  12.049   7.669
 2924POPC   NC340007   4.941  40.893   9.541
 2924POPC   PO440008   5.530  40.632   9.505
 2924POPC   GL140009   5.239  40.684   9.170
 2924POPC   GL240010   5.210  41.026   9.063
 2924POPC   C1A40011   5.296  40.677   8.723
 2924POPC   D2A40012   5.061  40.820   8.395
 2924POPC   C3A40013   5.129  40.611   8.043
 2924POPC   C4A40014   5.410  40.805   7.797
 2924POPC   C1B40015   4.844  41.124   8.805
 2924POPC   C2B40016   4.606  41.041   8.410
 2924POPC   C3B40017   4.765  40.967   7.998
 2924POPC   C4B40018   5.046  41.185   7.687
 2925POPC   NC340019  28.819   4.475   9.550
 2925POPC   PO440020  28.139   4.335   9.533
 2925POPC   GL140021  28.265   4.461   9.161
 2925POPC   GL240022  28.571   4.299   9.151
 2925POPC   C1A40023  28.182   4.309   8.759
 2925POPC   D2A40024  28.351   4.421   8.390
 2925POPC   C3A40025  28.111   4.392   8.043
 2925POPC   C4A40026  28.269   4.514   7.662
 2925POPC   C1B40027  28.646   4.059   8.785
 2925POPC   C2B40028  28.753   4.112   8.359
 2925POPC   C3B40029  28.556   4.141   7.970
 2925POPC   C4B40030  28.433   4.048   7.551
 2926POPC   NC340031  27.078  35.784   9.334
 2926POPC   PO440032  26.808  36.286   9.653
 2926POPC   GL140033  26.593  36.239   9.231
 2926POPC   GL240034  26.639  35.942   9.116
 2926POPC   C1A40035  26.551  36.412   8.808
 2926POPC   D2A40036  26.819  36.376   8.390
 2926POPC   C3A40037  26.662  36.514   7.969
 2926POPC   C4A40038  26.295  36.364   7.696
 2926POPC   C1B40039  26.826  35.988   8.732
 2926POPC   C2B40040  26.650  35.875   8.344
 2926POPC   C3B40041  26.611  35.987   7.935
 2926POPC   C4B40042  27.026  35.923   7.783
 2927POPC   NC340043  29.623   8.085   9.713
 2927POPC   PO440044  29.759   8.718   9.503
 2927POPC   GL140045  29.977   8.553   9.199
 2927POPC   GL240046  30.234   8.301   9.249
 2927POPC   C1A40047  29.926   8.596   8.794
 2927POPC   D2A40048  30.039   8.364   8.447
 2927POPC   C3A40049  29.756   8.421   8.108
 2927POPC   C4A40050  29.766   8.238   7.715
 2927POPC   C1B40051  30.342   8.021   8.885
 2927POPC   C2B40052  30.326   7.869   8.449
 2927POPC   C3B40053  30.171   8.053   8.046
 2927POPC   C4B40054  30.142   7.905   7.618
 2928POPC   NC340055  39.511  16.388   9.477
 2928POPC   PO440056  39.133  16.866   9.558
 2928POPC   GL140057  39.063  16.785   9.147
 2928POPC   GL240058  39.158  16.479   9.139
 2928POPC   C1A40059  39.302  16.856   8.769
 2928POPC   D2A40060  39.646  16.826   8.463
 2928POPC   C3A40061  39.476  16.838   8.047
 2928POPC   C4A40062  39.082  17.004   7.889
 2928POPC   C1B40063  39.388  16.301   8.784
 2928POPC   C2B40064  39.215  16.168   8.395
 2928POPC   C3B40065  39.230  16.368   7.975
 2928POPC   C4B40066  38.966  16.351   7.618
 2929POPC   NC340067   6.185   1.489   9.664
 2929POPC   PO440068   5.752   1.042   9.573
 2929POPC   GL140069   5.644   1.169   9.167
 2929POPC   GL240070   5.851   1.448   9.126
 2929POPC   C1A40071   5.829   1.023   8.740
 2929POPC   D2A40072   5.987   1.185   8.364
 2929POPC   C3A40073   6.014   1.035   7.975
 2929POPC   C4A40074   6.228   1.270   7.689
 2929POPC   C1B40075   5.521   1.421   8.763
 2929POPC   C2B40076   5.452   1.232   8.377
 2929POPC   C3B40077   5.572   1.286   7.950
 2929POPC   C4B40078   5.740   1.393   7.549
 2930POPC   NC340079   0.961  43.622   9.502
 2930POPC   PO440080   1.533  43.976   9.516
 2930POPC   GL140081   1.422  43.828   9.098
 2930POPC   GL240082   1.070  43.878   9.075
 2930POPC   C1A40083   1.342  43.885   8.636
 2930POPC   D2A40084   1.191  43.705   8.255
 2930POPC   C3A40085   1.293  43.875   7.858
 2930POPC   C4A40086   0.993  43.780   7.575
 2930POPC   C1B40087   0.829  44.157   8.814
 2930POPC   C2B40088   1.060  44.319   8.522
 2930POPC   C3B40089   1.046  44.276   8.097
 2930POPC   C4B40090   1.056  44.274   7.672
 2931POPC   NC340091  27.047  11.951   9.453
 2931POPC   PO440092  26.601  12.376   9.637
 2931POPC   GL140093  26.767  12.324   9.190
 2931POPC   GL240094  26.638  11.970   9.144
 2931POPC   C1A40095  26.995  12.103   8.815
 2931POPC   D2A40096  26.826  11.891   8.466
 2931POPC   C3A40097  26.829  12.058   8.067
 2931POPC   C4A40098  27.114  12.193   7.751
 2931POPC   C1B40099  26.410  11.877   8.765
 2931POPC   C2B40100  26.326  12.047   8.361
 2931POPC   C3B40101  26.339  11.889   7.944
 2931POPC   C4B40102  26.678  11.832   7.628
 2932POPC   NC340103  33.497  15.753   9.542
 2932POPC   PO440104  34.126  16.185   9.525
 2932POPC   GL140105  34.062  15.996   9.155
 2932POPC   GL240106  33.705  16.030   9.177
 2932POPC   C1A40107  33.981  16.165   8.747
 2932POPC   D2A40108  33.931  15.987   8.344
 2932POPC   C3A40109  33.834  16.230   7.987
 2932POPC   C4A40110  33.741  16.063   7.567
 2932POPC   C1B40111  33.475  16.157   8.821
 2932POPC   C2B40112  33.431  15.975   8.424
 2932POPC   C3B40113  33.448  15.898   7.990
 2932POPC   C4B40114  33.253  16.191   7.675
 2933POPC   NC340115   3.062   0.637   9.530
 2933POPC   PO440116   2.648   0.112   9.533
 2933POPC   GL140117   2.756   0.401   9.184
 2933POPC   GL240118   3.068   0.309   9.118
 2933POPC   C1A40119   2.765   0.439   8.712
 2933POPC   D2A40120   2.542   0.313   8.341
 2933POPC   C3A40121   2.705   0.371   7.931
 2933POPC   C4A40122   2.787   0.545   7.526
 2933POPC   C1B40123   3.248   0.558   8.762
 2933POPC   C2B40124   3.154   0.479   8.313
 2933POPC   C3B40125   3.166   0.553   7.877
 2933POPC   C4B40126   3.170   0.892   7.595
 2934POPC   NC340127   5.813   6.608   9.561
 2934POPC   PO440128   5.994   7.246   9.385
 2934POPC   GL140129   5.830   6.939   9.084
 2934POPC   GL240130   5.806   6.581   9.066
 2934POPC   C1A40131   5.788   6.894   8.644
 2934POPC   D2A40132   5.929   6.572   8.363
 2934POPC   C3A40133   5.790   6.673   7.964
 2934POPC   C4A40134   5.681   6.923   7.620
 2934POPC   C1B40135   5.598   6.398   8.728
 2934POPC   C2B40136   5.427   6.377   8.309
 2934POPC   C3B40137   5.680   6.164   8.013
 2934POPC   C4B40138   5.850   6.295   7.620
 2935POPC   NC340139  10.661   6.326   9.415
 2935POPC   PO440140  10.121   6.650   9.417
 2935POPC   GL140141  10.447   6.728   9.135
 2935POPC   GL240142  10.548   7.037   9.141
 2935POPC   C1A40143  10.616   6.503   8.789
 2935POPC   D2A40144  10.380   6.397   8.432
 2935POPC   C3A40145  10.545   6.473   8.042
 2935POPC   C4A40146  10.310   6.660   7.749
 2935POPC   C1B40147  10.786   7.015   8.790
 2935POPC   C2B40148  10.755   6.795   8.393
 2935POPC   C3B40149  10.786   6.930   7.971
 2935POPC   C4B40150  10.516   7.110   7.704
 2936POPC   NC340151  14.413   3.803   9.699
 2936POPC   PO440152  14.287   3.142   9.506
 2936POPC   GL140153  14.287   3.505   9.196
 2936POPC   GL240154  14.217   3.267   8.974
 2936POPC   C1A40155  14.260   3.703   8.727
 2936POPC   D2A40156  14.480   3.607   8.308
 2936POPC   C3A40157  14.305   3.627   7.857
 2936POPC   C4A40158  14.424   3.812   7.434
 2936POPC   C1B40159  14.535   3.228   8.718
 2936POPC   C2B40160  14.557   3.082   8.320
 2936POPC   C3B40161  14.639   3.230   7.939
 2936POPC   C4B40162  14.656   3.393   7.552
 2937POPC   NC340163  39.397  14.818   9.426
 2937POPC   PO440164  38.854  14.388   9.604
 2937POPC   GL140165  39.127  14.344   9.259
 2937POPC   GL240166  38.953  14.641   9.168
 2937POPC   C1A40167  39.414  14.323   8.877
 2937POPC   D2A40168  39.593  14.590   8.539
 2937POPC   C3A40169  39.463  14.521   8.124
 2937POPC   C4A40170  39.302  14.182   7.881
 2937POPC   C1B40171  38.913  14.358   8.795
 2937POPC   C2B40172  39.024  14.194   8.360
 2937POPC   C3B40173  38.849  14.358   7.970
 2937POPC   C4B40174  38.776  14.603   7.617
 2938POPC   NC340175   5.755  18.915   9.577
 2938POPC   PO440176   6.291  19.355   9.401
 2938POPC   GL140177   5.987  19.264   9.061
 2938POPC   GL240178   5.815  18.939   9.079
 2938POPC   C1A40179   5.659  19.270   8.719
 2938POPC   D2A40180   5.612  19.075   8.319
 2938POPC   C3A40181   6.009  19.079   8.126
 2938POPC   C4A40182   6.103  19.140   7.720
 2938POPC   C1B40183   6.035  18.834   8.695
 2938POPC   C2B40184   5.901  18.606   8.331
 2938POPC   C3B40185   5.753  18.657   7.917
 2938POPC   C4B40186   5.445  18.528   7.632
 2939POPC   NC340187  39.576  12.246   9.472
 2939POPC   PO440188  39.043  12.055   9.860
 2939POPC   GL140189  39.043  12.019   9.365
 2939POPC   GL240190  39.165  12.336   9.189
 2939POPC   C1A40191  39.072  11.953   8.874
 2939POPC   D2A40192  39.131  12.261   8.500
 2939POPC   C3A40193  38.975  12.193   8.084
 2939POPC   C4A40194  39.101  11.873   7.822
 2939POPC   C1B40195  39.493  12.264   8.857
 2939POPC   C2B40196  39.679  12.193   8.476
 2939POPC   C3B40197  39.490  12.104   8.092
 2939POPC   C4B40198  39.460  12.289   7.700
 2940POPC   NC340199  10.391  26.668   9.565
 2940POPC   PO440200  11.020  26.770   9.628
 2940POPC   GL140201  10.853  26.598   9.203
 2940POPC   GL240202  10.478  26.620   9.074
 2940POPC   C1A40203  10.842  26.718   8.756
 2940POPC   D2A40204  10.536  26.851   8.449
 2940POPC   C3A40205  10.733  26.919   8.046
 2940POPC   C4A40206  10.537  27.096   7.676
 2940POPC   C1B40207  10.134  26.483   8.778
 2940POPC   C2B40208   9.931  26.320   8.417
 2940POPC   C3B40209  10.129  26.425   8.047
 2940POPC   C4B40210  10.434  26.587   7.812
 2941POPC   NC340211  19.713  15.254   9.413
 2941POPC   PO440212  20.091  15.749   9.547
 2941POPC   GL140213  20.186  15.436   9.191
 2941POPC   GL240214  20.115  15.047   9.199
 2941POPC   C1A40215  19.980  15.320   8.779
 2941POPC   D2A40216  19.632  15.295   8.458
 2941POPC   C3A40217  19.828  15.344   8.072
 2941POPC   C4A40218  19.944  15.504   7.661
 2941POPC   C1B40219  20.074  14.808   8.849
 2941POPC   C2B40220  19.953  14.889   8.457
 2941POPC   C3B40221  19.990  14.763   8.075
 2941POPC   C4B40222  19.867  14.956   7.719
 2942POPC   NC340223  12.552  31.570   9.495
 2942POPC   PO440224  13.104  31.350   9.649
 2942POPC   GL140225  12.940  31.375   9.193
 2942POPC   GL240226  12.803  31.681   9.050
 2942POPC   C1A40227  12.849  31.151   8.772
 2942POPC   D2A40228  12.876  31.252   8.321
 2942POPC   C3A40229  12.588  31.195   7.980
 2942POPC   C4A40230  12.837  31.155   7.601
 2942POPC   C1B40231  13.069  31.607   8.735
 2942POPC   C2B40232  13.125  31.694   8.298
 2942POPC   C3B40233  12.964  31.585   7.893
 2942POPC   C4B40234  13.103  31.790   7.518
 2943POPC   NC340235  35.829   3.907   9.355
 2943POPC   PO440236  36.232   4.394   9.676
 2943POPC   GL140237  36.266   4.112   9.268
 2943POPC   GL240238  35.938   4.276   9.048
 2943POPC   C1A40239  36.326   3.977   8.829
 2943POPC   D2A40240  36.275   3.872   8.393
 2943POPC   C3A40241  36.176   4.224   8.142
 2943POPC   C4A40242  36.246   4.286   7.709
 2943POPC   C1B40243  35.902   4.223   8.605
 2943POPC   C2B40244  35.687   4.425   8.261
 2943POPC   C3B40245  35.683   4.276   7.858
 2943POPC   C4B40246  35.778   4.196   7.467
 2944POPC   NC340247  27.103  39.791   9.468
 2944POPC   PO440248  26.643  40.041   9.097
 2944POPC   GL140249  27.001  40.013   8.874
 2944POPC   GL240250  27.315  39.852   9.010
 2944POPC   C1A40251  26.948  40.265   8.491
 2944POPC   D2A40252  26.621  40.163   8.183
 2944POPC   C3A40253  26.440  40.372   7.840
 2944POPC   C4A40254  26.669  40.164   7.536
 2944POPC   C1B40255  27.304  39.740   8.571
 2944POPC   C2B40256  27.006  39.818   8.259
 2944POPC   C3B40257  27.077  39.992   7.849
 2944POPC   C4B40258  27.427  39.902   7.546
 2945POPC   NC340259  32.659  27.297   9.486
 2945POPC   PO440260  32.131  27.805   9.640
 2945POPC   GL140261  32.299  27.645   9.265
 2945POPC   GL240262  32.194  27.319   9.192
 2945POPC   C1A40263  32.266  27.758   8.831
 2945POPC   D2A40264  32.179  27.530   8.473
 2945POPC   C3A40265  32.198  27.721   8.088
 2945POPC   C4A40266  32.223  27.503   7.699
 2945POPC   C1B40267  32.501  27.304   8.857
 2945POPC   C2B40268  32.609  27.240   8.457
 2945POPC   C3B40269  32.416  27.215   8.063
 2945POPC   C4B40270  32.645  27.229   7.671
 2946POPC   NC340271  36.544  31.267   9.621
 2946POPC   PO440272  36.976  31.703   9.661
 2946POPC   GL140273  36.791  31.709   9.217
 2946POPC   GL240274  36.818  31.372   9.152
 2946POPC   C1A40275  36.881  31.662   8.730
 2946POPC   D2A40276  36.777  31.819   8.311
 2946POPC   C3A40277  36.943  31.706   7.910
 2946POPC   C4A40278  37.225  31.409   7.748
 2946POPC   C1B40279  37.000  31.180   8.803
 2946POPC   C2B40280  37.037  30.917   8.476
 2946POPC   C3B40281  36.993  31.171   8.133
 2946POPC   C4B40282  36.666  31.301   7.843
 2947POPC   NC340283  44.531  15.666   9.321
 2947POPC   PO440284  44.479  15.082   9.624
 2947POPC   GL140285  44.357  15.135   9.177
 2947POPC   GL240286  44.680  15.228   9.080
 2947POPC   C1A40287  44.353  15.143   8.702
 2947POPC   D2A40288  44.678  14.900   8.507
 2947POPC   C3A40289  44.676  14.908   8.069
 2947POPC   C4A40290  44.277  14.896   7.846
 2947POPC   C1B40291  44.718  15.504   8.695
 2947POPC   C2B40292  44.559  15.599   8.287
 2947POPC   C3B40293  44.465  15.371   7.912
 2947POPC   C4B40294  44.703  15.383   7.550
 2948POPC   NC340295  13.245  11.642   9.501
 2948POPC   PO440296  13.552  11.112   9.463
 2948POPC   GL140297  13.775  11.181   9.075
 2948POPC   GL240298  13.465  11.253   8.999
 2948POPC   C1A40299  13.739  11.412   8.625
 2948POPC   D2A40300  13.508  11.635   8.272
 2948POPC   C3A40301  13.628  11.379   7.925
 2948POPC   C4A40302  14.054  11.207   7.769
 2948POPC   C1B40303  13.183  11.111   8.755
 2948POPC   C2B40304  13.271  11.225   8.427
 2948POPC   C3B40305  13.274  11.053   8.112
 2948POPC   C4B40306  13.245  11.092   7.710
 2949POPC   NC340307  11.569  36.741   9.251
 2949POPC   PO440308  12.248  36.594   9.364
 2949POPC   GL140309  12.177  36.963   9.109
 2949POPC   GL240310  11.879  37.181   9.096
 2949POPC   C1A40311  12.032  36.864   8.708
 2949POPC   D2A40312  11.849  36.693   8.359
 2949POPC   C3A40313  12.084  36.780   8.016
 2949POPC   C4A40314  12.165  36.532   7.694
 2949POPC   C1B40315  12.162  37.347   8.763
 2949POPC   C2B40316  12.096  37.218   8.321
 2949POPC   C3B40317  11.932  37.263   7.891
 2949POPC   C4B40318  11.874  36.971   7.551
 2950POPC   NC340319  24.945  34.809   9.318
 2950POPC   PO440320  24.301  34.771   9.458
 2950POPC   GL140321  24.498  34.517   9.099
 2950POPC   GL240322  24.813  34.322   9.215
 2950POPC   C1A40323  24.497  34.496   8.666
 2950POPC   D2A40324  24.624  34.702   8.327
 2950POPC   C3A40325  24.291  34.679   8.051
 2950POPC   C4A40326  24.271  34.497   7.662
 2950POPC   C1B40327  24.853  34.181   8.802
 2950POPC   C2B40328  24.925  34.244   8.366
 2950POPC   C3B40329  24.745  34.345   7.953
 2950POPC   C4B40330  24.684  34.227   7.499
 2951POPC   NC340331  14.830   2.959   9.386
 2951POPC   PO440332  15.364   2.457   9.467
 2951POPC   GL140333  15.170   2.604   9.151
 2951POPC   GL240334  15.313   2.938   9.219
 2951POPC   C1A40335  15.209   2.633   8.721
 2951POPC   D2A40336  14.975   2.733   8.353
 2951POPC   C3A40337  15.204   2.826   7.971
 2951POPC   C4A40338  14.977   2.992   7.619
 2951POPC   C1B40339  15.603   3.050   8.938
 2951POPC   C2B40340  15.552   3.065   8.510
 2951POPC   C3B40341  15.452   3.289   8.157
 2951POPC   C4B40342  15.521   3.189   7.746
 2952POPC   NC340343  26.917  43.678   9.409
 2952POPC   PO440344  26.659  44.353   9.488
 2952POPC   GL140345  26.890  44.120   9.113
 2952POPC   GL240346  26.735  43.774   8.964
 2952POPC   C1A40347  27.041  43.991   8.670
 2952POPC   D2A40348  26.806  43.717   8.403
 2952POPC   C3A40349  26.989  43.748   8.032
 2952POPC   C4A40350  26.952  44.103   7.810
 2952POPC   C1B40351  26.524  43.458   8.736
 2952POPC   C2B40352  26.353  43.439   8.308
 2952POPC   C3B40353  26.368  43.662   7.940
 2952POPC   C4B40354  26.691  43.709   7.602
 2953POPC   NC340355   4.501   0.516   9.313
 2953POPC   PO440356   4.373  44.970   9.673
 2953POPC   GL140357   4.205   0.137   9.207
 2953POPC   GL240358   3.980   0.383   9.177
 2953POPC   C1A40359   4.441   0.239   8.729
 2953POPC   D2A40360   4.427   0.602   8.436
 2953POPC   C3A40361   4.522   0.563   7.986
 2953POPC   C4A40362   4.419   0.364   7.597
 2953POPC   C1B40363   3.966   0.151   8.769
 2953POPC   C2B40364   4.094   0.212   8.336
 2953POPC   C3B40365   4.028   0.432   7.957
 2953POPC   C4B40366   3.934   0.142   7.647
 2954POPC   NC340367  14.852   1.543   9.357
 2954POPC   PO440368  15.123   0.908   9.554
 2954POPC   GL140369  15.270   1.216   9.192
 2954POPC   GL240370  15.163   1.504   8.958
 2954POPC   C1A40371  15.458   1.151   8.775
 2954POPC   D2A40372  15.211   1.336   8.431
 2954POPC   C3A40373  15.191   1.071   8.069
 2954POPC   C4A40374  15.172   1.155   7.617
 2954POPC   C1B40375  14.906   1.715   8.671
 2954POPC   C2B40376  14.849   1.684   8.264
 2954POPC   C3B40377  14.951   1.494   7.919
 2954POPC   C4B40378  14.821   1.517   7.482
 2955POPC   NC340379  20.359  23.065   9.730
 2955POPC   PO440380  20.555  22.428   9.653
 2955POPC   GL140381  20.566  22.677   9.207
 2955POPC   GL240382  20.578  23.051   9.171
 2955POPC   C1A40383  20.496  22.692   8.735
 2955POPC   D2A40384  20.425  22.963   8.370
 2955POPC   C3A40385  20.450  22.868   7.954
 2955POPC   C4A40386  20.564  22.632   7.641
 2955POPC   C1B40387  20.728  23.170   8.727
 2955POPC   C2B40388  20.903  23.090   8.268
 2955POPC   C3B40389  20.915  23.070   7.815
 2955POPC   C4B40390  20.691  23.318   7.498
 2956POPC   NC340391  21.554  33.081   9.608
 2956POPC   PO440392  20.959  32.941   9.439
 2956POPC   GL140393  21.169  33.202   9.134
 2956POPC   GL240394  21.555  33.202   9.125
 2956POPC   C1A40395  21.271  33.218   8.687
 2956POPC   D2A40396  21.356  32.940   8.358
 2956POPC   C3A40397  21.184  33.074   7.980
 2956POPC   C4A40398  21.095  32.721   7.761
 2956POPC   C1B40399  21.763  33.371   8.772
 2956POPC   C2B40400  21.782  33.237   8.377
 2956POPC   C3B40401  21.603  33.426   8.044
 2956POPC   C4B40402  21.648  33.163   7.786
 2957POPC   NC340403  44.155  37.526   9.512
 2957POPC   PO440404  43.499  37.307   9.475
 2957POPC   GL140405  43.745  37.523   9.172
 2957POPC   GL240406  43.817  37.858   9.152
 2957POPC   C1A40407  43.891  37.450   8.762
 2957POPC   D2A40408  43.738  37.716   8.421
 2957POPC   C3A40409  43.723  37.508   8.039
 2957POPC   C4A40410  44.084  37.345   7.793
 2957POPC   C1B40411  43.580  38.071   8.818
 2957POPC   C2B40412  43.602  38.254   8.396
 2957POPC   C3B40413  43.777  38.079   8.000
 2957POPC   C4B40414  43.904  37.771   7.647
 2958POPC   NC340415  34.533  21.043   9.564
 2958POPC   PO440416  34.720  20.319   9.507
 2958POPC   GL140417  34.648  20.555   9.116
 2958POPC   GL240418  34.329  20.636   9.135
 2958POPC   C1A40419  34.685  20.682   8.632
 2958POPC   D2A40420  34.554  20.850   8.188
 2958POPC   C3A40421  34.740  20.726   7.778
 2958POPC   C4A40422  35.024  20.372   7.698
 2958POPC   C1B40423  34.233  20.431   8.752
 2958POPC   C2B40424  34.283  20.380   8.307
 2958POPC   C3B40425  34.109  20.514   7.929
 2958POPC   C4B40426  34.270  20.703   7.557
 2959POPC   NC340427   2.840   1.610   9.464
 2959POPC   PO440428   2.751   0.954   9.405
 2959POPC   GL140429   2.798   1.183   9.048
 2959POPC   GL240430   3.121   1.403   9.097
 2959POPC   C1A40431   2.619   1.034   8.639
 2959POPC   D2A40432   2.753   0.779   8.277
 2959POPC   C3A40433   2.642   0.935   7.875
 2959POPC   C4A40434   2.461   1.348   7.745
 2959POPC   C1B40435   2.942   1.519   8.702
 2959POPC   C2B40436   2.826   1.746   8.343
 2959POPC   C3B40437   2.877   1.451   8.042
 2959POPC   C4B40438   2.962   1.347   7.653
 2960POPC   NC340439  43.013  37.307   9.409
 2960POPC   PO440440  42.412  36.908   9.483
 2960POPC   GL140441  42.673  36.974   9.144
 2960POPC   GL240442  42.769  36.647   9.119
 2960POPC   C1A40443  42.604  36.977   8.690
 2960POPC   D2A40444  42.252  37.005   8.397
 2960POPC   C3A40445  42.358  36.916   7.957
 2960POPC   C4A40446  42.198  36.853   7.507
 2960POPC   C1B40447  42.677  36.438   8.740
 2960POPC   C2B40448  42.509  36.579   8.379
 2960POPC   C3B40449  42.588  36.471   7.994
 2960POPC   C4B40450  42.652  36.601   7.591
 2961POPC   NC340451  34.484   0.774   9.259
 2961POPC   PO440452  34.898   1.284   9.424
 2961POPC   GL140453  34.605   1.410   9.093
 2961POPC   GL240454  34.235   1.420   9.136
 2961POPC   C1A40455  34.555   1.216   8.713
 2961POPC   D2A40456  34.774   1.115   8.375
 2961POPC   C3A40457  34.604   1.083   8.007
 2961POPC   C4A40458  34.722   1.199   7.613
 2961POPC   C1B40459  34.246   1.615   8.709
 2961POPC   C2B40460  34.240   1.369   8.304
 2961POPC   C3B40461  34.311   1.479   7.863
 2961POPC   C4B40462  34.385   1.486   7.404
 2962POPC   NC340463  22.621  40.098   9.400
 2962POPC   PO440464  23.119  39.546   9.438
 2962POPC   GL140465  22.920  39.763   9.103
 2962POPC   GL240466  23.014  40.142   9.053
 2962POPC   C1A40467  23.016  39.632   8.694
 2962POPC   D2A40468  23.393  39.692   8.480
 2962POPC   C3A40469  23.245  39.828   8.099
 2962POPC   C4A40470  22.802  39.811   7.948
 2962POPC   C1B40471  22.751  40.079   8.670
 2962POPC   C2B40472  22.775  40.233   8.237
 2962POPC   C3B40473  22.608  40.246   7.786
 2962POPC   C4B40474  22.574  40.297   7.305
 2963POPC   NC340475  13.583  35.002   9.419
 2963POPC   PO440476  13.399  35.723   9.485
 2963POPC   GL140477  13.329  35.515   9.076
 2963POPC   GL240478  13.536  35.234   8.953
 2963POPC   C1A40479  13.437  35.623   8.655
 2963POPC   D2A40480  13.484  35.284   8.324
 2963POPC   C3A40481  13.599  35.370   7.873
 2963POPC   C4A40482  13.963  35.383   7.596
 2963POPC   C1B40483  13.793  35.013   8.628
 2963POPC   C2B40484  13.873  34.995   8.163
 2963POPC   C3B40485  14.206  35.003   7.867
 2963POPC   C4B40486  14.232  34.969   7.410
 2964POPC   NC340487  33.473   4.023   9.552
 2964POPC   PO440488  33.025   4.437   9.834
 2964POPC   GL140489  32.987   4.265   9.386
 2964POPC   GL240490  32.738   3.977   9.317
 2964POPC   C1A40491  33.165   4.257   8.956
 2964POPC   D2A40492  33.262   4.565   8.624
 2964POPC   C3A40493  33.196   4.475   8.185
 2964POPC   C4A40494  33.057   4.568   7.762
 2964POPC   C1B40495  32.643   4.236   8.944
 2964POPC   C2B40496  32.856   4.250   8.542
 2964POPC   C3B40497  32.742   4.261   8.111
 2964POPC   C4B40498  32.754   4.148   7.698
 2965POPC   NC340499  37.354   3.425   9.506
 2965POPC   PO440500  37.934   3.778   9.675
 2965POPC   GL140501  37.666   3.733   9.254
 2965POPC   GL240502  37.467   4.035   9.162
 2965POPC   C1A40503  37.532   3.397   8.888
 2965POPC   D2A40504  37.773   3.376   8.496
 2965POPC   C3A40505  37.778   3.239   8.061
 2965POPC   C4A40506  37.852   3.363   7.637
 2965POPC   C1B40507  37.581   3.887   8.745
 2965POPC   C2B40508  37.639   3.830   8.311
 2965POPC   C3B40509  37.713   3.777   7.899
 2965POPC   C4B40510  37.448   3.681   7.579
 2966POPC   NC340511  29.747  22.986   9.588
 2966POPC   PO440512  30.241  22.552   9.413
 2966POPC   GL140513  29.915  22.798   9.136
 2966POPC   GL240514  29.700  23.123   9.116
 2966POPC   C1A40515  30.046  22.946   8.735
 2966POPC   D2A40516  30.083  22.761   8.402
 2966POPC   C3A40517  30.096  22.987   8.046
 2966POPC   C4A40518  30.185  22.753   7.661
 2966POPC   C1B40519  29.556  22.941   8.777
 2966POPC   C2B40520  29.543  22.773   8.396
 2966POPC   C3B40521  29.495  22.964   8.013
 2966POPC   C4B40522  29.750  23.031   7.674
 2967POPC   NC340523  13.093  23.969   9.697
 2967POPC   PO440524  12.831  23.354   9.525
 2967POPC   GL140525  12.823  23.683   9.201
 2967POPC   GL240526  13.132  23.860   9.188
 2967POPC   C1A40527  12.815  23.732   8.732
 2967POPC   D2A40528  12.972  23.560   8.319
 2967POPC   C3A40529  12.731  23.744   8.004
 2967POPC   C4A40530  12.621  23.579   7.616
 2967POPC   C1B40531  13.179  24.098   8.824
 2967POPC   C2B40532  13.074  24.063   8.410
 2967POPC   C3B40533  13.160  24.037   8.002
 2967POPC   C4B40534  12.895  24.034   7.622
 2968POPC   NC340535  32.582  23.873   9.468
 2968POPC   PO440536  32.330  23.207   9.448
 2968POPC   GL140537  32.245  23.495   9.063
 2968POPC   GL240538  32.303  23.857   9.037
 2968POPC   C1A40539  32.445  23.560   8.676
 2968POPC   D2A40540  32.440  23.879   8.391
 2968POPC   C3A40541  32.347  23.641   8.034
 2968POPC   C4A40542  32.209  23.785   7.670
 2968POPC   C1B40543  32.044  24.065   8.721
 2968POPC   C2B40544  31.848  24.183   8.316
 2968POPC   C3B40545  31.775  24.194   7.860
 2968POPC   C4B40546  31.846  23.996   7.391
 2969POPC   NC340547   7.240  36.466   9.526
 2969POPC   PO440548   7.653  35.922   9.506
 2969POPC   GL140549   7.531  36.175   9.156
 2969POPC   GL240550   7.186  36.227   9.100
 2969POPC   C1A40551   7.504  36.355   8.745
 2969POPC   D2A40552   7.695  36.294   8.386
 2969POPC   C3A40553   7.442  36.301   8.038
 2969POPC   C4A40554   7.641  36.307   7.679
 2969POPC   C1B40555   7.044  36.517   8.784
 2969POPC   C2B40556   7.009  36.516   8.328
 2969POPC   C3B40557   6.907  36.493   7.877
 2969POPC   C4B40558   7.151  36.311   7.514
 2970POPC   NC340559  42.083   1.629   9.527
 2970POPC   PO440560  42.459   2.139   9.607
 2970POPC   GL140561  42.496   1.909   9.268
 2970POPC   GL240562  42.183   1.943   9.155
 2970POPC   C1A40563  42.586   1.810   8.831
 2970POPC   D2A40564  42.431   1.736   8.424
 2970POPC   C3A40565  42.316   1.908   8.028
 2970POPC   C4A40566  42.620   1.718   7.782
 2970POPC   C1B40567  42.181   2.139   8.784
 2970POPC   C2B40568  42.317   2.288   8.386
 2970POPC   C3B40569  42.469   2.427   8.009
 2970POPC   C4B40570  42.380   2.233   7.629
 2971POPC   NC340571  22.585  41.097   9.427
 2971POPC   PO440572  22.861  40.496   9.447
 2971POPC   GL140573  22.709  40.683   9.120
 2971POPC   GL240574  22.962  40.913   9.096
 2971POPC   C1A40575  22.775  40.591   8.702
 2971POPC   D2A40576  23.028  40.673   8.364
 2971POPC   C3A40577  22.941  40.620   7.963
 2971POPC   C4A40578  23.252  40.835   7.753
 2971POPC   C1B40579  22.746  41.114   8.803
 2971POPC   C2B40580  22.649  41.002   8.426
 2971POPC   C3B40581  22.801  41.085   8.026
 2971POPC   C4B40582  22.518  41.174   7.738
 2972POPC   NC340583  36.665  29.407   5.663
 2972POPC   PO440584  36.812  28.870   5.261
 2972POPC   GL140585  36.963  28.960   5.707
 2972POPC   GL240586  37.325  28.952   5.801
 2972POPC   C1A40587  36.892  28.932   6.174
 2972POPC   D2A40588  36.614  28.845   6.551
 2972POPC   C3A40589  36.687  29.112   6.938
 2972POPC   C4A40590  36.850  29.446   7.235
 2972POPC   C1B40591  37.407  28.804   6.233
 2972POPC   C2B40592  37.165  28.864   6.628
 2972POPC   C3B40593  37.204  29.077   7.043
 2972POPC   C4B40594  37.102  28.899   7.447
 2973POPC   NC340595   2.651  21.381   5.272
 2973POPC   PO440596   3.111  21.893   5.143
 2973POPC   GL140597   2.809  21.701   5.626
 2973POPC   GL240598   2.765  21.340   5.762
 2973POPC   C1A40599   2.973  21.622   6.116
 2973POPC   D2A40600   3.080  21.363   6.490
 2973POPC   C3A40601   2.975  21.509   6.903
 2973POPC   C4A40602   2.853  21.359   7.313
 2973POPC   C1B40603   2.685  21.190   6.197
 2973POPC   C2B40604   2.462  21.186   6.621
 2973POPC   C3B40605   2.405  21.364   7.041
 2973POPC   C4B40606   2.443  21.625   7.431
 2974POPC   NC340607   0.438   4.858   5.586
 2974POPC   PO440608   0.611   4.171   5.341
 2974POPC   GL140609   0.533   4.346   5.738
 2974POPC   GL240610   0.852   4.560   5.702
 2974POPC   C1A40611   0.432   4.095   6.116
 2974POPC   D2A40612   0.460   4.310   6.484
 2974POPC   C3A40613   0.429   4.288   6.915
 2974POPC   C4A40614   0.403   4.096   7.299
 2974POPC   C1B40615   0.782   4.606   6.150
 2974POPC   C2B40616   0.939   4.733   6.558
 2974POPC   C3B40617   0.797   4.650   6.946
 2974POPC   C4B40618   0.608   4.585   7.356
 2975POPC   NC340619  11.403   5.215   5.517
 2975POPC   PO440620  11.127   4.739   5.068
 2975POPC   GL140621  10.949   4.931   5.576
 2975POPC   GL240622  10.932   5.323   5.713
 2975POPC   C1A40623  11.115   4.997   6.064
 2975POPC   D2A40624  11.375   5.134   6.434
 2975POPC   C3A40625  11.344   5.075   6.903
 2975POPC   C4A40626  11.388   5.023   7.375
 2975POPC   C1B40627  10.713   5.391   6.127
 2975POPC   C2B40628  10.889   5.266   6.522
 2975POPC   C3B40629  11.031   5.482   6.890
 2975POPC   C4B40630  10.965   5.298   7.284
 2976POPC   NC340631  27.329  18.358   5.427
 2976POPC   PO440632  26.766  17.997   5.234
 2976POPC   GL140633  26.938  18.103   5.649
 2976POPC   GL240634  26.805  17.877   5.842
 2976POPC   C1A40635  26.870  18.352   6.054
 2976POPC   D2A40636  26.778  18.540   6.456
 2976POPC   C3A40637  26.956  18.305   6.771
 2976POPC   C4A40638  26.872  18.270   7.217
 2976POPC   C1B40639  26.523  18.006   6.177
 2976POPC   C2B40640  26.491  17.938   6.597
 2976POPC   C3B40641  26.597  17.872   7.021
 2976POPC   C4B40642  26.556  17.938   7.457
 2977POPC   NC340643   3.558  40.566   5.454
 2977POPC   PO440644   2.961  40.617   5.318
 2977POPC   GL140645   3.158  40.755   5.760
 2977POPC   GL240646   3.244  40.422   5.854
 2977POPC   C1A40647   3.293  40.884   6.245
 2977POPC   D2A40648   3.666  40.906   6.569
 2977POPC   C3A40649   3.616  41.030   7.015
 2977POPC   C4A40650   3.660  40.854   7.418
 2977POPC   C1B40651   3.615  40.503   6.142
 2977POPC   C2B40652   3.542  40.395   6.558
 2977POPC   C3B40653   3.488  40.461   6.976
 2977POPC   C4B40654   3.185  40.584   7.251
 2978POPC   NC340655  27.202  42.610   5.382
 2978POPC   PO440656  26.650  42.268   5.283
 2978POPC   GL140657  26.817  42.290   5.684
 2978POPC   GL240658  26.837  42.617   5.760
 2978POPC   C1A40659  26.901  42.167   6.114
 2978POPC   D2A40660  26.781  42.275   6.546
 2978POPC   C3A40661  27.040  42.275   6.920
 2978POPC   C4A40662  27.030  42.001   7.289
 2978POPC   C1B40663  26.571  42.578   6.147
 2978POPC   C2B40664  26.546  42.731   6.586
 2978POPC   C3B40665  26.450  42.492   6.935
 2978POPC   C4B40666  26.678  42.407   7.297
 2979POPC   NC340667  11.944  10.379   5.282
 2979POPC   PO440668  12.574  10.277   5.400
 2979POPC   GL140669  12.284  10.534   5.675
 2979POPC   GL240670  11.954  10.702   5.689
 2979POPC   C1A40671  12.234  10.500   6.148
 2979POPC   D2A40672  11.897  10.398   6.480
 2979POPC   C3A40673  12.025  10.391   6.916
 2979POPC   C4A40674  12.394  10.324   7.158
 2979POPC   C1B40675  11.790  10.784   6.118
 2979POPC   C2B40676  11.609  10.865   6.552
 2979POPC   C3B40677  11.660  10.738   6.991
 2979POPC   C4B40678  12.042  10.808   7.231
 2980POPC   NC340679  25.419  39.938   5.303
 2980POPC   PO440680  24.903  39.636   5.664
 2980POPC   GL140681  25.052  39.845   5.982
 2980POPC   GL240682  25.221  40.079   5.779
 2980POPC   C1A40683  25.015  39.891   6.393
 2980POPC   D2A40684  25.091  40.253   6.619
 2980POPC   C3A40685  25.148  40.092   7.026
 2980POPC   C4A40686  24.817  39.972   7.274
 2980POPC   C1B40687  25.406  40.172   6.199
 2980POPC   C2B40688  25.543  40.027   6.610
 2980POPC   C3B40689  25.537  39.727   6.912
 2980POPC   C4B40690  25.436  39.726   7.317
 2981POPC   NC340691   6.301  25.205   5.356
 2981POPC   PO440692   6.940  25.450   5.390
 2981POPC   GL140693   6.825  25.296   5.822
 2981POPC   GL240694   6.506  25.073   5.842
 2981POPC   C1A40695   6.842  25.355   6.286
 2981POPC   D2A40696   6.864  25.428   6.752
 2981POPC   C3A40697   6.628  25.106   7.012
 2981POPC   C4A40698   6.702  25.100   7.453
 2981POPC   C1B40699   6.342  25.365   6.165
 2981POPC   C2B40700   6.386  25.330   6.603
 2981POPC   C3B40701   6.151  25.323   6.991
 2981POPC   C4B40702   6.194  25.215   7.415
 2982POPC   NC340703  26.352  33.849   5.362
 2982POPC   PO440704  25.736  33.659   5.589
 2982POPC   GL140705  26.059  33.939   5.811
 2982POPC   GL240706  26.355  33.721   5.866
 2982POPC   C1A40707  26.012  34.154   6.236
 2982POPC   D2A40708  25.851  33.855   6.574
 2982POPC   C3A40709  25.996  33.823   7.004
 2982POPC   C4A40710  25.879  33.855   7.419
 2982POPC   C1B40711  26.291  33.738   6.315
 2982POPC   C2B40712  26.203  33.489   6.671
 2982POPC   C3B40713  26.348  33.303   7.069
 2982POPC   C4B40714  26.374  33.540   7.458
 2983POPC   NC340715  44.232  12.922   5.426
 2983POPC   PO440716  43.581  13.216   5.542
 2983POPC   GL140717  43.856  12.916   5.747
 2983POPC   GL240718  43.987  12.587   5.838
 2983POPC   C1A40719  44.122  12.976   6.102
 2983POPC   D2A40720  44.188  13.066   6.511
 2983POPC   C3A40721  43.861  12.974   6.760
 2983POPC   C4A40722  43.956  12.840   7.156
 2983POPC   C1B40723  43.963  12.565   6.351
 2983POPC   C2B40724  44.221  12.601   6.772
 2983POPC   C3B40725  44.117  12.369   7.167
 2983POPC   C4B40726  43.741  12.487   7.433
 2984POPC   NC340727  33.329  16.139   5.215
 2984POPC   PO440728  32.874  15.671   5.346
 2984POPC   GL140729  33.121  15.771   5.692
 2984POPC   GL240730  33.079  16.132   5.687
 2984POPC   C1A40731  33.032  15.828   6.142
 2984POPC   D2A40732  33.070  15.612   6.521
 2984POPC   C3A40733  33.169  15.855   6.868
 2984POPC   C4A40734  33.015  15.951   7.271
 2984POPC   C1B40735  32.822  16.284   6.048
 2984POPC   C2B40736  32.944  16.285   6.495
 2984POPC   C3B40737  32.747  16.160   6.876
 2984POPC   C4B40738  32.654  16.302   7.286
 2985POPC   NC340739  15.149  29.466   5.425
 2985POPC   PO440740  15.504  28.972   5.297
 2985POPC   GL140741  15.301  29.033   5.694
 2985POPC   GL240742  14.987  29.006   5.684
 2985POPC   C1A40743  15.346  29.033   6.153
 2985POPC   D2A40744  15.364  28.961   6.602
 2985POPC   C3A40745  15.538  29.088   7.006
 2985POPC   C4A40746  15.402  28.898   7.358
 2985POPC   C1B40747  14.902  29.255   6.055
 2985POPC   C2B40748  15.070  29.364   6.439
 2985POPC   C3B40749  15.069  29.334   6.838
 2985POPC   C4B40750  15.051  29.239   7.230
 2986POPC   NC340751   6.080  29.452   5.381
 2986POPC   PO440752   5.798  28.855   5.496
 2986POPC   GL140753   5.868  29.214   5.787
 2986POPC   GL240754   6.243  29.240   5.844
 2986POPC   C1A40755   5.877  29.424   6.188
 2986POPC   D2A40756   6.007  29.304   6.612
 2986POPC   C3A40757   5.643  29.147   6.832
 2986POPC   C4A40758   5.442  29.183   7.222
 2986POPC   C1B40759   6.119  28.973   6.199
 2986POPC   C2B40760   5.968  28.796   6.586
 2986POPC   C3B40761   6.101  28.955   6.975
 2986POPC   C4B40762   5.947  29.310   7.218
 2987POPC   NC340763  23.372  23.744   5.440
 2987POPC   PO440764  23.900  23.402   5.153
 2987POPC   GL140765  23.838  23.707   5.652
 2987POPC   GL240766  23.561  23.638   5.884
 2987POPC   C1A40767  23.903  23.866   6.123
 2987POPC   D2A40768  23.600  23.788   6.488
 2987POPC   C3A40769  23.808  23.632   6.877
 2987POPC   C4A40770  23.928  23.949   7.188
 2987POPC   C1B40771  23.367  23.413   6.182
 2987POPC   C2B40772  23.212  23.345   6.578
 2987POPC   C3B40773  23.337  23.406   6.975
 2987POPC   C4B40774  23.400  23.777   7.170
 2988POPC   NC340775   3.211   2.852   5.512
 2988POPC   PO440776   3.591   2.435   5.138
 2988POPC   GL140777   3.698   2.439   5.667
 2988POPC   GL240778   3.399   2.476   5.806
 2988POPC   C1A40779   3.867   2.680   6.081
 2988POPC   D2A40780   3.672   2.883   6.478
 2988POPC   C3A40781   3.713   2.837   6.954
 2988POPC   C4A40782   3.456   3.019   7.339
 2988POPC   C1B40783   3.426   2.474   6.247
 2988POPC   C2B40784   3.366   2.390   6.669
 2988POPC   C3B40785   3.283   2.546   7.066
 2988POPC   C4B40786   3.607   2.547   7.374
 2989POPC   NC340787   0.635  23.551   5.356
 2989POPC   PO440788   0.047  23.902   5.447
 2989POPC   GL140789   0.268  23.732   5.769
 2989POPC   GL240790   0.608  23.815   5.811
 2989POPC   C1A40791   0.283  23.800   6.202
 2989POPC   D2A40792   0.225  23.541   6.555
 2989POPC   C3A40793   0.271  23.737   6.942
 2989POPC   C4A40794   0.383  23.861   7.334
 2989POPC   C1B40795   0.791  23.933   6.211
 2989POPC   C2B40796   0.676  23.828   6.629
 2989POPC   C3B40797   0.889  23.855   7.045
 2989POPC   C4B40798   0.861  23.935   7.491
 2990POPC   NC340799  18.520  40.849   5.427
 2990POPC   PO440800  17.923  40.538   5.256
 2990POPC   GL140801  18.143  40.603   5.735
 2990POPC   GL240802  18.527  40.627   5.885
 2990POPC   C1A40803  18.151  40.821   6.196
 2990POPC   D2A40804  18.358  40.990   6.615
 2990POPC   C3A40805  18.169  41.131   7.043
 2990POPC   C4A40806  18.347  41.054   7.469
 2990POPC   C1B40807  18.649  40.389   6.283
 2990POPC   C2B40808  18.602  40.454   6.742
 2990POPC   C3B40809  18.426  40.670   7.080
 2990POPC   C4B40810  18.016  40.667   7.289
 2991POPC   NC340811  25.654  29.000   5.677
 2991POPC   PO440812  26.193  29.310   5.529
 2991POPC   GL140813  26.123  29.095   5.901
 2991POPC   GL240814  26.085  28.755   5.887
 2991POPC   C1A40815  26.067  29.038   6.332
 2991POPC   D2A40816  26.375  29.083   6.623
 2991POPC   C3A40817  26.371  29.495   6.806
 2991POPC   C4A40818  26.234  29.330   7.189
 2991POPC   C1B40819  25.754  28.644   6.235
 2991POPC   C2B40820  25.722  28.771   6.667
 2991POPC   C3B40821  26.003  28.857   7.014
 2991POPC   C4B40822  25.799  28.760   7.391
 2992POPC   NC340823  42.627  24.270   5.334
 2992POPC   PO440824  43.257  24.513   5.416
 2992POPC   GL140825  43.084  24.521   5.835
 2992POPC   GL240826  42.755  24.392   5.845
 2992POPC   C1A40827  43.218  24.539   6.295
 2992POPC   D2A40828  43.510  24.673   6.651
 2992POPC   C3A40829  43.247  24.783   6.997
 2992POPC   C4A40830  42.884  24.502   7.068
 2992POPC   C1B40831  42.753  24.281   6.310
 2992POPC   C2B40832  42.669  24.128   6.739
 2992POPC   C3B40833  42.751  24.004   7.175
 2992POPC   C4B40834  42.880  24.279   7.540
 2993POPC   NC340835  24.921  12.954   5.233
 2993POPC   PO440836  25.508  12.697   5.360
 2993POPC   GL140837  25.226  12.710   5.694
 2993POPC   GL240838  25.145  13.045   5.693
 2993POPC   C1A40839  25.246  12.810   6.158
 2993POPC   D2A40840  25.269  12.611   6.576
 2993POPC   C3A40841  25.265  12.825   6.949
 2993POPC   C4A40842  25.412  12.672   7.320
 2993POPC   C1B40843  24.911  13.207   6.074
 2993POPC   C2B40844  24.980  13.113   6.506
 2993POPC   C3B40845  24.888  13.403   6.822
 2993POPC   C4B40846  24.837  13.305   7.228
 2994POPC   NC340847  29.144   5.883   5.053
 2994POPC   PO440848  29.192   5.602   5.649
 2994POPC   GL140849  29.023   5.693   6.010
 2994POPC   GL240850  29.092   5.997   6.079
 2994POPC   C1A40851  28.965   5.633   6.428
 2994POPC   D2A40852  29.373   5.707   6.629
 2994POPC   C3A40853  29.276   5.797   7.031
 2994POPC   C4A40854  28.933   5.595   7.219
 2994POPC   C1B40855  29.066   6.135   6.480
 2994POPC   C2B40856  28.720   6.109   6.735
 2994POPC   C3B40857  28.775   6.067   7.169
 2994POPC   C4B40858  29.092   6.248   7.428
 2995POPC   NC340859   8.134  14.118   5.415
 2995POPC   PO440860   8.170  14.819   5.383
 2995POPC   GL140861   8.400  14.604   5.738
 2995POPC   GL240862   8.122  14.407   5.829
 2995POPC   C1A40863   8.417  14.458   6.225
 2995POPC   D2A40864   8.090  14.371   6.533
 2995POPC   C3A40865   8.300  14.246   6.912
 2995POPC   C4A40866   8.369  14.343   7.328
 2995POPC   C1B40867   8.119  14.052   6.124
 2995POPC   C2B40868   8.134  13.865   6.504
 2995POPC   C3B40869   7.901  13.939   6.852
 2995POPC   C4B40870   7.909  14.061   7.257
 2996POPC   NC340871  18.443   0.528   5.494
 2996POPC   PO440872  18.039   0.002   5.248
 2996POPC   GL140873  18.000   0.082   5.692
 2996POPC   GL240874  18.002   0.454   5.738
 2996POPC   C1A40875  18.035   0.128   6.153
 2996POPC   D2A40876  18.206   0.072   6.570
 2996POPC   C3A40877  18.388   0.404   6.845
 2996POPC   C4A40878  18.518   0.639   7.229
 2996POPC   C1B40879  17.974   0.665   6.150
 2996POPC   C2B40880  17.921   0.535   6.590
 2996POPC   C3B40881  17.975   0.597   7.057
 2996POPC   C4B40882  18.109   0.387   7.435
 2997POPC   NC340883   6.791   6.396   5.548
 2997POPC   PO440884   6.542   5.809   5.244
 2997POPC   GL140885   6.564   5.937   5.701
 2997POPC   GL240886   6.424   5.625   5.941
 2997POPC   C1A40887   6.404   6.092   6.098
 2997POPC   D2A40888   6.194   5.840   6.431
 2997POPC   C3A40889   6.277   5.961   6.849
 2997POPC   C4A40890   6.565   6.097   7.162
 2997POPC   C1B40891   6.676   5.706   6.325
 2997POPC   C2B40892   6.960   5.690   6.647
 2997POPC   C3B40893   6.724   5.646   7.021
 2997POPC   C4B40894   6.329   5.532   7.162
 2998POPC   NC340895  43.118  13.277   5.426
 2998POPC   PO440896  43.279  13.989   5.387
 2998POPC   GL140897  43.005  13.761   5.617
 2998POPC   GL240898  42.801  14.026   5.646
 2998POPC   C1A40899  43.069  13.594   6.047
 2998POPC   D2A40900  43.335  13.725   6.421
 2998POPC   C3A40901  43.305  13.436   6.772
 2998POPC   C4A40902  43.176  13.456   7.189
 2998POPC   C1B40903  42.759  13.989   6.068
 2998POPC   C2B40904  42.829  13.829   6.487
 2998POPC   C3B40905  42.983  13.839   6.913
 2998POPC   C4B40906  42.879  13.836   7.348
 2999POPC   NC340907  44.785  44.436   5.322
 2999POPC   PO440908   0.035   0.043   5.474
 2999POPC   GL140909  44.894  44.770   5.797
 2999POPC   GL240910  44.779  44.424   5.839
 2999POPC   C1A40911  44.758  44.879   6.205
 2999POPC   D2A40912  44.471  44.969   6.517
 2999POPC   C3A40913  44.684  44.929   6.910
 2999POPC   C4A40914  44.557  44.859   7.311
 2999POPC   C1B40915  44.469  44.449   6.190
 2999POPC   C2B40916  44.581  44.488   6.622
 2999POPC   C3B40917  44.461  44.438   7.043
 2999POPC   C4B40918  44.748  44.357   7.376
 3000POPC   NC340919  31.249  18.130   5.251
 3000POPC   PO440920  31.775  18.235   5.695
 3000POPC   GL140921  31.500  18.187   5.987
 3000POPC   GL240922  31.233  17.951   5.810
 3000POPC   C1A40923  31.566  18.571   6.256
 3000POPC   D2A40924  31.382  18.812   6.575
 3000POPC   C3A40925  31.328  18.550   6.906
 3000POPC   C4A40926  31.414  18.531   7.337
 3000POPC   C1B40927  31.169  17.931   6.264
 3000POPC   C2B40928  31.418  18.173   6.550
 3000POPC   C3B40929  31.541  18.083   6.979
 3000POPC   C4B40930  31.319  18.009   7.352
 3001POPC   NC340931  21.066  15.151   5.542
 3001POPC   PO440932  20.457  15.207   5.280
 3001POPC   GL140933  20.611  15.244   5.760
 3001POPC   GL240934  20.882  15.000   5.969
 3001POPC   C1A40935  20.408  15.191   6.196
 3001POPC   D2A40936  20.390  14.980   6.621
 3001POPC   C3A40937  20.471  15.119   7.074
 3001POPC   C4A40938  20.300  14.856   7.461
 3001POPC   C1B40939  20.879  15.367   6.204
 3001POPC   C2B40940  20.733  15.393   6.602
 3001POPC   C3B40941  20.930  15.394   6.973
 3001POPC   C4B40942  20.869  15.258   7.386
 3002POPC   NC340943   5.992   4.778   5.367
 3002POPC   PO440944   5.777   5.416   5.274
 3002POPC   GL140945   5.768   5.265   5.675
 3002POPC   GL240946   6.132   5.258   5.706
 3002POPC   C1A40947   5.521   5.280   6.060
 3002POPC   D2A40948   5.552   5.117   6.444
 3002POPC   C3A40949   5.559   5.212   6.857
 3002POPC   C4A40950   5.708   5.069   7.264
 3002POPC   C1B40951   6.042   5.122   6.116
 3002POPC   C2B40952   6.053   4.991   6.529
 3002POPC   C3B40953   6.075   5.122   6.938
 3002POPC   C4B40954   6.206   4.959   7.338
 3003POPC   NC340955   7.361  33.576   5.565
 3003POPC   PO440956   7.241  34.239   5.344
 3003POPC   GL140957   7.357  34.067   5.742
 3003POPC   GL240958   7.687  33.979   5.703
 3003POPC   C1A40959   7.311  33.863   6.151
 3003POPC   D2A40960   7.012  33.815   6.449
 3003POPC   C3A40961   7.177  33.849   6.840
 3003POPC   C4A40962   7.226  33.620   7.179
 3003POPC   C1B40963   7.755  34.119   6.140
 3003POPC   C2B40964   7.779  33.833   6.498
 3003POPC   C3B40965   7.695  33.749   6.940
 3003POPC   C4B40966   7.694  34.014   7.279
 3004POPC   NC340967  34.897   0.659   5.380
 3004POPC   PO440968  34.382   0.277   5.358
 3004POPC   GL140969  34.551   0.481   5.757
 3004POPC   GL240970  34.874   0.360   5.787
 3004POPC   C1A40971  34.685   0.586   6.221
 3004POPC   D2A40972  34.883   0.464   6.631
 3004POPC   C3A40973  34.666   0.530   7.029
 3004POPC   C4A40974  34.316   0.345   7.206
 3004POPC   C1B40975  34.669   0.044   6.021
 3004POPC   C2B40976  34.547   0.114   6.417
 3004POPC   C3B40977  34.603   0.057   6.843
 3004POPC   C4B40978  34.600  44.911   7.253
 3005POPC   NC340979  42.609  31.208   5.425
 3005POPC   PO440980  42.159  31.699   5.431
 3005POPC   GL140981  42.364  31.590   5.774
 3005POPC   GL240982  42.253  31.271   5.783
 3005POPC   C1A40983  42.260  31.614   6.208
 3005POPC   D2A40984  42.443  31.786   6.566
 3005POPC   C3A40985  42.253  31.850   6.944
 3005POPC   C4A40986  42.486  31.870   7.300
 3005POPC   C1B40987  42.462  31.092   6.120
 3005POPC   C2B40988  42.370  31.201   6.537
 3005POPC   C3B40989  42.478  31.390   6.909
 3005POPC   C4B40990  42.558  31.262   7.290
 3006POPC   NC340991   0.714   1.262   5.052
 3006POPC   PO440992   1.202   1.575   5.435
 3006POPC   GL140993   1.203   1.274   5.853
 3006POPC   GL240994   0.962   0.960   5.833
 3006POPC   C1A40995   1.354   1.101   6.265
 3006POPC   D2A40996   1.297   1.236   6.678
 3006POPC   C3A40997   1.499   1.086   7.039
 3006POPC   C4A40998   1.245   1.345   7.307
 3006POPC   C1B40999   0.875   0.963   6.238
 3006POPC   C2B41000   0.984   0.810   6.646
 3006POPC   C3B41001   0.990   0.988   7.053
 3006POPC   C4B41002   0.866   0.912   7.499
 3007POPC   NC341003  11.782  35.672   5.564
 3007POPC   PO441004  12.079  35.086   5.364
 3007POPC   GL141005  12.078  35.276   5.765
 3007POPC   GL241006  12.408  35.193   5.858
 3007POPC   C1A41007  12.019  35.431   6.187
 3007POPC   D2A41008  11.930  35.219   6.618
 3007POPC   C3A41009  11.899  35.433   7.046
 3007POPC   C4A41010  12.061  35.608   7.446
 3007POPC   C1B41011  12.245  34.969   6.197
 3007POPC   C2B41012  12.333  34.904   6.620
 3007POPC   C3B41013  12.204  35.017   7.046
 3007POPC   C4B41014  11.947  34.815   7.317
 3008POPC   NC341015  44.082  31.206   5.477
 3008POPC   PO441016  43.806  31.827   5.287
 3008POPC   GL141017  43.840  31.708   5.735
 3008POPC   GL241018  43.784  31.339   5.851
 3008POPC   C1A41019  43.695  31.740   6.153
 3008POPC   D2A41020  43.584  31.365   6.394
 3008POPC   C3A41021  43.535  31.348   6.844
 3008POPC   C4A41022  43.806  31.432   7.191
 3008POPC   C1B41023  44.091  31.413   6.137
 3008POPC   C2B41024  44.075  31.505   6.562
 3008POPC   C3B41025  44.044  31.172   6.785
 3008POPC   C4B41026  44.158  31.050   7.153
 3009POPC   NC341027  35.853  37.120   5.585
 3009POPC   PO441028  36.452  36.872   5.438
 3009POPC   GL141029  36.231  36.922   5.855
 3009POPC   GL241030  36.346  36.624   5.973
 3009POPC   C1A41031  35.949  37.144   6.233
 3009POPC   D2A41032  35.985  37.438   6.621
 3009POPC   C3A41033  36.194  37.278   7.003
 3009POPC   C4A41034  36.060  37.291   7.436
 3009POPC   C1B41035  36.373  36.854   6.350
 3009POPC   C2B41036  36.095  36.903   6.675
 3009POPC   C3B41037  36.146  36.755   7.069
 3009POPC   C4B41038  35.957  36.449   7.265
 3010POPC   NC341039  44.028  37.437   5.434
 3010POPC   PO441040  43.522  37.875   5.437
 3010POPC   GL141041  43.806  37.804   5.817
 3010POPC   GL241042  44.034  38.103   5.917
 3010POPC   C1A41043  43.755  37.654   6.264
 3010POPC   D2A41044  43.605  37.465   6.685
 3010POPC   C3A41045  43.656  37.649   7.118
 3010POPC   C4A41046  44.046  37.440   7.273
 3010POPC   C1B41047  44.112  38.253   6.308
 3010POPC   C2B41048  43.944  37.992   6.599
 3010POPC   C3B41049  44.084  37.720   6.837
 3010POPC   C4B41050  44.088  37.945   7.208
 3011POPC   NC341051  39.129   3.073   5.597
 3011POPC   PO441052  39.459   2.446   5.510
 3011POPC   GL141053  39.285   2.408   5.909
 3011POPC   GL241054  39.220   2.744   5.976
 3011POPC   C1A41055  39.458   2.460   6.322
 3011POPC   D2A41056  39.318   2.649   6.663
 3011POPC   C3A41057  39.473   2.790   7.023
 3011POPC   C4A41058  39.424   2.698   7.434
 3011POPC   C1B41059  39.348   3.013   6.332
 3011POPC   C2B41060  39.153   3.128   6.766
 3011POPC   C3B41061  39.178   3.142   7.253
 3011POPC   C4B41062  39.238   3.123   7.722
 3012POPC   NC341063  36.668  30.966   5.276
 3012POPC   PO441064  37.097  30.381   5.313
 3012POPC   GL141065  36.971  30.704   5.639
 3012POPC   GL241066  36.634  30.837   5.770
 3012POPC   C1A41067  37.076  30.847   6.069
 3012POPC   D2A41068  37.299  30.801   6.453
 3012POPC   C3A41069  37.127  30.942   6.851
 3012POPC   C4A41070  37.005  30.771   7.230
 3012POPC   C1B41071  36.657  30.538   6.111
 3012POPC   C2B41072  36.796  30.598   6.560
 3012POPC   C3B41073  36.587  30.759   6.953
 3012POPC   C4B41074  36.539  30.854   7.431
 3013POPC   NC341075  11.948  18.624   5.603
 3013POPC   PO441076  12.372  18.158   5.457
 3013POPC   GL141077  12.159  18.159   5.819
 3013POPC   GL241078  11.800  18.129   5.697
 3013POPC   C1A41079  12.226  18.252   6.255
 3013POPC   D2A41080  12.016  18.254   6.633
 3013POPC   C3A41081  12.197  18.484   6.932
 3013POPC   C4A41082  12.442  18.436   7.259
 3013POPC   C1B41083  11.739  18.153   6.149
 3013POPC   C2B41084  11.608  17.954   6.561
 3013POPC   C3B41085  11.642  18.086   6.962
 3013POPC   C4B41086  11.788  18.404   7.213
 3014POPC   NC341087  30.266  22.027   5.425
 3014POPC   PO441088  30.862  22.188   5.253
 3014POPC   GL141089  30.812  22.134   5.738
 3014POPC   GL241090  30.484  21.998   5.879
 3014POPC   C1A41091  30.806  22.348   6.157
 3014POPC   D2A41092  30.762  22.211   6.591
 3014POPC   C3A41093  30.800  22.514   6.897
 3014POPC   C4A41094  30.936  22.392   7.277
 3014POPC   C1B41095  30.272  21.947   6.242
 3014POPC   C2B41096  30.476  21.702   6.550
 3014POPC   C3B41097  30.452  21.824   6.938
 3014POPC   C4B41098  30.424  22.207   7.106
 3015POPC   NC341099  11.920   6.636   5.061
 3015POPC   PO441100  12.524   6.558   5.363
 3015POPC   GL141101  12.117   6.693   5.575
 3015POPC   GL241102  11.977   6.394   5.675
 3015POPC   C1A41103  11.990   6.775   6.045
 3015POPC   D2A41104  11.854   6.712   6.513
 3015POPC   C3A41105  11.869   6.916   6.927
 3015POPC   C4A41106  11.861   6.697   7.307
 3015POPC   C1B41107  11.917   6.264   6.106
 3015POPC   C2B41108  12.078   6.228   6.527
 3015POPC   C3B41109  12.091   6.447   6.919
 3015POPC   C4B41110  12.258   6.404   7.368
 3016POPC   NC341111  32.557  28.245   5.331
 3016POPC   PO441112  32.153  28.768   5.474
 3016POPC   GL141113  32.335  28.479   5.724
 3016POPC   GL241114  32.628  28.675   5.733
 3016POPC   C1A41115  32.257  28.199   6.081
 3016POPC   D2A41116  32.196  28.336   6.514
 3016POPC   C3A41117  32.081  28.128   6.902
 3016POPC   C4A41118  32.153  28.294   7.312
 3016POPC   C1B41119  32.487  28.658   6.174
 3016POPC   C2B41120  32.597  28.663   6.598
 3016POPC   C3B41121  32.445  28.546   6.984
 3016POPC   C4B41122  32.249  28.823   7.268
 3017POPC   NC341123   4.913  29.595   5.143
 3017POPC   PO441124   5.146  30.158   5.330
 3017POPC   GL141125   5.172  30.074   5.746
 3017POPC   GL241126   5.163  29.747   5.722
 3017POPC   C1A41127   4.978  30.004   6.132
 3017POPC   D2A41128   5.141  29.955   6.513
 3017POPC   C3A41129   4.908  30.139   6.814
 3017POPC   C4A41130   5.010  29.977   7.191
 3017POPC   C1B41131   5.419  29.687   6.135
 3017POPC   C2B41132   5.545  29.586   6.560
 3017POPC   C3B41133   5.381  29.645   6.962
 3017POPC   C4B41134   5.396  29.671   7.409
 3018POPC   NC341135  31.464  18.558   5.602
 3018POPC   PO441136  31.725  19.227   5.578
 3018POPC   GL141137  31.645  18.977   5.919
 3018POPC   GL241138  31.288  18.934   5.933
 3018POPC   C1A41139  31.617  19.193   6.308
 3018POPC   D2A41140  31.716  19.281   6.746
 3018POPC   C3A41141  31.618  18.956   7.081
 3018POPC   C4A41142  31.446  19.004   7.515
 3018POPC   C1B41143  30.975  18.964   6.252
 3018POPC   C2B41144  30.868  18.815   6.670
 3018POPC   C3B41145  31.024  18.900   7.104
 3018POPC   C4B41146  31.237  19.298   7.173
 3019POPC   NC341147  17.018  17.343   5.510
 3019POPC   PO441148  16.595  17.876   5.400
 3019POPC   GL141149  16.657  17.653   5.748
 3019POPC   GL241150  16.872  17.921   5.860
 3019POPC   C1A41151  16.688  17.426   6.122
 3019POPC   D2A41152  16.834  17.438   6.559
 3019POPC   C3A41153  16.535  17.556   6.890
 3019POPC   C4A41154  16.638  17.515   7.283
 3019POPC   C1B41155  17.080  17.738   6.188
 3019POPC   C2B41156  17.125  17.849   6.586
 3019POPC   C3B41157  17.003  17.713   6.966
 3019POPC   C4B41158  17.056  17.804   7.345
 3020POPC   NC341159  31.698  23.135   5.355
 3020POPC   PO441160  31.249  22.718   5.502
 3020POPC   GL141161  31.445  22.993   5.824
 3020POPC   GL241162  31.810  22.996   5.833
 3020POPC   C1A41163  31.282  22.947   6.250
 3020POPC   D2A41164  31.184  22.597   6.539
 3020POPC   C3A41165  31.238  22.773   6.964
 3020POPC   C4A41166  31.307  22.908   7.403
 3020POPC   C1B41167  31.796  23.222   6.217
 3020POPC   C2B41168  31.985  23.089   6.610
 3020POPC   C3B41169  31.876  22.924   7.001
 3020POPC   C4B41170  31.814  23.037   7.420
 3021POPC   NC341171  30.192  28.390   5.510
 3021POPC   PO441172  29.491  28.120   5.471
 3021POPC   GL141173  29.715  28.404   5.749
 3021POPC   GL241174  29.927  28.119   5.856
 3021POPC   C1A41175  29.966  28.556   6.119
 3021POPC   D2A41176  29.998  28.310   6.459
 3021POPC   C3A41177  30.103  28.396   6.866
 3021POPC   C4A41178  30.070  28.365   7.272
 3021POPC   C1B41179  30.246  27.980   6.179
 3021POPC   C2B41180  30.260  27.789   6.592
 3021POPC   C3B41181  30.402  27.903   7.001
 3021POPC   C4B41182  30.281  27.950   7.458
 3022POPC   NC341183  12.997  17.093   5.331
 3022POPC   PO441184  12.643  16.496   5.453
 3022POPC   GL141185  12.731  16.683   5.872
 3022POPC   GL241186  13.035  16.879   5.893
 3022POPC   C1A41187  12.809  16.590   6.333
 3022POPC   D2A41188  12.709  16.890   6.664
 3022POPC   C3A41189  12.867  16.817   7.017
 3022POPC   C4A41190  12.772  16.585   7.310
 3022POPC   C1B41191  13.020  17.065   6.308
 3022POPC   C2B41192  13.258  17.064   6.714
 3022POPC   C3B41193  13.210  17.173   7.137
 3022POPC   C4B41194  13.050  16.964   7.506
 3023POPC   NC341195  21.682  13.291   5.484
 3023POPC   PO441196  21.204  13.770   5.449
 3023POPC   GL141197  21.350  13.545   5.776
 3023POPC   GL241198  21.029  13.497   5.854
 3023POPC   C1A41199  21.649  13.633   6.145
 3023POPC   D2A41200  21.727  13.633   6.601
 3023POPC   C3A41201  21.360  13.773   6.785
 3023POPC   C4A41202  21.299  13.956   7.155
 3023POPC   C1B41203  21.268  13.283   6.203
 3023POPC   C2B41204  21.385  13.243   6.636
 3023POPC   C3B41205  21.508  13.350   7.052
 3023POPC   C4B41206  21.162  13.419   7.309
 3024POPC   NC341207   9.608  10.354   5.393
 3024POPC   PO441208   9.868  11.012   5.355
 3024POPC   GL141209   9.889  10.694   5.751
 3024POPC   GL241210   9.865  10.311   5.815
 3024POPC   C1A41211   9.687  10.648   6.179
 3024POPC   D2A41212   9.836  10.789   6.590
 3024POPC   C3A41213   9.614  10.685   6.965
 3024POPC   C4A41214   9.739  10.801   7.358
 3024POPC   C1B41215   9.797  10.136   6.182
 3024POPC   C2B41216   9.664  10.285   6.562
 3024POPC   C3B41217   9.811  10.214   6.959
 3024POPC   C4B41218   9.573  10.246   7.325
 3025POPC   NC341219  10.251  12.415   5.537
 3025POPC   PO441220   9.817  11.997   5.190
 3025POPC   GL141221   9.722  12.081   5.683
 3025POPC   GL241222   9.873  12.343   5.883
 3025POPC   C1A41223   9.634  12.003   6.173
 3025POPC   D2A41224   9.526  11.891   6.612
 3025POPC   C3A41225   9.761  12.046   6.981
 3025POPC   C4A41226   9.870  11.979   7.437
 3025POPC   C1B41227   9.963  12.483   6.312
 3025POPC   C2B41228  10.052  12.459   6.788
 3025POPC   C3B41229  10.173  12.337   7.227
 3025POPC   C4B41230  10.272  12.177   7.669
 3026POPC   NC341231  20.015  15.143   5.380
 3026POPC   PO441232  19.312  15.159   5.414
 3026POPC   GL141233  19.586  15.093   5.767
 3026POPC   GL241234  19.661  14.728   5.788
 3026POPC   C1A41235  19.705  15.276   6.205
 3026POPC   D2A41236  19.792  15.509   6.621
 3026POPC   C3A41237  20.022  15.367   6.973
 3026POPC   C4A41238  19.772  15.173   7.290
 3026POPC   C1B41239  19.711  14.753   6.229
 3026POPC   C2B41240  19.853  14.972   6.617
 3026POPC   C3B41241  20.045  14.848   6.995
 3026POPC   C4B41242  19.840  14.662   7.317
 3027POPC   NC341243  35.596  42.755   5.479
 3027POPC   PO441244  35.613  42.155   5.514
 3027POPC   GL141245  35.448  42.189   5.912
 3027POPC   GL241246  35.240  42.481   5.820
 3027POPC   C1A41247  35.592  42.256   6.344
 3027POPC   D2A41248  35.472  42.469   6.723
 3027POPC   C3A41249  35.394  42.199   7.073
 3027POPC   C4A41250  35.409  42.291   7.518
 3027POPC   C1B41251  35.174  42.554   6.263
 3027POPC   C2B41252  34.976  42.685   6.646
 3027POPC   C3B41253  34.979  42.517   7.060
 3027POPC   C4B41254  34.980  42.561   7.506
 3028POPC   NC341255  26.622  23.178   5.343
 3028POPC   PO441256  27.170  22.743   5.184
 3028POPC   GL141257  26.888  22.850   5.653
 3028POPC   GL241258  26.685  23.176   5.840
 3028POPC   C1A41259  26.775  22.799   6.151
 3028POPC   D2A41260  26.759  23.024   6.570
 3028POPC   C3A41261  26.807  22.775   6.957
 3028POPC   C4A41262  26.558  22.781   7.329
 3028POPC   C1B41263  27.075  23.232   6.121
 3028POPC   C2B41264  27.281  23.190   6.559
 3028POPC   C3B41265  27.087  23.223   6.988
 3028POPC   C4B41266  26.903  23.174   7.415
 3029POPC   NC341267  42.241  14.866   5.525
 3029POPC   PO441268  42.468  15.501   5.453
 3029POPC   GL141269  42.303  15.305   5.791
 3029POPC   GL241270  42.608  15.177   5.899
 3029POPC   C1A41271  42.167  15.239   6.211
 3029POPC   D2A41272  42.292  15.421   6.610
 3029POPC   C3A41273  42.084  15.271   6.974
 3029POPC   C4A41274  42.277  15.060   7.321
 3029POPC   C1B41275  42.532  14.859   6.209
 3029POPC   C2B41276  42.375  14.886   6.611
 3029POPC   C3B41277  42.585  15.110   6.920
 3029POPC   C4B41278  42.589  15.463   7.150
 3030POPC   NC341279   8.790  21.782   5.445
 3030POPC   PO441280   8.917  22.427   5.256
 3030POPC   GL141281   8.966  22.389   5.721
 3030POPC   GL241282   9.102  22.066   5.751
 3030POPC   C1A41283   8.802  22.340   6.149
 3030POPC   D2A41284   8.818  22.142   6.554
 3030POPC   C3A41285   8.686  22.371   6.929
 3030POPC   C4A41286   8.780  22.259   7.354
 3030POPC   C1B41287   9.268  22.078   6.161
 3030POPC   C2B41288   9.312  21.958   6.587
 3030POPC   C3B41289   9.125  22.058   6.984
 3030POPC   C4B41290   9.281  22.278   7.334
 3031POPC   NC341291  17.237  22.099   5.475
 3031POPC   PO441292  17.773  21.735   5.718
 3031POPC   GL141293  17.475  21.977   5.950
 3031POPC   GL241294  17.713  22.172   6.110
 3031POPC   C1A41295  17.270  22.089   6.372
 3031POPC   D2A41296  17.368  21.910   6.783
 3031POPC   C3A41297  17.572  22.168   7.109
 3031POPC   C4A41298  17.740  22.086   7.544
 3031POPC   C1B41299  17.640  22.441   6.445
 3031POPC   C2B41300  17.345  22.487   6.741
 3031POPC   C3B41301  17.399  22.639   7.137
 3031POPC   C4B41302  17.757  22.575   7.381
 3032POPC   NC341303   4.061  16.520   5.578
 3032POPC   PO441304   4.393  17.076   5.449
 3032POPC   GL141305   4.452  16.978   5.882
 3032POPC   GL241306   4.415  16.616   5.942
 3032POPC   C1A41307   4.376  17.088   6.327
 3032POPC   D2A41308   4.178  16.966   6.729
 3032POPC   C3A41309   4.431  16.663   6.992
 3032POPC   C4A41310   4.515  16.690   7.451
 3032POPC   C1B41311   4.066  16.665   6.226
 3032POPC   C2B41312   4.085  16.478   6.603
 3032POPC   C3B41313   3.931  16.516   6.975
 3032POPC   C4B41314   4.035  16.601   7.331
 3033POPC   NC341315  17.324  43.103   5.404
 3033POPC   PO441316  18.000  42.980   5.417
 3033POPC   GL141317  17.770  43.185   5.770
 3033POPC   GL241318  17.594  42.898   5.816
 3033POPC   C1A41319  17.612  43.274   6.237
 3033POPC   D2A41320  17.366  43.107   6.635
 3033POPC   C3A41321  17.475  43.241   7.077
 3033POPC   C4A41322  17.331  43.590   7.317
 3033POPC   C1B41323  17.451  42.756   6.206
 3033POPC   C2B41324  17.551  42.590   6.600
 3033POPC   C3B41325  17.491  42.721   7.016
 3033POPC   C4B41326  17.448  42.816   7.470
 3034POPC   NC341327  23.204  16.141   5.401
 3034POPC   PO441328  22.497  16.119   5.395
 3034POPC   GL141329  22.837  16.067   5.745
 3034POPC   GL241330  23.082  15.792   5.754
 3034POPC   C1A41331  22.917  16.000   6.204
 3034POPC   D2A41332  22.945  15.713   6.558
 3034POPC   C3A41333  22.840  15.893   6.960
 3034POPC   C4A41334  22.874  15.801   7.380
 3034POPC   C1B41335  23.393  15.754   6.090
 3034POPC   C2B41336  23.456  15.880   6.511
 3034POPC   C3B41337  23.348  15.805   6.903
 3034POPC   C4B41338  23.278  16.083   7.220
 3035POPC   NC341339   4.695  38.300   5.456
 3035POPC   PO441340   4.036  38.488   5.509
 3035POPC   GL141341   4.237  38.288   5.824
 3035POPC   GL241342   4.496  38.536   5.882
 3035POPC   C1A41343   4.307  38.133   6.252
 3035POPC   D2A41344   4.162  38.014   6.672
 3035POPC   C3A41345   4.420  38.179   7.040
 3035POPC   C4A41346   4.252  38.090   7.453
 3035POPC   C1B41347   4.157  38.641   6.200
 3035POPC   C2B41348   4.016  38.565   6.651
 3035POPC   C3B41349   3.945  38.319   7.037
 3035POPC   C4B41350   3.968  38.500   7.482
 3036POPC   NC341351  12.561  34.718   5.312
 3036POPC   PO441352  12.901  34.153   5.380
 3036POPC   GL141353  12.825  34.436   5.744
 3036POPC   GL241354  12.752  34.799   5.781
 3036POPC   C1A41355  13.004  34.512   6.164
 3036POPC   D2A41356  13.113  34.340   6.569
 3036POPC   C3A41357  12.972  34.522   6.959
 3036POPC   C4A41358  12.883  34.656   7.373
 3036POPC   C1B41359  12.749  34.975   6.196
 3036POPC   C2B41360  12.866  35.036   6.612
 3036POPC   C3B41361  12.706  34.968   7.007
 3036POPC   C4B41362  12.629  35.089   7.422
 3037POPC   NC341363   6.219  35.993   5.291
 3037POPC   PO441364   6.884  35.975   5.470
 3037POPC   GL141365   6.689  36.050   5.878
 3037POPC   GL241366   6.364  36.195   5.810
 3037POPC   C1A41367   6.854  36.084   6.312
 3037POPC   D2A41368   6.664  36.173   6.697
 3037POPC   C3A41369   6.903  36.197   7.074
 3037POPC   C4A41370   7.035  35.795   7.279
 3037POPC   C1B41371   6.360  36.247   6.274
 3037POPC   C2B41372   6.197  36.376   6.689
 3037POPC   C3B41373   6.295  36.210   7.112
 3037POPC   C4B41374   6.208  36.295   7.550
 3038POPC   NC341375  41.589  25.660   5.707
 3038POPC   PO441376  41.703  25.173   5.259
 3038POPC   GL141377  41.771  25.157   5.709
 3038POPC   GL241378  41.473  25.103   5.899
 3038POPC   C1A41379  41.905  25.235   6.143
 3038POPC   D2A41380  41.853  25.511   6.500
 3038POPC   C3A41381  41.492  25.520   6.747
 3038POPC   C4A41382  41.568  25.368   7.131
 3038POPC   C1B41383  41.445  25.101   6.367
 3038POPC   C2B41384  41.441  24.969   6.809
 3038POPC   C3B41385  41.168  24.936   7.164
 3038POPC   C4B41386  41.138  24.706   7.573
 3039POPC   NC341387   3.936  14.943   5.561
 3039POPC   PO441388   4.480  15.485   5.440
 3039POPC   GL141389   4.573  15.352   5.850
 3039POPC   GL241390   4.232  15.232   5.854
 3039POPC   C1A41391   4.474  15.223   6.292
 3039POPC   D2A41392   4.408  15.420   6.684
 3039POPC   C3A41393   4.533  15.074   6.916
 3039POPC   C4A41394   4.457  14.874   7.346
 3039POPC   C1B41395   3.962  15.113   6.212
 3039POPC   C2B41396   4.083  15.020   6.626
 3039POPC   C3B41397   4.004  15.055   7.046
 3039POPC   C4B41398   3.915  14.694   7.226
 3040POPC   NC341399  42.965  14.296   5.227
 3040POPC   PO441400  42.675  14.763   5.576
 3040POPC   GL141401  42.794  14.498   5.907
 3040POPC   GL241402  43.111  14.417   5.728
 3040POPC   C1A41403  42.723  14.401   6.366
 3040POPC   D2A41404  43.040  14.272   6.643
 3040POPC   C3A41405  42.975  14.338   7.082
 3040POPC   C4A41406  43.258  14.186   7.373
 3040POPC   C1B41407  43.225  14.259   6.142
 3040POPC   C2B41408  43.482  14.472   6.464
 3040POPC   C3B41409  43.421  14.532   6.896
 3040POPC   C4B41410  43.423  14.686   7.300
 3041POPC   NC341411  33.026  36.467   5.302
 3041POPC   PO441412  33.275  35.909   5.430
 3041POPC   GL141413  33.244  36.228   5.772
 3041POPC   GL241414  32.874  36.310   5.834
 3041POPC   C1A41415  33.181  36.173   6.252
 3041POPC   D2A41416  33.273  35.952   6.666
 3041POPC   C3A41417  33.329  36.259   7.031
 3041POPC   C4A41418  33.328  36.572   7.373
 3041POPC   C1B41419  32.648  36.157   6.222
 3041POPC   C2B41420  32.746  35.987   6.642
 3041POPC   C3B41421  32.922  35.898   7.046
 3041POPC   C4B41422  32.681  36.010   7.396
 3042POPC   NC341423  33.186  25.706   5.532
 3042POPC   PO441424  33.251  26.287   5.162
 3042POPC   GL141425  33.314  26.195   5.677
 3042POPC   GL241426  32.993  26.086   5.832
 3042POPC   C1A41427  33.403  25.965   6.117
 3042POPC   D2A41428  33.436  25.802   6.535
 3042POPC   C3A41429  33.207  26.045   6.833
 3042POPC   C4A41430  33.308  26.228   7.248
 3042POPC   C1B41431  32.927  25.988   6.281
 3042POPC   C2B41432  32.707  26.225   6.586
 3042POPC   C3B41433  32.791  26.297   7.008
 3042POPC   C4B41434  32.903  25.933   7.247
 3043POPC   NC341435  20.901  20.106   5.351
 3043POPC   PO441436  20.413  19.551   5.427
 3043POPC   GL141437  20.594  19.598   5.817
 3043POPC   GL241438  20.867  19.812   5.773
 3043POPC   C1A41439  20.531  19.809   6.194
 3043POPC   D2A41440  20.362  19.990   6.540
 3043POPC   C3A41441  20.570  19.927   6.948
 3043POPC   C4A41442  20.454  19.982   7.368
 3043POPC   C1B41443  20.846  20.194   6.069
 3043POPC   C2B41444  20.841  20.181   6.532
 3043POPC   C3B41445  20.991  20.249   6.960
 3043POPC   C4B41446  20.926  20.136   7.415
 3044POPC   NC341447   4.746  30.236   5.535
 3044POPC   PO441448   4.449  29.678   5.192
 3044POPC   GL141449   4.308  29.814   5.617
 3044POPC   GL241450   4.069  29.545   5.768
 3044POPC   C1A41451   4.381  29.840   6.089
 3044POPC   D2A41452   4.628  29.827   6.505
 3044POPC   C3A41453   4.482  29.895   6.981
 3044POPC   C4A41454   4.557  30.020   7.435
 3044POPC   C1B41455   4.146  29.366   6.189
 3044POPC   C2B41456   4.021  29.328   6.628
 3044POPC   C3B41457   4.189  29.451   7.024
 3044POPC   C4B41458   4.137  29.763   7.353
 3045POPC   NC341459  19.430  17.455   5.489
 3045POPC   PO441460  19.197  18.057   5.373
 3045POPC   GL141461  19.119  17.757   5.754
 3045POPC   GL241462  18.913  17.432   5.819
 3045POPC   C1A41463  19.186  17.640   6.185
 3045POPC   D2A41464  18.942  17.799   6.499
 3045POPC   C3A41465  18.837  17.539   6.829
 3045POPC   C4A41466  18.883  17.698   7.255
 3045POPC   C1B41467  19.075  17.146   6.178
 3045POPC   C2B41468  19.233  17.293   6.600
 3045POPC   C3B41469  19.281  17.401   7.056
 3045POPC   C4B41470  19.091  17.229   7.441
 3046POPC   NC341471  36.447   1.138   5.271
 3046POPC   PO441472  35.823   1.392   5.329
 3046POPC   GL141473  36.156   1.405   5.614
 3046POPC   GL241474  36.074   1.106   5.758
 3046POPC   C1A41475  36.279   1.462   6.064
 3046POPC   D2A41476  36.078   1.364   6.474
 3046POPC   C3A41477  36.285   1.285   6.884
 3046POPC   C4A41478  36.176   1.278   7.349
 3046POPC   C1B41479  35.790   1.091   6.132
 3046POPC   C2B41480  35.773   0.952   6.574
 3046POPC   C3B41481  35.809   1.129   6.998
 3046POPC   C4B41482  35.799   0.966   7.433
 3047POPC   NC341483  13.068   7.899   5.337
 3047POPC   PO441484  12.883   8.468   4.997
 3047POPC   GL141485  12.807   8.309   5.491
 3047POPC   GL241486  13.069   8.406   5.685
 3047POPC   C1A41487  12.627   8.215   5.957
 3047POPC   D2A41488  12.499   8.172   6.452
 3047POPC   C3A41489  12.704   8.209   6.876
 3047POPC   C4A41490  12.824   7.941   7.235
 3047POPC   C1B41491  13.028   8.521   6.113
 3047POPC   C2B41492  13.068   8.575   6.566
 3047POPC   C3B41493  13.207   8.309   6.930
 3047POPC   C4B41494  12.990   8.422   7.321
 3048POPC   NC341495  18.894   4.994   5.402
 3048POPC   PO441496  19.192   5.591   5.126
 3048POPC   GL141497  19.273   5.239   5.614
 3048POPC   GL241498  19.252   5.462   5.949
 3048POPC   C1A41499  19.194   4.986   6.052
 3048POPC   D2A41500  18.891   4.885   6.419
 3048POPC   C3A41501  18.943   5.075   6.830
 3048POPC   C4A41502  19.208   4.972   7.151
 3048POPC   C1B41503  19.147   5.357   6.393
 3048POPC   C2B41504  19.370   5.350   6.767
 3048POPC   C3B41505  19.159   5.488   7.136
 3048POPC   C4B41506  19.130   5.392   7.579
 3049POPC   NC341507  24.211  10.842   5.518
 3049POPC   PO441508  23.596  11.026   5.472
 3049POPC   GL141509  23.629  10.733   5.824
 3049POPC   GL241510  23.483  10.370   5.843
 3049POPC   C1A41511  23.500  10.671   6.261
 3049POPC   D2A41512  23.329  10.515   6.636
 3049POPC   C3A41513  23.504  10.466   7.027
 3049POPC   C4A41514  23.423  10.440   7.462
 3049POPC   C1B41515  23.390  10.162   6.270
 3049POPC   C2B41516  23.663  10.110   6.672
 3049POPC   C3B41517  23.548   9.956   7.135
 3049POPC   C4B41518  23.625   9.999   7.611
 3050POPC   NC341519   5.493  30.901   5.564
 3050POPC   PO441520   4.887  30.679   5.572
 3050POPC   GL141521   4.973  30.502   5.939
 3050POPC   GL241522   5.321  30.553   5.896
 3050POPC   C1A41523   5.077  30.452   6.365
 3050POPC   D2A41524   5.075  30.745   6.681
 3050POPC   C3A41525   5.096  30.574   7.045
 3050POPC   C4A41526   4.716  30.445   7.204
 3050POPC   C1B41527   5.321  30.894   6.227
 3050POPC   C2B41528   5.454  31.072   6.646
 3050POPC   C3B41529   5.329  31.037   7.127
 3050POPC   C4B41530   5.414  30.949   7.594
 3051POPC   NC341531  24.939  29.063   5.328
 3051POPC   PO441532  25.486  29.425   5.571
 3051POPC   GL141533  25.172  29.455   5.892
 3051POPC   GL241534  24.946  29.181   5.857
 3051POPC   C1A41535  25.112  29.447   6.351
 3051POPC   D2A41536  24.995  29.507   6.770
 3051POPC   C3A41537  25.200  29.303   7.079
 3051POPC   C4A41538  25.622  29.184   7.146
 3051POPC   C1B41539  25.225  28.974   6.193
 3051POPC   C2B41540  25.258  29.022   6.640
 3051POPC   C3B41541  25.320  28.815   7.015
 3051POPC   C4B41542  25.362  28.525   7.269
 3052POPC   NC341543  10.882   2.841   5.123
 3052POPC   PO441544  10.336   2.766   5.540
 3052POPC   GL141545  10.397   2.829   5.949
 3052POPC   GL241546  10.433   2.473   6.009
 3052POPC   C1A41547  10.579   2.829   6.356
 3052POPC   D2A41548  10.306   2.850   6.694
 3052POPC   C3A41549  10.481   2.969   7.071
 3052POPC   C4A41550  10.895   2.962   7.247
 3052POPC   C1B41551  10.093   2.438   6.318
 3052POPC   C2B41552  10.152   2.334   6.746
 3052POPC   C3B41553  10.502   2.455   6.999
 3052POPC   C4B41554  10.566   2.604   7.435
 3053POPC   NC341555   3.938  42.044   5.308
 3053POPC   PO441556   4.394  42.448   5.206
 3053POPC   GL141557   4.285  42.339   5.695
 3053POPC   GL241558   4.321  42.005   5.828
 3053POPC   C1A41559   4.532  42.379   6.149
 3053POPC   D2A41560   4.665  42.350   6.629
 3053POPC   C3A41561   4.398  42.370   7.024
 3053POPC   C4A41562   4.503  42.351   7.476
 3053POPC   C1B41563   4.066  42.192   6.179
 3053POPC   C2B41564   3.959  42.330   6.596
 3053POPC   C3B41565   3.977  42.099   6.975
 3053POPC   C4B41566   4.220  41.950   7.325
 3054POPC   NC341567   6.597   2.817   5.456
 3054POPC   PO441568   7.165   3.213   5.473
 3054POPC   GL141569   6.862   3.059   5.853
 3054POPC   GL241570   6.634   2.720   5.956
 3054POPC   C1A41571   6.922   2.931   6.303
 3054POPC   D2A41572   6.688   2.727   6.609
 3054POPC   C3A41573   6.628   2.848   6.998
 3054POPC   C4A41574   6.839   2.711   7.344
 3054POPC   C1B41575   6.376   2.494   6.312
 3054POPC   C2B41576   6.264   2.460   6.802
 3054POPC   C3B41577   6.169   2.748   7.185
 3054POPC   C4B41578   6.442   3.018   7.458
 3055POPC   NC341579   1.946  24.467   5.329
 3055POPC   PO441580   2.553  24.356   5.137
 3055POPC   GL141581   2.349  24.570   5.616
 3055POPC   GL241582   1.988  24.702   5.767
 3055POPC   C1A41583   2.307  24.463   6.073
 3055POPC   D2A41584   2.193  24.513   6.504
 3055POPC   C3A41585   2.073  24.654   6.899
 3055POPC   C4A41586   2.258  24.416   7.242
 3055POPC   C1B41587   1.762  24.439   6.076
 3055POPC   C2B41588   1.656  24.244   6.472
 3055POPC   C3B41589   1.525  24.371   6.882
 3055POPC   C4B41590   1.749  24.453   7.244
 3056POPC   NC341591   8.168  43.723   5.023
 3056POPC   PO441592   8.133  44.119   5.559
 3056POPC   GL141593   8.166  44.002   5.961
 3056POPC   GL241594   8.014  43.679   6.005
 3056POPC   C1A41595   8.253  44.069   6.381
 3056POPC   D2A41596   8.514  44.234   6.669
 3056POPC   C3A41597   8.621  43.839   6.870
 3056POPC   C4A41598   8.400  43.725   7.229
 3056POPC   C1B41599   7.797  43.851   6.299
 3056POPC   C2B41600   7.829  44.018   6.672
 3056POPC   C3B41601   8.006  43.986   7.053
 3056POPC   C4B41602   7.823  43.764   7.407
 3057POPC   NC341603  24.170  19.888   5.482
 3057POPC   PO441604  24.730  19.452   5.379
 3057POPC   GL141605  24.563  19.641   5.758
 3057POPC   GL241606  24.445  19.948   5.912
 3057POPC   C1A41607  24.739  19.597   6.191
 3057POPC   D2A41608  25.022  19.778   6.525
 3057POPC   C3A41609  24.868  19.780   6.925
 3057POPC   C4A41610  24.517  19.792   7.199
 3057POPC   C1B41611  24.597  20.064   6.338
 3057POPC   C2B41612  24.432  19.997   6.719
 3057POPC   C3B41613  24.236  20.188   7.047
 3057POPC   C4B41614  24.303  20.164   7.480
 3058POPC   NC341615  32.171  43.293   5.390
 3058POPC   PO441616  32.715  42.984   5.248
 3058POPC   GL141617  32.495  42.898   5.759
 3058POPC   GL241618  32.149  43.070   5.839
 3058POPC   C1A41619  32.452  43.121   6.223
 3058POPC   D2A41620  32.290  42.920   6.613
 3058POPC   C3A41621  32.340  43.081   7.000
 3058POPC   C4A41622  32.133  43.216   7.363
 3058POPC   C1B41623  31.934  43.047   6.266
 3058POPC   C2B41624  31.899  43.213   6.718
 3058POPC   C3B41625  31.709  43.059   7.100
 3058POPC   C4B41626  31.307  42.942   7.278
 3059POPC   NC341627  27.810  14.223   5.368
 3059POPC   PO441628  27.189  14.256   5.453
 3059POPC   GL141629  27.312  14.415   5.859
 3059POPC   GL241630  27.650  14.400   5.841
 3059POPC   C1A41631  27.388  14.406   6.316
 3059POPC   D2A41632  27.696  14.365   6.655
 3059POPC   C3A41633  27.536  14.517   7.044
 3059POPC   C4A41634  27.393  14.344   7.369
 3059POPC   C1B41635  27.826  14.128   6.155
 3059POPC   C2B41636  27.980  13.950   6.538
 3059POPC   C3B41637  28.059  14.070   6.946
 3059POPC   C4B41638  27.853  14.170   7.317
 3060POPC   NC341639  39.694  38.264   5.257
 3060POPC   PO441640  40.248  38.516   5.578
 3060POPC   GL141641  39.884  38.562   5.826
 3060POPC   GL241642  39.808  38.850   5.774
 3060POPC   C1A41643  39.902  38.411   6.261
 3060POPC   D2A41644  39.826  38.597   6.651
 3060POPC   C3A41645  39.959  38.315   6.936
 3060POPC   C4A41646  40.001  38.138   7.291
 3060POPC   C1B41647  39.942  38.906   6.185
 3060POPC   C2B41648  40.293  38.724   6.458
 3060POPC   C3B41649  40.285  38.709   6.896
 3060POPC   C4B41650  39.916  38.803   7.150
 3061POPC   NC341651  39.409  40.209   5.384
 3061POPC   PO441652  38.945  39.702   5.391
 3061POPC   GL141653  39.127  39.874   5.750
 3061POPC   GL241654  39.104  40.234   5.782
 3061POPC   C1A41655  39.192  39.951   6.191
 3061POPC   D2A41656  39.302  39.772   6.554
 3061POPC   C3A41657  39.372  40.023   6.894
 3061POPC   C4A41658  39.021  39.880   7.114
 3061POPC   C1B41659  39.002  40.434   6.186
 3061POPC   C2B41660  39.157  40.469   6.630
 3061POPC   C3B41661  39.034  40.416   7.050
 3061POPC   C4B41662  39.227  40.252   7.397
 3062POPC   NC341663   7.056  29.430   5.467
 3062POPC   PO441664   7.099  28.760   5.518
 3062POPC   GL141665   7.245  29.108   5.804
 3062POPC   GL241666   7.537  29.346   5.782
 3062POPC   C1A41667   7.196  29.321   6.220
 3062POPC   D2A41668   7.166  29.079   6.621
 3062POPC   C3A41669   7.276  29.185   7.040
 3062POPC   C4A41670   7.571  29.504   7.032
 3062POPC   C1B41671   7.605  29.038   6.140
 3062POPC   C2B41672   7.723  29.093   6.557
 3062POPC   C3B41673   7.702  28.906   6.951
 3062POPC   C4B41674   7.452  28.804   7.340
 3063POPC   NC341675  34.084   0.642   5.281
 3063POPC   PO441676  33.479   0.705   5.393
 3063POPC   GL141677  33.720   0.413   5.655
 3063POPC   GL241678  34.041   0.532   5.777
 3063POPC   C1A41679  33.705   0.313   6.099
 3063POPC   D2A41680  33.513   0.454   6.469
 3063POPC   C3A41681  33.794   0.390   6.822
 3063POPC   C4A41682  33.807   0.262   7.242
 3063POPC   C1B41683  34.172   0.535   6.215
 3063POPC   C2B41684  34.318   0.518   6.629
 3063POPC   C3B41685  34.153   0.743   6.935
 3063POPC   C4B41686  33.968   0.738   7.323
 3064POPC   NC341687  20.936  23.632   5.632
 3064POPC   PO441688  20.440  24.075   5.360
 3064POPC   GL141689  20.531  23.913   5.765
 3064POPC   GL241690  20.313  23.640   5.789
 3064POPC   C1A41691  20.629  23.741   6.208
 3064POPC   D2A41692  20.915  23.471   6.488
 3064POPC   C3A41693  20.750  23.539   6.912
 3064POPC   C4A41694  20.919  23.692   7.276
 3064POPC   C1B41695  20.252  23.395   6.144
 3064POPC   C2B41696  20.411  23.361   6.548
 3064POPC   C3B41697  20.274  23.309   6.942
 3064POPC   C4B41698  20.349  23.625   7.245
 3065POPC   NC341699  19.844  36.997   5.354
 3065POPC   PO441700  20.115  36.412   5.116
 3065POPC   GL141701  19.955  36.592   5.647
 3065POPC   GL241702  19.709  36.919   5.827
 3065POPC   C1A41703  20.028  36.709   6.140
 3065POPC   D2A41704  19.893  36.892   6.563
 3065POPC   C3A41705  20.113  36.701   6.941
 3065POPC   C4A41706  20.174  36.425   7.327
 3065POPC   C1B41707  19.694  37.249   6.175
 3065POPC   C2B41708  19.476  37.294   6.586
 3065POPC   C3B41709  19.458  37.185   6.997
 3065POPC   C4B41710  19.678  36.945   7.304
 3066POPC   NC341711  34.826  27.920   5.359
 3066POPC   PO441712  34.422  28.505   5.526
 3066POPC   GL141713  34.570  28.381   5.891
 3066POPC   GL241714  34.550  28.023   5.821
 3066POPC   C1A41715  34.586  28.586   6.295
 3066POPC   D2A41716  34.343  28.593   6.670
 3066POPC   C3A41717  34.401  28.266   6.975
 3066POPC   C4A41718  34.369  28.527   7.284
 3066POPC   C1B41719  34.772  28.052   6.231
 3066POPC   C2B41720  34.791  28.264   6.639
 3066POPC   C3B41721  34.796  28.579   6.980
 3066POPC   C4B41722  34.821  28.362   7.397
 3067POPC   NC341723   0.868   7.781   5.474
 3067POPC   PO441724   1.245   7.241   5.547
 3067POPC   GL141725   1.074   7.481   5.865
 3067POPC   GL241726   1.248   7.814   5.818
 3067POPC   C1A41727   1.228   7.564   6.284
 3067POPC   D2A41728   1.384   7.383   6.640
 3067POPC   C3A41729   1.067   7.462   6.922
 3067POPC   C4A41730   1.344   7.333   7.224
 3067POPC   C1B41731   0.899   7.910   6.121
 3067POPC   C2B41732   0.848   7.833   6.577
 3067POPC   C3B41733   0.922   7.970   7.009
 3067POPC   C4B41734   1.037   7.734   7.377
 3068POPC   NC341735   4.331   5.361   5.176
 3068POPC   PO441736   4.499   4.686   5.208
 3068POPC   GL141737   4.366   4.931   5.623
 3068POPC   GL241738   4.092   4.752   5.749
 3068POPC   C1A41739   4.302   5.090   6.099
 3068POPC   D2A41740   4.513   5.228   6.499
 3068POPC   C3A41741   4.359   5.144   6.934
 3068POPC   C4A41742   4.543   5.035   7.347
 3068POPC   C1B41743   4.116   4.620   6.185
 3068POPC   C2B41744   4.173   4.783   6.603
 3068POPC   C3B41745   3.979   4.775   7.028
 3068POPC   C4B41746   4.066   4.759   7.484
 3069POPC   NC341747  25.824   9.214   5.406
 3069POPC   PO441748  25.803   8.580   5.324
 3069POPC   GL141749  26.078   8.808   5.674
 3069POPC   GL241750  26.298   8.639   5.914
 3069POPC   C1A41751  26.052   9.022   6.128
 3069POPC   D2A41752  25.858   8.859   6.549
 3069POPC   C3A41753  25.952   9.050   6.943
 3069POPC   C4A41754  25.720   9.179   7.281
 3069POPC   C1B41755  26.193   8.557   6.305
 3069POPC   C2B41756  26.335   8.558   6.671
 3069POPC   C3B41757  26.058   8.554   6.948
 3069POPC   C4B41758  26.006   8.734   7.338
 3070POPC   NC341759  16.341  22.837   5.231
 3070POPC   PO441760  17.002  22.854   5.275
 3070POPC   GL141761  17.030  22.953   5.731
 3070POPC   GL241762  16.852  23.218   5.902
 3070POPC   C1A41763  17.013  22.755   6.147
 3070POPC   D2A41764  16.811  22.829   6.533
 3070POPC   C3A41765  16.943  22.755   6.919
 3070POPC   C4A41766  16.600  22.684   7.146
 3070POPC   C1B41767  16.569  23.180   6.256
 3070POPC   C2B41768  16.583  23.281   6.704
 3070POPC   C3B41769  16.739  23.195   7.128
 3070POPC   C4B41770  16.957  23.275   7.525
 3071POPC   NC341771  10.305  23.661   5.249
 3071POPC   PO441772  10.798  24.032   5.531
 3071POPC   GL141773  10.619  23.824   5.878
 3071POPC   GL241774  10.324  23.652   5.780
 3071POPC   C1A41775  10.648  23.769   6.329
 3071POPC   D2A41776  10.474  24.022   6.677
 3071POPC   C3A41777  10.653  23.887   7.072
 3071POPC   C4A41778  10.745  23.447   7.268
 3071POPC   C1B41779  10.173  23.870   6.162
 3071POPC   C2B41780  10.016  23.793   6.571
 3071POPC   C3B41781  10.168  23.651   6.960
 3071POPC   C4B41782  10.294  23.674   7.375
 3072POPC   NC341783  40.891  22.654   5.564
 3072POPC   PO441784  40.992  23.356   5.444
 3072POPC   GL141785  40.836  23.181   5.849
 3072POPC   GL241786  40.609  22.879   5.919
 3072POPC   C1A41787  40.984  23.104   6.266
 3072POPC   D2A41788  41.114  22.905   6.662
 3072POPC   C3A41789  40.892  23.038   7.029
 3072POPC   C4A41790  40.902  23.019   7.478
 3072POPC   C1B41791  40.739  22.657   6.334
 3072POPC   C2B41792  40.700  22.593   6.820
 3072POPC   C3B41793  40.524  22.721   7.233
 3072POPC   C4B41794  40.568  22.644   7.685
 3073POPC   NC341795   9.224  26.621   5.443
 3073POPC   PO441796   8.607  26.547   5.576
 3073POPC   GL141797   8.956  26.552   5.877
 3073POPC   GL241798   9.189  26.858   5.895
 3073POPC   C1A41799   8.945  26.658   6.297
 3073POPC   D2A41800   8.747  26.904   6.597
 3073POPC   C3A41801   8.870  26.696   6.954
 3073POPC   C4A41802   8.682  26.839   7.311
 3073POPC   C1B41803   9.434  27.090   6.201
 3073POPC   C2B41804   9.261  26.968   6.582
 3073POPC   C3B41805   9.370  26.850   6.965
 3073POPC   C4B41806   9.177  26.864   7.336
 3074POPC   NC341807  26.220  27.150   5.297
 3074POPC   PO441808  25.898  26.566   5.359
 3074POPC   GL141809  25.911  26.812   5.714
 3074POPC   GL241810  26.248  26.825   5.756
 3074POPC   C1A41811  25.743  26.823   6.142
 3074POPC   D2A41812  25.561  26.588   6.508
 3074POPC   C3A41813  25.825  26.762   6.831
 3074POPC   C4A41814  25.827  27.018   7.154
 3074POPC   C1B41815  26.354  26.897   6.184
 3074POPC   C2B41816  26.427  26.896   6.648
 3074POPC   C3B41817  26.300  26.900   7.047
 3074POPC   C4B41818  26.441  26.612   7.361
 3075POPC   NC341819  33.348  12.279   5.515
 3075POPC   PO441820  32.937  11.749   5.572
 3075POPC   GL141821  33.163  11.938   5.880
 3075POPC   GL241822  32.958  12.223   5.867
 3075POPC   C1A41823  33.301  12.168   6.257
 3075POPC   D2A41824  33.110  12.228   6.685
 3075POPC   C3A41825  33.349  12.163   7.098
 3075POPC   C4A41826  33.326  12.188   7.585
 3075POPC   C1B41827  32.736  11.967   6.199
 3075POPC   C2B41828  32.626  11.900   6.644
 3075POPC   C3B41829  32.779  12.013   7.031
 3075POPC   C4B41830  32.710  11.912   7.453
 3076POPC   NC341831  41.663  38.623   5.409
 3076POPC   PO441832  41.109  38.184   5.370
 3076POPC   GL141833  41.355  38.356   5.777
 3076POPC   GL241834  41.601  38.659   5.898
 3076POPC   C1A41835  41.497  38.307   6.243
 3076POPC   D2A41836  41.322  38.181   6.650
 3076POPC   C3A41837  41.381  38.205   7.109
 3076POPC   C4A41838  41.334  38.238   7.579
 3076POPC   C1B41839  41.929  38.666   6.229
 3076POPC   C2B41840  41.873  38.728   6.682
 3076POPC   C3B41841  41.557  38.677   6.996
 3076POPC   C4B41842  41.663  38.575   7.391
 3077POPC   NC341843  34.103   5.631   5.603
 3077POPC   PO441844  34.672   5.634   5.330
 3077POPC   GL141845  34.531   5.733   5.823
 3077POPC   GL241846  34.503   6.048   5.739
 3077POPC   C1A41847  34.619   5.616   6.287
 3077POPC   D2A41848  34.369   5.509   6.683
 3077POPC   C3A41849  34.561   5.642   7.080
 3077POPC   C4A41850  34.613   5.633   7.532
 3077POPC   C1B41851  34.533   6.155   6.169
 3077POPC   C2B41852  34.463   6.009   6.589
 3077POPC   C3B41853  34.550   6.159   6.981
 3077POPC   C4B41854  34.574   6.370   7.343
 3078POPC   NC341855  21.264  24.469   5.436
 3078POPC   PO441856  21.713  24.981   5.460
 3078POPC   GL141857  21.706  24.534   5.691
 3078POPC   GL241858  21.434  24.699   5.841
 3078POPC   C1A41859  21.487  24.287   6.106
 3078POPC   D2A41860  21.243  24.357   6.524
 3078POPC   C3A41861  21.426  24.489   6.927
 3078POPC   C4A41862  21.505  24.369   7.359
 3078POPC   C1B41863  21.111  24.685   6.133
 3078POPC   C2B41864  21.176  24.870   6.528
 3078POPC   C3B41865  21.040  24.793   6.942
 3078POPC   C4B41866  20.998  24.501   7.300
 3079POPC   NC341867  17.209  43.968   5.600
 3079POPC   PO441868  17.551  43.518   5.188
 3079POPC   GL141869  17.642  43.672   5.671
 3079POPC   GL241870  17.734  43.988   5.747
 3079POPC   C1A41871  17.508  43.832   6.181
 3079POPC   D2A41872  17.217  44.120   6.470
 3079POPC   C3A41873  17.317  44.261   6.900
 3079POPC   C4A41874  17.545  44.006   7.130
 3079POPC   C1B41875  17.953  43.627   6.052
 3079POPC   C2B41876  18.028  43.638   6.486
 3079POPC   C3B41877  17.773  43.584   6.828
 3079POPC   C4B41878  17.848  43.612   7.255
 3080POPC   NC341879  35.614  15.689   5.279
 3080POPC   PO441880  35.063  16.152   5.365
 3080POPC   GL141881  35.176  15.870   5.690
 3080POPC   GL241882  35.516  15.807   5.747
 3080POPC   C1A41883  35.126  15.759   6.110
 3080POPC   D2A41884  35.192  15.953   6.512
 3080POPC   C3A41885  35.275  15.834   6.896
 3080POPC   C4A41886  35.063  15.892   7.265
 3080POPC   C1B41887  35.610  15.638   6.122
 3080POPC   C2B41888  35.666  15.741   6.512
 3080POPC   C3B41889  35.788  15.593   6.865
 3080POPC   C4B41890  35.629  15.715   7.230
 3081POPC   NC341891  31.012   9.977   5.365
 3081POPC   PO441892  30.395   9.692   5.365
 3081POPC   GL141893  30.473   9.886   5.749
 3081POPC   GL241894  30.781   9.844   5.784
 3081POPC   C1A41895  30.479   9.802   6.182
 3081POPC   D2A41896  30.648  10.031   6.513
 3081POPC   C3A41897  30.460   9.868   6.842
 3081POPC   C4A41898  30.572   9.870   7.251
 3081POPC   C1B41899  31.015   9.921   6.168
 3081POPC   C2B41900  31.197   9.782   6.555
 3081POPC   C3B41901  30.975   9.801   6.915
 3081POPC   C4B41902  30.976   9.576   7.286
 3082POPC   NC341903  25.918  43.778   5.425
 3082POPC   PO441904  26.270  44.306   5.311
 3082POPC   GL141905  26.209  44.024   5.760
 3082POPC   GL241906  26.229  43.664   5.843
 3082POPC   C1A41907  26.083  43.995   6.222
 3082POPC   D2A41908  26.318  44.059   6.606
 3082POPC   C3A41909  26.157  44.073   7.007
 3082POPC   C4A41910  25.830  43.868   7.245
 3082POPC   C1B41911  26.361  43.575   6.250
 3082POPC   C2B41912  26.536  43.595   6.642
 3082POPC   C3B41913  26.488  43.687   7.057
 3082POPC   C4B41914  26.136  43.467   7.245
 3083POPC   NC341915  33.485  21.151   5.488
 3083POPC   PO441916  34.008  21.640   5.500
 3083POPC   GL141917  33.897  21.277   5.767
 3083POPC   GL241918  33.609  21.472   5.872
 3083POPC   C1A41919  33.761  21.086   6.167
 3083POPC   D2A41920  33.576  21.264   6.559
 3083POPC   C3A41921  33.880  21.377   6.878
 3083POPC   C4A41922  33.837  21.662   7.235
 3083POPC   C1B41923  33.334  21.638   6.193
 3083POPC   C2B41924  33.198  21.632   6.623
 3083POPC   C3B41925  33.385  21.505   7.002
 3083POPC   C4B41926  33.594  21.201   7.258
 3084POPC   NC341927  36.275  18.364   5.436
 3084POPC   PO441928  35.799  18.511   5.060
 3084POPC   GL141929  35.766  18.396   5.609
 3084POPC   GL241930  35.968  18.086   5.740
 3084POPC   C1A41931  35.670  18.324   6.095
 3084POPC   D2A41932  35.605  18.150   6.550
 3084POPC   C3A41933  35.895  18.104   6.929
 3084POPC   C4A41934  35.934  18.271   7.407
 3084POPC   C1B41935  36.189  18.306   6.132
 3084POPC   C2B41936  36.072  18.430   6.582
 3084POPC   C3B41937  36.259  18.437   7.039
 3084POPC   C4B41938  36.666  18.458   7.181
 3085POPC   NC341939  11.624  27.843   5.495
 3085POPC   PO441940  12.145  27.342   5.417
 3085POPC   GL141941  12.029  27.610   5.754
 3085POPC   GL241942  11.726  27.496   5.884
 3085POPC   C1A41943  12.191  27.650   6.181
 3085POPC   D2A41944  12.352  27.571   6.615
 3085POPC   C3A41945  12.018  27.646   6.912
 3085POPC   C4A41946  11.903  27.579   7.328
 3085POPC   C1B41947  11.714  27.874   6.157
 3085POPC   C2B41948  11.542  27.959   6.565
 3085POPC   C3B41949  11.678  28.128   6.955
 3085POPC   C4B41950  11.905  28.114   7.351
 3086POPC   NC341951  39.005   2.302   5.483
 3086POPC   PO441952  39.212   1.637   5.438
 3086POPC   GL141953  39.256   1.889   5.817
 3086POPC   GL241954  38.925   1.940   5.838
 3086POPC   C1A41955  39.163   2.050   6.284
 3086POPC   D2A41956  39.004   2.265   6.691
 3086POPC   C3A41957  39.282   2.308   7.044
 3086POPC   C4A41958  39.462   2.007   7.317
 3086POPC   C1B41959  38.684   1.911   6.209
 3086POPC   C2B41960  38.788   1.811   6.650
 3086POPC   C3B41961  38.945   1.912   7.074
 3086POPC   C4B41962  39.036   1.812   7.499
 3087POPC   NC341963  10.685  44.558   5.384
 3087POPC   PO441964  10.267   0.055   5.469
 3087POPC   GL141965  10.518  44.838   5.781
 3087POPC   GL241966  10.359  44.524   5.811
 3087POPC   C1A41967  10.521  44.766   6.234
 3087POPC   D2A41968  10.287  44.605   6.605
 3087POPC   C3A41969  10.433  44.685   7.050
 3087POPC   C4A41970  10.612  44.414   7.371
 3087POPC   C1B41971  10.038  44.398   6.155
 3087POPC   C2B41972   9.881  44.275   6.564
 3087POPC   C3B41973   9.997  44.404   6.984
 3087POPC   C4B41974  10.128  44.454   7.432
 3088POPC   NC341975  29.433  32.460   5.478
 3088POPC   PO441976  30.088  32.296   5.391
 3088POPC   GL141977  29.808  32.240   5.750
 3088POPC   GL241978  29.789  31.895   5.877
 3088POPC   C1A41979  29.717  32.305   6.197
 3088POPC   D2A41980  29.946  32.157   6.557
 3088POPC   C3A41981  30.080  32.472   6.844
 3088POPC   C4A41982  29.936  32.563   7.244
 3088POPC   C1B41983  30.196  31.992   6.093
 3088POPC   C2B41984  30.383  31.845   6.492
 3088POPC   C3B41985  30.303  31.998   6.898
 3088POPC   C4B41986  29.900  32.041   7.089
 3089POPC   NC341987  27.463   6.442   5.265
 3089POPC   PO441988  28.134   6.520   5.188
 3089POPC   GL141989  27.847   6.498   5.617
 3089POPC   GL241990  27.519   6.705   5.690
 3089POPC   C1A41991  27.867   6.680   6.053
 3089POPC   D2A41992  27.982   6.621   6.478
 3089POPC   C3A41993  27.803   6.805   6.861
 3089POPC   C4A41994  27.844   6.635   7.268
 3089POPC   C1B41995  27.354   6.625   6.109
 3089POPC   C2B41996  27.396   6.827   6.501
 3089POPC   C3B41997  27.279   6.738   6.895
 3089POPC   C4B41998  27.325   6.489   7.270
 3090POPC   NC341999  40.046  10.137   5.328
 3090POPC   PO442000  40.367   9.534   5.249
 3090POPC   GL142001  40.195   9.608   5.694
 3090POPC   GL242002  39.871   9.770   5.653
 3090POPC   C1A42003  40.197   9.864   6.108
 3090POPC   D2A42004  39.989  10.014   6.492
 3090POPC   C3A42005  40.035   9.789   6.895
 3090POPC   C4A42006  40.102   9.768   7.341
 3090POPC   C1B42007  39.714   9.700   6.061
 3090POPC   C2B42008  39.809   9.516   6.468
 3090POPC   C3B42009  39.615   9.481   6.875
 3090POPC   C4B42010  39.615   9.778   7.214
 3091POPC   NC342011  12.350   3.801   5.485
 3091POPC   PO442012  11.765   3.467   5.441
 3091POPC   GL142013  12.002   3.536   5.820
 3091POPC   GL242014  12.335   3.399   5.808
 3091POPC   C1A42015  11.987   3.620   6.262
 3091POPC   D2A42016  12.039   3.518   6.664
 3091POPC   C3A42017  12.007   3.783   6.975
 3091POPC   C4A42018  12.158   3.819   7.384
 3091POPC   C1B42019  12.355   3.227   6.245
 3091POPC   C2B42020  12.553   3.353   6.624
 3091POPC   C3B42021  12.448   3.455   7.053
 3091POPC   C4B42022  12.543   3.228   7.424
 3092POPC   NC342023  38.135  35.018   5.474
 3092POPC   PO442024  38.755  34.539   5.453
 3092POPC   GL142025  38.497  34.716   5.812
 3092POPC   GL242026  38.175  34.618   5.929
 3092POPC   C1A42027  38.429  34.920   6.239
 3092POPC   D2A42028  38.182  35.054   6.580
 3092POPC   C3A42029  38.291  34.820   6.939
 3092POPC   C4A42030  38.230  34.968   7.335
 3092POPC   C1B42031  38.359  34.271   6.170
 3092POPC   C2B42032  38.462  34.041   6.545
 3092POPC   C3B42033  38.300  34.249   6.900
 3092POPC   C4B42034  38.110  34.435   7.255
 3093POPC   NC342035  22.566  15.470   5.282
 3093POPC   PO442036  23.189  15.623   5.262
 3093POPC   GL142037  23.079  15.303   5.628
 3093POPC   GL242038  22.793  15.135   5.648
 3093POPC   C1A42039  23.042  15.381   6.104
 3093POPC   D2A42040  23.073  15.205   6.549
 3093POPC   C3A42041  23.055  15.405   7.000
 3093POPC   C4A42042  23.202  15.132   7.344
 3093POPC   C1B42043  22.616  15.115   6.091
 3093POPC   C2B42044  22.531  15.224   6.528
 3093POPC   C3B42045  22.694  15.095   6.895
 3093POPC   C4B42046  22.699  15.100   7.332
 3094POPC   NC342047   3.083   9.470   5.426
 3094POPC   PO442048   2.736  10.018   5.267
 3094POPC   GL142049   2.652   9.719   5.631
 3094POPC   GL242050   2.926   9.746   5.820
 3094POPC   C1A42051   2.414   9.553   6.016
 3094POPC   D2A42052   2.353   9.687   6.468
 3094POPC   C3A42053   2.571   9.615   6.879
 3094POPC   C4A42054   2.734   9.642   7.308
 3094POPC   C1B42055   2.871   9.534   6.220
 3094POPC   C2B42056   3.015   9.703   6.612
 3094POPC   C3B42057   3.126   9.522   6.983
 3094POPC   C4B42058   3.148   9.339   7.380
 3095POPC   NC342059   0.590  37.951   5.382
 3095POPC   PO442060   0.319  37.325   5.274
 3095POPC   GL142061   0.424  37.553   5.706
 3095POPC   GL242062   0.726  37.771   5.820
 3095POPC   C1A42063   0.243  37.755   6.088
 3095POPC   D2A42064   0.174  38.040   6.475
 3095POPC   C3A42065   0.116  37.870   6.892
 3095POPC   C4A42066   0.387  37.927   7.262
 3095POPC   C1B42067   0.720  37.529   6.175
 3095POPC   C2B42068   0.429  37.536   6.523
 3095POPC   C3B42069   0.538  37.571   6.930
 3095POPC   C4B42070   0.553  37.414   7.316
 3096POPC   NC342071   7.314  30.998   5.512
 3096POPC   PO442072   7.638  31.592   5.336
 3096POPC   GL142073   7.693  31.418   5.706
 3096POPC   GL242074   7.348  31.474   5.805
 3096POPC   C1A42075   7.745  31.537   6.116
 3096POPC   D2A42076   7.404  31.687   6.380
 3096POPC   C3A42077   7.425  31.726   6.828
 3096POPC   C4A42078   7.653  31.812   7.179
 3096POPC   C1B42079   7.354  31.203   6.182
 3096POPC   C2B42080   7.103  31.084   6.545
 3096POPC   C3B42081   7.148  30.963   6.963
 3096POPC   C4B42082   7.409  31.300   7.146
 3097POPC   NC342083  42.716  39.864   5.452
 3097POPC   PO442084  42.285  40.366   5.509
 3097POPC   GL142085  42.399  40.089   5.846
 3097POPC   GL242086  42.716  40.179   5.879
 3097POPC   C1A42087  42.501  39.877   6.257
 3097POPC   D2A42088  42.272  39.673   6.609
 3097POPC   C3A42089  42.122  39.986   6.845
 3097POPC   C4A42090  42.127  40.001   7.235
 3097POPC   C1B42091  42.574  40.389   6.247
 3097POPC   C2B42092  42.643  40.265   6.670
 3097POPC   C3B42093  42.610  40.000   7.042
 3097POPC   C4B42094  42.588  40.045   7.505
 3098POPC   NC342095  15.932  21.977   5.408
 3098POPC   PO442096  16.402  22.377   5.306
 3098POPC   GL142097  16.230  22.344   5.731
 3098POPC   GL242098  15.884  22.396   5.720
 3098POPC   C1A42099  16.292  22.190   6.192
 3098POPC   D2A42100  16.377  22.218   6.660
 3098POPC   C3A42101  16.178  22.460   6.996
 3098POPC   C4A42102  16.183  22.186   7.392
 3098POPC   C1B42103  15.814  22.368   6.166
 3098POPC   C2B42104  15.863  22.143   6.549
 3098POPC   C3B42105  15.925  22.041   6.976
 3098POPC   C4B42106  15.762  21.927   7.357
 3099POPC   NC342107  37.640  39.601   5.403
 3099POPC   PO442108  37.905  38.895   5.375
 3099POPC   GL142109  37.718  39.011   5.780
 3099POPC   GL242110  37.553  39.338   5.825
 3099POPC   C1A42111  37.625  39.028   6.227
 3099POPC   D2A42112  37.483  38.955   6.613
 3099POPC   C3A42113  37.644  39.201   6.906
 3099POPC   C4A42114  37.640  38.940   7.259
 3099POPC   C1B42115  37.912  39.426   6.126
 3099POPC   C2B42116  37.917  39.562   6.567
 3099POPC   C3B42117  38.025  39.586   7.002
 3099POPC   C4B42118  37.844  39.407   7.359
 3100POPC   NC342119  24.860  40.363   5.335
 3100POPC   PO442120  25.540  40.390   5.506
 3100POPC   GL142121  25.308  40.569   5.898
 3100POPC   GL242122  25.248  40.938   5.935
 3100POPC   C1A42123  25.319  40.651   6.364
 3100POPC   D2A42124  25.118  40.761   6.762
 3100POPC   C3A42125  25.370  40.906   7.102
 3100POPC   C4A42126  25.428  40.607   7.407
 3100POPC   C1B42127  24.896  40.951   6.243
 3100POPC   C2B42128  24.758  41.098   6.665
 3100POPC   C3B42129  24.829  41.023   7.133
 3100POPC   C4B42130  24.715  41.185   7.559
 3101POPC   NC342131   6.297  20.873   5.548
 3101POPC   PO442132   6.799  20.542   5.388
 3101POPC   GL142133   6.767  20.680   5.780
 3101POPC   GL242134   6.464  20.526   5.930
 3101POPC   C1A42135   6.908  20.634   6.206
 3101POPC   D2A42136   6.731  20.481   6.589
 3101POPC   C3A42137   6.994  20.557   6.951
 3101POPC   C4A42138   6.881  20.866   7.252
 3101POPC   C1B42139   6.156  20.347   6.242
 3101POPC   C2B42140   6.296  20.205   6.664
 3101POPC   C3B42141   6.409  20.479   7.006
 3101POPC   C4B42142   6.280  20.337   7.389
 3102POPC   NC342143  24.316  15.308   5.175
 3102POPC   PO442144  24.877  14.914   5.310
 3102POPC   GL142145  24.604  15.009   5.707
 3102POPC   GL242146  24.286  15.232   5.751
 3102POPC   C1A42147  24.515  14.935   6.177
 3102POPC   D2A42148  24.352  14.854   6.590
 3102POPC   C3A42149  24.506  15.118   6.919
 3102POPC   C4A42150  24.552  15.250   7.322
 3102POPC   C1B42151  24.068  15.167   6.197
 3102POPC   C2B42152  24.140  15.317   6.635
 3102POPC   C3B42153  24.056  15.293   7.111
 3102POPC   C4B42154  24.147  15.428   7.559
 3103POPC   NC342155  24.930  20.027   5.488
 3103POPC   PO442156  25.601  19.638   5.418
 3103POPC   GL142157  25.297  19.751   5.721
 3103POPC   GL242158  25.055  19.492   5.797
 3103POPC   C1A42159  25.192  19.995   6.101
 3103POPC   D2A42160  25.508  20.003   6.446
 3103POPC   C3A42161  25.413  19.962   6.885
 3103POPC   C4A42162  25.192  19.987   7.257
 3103POPC   C1B42163  25.337  19.506   6.176
 3103POPC   C2B42164  25.463  19.513   6.614
 3103POPC   C3B42165  25.286  19.464   7.012
 3103POPC   C4B42166  25.516  19.333   7.365
 3104POPC   NC342167  39.625  32.485   5.457
 3104POPC   PO442168  39.041  32.186   5.407
 3104POPC   GL142169  38.960  32.149   5.804
 3104POPC   GL242170  38.891  31.817   5.902
 3104POPC   C1A42171  39.229  32.258   6.149
 3104POPC   D2A42172  39.351  32.159   6.566
 3104POPC   C3A42173  39.189  32.312   6.947
 3104POPC   C4A42174  39.406  32.352   7.338
 3104POPC   C1B42175  38.960  31.856   6.336
 3104POPC   C2B42176  38.993  31.836   6.779
 3104POPC   C3B42177  38.968  31.912   7.215
 3104POPC   C4B42178  39.144  31.974   7.629
 3105POPC   NC342179  27.381  12.404   5.291
 3105POPC   PO442180  27.623  13.091   5.254
 3105POPC   GL142181  27.658  12.952   5.714
 3105POPC   GL242182  27.585  12.622   5.698
 3105POPC   C1A42183  27.716  13.036   6.186
 3105POPC   D2A42184  27.812  12.954   6.630
 3105POPC   C3A42185  27.545  13.094   6.959
 3105POPC   C4A42186  27.562  13.090   7.396
 3105POPC   C1B42187  27.791  12.530   6.063
 3105POPC   C2B42188  27.619  12.516   6.456
 3105POPC   C3B42189  27.464  12.577   6.851
 3105POPC   C4B42190  27.707  12.643   7.214
 3106POPC   NC342191  12.288  17.706   5.378
 3106POPC   PO442192  11.875  17.136   5.426
 3106POPC   GL142193  12.135  17.358   5.720
 3106POPC   GL242194  11.989  17.670   5.838
 3106POPC   C1A42195  12.148  17.302   6.148
 3106POPC   D2A42196  12.024  17.115   6.527
 3106POPC   C3A42197  12.205  17.204   6.914
 3106POPC   C4A42198  11.946  17.471   7.136
 3106POPC   C1B42199  12.020  17.765   6.308
 3106POPC   C2B42200  12.090  17.761   6.754
 3106POPC   C3B42201  12.108  18.003   7.164
 3106POPC   C4B42202  12.111  18.219   7.571
 3107POPC   NC342203  29.354  26.826   5.446
 3107POPC   PO442204  29.406  27.470   5.461
 3107POPC   GL142205  29.353  27.188   5.856
 3107POPC   GL242206  29.159  26.876   5.896
 3107POPC   C1A42207  29.201  27.218   6.301
 3107POPC   D2A42208  29.220  27.414   6.734
 3107POPC   C3A42209  29.172  27.131   7.099
 3107POPC   C4A42210  28.800  26.965   7.287
 3107POPC   C1B42211  29.371  26.728   6.231
 3107POPC   C2B42212  29.360  26.857   6.658
 3107POPC   C3B42213  29.336  26.651   7.044
 3107POPC   C4B42214  28.985  26.465   7.245
 3108POPC   NC342215  31.559  11.963   5.188
 3108POPC   PO442216  31.337  12.600   5.174
 3108POPC   GL142217  31.434  12.318   5.589
 3108POPC   GL242218  31.433  11.941   5.696
 3108POPC   C1A42219  31.625  12.279   6.048
 3108POPC   D2A42220  31.458  12.151   6.488
 3108POPC   C3A42221  31.548  12.048   6.930
 3108POPC   C4A42222  31.428  12.356   7.238
 3108POPC   C1B42223  31.636  11.762   6.097
 3108POPC   C2B42224  31.787  11.770   6.529
 3108POPC   C3B42225  31.796  11.575   6.942
 3108POPC   C4B42226  31.851  11.765   7.357
 3109POPC   NC342227  39.973  42.552   5.397
 3109POPC   PO442228  40.307  42.058   5.476
 3109POPC   GL142229  39.970  42.164   5.797
 3109POPC   GL242230  39.642  42.395   5.760
 3109POPC   C1A42231  39.982  42.137   6.253
 3109POPC   D2A42232  40.181  42.181   6.641
 3109POPC   C3A42233  40.034  41.983   7.023
 3109POPC   C4A42234  40.291  42.166   7.324
 3109POPC   C1B42235  39.865  42.601   6.066
 3109POPC   C2B42236  39.946  42.617   6.513
 3109POPC   C3B42237  39.931  42.501   6.980
 3109POPC   C4B42238  39.693  42.692   7.309
 3110POPC   NC342239  36.710   4.984   5.418
 3110POPC   PO442240  37.236   5.353   5.325
 3110POPC   GL142241  37.073   5.240   5.742
 3110POPC   GL242242  36.754   5.425   5.749
 3110POPC   C1A42243  37.104   4.984   6.120
 3110POPC   D2A42244  36.889   4.984   6.544
 3110POPC   C3A42245  37.080   4.903   6.955
 3110POPC   C4A42246  36.838   4.957   7.345
 3110POPC   C1B42247  36.680   5.275   6.163
 3110POPC   C2B42248  36.680   5.471   6.588
 3110POPC   C3B42249  36.666   5.328   7.038
 3110POPC   C4B42250  36.762   5.445   7.499
 3111POPC   NC342251  25.014  28.220   5.592
 3111POPC   PO442252  25.381  28.742   5.397
 3111POPC   GL142253  25.384  28.554   5.797
 3111POPC   GL242254  25.056  28.676   5.821
 3111POPC   C1A42255  25.292  28.389   6.225
 3111POPC   D2A42256  25.338  28.408   6.695
 3111POPC   C3A42257  25.220  28.087   7.006
 3111POPC   C4A42258  25.207  28.096   7.457
 3111POPC   C1B42259  24.754  28.765   6.118
 3111POPC   C2B42260  24.915  28.643   6.481
 3111POPC   C3B42261  24.869  28.648   6.875
 3111POPC   C4B42262  24.853  28.391   7.218
 3112POPC   NC342263  40.555  11.892   5.451
 3112POPC   PO442264  40.989  12.459   5.286
 3112POPC   GL142265  40.795  12.280   5.662
 3112POPC   GL242266  41.011  11.999   5.727
 3112POPC   C1A42267  40.673  12.123   6.108
 3112POPC   D2A42268  40.868  11.977   6.520
 3112POPC   C3A42269  40.566  12.036   6.840
 3112POPC   C4A42270  40.609  12.096   7.250
 3112POPC   C1B42271  40.929  11.696   6.046
 3112POPC   C2B42272  40.599  11.591   6.332
 3112POPC   C3B42273  40.667  11.543   6.781
 3112POPC   C4B42274  40.830  11.644   7.195
 3113POPC   NC342275  10.481  19.763   4.753
 3113POPC   PO442276  10.328  19.827   5.422
 3113POPC   GL142277  10.370  19.585   5.772
 3113POPC   GL242278  10.632  19.789   5.877
 3113POPC   C1A42279  10.263  19.633   6.204
 3113POPC   D2A42280  10.572  19.574   6.515
 3113POPC   C3A42281  10.484  19.591   6.932
 3113POPC   C4A42282  10.417  19.831   7.269
 3113POPC   C1B42283  10.605  20.030   6.258
 3113POPC   C2B42284  10.802  20.001   6.660
 3113POPC   C3B42285  10.544  20.185   6.924
 3113POPC   C4B42286  10.564  20.387   7.312
 3114POPC   NC342287  17.219   6.000   5.425
 3114POPC   PO442288  17.872   5.817   5.550
 3114POPC   GL142289  17.665   5.933   5.896
 3114POPC   GL242290  17.709   6.247   5.878
 3114POPC   C1A42291  17.427   5.823   6.251
 3114POPC   D2A42292  17.434   5.520   6.602
 3114POPC   C3A42293  17.250   5.610   7.012
 3114POPC   C4A42294  17.429   5.728   7.423
 3114POPC   C1B42295  17.761   6.284   6.314
 3114POPC   C2B42296  17.687   5.985   6.657
 3114POPC   C3B42297  17.450   6.069   7.033
 3114POPC   C4B42298  17.585   6.251   7.414
 3115POPC   NC342299  39.098  34.005   5.801
 3115POPC   PO442300  39.395  34.354   5.300
 3115POPC   GL142301  39.316  34.500   5.740
 3115POPC   GL242302  39.027  34.670   5.857
 3115POPC   C1A42303  39.329  34.493   6.219
 3115POPC   D2A42304  39.583  34.465   6.569
 3115POPC   C3A42305  39.573  34.669   6.946
 3115POPC   C4A42306  39.465  34.564   7.367
 3115POPC   C1B42307  38.794  34.522   6.196
 3115POPC   C2B42308  38.591  34.561   6.588
 3115POPC   C3B42309  38.713  34.508   7.012
 3115POPC   C4B42310  38.979  34.567   7.352
 3116POPC   NC342311   2.886  17.679   5.397
 3116POPC   PO442312   2.249  17.467   5.333
 3116POPC   GL142313   2.428  17.308   5.723
 3116POPC   GL242314   2.353  17.577   5.992
 3116POPC   C1A42315   2.634  17.187   6.122
 3116POPC   D2A42316   2.456  17.396   6.494
 3116POPC   C3A42317   2.644  17.468   6.924
 3116POPC   C4A42318   2.836  17.347   7.335
 3116POPC   C1B42319   2.785  17.707   6.175
 3116POPC   C2B42320   3.050  17.963   6.468
 3116POPC   C3B42321   3.082  17.800   6.881
 3116POPC   C4B42322   2.822  17.836   7.244
 3117POPC   NC342323  19.826  16.121   5.300
 3117POPC   PO442324  19.761  16.760   5.065
 3117POPC   GL142325  19.696  16.683   5.536
 3117POPC   GL242326  19.981  16.567   5.681
 3117POPC   C1A42327  19.591  16.759   5.997
 3117POPC   D2A42328  19.418  16.828   6.447
 3117POPC   C3A42329  19.647  16.785   6.855
 3117POPC   C4A42330  19.868  16.729   7.259
 3117POPC   C1B42331  20.042  16.407   6.097
 3117POPC   C2B42332  19.942  16.481   6.542
 3117POPC   C3B42333  20.172  16.368   6.940
 3117POPC   C4B42334  20.174  16.333   7.395
 3118POPC   NC342335  35.708  23.344   5.343
 3118POPC   PO442336  35.137  23.839   5.352
 3118POPC   GL142337  35.167  23.643   5.770
 3118POPC   GL242338  35.530  23.656   5.749
 3118POPC   C1A42339  35.065  23.666   6.237
 3118POPC   D2A42340  35.327  23.854   6.574
 3118POPC   C3A42341  35.178  23.869   7.008
 3118POPC   C4A42342  34.961  23.628   7.293
 3118POPC   C1B42343  35.653  23.829   6.160
 3118POPC   C2B42344  35.841  23.771   6.579
 3118POPC   C3B42345  35.615  23.630   6.944
 3118POPC   C4B42346  35.706  23.982   7.137
 3119POPC   NC342347  40.081   9.181   5.340
 3119POPC   PO442348  39.728   8.569   5.389
 3119POPC   GL142349  39.869   8.864   5.769
 3119POPC   GL242350  39.845   9.240   5.819
 3119POPC   C1A42351  39.944   8.931   6.238
 3119POPC   D2A42352  40.071   9.111   6.644
 3119POPC   C3A42353  40.230   8.879   7.005
 3119POPC   C4A42354  40.454   9.091   7.352
 3119POPC   C1B42355  39.536   9.223   6.152
 3119POPC   C2B42356  39.530   9.070   6.584
 3119POPC   C3B42357  39.713   8.979   6.985
 3119POPC   C4B42358  40.012   9.319   7.142
 3120POPC   NC342359  28.840  24.903   5.351
 3120POPC   PO442360  29.239  25.557   5.442
 3120POPC   GL142361  29.154  25.206   5.710
 3120POPC   GL242362  28.805  25.148   5.798
 3120POPC   C1A42363  29.242  25.142   6.143
 3120POPC   D2A42364  29.345  25.374   6.519
 3120POPC   C3A42365  29.469  25.132   6.856
 3120POPC   C4A42366  29.378  25.016   7.262
 3120POPC   C1B42367  28.712  25.066   6.225
 3120POPC   C2B42368  28.954  25.053   6.611
 3120POPC   C3B42369  28.917  25.073   7.044
 3120POPC   C4B42370  28.941  24.684   7.264
 3121POPC   NC342371  12.727   6.141   5.353
 3121POPC   PO442372  13.059   5.452   5.337
 3121POPC   GL142373  12.902   5.522   5.773
 3121POPC   GL242374  12.854   5.882   5.781
 3121POPC   C1A42375  12.666   5.664   6.181
 3121POPC   D2A42376  12.560   5.892   6.543
 3121POPC   C3A42377  12.725   5.728   6.918
 3121POPC   C4A42378  12.582   5.484   7.245
 3121POPC   C1B42379  12.962   6.122   6.191
 3121POPC   C2B42380  13.022   6.091   6.653
 3121POPC   C3B42381  12.827   6.212   7.045
 3121POPC   C4B42382  13.023   6.155   7.412
 3122POPC   NC342383  10.252  43.001   5.434
 3122POPC   PO442384  10.312  43.615   5.664
 3122POPC   GL142385  10.525  43.287   5.878
 3122POPC   GL242386  10.505  42.907   5.848
 3122POPC   C1A42387  10.445  43.136   6.291
 3122POPC   D2A42388  10.207  43.033   6.640
 3122POPC   C3A42389  10.398  43.171   7.007
 3122POPC   C4A42390  10.446  43.565   7.258
 3122POPC   C1B42391  10.633  42.653   6.193
 3122POPC   C2B42392  10.682  42.792   6.615
 3122POPC   C3B42393  10.793  42.657   7.007
 3122POPC   C4B42394  10.551  42.781   7.333
 3123POPC   NC342395  27.597   5.489   5.539
 3123POPC   PO442396  27.853   6.061   5.331
 3123POPC   GL142397  27.801   5.990   5.772
 3123POPC   GL242398  27.477   6.190   5.825
 3123POPC   C1A42399  28.001   5.795   6.166
 3123POPC   D2A42400  27.872   5.885   6.604
 3123POPC   C3A42401  27.694   5.671   6.947
 3123POPC   C4A42402  27.300   5.819   7.122
 3123POPC   C1B42403  27.689   6.239   6.248
 3123POPC   C2B42404  27.591   6.347   6.694
 3123POPC   C3B42405  27.717   6.175   7.091
 3123POPC   C4B42406  27.602   6.176   7.538
 3124POPC   NC342407  36.850  13.773   5.211
 3124POPC   PO442408  36.992  14.363   5.466
 3124POPC   GL142409  36.983  14.426   5.883
 3124POPC   GL242410  37.142  14.714   5.928
 3124POPC   C1A42411  36.942  14.406   6.318
 3124POPC   D2A42412  36.789  14.695   6.618
 3124POPC   C3A42413  36.751  14.511   7.032
 3124POPC   C4A42414  36.862  14.099   7.254
 3124POPC   C1B42415  37.419  14.633   6.263
 3124POPC   C2B42416  37.576  14.724   6.661
 3124POPC   C3B42417  37.236  14.719   6.923
 3124POPC   C4B42418  37.183  14.580   7.299
 3125POPC   NC342419   6.214  12.273   5.633
 3125POPC   PO442420   5.725  12.751   5.364
 3125POPC   GL142421   5.955  12.794   5.782
 3125POPC   GL242422   5.889  13.149   5.816
 3125POPC   C1A42423   5.957  12.644   6.258
 3125POPC   D2A42424   5.804  12.840   6.663
 3125POPC   C3A42425   6.018  12.877   7.069
 3125POPC   C4A42426   5.994  12.831   7.559
 3125POPC   C1B42427   5.681  13.069   6.188
 3125POPC   C2B42428   5.473  13.261   6.527
 3125POPC   C3B42429   5.574  13.221   6.961
 3125POPC   C4B42430   5.579  12.989   7.315
 3126POPC   NC342431  10.539   5.678   5.319
 3126POPC   PO442432  10.627   6.347   5.519
 3126POPC   GL142433  10.548   6.033   5.836
 3126POPC   GL242434  10.283   5.768   5.794
 3126POPC   C1A42435  10.659   5.919   6.271
 3126POPC   D2A42436  10.604   5.664   6.647
 3126POPC   C3A42437  10.692   5.853   7.062
 3126POPC   C4A42438  10.489   6.030   7.445
 3126POPC   C1B42439  10.232   5.631   6.225
 3126POPC   C2B42440  10.114   5.521   6.645
 3126POPC   C3B42441  10.174   5.741   7.077
 3126POPC   C4B42442  10.070   5.766   7.545
 3127POPC   NC342443  12.722  37.119   5.483
 3127POPC   PO442444  12.006  36.950   5.356
 3127POPC   GL142445  11.974  37.082   5.785
 3127POPC   GL242446  12.310  37.207   5.804
 3127POPC   C1A42447  11.779  36.980   6.190
 3127POPC   D2A42448  11.631  37.067   6.616
 3127POPC   C3A42449  11.943  36.876   6.878
 3127POPC   C4A42450  12.168  36.709   7.215
 3127POPC   C1B42451  12.318  37.061   6.251
 3127POPC   C2B42452  12.436  36.983   6.703
 3127POPC   C3B42453  12.477  37.098   7.147
 3127POPC   C4B42454  12.377  36.989   7.612
 3128POPC   NC342455   7.135  36.385   5.371
 3128POPC   PO442456   7.735  36.447   5.706
 3128POPC   GL142457   7.493  36.117   5.887
 3128POPC   GL242458   7.163  36.237   5.863
 3128POPC   C1A42459   7.358  35.955   6.314
 3128POPC   D2A42460   7.135  35.894   6.718
 3128POPC   C3A42461   7.392  36.056   7.036
 3128POPC   C4A42462   7.745  35.871   7.169
 3128POPC   C1B42463   7.225  36.465   6.236
 3128POPC   C2B42464   7.134  36.418   6.667
 3128POPC   C3B42465   7.276  36.569   7.065
 3128POPC   C4B42466   7.623  36.644   7.320
 3129POPC   NC342467  26.558   8.661   5.452
 3129POPC   PO442468  27.014   9.194   5.532
 3129POPC   GL142469  26.861   9.194   5.890
 3129POPC   GL242470  26.539   9.066   5.785
 3129POPC   C1A42471  27.025   9.172   6.295
 3129POPC   D2A42472  26.818   9.181   6.670
 3129POPC   C3A42473  26.952   9.047   7.075
 3129POPC   C4A42474  26.849   9.286   7.431
 3129POPC   C1B42475  26.562   8.927   6.236
 3129POPC   C2B42476  26.332   9.065   6.588
 3129POPC   C3B42477  26.439   9.176   7.019
 3129POPC   C4B42478  26.467   8.952   7.402
 3130POPC   NC342479  17.544   6.999   5.473
 3130POPC   PO442480  17.518   6.350   5.401
 3130POPC   GL142481  17.331   6.586   5.730
 3130POPC   GL242482  17.633   6.741   5.888
 3130POPC   C1A42483  17.262   6.404   6.127
 3130POPC   D2A42484  17.266   6.234   6.533
 3130POPC   C3A42485  17.565   6.484   6.765
 3130POPC   C4A42486  17.441   6.695   7.122
 3130POPC   C1B42487  17.841   6.826   6.265
 3130POPC   C2B42488  18.032   6.651   6.607
 3130POPC   C3B42489  17.936   6.772   7.003
 3130POPC   C4B42490  17.838   6.702   7.415
 3131POPC   NC342491  23.912   3.626   5.481
 3131POPC   PO442492  23.371   3.210   5.373
 3131POPC   GL142493  23.504   3.428   5.767
 3131POPC   GL242494  23.491   3.783   5.819
 3131POPC   C1A42495  23.807   3.502   6.126
 3131POPC   D2A42496  23.995   3.472   6.535
 3131POPC   C3A42497  23.694   3.458   6.875
 3131POPC   C4A42498  23.780   3.454   7.302
 3131POPC   C1B42499  23.567   3.943   6.254
 3131POPC   C2B42500  23.742   3.923   6.674
 3131POPC   C3B42501  23.522   3.933   7.065
 3131POPC   C4B42502  23.312   3.843   7.454
 3132POPC   NC342503  14.316  17.535   5.210
 3132POPC   PO442504  14.942  17.590   5.495
 3132POPC   GL142505  14.534  17.563   5.797
 3132POPC   GL242506  14.181  17.590   5.779
 3132POPC   C1A42507  14.386  17.454   6.240
 3132POPC   D2A42508  14.301  17.259   6.653
 3132POPC   C3A42509  14.503  17.350   7.054
 3132POPC   C4A42510  14.387  17.330   7.470
 3132POPC   C1B42511  14.068  17.868   6.173
 3132POPC   C2B42512  14.025  17.769   6.611
 3132POPC   C3B42513  14.341  17.843   6.937
 3132POPC   C4B42514  14.690  17.781   7.242
 3133POPC   NC342515  12.474   5.373   5.453
 3133POPC   PO442516  11.839   5.144   5.642
 3133POPC   GL142517  12.236   5.107   5.838
 3133POPC   GL242518  12.320   4.759   5.799
 3133POPC   C1A42519  12.287   5.294   6.245
 3133POPC   D2A42520  12.458   5.384   6.627
 3133POPC   C3A42521  12.221   5.222   6.966
 3133POPC   C4A42522  11.818   5.009   7.122
 3133POPC   C1B42523  12.160   4.783   6.234
 3133POPC   C2B42524  12.045   4.803   6.669
 3133POPC   C3B42525  12.205   4.708   7.061
 3133POPC   C4B42526  12.262   4.665   7.493
 3134POPC   NC342527  15.978  25.599   5.331
 3134POPC   PO442528  15.762  24.947   5.270
 3134POPC   GL142529  15.704  25.046   5.733
 3134POPC   GL242530  15.690  25.418   5.755
 3134POPC   C1A42531  15.805  25.106   6.212
 3134POPC   D2A42532  15.672  24.935   6.658
 3134POPC   C3A42533  15.932  25.084   7.016
 3134POPC   C4A42534  16.281  25.180   7.323
 3134POPC   C1B42535  15.504  25.515   6.151
 3134POPC   C2B42536  15.593  25.462   6.608
 3134POPC   C3B42537  15.873  25.597   6.939
 3134POPC   C4B42538  15.865  25.482   7.361
 3135POPC   NC342539  34.445   3.789   5.318
 3135POPC   PO442540  34.239   3.126   5.419
 3135POPC   GL142541  34.298   3.467   5.705
 3135POPC   GL242542  34.642   3.412   5.810
 3135POPC   C1A42543  34.353   3.691   6.107
 3135POPC   D2A42544  34.150   3.771   6.497
 3135POPC   C3A42545  34.437   3.826   6.819
 3135POPC   C4A42546  34.417   3.691   7.230
 3135POPC   C1B42547  34.838   3.541   6.209
 3135POPC   C2B42548  34.911   3.663   6.645
 3135POPC   C3B42549  34.778   3.424   6.996
 3135POPC   C4B42550  34.921   3.275   7.414
 3136POPC   NC342551  26.724   1.077   5.277
 3136POPC   PO442552  27.250   1.384   5.482
 3136POPC   GL142553  27.138   1.127   5.822
 3136POPC   GL242554  26.778   1.155   5.802
 3136POPC   C1A42555  27.068   1.036   6.247
 3136POPC   D2A42556  26.834   1.266   6.553
 3136POPC   C3A42557  26.934   1.236   7.004
 3136POPC   C4A42558  27.124   0.917   7.274
 3136POPC   C1B42559  26.757   1.532   6.035
 3136POPC   C2B42560  26.731   1.759   6.417
 3136POPC   C3B42561  26.618   1.625   6.835
 3136POPC   C4B42562  26.455   1.452   7.207
 3137POPC   NC342563  28.088   7.653   5.322
 3137POPC   PO442564  27.727   7.059   5.364
 3137POPC   GL142565  27.816   7.159   5.771
 3137POPC   GL242566  27.715   7.503   5.848
 3137POPC   C1A42567  27.680   7.138   6.198
 3137POPC   D2A42568  27.780   7.260   6.604
 3137POPC   C3A42569  27.458   7.241   6.937
 3137POPC   C4A42570  27.421   6.983   7.303
 3137POPC   C1B42571  27.774   7.727   6.236
 3137POPC   C2B42572  27.949   7.746   6.652
 3137POPC   C3B42573  27.838   7.715   7.075
 3137POPC   C4B42574  27.572   7.512   7.389
 3138POPC   NC342575   6.087  40.935   5.619
 3138POPC   PO442576   5.549  40.532   5.728
 3138POPC   GL142577   5.454  40.731   6.064
 3138POPC   GL242578   5.635  41.015   6.000
 3138POPC   C1A42579   5.655  40.598   6.431
 3138POPC   D2A42580   6.003  40.361   6.593
 3138POPC   C3A42581   6.080  40.547   6.983
 3138POPC   C4A42582   5.715  40.612   7.257
 3138POPC   C1B42583   5.547  41.102   6.430
 3138POPC   C2B42584   5.594  40.931   6.854
 3138POPC   C3B42585   5.737  41.197   7.213
 3138POPC   C4B42586   5.595  41.233   7.631
 3139POPC   NC342587  39.848  10.894   5.468
 3139POPC   PO442588  40.276  10.529   5.202
 3139POPC   GL142589  40.145  10.527   5.679
 3139POPC   GL242590  40.363  10.767   5.826
 3139POPC   C1A42591  39.950  10.369   6.091
 3139POPC   D2A42592  39.816  10.548   6.530
 3139POPC   C3A42593  39.937  10.317   6.917
 3139POPC   C4A42594  40.050  10.260   7.350
 3139POPC   C1B42595  40.262  10.704   6.290
 3139POPC   C2B42596  40.403  10.557   6.704
 3139POPC   C3B42597  40.299  10.641   7.142
 3139POPC   C4B42598  40.285  10.617   7.616
 3140POPC   NC342599  26.156  22.416   5.444
 3140POPC   PO442600  25.688  22.003   5.320
 3140POPC   GL142601  25.819  22.167   5.742
 3140POPC   GL242602  25.897  21.859   5.814
 3140POPC   C1A42603  25.982  22.242   6.185
 3140POPC   D2A42604  25.824  22.180   6.610
 3140POPC   C3A42605  25.986  22.130   7.021
 3140POPC   C4A42606  25.751  22.069   7.404
 3140POPC   C1B42607  26.066  21.712   6.207
 3140POPC   C2B42608  26.281  21.927   6.540
 3140POPC   C3B42609  26.438  21.848   6.956
 3140POPC   C4B42610  26.256  21.826   7.367
 3141POPC   NC342611  27.435   7.426   5.439
 3141POPC   PO442612  26.721   7.380   5.451
 3141POPC   GL142613  26.788   7.268   5.860
 3141POPC   GL242614  26.433   7.158   5.914
 3141POPC   C1A42615  27.061   7.332   6.264
 3141POPC   D2A42616  26.990   7.136   6.684
 3141POPC   C3A42617  26.901   7.445   7.006
 3141POPC   C4A42618  27.216   7.724   7.107
 3141POPC   C1B42619  26.547   7.398   6.290
 3141POPC   C2B42620  26.386   7.479   6.701
 3141POPC   C3B42621  26.433   7.232   7.061
 3141POPC   C4B42622  26.573   7.303   7.461
 3142POPC   NC342623  44.522   0.056   5.538
 3142POPC   PO442624  44.733   0.726   5.393
 3142POPC   GL142625  44.718   0.491   5.734
 3142POPC   GL242626  44.481   0.702   5.877
 3142POPC   C1A42627  44.800   0.398   6.162
 3142POPC   D2A42628  44.909   0.256   6.568
 3142POPC   C3A42629  44.821   0.492   6.919
 3142POPC   C4A42630  44.695   0.345   7.338
 3142POPC   C1B42631  44.301   0.367   6.124
 3142POPC   C2B42632  44.439   0.473   6.533
 3142POPC   C3B42633  44.356   0.301   6.915
 3142POPC   C4B42634  44.220   0.472   7.251
 3143POPC   NC342635  37.896  37.663   5.396
 3143POPC   PO442636  37.280  37.326   5.559
 3143POPC   GL142637  37.595  37.525   5.785
 3143POPC   GL242638  37.461  37.782   5.940
 3143POPC   C1A42639  37.720  37.441   6.196
 3143POPC   D2A42640  37.567  37.616   6.571
 3143POPC   C3A42641  37.826  37.606   6.937
 3143POPC   C4A42642  37.968  37.333   7.256
 3143POPC   C1B42643  37.167  37.932   6.254
 3143POPC   C2B42644  37.225  37.985   6.691
 3143POPC   C3B42645  37.293  37.964   7.126
 3143POPC   C4B42646  37.573  37.710   7.351
 3144POPC   NC342647   7.097   9.979   5.495
 3144POPC   PO442648   7.759   9.680   5.431
 3144POPC   GL142649   7.493   9.695   5.764
 3144POPC   GL242650   7.215   9.482   5.779
 3144POPC   C1A42651   7.535   9.769   6.194
 3144POPC   D2A42652   7.683   9.939   6.564
 3144POPC   C3A42653   7.373   9.864   6.883
 3144POPC   C4A42654   7.521   9.635   7.216
 3144POPC   C1B42655   7.161   9.410   6.216
 3144POPC   C2B42656   7.254   9.391   6.666
 3144POPC   C3B42657   7.070   9.440   7.087
 3144POPC   C4B42658   6.990   9.436   7.557
 3145POPC   NC342659  42.650  27.357   5.321
 3145POPC   PO442660  42.171  27.849   5.229
 3145POPC   GL142661  42.206  27.643   5.646
 3145POPC   GL242662  42.559  27.665   5.728
 3145POPC   C1A42663  42.119  27.656   6.110
 3145POPC   D2A42664  42.219  27.541   6.547
 3145POPC   C3A42665  42.227  27.838   6.895
 3145POPC   C4A42666  42.319  27.692   7.303
 3145POPC   C1B42667  42.644  27.430   6.104
 3145POPC   C2B42668  42.732  27.407   6.548
 3145POPC   C3B42669  42.675  27.555   6.965
 3145POPC   C4B42670  42.813  27.555   7.403
 3146POPC   NC342671  20.808  13.538   5.390
 3146POPC   PO442672  20.243  13.956   5.244
 3146POPC   GL142673  20.478  13.820   5.670
 3146POPC   GL242674  20.439  13.476   5.759
 3146POPC   C1A42675  20.671  13.734   6.127
 3146POPC   D2A42676  20.807  13.928   6.529
 3146POPC   C3A42677  20.866  13.703   6.905
 3146POPC   C4A42678  20.682  13.614   7.267
 3146POPC   C1B42679  20.305  13.375   6.163
 3146POPC   C2B42680  20.390  13.564   6.556
 3146POPC   C3B42681  20.411  13.351   6.922
 3146POPC   C4B42682  20.207  13.361   7.311
 3147POPC   NC342683  31.603   6.402   5.269
 3147POPC   PO442684  31.344   5.795   5.203
 3147POPC   GL142685  31.441   5.816   5.701
 3147POPC   GL242686  31.330   6.144   5.832
 3147POPC   C1A42687  31.536   5.742   6.177
 3147POPC   D2A42688  31.750   5.585   6.562
 3147POPC   C3A42689  31.741   5.796   6.967
 3147POPC   C4A42690  31.549   5.749   7.375
 3147POPC   C1B42691  31.338   6.209   6.271
 3147POPC   C2B42692  31.349   5.959   6.639
 3147POPC   C3B42693  31.237   6.012   7.050
 3147POPC   C4B42694  30.979   6.364   7.158
 3148POPC   NC342695  37.446  42.829   5.454
 3148POPC   PO442696  38.065  42.995   5.443
 3148POPC   GL142697  37.757  43.106   5.798
 3148POPC   GL242698  37.491  42.873   5.952
 3148POPC   C1A42699  37.743  43.280   6.232
 3148POPC   D2A42700  37.624  43.082   6.616
 3148POPC   C3A42701  37.637  43.287   7.003
 3148POPC   C4A42702  37.361  43.026   7.224
 3148POPC   C1B42703  37.817  42.757   6.244
 3148POPC   C2B42704  37.814  42.577   6.657
 3148POPC   C3B42705  37.832  42.800   7.029
 3148POPC   C4B42706  37.860  42.992   7.417
 3149POPC   NC342707  22.112  22.277   5.249
 3149POPC   PO442708  21.605  21.788   5.453
 3149POPC   GL142709  21.895  21.997   5.711
 3149POPC   GL242710  21.843  22.361   5.726
 3149POPC   C1A42711  22.164  21.896   6.100
 3149POPC   D2A42712  22.386  21.881   6.531
 3149POPC   C3A42713  22.160  21.938   6.934
 3149POPC   C4A42714  21.789  21.916   7.265
 3149POPC   C1B42715  22.156  22.450   6.059
 3149POPC   C2B42716  22.404  22.418   6.462
 3149POPC   C3B42717  22.185  22.438   6.862
 3149POPC   C4B42718  22.103  22.310   7.302
 3150POPC   NC342719  27.111  25.697   5.453
 3150POPC   PO442720  26.871  26.302   5.502
 3150POPC   GL142721  26.850  26.094   5.860
 3150POPC   GL242722  26.479  26.060   5.823
 3150POPC   C1A42723  26.866  26.068   6.329
 3150POPC   D2A42724  27.172  26.036   6.684
 3150POPC   C3A42725  27.016  25.774   7.026
 3150POPC   C4A42726  27.050  25.793   7.473
 3150POPC   C1B42727  26.533  26.422   6.101
 3150POPC   C2B42728  26.560  26.429   6.522
 3150POPC   C3B42729  26.690  26.169   6.836
 3150POPC   C4B42730  26.698  26.122   7.261
 3151POPC   NC342731  10.883  40.409   5.149
 3151POPC   PO442732  10.488  40.800   5.389
 3151POPC   GL142733  10.498  40.606   5.814
 3151POPC   GL242734  10.650  40.298   5.777
 3151POPC   C1A42735  10.482  40.787   6.221
 3151POPC   D2A42736  10.331  40.663   6.586
 3151POPC   C3A42737  10.407  40.856   6.972
 3151POPC   C4A42738  10.089  40.953   7.239
 3151POPC   C1B42739  10.809  40.386   6.187
 3151POPC   C2B42740  10.821  40.547   6.607
 3151POPC   C3B42741  10.899  40.674   7.029
 3151POPC   C4B42742  10.814  40.453   7.408
 3152POPC   NC342743  38.605  16.264   5.602
 3152POPC   PO442744  38.066  16.470   5.340
 3152POPC   GL142745  38.302  16.637   5.777
 3152POPC   GL242746  38.686  16.720   5.851
 3152POPC   C1A42747  38.372  16.895   6.190
 3152POPC   D2A42748  38.555  16.966   6.611
 3152POPC   C3A42749  38.411  16.771   7.017
 3152POPC   C4A42750  38.299  16.908   7.418
 3152POPC   C1B42751  38.910  16.872   6.239
 3152POPC   C2B42752  39.051  17.061   6.642
 3152POPC   C3B42753  38.905  16.926   7.047
 3152POPC   C4B42754  38.817  16.810   7.472
 3153POPC   NC342755   2.694  28.699   5.100
 3153POPC   PO442756   3.067  28.233   5.333
 3153POPC   GL142757   3.036  28.162   5.804
 3153POPC   GL242758   2.753  28.265   5.986
 3153POPC   C1A42759   3.078  28.155   6.327
 3153POPC   D2A42760   2.838  28.521   6.556
 3153POPC   C3A42761   2.944  28.580   6.981
 3153POPC   C4A42762   3.081  28.687   7.388
 3153POPC   C1B42763   2.434  28.426   6.253
 3153POPC   C2B42764   2.306  28.616   6.630
 3153POPC   C3B42765   2.423  28.438   7.026
 3153POPC   C4B42766   2.714  28.279   7.336
 3154POPC   NC342767  29.325  30.239   5.583
 3154POPC   PO442768  28.831  30.665   5.348
 3154POPC   GL142769  28.931  30.583   5.745
 3154POPC   GL242770  29.055  30.904   5.754
 3154POPC   C1A42771  28.852  30.631   6.187
 3154POPC   D2A42772  28.784  30.605   6.628
 3154POPC   C3A42773  29.101  30.426   6.879
 3154POPC   C4A42774  29.234  30.479   7.298
 3154POPC   C1B42775  29.224  30.990   6.138
 3154POPC   C2B42776  29.308  30.736   6.480
 3154POPC   C3B42777  29.199  30.924   6.839
 3154POPC   C4B42778  29.051  30.969   7.221
 3155POPC   NC342779  34.726  41.321   5.449
 3155POPC   PO442780  34.595  41.990   5.392
 3155POPC   GL142781  34.365  41.678   5.685
 3155POPC   GL242782  34.369  41.314   5.845
 3155POPC   C1A42783  34.251  41.733   6.122
 3155POPC   D2A42784  34.317  42.017   6.470
 3155POPC   C3A42785  34.439  41.841   6.885
 3155POPC   C4A42786  34.212  41.857   7.286
 3155POPC   C1B42787  34.652  41.344   6.249
 3155POPC   C2B42788  34.769  41.436   6.718
 3155POPC   C3B42789  34.645  41.251   7.136
 3155POPC   C4B42790  34.552  41.255   7.608
 3156POPC   NC342791  43.927  38.150   5.438
 3156POPC   PO442792  43.492  38.634   5.294
 3156POPC   GL142793  43.592  38.557   5.745
 3156POPC   GL242794  43.531  38.238   5.796
 3156POPC   C1A42795  43.776  38.657   6.171
 3156POPC   D2A42796  44.115  38.718   6.491
 3156POPC   C3A42797  44.146  38.414   6.863
 3156POPC   C4A42798  44.082  38.444   7.328
 3156POPC   C1B42799  43.626  38.172   6.216
 3156POPC   C2B42800  43.656  38.406   6.617
 3156POPC   C3B42801  43.675  38.186   7.029
 3156POPC   C4B42802  43.690  38.182   7.491
 3157POPC   NC342803  44.913  16.811   5.431
 3157POPC   PO442804  44.410  17.272   5.462
 3157POPC   GL142805  44.629  17.066   5.839
 3157POPC   GL242806  44.683  16.701   5.875
 3157POPC   C1A42807  44.510  16.936   6.278
 3157POPC   D2A42808  44.573  17.038   6.688
 3157POPC   C3A42809  44.977  16.882   6.863
 3157POPC   C4A42810  44.908  16.581   7.199
 3157POPC   C1B42811  44.349  16.484   6.104
 3157POPC   C2B42812  44.407  16.365   6.519
 3157POPC   C3B42813  44.461  16.557   6.929
 3157POPC   C4B42814  44.373  16.542   7.348
 3158POPC   NC342815  10.112   2.362   5.634
 3158POPC   PO442816  10.414   1.823   5.293
 3158POPC   GL142817  10.534   2.020   5.693
 3158POPC   GL242818  10.830   2.257   5.731
 3158POPC   C1A42819  10.670   1.914   6.103
 3158POPC   D2A42820  10.507   2.128   6.453
 3158POPC   C3A42821  10.549   1.955   6.867
 3158POPC   C4A42822  10.468   1.787   7.278
 3158POPC   C1B42823  10.900   2.400   6.190
 3158POPC   C2B42824  11.034   2.625   6.560
 3158POPC   C3B42825  11.019   2.489   6.995
 3158POPC   C4B42826  10.810   2.161   7.270
 3159POPC   NC342827  14.315  37.420   5.203
 3159POPC   PO442828  14.456  36.752   5.260
 3159POPC   GL142829  14.306  36.928   5.692
 3159POPC   GL242830  14.245  36.647   5.934
 3159POPC   C1A42831  14.304  37.090   6.156
 3159POPC   D2A42832  14.562  37.060   6.520
 3159POPC   C3A42833  14.429  36.876   6.929
 3159POPC   C4A42834  14.563  37.047   7.348
 3159POPC   C1B42835  14.153  36.682   6.410
 3159POPC   C2B42836  13.921  36.646   6.791
 3159POPC   C3B42837  14.003  36.555   7.208
 3159POPC   C4B42838  14.449  36.557   7.352
 3160POPC   NC342839  21.191  31.897   5.545
 3160POPC   PO442840  21.412  31.399   5.390
 3160POPC   GL142841  21.603  31.409   5.792
 3160POPC   GL242842  21.524  31.758   5.916
 3160POPC   C1A42843  21.530  31.364   6.236
 3160POPC   D2A42844  21.632  31.678   6.546
 3160POPC   C3A42845  21.586  31.486   6.961
 3160POPC   C4A42846  21.564  31.236   7.324
 3160POPC   C1B42847  21.100  31.581   6.101
 3160POPC   C2B42848  20.953  31.692   6.491
 3160POPC   C3B42849  20.911  31.519   6.904
 3160POPC   C4B42850  21.166  31.548   7.247
 3161POPC   NC342851  17.473  19.488   5.431
 3161POPC   PO442852  17.006  19.206   5.135
 3161POPC   GL142853  17.368  19.051   5.658
 3161POPC   GL242854  17.572  18.790   5.781
 3161POPC   C1A42855  17.312  19.094   6.144
 3161POPC   D2A42856  17.233  18.816   6.522
 3161POPC   C3A42857  17.361  18.956   6.936
 3161POPC   C4A42858  17.428  19.265   7.294
 3161POPC   C1B42859  17.774  18.883   6.197
 3161POPC   C2B42860  17.657  19.157   6.556
 3161POPC   C3B42861  17.827  19.180   6.973
 3161POPC   C4B42862  17.911  18.778   7.194
 3162POPC   NC342863  44.049   1.478   5.280
 3162POPC   PO442864  43.742   0.862   5.410
 3162POPC   GL142865  43.844   1.228   5.691
 3162POPC   GL242866  43.570   1.360   5.881
 3162POPC   C1A42867  44.082   1.344   6.084
 3162POPC   D2A42868  44.062   1.226   6.559
 3162POPC   C3A42869  44.143   1.416   6.984
 3162POPC   C4A42870  43.921   1.317   7.376
 3162POPC   C1B42871  43.675   1.045   6.176
 3162POPC   C2B42872  43.589   1.013   6.596
 3162POPC   C3B42873  43.620   1.238   6.952
 3162POPC   C4B42874  43.439   1.155   7.335
 3163POPC   NC342875  35.063  30.436   5.426
 3163POPC   PO442876  35.490  30.994   5.456
 3163POPC   GL142877  35.246  30.860   5.772
 3163POPC   GL242878  35.339  30.536   5.836
 3163POPC   C1A42879  35.105  30.850   6.209
 3163POPC   D2A42880  34.910  30.976   6.612
 3163POPC   C3A42881  35.133  30.846   7.011
 3163POPC   C4A42882  35.563  30.846   7.203
 3163POPC   C1B42883  35.136  30.331   6.184
 3163POPC   C2B42884  35.281  30.238   6.609
 3163POPC   C3B42885  35.155  30.301   7.035
 3163POPC   C4B42886  35.442  30.239   7.384
 3164POPC   NC342887  21.891  27.669   5.129
 3164POPC   PO442888  21.296  27.737   5.466
 3164POPC   GL142889  21.643  27.640   5.722
 3164POPC   GL242890  21.539  27.378   5.908
 3164POPC   C1A42891  21.711  27.773   6.169
 3164POPC   D2A42892  21.510  27.792   6.612
 3164POPC   C3A42893  21.761  27.984   6.943
 3164POPC   C4A42894  21.620  28.135   7.337
 3164POPC   C1B42895  21.447  27.347   6.364
 3164POPC   C2B42896  21.084  27.456   6.628
 3164POPC   C3B42897  21.050  27.706   6.989
 3164POPC   C4B42898  21.402  27.710   7.188
 3165POPC   NC342899  23.592  19.360   5.597
 3165POPC   PO442900  23.441  19.997   5.406
 3165POPC   GL142901  23.612  20.016   5.814
 3165POPC   GL242902  23.892  19.772   5.896
 3165POPC   C1A42903  23.528  19.886   6.232
 3165POPC   D2A42904  23.713  19.571   6.472
 3165POPC   C3A42905  23.607  19.555   6.878
 3165POPC   C4A42906  23.584  19.507   7.293
 3165POPC   C1B42907  24.063  19.983   6.256
 3165POPC   C2B42908  23.888  20.034   6.662
 3165POPC   C3B42909  23.798  19.964   7.089
 3165POPC   C4B42910  24.022  19.762   7.386
 3166POPC   NC342911   5.347   9.349   5.528
 3166POPC   PO442912   5.031   8.692   5.367
 3166POPC   GL142913   5.205   8.907   5.698
 3166POPC   GL242914   4.925   8.952   5.889
 3166POPC   C1A42915   5.369   9.013   6.150
 3166POPC   D2A42916   5.512   8.953   6.583
 3166POPC   C3A42917   5.119   8.997   6.830
 3166POPC   C4A42918   5.087   9.188   7.219
 3166POPC   C1B42919   4.909   8.835   6.338
 3166POPC   C2B42920   4.786   8.580   6.697
 3166POPC   C3B42921   4.674   8.752   7.071
 3166POPC   C4B42922   4.572   9.141   7.240
 3167POPC   NC342923  36.418  12.945   5.354
 3167POPC   PO442924  37.054  12.684   5.496
 3167POPC   GL142925  36.824  12.784   5.857
 3167POPC   GL242926  36.736  13.125   5.748
 3167POPC   C1A42927  36.787  12.565   6.266
 3167POPC   D2A42928  36.702  12.475   6.712
 3167POPC   C3A42929  36.974  12.699   7.002
 3167POPC   C4A42930  36.838  12.841   7.403
 3167POPC   C1B42931  36.926  13.216   6.154
 3167POPC   C2B42932  36.857  13.006   6.553
 3167POPC   C3B42933  36.564  12.982   6.877
 3167POPC   C4B42934  36.543  13.231   7.219
 3168POPC   NC342935  24.963  30.635   5.357
 3168POPC   PO442936  25.483  30.881   5.254
 3168POPC   GL142937  25.370  30.638   5.728
 3168POPC   GL242938  24.988  30.595   5.861
 3168POPC   C1A42939  25.296  30.772   6.243
 3168POPC   D2A42940  25.087  30.855   6.674
 3168POPC   C3A42941  25.253  30.782   7.137
 3168POPC   C4A42942  25.453  30.867   7.560
 3168POPC   C1B42943  25.264  30.290   6.096
 3168POPC   C2B42944  25.254  30.149   6.525
 3168POPC   C3B42945  25.300  30.282   6.950
 3168POPC   C4B42946  25.101  30.332   7.362
 3169POPC   NC342947  15.465  28.599   5.040
 3169POPC   PO442948  15.091  28.263   5.476
 3169POPC   GL142949  15.223  28.257   5.876
 3169POPC   GL242950  15.175  28.587   5.944
 3169POPC   C1A42951  15.160  28.242   6.312
 3169POPC   D2A42952  14.849  28.325   6.608
 3169POPC   C3A42953  15.058  28.169   6.950
 3169POPC   C4A42954  15.330  28.409   7.219
 3169POPC   C1B42955  14.887  28.752   6.196
 3169POPC   C2B42956  14.833  28.936   6.591
 3169POPC   C3B42957  15.023  28.784   6.971
 3169POPC   C4B42958  14.799  28.491   7.228
 3170POPC   NC342959  31.536  24.451   5.225
 3170POPC   PO442960  31.170  24.931   5.607
 3170POPC   GL142961  31.475  24.611   5.730
 3170POPC   GL242962  31.359  24.267   5.661
 3170POPC   C1A42963  31.647  24.485   6.149
 3170POPC   D2A42964  31.639  24.674   6.568
 3170POPC   C3A42965  31.497  24.471   6.934
 3170POPC   C4A42966  31.342  24.705   7.257
 3170POPC   C1B42967  31.166  24.337   6.062
 3170POPC   C2B42968  31.268  24.313   6.480
 3170POPC   C3B42969  31.158  24.104   6.823
 3170POPC   C4B42970  31.024  24.195   7.204
 3171POPC   NC342971  28.145   6.870   5.490
 3171POPC   PO442972  28.606   6.314   5.263
 3171POPC   GL142973  28.392   6.429   5.645
 3171POPC   GL242974  28.612   6.725   5.672
 3171POPC   C1A42975  28.377   6.565   6.106
 3171POPC   D2A42976  28.537   6.575   6.536
 3171POPC   C3A42977  28.284   6.568   6.899
 3171POPC   C4A42978  28.300   6.884   7.192
 3171POPC   C1B42979  28.681   7.022   6.004
 3171POPC   C2B42980  28.715   7.047   6.429
 3171POPC   C3B42981  28.722   6.959   6.874
 3171POPC   C4B42982  28.841   7.035   7.299
 3172POPC   NC342983  25.773  26.205   5.092
 3172POPC   PO442984  25.186  26.177   5.400
 3172POPC   GL142985  25.267  26.028   5.781
 3172POPC   GL242986  25.540  25.848   5.661
 3172POPC   C1A42987  25.091  25.912   6.172
 3172POPC   D2A42988  25.108  26.013   6.582
 3172POPC   C3A42989  24.970  25.739   6.899
 3172POPC   C4A42990  24.857  25.915   7.291
 3172POPC   C1B42991  25.593  25.818   6.128
 3172POPC   C2B42992  25.614  26.051   6.530
 3172POPC   C3B42993  25.459  25.949   6.954
 3172POPC   C4B42994  25.647  25.969   7.338
 3173POPC   NC342995  39.324  20.686   5.670
 3173POPC   PO442996  38.822  20.887   5.642
 3173POPC   GL142997  38.960  20.737   6.060
 3173POPC   GL242998  39.123  20.419   6.057
 3173POPC   C1A42999  39.223  20.769   6.428
 3173POPC   D2A43000  39.347  21.053   6.746
 3173POPC   C3A43001  39.075  20.966   7.096
 3173POPC   C4A43002  39.244  20.640   7.325
 3173POPC   C1B43003  39.122  20.264   6.472
 3173POPC   C2B43004  39.256  20.427   6.856
 3173POPC   C3B43005  39.456  20.157   7.160
 3173POPC   C4B43006  39.361  19.877   7.509
 3174POPC   NC343007  20.430  15.672   5.393
 3174POPC   PO443008  20.245  16.335   5.312
 3174POPC   GL143009  20.179  16.082   5.692
 3174POPC   GL243010  20.512  16.006   5.781
 3174POPC   C1A43011  20.176  15.908   6.130
 3174POPC   D2A43012  20.288  15.613   6.457
 3174POPC   C3A43013  20.457  15.787   6.821
 3174POPC   C4A43014  20.528  15.641   7.196
 3174POPC   C1B43015  20.698  15.853   6.218
 3174POPC   C2B43016  20.951  15.866   6.623
 3174POPC   C3B43017  20.965  15.905   7.072
 3174POPC   C4B43018  20.691  16.102   7.366
 3175POPC   NC343019  35.660   7.671   5.321
 3175POPC   PO443020  36.057   7.130   5.249
 3175POPC   GL143021  36.125   7.158   5.732
 3175POPC   GL243022  36.159   7.520   5.888
 3175POPC   C1A43023  36.251   7.109   6.192
 3175POPC   D2A43024  36.339   7.447   6.484
 3175POPC   C3A43025  36.136   7.404   6.875
 3175POPC   C4A43026  36.272   7.486   7.277
 3175POPC   C1B43027  35.954   7.759   6.262
 3175POPC   C2B43028  35.791   7.808   6.717
 3175POPC   C3B43029  35.767   7.643   7.172
 3175POPC   C4B43030  35.938   7.670   7.631
 3176POPC   NC343031  43.532  39.823   5.575
 3176POPC   PO443032  43.033  40.197   5.486
 3176POPC   GL143033  43.240  40.237   5.889
 3176POPC   GL243034  43.569  40.396   5.881
 3176POPC   C1A43035  43.027  40.097   6.277
 3176POPC   D2A43036  42.906  39.831   6.638
 3176POPC   C3A43037  43.205  39.779   6.960
 3176POPC   C4A43038  42.965  39.740   7.311
 3176POPC   C1B43039  43.403  40.450   6.345
 3176POPC   C2B43040  43.171  40.261   6.738
 3176POPC   C3B43041  43.064  40.223   7.181
 3176POPC   C4B43042  43.193  40.089   7.598
 3177POPC   NC343043   2.251  39.780   5.370
 3177POPC   PO443044   1.619  40.072   5.266
 3177POPC   GL143045   1.835  39.992   5.650
 3177POPC   GL243046   1.638  39.719   5.748
 3177POPC   C1A43047   2.078  40.174   6.013
 3177POPC   D2A43048   2.190  40.086   6.457
 3177POPC   C3A43049   1.938  40.064   6.832
 3177POPC   C4A43050   1.734  40.264   7.181
 3177POPC   C1B43051   1.760  39.813   6.182
 3177POPC   C2B43052   1.971  39.570   6.482
 3177POPC   C3B43053   2.043  39.576   6.924
 3177POPC   C4B43054   1.914  39.784   7.313
 3178POPC   NC343055  42.583  31.985   5.495
 3178POPC   PO443056  42.077  32.442   5.477
 3178POPC   GL143057  42.198  32.201   5.770
 3178POPC   GL243058  42.501  32.415   5.812
 3178POPC   C1A43059  42.265  32.143   6.188
 3178POPC   D2A43060  42.007  32.073   6.521
 3178POPC   C3A43061  42.159  32.325   6.828
 3178POPC   C4A43062  42.099  32.256   7.255
 3178POPC   C1B43063  42.696  32.467   6.217
 3178POPC   C2B43064  42.794  32.508   6.653
 3178POPC   C3B43065  42.625  32.302   7.008
 3178POPC   C4B43066  42.586  32.381   7.447
 3179POPC   NC343067   9.571   8.831   5.209
 3179POPC   PO443068  10.032   8.498   5.572
 3179POPC   GL143069   9.755   8.799   5.798
 3179POPC   GL243070   9.414   8.773   5.725
 3179POPC   C1A43071   9.852   9.080   6.149
 3179POPC   D2A43072  10.037   8.993   6.565
 3179POPC   C3A43073   9.845   9.105   6.965
 3179POPC   C4A43074   9.984   8.958   7.378
 3179POPC   C1B43075   9.363   9.008   6.089
 3179POPC   C2B43076   9.508   8.990   6.512
 3179POPC   C3B43077   9.483   8.729   6.854
 3179POPC   C4B43078   9.454   8.858   7.250
 3180POPC   NC343079  12.517  22.395   5.408
 3180POPC   PO443080  13.113  22.048   5.461
 3180POPC   GL143081  12.851  22.250   5.761
 3180POPC   GL243082  12.574  22.017   5.835
 3180POPC   C1A43083  12.739  22.451   6.139
 3180POPC   D2A43084  12.972  22.359   6.522
 3180POPC   C3A43085  12.863  22.428   6.943
 3180POPC   C4A43086  13.051  22.224   7.344
 3180POPC   C1B43087  12.633  21.974   6.298
 3180POPC   C2B43088  12.651  21.944   6.749
 3180POPC   C3B43089  12.605  22.049   7.166
 3180POPC   C4B43090  12.585  22.248   7.529
 3181POPC   NC343091  16.369   8.906   5.363
 3181POPC   PO443092  15.732   9.154   5.504
 3181POPC   GL143093  16.060   9.094   5.787
 3181POPC   GL243094  16.009   8.750   5.774
 3181POPC   C1A43095  16.098   9.011   6.234
 3181POPC   D2A43096  16.013   9.193   6.633
 3181POPC   C3A43097  16.064   8.964   7.015
 3181POPC   C4A43098  16.317   9.038   7.360
 3181POPC   C1B43099  15.848   8.578   6.162
 3181POPC   C2B43100  15.807   8.723   6.605
 3181POPC   C3B43101  15.553   8.700   6.964
 3181POPC   C4B43102  15.491   8.740   7.396
 3182POPC   NC343103  33.602  21.866   5.514
 3182POPC   PO443104  33.772  22.471   5.187
 3182POPC   GL143105  33.785  22.393   5.642
 3182POPC   GL243106  33.455  22.309   5.772
 3182POPC   C1A43107  33.875  22.507   6.107
 3182POPC   D2A43108  33.798  22.721   6.536
 3182POPC   C3A43109  33.818  22.451   6.945
 3182POPC   C4A43110  33.994  22.145   7.282
 3182POPC   C1B43111  33.525  22.118   6.166
 3182POPC   C2B43112  33.554  22.007   6.590
 3182POPC   C3B43113  33.362  22.019   6.967
 3182POPC   C4B43114  33.482  22.056   7.371
 3183POPC   NC343115  29.754  18.665   5.357
 3183POPC   PO443116  30.031  19.247   5.354
 3183POPC   GL143117  30.029  19.224   5.792
 3183POPC   GL243118  29.903  18.864   5.823
 3183POPC   C1A43119  29.808  19.231   6.176
 3183POPC   D2A43120  29.748  19.067   6.576
 3183POPC   C3A43121  29.941  19.254   6.905
 3183POPC   C4A43122  29.659  19.294   7.214
 3183POPC   C1B43123  30.044  18.755   6.263
 3183POPC   C2B43124  29.919  18.603   6.686
 3183POPC   C3B43125  29.870  18.782   7.115
 3183POPC   C4B43126  29.775  18.931   7.565
 3184POPC   NC343127  18.052  36.910   5.455
 3184POPC   PO443128  17.386  37.077   5.437
 3184POPC   GL143129  17.332  36.987   5.863
 3184POPC   GL243130  17.458  36.644   5.794
 3184POPC   C1A43131  17.291  37.102   6.330
 3184POPC   D2A43132  17.594  37.045   6.664
 3184POPC   C3A43133  17.575  37.180   7.078
 3184POPC   C4A43134  17.678  37.241   7.512
 3184POPC   C1B43135  17.209  36.606   6.195
 3184POPC   C2B43136  17.265  36.661   6.645
 3184POPC   C3B43137  17.389  36.700   7.082
 3184POPC   C4B43138  17.162  36.609   7.476
 3185POPC   NC343139  22.334  36.131   5.582
 3185POPC   PO443140  21.873  36.098   5.133
 3185POPC   GL143141  21.892  36.333   5.675
 3185POPC   GL243142  22.155  36.579   5.786
 3185POPC   C1A43143  22.061  36.023   6.135
 3185POPC   D2A43144  22.355  35.839   6.458
 3185POPC   C3A43145  22.146  35.868   6.859
 3185POPC   C4A43146  22.153  35.910   7.295
 3185POPC   C1B43147  21.894  36.488   6.170
 3185POPC   C2B43148  22.071  36.312   6.573
 3185POPC   C3B43149  22.032  36.343   7.023
 3185POPC   C4B43150  21.634  36.387   7.186
 3186POPC   NC343151   6.843   9.020   5.366
 3186POPC   PO443152   6.233   9.403   5.315
 3186POPC   GL143153   6.480   9.173   5.692
 3186POPC   GL243154   6.842   9.133   5.860
 3186POPC   C1A43155   6.435   9.067   6.146
 3186POPC   D2A43156   6.780   9.147   6.447
 3186POPC   C3A43157   6.696   9.120   6.862
 3186POPC   C4A43158   6.405   8.861   7.066
 3186POPC   C1B43159   6.814   8.727   6.119
 3186POPC   C2B43160   6.651   8.645   6.556
 3186POPC   C3B43161   6.863   8.599   6.954
 3186POPC   C4B43162   6.687   8.569   7.352
 3187POPC   NC343163   1.158   5.329   5.336
 3187POPC   PO443164   1.220   4.646   5.328
 3187POPC   GL143165   1.244   4.928   5.740
 3187POPC   GL243166   1.060   5.281   5.817
 3187POPC   C1A43167   1.175   5.018   6.212
 3187POPC   D2A43168   1.373   5.111   6.601
 3187POPC   C3A43169   1.192   5.042   6.974
 3187POPC   C4A43170   1.275   5.107   7.411
 3187POPC   C1B43171   0.944   5.504   6.218
 3187POPC   C2B43172   0.918   5.386   6.669
 3187POPC   C3B43173   1.010   5.512   7.095
 3187POPC   C4B43174   0.881   5.444   7.518
 3188POPC   NC343175  14.789  38.871   5.136
 3188POPC   PO443176  14.788  39.479   5.482
 3188POPC   GL143177  15.157  39.266   5.743
 3188POPC   GL243178  15.376  38.942   5.650
 3188POPC   C1A43179  15.305  39.321   6.197
 3188POPC   D2A43180  15.370  39.404   6.654
 3188POPC   C3A43181  15.103  39.211   6.991
 3188POPC   C4A43182  14.711  39.014   7.129
 3188POPC   C1B43183  15.183  38.836   6.079
 3188POPC   C2B43184  15.218  38.923   6.552
 3188POPC   C3B43185  15.331  38.771   7.003
 3188POPC   C4B43186  15.661  38.733   7.291
 3189POPC   NC343187  15.608   6.986   5.259
 3189POPC   PO443188  16.217   6.697   5.423
 3189POPC   GL143189  15.920   6.826   5.739
 3189POPC   GL243190  15.876   6.541   5.900
 3189POPC   C1A43191  15.894   6.948   6.213
 3189POPC   D2A43192  16.055   7.113   6.599
 3189POPC   C3A43193  16.075   6.780   6.854
 3189POPC   C4A43194  15.928   6.524   7.156
 3189POPC   C1B43195  16.061   6.460   6.309
 3189POPC   C2B43196  15.854   6.293   6.694
 3189POPC   C3B43197  15.708   6.076   7.070
 3189POPC   C4B43198  15.809   6.166   7.513
 3190POPC   NC343199  32.164  31.312   5.507
 3190POPC   PO443200  32.648  31.809   5.477
 3190POPC   GL143201  32.369  31.659   5.825
 3190POPC   GL243202  32.066  31.847   5.859
 3190POPC   C1A43203  32.299  31.449   6.225
 3190POPC   D2A43204  32.534  31.505   6.617
 3190POPC   C3A43205  32.478  31.264   6.950
 3190POPC   C4A43206  32.323  31.101   7.307
 3190POPC   C1B43207  31.883  31.805   6.241
 3190POPC   C2B43208  32.054  31.683   6.623
 3190POPC   C3B43209  32.047  31.821   7.026
 3190POPC   C4B43210  31.750  32.048   7.258
 3191POPC   NC343211   6.547  32.494   5.489
 3191POPC   PO443212   6.921  31.976   5.319
 3191POPC   GL143213   6.788  32.073   5.726
 3191POPC   GL243214   6.888  31.737   5.805
 3191POPC   C1A43215   6.669  32.305   6.120
 3191POPC   D2A43216   6.822  32.349   6.533
 3191POPC   C3A43217   6.561  32.285   6.871
 3191POPC   C4A43218   6.650  32.474   7.272
 3191POPC   C1B43219   6.533  31.815   6.086
 3191POPC   C2B43220   6.491  31.935   6.487
 3191POPC   C3B43221   6.476  31.785   6.936
 3191POPC   C4B43222   6.647  31.962   7.311
 3192POPC   NC343223  44.787  41.920   5.496
 3192POPC   PO443224  44.674  42.609   5.425
 3192POPC   GL143225  44.704  42.373   5.798
 3192POPC   GL243226  44.379  42.308   5.946
 3192POPC   C1A43227  44.778  42.332   6.260
 3192POPC   D2A43228  44.447  42.399   6.585
 3192POPC   C3A43229  44.575  42.184   6.937
 3192POPC   C4A43230  44.977  42.015   7.096
 3192POPC   C1B43231  44.551  42.765   6.129
 3192POPC   C2B43232  44.529  42.925   6.593
 3192POPC   C3B43233  44.671  42.708   6.978
 3192POPC   C4B43234  44.742  42.440   7.356
 3193POPC   NC343235  27.262  43.321   5.416
 3193POPC   PO443236  27.633  42.760   5.298
 3193POPC   GL143237  27.614  42.999   5.710
 3193POPC   GL243238  27.313  42.870   5.813
 3193POPC   C1A43239  27.694  43.000   6.204
 3193POPC   D2A43240  27.787  43.242   6.621
 3193POPC   C3A43241  27.823  43.074   7.034
 3193POPC   C4A43242  27.875  43.260   7.434
 3193POPC   C1B43243  27.289  43.257   6.060
 3193POPC   C2B43244  27.332  43.339   6.464
 3193POPC   C3B43245  27.341  43.195   6.875
 3193POPC   C4B43246  27.062  43.275   7.156
 3194POPC   NC343247  34.964  13.131   5.384
 3194POPC   PO443248  34.346  13.000   5.189
 3194POPC   GL143249  34.440  12.972   5.667
 3194POPC   GL243250  34.722  13.142   5.836
 3194POPC   C1A43251  34.455  12.744   6.082
 3194POPC   D2A43252  34.224  12.532   6.438
 3194POPC   C3A43253  34.387  12.662   6.843
 3194POPC   C4A43254  34.545  12.760   7.259
 3194POPC   C1B43255  34.534  13.251   6.222
 3194POPC   C2B43256  34.419  13.145   6.646
 3194POPC   C3B43257  34.592  13.216   7.059
 3194POPC   C4B43258  34.358  13.182   7.474
 3195POPC   NC343259  16.758  20.701   5.386
 3195POPC   PO443260  16.294  21.202   5.596
 3195POPC   GL143261  16.626  20.916   5.851
 3195POPC   GL243262  16.761  20.542   5.851
 3195POPC   C1A43263  16.729  20.790   6.290
 3195POPC   D2A43264  16.496  20.795   6.669
 3195POPC   C3A43265  16.696  20.739   7.071
 3195POPC   C4A43266  16.649  20.779   7.539
 3195POPC   C1B43267  16.493  20.343   6.121
 3195POPC   C2B43268  16.486  20.264   6.558
 3195POPC   C3B43269  16.324  20.392   6.964
 3195POPC   C4B43270  16.587  20.275   7.299
 3196POPC   NC343271  31.588  30.895   5.294
 3196POPC   PO443272  30.939  30.788   5.390
 3196POPC   GL143273  31.238  30.740   5.750
 3196POPC   GL243274  31.584  30.890   5.797
 3196POPC   C1A43275  31.289  30.574   6.177
 3196POPC   D2A43276  31.520  30.414   6.547
 3196POPC   C3A43277  31.499  30.584   6.987
 3196POPC   C4A43278  31.579  30.580   7.479
 3196POPC   C1B43279  31.386  31.084   6.142
 3196POPC   C2B43280  31.465  30.974   6.562
 3196POPC   C3B43281  31.438  31.163   6.959
 3196POPC   C4B43282  31.571  31.054   7.364
 3197POPC   NC343283  31.163  13.946   5.564
 3197POPC   PO443284  31.314  13.540   5.037
 3197POPC   GL143285  31.377  13.471   5.551
 3197POPC   GL243286  31.678  13.302   5.728
 3197POPC   C1A43287  31.290  13.468   6.045
 3197POPC   D2A43288  31.446  13.814   6.350
 3197POPC   C3A43289  31.450  13.786   6.808
 3197POPC   C4A43290  31.474  13.767   7.240
 3197POPC   C1B43291  31.778  13.448   6.175
 3197POPC   C2B43292  31.699  13.405   6.595
 3197POPC   C3B43293  31.828  13.480   7.016
 3197POPC   C4B43294  31.657  13.269   7.398
 3198POPC   NC343295  37.969  33.731   5.394
 3198POPC   PO443296  37.494  34.106   5.432
 3198POPC   GL143297  37.692  33.975   5.817
 3198POPC   GL243298  37.755  33.649   5.865
 3198POPC   C1A43299  37.614  34.027   6.264
 3198POPC   D2A43300  37.554  34.219   6.647
 3198POPC   C3A43301  37.847  34.019   6.924
 3198POPC   C4A43302  37.787  33.701   7.229
 3198POPC   C1B43303  37.655  33.514   6.265
 3198POPC   C2B43304  37.651  33.594   6.684
 3198POPC   C3B43305  37.904  33.317   6.930
 3198POPC   C4B43306  38.021  33.268   7.360
 3199POPC   NC343307  17.317   1.554   5.432
 3199POPC   PO443308  17.175   0.877   5.413
 3199POPC   GL143309  17.260   1.192   5.809
 3199POPC   GL243310  17.594   1.294   5.817
 3199POPC   C1A43311  17.326   1.444   6.236
 3199POPC   D2A43312  17.584   1.491   6.603
 3199POPC   C3A43313  17.358   1.528   6.980
 3199POPC   C4A43314  17.312   1.160   7.175
 3199POPC   C1B43315  17.589   1.013   6.212
 3199POPC   C2B43316  17.585   0.923   6.670
 3199POPC   C3B43317  17.784   1.154   6.971
 3199POPC   C4B43318  17.853   1.579   7.103
 3200POPC   NC343319  22.354   3.814   5.524
 3200POPC   PO443320  22.036   3.249   5.309
 3200POPC   GL143321  22.065   3.325   5.786
 3200POPC   GL243322  22.011   3.685   5.873
 3200POPC   C1A43323  22.212   3.336   6.214
 3200POPC   D2A43324  22.447   3.464   6.551
 3200POPC   C3A43325  22.187   3.622   6.826
 3200POPC   C4A43326  22.168   3.312   7.120
 3200POPC   C1B43327  22.222   3.854   6.279
 3200POPC   C2B43328  22.511   3.980   6.667
 3200POPC   C3B43329  22.338   4.048   7.074
 3200POPC   C4B43330  21.975   3.988   7.397
 3201POPC   NC343331  41.467  33.939   5.327
 3201POPC   PO443332  41.688  33.299   5.497
 3201POPC   GL143333  41.557  33.655   5.731
 3201POPC   GL243334  41.287  33.554   5.811
 3201POPC   C1A43335  41.431  33.976   6.064
 3201POPC   D2A43336  41.591  33.931   6.498
 3201POPC   C3A43337  41.434  33.990   6.907
 3201POPC   C4A43338  41.622  33.900   7.320
 3201POPC   C1B43339  41.360  33.502   6.235
 3201POPC   C2B43340  41.265  33.551   6.635
 3201POPC   C3B43341  41.398  33.488   7.039
 3201POPC   C4B43342  41.299  33.549   7.432
 3202POPC   NC343343  25.642  43.220   5.526
 3202POPC   PO443344  25.188  42.698   5.451
 3202POPC   GL143345  25.193  43.041   5.743
 3202POPC   GL243346  24.910  42.946   5.965
 3202POPC   C1A43347  25.326  43.127   6.179
 3202POPC   D2A43348  25.090  42.958   6.520
 3202POPC   C3A43349  25.230  43.104   6.885
 3202POPC   C4A43350  25.296  43.254   7.256
 3202POPC   C1B43351  24.795  43.279   6.251
 3202POPC   C2B43352  24.881  43.431   6.690
 3202POPC   C3B43353  24.798  43.304   7.132
 3202POPC   C4B43354  24.941  43.419   7.576
 3203POPC   NC343355   5.338  28.822   5.612
 3203POPC   PO443356   4.890  29.142   5.190
 3203POPC   GL143357   4.966  29.228   5.679
 3203POPC   GL243358   5.305  29.278   5.838
 3203POPC   C1A43359   5.005  28.996   6.138
 3203POPC   D2A43360   4.928  28.915   6.542
 3203POPC   C3A43361   5.124  29.084   6.842
 3203POPC   C4A43362   5.030  28.859   7.204
 3203POPC   C1B43363   4.948  29.490   6.109
 3203POPC   C2B43364   5.026  29.467   6.517
 3203POPC   C3B43365   4.875  29.579   6.890
 3203POPC   C4B43366   5.002  29.394   7.235
 3204POPC   NC343367  36.730  40.010   5.477
 3204POPC   PO443368  37.185  39.586   5.442
 3204POPC   GL143369  37.005  39.907   5.888
 3204POPC   GL243370  36.743  40.241   5.905
 3204POPC   C1A43371  36.640  39.917   6.260
 3204POPC   D2A43372  36.653  39.826   6.692
 3204POPC   C3A43373  37.005  39.920   6.899
 3204POPC   C4A43374  37.035  39.739   7.263
 3204POPC   C1B43375  37.017  40.247   6.269
 3204POPC   C2B43376  36.764  40.325   6.623
 3204POPC   C3B43377  36.868  40.415   7.003
 3204POPC   C4B43378  36.722  40.146   7.295
 3205POPC   NC343379   4.910  13.829   5.128
 3205POPC   PO443380   5.419  13.437   5.392
 3205POPC   GL143381   5.193  13.386   5.796
 3205POPC   GL243382   5.501  13.461   5.921
 3205POPC   C1A43383   5.043  13.478   6.246
 3205POPC   D2A43384   4.982  13.255   6.681
 3205POPC   C3A43385   4.988  13.449   7.115
 3205POPC   C4A43386   5.249  13.349   7.460
 3205POPC   C1B43387   5.513  13.742   6.232
 3205POPC   C2B43388   5.240  13.840   6.552
 3205POPC   C3B43389   5.372  13.686   6.906
 3205POPC   C4B43390   5.624  13.646   7.267
 3206POPC   NC343391   9.544  18.705   5.050
 3206POPC   PO443392   9.833  18.291   5.465
 3206POPC   GL143393   9.883  18.305   5.871
 3206POPC   GL243394   9.581  18.108   5.895
 3206POPC   C1A43395   9.772  18.552   6.225
 3206POPC   D2A43396   9.499  18.666   6.554
 3206POPC   C3A43397   9.732  18.533   6.916
 3206POPC   C4A43398   9.951  18.662   7.251
 3206POPC   C1B43399   9.439  17.899   6.260
 3206POPC   C2B43400   9.514  18.133   6.631
 3206POPC   C3B43401   9.559  18.079   7.070
 3206POPC   C4B43402   9.859  18.189   7.356
 3207POPC   NC343403  28.946  11.565   5.196
 3207POPC   PO443404  29.559  11.629   5.519
 3207POPC   GL143405  29.325  11.329   5.780
 3207POPC   GL243406  29.005  11.138   5.709
 3207POPC   C1A43407  29.295  11.391   6.237
 3207POPC   D2A43408  29.390  11.683   6.551
 3207POPC   C3A43409  29.560  11.513   6.911
 3207POPC   C4A43410  29.287  11.258   7.153
 3207POPC   C1B43411  29.117  10.942   6.137
 3207POPC   C2B43412  29.057  11.082   6.591
 3207POPC   C3B43413  28.836  11.303   6.917
 3207POPC   C4B43414  28.635  11.327   7.287
 3208POPC   NC343415   6.348  30.920   5.434
 3208POPC   PO443416   6.727  30.361   5.306
 3208POPC   GL143417   6.594  30.499   5.694
 3208POPC   GL243418   6.589  30.811   5.849
 3208POPC   C1A43419   6.695  30.436   6.154
 3208POPC   D2A43420   6.994  30.572   6.484
 3208POPC   C3A43421   6.839  30.501   6.914
 3208POPC   C4A43422   6.888  30.643   7.330
 3208POPC   C1B43423   6.698  30.982   6.236
 3208POPC   C2B43424   6.623  30.935   6.677
 3208POPC   C3B43425   6.562  30.958   7.104
 3208POPC   C4B43426   6.511  30.964   7.544
 3209POPC   NC343427  33.639  37.252   5.621
 3209POPC   PO443428  33.480  36.625   5.323
 3209POPC   GL143429  33.769  36.620   5.729
 3209POPC   GL243430  33.963  36.943   5.832
 3209POPC   C1A43431  33.745  36.699   6.205
 3209POPC   D2A43432  33.469  36.829   6.554
 3209POPC   C3A43433  33.621  36.729   6.963
 3209POPC   C4A43434  33.803  36.821   7.361
 3209POPC   C1B43435  33.804  37.202   6.248
 3209POPC   C2B43436  33.911  37.103   6.701
 3209POPC   C3B43437  33.782  37.261   7.115
 3209POPC   C4B43438  33.932  37.258   7.578
 3210POPC   NC343439   9.239  22.701   5.436
 3210POPC   PO443440   8.591  23.144   5.466
 3210POPC   GL143441   8.867  22.916   5.700
 3210POPC   GL243442   9.096  23.174   5.616
 3210POPC   C1A43443   9.060  22.775   6.086
 3210POPC   D2A43444   8.892  22.717   6.521
 3210POPC   C3A43445   9.117  22.653   6.923
 3210POPC   C4A43446   8.938  22.748   7.294
 3210POPC   C1B43447   8.906  23.294   6.031
 3210POPC   C2B43448   8.819  23.294   6.459
 3210POPC   C3B43449   9.004  23.136   6.831
 3210POPC   C4B43450   9.037  23.257   7.235
 3211POPC   NC343451  26.614  41.110   5.463
 3211POPC   PO443452  27.075  40.599   5.330
 3211POPC   GL143453  26.803  40.704   5.716
 3211POPC   GL243454  26.899  40.979   5.902
 3211POPC   C1A43455  26.664  40.618   6.162
 3211POPC   D2A43456  26.950  40.681   6.501
 3211POPC   C3A43457  26.869  40.664   6.948
 3211POPC   C4A43458  26.562  40.571   7.253
 3211POPC   C1B43459  26.697  41.147   6.282
 3211POPC   C2B43460  26.694  41.342   6.692
 3211POPC   C3B43461  26.701  41.130   7.100
 3211POPC   C4B43462  27.021  41.056   7.399
 3212POPC   NC343463  13.422  23.131   5.389
 3212POPC   PO443464  12.868  22.699   5.468
 3212POPC   GL143465  12.873  22.954   5.785
 3212POPC   GL243466  13.239  22.902   5.808
 3212POPC   C1A43467  12.613  22.950   6.176
 3212POPC   D2A43468  12.771  22.837   6.588
 3212POPC   C3A43469  12.696  23.158   6.904
 3212POPC   C4A43470  12.598  23.145   7.339
 3212POPC   C1B43471  13.121  22.785   6.208
 3212POPC   C2B43472  13.311  22.746   6.596
 3212POPC   C3B43473  13.135  22.904   6.944
 3212POPC   C4B43474  13.310  22.939   7.292
 3213POPC   NC343475  13.787  17.384   5.490
 3213POPC   PO443476  13.142  17.332   5.681
 3213POPC   GL143477  13.491  17.485   5.918
 3213POPC   GL243478  13.695  17.740   5.839
 3213POPC   C1A43479  13.876  17.412   6.192
 3213POPC   D2A43480  13.793  17.300   6.641
 3213POPC   C3A43481  13.999  17.445   7.026
 3213POPC   C4A43482  13.888  17.369   7.446
 3213POPC   C1B43483  13.563  17.765   6.333
 3213POPC   C2B43484  13.444  17.669   6.750
 3213POPC   C3B43485  13.533  17.583   7.167
 3213POPC   C4B43486  13.639  17.787   7.572
 3214POPC   NC343487  43.740  14.579   5.344
 3214POPC   PO443488  44.075  14.035   5.415
 3214POPC   GL143489  44.130  14.223   5.819
 3214POPC   GL243490  44.171  14.568   5.821
 3214POPC   C1A43491  44.108  14.334   6.266
 3214POPC   D2A43492  43.985  14.457   6.670
 3214POPC   C3A43493  44.000  14.144   6.977
 3214POPC   C4A43494  43.746  14.275   7.286
 3214POPC   C1B43495  43.806  14.737   6.085
 3214POPC   C2B43496  43.753  14.915   6.517
 3214POPC   C3B43497  43.815  14.846   6.971
 3214POPC   C4B43498  44.159  14.592   7.178
 3215POPC   NC343499  30.724  16.320   5.514
 3215POPC   PO443500  30.621  16.908   5.218
 3215POPC   GL143501  30.619  16.849   5.719
 3215POPC   GL243502  30.907  16.763   5.908
 3215POPC   C1A43503  30.490  16.953   6.183
 3215POPC   D2A43504  30.495  17.205   6.579
 3215POPC   C3A43505  30.393  17.041   7.039
 3215POPC   C4A43506  30.377  16.609   7.231
 3215POPC   C1B43507  30.894  16.641   6.351
 3215POPC   C2B43508  30.751  16.781   6.746
 3215POPC   C3B43509  30.878  16.870   7.142
 3215POPC   C4B43510  31.025  16.629   7.454
 3216POPC   NC343511  21.777  28.502   5.406
 3216POPC   PO443512  22.297  28.105   5.309
 3216POPC   GL143513  22.132  28.294   5.715
 3216POPC   GL243514  22.314  28.137   5.953
 3216POPC   C1A43515  21.925  28.442   6.135
 3216POPC   D2A43516  22.009  28.564   6.591
 3216POPC   C3A43517  21.816  28.511   7.010
 3216POPC   C4A43518  21.802  28.571   7.472
 3216POPC   C1B43519  22.287  28.169   6.394
 3216POPC   C2B43520  22.405  28.287   6.804
 3216POPC   C3B43521  22.183  28.161   7.200
 3216POPC   C4B43522  22.041  28.101   7.650
 3217POPC   NC343523  23.427  41.370   5.596
 3217POPC   PO443524  23.933  41.738   5.393
 3217POPC   GL143525  23.811  41.766   5.846
 3217POPC   GL243526  23.458  41.771   5.933
 3217POPC   C1A43527  23.923  41.603   6.288
 3217POPC   D2A43528  23.904  41.411   6.723
 3217POPC   C3A43529  24.051  41.695   7.053
 3217POPC   C4A43530  23.922  41.646   7.507
 3217POPC   C1B43531  23.472  41.973   6.343
 3217POPC   C2B43532  23.735  41.905   6.708
 3217POPC   C3B43533  23.567  41.662   7.100
 3217POPC   C4B43534  23.445  41.798   7.573
 3218POPC   NC343535  32.888  23.510   4.976
 3218POPC   PO443536  33.287  23.704   5.428
 3218POPC   GL143537  33.177  23.824   5.869
 3218POPC   GL243538  32.881  23.642   6.013
 3218POPC   C1A43539  33.094  23.967   6.323
 3218POPC   D2A43540  33.005  23.753   6.708
 3218POPC   C3A43541  32.893  23.980   7.085
 3218POPC   C4A43542  33.108  23.903   7.510
 3218POPC   C1B43543  32.884  23.359   6.360
 3218POPC   C2B43544  32.819  23.281   6.800
 3218POPC   C3B43545  32.856  23.488   7.181
 3218POPC   C4B43546  32.695  23.552   7.616
 3219POPC   NC343547  14.629   6.866   5.421
 3219POPC   PO443548  13.980   6.763   5.147
 3219POPC   GL143549  14.220   6.568   5.523
 3219POPC   GL243550  14.140   6.847   5.644
 3219POPC   C1A43551  14.417   6.637   6.001
 3219POPC   D2A43552  14.652   6.755   6.378
 3219POPC   C3A43553  14.469   6.811   6.765
 3219POPC   C4A43554  14.398   6.556   7.102
 3219POPC   C1B43555  13.965   6.852   6.012
 3219POPC   C2B43556  14.095   6.903   6.420
 3219POPC   C3B43557  13.981   6.842   6.858
 3219POPC   C4B43558  14.115   6.966   7.246
 3220POPC   NC343559  12.317   9.462   5.321
 3220POPC   PO443560  11.766   9.887   5.342
 3220POPC   GL143561  12.064   9.785   5.650
 3220POPC   GL243562  12.065   9.440   5.770
 3220POPC   C1A43563  12.295   9.822   6.040
 3220POPC   D2A43564  12.164   9.742   6.467
 3220POPC   C3A43565  12.292   9.947   6.840
 3220POPC   C4A43566  12.009   9.988   7.241
 3220POPC   C1B43567  12.225   9.296   6.169
 3220POPC   C2B43568  12.113   9.256   6.609
 3220POPC   C3B43569  12.042   9.516   6.967
 3220POPC   C4B43570  12.372   9.651   7.247
 3221POPC   NC343571   9.537  30.548   5.320
 3221POPC   PO443572  10.032  30.949   5.417
 3221POPC   GL143573   9.882  30.732   5.758
 3221POPC   GL243574   9.731  30.417   5.769
 3221POPC   C1A43575   9.920  30.846   6.162
 3221POPC   D2A43576   9.732  30.844   6.544
 3221POPC   C3A43577   9.877  30.779   6.972
 3221POPC   C4A43578   9.928  30.874   7.433
 3221POPC   C1B43579   9.545  30.526   6.150
 3221POPC   C2B43580   9.416  30.423   6.536
 3221POPC   C3B43581   9.489  30.279   6.931
 3221POPC   C4B43582   9.710  30.412   7.297
 3222POPC   NC343583   3.068  41.758   5.446
 3222POPC   PO443584   2.603  41.304   5.343
 3222POPC   GL143585   2.718  41.441   5.766
 3222POPC   GL243586   3.062  41.288   5.737
 3222POPC   C1A43587   2.523  41.546   6.186
 3222POPC   D2A43588   2.373  41.422   6.620
 3222POPC   C3A43589   2.462  41.743   6.971
 3222POPC   C4A43590   2.573  41.902   7.402
 3222POPC   C1B43591   3.023  41.320   6.181
 3222POPC   C2B43592   2.900  41.536   6.539
 3222POPC   C3B43593   2.818  41.385   6.921
 3222POPC   C4B43594   2.928  41.520   7.317
 3223POPC   NC343595  41.218  33.152   5.503
 3223POPC   PO443596  40.511  33.202   5.366
 3223POPC   GL143597  40.751  33.060   5.732
 3223POPC   GL243598  40.801  32.711   5.708
 3223POPC   C1A43599  40.917  33.209   6.121
 3223POPC   D2A43600  40.826  33.025   6.529
 3223POPC   C3A43601  40.594  32.883   6.852
 3223POPC   C4A43602  40.632  33.047   7.231
 3223POPC   C1B43603  40.931  32.692   6.162
 3223POPC   C2B43604  41.080  32.590   6.610
 3223POPC   C3B43605  41.027  32.697   7.047
 3223POPC   C4B43606  41.156  33.063   7.235
 3224POPC   NC343607  39.794  23.631   5.317
 3224POPC   PO443608  40.315  23.978   5.422
 3224POPC   GL143609  40.068  23.816   5.761
 3224POPC   GL243610  39.740  24.000   5.724
 3224POPC   C1A43611  40.110  23.583   6.174
 3224POPC   D2A43612  40.142  23.371   6.576
 3224POPC   C3A43613  40.052  23.527   6.951
 3224POPC   C4A43614  40.369  23.776   7.154
 3224POPC   C1B43615  39.849  24.016   6.198
 3224POPC   C2B43616  39.878  23.863   6.630
 3224POPC   C3B43617  39.862  23.978   7.093
 3224POPC   C4B43618  39.666  23.934   7.487
 3225POPC   NC343619   3.328  20.843   5.268
 3225POPC   PO443620   3.649  20.299   5.424
 3225POPC   GL143621   3.687  20.458   5.846
 3225POPC   GL243622   3.538  20.753   5.807
 3225POPC   C1A43623   3.581  20.557   6.282
 3225POPC   D2A43624   3.299  20.466   6.610
 3225POPC   C3A43625   3.520  20.406   6.977
 3225POPC   C4A43626   3.480  20.657   7.363
 3225POPC   C1B43627   3.744  21.007   6.125
 3225POPC   C2B43628   3.897  20.927   6.526
 3225POPC   C3B43629   3.760  20.860   6.934
 3225POPC   C4B43630   3.811  21.043   7.321
 3226POPC   NC343631  17.674  20.434   5.686
 3226POPC   PO443632  17.416  19.930   5.300
 3226POPC   GL143633  17.706  19.859   5.669
 3226POPC   GL243634  17.457  19.996   5.846
 3226POPC   C1A43635  17.865  19.853   6.102
 3226POPC   D2A43636  17.659  19.666   6.450
 3226POPC   C3A43637  17.756  19.830   6.834
 3226POPC   C4A43638  17.729  19.655   7.185
 3226POPC   C1B43639  17.241  19.758   6.159
 3226POPC   C2B43640  17.222  19.868   6.592
 3226POPC   C3B43641  17.260  19.727   6.994
 3226POPC   C4B43642  17.392  20.060   7.228
 3227POPC   NC343643  25.815  23.355   5.427
 3227POPC   PO443644  26.278  22.848   5.357
 3227POPC   GL143645  26.144  22.984   5.735
 3227POPC   GL243646  25.919  22.711   5.785
 3227POPC   C1A43647  26.220  22.952   6.180
 3227POPC   D2A43648  26.113  23.137   6.591
 3227POPC   C3A43649  26.212  22.943   6.940
 3227POPC   C4A43650  26.174  23.132   7.341
 3227POPC   C1B43651  25.723  22.707   6.160
 3227POPC   C2B43652  25.914  22.671   6.541
 3227POPC   C3B43653  25.793  22.633   6.944
 3227POPC   C4B43654  26.051  22.591   7.271
 3228POPC   NC343655  41.082  28.101   5.442
 3228POPC   PO443656  40.434  28.385   5.372
 3228POPC   GL143657  40.590  28.526   5.750
 3228POPC   GL243658  40.740  28.206   5.838
 3228POPC   C1A43659  40.650  28.569   6.207
 3228POPC   D2A43660  40.908  28.477   6.565
 3228POPC   C3A43661  40.785  28.383   6.980
 3228POPC   C4A43662  40.958  28.273   7.348
 3228POPC   C1B43663  40.894  28.075   6.236
 3228POPC   C2B43664  40.705  28.005   6.638
 3228POPC   C3B43665  40.600  27.889   7.054
 3228POPC   C4B43666  40.531  28.055   7.463
 3229POPC   NC343667  38.810  12.054   5.573
 3229POPC   PO443668  38.137  12.290   5.480
 3229POPC   GL143669  38.332  12.186   5.861
 3229POPC   GL243670  38.317  11.818   5.811
 3229POPC   C1A43671  38.473  12.338   6.293
 3229POPC   D2A43672  38.515  12.120   6.687
 3229POPC   C3A43673  38.298  12.263   7.032
 3229POPC   C4A43674  38.508  12.341   7.414
 3229POPC   C1B43675  38.411  11.826   6.248
 3229POPC   C2B43676  38.109  11.817   6.596
 3229POPC   C3B43677  38.215  11.732   7.002
 3229POPC   C4B43678  38.635  11.856   7.126
 3230POPC   NC343679  31.105   7.339   5.517
 3230POPC   PO443680  31.787   7.359   5.510
 3230POPC   GL143681  31.510   7.226   5.802
 3230POPC   GL243682  31.412   7.559   5.857
 3230POPC   C1A43683  31.514   7.174   6.234
 3230POPC   D2A43684  31.546   6.943   6.604
 3230POPC   C3A43685  31.395   7.203   6.950
 3230POPC   C4A43686  31.081   7.093   7.285
 3230POPC   C1B43687  31.606   7.751   6.189
 3230POPC   C2B43688  31.455   7.592   6.565
 3230POPC   C3B43689  31.102   7.570   6.794
 3230POPC   C4B43690  31.139   7.611   7.208
 3231POPC   NC343691   6.221   2.165   5.298
 3231POPC   PO443692   5.628   1.902   5.514
 3231POPC   GL143693   5.818   2.064   5.855
 3231POPC   GL243694   6.163   2.012   5.813
 3231POPC   C1A43695   5.710   1.986   6.281
 3231POPC   D2A43696   5.714   1.693   6.622
 3231POPC   C3A43697   5.716   1.855   7.035
 3231POPC   C4A43698   6.012   2.193   7.188
 3231POPC   C1B43699   6.130   1.688   6.141
 3231POPC   C2B43700   6.225   1.611   6.530
 3231POPC   C3B43701   6.204   1.873   6.837
 3231POPC   C4B43702   6.491   1.923   7.144
 3232POPC   NC343703  30.171  10.105   5.392
 3232POPC   PO443704  29.730  10.653   5.407
 3232POPC   GL143705  29.877  10.591   5.839
 3232POPC   GL243706  30.187  10.364   5.834
 3232POPC   C1A43707  29.951  10.676   6.307
 3232POPC   D2A43708  29.814  10.499   6.720
 3232POPC   C3A43709  29.940  10.679   7.124
 3232POPC   C4A43710  29.747  10.772   7.522
 3232POPC   C1B43711  30.211  10.228   6.261
 3232POPC   C2B43712  30.315  10.387   6.680
 3232POPC   C3B43713  30.221  10.259   7.086
 3232POPC   C4B43714  30.069   9.888   7.186
 3233POPC   NC343715   2.548  12.988   5.664
 3233POPC   PO443716   1.833  13.004   5.571
 3233POPC   GL143717   1.828  12.815   5.934
 3233POPC   GL243718   2.192  12.730   5.917
 3233POPC   C1A43719   1.801  12.967   6.372
 3233POPC   D2A43720   2.072  12.887   6.745
 3233POPC   C3A43721   1.842  13.025   7.127
 3233POPC   C4A43722   1.850  13.181   7.552
 3233POPC   C1B43723   2.062  12.545   6.310
 3233POPC   C2B43724   1.922  12.376   6.691
 3233POPC   C3B43725   2.017  12.538   7.118
 3233POPC   C4B43726   2.298  12.906   7.323
 3234POPC   NC343727   4.037  22.670   5.446
 3234POPC   PO443728   4.541  23.066   5.397
 3234POPC   GL143729   4.243  23.094   5.733
 3234POPC   GL243730   4.262  23.455   5.781
 3234POPC   C1A43731   4.245  22.836   6.126
 3234POPC   D2A43732   4.528  22.774   6.499
 3234POPC   C3A43733   4.420  22.990   6.896
 3234POPC   C4A43734   4.012  23.043   7.098
 3234POPC   C1B43735   4.107  23.340   6.187
 3234POPC   C2B43736   4.078  23.308   6.643
 3234POPC   C3B43737   4.270  23.503   7.014
 3234POPC   C4B43738   4.574  23.463   7.367
 3235POPC   NC343739  44.722  38.449   5.369
 3235POPC   PO443740  44.066  38.550   5.610
 3235POPC   GL143741  44.419  38.474   5.882
 3235POPC   GL243742  44.760  38.648   5.840
 3235POPC   C1A43743  44.572  38.513   6.308
 3235POPC   D2A43744  44.588  38.680   6.713
 3235POPC   C3A43745  44.683  38.296   6.954
 3235POPC   C4A43746  44.516  38.170   7.329
 3235POPC   C1B43747  44.988  38.831   6.187
 3235POPC   C2B43748   0.131  38.735   6.617
 3235POPC   C3B43749  44.992  38.702   7.024
 3235POPC   C4B43750  44.932  38.844   7.398
 3236POPC   NC343751  22.711  17.935   5.184
 3236POPC   PO443752  22.693  18.527   5.245
 3236POPC   GL143753  22.929  18.240   5.592
 3236POPC   GL243754  22.761  17.935   5.712
 3236POPC   C1A43755  23.099  18.172   6.062
 3236POPC   D2A43756  23.168  18.489   6.434
 3236POPC   C3A43757  23.079  18.390   6.884
 3236POPC   C4A43758  22.879  18.551   7.285
 3236POPC   C1B43759  22.634  17.910   6.136
 3236POPC   C2B43760  22.774  17.879   6.557
 3236POPC   C3B43761  22.697  18.029   6.974
 3236POPC   C4B43762  22.954  18.076   7.305
 3237POPC   NC343763   1.371  30.957   5.348
 3237POPC   PO443764   0.798  30.732   5.418
 3237POPC   GL143765   1.025  30.712   5.811
 3237POPC   GL243766   1.147  30.368   5.793
 3237POPC   C1A43767   1.279  30.766   6.217
 3237POPC   D2A43768   1.349  31.015   6.599
 3237POPC   C3A43769   1.239  30.893   6.972
 3237POPC   C4A43770   0.934  30.659   7.127
 3237POPC   C1B43771   0.976  30.361   6.217
 3237POPC   C2B43772   1.106  30.495   6.645
 3237POPC   C3B43773   1.363  30.381   7.006
 3237POPC   C4B43774   1.223  30.327   7.395
 3238POPC   NC343775   9.490  17.032   5.533
 3238POPC   PO443776  10.051  16.685   5.396
 3238POPC   GL143777   9.762  16.643   5.746
 3238POPC   GL243778   9.840  16.949   5.899
 3238POPC   C1A43779   9.539  16.470   6.106
 3238POPC   D2A43780   9.467  16.544   6.550
 3238POPC   C3A43781   9.706  16.379   6.882
 3238POPC   C4A43782   9.538  16.613   7.181
 3238POPC   C1B43783   9.712  16.938   6.312
 3238POPC   C2B43784   9.936  16.819   6.666
 3238POPC   C3B43785   9.927  16.917   7.096
 3238POPC   C4B43786   9.582  17.070   7.401
 3239POPC   NC343787   4.928  27.928   5.430
 3239POPC   PO443788   5.278  27.396   5.288
 3239POPC   GL143789   5.086  27.499   5.673
 3239POPC   GL243790   5.357  27.725   5.786
 3239POPC   C1A43791   5.062  27.466   6.118
 3239POPC   D2A43792   5.110  27.238   6.493
 3239POPC   C3A43793   5.159  27.485   6.856
 3239POPC   C4A43794   5.287  27.392   7.269
 3239POPC   C1B43795   5.371  27.936   6.217
 3239POPC   C2B43796   5.532  27.825   6.630
 3239POPC   C3B43797   5.394  27.911   7.065
 3239POPC   C4B43798   5.381  27.824   7.490
 3240POPC   NC343799  29.006  16.577   5.570
 3240POPC   PO443800  29.523  16.770   5.225
 3240POPC   GL143801  29.275  16.967   5.711
 3240POPC   GL243802  29.236  16.662   6.011
 3240POPC   C1A43803  28.930  17.011   6.115
 3240POPC   D2A43804  29.063  16.800   6.524
 3240POPC   C3A43805  28.878  16.907   6.898
 3240POPC   C4A43806  29.025  16.955   7.294
 3240POPC   C1B43807  28.843  16.493   6.195
 3240POPC   C2B43808  28.884  16.303   6.585
 3240POPC   C3B43809  29.034  16.429   6.975
 3240POPC   C4B43810  28.896  16.470   7.406
 3241POPC   NC343811   8.121   9.375   5.470
 3241POPC   PO443812   8.128   8.728   5.481
 3241POPC   GL143813   8.127   9.000   5.839
 3241POPC   GL243814   8.455   9.116   5.904
 3241POPC   C1A43815   8.025   8.926   6.272
 3241POPC   D2A43816   8.073   8.619   6.624
 3241POPC   C3A43817   8.041   8.782   7.063
 3241POPC   C4A43818   8.162   8.743   7.525
 3241POPC   C1B43819   8.503   8.755   6.237
 3241POPC   C2B43820   8.584   8.713   6.697
 3241POPC   C3B43821   8.551   8.769   7.159
 3241POPC   C4B43822   8.357   9.149   7.279
 3242POPC   NC343823  11.162  12.121   5.361
 3242POPC   PO443824  11.823  12.380   5.542
 3242POPC   GL143825  11.395  12.283   5.786
 3242POPC   GL243826  11.214  11.913   5.817
 3242POPC   C1A43827  11.178  12.262   6.200
 3242POPC   D2A43828  11.214  12.353   6.646
 3242POPC   C3A43829  11.434  12.124   6.979
 3242POPC   C4A43830  11.329  12.212   7.429
 3242POPC   C1B43831  10.949  11.791   6.181
 3242POPC   C2B43832  11.085  11.783   6.605
 3242POPC   C3B43833  10.951  11.961   6.997
 3242POPC   C4B43834  10.845  11.791   7.391
 3243POPC   NC343835   8.578  12.632   5.383
 3243POPC   PO443836   8.189  13.169   5.542
 3243POPC   GL143837   8.226  13.032   5.949
 3243POPC   GL243838   8.426  12.727   5.884
 3243POPC   C1A43839   8.006  13.068   6.348
 3243POPC   D2A43840   7.904  13.043   6.777
 3243POPC   C3A43841   8.211  13.124   7.094
 3243POPC   C4A43842   8.121  13.157   7.542
 3243POPC   C1B43843   8.133  12.588   6.223
 3243POPC   C2B43844   8.195  12.627   6.666
 3243POPC   C3B43845   8.351  12.437   7.042
 3243POPC   C4B43846   8.278  12.702   7.406
 3244POPC   NC343847   5.560  19.257   5.563
 3244POPC   PO443848   5.726  18.692   5.188
 3244POPC   GL143849   6.056  18.784   5.643
 3244POPC   GL243850   6.006  19.133   5.831
 3244POPC   C1A43851   6.001  18.715   6.159
 3244POPC   D2A43852   5.742  18.904   6.526
 3244POPC   C3A43853   5.881  18.855   6.968
 3244POPC   C4A43854   5.861  18.813   7.421
 3244POPC   C1B43855   5.949  19.302   6.275
 3244POPC   C2B43856   5.913  19.333   6.762
 3244POPC   C3B43857   5.677  19.276   7.196
 3244POPC   C4B43858   5.570  19.131   7.679
 3245POPC   NC343859  41.068  40.191   5.434
 3245POPC   PO443860  40.609  39.701   5.354
 3245POPC   GL143861  40.538  39.904   5.737
 3245POPC   GL243862  40.903  39.838   5.812
 3245POPC   C1A43863  40.605  40.035   6.185
 3245POPC   D2A43864  40.808  40.105   6.598
 3245POPC   C3A43865  40.576  40.073   6.964
 3245POPC   C4A43866  40.698  40.116   7.372
 3245POPC   C1B43867  41.130  39.943   6.215
 3245POPC   C2B43868  41.269  39.881   6.655
 3245POPC   C3B43869  41.106  39.972   7.059
 3245POPC   C4B43870  40.997  39.731   7.436
 3246POPC   NC343871  23.671   4.394   4.888
 3246POPC   PO443872  23.765   4.063   5.475
 3246POPC   GL143873  23.812   4.207   5.872
 3246POPC   GL243874  23.457   4.288   5.873
 3246POPC   C1A43875  24.020   4.187   6.287
 3246POPC   D2A43876  23.937   4.393   6.670
 3246POPC   C3A43877  23.981   4.207   7.079
 3246POPC   C4A43878  23.860   4.418   7.501
 3246POPC   C1B43879  23.331   4.477   6.238
 3246POPC   C2B43880  23.428   4.318   6.614
 3246POPC   C3B43881  23.526   4.443   7.007
 3246POPC   C4B43882  23.328   4.350   7.372
 3247POPC   NC343883  26.557  13.111   5.449
 3247POPC   PO443884  26.943  12.559   5.391
 3247POPC   GL143885  26.828  12.768   5.761
 3247POPC   GL243886  27.136  12.943   5.713
 3247POPC   C1A43887  26.731  12.784   6.231
 3247POPC   D2A43888  26.513  12.641   6.635
 3247POPC   C3A43889  26.711  12.656   7.057
 3247POPC   C4A43890  26.765  13.054   7.287
 3247POPC   C1B43891  27.267  12.747   6.092
 3247POPC   C2B43892  27.279  12.901   6.504
 3247POPC   C3B43893  27.061  13.000   6.868
 3247POPC   C4B43894  27.187  12.769   7.227
 3248POPC   NC343895  32.741  30.731   5.484
 3248POPC   PO443896  33.343  30.573   5.757
 3248POPC   GL143897  32.983  30.690   5.923
 3248POPC   GL243898  32.692  30.437   5.897
 3248POPC   C1A43899  32.807  30.894   6.240
 3248POPC   D2A43900  32.818  30.728   6.666
 3248POPC   C3A43901  32.900  30.970   7.054
 3248POPC   C4A43902  33.105  30.918   7.471
 3248POPC   C1B43903  32.836  30.357   6.311
 3248POPC   C2B43904  33.240  30.387   6.526
 3248POPC   C3B43905  33.417  30.382   6.924
 3248POPC   C4B43906  33.077  30.498   7.183
 3249POPC   NC343907  26.437  26.437   5.447
 3249POPC   PO443908  26.117  25.921   5.138
 3249POPC   GL143909  26.015  26.081   5.575
 3249POPC   GL243910  26.034  25.749   5.743
 3249POPC   C1A43911  26.029  26.359   5.997
 3249POPC   D2A43912  26.076  26.556   6.442
 3249POPC   C3A43913  26.209  26.417   6.905
 3249POPC   C4A43914  26.051  26.285   7.337
 3249POPC   C1B43915  26.106  25.876   6.157
 3249POPC   C2B43916  26.139  26.053   6.544
 3249POPC   C3B43917  25.975  25.958   6.937
 3249POPC   C4B43918  26.241  25.817   7.257
 3250POPC   NC343919  13.507  18.413   5.356
 3250POPC   PO443920  13.294  18.054   5.832
 3250POPC   GL143921  13.673  18.197   6.035
 3250POPC   GL243922  13.751  18.475   5.820
 3250POPC   C1A43923  13.742  18.214   6.484
 3250POPC   D2A43924  13.338  18.228   6.690
 3250POPC   C3A43925  13.373  18.067   7.082
 3250POPC   C4A43926  13.841  17.990   7.076
 3250POPC   C1B43927  13.703  18.660   6.223
 3250POPC   C2B43928  13.940  18.683   6.601
 3250POPC   C3B43929  13.772  18.541   6.985
 3250POPC   C4B43930  13.354  18.589   7.066
 3251POPC   NC343931  35.583  28.903   5.394
 3251POPC   PO443932  35.016  29.308   5.465
 3251POPC   GL143933  35.268  29.117   5.767
 3251POPC   GL243934  35.583  29.294   5.753
 3251POPC   C1A43935  35.329  28.929   6.179
 3251POPC   D2A43936  35.579  28.820   6.547
 3251POPC   C3A43937  35.390  28.850   6.960
 3251POPC   C4A43938  35.357  29.078   7.346
 3251POPC   C1B43939  35.484  29.418   6.165
 3251POPC   C2B43940  35.662  29.309   6.526
 3251POPC   C3B43941  35.564  29.350   6.935
 3251POPC   C4B43942  35.872  29.500   7.205
 3252POPC   NC343943   5.720  41.715   5.113
 3252POPC   PO443944   5.773  41.294   5.610
 3252POPC   GL143945   5.870  41.504   5.915
 3252POPC   GL243946   6.117  41.695   5.764
 3252POPC   C1A43947   5.803  41.524   6.331
 3252POPC   D2A43948   5.815  41.398   6.748
 3252POPC   C3A43949   5.650  41.700   7.009
 3252POPC   C4A43950   5.715  41.699   7.437
 3252POPC   C1B43951   6.277  41.610   6.191
 3252POPC   C2B43952   6.153  41.757   6.620
 3252POPC   C3B43953   6.154  41.643   7.092
 3252POPC   C4B43954   6.258  41.196   7.202
 3253POPC   NC343955   9.971  28.030   5.504
 3253POPC   PO443956   9.524  28.483   5.526
 3253POPC   GL143957   9.544  28.423   5.958
 3253POPC   GL243958   9.525  28.054   5.885
 3253POPC   C1A43959   9.798  28.565   6.371
 3253POPC   D2A43960  10.089  28.544   6.757
 3253POPC   C3A43961   9.838  28.433   7.125
 3253POPC   C4A43962   9.442  28.349   7.361
 3253POPC   C1B43963   9.904  28.118   6.158
 3253POPC   C2B43964   9.909  28.071   6.611
 3253POPC   C3B43965  10.094  28.006   7.018
 3253POPC   C4B43966  10.304  27.655   7.191
 3254POPC   NC343967   7.121  40.020   5.529
 3254POPC   PO443968   7.787  40.016   5.475
 3254POPC   GL143969   7.626  40.028   5.876
 3254POPC   GL243970   7.846  40.288   5.946
 3254POPC   C1A43971   7.300  39.991   6.203
 3254POPC   D2A43972   7.163  39.877   6.611
 3254POPC   C3A43973   7.385  39.893   7.003
 3254POPC   C4A43974   7.293  39.773   7.418
 3254POPC   C1B43975   7.595  40.387   6.302
 3254POPC   C2B43976   7.463  40.307   6.713
 3254POPC   C3B43977   7.445  40.400   7.140
 3254POPC   C4B43978   7.629  40.176   7.483
 3255POPC   NC343979  24.265  19.077   5.346
 3255POPC   PO443980  23.594  18.891   5.480
 3255POPC   GL143981  23.602  18.855   5.904
 3255POPC   GL243982  23.837  19.074   5.930
 3255POPC   C1A43983  23.613  18.970   6.357
 3255POPC   D2A43984  23.824  19.120   6.726
 3255POPC   C3A43985  23.539  19.058   7.038
 3255POPC   C4A43986  23.347  18.701   7.211
 3255POPC   C1B43987  24.041  19.240   6.277
 3255POPC   C2B43988  24.253  19.575   6.470
 3255POPC   C3B43989  24.137  19.605   6.893
 3255POPC   C4B43990  24.040  19.269   7.173
 3256POPC   NC343991  21.157  28.172   5.583
 3256POPC   PO443992  21.784  28.033   5.402
 3256POPC   GL143993  21.632  28.163   5.802
 3256POPC   GL243994  21.503  28.517   5.839
 3256POPC   C1A43995  21.441  28.196   6.216
 3256POPC   D2A43996  21.576  28.301   6.600
 3256POPC   C3A43997  21.288  28.166   6.918
 3256POPC   C4A43998  21.081  28.138   7.325
 3256POPC   C1B43999  21.488  28.716   6.301
 3256POPC   C2B44000  21.319  28.716   6.751
 3256POPC   C3B44001  21.339  28.578   7.209
 3256POPC   C4B44002  21.125  28.691   7.615
 3257POPC   NC344003  26.045   4.639   5.209
 3257POPC   PO444004  26.162   3.991   5.385
 3257POPC   GL144005  25.909   4.051   5.777
 3257POPC   GL244006  26.174   3.994   5.986
 3257POPC   C1A44007  25.701   4.148   6.182
 3257POPC   D2A44008  25.704   4.517   6.433
 3257POPC   C3A44009  25.615   4.516   6.864
 3257POPC   C4A44010  25.896   4.778   7.106
 3257POPC   C1B44011  26.229   4.338   6.324
 3257POPC   C2B44012  26.143   4.461   6.775
 3257POPC   C3B44013  25.939   4.247   7.157
 3257POPC   C4B44014  26.056   4.060   7.583
 3258POPC   NC344015  25.417  16.537   5.543
 3258POPC   PO444016  24.942  16.993   5.448
 3258POPC   GL144017  25.031  16.745   5.822
 3258POPC   GL244018  25.377  16.804   5.970
 3258POPC   C1A44019  25.051  16.520   6.227
 3258POPC   D2A44020  25.228  16.776   6.558
 3258POPC   C3A44021  25.161  16.591   6.949
 3258POPC   C4A44022  25.329  16.546   7.337
 3258POPC   C1B44023  25.549  17.095   6.283
 3258POPC   C2B44024  25.550  17.257   6.712
 3258POPC   C3B44025  25.433  17.052   7.122
 3258POPC   C4B44026  25.639  16.923   7.512
 3259POPC   NC344027  27.486   4.222   5.347
 3259POPC   PO444028  27.994   3.898   5.647
 3259POPC   GL144029  27.746   4.252   5.817
 3259POPC   GL244030  27.460   4.511   5.807
 3259POPC   C1A44031  27.640   4.362   6.250
 3259POPC   D2A44032  27.392   4.384   6.597
 3259POPC   C3A44033  27.728   4.304   6.852
 3259POPC   C4A44034  27.686   4.017   7.183
 3259POPC   C1B44035  27.267   4.718   6.200
 3259POPC   C2B44036  27.134   4.825   6.624
 3259POPC   C3B44037  27.367   4.798   7.025
 3259POPC   C4B44038  27.653   4.547   7.292
 3260POPC   NC344039  10.421  15.442   5.495
 3260POPC   PO444040  10.835  14.918   5.328
 3260POPC   GL144041  10.664  14.923   5.750
 3260POPC   GL244042  10.817  15.252   5.777
 3260POPC   C1A44043  10.535  15.049   6.191
 3260POPC   D2A44044  10.331  15.411   6.433
 3260POPC   C3A44045  10.193  15.344   6.879
 3260POPC   C4A44046  10.091  15.257   7.314
 3260POPC   C1B44047  10.954  15.385   6.175
 3260POPC   C2B44048  10.814  15.297   6.576
 3260POPC   C3B44049  10.672  15.126   6.961
 3260POPC   C4B44050  10.930  15.309   7.262
 3261POPC   NC344051  30.966  11.614   5.475
 3261POPC   PO444052  30.468  11.252   5.719
 3261POPC   GL144053  30.837  11.312   5.948
 3261POPC   GL244054  30.809  11.016   6.163
 3261POPC   C1A44055  30.771  11.478   6.377
 3261POPC   D2A44056  30.663  11.178   6.712
 3261POPC   C3A44057  30.838  11.281   7.075
 3261POPC   C4A44058  30.939  11.683   7.191
 3261POPC   C1B44059  30.369  10.999   6.330
 3261POPC   C2B44060  30.223  10.888   6.746
 3261POPC   C3B44061  30.451  10.737   7.129
 3261POPC   C4B44062  30.713  10.949   7.438
 3262POPC   NC344063  42.987  10.084   5.471
 3262POPC   PO444064  43.311   9.466   5.351
 3262POPC   GL144065  43.124   9.633   5.697
 3262POPC   GL244066  42.827   9.464   5.697
 3262POPC   C1A44067  43.245   9.803   6.087
 3262POPC   D2A44068  43.368   9.927   6.481
 3262POPC   C3A44069  43.233   9.780   6.850
 3262POPC   C4A44070  43.241   9.919   7.241
 3262POPC   C1B44071  42.853   9.432   6.141
 3262POPC   C2B44072  42.843   9.606   6.559
 3262POPC   C3B44073  42.729   9.413   6.937
 3262POPC   C4B44074  42.969   9.446   7.286
 3263POPC   NC344075   4.638   9.873   5.338
 3263POPC   PO444076   3.983   9.794   5.505
 3263POPC   GL144077   4.355   9.772   5.790
 3263POPC   GL244078   4.700   9.615   5.773
 3263POPC   C1A44079   4.369   9.631   6.206
 3263POPC   D2A44080   4.131   9.456   6.556
 3263POPC   C3A44081   4.342   9.619   6.907
 3263POPC   C4A44082   4.233   9.566   7.306
 3263POPC   C1B44083   4.828   9.912   6.098
 3263POPC   C2B44084   4.691   9.945   6.539
 3263POPC   C3B44085   4.770   9.951   6.984
 3263POPC   C4B44086   4.770   9.618   7.285
 3264POPC   NC344087  26.731  44.826   5.717
 3264POPC   PO444088  27.197  44.453   5.325
 3264POPC   GL144089  26.959  44.318   5.747
 3264POPC   GL244090  26.587  44.354   5.765
 3264POPC   C1A44091  26.983  44.418   6.219
 3264POPC   D2A44092  27.140  44.726   6.558
 3264POPC   C3A44093  26.901  44.817   6.929
 3264POPC   C4A44094  26.930  44.650   7.327
 3264POPC   C1B44095  26.444  44.398   6.190
 3264POPC   C2B44096  26.592  44.516   6.607
 3264POPC   C3B44097  26.465  44.512   7.045
 3264POPC   C4B44098  26.317  44.452   7.445
 3265POPC   NC344099  25.934  16.543   5.247
 3265POPC   PO444100  26.360  17.004   5.401
 3265POPC   GL144101  26.205  16.775   5.775
 3265POPC   GL244102  25.865  16.639   5.798
 3265POPC   C1A44103  26.248  16.508   6.180
 3265POPC   D2A44104  26.104  16.605   6.610
 3265POPC   C3A44105  26.290  16.473   6.990
 3265POPC   C4A44106  26.173  16.655   7.376
 3265POPC   C1B44107  25.730  16.591   6.251
 3265POPC   C2B44108  25.619  16.439   6.680
 3265POPC   C3B44109  25.760  16.583   7.098
 3265POPC   C4B44110  25.776  16.428   7.574
 3266POPC   NC344111  37.147  26.678   5.066
 3266POPC   PO444112  36.603  27.094   5.263
 3266POPC   GL144113  36.726  26.966   5.692
 3266POPC   GL244114  36.469  26.914   5.908
 3266POPC   C1A44115  37.026  27.071   6.066
 3266POPC   D2A44116  37.213  26.923   6.438
 3266POPC   C3A44117  37.023  27.005   6.821
 3266POPC   C4A44118  37.048  26.701   7.108
 3266POPC   C1B44119  36.624  26.897   6.343
 3266POPC   C2B44120  36.569  26.704   6.727
 3266POPC   C3B44121  36.544  26.723   7.124
 3266POPC   C4B44122  36.334  26.962   7.364
 3267POPC   NC344123   5.910  44.697   5.477
 3267POPC   PO444124   5.853  44.099   5.299
 3267POPC   GL144125   5.855  44.224   5.755
 3267POPC   GL244126   5.650  44.540   5.898
 3267POPC   C1A44127   6.010  44.302   6.197
 3267POPC   D2A44128   6.240  44.451   6.572
 3267POPC   C3A44129   6.065  44.497   6.984
 3267POPC   C4A44130   5.724  44.324   7.227
 3267POPC   C1B44131   5.782  44.870   6.246
 3267POPC   C2B44132   5.808   0.053   6.705
 3267POPC   C3B44133   5.743  44.999   7.196
 3267POPC   C4B44134   5.800   0.090   7.688
 3268POPC   NC344135  41.479  11.585   5.470
 3268POPC   PO444136  41.853  11.021   5.269
 3268POPC   GL144137  41.636  11.140   5.724
 3268POPC   GL244138  41.289  11.282   5.829
 3268POPC   C1A44139  41.590  11.098   6.201
 3268POPC   D2A44140  41.480  11.186   6.633
 3268POPC   C3A44141  41.778  11.377   6.897
 3268POPC   C4A44142  41.911  11.077   7.152
 3268POPC   C1B44143  41.414  11.607   6.184
 3268POPC   C2B44144  41.350  11.749   6.643
 3268POPC   C3B44145  41.296  11.505   7.035
 3268POPC   C4B44146  41.552  11.349   7.400
 3269POPC   NC344147  43.323   5.237   5.548
 3269POPC   PO444148  42.762   5.509   5.592
 3269POPC   GL144149  42.971   5.364   5.995
 3269POPC   GL244150  43.173   5.037   5.991
 3269POPC   C1A44151  43.048   5.246   6.448
 3269POPC   D2A44152  43.324   4.903   6.585
 3269POPC   C3A44153  43.159   4.788   6.987
 3269POPC   C4A44154  42.842   4.973   7.254
 3269POPC   C1B44155  43.467   5.315   6.179
 3269POPC   C2B44156  43.575   5.359   6.591
 3269POPC   C3B44157  43.486   5.179   7.001
 3269POPC   C4B44158  43.590   5.380   7.385
 3270POPC   NC344159   5.701  35.985   5.216
 3270POPC   PO444160   6.086  36.475   5.349
 3270POPC   GL144161   5.876  36.349   5.707
 3270POPC   GL244162   5.892  36.002   5.720
 3270POPC   C1A44163   5.873  36.338   6.150
 3270POPC   D2A44164   5.756  36.037   6.460
 3270POPC   C3A44165   5.808  36.083   6.874
 3270POPC   C4A44166   5.775  36.327   7.206
 3270POPC   C1B44167   6.067  35.860   6.108
 3270POPC   C2B44168   6.224  35.850   6.575
 3270POPC   C3B44169   6.130  35.709   6.999
 3270POPC   C4B44170   5.959  35.892   7.358
 3271POPC   NC344171   3.594  13.047   5.033
 3271POPC   PO444172   3.406  13.647   5.284
 3271POPC   GL144173   3.366  13.783   5.708
 3271POPC   GL244174   3.682  13.632   5.744
 3271POPC   C1A44175   3.513  13.872   6.158
 3271POPC   D2A44176   3.612  13.638   6.530
 3271POPC   C3A44177   3.501  13.831   6.890
 3271POPC   C4A44178   3.671  13.732   7.250
 3271POPC   C1B44179   3.652  13.363   6.106
 3271POPC   C2B44180   3.362  13.183   6.401
 3271POPC   C3B44181   3.474  13.177   6.839
 3271POPC   C4B44182   3.266  13.053   7.240
 3272POPC   NC344183  10.195  22.086   5.484
 3272POPC   PO444184   9.526  22.306   5.493
 3272POPC   GL144185   9.730  22.153   5.855
 3272POPC   GL244186  10.075  22.297   5.928
 3272POPC   C1A44187   9.709  22.318   6.277
 3272POPC   D2A44188   9.379  22.505   6.494
 3272POPC   C3A44189   9.530  22.377   6.885
 3272POPC   C4A44190   9.766  22.465   7.250
 3272POPC   C1B44191  10.017  21.895   6.192
 3272POPC   C2B44192   9.824  21.870   6.595
 3272POPC   C3B44193   9.810  21.975   7.034
 3272POPC   C4B44194  10.169  22.144   7.227
 3273POPC   NC344195  13.710  37.267   5.502
 3273POPC   PO444196  13.605  36.618   5.334
 3273POPC   GL144197  13.520  36.841   5.744
 3273POPC   GL244198  13.836  36.988   5.902
 3273POPC   C1A44199  13.424  36.948   6.199
 3273POPC   D2A44200  13.580  37.009   6.629
 3273POPC   C3A44201  13.459  36.753   6.973
 3273POPC   C4A44202  13.608  36.871   7.374
 3273POPC   C1B44203  13.851  37.245   6.281
 3273POPC   C2B44204  14.063  37.175   6.699
 3273POPC   C3B44205  14.027  37.104   7.168
 3273POPC   C4B44206  14.126  36.880   7.585
 3274POPC   NC344207   6.190  35.026   5.545
 3274POPC   PO444208   5.951  35.622   5.396
 3274POPC   GL144209   5.907  35.463   5.799
 3274POPC   GL244210   5.566  35.586   5.789
 3274POPC   C1A44211   6.119  35.366   6.214
 3274POPC   D2A44212   6.289  35.339   6.640
 3274POPC   C3A44213   6.049  35.205   6.990
 3274POPC   C4A44214   5.963  35.377   7.382
 3274POPC   C1B44215   5.638  35.590   6.232
 3274POPC   C2B44216   5.791  35.558   6.658
 3274POPC   C3B44217   5.615  35.639   7.092
 3274POPC   C4B44218   5.570  35.649   7.576
 3275POPC   NC344219   2.976  40.160   5.376
 3275POPC   PO444220   2.897  39.478   5.265
 3275POPC   GL144221   2.824  39.679   5.737
 3275POPC   GL244222   2.859  40.044   5.835
 3275POPC   C1A44223   2.903  39.755   6.232
 3275POPC   D2A44224   3.183  40.026   6.513
 3275POPC   C3A44225   3.053  40.169   6.926
 3275POPC   C4A44226   2.878  39.927   7.221
 3275POPC   C1B44227   2.592  40.175   6.138
 3275POPC   C2B44228   2.690  40.149   6.550
 3275POPC   C3B44229   2.501  40.041   6.889
 3275POPC   C4B44230   2.312  40.088   7.239
 3276POPC   NC344231  41.103  27.325   5.618
 3276POPC   PO444232  40.746  27.785   5.538
 3276POPC   GL144233  40.821  27.591   5.947
 3276POPC   GL244234  41.148  27.700   5.982
 3276POPC   C1A44235  40.796  27.566   6.389
 3276POPC   D2A44236  41.156  27.757   6.574
 3276POPC   C3A44237  41.111  27.972   6.956
 3276POPC   C4A44238  41.009  27.779   7.338
 3276POPC   C1B44239  41.260  27.345   6.243
 3276POPC   C2B44240  41.139  27.248   6.632
 3276POPC   C3B44241  40.898  27.446   6.941
 3276POPC   C4B44242  41.102  27.295   7.302
 3277POPC   NC344243   4.751  42.333   5.458
 3277POPC   PO444244   5.157  41.852   5.458
 3277POPC   GL144245   5.165  42.247   5.801
 3277POPC   GL244246   5.469  42.489   5.851
 3277POPC   C1A44247   5.068  42.421   6.256
 3277POPC   D2A44248   5.162  42.233   6.697
 3277POPC   C3A44249   4.945  42.419   7.080
 3277POPC   C4A44250   4.846  42.775   7.324
 3277POPC   C1B44251   5.579  42.436   6.302
 3277POPC   C2B44252   5.491  42.642   6.707
 3277POPC   C3B44253   5.470  42.381   7.097
 3277POPC   C4B44254   5.222  41.962   7.152
 3278POPC   NC344255  16.514   5.572   5.536
 3278POPC   PO444256  16.792   6.112   5.303
 3278POPC   GL144257  16.769   6.021   5.734
 3278POPC   GL244258  16.823   6.353   5.836
 3278POPC   C1A44259  16.927   5.974   6.174
 3278POPC   D2A44260  16.999   5.798   6.591
 3278POPC   C3A44261  16.900   5.995   6.989
 3278POPC   C4A44262  16.951   5.866   7.444
 3278POPC   C1B44263  16.575   6.360   6.230
 3278POPC   C2B44264  16.362   6.130   6.569
 3278POPC   C3B44265  16.284   6.185   6.992
 3278POPC   C4B44266  16.471   5.928   7.277
 3279POPC   NC344267  23.568  37.255   5.414
 3279POPC   PO444268  24.049  36.857   5.466
 3279POPC   GL144269  23.752  36.977   5.814
 3279POPC   GL244270  23.562  36.704   5.789
 3279POPC   C1A44271  23.502  37.061   6.208
 3279POPC   D2A44272  23.706  37.085   6.592
 3279POPC   C3A44273  23.476  37.149   6.928
 3279POPC   C4A44274  23.626  37.091   7.331
 3279POPC   C1B44275  23.584  36.562   6.194
 3279POPC   C2B44276  23.795  36.572   6.565
 3279POPC   C3B44277  23.735  36.690   6.990
 3279POPC   C4B44278  23.416  36.474   7.231
 3280POPC   NC344279  36.419  14.911   5.385
 3280POPC   PO444280  35.962  15.379   5.390
 3280POPC   GL144281  36.078  15.123   5.734
 3280POPC   GL244282  36.394  15.273   5.781
 3280POPC   C1A44283  35.949  15.264   6.152
 3280POPC   D2A44284  35.682  15.217   6.512
 3280POPC   C3A44285  35.891  15.090   6.885
 3280POPC   C4A44286  35.927  15.293   7.265
 3280POPC   C1B44287  36.441  15.205   6.187
 3280POPC   C2B44288  36.229  15.447   6.538
 3280POPC   C3B44289  36.325  15.394   6.949
 3280POPC   C4B44290  36.405  15.130   7.315
 3281POPC   NC344291  31.056  23.901   5.404
 3281POPC   PO444292  30.491  23.739   5.547
 3281POPC   GL144293  30.578  23.805   5.949
 3281POPC   GL244294  30.897  23.949   5.895
 3281POPC   C1A44295  30.476  23.607   6.321
 3281POPC   D2A44296  30.558  23.348   6.644
 3281POPC   C3A44297  30.430  23.511   7.017
 3281POPC   C4A44298  30.063  23.473   7.257
 3281POPC   C1B44299  30.965  23.881   6.334
 3281POPC   C2B44300  30.794  23.772   6.726
 3281POPC   C3B44301  30.931  23.663   7.131
 3281POPC   C4B44302  31.017  23.800   7.547
 3282POPC   NC344303  14.323  29.065   5.211
 3282POPC   PO444304  14.692  29.522   5.494
 3282POPC   GL144305  14.508  29.150   5.707
 3282POPC   GL244306  14.211  29.216   5.775
 3282POPC   C1A44307  14.466  29.040   6.157
 3282POPC   D2A44308  14.522  29.370   6.407
 3282POPC   C3A44309  14.531  29.292   6.829
 3282POPC   C4A44310  14.606  29.010   7.175
 3282POPC   C1B44311  14.040  29.315   6.178
 3282POPC   C2B44312  14.035  29.201   6.593
 3282POPC   C3B44313  14.032  29.422   6.985
 3282POPC   C4B44314  14.371  29.470   7.273
 3283POPC   NC344315   1.927  12.570   5.441
 3283POPC   PO444316   1.956  11.882   5.500
 3283POPC   GL144317   2.174  12.186   5.764
 3283POPC   GL244318   1.936  12.299   5.891
 3283POPC   C1A44319   2.306  12.107   6.217
 3283POPC   D2A44320   2.178  11.919   6.616
 3283POPC   C3A44321   2.232  12.082   7.036
 3283POPC   C4A44322   2.171  12.130   7.506
 3283POPC   C1B44323   1.805  11.932   6.155
 3283POPC   C2B44324   1.633  11.829   6.547
 3283POPC   C3B44325   1.737  11.966   6.936
 3283POPC   C4B44326   1.881  11.783   7.273
 3284POPC   NC344327  40.336  44.631   5.606
 3284POPC   PO444328  40.977  44.266   5.491
 3284POPC   GL144329  41.028  44.405   5.893
 3284POPC   GL244330  40.715  44.600   5.982
 3284POPC   C1A44331  41.154  44.608   6.266
 3284POPC   D2A44332  40.959  44.931   6.483
 3284POPC   C3A44333  40.820  44.766   6.861
 3284POPC   C4A44334  40.788  44.618   7.241
 3284POPC   C1B44335  40.435  44.799   6.302
 3284POPC   C2B44336  40.369  44.948   6.717
 3284POPC   C3B44337  40.319  44.725   7.083
 3284POPC   C4B44338  40.378  44.313   7.291
 3285POPC   NC344339  43.156  19.716   5.388
 3285POPC   PO444340  43.601  19.355   5.693
 3285POPC   GL144341  43.334  19.732   5.877
 3285POPC   GL244342  42.940  19.749   5.890
 3285POPC   C1A44343  43.218  19.881   6.325
 3285POPC   D2A44344  42.978  19.880   6.725
 3285POPC   C3A44345  43.156  20.027   7.109
 3285POPC   C4A44346  43.573  20.115   7.196
 3285POPC   C1B44347  42.740  19.631   6.317
 3285POPC   C2B44348  42.575  19.579   6.776
 3285POPC   C3B44349  42.723  19.721   7.203
 3285POPC   C4B44350  43.127  19.617   7.401
 3286POPC   NC344351  20.116  31.257   5.487
 3286POPC   PO444352  19.626  31.715   5.318
 3286POPC   GL144353  19.853  31.623   5.739
 3286POPC   GL244354  19.764  31.278   5.873
 3286POPC   C1A44355  19.958  31.642   6.192
 3286POPC   D2A44356  19.873  31.390   6.574
 3286POPC   C3A44357  19.839  31.522   7.016
 3286POPC   C4A44358  19.545  31.443   7.348
 3286POPC   C1B44359  20.155  31.179   6.129
 3286POPC   C2B44360  20.368  31.227   6.529
 3286POPC   C3B44361  20.200  31.139   6.951
 3286POPC   C4B44362  19.969  31.148   7.362
 3287POPC   NC344363   5.039  21.511   5.080
 3287POPC   PO444364   5.264  21.018   5.468
 3287POPC   GL144365   5.147  21.072   5.907
 3287POPC   GL244366   5.088  21.420   5.904
 3287POPC   C1A44367   5.191  21.087   6.386
 3287POPC   D2A44368   5.119  21.383   6.764
 3287POPC   C3A44369   5.055  21.227   7.196
 3287POPC   C4A44370   5.208  21.153   7.610
 3287POPC   C1B44371   5.435  21.506   6.250
 3287POPC   C2B44372   5.599  21.546   6.690
 3287POPC   C3B44373   5.463  21.532   7.131
 3287POPC   C4B44374   5.238  21.637   7.496
 3288POPC   NC344375   7.738  27.043   5.200
 3288POPC   PO444376   8.220  27.445   5.512
 3288POPC   GL144377   8.177  27.432   5.927
 3288POPC   GL244378   8.451  27.203   5.978
 3288POPC   C1A44379   8.089  27.688   6.323
 3288POPC   D2A44380   8.115  27.882   6.731
 3288POPC   C3A44381   8.077  27.603   7.083
 3288POPC   C4A44382   8.405  27.637   7.376
 3288POPC   C1B44383   8.461  27.335   6.369
 3288POPC   C2B44384   8.446  27.437   6.759
 3288POPC   C3B44385   8.430  27.209   7.091
 3288POPC   C4B44386   8.363  27.143   7.531
 3289POPC   NC344387  36.280  41.274   5.358
 3289POPC   PO444388  36.065  41.788   5.739
 3289POPC   GL144389  36.062  41.390   5.942
 3289POPC   GL244390  36.364  41.196   5.849
 3289POPC   C1A44391  35.902  41.401   6.385
 3289POPC   D2A44392  36.109  41.668   6.704
 3289POPC   C3A44393  35.934  41.685   7.094
 3289POPC   C4A44394  35.733  41.921   7.398
 3289POPC   C1B44395  36.492  41.080   6.236
 3289POPC   C2B44396  36.327  41.183   6.635
 3289POPC   C3B44397  36.345  41.343   7.057
 3289POPC   C4B44398  36.382  41.655   7.375
 3290POPC   NC344399  37.565   5.914   5.319
 3290POPC   PO444400  37.911   5.531   5.114
 3290POPC   GL144401  37.971   5.929   5.602
 3290POPC   GL244402  37.605   6.062   5.801
 3290POPC   C1A44403  37.981   6.064   6.114
 3290POPC   D2A44404  37.934   5.826   6.521
 3290POPC   C3A44405  37.800   5.907   6.966
 3290POPC   C4A44406  37.917   5.645   7.361
 3290POPC   C1B44407  37.497   5.871   6.224
 3290POPC   C2B44408  37.336   5.839   6.636
 3290POPC   C3B44409  37.309   6.066   6.994
 3290POPC   C4B44410  37.445   5.891   7.357
 3291POPC   NC344411  34.347   1.500   5.601
 3291POPC   PO444412  34.915   1.812   5.352
 3291POPC   GL144413  34.849   1.415   5.631
 3291POPC   GL244414  34.637   1.082   5.577
 3291POPC   C1A44415  34.738   1.291   6.077
 3291POPC   D2A44416  34.756   1.383   6.514
 3291POPC   C3A44417  34.513   1.416   6.902
 3291POPC   C4A44418  34.903   1.270   7.111
 3291POPC   C1B44419  34.364   0.935   5.939
 3291POPC   C2B44420  34.375   1.001   6.386
 3291POPC   C3B44421  34.607   0.943   6.759
 3291POPC   C4B44422  34.499   0.991   7.198
 3292POPC   NC344423  40.669  11.032   5.278
 3292POPC   PO444424  41.008  11.671   5.336
 3292POPC   GL144425  40.761  11.400   5.656
 3292POPC   GL244426  40.444  11.528   5.822
 3292POPC   C1A44427  40.865  11.192   6.075
 3292POPC   D2A44428  41.038  11.369   6.465
 3292POPC   C3A44429  40.973  11.146   6.866
 3292POPC   C4A44430  40.981  11.166   7.320
 3292POPC   C1B44431  40.364  11.182   6.139
 3292POPC   C2B44432  40.587  11.056   6.514
 3292POPC   C3B44433  40.452  11.089   6.928
 3292POPC   C4B44434  40.366  11.455   7.190
 3293POPC   NC344435  19.968  32.009   5.424
 3293POPC   PO444436  20.051  32.650   5.593
 3293POPC   GL144437  19.769  32.468   5.878
 3293POPC   GL244438  19.874  32.125   5.912
 3293POPC   C1A44439  19.704  32.382   6.318
 3293POPC   D2A44440  19.903  32.397   6.712
 3293POPC   C3A44441  19.683  32.374   7.109
 3293POPC   C4A44442  19.952  32.383   7.453
 3293POPC   C1B44443  20.125  32.097   6.299
 3293POPC   C2B44444  19.997  31.897   6.677
 3293POPC   C3B44445  20.064  31.995   7.094
 3293POPC   C4B44446  19.753  31.910   7.390
 3294POPC   NC344447   2.202   6.603   5.343
 3294POPC   PO444448   1.514   6.642   5.394
 3294POPC   GL144449   1.819   6.541   5.779
 3294POPC   GL244450   2.219   6.521   5.829
 3294POPC   C1A44451   1.940   6.501   6.231
 3294POPC   D2A44452   1.826   6.778   6.545
 3294POPC   C3A44453   1.752   6.497   6.894
 3294POPC   C4A44454   1.633   6.436   7.326
 3294POPC   C1B44455   2.346   6.868   6.109
 3294POPC   C2B44456   2.306   7.046   6.531
 3294POPC   C3B44457   2.200   6.810   6.884
 3294POPC   C4B44458   2.166   6.547   7.220
 3295POPC   NC344459  15.791   3.868   5.499
 3295POPC   PO444460  16.401   3.584   5.438
 3295POPC   GL144461  16.146   3.404   5.802
 3295POPC   GL244462  15.865   3.599   5.943
 3295POPC   C1A44463  15.942   3.165   6.148
 3295POPC   D2A44464  15.826   3.385   6.525
 3295POPC   C3A44465  15.943   3.175   6.906
 3295POPC   C4A44466  15.746   3.123   7.304
 3295POPC   C1B44467  16.261   3.563   6.263
 3295POPC   C2B44468  16.291   3.556   6.730
 3295POPC   C3B44469  16.085   3.768   7.040
 3295POPC   C4B44470  16.235   4.118   7.244
 3296POPC   NC344471   6.022   3.142   5.370
 3296POPC   PO444472   5.655   3.681   5.225
 3296POPC   GL144473   5.899   3.635   5.649
 3296POPC   GL244474   6.203   3.859   5.753
 3296POPC   C1A44475   5.822   3.615   6.124
 3296POPC   D2A44476   5.873   3.333   6.513
 3296POPC   C3A44477   5.700   3.260   6.937
 3296POPC   C4A44478   6.014   3.247   7.247
 3296POPC   C1B44479   6.264   3.991   6.200
 3296POPC   C2B44480   5.949   3.932   6.510
 3296POPC   C3B44481   5.924   3.719   6.904
 3296POPC   C4B44482   6.086   3.782   7.341
 3297POPC   NC344483  34.817  33.644   5.267
 3297POPC   PO444484  34.396  34.152   5.484
 3297POPC   GL144485  34.691  33.917   5.722
 3297POPC   GL244486  34.590  33.593   5.751
 3297POPC   C1A44487  34.872  33.869   6.141
 3297POPC   D2A44488  34.742  33.693   6.514
 3297POPC   C3A44489  34.889  33.815   6.915
 3297POPC   C4A44490  34.924  34.084   7.262
 3297POPC   C1B44491  34.330  33.800   6.093
 3297POPC   C2B44492  34.269  33.920   6.517
 3297POPC   C3B44493  34.379  33.660   6.899
 3297POPC   C4B44494  34.507  33.775   7.318
 3298POPC   NC344495  35.896  31.999   5.253
 3298POPC   PO444496  36.418  32.354   5.407
 3298POPC   GL144497  36.233  32.130   5.717
 3298POPC   GL244498  35.984  32.393   5.747
 3298POPC   C1A44499  36.421  31.986   6.110
 3298POPC   D2A44500  36.413  32.147   6.529
 3298POPC   C3A44501  36.263  31.879   6.850
 3298POPC   C4A44502  36.278  32.078   7.218
 3298POPC   C1B44503  35.931  32.200   6.160
 3298POPC   C2B44504  35.894  32.076   6.575
 3298POPC   C3B44505  35.845  32.249   6.982
 3298POPC   C4B44506  35.763  32.158   7.423
 3299POPC   NC344507  21.617  34.026   5.314
 3299POPC   PO444508  20.978  33.813   5.266
 3299POPC   GL144509  21.248  33.847   5.663
 3299POPC   GL244510  21.582  33.656   5.679
 3299POPC   C1A44511  21.397  34.024   6.081
 3299POPC   D2A44512  21.601  33.945   6.504
 3299POPC   C3A44513  21.419  34.043   6.903
 3299POPC   C4A44514  21.309  33.807   7.244
 3299POPC   C1B44515  21.805  33.682   6.085
 3299POPC   C2B44516  21.852  33.495   6.511
 3299POPC   C3B44517  21.618  33.529   6.907
 3299POPC   C4B44518  21.643  33.402   7.335
 3300POPC   NC344519  10.799  27.678   5.595
 3300POPC   PO444520  11.396  27.302   5.547
 3300POPC   GL144521  11.193  27.420   5.895
 3300POPC   GL244522  11.257  27.757   5.839
 3300POPC   C1A44523  11.376  27.509   6.306
 3300POPC   D2A44524  11.242  27.559   6.722
 3300POPC   C3A44525  11.523  27.658   6.999
 3300POPC   C4A44526  11.465  27.898   7.381
 3300POPC   C1B44527  11.177  27.966   6.187
 3300POPC   C2B44528  10.982  27.987   6.576
 3300POPC   C3B44529  11.130  28.004   6.989
 3300POPC   C4B44530  10.863  28.074   7.345
 3301POPC   NC344531   9.928  14.772   5.465
 3301POPC   PO444532   9.349  14.420   5.590
 3301POPC   GL144533   9.661  14.518   5.848
 3301POPC   GL244534   9.900  14.252   5.926
 3301POPC   C1A44535   9.577  14.434   6.271
 3301POPC   D2A44536   9.466  14.263   6.632
 3301POPC   C3A44537   9.794  14.256   6.902
 3301POPC   C4A44538   9.901  14.540   7.203
 3301POPC   C1B44539  10.060  14.588   6.163
 3301POPC   C2B44540   9.947  14.629   6.583
 3301POPC   C3B44541  10.270  14.677   6.874
 3301POPC   C4B44542  10.329  14.817   7.279
 3302POPC   NC344543   6.875  43.342   5.158
 3302POPC   PO444544   6.376  42.919   5.302
 3302POPC   GL144545   6.591  42.820   5.691
 3302POPC   GL244546   6.859  43.072   5.695
 3302POPC   C1A44547   6.655  42.931   6.141
 3302POPC   D2A44548   6.562  43.159   6.495
 3302POPC   C3A44549   6.598  42.985   6.930
 3302POPC   C4A44550   6.377  43.065   7.314
 3302POPC   C1B44551   6.999  43.297   6.082
 3302POPC   C2B44552   7.046  43.343   6.515
 3302POPC   C3B44553   6.777  43.473   6.840
 3302POPC   C4B44554   6.841  43.390   7.264
 3303POPC   NC344555  18.636  33.842   5.148
 3303POPC   PO444556  18.124  33.914   5.411
 3303POPC   GL144557  18.312  33.863   5.797
 3303POPC   GL244558  18.658  33.932   5.800
 3303POPC   C1A44559  18.237  33.829   6.236
 3303POPC   D2A44560  18.395  33.804   6.682
 3303POPC   C3A44561  18.327  34.105   7.041
 3303POPC   C4A44562  18.307  33.988   7.491
 3303POPC   C1B44563  18.721  33.959   6.277
 3303POPC   C2B44564  18.875  33.989   6.722
 3303POPC   C3B44565  18.823  34.187   7.117
 3303POPC   C4B44566  18.834  34.024   7.556
 3304POPC   NC344567  38.902  11.214   5.419
 3304POPC   PO444568  39.550  11.238   5.406
 3304POPC   GL144569  39.449  11.224   5.829
 3304POPC   GL244570  39.129  11.373   5.842
 3304POPC   C1A44571  39.485  11.358   6.262
 3304POPC   D2A44572  39.436  11.695   6.559
 3304POPC   C3A44573  39.555  11.656   6.995
 3304POPC   C4A44574  39.476  11.258   7.191
 3304POPC   C1B44575  38.997  11.179   6.223
 3304POPC   C2B44576  39.127  11.254   6.648
 3304POPC   C3B44577  39.041  11.525   6.977
 3304POPC   C4B44578  38.990  11.624   7.398
 3305POPC   NC344579  27.740  10.084   5.369
 3305POPC   PO444580  27.033  10.023   5.291
 3305POPC   GL144581  27.250   9.885   5.687
 3305POPC   GL244582  27.375   9.550   5.736
 3305POPC   C1A44583  27.453   9.985   6.095
 3305POPC   D2A44584  27.233  10.127   6.474
 3305POPC   C3A44585  27.388  10.086   6.885
 3305POPC   C4A44586  27.531   9.960   7.324
 3305POPC   C1B44587  27.436   9.480   6.203
 3305POPC   C2B44588  27.592   9.673   6.590
 3305POPC   C3B44589  27.818   9.627   6.971
 3305POPC   C4B44590  27.881   9.271   7.232
 3306POPC   NC344591  21.462   4.235   5.364
 3306POPC   PO444592  20.894   4.587   5.542
 3306POPC   GL144593  21.277   4.507   5.775
 3306POPC   GL244594  21.270   4.201   5.942
 3306POPC   C1A44595  21.564   4.511   6.176
 3306POPC   D2A44596  21.554   4.328   6.602
 3306POPC   C3A44597  21.156   4.404   6.886
 3306POPC   C4A44598  21.130   4.748   7.236
 3306POPC   C1B44599  21.698   4.018   6.190
 3306POPC   C2B44600  21.694   3.826   6.631
 3306POPC   C3B44601  21.510   4.026   7.008
 3306POPC   C4B44602  21.090   3.983   7.176
 3307POPC   NC344603  13.955   3.487   5.265
 3307POPC   PO444604  14.531   3.587   5.240
 3307POPC   GL144605  14.276   3.623   5.652
 3307POPC   GL244606  14.082   3.308   5.738
 3307POPC   C1A44607  14.110   3.712   6.092
 3307POPC   D2A44608  13.938   3.670   6.537
 3307POPC   C3A44609  14.280   3.781   6.869
 3307POPC   C4A44610  14.647   3.554   7.032
 3307POPC   C1B44611  14.043   3.160   6.182
 3307POPC   C2B44612  14.053   2.953   6.580
 3307POPC   C3B44613  14.023   3.276   6.883
 3307POPC   C4B44614  14.217   3.406   7.242
 3308POPC   NC344615  31.600  36.415   5.112
 3308POPC   PO444616  31.322  36.979   5.409
 3308POPC   GL144617  31.475  36.916   5.820
 3308POPC   GL244618  31.649  37.177   5.895
 3308POPC   C1A44619  31.558  36.768   6.244
 3308POPC   D2A44620  31.383  36.552   6.599
 3308POPC   C3A44621  31.440  36.803   6.959
 3308POPC   C4A44622  31.766  36.777   7.265
 3308POPC   C1B44623  31.755  37.221   6.334
 3308POPC   C2B44624  31.846  37.030   6.725
 3308POPC   C3B44625  31.692  37.248   7.080
 3308POPC   C4B44626  31.540  37.296   7.485
 3309POPC   NC344627  36.847  32.519   5.348
 3309POPC   PO444628  37.259  31.964   5.341
 3309POPC   GL144629  37.053  32.187   5.731
 3309POPC   GL244630  36.724  32.298   5.806
 3309POPC   C1A44631  37.090  32.351   6.173
 3309POPC   D2A44632  37.066  32.140   6.590
 3309POPC   C3A44633  37.125  32.373   6.955
 3309POPC   C4A44634  37.147  32.505   7.359
 3309POPC   C1B44635  36.548  32.499   6.164
 3309POPC   C2B44636  36.741  32.548   6.587
 3309POPC   C3B44637  36.607  32.446   7.005
 3309POPC   C4B44638  36.273  32.576   7.303
 3310POPC   NC344639  24.964  38.535   5.398
 3310POPC   PO444640  24.379  38.088   5.455
 3310POPC   GL144641  24.525  38.414   5.723
 3310POPC   GL244642  24.858  38.308   5.839
 3310POPC   C1A44643  24.526  38.547   6.172
 3310POPC   D2A44644  24.452  38.911   6.443
 3310POPC   C3A44645  24.441  38.816   6.858
 3310POPC   C4A44646  24.445  38.507   7.203
 3310POPC   C1B44647  24.910  38.157   6.276
 3310POPC   C2B44648  24.622  38.101   6.588
 3310POPC   C3B44649  24.652  38.060   7.032
 3310POPC   C4B44650  24.742  38.171   7.465
 3311POPC   NC344651   4.529  40.613   5.433
 3311POPC   PO444652   3.907  40.893   5.488
 3311POPC   GL144653   4.243  40.789   5.823
 3311POPC   GL244654   4.579  40.994   5.765
 3311POPC   C1A44655   4.222  40.663   6.263
 3311POPC   D2A44656   4.298  40.735   6.696
 3311POPC   C3A44657   3.976  40.634   6.973
 3311POPC   C4A44658   4.125  40.633   7.366
 3311POPC   C1B44659   4.524  41.097   6.175
 3311POPC   C2B44660   4.693  41.026   6.561
 3311POPC   C3B44661   4.604  41.145   6.948
 3311POPC   C4B44662   4.607  41.024   7.371
 3312POPC   NC344663  12.287  31.220   5.388
 3312POPC   PO444664  12.098  31.833   5.595
 3312POPC   GL144665  12.095  31.477   5.846
 3312POPC   GL244666  12.405  31.245   5.890
 3312POPC   C1A44667  12.146  31.460   6.274
 3312POPC   D2A44668  12.064  31.264   6.646
 3312POPC   C3A44669  12.205  31.461   7.033
 3312POPC   C4A44670  12.237  31.856   7.250
 3312POPC   C1B44671  12.354  30.983   6.285
 3312POPC   C2B44672  12.385  30.893   6.744
 3312POPC   C3B44673  12.581  31.102   7.093
 3312POPC   C4B44674  12.341  31.242   7.482
 3313POPC   NC344675  35.599  44.963   5.399
 3313POPC   PO444676  35.014  44.564   5.460
 3313POPC   GL144677  35.237  44.447   5.813
 3313POPC   GL244678  35.547  44.591   5.772
 3313POPC   C1A44679  35.282  44.640   6.228
 3313POPC   D2A44680  35.309  44.481   6.616
 3313POPC   C3A44681  35.524  44.604   6.971
 3313POPC   C4A44682  35.369  44.362   7.327
 3313POPC   C1B44683  35.645  44.945   6.063
 3313POPC   C2B44684  35.683  44.970   6.515
 3313POPC   C3B44685  35.622   0.124   6.941
 3313POPC   C4B44686  35.436   0.007   7.335
 3314POPC   NC344687  27.359  20.836   5.479
 3314POPC   PO444688  27.849  20.349   5.476
 3314POPC   GL144689  27.591  20.476   5.790
 3314POPC   GL244690  27.705  20.792   5.851
 3314POPC   C1A44691  27.595  20.306   6.182
 3314POPC   D2A44692  27.896  20.293   6.517
 3314POPC   C3A44693  27.625  20.206   6.852
 3314POPC   C4A44694  27.388  20.376   7.188
 3314POPC   C1B44695  27.853  20.740   6.247
 3314POPC   C2B44696  27.571  20.656   6.581
 3314POPC   C3B44697  27.734  20.697   6.963
 3314POPC   C4B44698  27.524  20.967   7.191
 3315POPC   NC344699  30.963  20.060   5.430
 3315POPC   PO444700  30.204  20.205   5.357
 3315POPC   GL144701  30.450  20.018   5.714
 3315POPC   GL244702  30.507  19.666   5.664
 3315POPC   C1A44703  30.708  20.101   6.104
 3315POPC   D2A44704  30.906  19.870   6.445
 3315POPC   C3A44705  30.719  19.951   6.858
 3315POPC   C4A44706  30.810  20.017   7.299
 3315POPC   C1B44707  30.671  19.598   6.078
 3315POPC   C2B44708  30.727  19.364   6.451
 3315POPC   C3B44709  30.758  19.287   6.877
 3315POPC   C4B44710  30.757  19.518   7.227
 3316POPC   NC344711  13.408  26.477   5.675
 3316POPC   PO444712  13.003  25.932   5.441
 3316POPC   GL144713  12.856  26.106   5.818
 3316POPC   GL244714  12.823  25.781   5.962
 3316POPC   C1A44715  13.083  26.184   6.206
 3316POPC   D2A44716  13.186  26.048   6.612
 3316POPC   C3A44717  13.056  26.362   6.928
 3316POPC   C4A44718  13.086  26.243   7.354
 3316POPC   C1B44719  12.571  25.991   6.274
 3316POPC   C2B44720  12.671  26.043   6.698
 3316POPC   C3B44721  12.831  25.914   7.070
 3316POPC   C4B44722  12.547  25.930   7.432
 3317POPC   NC344723  10.129  25.200   5.459
 3317POPC   PO444724  10.701  25.596   5.576
 3317POPC   GL144725  10.429  25.398   5.852
 3317POPC   GL244726  10.426  25.056   5.862
 3317POPC   C1A44727  10.399  25.396   6.311
 3317POPC   D2A44728  10.676  25.559   6.641
 3317POPC   C3A44729  10.542  25.459   7.054
 3317POPC   C4A44730  10.722  25.352   7.434
 3317POPC   C1B44731  10.654  24.951   6.276
 3317POPC   C2B44732  10.540  25.040   6.702
 3317POPC   C3B44733  10.616  24.953   7.118
 3317POPC   C4B44734  10.735  24.817   7.495
 3318POPC   NC344735  15.849  11.853   5.423
 3318POPC   PO444736  15.387  11.537   5.533
 3318POPC   GL144737  15.537  11.846   5.886
 3318POPC   GL244738  15.912  11.948   5.943
 3318POPC   C1A44739  15.586  12.017   6.341
 3318POPC   D2A44740  15.781  12.313   6.645
 3318POPC   C3A44741  15.966  12.163   7.042
 3318POPC   C4A44742  16.055  11.971   7.443
 3318POPC   C1B44743  16.102  11.965   6.399
 3318POPC   C2B44744  16.342  11.907   6.807
 3318POPC   C3B44745  16.496  12.101   7.193
 3318POPC   C4B44746  16.493  12.113   7.671
 3319POPC   NC344747   3.775  10.193   5.422
 3319POPC   PO444748   3.345  10.721   5.297
 3319POPC   GL144749   3.314  10.469   5.702
 3319POPC   GL244750   3.314  10.114   5.756
 3319POPC   C1A44751   3.275  10.436   6.173
 3319POPC   D2A44752   3.212  10.669   6.578
 3319POPC   C3A44753   3.560  10.879   6.799
 3319POPC   C4A44754   3.599  10.812   7.241
 3319POPC   C1B44755   3.690  10.115   6.084
 3319POPC   C2B44756   3.806  10.349   6.480
 3319POPC   C3B44757   3.634  10.393   6.893
 3319POPC   C4B44758   3.541  10.272   7.341
 3320POPC   NC344759  27.567  10.970   5.635
 3320POPC   PO444760  27.875  10.535   5.377
 3320POPC   GL144761  27.803  10.438   5.791
 3320POPC   GL244762  27.446  10.379   5.732
 3320POPC   C1A44763  27.910  10.387   6.238
 3320POPC   D2A44764  27.845  10.127   6.632
 3320POPC   C3A44765  27.815  10.302   7.067
 3320POPC   C4A44766  27.710  10.586   7.440
 3320POPC   C1B44767  27.420  10.502   6.167
 3320POPC   C2B44768  27.601  10.598   6.589
 3320POPC   C3B44769  27.481  10.699   7.003
 3320POPC   C4B44770  27.261  10.397   7.266
 3321POPC   NC344771  44.050   7.675   5.425
 3321POPC   PO444772  44.041   7.002   5.555
 3321POPC   GL144773  44.211   7.349   5.800
 3321POPC   GL244774  43.871   7.427   5.876
 3321POPC   C1A44775  44.158   7.629   6.221
 3321POPC   D2A44776  43.824   7.505   6.485
 3321POPC   C3A44777  43.904   7.562   6.915
 3321POPC   C4A44778  43.777   7.897   7.162
 3321POPC   C1B44779  44.054   7.115   6.214
 3321POPC   C2B44780  43.975   7.018   6.633
 3321POPC   C3B44781  44.117   7.122   7.062
 3321POPC   C4B44782  43.937   7.183   7.461
 3322POPC   NC344783  25.331  32.576   5.386
 3322POPC   PO444784  25.376  31.901   5.391
 3322POPC   GL144785  25.302  32.217   5.759
 3322POPC   GL244786  25.161  32.574   5.866
 3322POPC   C1A44787  25.268  32.218   6.200
 3322POPC   D2A44788  25.192  32.414   6.548
 3322POPC   C3A44789  25.188  32.147   6.891
 3322POPC   C4A44790  25.394  32.114   7.280
 3322POPC   C1B44791  25.560  32.619   6.113
 3322POPC   C2B44792  25.708  32.447   6.512
 3322POPC   C3B44793  25.535  32.523   6.911
 3322POPC   C4B44794  25.219  32.596   7.186
 3323POPC   NC344795   5.579  20.703   5.360
 3323POPC   PO444796   6.127  20.437   5.540
 3323POPC   GL144797   5.769  20.545   5.827
 3323POPC   GL244798   5.995  20.741   5.932
 3323POPC   C1A44799   5.702  20.606   6.303
 3323POPC   D2A44800   5.892  20.508   6.677
 3323POPC   C3A44801   5.632  20.574   6.995
 3323POPC   C4A44802   5.637  20.516   7.409
 3323POPC   C1B44803   6.156  20.917   6.246
 3323POPC   C2B44804   6.299  20.819   6.606
 3323POPC   C3B44805   6.047  20.946   6.926
 3323POPC   C4B44806   6.048  20.764   7.273
 3324POPC   NC344807  33.395  28.635   5.117
 3324POPC   PO444808  33.761  28.052   5.243
 3324POPC   GL144809  33.761  28.103   5.732
 3324POPC   GL244810  34.044  28.334   5.876
 3324POPC   C1A44811  33.685  28.120   6.171
 3324POPC   D2A44812  33.603  28.438   6.454
 3324POPC   C3A44813  33.453  28.328   6.861
 3324POPC   C4A44814  33.526  28.378   7.296
 3324POPC   C1B44815  34.209  28.232   6.276
 3324POPC   C2B44816  33.993  28.185   6.662
 3324POPC   C3B44817  33.928  28.476   6.994
 3324POPC   C4B44818  33.991  28.217   7.344
 3325POPC   NC344819   9.561  13.078   5.442
 3325POPC   PO444820   9.043  12.586   5.423
 3325POPC   GL144821   8.950  12.769   5.788
 3325POPC   GL244822   9.154  13.049   5.738
 3325POPC   C1A44823   8.933  12.611   6.202
 3325POPC   D2A44824   8.731  12.542   6.591
 3325POPC   C3A44825   8.650  12.807   6.906
 3325POPC   C4A44826   8.781  12.783   7.350
 3325POPC   C1B44827   9.283  12.974   6.160
 3325POPC   C2B44828   9.094  12.924   6.574
 3325POPC   C3B44829   9.151  12.820   6.992
 3325POPC   C4B44830   9.258  13.174   7.219
 3326POPC   NC344831  31.389  14.919   5.526
 3326POPC   PO444832  31.578  15.572   5.334
 3326POPC   GL144833  31.460  15.412   5.771
 3326POPC   GL244834  31.755  15.245   5.772
 3326POPC   C1A44835  31.240  15.221   6.175
 3326POPC   D2A44836  31.101  14.956   6.566
 3326POPC   C3A44837  31.354  14.958   6.988
 3326POPC   C4A44838  31.479  15.364   7.251
 3326POPC   C1B44839  31.749  15.104   6.181
 3326POPC   C2B44840  31.608  15.230   6.578
 3326POPC   C3B44841  31.825  15.167   6.939
 3326POPC   C4B44842  31.867  14.963   7.319
 3327POPC   NC344843  44.376  40.307   5.344
 3327POPC   PO444844  44.782  39.798   5.493
 3327POPC   GL144845  44.642  39.994   5.874
 3327POPC   GL244846  44.395  40.249   5.834
 3327POPC   C1A44847  44.728  39.927   6.314
 3327POPC   D2A44848  44.478  39.821   6.681
 3327POPC   C3A44849  44.738  39.638   6.980
 3327POPC   C4A44850  44.923  39.876   7.298
 3327POPC   C1B44851  44.435  40.462   6.191
 3327POPC   C2B44852  44.535  40.327   6.575
 3327POPC   C3B44853  44.393  40.369   6.986
 3327POPC   C4B44854  44.520  40.191   7.384
 3328POPC   NC344855   7.147   3.550   5.149
 3328POPC   PO444856   6.552   3.295   5.440
 3328POPC   GL144857   6.466   3.425   5.873
 3328POPC   GL244858   6.662   3.759   6.007
 3328POPC   C1A44859   6.303   3.475   6.278
 3328POPC   D2A44860   6.388   3.711   6.626
 3328POPC   C3A44861   6.374   3.500   6.991
 3328POPC   C4A44862   6.557   3.598   7.357
 3328POPC   C1B44863   6.811   3.421   6.261
 3328POPC   C2B44864   6.655   3.246   6.621
 3328POPC   C3B44865   6.837   3.312   6.992
 3328POPC   C4B44866   6.893   3.218   7.372
 3329POPC   NC344867  28.397   9.331   5.415
 3329POPC   PO444868  28.571   8.739   5.535
 3329POPC   GL144869  28.393   8.993   5.841
 3329POPC   GL244870  28.683   9.224   5.839
 3329POPC   C1A44871  28.240   8.835   6.258
 3329POPC   D2A44872  28.260   8.629   6.684
 3329POPC   C3A44873  28.120   8.863   7.026
 3329POPC   C4A44874  28.090   8.832   7.464
 3329POPC   C1B44875  28.758   8.995   6.203
 3329POPC   C2B44876  28.582   9.025   6.593
 3329POPC   C3B44877  28.674   8.871   6.976
 3329POPC   C4B44878  28.525   9.032   7.335
 3330POPC   NC344879  11.036   8.609   5.407
 3330POPC   PO444880  11.498   9.065   5.098
 3330POPC   GL144881  11.410   8.974   5.569
 3330POPC   GL244882  11.429   8.676   5.788
 3330POPC   C1A44883  11.275   9.091   6.026
 3330POPC   D2A44884  11.246   9.271   6.470
 3330POPC   C3A44885  11.201   8.956   6.825
 3330POPC   C4A44886  11.179   9.036   7.275
 3330POPC   C1B44887  11.589   8.670   6.199
 3330POPC   C2B44888  11.515   8.544   6.618
 3330POPC   C3B44889  11.573   8.637   7.071
 3330POPC   C4B44890  11.445   8.694   7.546
 3331POPC   NC344891  14.773   1.644   5.460
 3331POPC   PO444892  15.216   1.188   5.353
 3331POPC   GL144893  15.263   1.144   5.793
 3331POPC   GL244894  14.920   1.278   5.814
 3331POPC   C1A44895  15.471   1.156   6.219
 3331POPC   D2A44896  15.441   1.413   6.594
 3331POPC   C3A44897  15.288   1.130   6.864
 3331POPC   C4A44898  15.409   0.948   7.223
 3331POPC   C1B44899  15.060   1.452   6.201
 3331POPC   C2B44900  14.905   1.595   6.580
 3331POPC   C3B44901  14.890   1.453   6.967
 3331POPC   C4B44902  15.264   1.494   7.206
 3332POPC   NC344903  10.576   9.877   5.463
 3332POPC   PO444904  10.166   9.407   5.343
 3332POPC   GL144905  10.281   9.553   5.776
 3332POPC   GL244906  10.208   9.900   5.823
 3332POPC   C1A44907  10.583   9.643   6.174
 3332POPC   D2A44908  10.851   9.629   6.579
 3332POPC   C3A44909  10.725   9.779   7.008
 3332POPC   C4A44910  10.377   9.648   7.229
 3332POPC   C1B44911  10.305  10.059   6.222
 3332POPC   C2B44912  10.421   9.941   6.638
 3332POPC   C3B44913  10.330  10.124   7.037
 3332POPC   C4B44914  10.452  10.091   7.459
 3333POPC   NC344915  43.803  29.646   5.071
 3333POPC   PO444916  43.924  29.122   5.451
 3333POPC   GL144917  43.939  28.919   5.831
 3333POPC   GL244918  43.579  28.801   5.816
 3333POPC   C1A44919  44.115  29.047   6.213
 3333POPC   D2A44920  43.930  29.346   6.511
 3333POPC   C3A44921  44.109  29.293   6.901
 3333POPC   C4A44922  44.067  29.335   7.342
 3333POPC   C1B44923  43.607  29.059   6.210
 3333POPC   C2B44924  43.611  28.931   6.642
 3333POPC   C3B44925  43.755  28.977   7.086
 3333POPC   C4B44926  44.203  28.849   7.146
 3334POPC   NC344927  31.633  44.002   5.467
 3334POPC   PO444928  32.053  44.179   5.944
 3334POPC   GL144929  31.620  44.040   5.995
 3334POPC   GL244930  31.467  43.731   5.901
 3334POPC   C1A44931  31.406  44.108   6.378
 3334POPC   D2A44932  31.618  44.315   6.726
 3334POPC   C3A44933  31.525  44.109   7.119
 3334POPC   C4A44934  31.633  44.012   7.533
 3334POPC   C1B44935  31.195  43.642   6.286
 3334POPC   C2B44936  31.099  43.764   6.736
 3334POPC   C3B44937  31.260  43.476   7.092
 3334POPC   C4B44938  31.294  43.511   7.558
 3335POPC   NC344939  26.414  24.812   5.529
 3335POPC   PO444940  26.839  25.297   5.436
 3335POPC   GL144941  26.893  25.072   5.805
 3335POPC   GL244942  26.567  25.191   5.875
 3335POPC   C1A44943  26.869  25.156   6.272
 3335POPC   D2A44944  26.846  25.525   6.545
 3335POPC   C3A44945  26.884  25.288   6.898
 3335POPC   C4A44946  27.090  25.295   7.257
 3335POPC   C1B44947  26.299  25.033   6.204
 3335POPC   C2B44948  26.406  24.831   6.581
 3335POPC   C3B44949  26.393  25.070   6.963
 3335POPC   C4B44950  26.510  25.361   7.260
 3336POPC   NC344951  39.248  42.733   5.625
 3336POPC   PO444952  39.311  42.047   5.581
 3336POPC   GL144953  39.130  42.273   5.892
 3336POPC   GL244954  39.166  42.603   6.096
 3336POPC   C1A44955  38.935  42.186   6.257
 3336POPC   D2A44956  39.029  42.312   6.676
 3336POPC   C3A44957  38.958  41.979   6.979
 3336POPC   C4A44958  39.001  41.979   7.426
 3336POPC   C1B44959  39.483  42.310   6.278
 3336POPC   C2B44960  39.661  42.200   6.676
 3336POPC   C3B44961  39.428  42.255   7.049
 3336POPC   C4B44962  39.012  42.460   7.173
 3337POPC   NC344963  15.571   2.949   5.650
 3337POPC   PO444964  14.952   2.961   5.454
 3337POPC   GL144965  15.114   2.795   5.817
 3337POPC   GL244966  15.236   2.487   5.697
 3337POPC   C1A44967  15.235   2.824   6.276
 3337POPC   D2A44968  15.098   2.795   6.727
 3337POPC   C3A44969  15.263   2.966   7.091
 3337POPC   C4A44970  15.363   2.733   7.445
 3337POPC   C1B44971  14.962   2.423   6.095
 3337POPC   C2B44972  14.974   2.303   6.531
 3337POPC   C3B44973  14.795   2.392   6.910
 3337POPC   C4B44974  14.906   2.605   7.247
 3338POPC   NC344975  11.038  25.387   5.318
 3338POPC   PO444976  11.630  25.279   5.385
 3338POPC   GL144977  11.310  25.219   5.727
 3338POPC   GL244978  10.926  25.149   5.757
 3338POPC   C1A44979  11.364  25.114   6.164
 3338POPC   D2A44980  11.521  25.295   6.567
 3338POPC   C3A44981  11.532  25.115   6.972
 3338POPC   C4A44982  11.615  25.421   7.275
 3338POPC   C1B44983  10.913  25.364   6.142
 3338POPC   C2B44984  11.016  25.195   6.537
 3338POPC   C3B44985  11.011  25.276   6.940
 3338POPC   C4B44986  11.120  25.101   7.279
 3339POPC   NC344987  44.836  23.349   5.482
 3339POPC   PO444988  44.353  23.673   5.111
 3339POPC   GL144989  44.534  23.709   5.626
 3339POPC   GL244990  44.337  23.520   5.920
 3339POPC   C1A44991  44.778  23.667   6.081
 3339POPC   D2A44992  44.515  23.496   6.467
 3339POPC   C3A44993  44.622  23.581   6.925
 3339POPC   C4A44994  44.857  23.827   7.226
 3339POPC   C1B44995  44.343  23.912   6.201
 3339POPC   C2B44996  44.576  24.027   6.591
 3339POPC   C3B44997  44.504  24.139   7.033
 3339POPC   C4B44998  44.395  23.952   7.466
 3340POPC   NC344999   2.407  11.918   5.396
 3340POPC   PO445000   2.410  12.599   5.448
 3340POPC   GL145001   2.679  12.319   5.744
 3340POPC   GL245002   2.619  11.943   5.855
 3340POPC   C1A45003   2.968  12.232   6.094
 3340POPC   D2A45004   2.783  12.096   6.463
 3340POPC   C3A45005   2.883  12.224   6.866
 3340POPC   C4A45006   2.690  12.062   7.238
 3340POPC   C1B45007   2.795  11.663   6.191
 3340POPC   C2B45008   2.978  11.653   6.621
 3340POPC   C3B45009   3.079  11.782   7.048
 3340POPC   C4B45010   3.091  11.764   7.527
 3341POPC   NC345011  18.837  42.294   5.628
 3341POPC   PO445012  18.169  42.189   5.479
 3341POPC   GL145013  18.245  42.400   5.878
 3341POPC   GL245014  18.541  42.546   5.922
 3341POPC   C1A45015  18.286  42.462   6.350
 3341POPC   D2A45016  18.055  42.601   6.667
 3341POPC   C3A45017  18.065  42.407   6.989
 3341POPC   C4A45018  18.234  42.581   7.313
 3341POPC   C1B45019  18.717  42.238   6.232
 3341POPC   C2B45020  18.788  42.455   6.560
 3341POPC   C3B45021  18.541  42.470   6.877
 3341POPC   C4B45022  18.512  42.154   7.170
 3342POPC   NC345023  44.471   4.803   5.557
 3342POPC   PO445024  44.490   5.502   5.390
 3342POPC   GL145025  44.535   5.273   5.781
 3342POPC   GL245026  44.851   5.284   5.937
 3342POPC   C1A45027  44.439   5.199   6.233
 3342POPC   D2A45028  44.580   5.275   6.663
 3342POPC   C3A45029  44.379   5.063   7.002
 3342POPC   C4A45030  44.417   5.419   7.234
 3342POPC   C1B45031  44.920   4.993   6.283
 3342POPC   C2B45032  44.971   4.984   6.720
 3342POPC   C3B45033  44.889   5.146   7.118
 3342POPC   C4B45034  44.966   4.839   7.436
 3343POPC   NC345035  25.697  13.103   5.503
 3343POPC   PO445036  26.245  12.691   5.418
 3343POPC   GL145037  25.982  12.729   5.824
 3343POPC   GL245038  25.684  12.488   5.818
 3343POPC   C1A45039  26.145  12.830   6.286
 3343POPC   D2A45040  26.175  13.067   6.703
 3343POPC   C3A45041  26.230  12.804   7.073
 3343POPC   C4A45042  26.381  12.836   7.518
 3343POPC   C1B45043  25.694  12.600   6.258
 3343POPC   C2B45044  25.774  12.734   6.679
 3343POPC   C3B45045  25.753  12.970   7.046
 3343POPC   C4B45046  25.478  13.174   7.314
 3344POPC   NC345047  36.206  11.830   5.467
 3344POPC   PO445048  36.171  12.529   5.372
 3344POPC   GL145049  36.309  12.276   5.733
 3344POPC   GL245050  35.979  12.144   5.828
 3344POPC   C1A45051  36.346  12.201   6.195
 3344POPC   D2A45052  36.069  12.209   6.562
 3344POPC   C3A45053  36.308  12.179   6.931
 3344POPC   C4A45054  36.165  12.180   7.335
 3344POPC   C1B45055  35.979  11.789   6.107
 3344POPC   C2B45056  35.839  11.697   6.511
 3344POPC   C3B45057  35.916  11.836   6.930
 3344POPC   C4B45058  35.887  11.734   7.365
 3345POPC   NC345059  21.461  26.149   5.316
 3345POPC   PO445060  21.071  25.725   5.647
 3345POPC   GL145061  21.412  26.031   5.791
 3345POPC   GL245062  21.182  26.147   6.015
 3345POPC   C1A45063  21.643  26.111   6.196
 3345POPC   D2A45064  21.573  25.954   6.620
 3345POPC   C3A45065  21.586  26.114   7.044
 3345POPC   C4A45066  21.540  25.798   7.395
 3345POPC   C1B45067  21.119  25.923   6.408
 3345POPC   C2B45068  21.114  26.119   6.824
 3345POPC   C3B45069  21.111  26.063   7.255
 3345POPC   C4B45070  21.050  25.719   7.515
 3346POPC   NC345071  29.597  15.386   5.272
 3346POPC   PO445072  30.191  14.979   5.357
 3346POPC   GL145073  29.942  15.102   5.750
 3346POPC   GL245074  29.608  15.106   5.697
 3346POPC   C1A45075  29.899  15.166   6.213
 3346POPC   D2A45076  30.078  15.038   6.600
 3346POPC   C3A45077  30.004  15.246   6.975
 3346POPC   C4A45078  29.673  15.488   7.152
 3346POPC   C1B45079  29.620  14.794   6.033
 3346POPC   C2B45080  29.682  14.714   6.443
 3346POPC   C3B45081  29.539  14.632   6.827
 3346POPC   C4B45082  29.733  14.850   7.139
 3347POPC   NC345083  40.309  25.299   5.510
 3347POPC   PO445084  39.558  25.526   5.459
 3347POPC   GL145085  39.889  25.473   5.758
 3347POPC   GL245086  39.887  25.100   5.746
 3347POPC   C1A45087  40.123  25.438   6.165
 3347POPC   D2A45088  39.987  25.290   6.572
 3347POPC   C3A45089  40.143  25.149   6.952
 3347POPC   C4A45090  39.921  25.439   7.207
 3347POPC   C1B45091  39.797  25.020   6.189
 3347POPC   C2B45092  39.750  24.844   6.649
 3347POPC   C3B45093  39.654  24.992   7.087
 3347POPC   C4B45094  39.645  25.155   7.517
 3348POPC   NC345095  30.043   2.201   5.134
 3348POPC   PO445096  30.109   2.742   5.445
 3348POPC   GL145097  29.918   2.861   5.861
 3348POPC   GL245098  29.539   2.819   5.945
 3348POPC   C1A45099  30.094   2.946   6.270
 3348POPC   D2A45100  30.331   2.759   6.614
 3348POPC   C3A45101  30.209   2.950   7.020
 3348POPC   C4A45102  30.031   2.888   7.438
 3348POPC   C1B45103  29.734   2.563   6.246
 3348POPC   C2B45104  29.823   2.691   6.646
 3348POPC   C3B45105  29.889   2.528   7.015
 3348POPC   C4B45106  29.550   2.532   7.278
 3349POPC   NC345107  12.189  36.520   5.340
 3349POPC   PO445108  12.275  35.817   5.490
 3349POPC   GL145109  12.187  36.008   5.825
 3349POPC   GL245110  11.896  36.176   5.708
 3349POPC   C1A45111  12.187  35.945   6.257
 3349POPC   D2A45112  12.060  35.712   6.622
 3349POPC   C3A45113  12.181  35.887   7.010
 3349POPC   C4A45114  12.174  36.216   7.304
 3349POPC   C1B45115  11.754  36.417   6.095
 3349POPC   C2B45116  11.687  36.553   6.549
 3349POPC   C3B45117  11.786  36.377   6.985
 3349POPC   C4B45118  11.725  36.493   7.432
 3350POPC   NC345119   1.606  42.798   5.476
 3350POPC   PO445120   1.922  43.400   5.436
 3350POPC   GL145121   1.724  43.287   5.804
 3350POPC   GL245122   1.954  43.025   5.876
 3350POPC   C1A45123   1.781  43.256   6.270
 3350POPC   D2A45124   1.910  43.019   6.636
 3350POPC   C3A45125   2.126  43.273   6.912
 3350POPC   C4A45126   1.900  43.553   7.126
 3350POPC   C1B45127   2.252  43.037   6.237
 3350POPC   C2B45128   2.416  42.933   6.655
 3350POPC   C3B45129   2.163  42.775   7.020
 3350POPC   C4B45130   1.713  42.775   7.122
 3351POPC   NC345131  17.653  44.776   5.156
 3351POPC   PO445132  17.346  44.410   5.580
 3351POPC   GL145133  17.567  44.745   5.726
 3351POPC   GL245134  17.791  44.495   5.852
 3351POPC   C1A45135  17.400  44.857   6.138
 3351POPC   D2A45136  17.341  44.632   6.552
 3351POPC   C3A45137  17.441  44.828   6.983
 3351POPC   C4A45138  17.372  44.839   7.435
 3351POPC   C1B45139  17.859  44.639   6.263
 3351POPC   C2B45140  17.836  44.734   6.672
 3351POPC   C3B45141  17.874  44.548   7.052
 3351POPC   C4B45142  17.872  44.767   7.441
 3352POPC   NC345143  18.461  16.174   5.331
 3352POPC   PO445144  18.804  15.649   5.408
 3352POPC   GL145145  18.547  15.942   5.767
 3352POPC   GL245146  18.633  16.321   5.790
 3352POPC   C1A45147  18.232  16.088   6.112
 3352POPC   D2A45148  18.121  16.267   6.554
 3352POPC   C3A45149  18.077  16.006   6.920
 3352POPC   C4A45150  18.243  15.980   7.328
 3352POPC   C1B45151  18.688  16.285   6.217
 3352POPC   C2B45152  18.604  16.417   6.629
 3352POPC   C3B45153  18.548  16.237   7.017
 3352POPC   C4B45154  18.770  15.952   7.302
 3353POPC   NC345155   1.738  25.412   5.073
 3353POPC   PO445156   2.183  25.028   5.406
 3353POPC   GL145157   2.276  25.124   5.837
 3353POPC   GL245158   1.961  25.170   5.995
 3353POPC   C1A45159   2.372  25.357   6.232
 3353POPC   D2A45160   2.252  25.502   6.638
 3353POPC   C3A45161   2.055  25.179   6.934
 3353POPC   C4A45162   2.210  24.949   7.299
 3353POPC   C1B45163   1.867  25.232   6.413
 3353POPC   C2B45164   1.597  25.338   6.737
 3353POPC   C3B45165   1.576  25.357   7.192
 3353POPC   C4B45166   1.573  25.438   7.661
 3354POPC   NC345167  16.371   4.648   5.300
 3354POPC   PO445168  15.816   4.312   5.346
 3354POPC   GL145169  16.039   4.284   5.773
 3354POPC   GL245170  16.221   3.953   5.852
 3354POPC   C1A45171  16.122   4.421   6.222
 3354POPC   D2A45172  16.265   4.283   6.647
 3354POPC   C3A45173  16.231   4.588   6.978
 3354POPC   C4A45174  15.965   4.524   7.358
 3354POPC   C1B45175  15.964   3.962   6.262
 3354POPC   C2B45176  15.719   4.249   6.500
 3354POPC   C3B45177  15.783   4.332   6.912
 3354POPC   C4B45178  15.683   4.039   7.210
 3355POPC   NC345179  12.615  30.086   5.077
 3355POPC   PO445180  12.995  30.088   5.637
 3355POPC   GL145181  13.026  29.923   5.980
 3355POPC   GL245182  13.182  29.619   5.861
 3355POPC   C1A45183  12.732  30.037   6.304
 3355POPC   D2A45184  12.903  30.219   6.669
 3355POPC   C3A45185  12.702  30.095   7.034
 3355POPC   C4A45186  12.576  29.720   7.138
 3355POPC   C1B45187  12.895  29.493   6.210
 3355POPC   C2B45188  12.892  29.674   6.630
 3355POPC   C3B45189  13.070  29.646   7.010
 3355POPC   C4B45190  12.958  29.604   7.456
 3356POPC   NC345191  12.223  12.205   5.714
 3356POPC   PO445192  12.117  12.752   5.309
 3356POPC   GL145193  12.071  12.770   5.784
 3356POPC   GL245194  11.959  13.122   5.948
 3356POPC   C1A45195  11.957  12.682   6.199
 3356POPC   D2A45196  11.953  13.010   6.514
 3356POPC   C3A45197  12.092  12.843   6.887
 3356POPC   C4A45198  11.991  12.874   7.309
 3356POPC   C1B45199  12.353  13.012   6.186
 3356POPC   C2B45200  12.453  13.137   6.642
 3356POPC   C3B45201  12.496  13.070   7.103
 3356POPC   C4B45202  12.347  13.156   7.540
 3357POPC   NC345203   2.211  16.222   5.494
 3357POPC   PO445204   2.272  15.550   5.422
 3357POPC   GL145205   2.166  15.795   5.816
 3357POPC   GL245206   2.403  16.051   5.921
 3357POPC   C1A45207   1.966  16.088   6.160
 3357POPC   D2A45208   2.166  16.266   6.532
 3357POPC   C3A45209   1.860  16.250   6.856
 3357POPC   C4A45210   1.897  15.863   7.095
 3357POPC   C1B45211   2.379  15.781   6.304
 3357POPC   C2B45212   2.305  15.694   6.766
 3357POPC   C3B45213   2.379  15.719   7.223
 3357POPC   C4B45214   2.479  15.551   7.664
 3358POPC   NC345215  19.046   3.144   5.368
 3358POPC   PO445216  19.352   3.661   5.625
 3358POPC   GL145217  19.017   3.469   5.855
 3358POPC   GL245218  18.850   3.120   5.835
 3358POPC   C1A45219  19.129   3.418   6.294
 3358POPC   D2A45220  19.384   3.353   6.631
 3358POPC   C3A45221  19.190   3.399   6.991
 3358POPC   C4A45222  19.256   3.542   7.358
 3358POPC   C1B45223  18.650   3.316   6.183
 3358POPC   C2B45224  18.593   3.575   6.520
 3358POPC   C3B45225  18.700   3.434   6.894
 3358POPC   C4B45226  18.770   3.674   7.238
 3359POPC   NC345227  26.812  16.942   5.513
 3359POPC   PO445228  27.138  16.415   5.182
 3359POPC   GL145229  27.070  16.555   5.692
 3359POPC   GL245230  26.669  16.540   5.777
 3359POPC   C1A45231  26.938  16.510   6.181
 3359POPC   D2A45232  27.032  16.618   6.596
 3359POPC   C3A45233  26.814  16.573   6.989
 3359POPC   C4A45234  26.954  16.959   7.195
 3359POPC   C1B45235  26.585  16.884   6.145
 3359POPC   C2B45236  26.536  16.882   6.621
 3359POPC   C3B45237  26.467  16.943   7.084
 3359POPC   C4B45238  26.606  16.846   7.550
 3360POPC   NC345239  36.229  35.629   5.418
 3360POPC   PO445240  36.115  34.995   5.476
 3360POPC   GL145241  36.041  35.192   5.877
 3360POPC   GL245242  36.139  35.531   5.900
 3360POPC   C1A45243  36.105  35.276   6.332
 3360POPC   D2A45244  36.460  35.242   6.628
 3360POPC   C3A45245  36.248  35.288   7.016
 3360POPC   C4A45246  35.777  35.210   7.021
 3360POPC   C1B45247  36.396  35.672   6.257
 3360POPC   C2B45248  36.379  35.880   6.670
 3360POPC   C3B45249  36.430  35.761   7.118
 3360POPC   C4B45250  36.287  35.531   7.494
 3361POPC   NC345251  43.556  16.144   5.471
 3361POPC   PO445252  44.069  15.707   5.333
 3361POPC   GL145253  44.142  15.891   5.762
 3361POPC   GL245254  44.007  16.205   5.793
 3361POPC   C1A45255  44.218  15.989   6.215
 3361POPC   D2A45256  44.168  15.794   6.621
 3361POPC   C3A45257  43.894  15.815   6.981
 3361POPC   C4A45258  43.858  15.980   7.396
 3361POPC   C1B45259  43.713  15.935   6.105
 3361POPC   C2B45260  43.556  15.965   6.570
 3361POPC   C3B45261  43.523  16.170   7.003
 3361POPC   C4B45262  43.399  16.124   7.442
 3362POPC   NC345263  17.115  41.476   5.049
 3362POPC   PO445264  17.642  41.758   5.301
 3362POPC   GL145265  17.567  41.923   5.732
 3362POPC   GL245266  17.220  41.885   5.761
 3362POPC   C1A45267  17.737  41.875   6.177
 3362POPC   D2A45268  17.643  41.678   6.617
 3362POPC   C3A45269  17.764  41.518   7.032
 3362POPC   C4A45270  17.525  41.481   7.416
 3362POPC   C1B45271  17.266  41.687   6.188
 3362POPC   C2B45272  17.159  41.504   6.603
 3362POPC   C3B45273  17.227  41.313   7.015
 3362POPC   C4B45274  17.025  41.433   7.440
 3363POPC   NC345275  28.777   7.643   5.423
 3363POPC   PO445276  29.269   8.234   5.384
 3363POPC   GL145277  29.242   8.048   5.796
 3363POPC   GL245278  29.520   8.201   5.934
 3363POPC   C1A45279  29.003   7.904   6.153
 3363POPC   D2A45280  28.749   7.973   6.507
 3363POPC   C3A45281  28.902   7.887   6.920
 3363POPC   C4A45282  28.983   8.066   7.273
 3363POPC   C1B45283  29.245   8.349   6.276
 3363POPC   C2B45284  29.168   8.279   6.716
 3363POPC   C3B45285  29.410   8.259   7.093
 3363POPC   C4B45286  29.319   8.346   7.530
 3364POPC   NC345287   0.698  37.259   5.013
 3364POPC   PO445288   1.279  37.043   5.249
 3364POPC   GL145289   1.175  37.049   5.688
 3364POPC   GL245290   1.482  37.096   5.906
 3364POPC   C1A45291   1.033  37.017   6.131
 3364POPC   D2A45292   1.195  37.083   6.541
 3364POPC   C3A45293   1.020  37.002   6.942
 3364POPC   C4A45294   1.145  36.825   7.325
 3364POPC   C1B45295   1.527  36.798   6.302
 3364POPC   C2B45296   1.430  36.681   6.753
 3364POPC   C3B45297   1.523  36.500   7.177
 3364POPC   C4B45298   1.556  36.741   7.590
 3365POPC   NC345299  19.966  33.735   5.499
 3365POPC   PO445300  19.669  34.314   5.551
 3365POPC   GL145301  19.785  34.022   5.922
 3365POPC   GL245302  19.808  33.635   5.961
 3365POPC   C1A45303  19.858  33.935   6.390
 3365POPC   D2A45304  20.024  33.893   6.824
 3365POPC   C3A45305  19.811  34.199   7.111
 3365POPC   C4A45306  19.521  34.143   7.480
 3365POPC   C1B45307  19.990  33.370   6.279
 3365POPC   C2B45308  20.175  33.322   6.679
 3365POPC   C3B45309  20.020  33.393   7.089
 3365POPC   C4B45310  19.785  33.728   7.312
 3366POPC   NC345311  16.076  39.465   5.416
 3366POPC   PO445312  15.885  38.851   5.307
 3366POPC   GL145313  15.933  39.078   5.730
 3366POPC   GL245314  15.702  39.331   5.814
 3366POPC   C1A45315  16.181  39.334   6.083
 3366POPC   D2A45316  16.311  39.165   6.486
 3366POPC   C3A45317  16.167  39.213   6.908
 3366POPC   C4A45318  16.052  39.112   7.312
 3366POPC   C1B45319  15.749  39.102   6.263
 3366POPC   C2B45320  15.697  39.029   6.728
 3366POPC   C3B45321  15.595  39.234   7.133
 3366POPC   C4B45322  15.562  39.108   7.598
 3367POPC   NC345323  39.950   2.624   5.420
 3367POPC   PO445324  40.142   3.177   5.527
 3367POPC   GL145325  40.089   2.856   5.863
 3367POPC   GL245326  39.783   2.640   5.924
 3367POPC   C1A45327  40.101   2.900   6.311
 3367POPC   D2A45328  39.788   2.918   6.628
 3367POPC   C3A45329  39.969   2.862   7.045
 3367POPC   C4A45330  40.221   3.045   7.394
 3367POPC   C1B45331  39.963   2.417   6.305
 3367POPC   C2B45332  39.779   2.427   6.734
 3367POPC   C3B45333  39.775   2.396   7.169
 3367POPC   C4B45334  39.938   2.614   7.496
 3368POPC   NC345335  29.350   4.362   5.417
 3368POPC   PO445336  28.795   4.750   5.524
 3368POPC   GL145337  29.098   4.540   5.813
 3368POPC   GL245338  29.065   4.153   5.782
 3368POPC   C1A45339  29.371   4.545   6.162
 3368POPC   D2A45340  29.243   4.663   6.557
 3368POPC   C3A45341  28.996   4.375   6.787
 3368POPC   C4A45342  29.089   4.479   7.197
 3368POPC   C1B45343  29.324   3.992   6.135
 3368POPC   C2B45344  29.355   4.124   6.556
 3368POPC   C3B45345  29.207   3.957   6.984
 3368POPC   C4B45346  29.283   4.070   7.426
 3369POPC   NC345347  39.784  15.022   5.482
 3369POPC   PO445348  39.577  15.774   5.401
 3369POPC   GL145349  39.689  15.441   5.776
 3369POPC   GL245350  40.027  15.245   5.868
 3369POPC   C1A45351  39.810  15.513   6.236
 3369POPC   D2A45352  39.613  15.374   6.611
 3369POPC   C3A45353  39.895  15.316   6.947
 3369POPC   C4A45354  39.903  14.954   7.160
 3369POPC   C1B45355  39.928  15.017   6.289
 3369POPC   C2B45356  40.142  14.886   6.676
 3369POPC   C3B45357  40.435  14.953   7.003
 3369POPC   C4B45358  40.316  15.250   7.284
 3370POPC   NC345359  24.679  35.664   5.446
 3370POPC   PO445360  24.574  36.407   5.366
 3370POPC   GL145361  24.481  36.122   5.730
 3370POPC   GL245362  24.245  36.291   5.942
 3370POPC   C1A45363  24.626  36.036   6.191
 3370POPC   D2A45364  24.678  36.226   6.626
 3370POPC   C3A45365  24.574  36.052   7.041
 3370POPC   C4A45366  24.718  35.765   7.378
 3370POPC   C1B45367  24.268  36.415   6.365
 3370POPC   C2B45368  24.181  36.332   6.783
 3370POPC   C3B45369  24.371  36.536   7.076
 3370POPC   C4B45370  24.288  36.587   7.476
 3371POPC   NC345371  34.875  29.745   5.473
 3371POPC   PO445372  35.491  30.142   5.456
 3371POPC   GL145373  35.328  30.010   5.807
 3371POPC   GL245374  35.252  29.673   5.797
 3371POPC   C1A45375  35.478  29.939   6.222
 3371POPC   D2A45376  35.316  29.718   6.594
 3371POPC   C3A45377  35.497  29.850   7.025
 3371POPC   C4A45378  35.509  29.731   7.501
 3371POPC   C1B45379  34.954  29.841   6.127
 3371POPC   C2B45380  34.843  29.974   6.534
 3371POPC   C3B45381  34.937  29.788   6.919
 3371POPC   C4B45382  35.060  29.869   7.306
 3372POPC   NC345383  35.913  21.500   5.394
 3372POPC   PO445384  36.525  21.338   5.437
 3372POPC   GL145385  36.256  21.398   5.786
 3372POPC   GL245386  35.968  21.140   5.763
 3372POPC   C1A45387  36.264  21.284   6.218
 3372POPC   D2A45388  36.090  21.485   6.569
 3372POPC   C3A45389  36.227  21.505   6.980
 3372POPC   C4A45390  35.951  21.629   7.285
 3372POPC   C1B45391  35.759  21.270   6.140
 3372POPC   C2B45392  35.753  21.094   6.540
 3372POPC   C3B45393  35.747  21.289   6.937
 3372POPC   C4B45394  35.960  21.121   7.267
 3373POPC   NC345395   6.986   6.006   5.201
 3373POPC   PO445396   7.379   6.226   5.631
 3373POPC   GL145397   7.265   5.843   5.935
 3373POPC   GL245398   6.957   5.687   5.914
 3373POPC   C1A45399   7.478   5.786   6.314
 3373POPC   D2A45400   7.794   5.658   6.629
 3373POPC   C3A45401   7.505   5.698   6.974
 3373POPC   C4A45402   7.545   6.040   7.268
 3373POPC   C1B45403   6.930   6.109   6.160
 3373POPC   C2B45404   7.183   6.182   6.529
 3373POPC   C3B45405   7.096   6.066   6.968
 3373POPC   C4B45406   7.075   5.831   7.343
 3374POPC   NC345407  20.659  38.742   5.477
 3374POPC   PO445408  20.337  38.155   5.479
 3374POPC   GL145409  20.721  38.282   5.752
 3374POPC   GL245410  20.893  38.583   5.897
 3374POPC   C1A45411  20.771  38.159   6.193
 3374POPC   D2A45412  20.530  38.058   6.552
 3374POPC   C3A45413  20.494  38.287   6.943
 3374POPC   C4A45414  20.571  38.104   7.344
 3374POPC   C1B45415  20.533  38.613   6.204
 3374POPC   C2B45416  20.505  38.799   6.629
 3374POPC   C3B45417  20.610  38.794   7.056
 3374POPC   C4B45418  20.630  38.594   7.467
 3375POPC   NC345419  43.374  27.225   5.294
 3375POPC   PO445420  42.891  27.772   5.319
 3375POPC   GL145421  43.084  27.718   5.741
 3375POPC   GL245422  43.423  27.564   5.698
 3375POPC   C1A45423  43.070  27.687   6.216
 3375POPC   D2A45424  43.240  27.922   6.558
 3375POPC   C3A45425  43.089  27.845   6.958
 3375POPC   C4A45426  43.307  27.630   7.235
 3375POPC   C1B45427  43.178  27.256   5.952
 3375POPC   C2B45428  43.157  27.176   6.387
 3375POPC   C3B45429  43.157  27.290   6.836
 3375POPC   C4B45430  43.103  27.154   7.262
 3376POPC   NC345431  23.840  26.718   5.376
 3376POPC   PO445432  23.135  26.628   5.182
 3376POPC   GL145433  23.367  26.786   5.607
 3376POPC   GL245434  23.713  26.959   5.789
 3376POPC   C1A45435  23.399  26.730   6.069
 3376POPC   D2A45436  23.789  26.642   6.355
 3376POPC   C3A45437  23.743  26.672   6.795
 3376POPC   C4A45438  23.448  26.797   7.163
 3376POPC   C1B45439  23.689  27.132   6.259
 3376POPC   C2B45440  23.820  27.168   6.760
 3376POPC   C3B45441  23.956  26.909   7.189
 3376POPC   C4B45442  24.007  27.069   7.639
 3377POPC   NC345443  34.483  38.005   5.616
 3377POPC   PO445444  34.638  38.660   5.450
 3377POPC   GL145445  34.707  38.459   5.821
 3377POPC   GL245446  34.941  38.216   5.799
 3377POPC   C1A45447  34.497  38.274   6.200
 3377POPC   D2A45448  34.256  38.065   6.511
 3377POPC   C3A45449  34.407  38.233   6.907
 3377POPC   C4A45450  34.486  38.463   7.281
 3377POPC   C1B45451  35.008  38.373   6.229
 3377POPC   C2B45452  34.780  38.476   6.597
 3377POPC   C3B45453  34.909  38.368   7.008
 3377POPC   C4B45454  34.891  38.195   7.459
 3378POPC   NC345455  32.040  29.224   5.485
 3378POPC   PO445456  32.766  29.384   5.463
 3378POPC   GL145457  32.580  29.170   5.838
 3378POPC   GL245458  32.240  29.007   5.901
 3378POPC   C1A45459  32.494  29.165   6.295
 3378POPC   D2A45460  32.267  29.349   6.598
 3378POPC   C3A45461  32.442  29.246   6.996
 3378POPC   C4A45462  32.262  29.430   7.353
 3378POPC   C1B45463  31.967  29.259   6.157
 3378POPC   C2B45464  31.739  29.255   6.547
 3378POPC   C3B45465  31.922  29.149   6.926
 3378POPC   C4B45466  31.782  28.982   7.293
 3379POPC   NC345467  30.543  27.347   5.422
 3379POPC   PO445468  30.296  27.923   5.524
 3379POPC   GL145469  30.620  27.823   5.863
 3379POPC   GL245470  30.690  27.461   5.904
 3379POPC   C1A45471  30.759  27.853   6.332
 3379POPC   D2A45472  31.053  27.587   6.633
 3379POPC   C3A45473  31.065  27.680   7.092
 3379POPC   C4A45474  30.703  27.645   7.358
 3379POPC   C1B45475  30.678  27.347   6.344
 3379POPC   C2B45476  30.572  27.403   6.799
 3379POPC   C3B45477  30.686  27.164   7.166
 3379POPC   C4B45478  30.636  27.074   7.604
 3380POPC   NC345479  16.312  17.502   5.365
 3380POPC   PO445480  15.876  17.927   5.370
 3380POPC   GL145481  16.117  17.780   5.773
 3380POPC   GL245482  16.196  17.398   5.881
 3380POPC   C1A45483  16.021  17.734   6.239
 3380POPC   D2A45484  16.108  17.716   6.677
 3380POPC   C3A45485  15.845  17.684   7.054
 3380POPC   C4A45486  16.023  17.687   7.478
 3380POPC   C1B45487  15.932  17.215   6.272
 3380POPC   C2B45488  15.953  17.228   6.776
 3380POPC   C3B45489  16.175  17.259   7.201
 3380POPC   C4B45490  16.263  16.902   7.529
 3381POPC   NC345491  25.514  18.484   5.439
 3381POPC   PO445492  25.208  17.910   5.451
 3381POPC   GL145493  25.302  18.100   5.839
 3381POPC   GL245494  25.657  18.102   5.838
 3381POPC   C1A45495  25.371  18.271   6.277
 3381POPC   D2A45496  25.143  18.583   6.511
 3381POPC   C3A45497  25.106  18.529   6.951
 3381POPC   C4A45498  25.323  18.447   7.323
 3381POPC   C1B45499  25.833  18.454   6.106
 3381POPC   C2B45500  25.758  18.634   6.506
 3381POPC   C3B45501  25.618  18.444   6.883
 3381POPC   C4B45502  25.832  18.485   7.280
 3382POPC   NC345503  42.100  23.478   5.626
 3382POPC   PO445504  42.597  23.800   5.270
 3382POPC   GL145505  42.465  23.947   5.702
 3382POPC   GL245506  42.118  24.007   5.668
 3382POPC   C1A45507  42.388  23.909   6.163
 3382POPC   D2A45508  42.229  23.683   6.530
 3382POPC   C3A45509  42.447  23.666   6.928
 3382POPC   C4A45510  42.515  23.586   7.371
 3382POPC   C1B45511  42.025  24.242   6.072
 3382POPC   C2B45512  41.886  24.131   6.500
 3382POPC   C3B45513  42.154  24.094   6.859
 3382POPC   C4B45514  42.137  23.942   7.267
 3383POPC   NC345515  39.690  25.960   5.556
 3383POPC   PO445516  40.339  25.783   5.552
 3383POPC   GL145517  40.107  25.953   5.870
 3383POPC   GL245518  39.922  26.246   5.889
 3383POPC   C1A45519  39.982  25.925   6.277
 3383POPC   D2A45520  40.202  25.819   6.609
 3383POPC   C3A45521  39.989  25.889   6.987
 3383POPC   C4A45522  40.200  25.831   7.396
 3383POPC   C1B45523  39.872  26.464   6.240
 3383POPC   C2B45524  40.005  26.345   6.621
 3383POPC   C3B45525  39.896  26.479   7.017
 3383POPC   C4B45526  40.009  26.275   7.374
 3384POPC   NC345527  21.228  17.857   5.615
 3384POPC   PO445528  21.500  17.337   5.334
 3384POPC   GL145529  21.437  17.399   5.801
 3384POPC   GL245530  21.729  17.550   5.955
 3384POPC   C1A45531  21.273  17.590   6.212
 3384POPC   D2A45532  21.354  17.816   6.570
 3384POPC   C3A45533  21.486  17.542   6.877
 3384POPC   C4A45534  21.477  17.591   7.302
 3384POPC   C1B45535  21.624  17.204   6.272
 3384POPC   C2B45536  21.798  17.158   6.696
 3384POPC   C3B45537  21.713  17.156   7.144
 3384POPC   C4B45538  21.644  17.166   7.591
 3385POPC   NC345539  35.510   9.863   5.117
 3385POPC   PO445540  35.371   9.235   5.366
 3385POPC   GL145541  35.414   9.622   5.588
 3385POPC   GL245542  35.051   9.673   5.675
 3385POPC   C1A45543  35.534   9.769   6.029
 3385POPC   D2A45544  35.741   9.693   6.471
 3385POPC   C3A45545  35.611   9.883   6.879
 3385POPC   C4A45546  35.348   9.704   7.195
 3385POPC   C1B45547  35.036   9.975   6.024
 3385POPC   C2B45548  35.010  10.104   6.447
 3385POPC   C3B45549  35.086   9.784   6.740
 3385POPC   C4B45550  34.910   9.438   6.996
 3386POPC   NC345551   4.686  25.269   5.452
 3386POPC   PO445552   3.992  25.264   5.449
 3386POPC   GL145553   4.265  25.218   5.828
 3386POPC   GL245554   4.592  24.988   5.862
 3386POPC   C1A45555   4.307  25.445   6.234
 3386POPC   D2A45556   4.189  25.633   6.668
 3386POPC   C3A45557   4.282  25.429   7.073
 3386POPC   C4A45558   4.206  25.462   7.553
 3386POPC   C1B45559   4.366  24.905   6.223
 3386POPC   C2B45560   4.393  25.083   6.599
 3386POPC   C3B45561   4.514  24.968   6.965
 3386POPC   C4B45562   4.276  24.972   7.318
 3387POPC   NC345563  29.954   6.399   5.333
 3387POPC   PO445564  30.345   6.935   5.249
 3387POPC   GL145565  30.274   6.740   5.707
 3387POPC   GL245566  29.935   6.588   5.815
 3387POPC   C1A45567  30.344   6.468   6.102
 3387POPC   D2A45568  30.058   6.434   6.499
 3387POPC   C3A45569  30.181   6.621   6.926
 3387POPC   C4A45570  29.986   6.507   7.326
 3387POPC   C1B45571  29.668   6.784   6.122
 3387POPC   C2B45572  29.540   6.638   6.509
 3387POPC   C3B45573  29.677   6.669   6.930
 3387POPC   C4B45574  29.780   6.973   7.254
 3388POPC   NC345575  38.096  15.437   5.377
 3388POPC   PO445576  38.403  14.824   5.262
 3388POPC   GL145577  38.530  15.126   5.651
 3388POPC   GL245578  38.315  15.279   5.839
 3388POPC   C1A45579  38.806  15.076   6.112
 3388POPC   D2A45580  38.727  14.834   6.507
 3388POPC   C3A45581  38.811  15.079   6.898
 3388POPC   C4A45582  38.618  15.061   7.300
 3388POPC   C1B45583  38.069  15.291   6.194
 3388POPC   C2B45584  37.904  15.416   6.588
 3388POPC   C3B45585  38.107  15.447   6.983
 3388POPC   C4B45586  38.249  15.499   7.396
 3389POPC   NC345587  39.073  15.643   5.331
 3389POPC   PO445588  39.311  14.991   5.451
 3389POPC   GL145589  39.219  15.217   5.810
 3389POPC   GL245590  38.928  15.393   5.740
 3389POPC   C1A45591  39.344  15.125   6.231
 3389POPC   D2A45592  39.220  14.925   6.613
 3389POPC   C3A45593  39.422  15.072   6.992
 3389POPC   C4A45594  39.481  15.113   7.427
 3389POPC   C1B45595  38.831  15.577   6.135
 3389POPC   C2B45596  39.012  15.422   6.540
 3389POPC   C3B45597  39.169  15.500   6.966
 3389POPC   C4B45598  39.128  15.501   7.446
 3390POPC   NC345599  30.495  18.111   5.420
 3390POPC   PO445600  30.984  18.592   5.360
 3390POPC   GL145601  30.880  18.319   5.687
 3390POPC   GL245602  31.073  18.453   5.901
 3390POPC   C1A45603  30.724  18.120   6.090
 3390POPC   D2A45604  30.510  18.009   6.478
 3390POPC   C3A45605  30.563  18.020   6.925
 3390POPC   C4A45606  30.827  17.830   7.248
 3390POPC   C1B45607  31.072  18.469   6.299
 3390POPC   C2B45608  30.908  18.285   6.600
 3390POPC   C3B45609  31.049  18.129   6.921
 3390POPC   C4B45610  30.955  18.351   7.279
 3391POPC   NC345611   5.058  39.183   5.465
 3391POPC   PO445612   5.791  39.071   5.510
 3391POPC   GL145613   5.466  39.280   5.739
 3391POPC   GL245614   5.351  38.934   5.799
 3391POPC   C1A45615   5.247  39.416   6.128
 3391POPC   D2A45616   5.262  39.620   6.544
 3391POPC   C3A45617   5.067  39.470   6.912
 3391POPC   C4A45618   4.901  39.455   7.313
 3391POPC   C1B45619   5.607  39.036   6.158
 3391POPC   C2B45620   5.389  39.127   6.548
 3391POPC   C3B45621   5.182  38.971   6.910
 3391POPC   C4B45622   5.340  39.127   7.292
 3392POPC   NC345623  20.081  18.755   5.454
 3392POPC   PO445624  19.763  19.295   5.171
 3392POPC   GL145625  19.773  19.298   5.658
 3392POPC   GL245626  19.789  18.942   5.839
 3392POPC   C1A45627  19.657  19.355   6.117
 3392POPC   D2A45628  19.660  19.134   6.525
 3392POPC   C3A45629  19.839  19.271   6.926
 3392POPC   C4A45630  19.678  19.193   7.350
 3392POPC   C1B45631  19.995  18.705   6.218
 3392POPC   C2B45632  19.951  18.751   6.660
 3392POPC   C3B45633  19.886  18.751   7.079
 3392POPC   C4B45634  20.198  18.529   7.275
 3393POPC   NC345635   2.013   5.606   5.355
 3393POPC   PO445636   1.993   6.204   5.437
 3393POPC   GL145637   1.968   6.046   5.822
 3393POPC   GL245638   2.144   5.727   5.830
 3393POPC   C1A45639   1.765   5.992   6.232
 3393POPC   D2A45640   1.513   6.115   6.607
 3393POPC   C3A45641   1.748   5.973   6.967
 3393POPC   C4A45642   2.044   6.058   7.260
 3393POPC   C1B45643   1.974   5.512   6.182
 3393POPC   C2B45644   1.892   5.607   6.616
 3393POPC   C3B45645   2.152   5.611   6.997
 3393POPC   C4B45646   2.412   5.728   7.397
 3394POPC   NC345647   8.806  30.313   5.338
 3394POPC   PO445648   9.158  30.877   5.338
 3394POPC   GL145649   9.100  30.599   5.666
 3394POPC   GL245650   8.750  30.705   5.682
 3394POPC   C1A45651   9.039  30.548   6.103
 3394POPC   D2A45652   8.909  30.450   6.526
 3394POPC   C3A45653   9.075  30.619   6.886
 3394POPC   C4A45654   9.147  30.480   7.281
 3394POPC   C1B45655   8.860  31.037   6.000
 3394POPC   C2B45656   8.755  31.097   6.449
 3394POPC   C3B45657   8.868  31.112   6.889
 3394POPC   C4B45658   8.761  30.877   7.277
 3395POPC   NC345659  30.102  19.716   5.309
 3395POPC   PO445660  29.455  19.948   5.251
 3395POPC   GL145661  29.648  19.774   5.624
 3395POPC   GL245662  29.932  19.967   5.746
 3395POPC   C1A45663  29.639  19.698   6.087
 3395POPC   D2A45664  29.854  19.865   6.474
 3395POPC   C3A45665  29.730  19.711   6.900
 3395POPC   C4A45666  29.807  19.828   7.346
 3395POPC   C1B45667  30.160  19.692   6.060
 3395POPC   C2B45668  30.362  19.731   6.482
 3395POPC   C3B45669  30.222  19.866   6.911
 3395POPC   C4B45670  30.316  19.768   7.341
 3396POPC   NC345671  15.636   1.016   5.421
 3396POPC   PO445672  16.308   1.225   5.399
 3396POPC   GL145673  16.073   1.128   5.772
 3396POPC   GL245674  15.757   1.322   5.809
 3396POPC   C1A45675  15.983   1.126   6.227
 3396POPC   D2A45676  15.977   1.333   6.609
 3396POPC   C3A45677  15.827   1.144   6.988
 3396POPC   C4A45678  16.000   0.972   7.367
 3396POPC   C1B45679  15.716   1.602   6.169
 3396POPC   C2B45680  15.787   1.800   6.560
 3396POPC   C3B45681  15.795   1.676   7.001
 3396POPC   C4B45682  15.684   1.865   7.404
 3397POPC   NC345683  30.561  32.094   5.419
 3397POPC   PO445684  31.162  32.309   5.335
 3397POPC   GL145685  31.017  32.174   5.766
 3397POPC   GL245686  30.703  31.974   5.909
 3397POPC   C1A45687  30.915  32.364   6.188
 3397POPC   D2A45688  30.551  32.323   6.465
 3397POPC   C3A45689  30.660  32.381   6.879
 3397POPC   C4A45690  30.454  32.512   7.204
 3397POPC   C1B45691  30.884  31.860   6.309
 3397POPC   C2B45692  30.865  31.931   6.755
 3397POPC   C3B45693  30.706  31.963   7.210
 3397POPC   C4B45694  30.685  32.015   7.667
 3398POPC   NC345695  34.860   5.050   5.302
 3398POPC   PO445696  34.268   5.198   5.558
 3398POPC   GL145697  34.495   5.180   5.908
 3398POPC   GL245698  34.247   5.369   6.055
 3398POPC   C1A45699  34.665   5.072   6.323
 3398POPC   D2A45700  34.850   5.289   6.692
 3398POPC   C3A45701  34.783   5.158   7.127
 3398POPC   C4A45702  34.922   5.206   7.551
 3398POPC   C1B45703  34.133   4.961   6.208
 3398POPC   C2B45704  34.019   4.845   6.597
 3398POPC   C3B45705  34.164   5.029   6.954
 3398POPC   C4B45706  34.367   4.798   7.207
 3399POPC   NC345707  42.063  15.768   5.532
 3399POPC   PO445708  42.472  16.251   5.605
 3399POPC   GL145709  42.455  15.829   5.855
 3399POPC   GL245710  42.147  15.737   6.033
 3399POPC   C1A45711  42.594  15.651   6.230
 3399POPC   D2A45712  42.346  15.926   6.502
 3399POPC   C3A45713  42.415  15.897   6.928
 3399POPC   C4A45714  42.148  15.730   7.234
 3399POPC   C1B45715  42.068  16.194   6.139
 3399POPC   C2B45716  42.169  16.422   6.513
 3399POPC   C3B45717  42.094  16.306   6.926
 3399POPC   C4B45718  42.046  16.212   7.359
 3400POPC   NC345719   7.039  18.831   5.379
 3400POPC   PO445720   7.689  19.120   5.560
 3400POPC   GL145721   7.352  19.106   5.849
 3400POPC   GL245722   7.197  18.759   5.877
 3400POPC   C1A45723   7.383  19.281   6.261
 3400POPC   D2A45724   7.656  19.435   6.574
 3400POPC   C3A45725   7.464  19.357   6.992
 3400POPC   C4A45726   7.422  19.155   7.415
 3400POPC   C1B45727   7.552  18.787   6.214
 3400POPC   C2B45728   7.637  18.889   6.676
 3400POPC   C3B45729   7.457  18.733   7.101
 3400POPC   C4B45730   7.310  18.689   7.570
 3401POPC   NC345731   6.274  30.397   5.193
 3401POPC   PO445732   5.859  30.859   5.300
 3401POPC   GL145733   5.948  30.829   5.770
 3401POPC   GL245734   6.146  31.028   5.919
 3401POPC   C1A45735   5.782  30.658   6.169
 3401POPC   D2A45736   5.563  30.577   6.564
 3401POPC   C3A45737   5.814  30.455   6.933
 3401POPC   C4A45738   5.600  30.620   7.270
 3401POPC   C1B45739   6.189  30.928   6.355
 3401POPC   C2B45740   5.964  30.910   6.737
 3401POPC   C3B45741   6.043  30.883   7.187
 3401POPC   C4B45742   5.927  30.814   7.615
 3402POPC   NC345743   7.856  35.230   5.484
 3402POPC   PO445744   7.653  35.806   5.189
 3402POPC   GL145745   7.575  35.639   5.659
 3402POPC   GL245746   7.878  35.637   5.896
 3402POPC   C1A45747   7.376  35.495   6.083
 3402POPC   D2A45748   7.145  35.337   6.477
 3402POPC   C3A45749   7.120  35.403   6.936
 3402POPC   C4A45750   7.035  35.054   7.202
 3402POPC   C1B45751   7.823  35.458   6.336
 3402POPC   C2B45752   7.582  35.587   6.725
 3402POPC   C3B45753   7.624  35.374   7.135
 3402POPC   C4B45754   7.739  35.459   7.578
 3403POPC   NC345755  33.597  17.065   5.482
 3403POPC   PO445756  34.226  16.694   5.437
 3403POPC   GL145757  33.968  16.796   5.783
 3403POPC   GL245758  33.779  17.056   5.941
 3403POPC   C1A45759  34.032  16.728   6.221
 3403POPC   D2A45760  34.167  16.914   6.576
 3403POPC   C3A45761  33.981  16.798   6.969
 3403POPC   C4A45762  33.831  16.415   7.150
 3403POPC   C1B45763  33.503  16.768   6.201
 3403POPC   C2B45764  33.279  16.814   6.617
 3403POPC   C3B45765  33.460  16.819   7.044
 3403POPC   C4B45766  33.669  17.003   7.384
 3404POPC   NC345767  11.783  37.370   5.396
 3404POPC   PO445768  12.333  37.693   5.328
 3404POPC   GL145769  12.287  37.918   5.725
 3404POPC   GL245770  12.053  37.647   5.779
 3404POPC   C1A45771  12.123  37.962   6.172
 3404POPC   D2A45772  11.817  37.816   6.487
 3404POPC   C3A45773  11.988  37.839   6.853
 3404POPC   C4A45774  12.011  37.848   7.268
 3404POPC   C1B45775  11.984  37.450   6.173
 3404POPC   C2B45776  12.061  37.344   6.607
 3404POPC   C3B45777  11.955  37.367   7.027
 3404POPC   C4B45778  12.148  37.379   7.395
 3405POPC   NC345779  31.473  17.560   5.539
 3405POPC   PO445780  30.981  17.188   5.635
 3405POPC   GL145781  31.213  17.410   5.966
 3405POPC   GL245782  31.561  17.590   6.038
 3405POPC   C1A45783  31.249  17.421   6.409
 3405POPC   D2A45784  31.407  17.695   6.686
 3405POPC   C3A45785  31.235  17.635   7.027
 3405POPC   C4A45786  31.248  17.234   7.186
 3405POPC   C1B45787  31.813  17.542   6.431
 3405POPC   C2B45788  31.968  17.845   6.745
 3405POPC   C3B45789  31.952  17.880   7.170
 3405POPC   C4B45790  31.647  17.567   7.299
 3406POPC   NC345791  18.575  22.559   5.445
 3406POPC   PO445792  17.955  22.632   5.483
 3406POPC   GL145793  18.165  22.853   5.840
 3406POPC   GL245794  18.060  23.193   5.795
 3406POPC   C1A45795  18.354  22.912   6.285
 3406POPC   D2A45796  18.554  22.830   6.679
 3406POPC   C3A45797  18.297  23.017   7.007
 3406POPC   C4A45798  18.282  22.898   7.431
 3406POPC   C1B45799  18.073  23.330   6.209
 3406POPC   C2B45800  17.950  23.278   6.643
 3406POPC   C3B45801  17.673  23.431   6.978
 3406POPC   C4B45802  18.048  23.483   7.140
 3407POPC   NC345803   0.573   9.624   5.306
 3407POPC   PO445804  44.916   9.502   5.579
 3407POPC   GL145805   0.311   9.584   5.777
 3407POPC   GL245806   0.691   9.552   5.780
 3407POPC   C1A45807   0.366   9.737   6.195
 3407POPC   D2A45808   0.498   9.519   6.556
 3407POPC   C3A45809   0.351   9.549   6.967
 3407POPC   C4A45810   0.589   9.894   7.066
 3407POPC   C1B45811   0.879   9.428   6.134
 3407POPC   C2B45812   0.938   9.265   6.522
 3407POPC   C3B45813   0.888   9.472   6.890
 3407POPC   C4B45814   0.763   9.431   7.277
 3408POPC   NC345815   2.601   4.445   5.360
 3408POPC   PO445816   2.919   3.990   5.632
 3408POPC   GL145817   2.772   4.362   5.850
 3408POPC   GL245818   2.410   4.555   5.820
 3408POPC   C1A45819   2.997   4.401   6.250
 3408POPC   D2A45820   3.301   4.297   6.593
 3408POPC   C3A45821   3.025   4.193   6.937
 3408POPC   C4A45822   2.810   4.356   7.281
 3408POPC   C1B45823   2.481   4.491   6.235
 3408POPC   C2B45824   2.620   4.664   6.607
 3408POPC   C3B45825   2.469   4.540   6.974
 3408POPC   C4B45826   2.266   4.701   7.304
 3409POPC   NC345827   5.585  41.807   5.621
 3409POPC   PO445828   5.449  41.322   5.155
 3409POPC   GL145829   5.291  41.377   5.651
 3409POPC   GL245830   4.930  41.393   5.770
 3409POPC   C1A45831   5.355  41.444   6.101
 3409POPC   D2A45832   5.335  41.633   6.518
 3409POPC   C3A45833   5.293  41.355   6.851
 3409POPC   C4A45834   5.275  41.448   7.289
 3409POPC   C1B45835   4.892  41.632   6.153
 3409POPC   C2B45836   4.817  41.512   6.576
 3409POPC   C3B45837   4.858  41.605   6.995
 3409POPC   C4B45838   4.694  41.972   7.152
 3410POPC   NC345839  39.795  12.530   5.577
 3410POPC   PO445840  39.126  12.406   5.571
 3410POPC   GL145841  39.299  12.050   5.801
 3410POPC   GL245842  39.575  12.233   5.984
 3410POPC   C1A45843  39.132  11.777   6.148
 3410POPC   D2A45844  38.937  11.847   6.558
 3410POPC   C3A45845  39.217  12.028   6.869
 3410POPC   C4A45846  39.301  12.017   7.294
 3410POPC   C1B45847  39.200  12.289   6.255
 3410POPC   C2B45848  38.957  12.386   6.612
 3410POPC   C3B45849  38.871  12.332   7.076
 3410POPC   C4B45850  38.972  12.304   7.567
 3411POPC   NC345851  43.619  21.643   5.489
 3411POPC   PO445852  43.252  20.996   5.512
 3411POPC   GL145853  43.447  21.331   5.849
 3411POPC   GL245854  43.398  21.726   5.955
 3411POPC   C1A45855  43.367  21.347   6.303
 3411POPC   D2A45856  43.278  21.476   6.713
 3411POPC   C3A45857  43.214  21.091   6.955
 3411POPC   C4A45858  43.171  20.915   7.375
 3411POPC   C1B45859  43.078  21.779   6.335
 3411POPC   C2B45860  42.860  21.803   6.732
 3411POPC   C3B45861  43.023  21.621   7.141
 3411POPC   C4B45862  43.021  21.392   7.541
 3412POPC   NC345863  35.601  11.626   5.246
 3412POPC   PO445864  35.293  11.033   5.389
 3412POPC   GL145865  35.445  11.203   5.770
 3412POPC   GL245866  35.524  11.548   5.901
 3412POPC   C1A45867  35.442  11.060   6.171
 3412POPC   D2A45868  35.609  11.202   6.527
 3412POPC   C3A45869  35.517  11.004   6.892
 3412POPC   C4A45870  35.425  11.126   7.297
 3412POPC   C1B45871  35.319  11.591   6.325
 3412POPC   C2B45872  35.422  11.603   6.793
 3412POPC   C3B45873  35.374  11.659   7.222
 3412POPC   C4B45874  35.140  11.488   7.565
 3413POPC   NC345875   1.507  43.598   5.320
 3413POPC   PO445876   1.176  42.954   5.302
 3413POPC   GL145877   1.244  43.028   5.732
 3413POPC   GL245878   1.200  43.363   5.737
 3413POPC   C1A45879   1.072  42.925   6.110
 3413POPC   D2A45880   0.998  43.009   6.532
 3413POPC   C3A45881   1.256  42.792   6.831
 3413POPC   C4A45882   1.129  42.893   7.234
 3413POPC   C1B45883   1.290  43.364   6.218
 3413POPC   C2B45884   1.449  43.248   6.658
 3413POPC   C3B45885   1.486  43.248   7.119
 3413POPC   C4B45886   1.222  43.329   7.492
 3414POPC   NC345887  25.868  12.420   5.331
 3414POPC   PO445888  26.212  11.876   5.391
 3414POPC   GL145889  25.937  12.039   5.709
 3414POPC   GL245890  26.184  12.279   5.722
 3414POPC   C1A45891  25.922  12.164   6.146
 3414POPC   D2A45892  26.089  12.350   6.527
 3414POPC   C3A45893  26.039  12.028   6.828
 3414POPC   C4A45894  25.918  11.946   7.226
 3414POPC   C1B45895  26.376  12.417   6.081
 3414POPC   C2B45896  26.569  12.187   6.410
 3414POPC   C3B45897  26.549  12.169   6.860
 3414POPC   C4B45898  26.418  11.899   7.179
 3415POPC   NC345899   3.196  11.413   5.469
 3415POPC   PO445900   3.722  11.411   5.054
 3415POPC   GL145901   3.784  11.212   5.567
 3415POPC   GL245902   3.490  11.221   5.824
 3415POPC   C1A45903   3.932  11.270   6.047
 3415POPC   D2A45904   4.098  11.320   6.504
 3415POPC   C3A45905   3.792  11.400   6.850
 3415POPC   C4A45906   3.769  11.308   7.288
 3415POPC   C1B45907   3.456  11.130   6.281
 3415POPC   C2B45908   3.210  11.206   6.643
 3415POPC   C3B45909   3.129  11.027   7.049
 3415POPC   C4B45910   3.227  11.247   7.425
 3416POPC   NC345911  40.549  14.803   5.506
 3416POPC   PO445912  40.933  14.191   5.475
 3416POPC   GL145913  40.843  14.217   5.875
 3416POPC   GL245914  41.198  14.120   5.909
 3416POPC   C1A45915  40.749  14.571   6.171
 3416POPC   D2A45916  40.570  14.631   6.603
 3416POPC   C3A45917  40.667  14.436   7.013
 3416POPC   C4A45918  40.889  14.527   7.409
 3416POPC   C1B45919  41.105  14.225   6.320
 3416POPC   C2B45920  40.995  14.144   6.726
 3416POPC   C3B45921  41.230  14.202   7.080
 3416POPC   C4B45922  41.230  14.187   7.523
 3417POPC   NC345923  43.572   0.395   5.413
 3417POPC   PO445924  42.978   0.805   5.420
 3417POPC   GL145925  43.142   0.545   5.777
 3417POPC   GL245926  43.442   0.739   5.836
 3417POPC   C1A45927  43.147   0.244   6.169
 3417POPC   D2A45928  42.989   0.390   6.583
 3417POPC   C3A45929  43.055   0.295   7.032
 3417POPC   C4A45930  43.013  44.980   7.397
 3417POPC   C1B45931  43.327   0.690   6.289
 3417POPC   C2B45932  43.496   0.505   6.664
 3417POPC   C3B45933  43.574   0.725   7.060
 3417POPC   C4B45934  43.463   0.654   7.503
 3418POPC   NC345935   7.254  43.857   5.408
 3418POPC   PO445936   7.854  43.542   5.307
 3418POPC   GL145937   7.698  43.857   5.655
 3418POPC   GL245938   7.524  43.615   5.816
 3418POPC   C1A45939   7.458  44.107   6.047
 3418POPC   D2A45940   7.350  44.043   6.537
 3418POPC   C3A45941   7.486  44.048   7.031
 3418POPC   C4A45942   7.241  44.157   7.391
 3418POPC   C1B45943   7.350  43.636   6.213
 3418POPC   C2B45944   7.512  43.555   6.606
 3418POPC   C3B45945   7.237  43.650   6.900
 3418POPC   C4B45946   7.311  43.621   7.318
 3419POPC   NC345947  21.385  16.893   5.401
 3419POPC   PO445948  21.755  16.356   5.287
 3419POPC   GL145949  21.691  16.585   5.723
 3419POPC   GL245950  21.417  16.854   5.900
 3419POPC   C1A45951  21.599  16.464   6.154
 3419POPC   D2A45952  21.670  16.665   6.551
 3419POPC   C3A45953  21.390  16.873   6.818
 3419POPC   C4A45954  21.441  16.713   7.215
 3419POPC   C1B45955  21.193  16.753   6.314
 3419POPC   C2B45956  20.909  16.744   6.679
 3419POPC   C3B45957  20.941  16.919   7.086
 3419POPC   C4B45958  21.212  17.145   7.314
 3420POPC   NC345959  29.233  14.210   5.368
 3420POPC   PO445960  29.329  14.912   5.280
 3420POPC   GL145961  29.288  14.676   5.667
 3420POPC   GL245962  29.496  14.388   5.787
 3420POPC   C1A45963  29.120  14.583   6.094
 3420POPC   D2A45964  29.213  14.406   6.491
 3420POPC   C3A45965  29.014  14.485   6.878
 3420POPC   C4A45966  29.252  14.575   7.238
 3420POPC   C1B45967  29.384  14.076   6.113
 3420POPC   C2B45968  29.303  13.914   6.540
 3420POPC   C3B45969  29.355  14.115   6.943
 3420POPC   C4B45970  29.054  14.095   7.271
 3421POPC   NC345971  43.753  33.020   5.300
 3421POPC   PO445972  44.404  33.098   5.337
 3421POPC   GL145973  44.063  33.109   5.723
 3421POPC   GL245974  43.753  32.946   5.795
 3421POPC   C1A45975  43.942  33.223   6.186
 3421POPC   D2A45976  44.069  33.307   6.636
 3421POPC   C3A45977  43.828  33.189   7.018
 3421POPC   C4A45978  43.865  32.927   7.341
 3421POPC   C1B45979  43.649  32.802   6.211
 3421POPC   C2B45980  43.650  32.879   6.640
 3421POPC   C3B45981  43.519  32.695   7.017
 3421POPC   C4B45982  43.444  32.663   7.472
 3422POPC   NC345983  14.223  27.242   5.315
 3422POPC   PO445984  14.743  27.665   5.454
 3422POPC   GL145985  14.464  27.375   5.732
 3422POPC   GL245986  14.160  27.577   5.741
 3422POPC   C1A45987  14.231  27.341   6.166
 3422POPC   D2A45988  14.383  27.546   6.499
 3422POPC   C3A45989  14.371  27.351   6.866
 3422POPC   C4A45990  14.339  27.504   7.238
 3422POPC   C1B45991  14.515  27.769   6.046
 3422POPC   C2B45992  14.830  27.829   6.381
 3422POPC   C3B45993  14.683  27.839   6.795
 3422POPC   C4B45994  14.659  27.955   7.202
 3423POPC   NC345995  25.082  29.642   5.409
 3423POPC   PO445996  25.580  30.073   5.324
 3423POPC   GL145997  25.384  29.933   5.724
 3423POPC   GL245998  25.021  30.052   5.724
 3423POPC   C1A45999  25.450  29.796   6.164
 3423POPC   D2A46000  25.674  29.872   6.552
 3423POPC   C3A46001  25.425  29.763   6.915
 3423POPC   C4A46002  25.425  29.938   7.315
 3423POPC   C1B46003  24.944  29.897   6.164
 3423POPC   C2B46004  24.801  29.946   6.628
 3423POPC   C3B46005  24.943  29.921   7.085
 3423POPC   C4B46006  24.990  29.863   7.574
 3424POPC   NC346007  34.028  17.876   5.087
 3424POPC   PO446008  34.019  17.240   5.417
 3424POPC   GL146009  33.839  17.536   5.706
 3424POPC   GL246010  34.191  17.627   5.753
 3424POPC   C1A46011  33.595  17.490   6.114
 3424POPC   D2A46012  33.713  17.170   6.444
 3424POPC   C3A46013  33.744  17.258   6.878
 3424POPC   C4A46014  33.654  17.491   7.239
 3424POPC   C1B46015  34.110  17.388   6.122
 3424POPC   C2B46016  34.172  17.424   6.524
 3424POPC   C3B46017  34.213  17.483   6.931
 3424POPC   C4B46018  34.086  17.252   7.278
 3425POPC   NC346019  39.291  26.709   5.417
 3425POPC   PO446020  39.284  27.351   5.371
 3425POPC   GL146021  39.409  27.091   5.742
 3425POPC   GL246022  39.059  26.988   5.765
 3425POPC   C1A46023  39.393  26.869   6.174
 3425POPC   D2A46024  39.464  26.568   6.536
 3425POPC   C3A46025  39.375  26.569   7.008
 3425POPC   C4A46026  39.061  26.505   7.342
 3425POPC   C1B46027  38.967  27.161   6.156
 3425POPC   C2B46028  39.174  27.204   6.545
 3425POPC   C3B46029  39.102  26.997   6.917
 3425POPC   C4B46030  39.084  27.077   7.317
 3426POPC   NC346031   2.936  10.456   5.340
 3426POPC   PO446032   2.413  10.835   5.588
 3426POPC   GL146033   2.737  10.591   5.848
 3426POPC   GL246034   2.728  10.230   5.764
 3426POPC   C1A46035   2.766  10.507   6.320
 3426POPC   D2A46036   2.471  10.546   6.715
 3426POPC   C3A46037   2.733  10.509   7.060
 3426POPC   C4A46038   3.167  10.485   7.073
 3426POPC   C1B46039   2.646  10.017   6.161
 3426POPC   C2B46040   2.684  10.080   6.612
 3426POPC   C3B46041   2.894  10.026   7.006
 3426POPC   C4B46042   2.782  10.143   7.441
 3427POPC   NC346043   7.032  39.205   5.579
 3427POPC   PO446044   7.695  39.046   5.408
 3427POPC   GL146045   7.497  39.252   5.802
 3427POPC   GL246046   7.305  39.593   5.813
 3427POPC   C1A46047   7.303  39.152   6.231
 3427POPC   D2A46048   7.416  38.984   6.660
 3427POPC   C3A46049   7.123  38.999   6.990
 3427POPC   C4A46050   7.139  39.142   7.390
 3427POPC   C1B46051   7.604  39.587   6.183
 3427POPC   C2B46052   7.549  39.521   6.639
 3427POPC   C3B46053   7.501  39.365   7.071
 3427POPC   C4B46054   7.562  39.368   7.542
 3428POPC   NC346055  39.919  43.472   5.414
 3428POPC   PO446056  39.615  42.852   5.368
 3428POPC   GL146057  39.993  42.958   5.700
 3428POPC   GL246058  39.985  43.265   5.855
 3428POPC   C1A46059  40.216  42.953   6.151
 3428POPC   D2A46060  40.200  43.136   6.575
 3428POPC   C3A46061  39.880  42.999   6.869
 3428POPC   C4A46062  40.146  42.918   7.208
 3428POPC   C1B46063  40.161  43.474   6.185
 3428POPC   C2B46064  40.015  43.646   6.575
 3428POPC   C3B46065  40.029  43.471   6.994
 3428POPC   C4B46066  40.122  43.396   7.399
 3429POPC   NC346067  29.316  13.366   5.300
 3429POPC   PO446068  28.908  13.887   5.298
 3429POPC   GL146069  29.124  13.683   5.695
 3429POPC   GL246070  28.909  13.385   5.725
 3429POPC   C1A46071  29.267  13.568   6.157
 3429POPC   D2A46072  29.502  13.462   6.594
 3429POPC   C3A46073  29.295  13.606   6.965
 3429POPC   C4A46074  29.450  13.758   7.349
 3429POPC   C1B46075  28.753  13.440   6.165
 3429POPC   C2B46076  28.933  13.513   6.584
 3429POPC   C3B46077  28.842  13.359   7.007
 3429POPC   C4B46078  28.973  13.576   7.372
 3430POPC   NC346079  17.567  13.441   4.774
 3430POPC   PO446080  17.659  13.516   5.394
 3430POPC   GL146081  17.670  13.538   5.864
 3430POPC   GL246082  17.926  13.286   5.887
 3430POPC   C1A46083  17.478  13.608   6.320
 3430POPC   D2A46084  17.342  13.526   6.795
 3430POPC   C3A46085  17.202  13.804   7.161
 3430POPC   C4A46086  17.166  14.019   7.582
 3430POPC   C1B46087  18.006  13.583   6.259
 3430POPC   C2B46088  17.837  13.659   6.684
 3430POPC   C3B46089  17.771  13.456   7.074
 3430POPC   C4B46090  18.005  13.393   7.429
 3431POPC   NC346091  24.407  37.745   5.143
 3431POPC   PO446092  24.728  37.552   5.703
 3431POPC   GL146093  24.715  37.746   6.055
 3431POPC   GL246094  24.483  38.027   6.056
 3431POPC   C1A46095  24.604  37.514   6.391
 3431POPC   D2A46096  24.545  37.639   6.759
 3431POPC   C3A46097  24.432  37.358   7.025
 3431POPC   C4A46098  24.341  37.451   7.430
 3431POPC   C1B46099  24.213  37.843   6.341
 3431POPC   C2B46100  24.026  37.912   6.679
 3431POPC   C3B46101  24.172  37.835   7.039
 3431POPC   C4B46102  24.277  37.971   7.380
 3432POPC   NC346103  36.478  23.429   5.331
 3432POPC   PO446104  35.918  23.745   5.422
 3432POPC   GL146105  36.042  23.723   5.811
 3432POPC   GL246106  36.204  23.422   5.803
 3432POPC   C1A46107  36.166  23.905   6.190
 3432POPC   D2A46108  36.304  24.150   6.530
 3432POPC   C3A46109  36.170  24.097   6.941
 3432POPC   C4A46110  36.390  23.916   7.271
 3432POPC   C1B46111  35.989  23.395   6.225
 3432POPC   C2B46112  36.068  23.321   6.679
 3432POPC   C3B46113  36.091  23.573   7.044
 3432POPC   C4B46114  35.827  23.393   7.357
 3433POPC   NC346115  27.209  32.319   5.434
 3433POPC   PO446116  26.892  31.827   5.439
 3433POPC   GL146117  26.837  32.206   5.768
 3433POPC   GL246118  26.515  32.421   5.798
 3433POPC   C1A46119  27.087  32.299   6.167
 3433POPC   D2A46120  26.955  31.968   6.474
 3433POPC   C3A46121  27.022  32.020   6.913
 3433POPC   C4A46122  27.252  32.370   7.087
 3433POPC   C1B46123  26.589  32.301   6.256
 3433POPC   C2B46124  26.793  32.466   6.653
 3433POPC   C3B46125  26.738  32.391   7.119
 3433POPC   C4B46126  26.559  31.977   7.175
 3434POPC   NC346127  22.338  14.627   5.187
 3434POPC   PO446128  22.661  14.094   5.512
 3434POPC   GL146129  22.382  14.367   5.651
 3434POPC   GL246130  22.555  14.676   5.662
 3434POPC   C1A46131  22.157  14.374   6.048
 3434POPC   D2A46132  22.336  14.342   6.479
 3434POPC   C3A46133  22.062  14.429   6.825
 3434POPC   C4A46134  22.204  14.272   7.249
 3434POPC   C1B46135  22.612  14.603   6.120
 3434POPC   C2B46136  22.714  14.689   6.580
 3434POPC   C3B46137  22.469  14.674   7.019
 3434POPC   C4B46138  22.511  14.652   7.488
 3435POPC   NC346139  17.102   0.438   5.531
 3435POPC   PO446140  16.596   0.065   5.488
 3435POPC   GL146141  16.729   0.269   5.848
 3435POPC   GL246142  16.507   0.551   5.824
 3435POPC   C1A46143  17.034   0.230   6.188
 3435POPC   D2A46144  17.004   0.009   6.564
 3435POPC   C3A46145  17.062   0.186   6.940
 3435POPC   C4A46146  16.794   0.408   7.163
 3435POPC   C1B46147  16.718   0.639   6.228
 3435POPC   C2B46148  16.722   0.577   6.667
 3435POPC   C3B46149  16.501   0.761   6.986
 3435POPC   C4B46150  16.447   0.698   7.393
 3436POPC   NC346151  43.851  44.790   5.363
 3436POPC   PO446152  44.394  44.595   5.532
 3436POPC   GL146153  44.015  44.602   5.816
 3436POPC   GL246154  43.634  44.556   5.763
 3436POPC   C1A46155  43.898  44.487   6.237
 3436POPC   D2A46156  44.073  44.620   6.646
 3436POPC   C3A46157  43.940  44.419   7.034
 3436POPC   C4A46158  43.979  44.469   7.466
 3436POPC   C1B46159  43.665  44.953   6.034
 3436POPC   C2B46160  43.521   0.017   6.473
 3436POPC   C3B46161  43.657  44.849   6.885
 3436POPC   C4B46162  43.597  44.792   7.341
 3437POPC   NC346163  42.691  22.014   5.518
 3437POPC   PO446164  43.371  22.048   5.506
 3437POPC   GL146165  43.283  22.246   5.847
 3437POPC   GL246166  43.005  22.060   5.918
 3437POPC   C1A46167  43.351  22.204   6.266
 3437POPC   D2A46168  43.145  22.266   6.624
 3437POPC   C3A46169  43.318  21.989   6.887
 3437POPC   C4A46170  43.312  22.114   7.279
 3437POPC   C1B46171  42.772  22.195   6.288
 3437POPC   C2B46172  42.600  22.248   6.693
 3437POPC   C3B46173  42.855  22.222   7.056
 3437POPC   C4B46174  42.705  22.411   7.411
 3438POPC   NC346175  31.312  35.713   5.347
 3438POPC   PO446176  31.827  35.263   5.408
 3438POPC   GL146177  31.487  35.284   5.752
 3438POPC   GL246178  31.216  35.522   5.813
 3438POPC   C1A46179  31.348  35.115   6.144
 3438POPC   D2A46180  31.547  35.090   6.552
 3438POPC   C3A46181  31.430  35.262   6.941
 3438POPC   C4A46182  31.540  35.349   7.333
 3438POPC   C1B46183  31.057  35.543   6.262
 3438POPC   C2B46184  31.102  35.557   6.708
 3438POPC   C3B46185  31.112  35.597   7.169
 3438POPC   C4B46186  31.198  35.582   7.631
 3439POPC   NC346187  27.045   5.041   5.434
 3439POPC   PO446188  26.363   4.965   5.274
 3439POPC   GL146189  26.632   4.799   5.669
 3439POPC   GL246190  26.733   5.121   5.833
 3439POPC   C1A46191  26.738   4.678   6.146
 3439POPC   D2A46192  26.616   4.735   6.608
 3439POPC   C3A46193  26.849   4.637   7.039
 3439POPC   C4A46194  26.747   4.729   7.515
 3439POPC   C1B46195  26.940   5.138   6.227
 3439POPC   C2B46196  26.824   5.251   6.619
 3439POPC   C3B46197  26.965   5.402   6.986
 3439POPC   C4B46198  27.014   5.084   7.303
 3440POPC   NC346199  37.968  44.210   5.497
 3440POPC   PO446200  37.426  43.752   5.307
 3440POPC   GL146201  37.622  43.864   5.717
 3440POPC   GL246202  37.983  43.792   5.802
 3440POPC   C1A46203  37.579  43.990   6.156
 3440POPC   D2A46204  37.625  43.880   6.598
 3440POPC   C3A46205  37.636  44.257   6.858
 3440POPC   C4A46206  37.511  44.302   7.286
 3440POPC   C1B46207  38.028  43.747   6.251
 3440POPC   C2B46208  38.021  43.515   6.636
 3440POPC   C3B46209  37.984  43.674   7.038
 3440POPC   C4B46210  37.593  43.819   7.159
 3441POPC   NC346211  15.925   6.330   5.431
 3441POPC   PO446212  16.055   5.706   5.599
 3441POPC   GL146213  15.970   6.039   5.863
 3441POPC   GL246214  16.286   6.242   5.812
 3441POPC   C1A46215  15.763   6.034   6.253
 3441POPC   D2A46216  15.679   5.773   6.617
 3441POPC   C3A46217  16.058   5.756   6.865
 3441POPC   C4A46218  15.997   5.728   7.324
 3441POPC   C1B46219  16.404   5.895   6.109
 3441POPC   C2B46220  16.556   5.600   6.404
 3441POPC   C3B46221  16.571   5.603   6.837
 3441POPC   C4B46222  16.338   5.422   7.152
 3442POPC   NC346223  24.015  17.593   5.120
 3442POPC   PO446224  24.619  17.649   5.396
 3442POPC   GL146225  24.710  17.459   5.773
 3442POPC   GL246226  24.976  17.682   5.855
 3442POPC   C1A46227  24.564  17.581   6.178
 3442POPC   D2A46228  24.656  17.545   6.604
 3442POPC   C3A46229  24.429  17.538   6.972
 3442POPC   C4A46230  24.517  17.266   7.271
 3442POPC   C1B46231  24.974  17.933   6.214
 3442POPC   C2B46232  24.957  18.094   6.621
 3442POPC   C3B46233  24.813  17.863   6.978
 3442POPC   C4B46234  24.745  17.727   7.410
 3443POPC   NC346235  33.982   6.591   5.351
 3443POPC   PO446236  33.400   6.572   5.555
 3443POPC   GL146237  33.556   6.438   5.900
 3443POPC   GL246238  33.849   6.586   5.874
 3443POPC   C1A46239  33.604   6.605   6.317
 3443POPC   D2A46240  33.877   6.868   6.559
 3443POPC   C3A46241  33.745   6.762   6.950
 3443POPC   C4A46242  33.835   6.810   7.345
 3443POPC   C1B46243  34.049   6.363   6.248
 3443POPC   C2B46244  34.229   6.476   6.654
 3443POPC   C3B46245  34.120   6.428   7.078
 3443POPC   C4B46246  33.723   6.276   7.247
 3444POPC   NC346247  37.448  12.466   5.604
 3444POPC   PO446248  37.719  13.033   5.453
 3444POPC   GL146249  37.556  12.930   5.824
 3444POPC   GL246250  37.822  12.695   5.869
 3444POPC   C1A46251  37.277  12.818   6.158
 3444POPC   D2A46252  37.269  12.707   6.572
 3444POPC   C3A46253  37.584  12.801   6.875
 3444POPC   C4A46254  37.405  12.891   7.272
 3444POPC   C1B46255  37.842  12.788   6.295
 3444POPC   C2B46256  38.081  12.561   6.615
 3444POPC   C3B46257  38.113  12.755   7.008
 3444POPC   C4B46258  37.917  13.071   7.250
 3445POPC   NC346259  27.286  21.448   5.155
 3445POPC   PO446260  27.762  21.123   5.465
 3445POPC   GL146261  27.477  21.313   5.749
 3445POPC   GL246262  27.243  21.103   5.895
 3445POPC   C1A46263  27.531  21.546   6.159
 3445POPC   D2A46264  27.749  21.605   6.574
 3445POPC   C3A46265  27.483  21.571   6.940
 3445POPC   C4A46266  27.406  21.478   7.364
 3445POPC   C1B46267  27.476  21.060   6.250
 3445POPC   C2B46268  27.475  21.141   6.678
 3445POPC   C3B46269  27.135  21.189   6.974
 3445POPC   C4B46270  26.897  21.322   7.306
 3446POPC   NC346271   6.577  28.786   5.476
 3446POPC   PO446272   6.561  29.464   5.499
 3446POPC   GL146273   6.760  29.335   5.904
 3446POPC   GL246274   6.760  28.956   5.906
 3446POPC   C1A46275   6.728  29.163   6.345
 3446POPC   D2A46276   6.477  29.000   6.624
 3446POPC   C3A46277   6.754  29.103   6.929
 3446POPC   C4A46278   6.714  29.429   7.204
 3446POPC   C1B46279   6.519  28.664   6.208
 3446POPC   C2B46280   6.378  28.498   6.619
 3446POPC   C3B46281   6.527  28.646   7.037
 3446POPC   C4B46282   6.460  28.994   7.317
 3447POPC   NC346283  10.093  17.828   5.489
 3447POPC   PO446284   9.493  17.459   5.695
 3447POPC   GL146285   9.924  17.462   5.854
 3447POPC   GL246286   9.983  17.789   5.967
 3447POPC   C1A46287   9.988  17.391   6.297
 3447POPC   D2A46288   9.637  17.480   6.600
 3447POPC   C3A46289   9.745  17.398   7.034
 3447POPC   C4A46290  10.057  17.298   7.400
 3447POPC   C1B46291   9.929  17.904   6.362
 3447POPC   C2B46292   9.936  17.871   6.797
 3447POPC   C3B46293  10.086  17.764   7.172
 3447POPC   C4B46294   9.732  17.686   7.452
 3448POPC   NC346295  30.189  11.977   5.463
 3448POPC   PO446296  30.905  12.088   5.486
 3448POPC   GL146297  30.887  12.121   5.896
 3448POPC   GL246298  30.708  11.805   5.933
 3448POPC   C1A46299  31.097  11.918   6.238
 3448POPC   D2A46300  31.093  11.797   6.685
 3448POPC   C3A46301  30.966  12.141   6.981
 3448POPC   C4A46302  30.898  12.434   7.331
 3448POPC   C1B46303  30.610  12.033   6.348
 3448POPC   C2B46304  30.552  11.796   6.735
 3448POPC   C3B46305  30.439  11.781   7.144
 3448POPC   C4B46306  30.457  12.182   7.282
 3449POPC   NC346307  28.321  12.033   5.331
 3449POPC   PO446308  28.821  12.324   5.746
 3449POPC   GL146309  28.514  11.962   5.838
 3449POPC   GL246310  28.174  12.004   5.804
 3449POPC   C1A46311  28.319  11.769   6.229
 3449POPC   D2A46312  28.474  12.027   6.562
 3449POPC   C3A46313  28.336  12.176   6.932
 3449POPC   C4A46314  28.663  12.365   7.175
 3449POPC   C1B46315  28.224  12.263   6.160
 3449POPC   C2B46316  28.121  12.500   6.519
 3449POPC   C3B46317  28.143  12.668   6.916
 3449POPC   C4B46318  28.174  12.501   7.307
 3450POPC   NC346319   0.060  13.483   5.439
 3450POPC   PO446320   0.790  13.182   5.505
 3450POPC   GL146321   0.648  13.491   5.815
 3450POPC   GL246322   0.287  13.534   5.880
 3450POPC   C1A46323   0.621  13.455   6.245
 3450POPC   D2A46324   0.662  13.745   6.528
 3450POPC   C3A46325   0.628  13.574   6.870
 3450POPC   C4A46326   0.457  13.590   7.252
 3450POPC   C1B46327   0.325  13.902   6.154
 3450POPC   C2B46328   0.268  14.064   6.569
 3450POPC   C3B46329   0.138  13.759   6.887
 3450POPC   C4B46330  44.990  13.773   7.330
 3451POPC   NC346331  34.294   1.565   5.103
 3451POPC   PO446332  34.467   1.935   5.655
 3451POPC   GL146333  34.369   1.865   6.014
 3451POPC   GL246334  34.098   1.623   6.008
 3451POPC   C1A46335  34.463   2.197   6.264
 3451POPC   D2A46336  34.391   2.336   6.663
 3451POPC   C3A46337  34.606   2.127   6.989
 3451POPC   C4A46338  34.791   2.227   7.368
 3451POPC   C1B46339  34.254   1.539   6.407
 3451POPC   C2B46340  34.515   1.824   6.599
 3451POPC   C3B46341  34.906   1.755   6.846
 3451POPC   C4B46342  34.803   1.728   7.279
 3452POPC   NC346343  13.152   1.913   5.243
 3452POPC   PO446344  13.748   2.092   5.298
 3452POPC   GL146345  13.709   1.977   5.761
 3452POPC   GL246346  13.335   2.040   5.765
 3452POPC   C1A46347  13.797   2.078   6.221
 3452POPC   D2A46348  14.074   2.050   6.590
 3452POPC   C3A46349  13.918   2.150   6.979
 3452POPC   C4A46350  13.611   1.909   7.099
 3452POPC   C1B46351  13.342   1.829   6.184
 3452POPC   C2B46352  13.334   1.676   6.645
 3452POPC   C3B46353  13.274   1.547   7.089
 3452POPC   C4B46354  13.541   1.463   7.440
 3453POPC   NC346355   6.134  37.811   5.194
 3453POPC   PO446356   6.051  37.202   5.287
 3453POPC   GL146357   5.902  37.474   5.631
 3453POPC   GL246358   5.981  37.826   5.690
 3453POPC   C1A46359   5.703  37.528   6.047
 3453POPC   D2A46360   5.857  37.575   6.496
 3453POPC   C3A46361   5.609  37.491   6.903
 3453POPC   C4A46362   5.677  37.424   7.364
 3453POPC   C1B46363   5.695  38.032   6.023
 3453POPC   C2B46364   5.763  38.116   6.464
 3453POPC   C3B46365   5.860  37.959   6.855
 3453POPC   C4B46366   5.600  37.921   7.205
 3454POPC   NC346367  44.266  16.843   5.554
 3454POPC   PO446368  43.655  16.618   5.521
 3454POPC   GL146369  43.818  16.690   5.881
 3454POPC   GL246370  43.603  16.420   6.005
 3454POPC   C1A46371  44.000  16.865   6.239
 3454POPC   D2A46372  44.122  16.780   6.630
 3454POPC   C3A46373  43.905  16.937   6.972
 3454POPC   C4A46374  43.677  17.000   7.352
 3454POPC   C1B46375  43.892  16.369   6.313
 3454POPC   C2B46376  43.958  16.261   6.717
 3454POPC   C3B46377  43.948  16.445   7.083
 3454POPC   C4B46378  43.829  16.513   7.482
 3455POPC   NC346379   8.070  24.391   5.147
 3455POPC   PO446380   7.686  24.795   5.512
 3455POPC   GL146381   8.066  24.551   5.728
 3455POPC   GL246382   7.892  24.419   5.964
 3455POPC   C1A46383   8.319  24.516   6.173
 3455POPC   D2A46384   8.096  24.359   6.580
 3455POPC   C3A46385   8.212  24.534   7.010
 3455POPC   C4A46386   8.120  24.551   7.461
 3455POPC   C1B46387   7.713  24.151   6.222
 3455POPC   C2B46388   7.705  24.020   6.605
 3455POPC   C3B46389   7.764  24.260   7.000
 3455POPC   C4B46390   7.648  24.086   7.380
 3456POPC   NC346391  12.573  24.626   5.452
 3456POPC   PO446392  11.972  24.356   5.213
 3456POPC   GL146393  11.983  24.549   5.671
 3456POPC   GL246394  12.262  24.465   5.869
 3456POPC   C1A46395  11.767  24.538   6.097
 3456POPC   D2A46396  11.936  24.502   6.544
 3456POPC   C3A46397  11.853  24.324   6.941
 3456POPC   C4A46398  12.130  24.317   7.274
 3456POPC   C1B46399  12.214  24.767   6.220
 3456POPC   C2B46400  12.378  24.779   6.633
 3456POPC   C3B46401  12.100  24.768   7.007
 3456POPC   C4B46402  11.729  24.707   7.297
 3457POPC   NC346403  20.691  22.689   5.453
 3457POPC   PO446404  20.572  23.421   5.396
 3457POPC   GL146405  20.594  23.220   5.780
 3457POPC   GL246406  20.894  23.073   5.755
 3457POPC   C1A46407  20.664  23.081   6.212
 3457POPC   D2A46408  20.532  22.765   6.506
 3457POPC   C3A46409  20.563  22.892   6.914
 3457POPC   C4A46410  20.357  22.975   7.319
 3457POPC   C1B46411  21.061  22.782   6.097
 3457POPC   C2B46412  21.086  22.821   6.566
 3457POPC   C3B46413  21.007  23.110   6.932
 3457POPC   C4B46414  20.876  22.900   7.323
 3458POPC   NC346415  34.415  17.084   5.612
 3458POPC   PO446416  34.811  17.551   5.398
 3458POPC   GL146417  34.712  17.475   5.837
 3458POPC   GL246418  34.876  17.162   5.876
 3458POPC   C1A46419  34.882  17.494   6.277
 3458POPC   D2A46420  34.705  17.703   6.629
 3458POPC   C3A46421  34.770  17.498   6.980
 3458POPC   C4A46422  34.690  17.675   7.323
 3458POPC   C1B46423  34.538  17.120   6.220
 3458POPC   C2B46424  34.613  17.177   6.620
 3458POPC   C3B46425  34.436  17.040   6.979
 3458POPC   C4B46426  34.573  17.179   7.314
 3459POPC   NC346427  22.660  12.090   5.214
 3459POPC   PO446428  21.994  12.041   5.077
 3459POPC   GL146429  21.934  12.096   5.596
 3459POPC   GL246430  22.186  12.219   5.873
 3459POPC   C1A46431  21.746  12.023   6.050
 3459POPC   D2A46432  21.835  12.210   6.470
 3459POPC   C3A46433  22.034  12.100   6.855
 3459POPC   C4A46434  21.858  11.885   7.207
 3459POPC   C1B46435  22.411  12.212   6.309
 3459POPC   C2B46436  22.723  12.327   6.641
 3459POPC   C3B46437  22.548  12.356   7.040
 3459POPC   C4B46438  22.363  12.030   7.252
 3460POPC   NC346439  13.317   7.510   5.647
 3460POPC   PO446440  12.689   7.545   5.362
 3460POPC   GL146441  12.852   7.421   5.810
 3460POPC   GL246442  13.017   7.079   5.753
 3460POPC   C1A46443  13.046   7.545   6.260
 3460POPC   D2A46444  12.978   7.863   6.599
 3460POPC   C3A46445  12.622   7.692   6.834
 3460POPC   C4A46446  12.566   7.484   7.216
 3460POPC   C1B46447  13.253   7.075   6.155
 3460POPC   C2B46448  13.221   7.165   6.576
 3460POPC   C3B46449  13.244   7.064   6.982
 3460POPC   C4B46450  12.830   7.054   7.113
 3461POPC   NC346451  28.253  20.130   5.555
 3461POPC   PO446452  28.536  19.581   5.389
 3461POPC   GL146453  28.279  19.678   5.777
 3461POPC   GL246454  28.090  19.400   5.851
 3461POPC   C1A46455  28.372  19.647   6.205
 3461POPC   D2A46456  28.500  19.538   6.608
 3461POPC   C3A46457  28.404  19.802   6.976
 3461POPC   C4A46458  28.226  19.886   7.409
 3461POPC   C1B46459  27.906  19.418   6.288
 3461POPC   C2B46460  28.001  19.374   6.761
 3461POPC   C3B46461  28.157  19.418   7.219
 3461POPC   C4B46462  28.196  19.459   7.691
 3462POPC   NC346463  21.774  33.079   5.596
 3462POPC   PO446464  21.098  33.026   5.549
 3462POPC   GL146465  21.211  33.066   5.965
 3462POPC   GL246466  21.499  33.265   6.005
 3462POPC   C1A46467  21.158  33.061   6.383
 3462POPC   D2A46468  21.541  33.112   6.599
 3462POPC   C3A46469  21.544  33.011   7.019
 3462POPC   C4A46470  21.345  32.999   7.421
 3462POPC   C1B46471  21.363  33.526   6.325
 3462POPC   C2B46472  21.152  33.450   6.717
 3462POPC   C3B46473  21.114  33.354   7.151
 3462POPC   C4B46474  21.233  33.462   7.631
 3463POPC   NC346475  39.219  28.890   5.439
 3463POPC   PO446476  39.445  29.534   5.422
 3463POPC   GL146477  39.229  29.323   5.792
 3463POPC   GL246478  39.389  29.004   5.910
 3463POPC   C1A46479  39.211  29.378   6.256
 3463POPC   D2A46480  39.252  29.193   6.672
 3463POPC   C3A46481  39.186  29.369   7.081
 3463POPC   C4A46482  39.253  29.384   7.512
 3463POPC   C1B46483  38.993  28.920   6.120
 3463POPC   C2B46484  38.803  28.966   6.545
 3463POPC   C3B46485  38.944  28.902   7.016
 3463POPC   C4B46486  38.963  28.995   7.484
 3464POPC   NC346487   2.322  14.332   5.524
 3464POPC   PO446488   1.605  14.496   5.506
 3464POPC   GL146489   1.835  14.400   5.886
 3464POPC   GL246490   2.157  14.546   5.965
 3464POPC   C1A46491   1.881  14.246   6.314
 3464POPC   D2A46492   1.629  14.082   6.654
 3464POPC   C3A46493   1.650  14.263   7.062
 3464POPC   C4A46494   1.766  14.363   7.466
 3464POPC   C1B46495   2.254  14.753   6.357
 3464POPC   C2B46496   2.280  14.687   6.793
 3464POPC   C3B46497   2.156  14.468   7.162
 3464POPC   C4B46498   2.150  14.633   7.625
 3465POPC   NC346499  44.611   5.945   5.292
 3465POPC   PO446500  44.700   6.557   5.405
 3465POPC   GL146501  44.679   6.189   5.719
 3465POPC   GL246502  44.753   5.789   5.767
 3465POPC   C1A46503  44.651   6.073   6.171
 3465POPC   D2A46504  44.763   5.623   6.347
 3465POPC   C3A46505  44.992   5.589   6.773
 3465POPC   C4A46506  44.898   5.666   7.235
 3465POPC   C1B46507  44.363   5.697   6.023
 3465POPC   C2B46508  44.304   5.762   6.490
 3465POPC   C3B46509  44.518   5.754   6.884
 3465POPC   C4B46510  44.399   5.915   7.343
 3466POPC   NC346511  37.176  15.559   5.462
 3466POPC   PO446512  37.097  16.262   5.473
 3466POPC   GL146513  36.929  15.995   5.810
 3466POPC   GL246514  36.815  15.646   5.812
 3466POPC   C1A46515  36.977  16.006   6.248
 3466POPC   D2A46516  36.979  16.212   6.639
 3466POPC   C3A46517  37.181  16.043   7.023
 3466POPC   C4A46518  36.961  15.923   7.393
 3466POPC   C1B46519  36.590  15.676   6.173
 3466POPC   C2B46520  36.586  15.842   6.555
 3466POPC   C3B46521  36.678  15.860   6.974
 3466POPC   C4B46522  36.588  15.601   7.358
 3467POPC   NC346523  23.649  16.735   5.282
 3467POPC   PO446524  24.209  16.626   5.565
 3467POPC   GL146525  23.802  16.559   5.816
 3467POPC   GL246526  23.530  16.840   5.780
 3467POPC   C1A46527  23.762  16.637   6.290
 3467POPC   D2A46528  24.090  16.683   6.639
 3467POPC   C3A46529  23.890  16.635   7.032
 3467POPC   C4A46530  23.430  16.574   7.108
 3467POPC   C1B46531  23.854  17.062   5.993
 3467POPC   C2B46532  23.875  17.119   6.439
 3467POPC   C3B46533  23.649  17.019   6.779
 3467POPC   C4B46534  23.567  17.051   7.197
 3468POPC   NC346535  29.288  34.942   5.483
 3468POPC   PO446536  28.900  34.493   5.416
 3468POPC   GL146537  29.063  34.654   5.845
 3468POPC   GL246538  29.400  34.823   5.970
 3468POPC   C1A46539  29.184  34.444   6.248
 3468POPC   D2A46540  28.938  34.213   6.559
 3468POPC   C3A46541  29.059  34.350   6.950
 3468POPC   C4A46542  29.149  34.290   7.362
 3468POPC   C1B46543  29.083  34.954   6.269
 3468POPC   C2B46544  28.970  34.766   6.635
 3468POPC   C3B46545  29.071  34.858   7.054
 3468POPC   C4B46546  29.462  34.680   7.225
 3469POPC   NC346547  27.385  15.272   4.983
 3469POPC   PO446548  27.644  14.707   5.413
 3469POPC   GL146549  27.693  14.940   5.829
 3469POPC   GL246550  27.914  15.292   5.811
 3469POPC   C1A46551  27.417  14.913   6.212
 3469POPC   D2A46552  27.389  14.787   6.651
 3469POPC   C3A46553  27.526  15.043   6.984
 3469POPC   C4A46554  27.903  15.084   7.248
 3469POPC   C1B46555  27.620  15.371   6.130
 3469POPC   C2B46556  27.598  15.374   6.589
 3469POPC   C3B46557  27.668  15.525   7.020
 3469POPC   C4B46558  27.912  15.695   7.291
 3470POPC   NC346559  36.681  10.843   5.584
 3470POPC   PO446560  37.174  10.384   5.438
 3470POPC   GL146561  37.192  10.510   5.822
 3470POPC   GL246562  37.263  10.823   5.821
 3470POPC   C1A46563  37.054  10.421   6.208
 3470POPC   D2A46564  36.907  10.268   6.588
 3470POPC   C3A46565  37.071  10.369   6.974
 3470POPC   C4A46566  36.773  10.380   7.339
 3470POPC   C1B46567  37.146  10.946   6.206
 3470POPC   C2B46568  36.958  10.820   6.550
 3470POPC   C3B46569  37.097  10.865   6.933
 3470POPC   C4B46570  36.838  10.861   7.273
 3471POPC   NC346571  44.258  43.878   5.369
 3471POPC   PO446572  43.650  43.933   5.416
 3471POPC   GL146573  43.859  44.079   5.797
 3471POPC   GL246574  44.246  44.141   5.812
 3471POPC   C1A46575  43.674  44.004   6.218
 3471POPC   D2A46576  43.815  44.118   6.625
 3471POPC   C3A46577  43.650  43.892   6.982
 3471POPC   C4A46578  43.833  44.008   7.337
 3471POPC   C1B46579  44.150  43.798   6.131
 3471POPC   C2B46580  44.060  43.664   6.558
 3471POPC   C3B46581  44.166  43.853   6.956
 3471POPC   C4B46582  44.106  43.591   7.324
 3472POPC   NC346583   3.144  42.607   5.538
 3472POPC   PO446584   3.834  42.570   5.362
 3472POPC   GL146585   3.822  42.574   5.774
 3472POPC   GL246586   3.755  42.204   5.786
 3472POPC   C1A46587   3.679  42.557   6.201
 3472POPC   D2A46588   3.397  42.573   6.571
 3472POPC   C3A46589   3.590  42.475   6.974
 3472POPC   C4A46590   3.657  42.718   7.343
 3472POPC   C1B46591   3.561  42.056   6.207
 3472POPC   C2B46592   3.511  42.050   6.676
 3472POPC   C3B46593   3.520  41.990   7.143
 3472POPC   C4B46594   3.752  41.903   7.540
 3473POPC   NC346595   1.111  14.621   5.444
 3473POPC   PO446596   1.446  15.247   5.299
 3473POPC   GL146597   1.373  15.324   5.748
 3473POPC   GL246598   1.029  15.205   5.838
 3473POPC   C1A46599   1.305  15.557   6.146
 3473POPC   D2A46600   1.391  15.432   6.566
 3473POPC   C3A46601   1.027  15.274   6.762
 3473POPC   C4A46602   1.078  15.306   7.195
 3473POPC   C1B46603   1.302  15.045   6.174
 3473POPC   C2B46604   1.389  14.936   6.575
 3473POPC   C3B46605   1.303  14.887   6.962
 3473POPC   C4B46606   1.378  14.644   7.280
 3474POPC   NC346607  44.289  35.840   5.469
 3474POPC   PO446608  44.897  36.080   5.301
 3474POPC   GL146609  44.699  36.116   5.768
 3474POPC   GL246610  44.374  36.026   5.920
 3474POPC   C1A46611  44.701  36.248   6.240
 3474POPC   D2A46612  44.493  36.233   6.670
 3474POPC   C3A46613  44.732  36.351   7.067
 3474POPC   C4A46614  44.916  36.110   7.409
 3474POPC   C1B46615  44.321  35.764   6.283
 3474POPC   C2B46616  44.552  35.702   6.624
 3474POPC   C3B46617  44.650  35.851   7.010
 3474POPC   C4B46618  44.460  35.708   7.361
 3475POPC   NC346619   4.536   3.717   5.518
 3475POPC   PO446620   3.900   3.913   5.450
 3475POPC   GL146621   4.102   3.724   5.852
 3475POPC   GL246622   4.401   3.486   5.931
 3475POPC   C1A46623   4.132   3.659   6.314
 3475POPC   D2A46624   4.367   3.813   6.645
 3475POPC   C3A46625   4.127   3.742   7.011
 3475POPC   C4A46626   4.176   3.376   7.227
 3475POPC   C1B46627   4.521   3.316   6.354
 3475POPC   C2B46628   4.539   3.346   6.821
 3475POPC   C3B46629   4.792   3.203   7.163
 3475POPC   C4B46630   4.857   3.262   7.605
 3476POPC   NC346631  28.087  24.536   5.381
 3476POPC   PO446632  28.737  24.252   5.321
 3476POPC   GL146633  28.634  24.393   5.750
 3476POPC   GL246634  28.284  24.324   5.783
 3476POPC   C1A46635  28.538  24.547   6.183
 3476POPC   D2A46636  28.526  24.760   6.597
 3476POPC   C3A46637  28.572  24.493   6.952
 3476POPC   C4A46638  28.378  24.375   7.351
 3476POPC   C1B46639  28.046  24.367   6.166
 3476POPC   C2B46640  28.069  24.523   6.593
 3476POPC   C3B46641  28.025  24.365   6.980
 3476POPC   C4B46642  27.686  24.281   7.246
 3477POPC   NC346643   2.389  23.047   5.400
 3477POPC   PO446644   1.698  23.148   5.392
 3477POPC   GL146645   1.985  23.060   5.737
 3477POPC   GL246646   1.897  22.720   5.672
 3477POPC   C1A46647   2.069  23.080   6.195
 3477POPC   D2A46648   1.972  23.034   6.633
 3477POPC   C3A46649   2.054  23.161   7.061
 3477POPC   C4A46650   2.201  23.325   7.477
 3477POPC   C1B46651   1.823  22.629   6.112
 3477POPC   C2B46652   1.998  22.539   6.518
 3477POPC   C3B46653   1.885  22.652   6.954
 3477POPC   C4B46654   1.648  22.544   7.313
 3478POPC   NC346655  23.332  39.120   5.501
 3478POPC   PO446656  22.729  38.911   5.463
 3478POPC   GL146657  22.860  39.142   5.853
 3478POPC   GL246658  23.208  39.171   5.995
 3478POPC   C1A46659  22.738  39.393   6.228
 3478POPC   D2A46660  22.842  39.502   6.674
 3478POPC   C3A46661  23.042  39.153   6.913
 3478POPC   C4A46662  22.927  39.040   7.335
 3478POPC   C1B46663  23.248  39.486   6.328
 3478POPC   C2B46664  23.342  39.555   6.781
 3478POPC   C3B46665  23.169  39.524   7.217
 3478POPC   C4B46666  23.215  39.574   7.665
 3479POPC   NC346667  27.383  23.129   5.027
 3479POPC   PO446668  27.987  23.029   5.362
 3479POPC   GL146669  27.969  23.027   5.793
 3479POPC   GL246670  28.082  23.344   5.785
 3479POPC   C1A46671  27.817  22.871   6.223
 3479POPC   D2A46672  27.912  22.783   6.672
 3479POPC   C3A46673  27.562  22.949   6.931
 3479POPC   C4A46674  27.271  22.833   7.279
 3479POPC   C1B46675  27.962  23.361   6.200
 3479POPC   C2B46676  27.813  23.284   6.596
 3479POPC   C3B46677  27.903  23.370   7.004
 3479POPC   C4B46678  27.652  23.245   7.333
 3480POPC   NC346679  24.159  12.985   5.209
 3480POPC   PO446680  24.653  12.588   5.342
 3480POPC   GL146681  24.389  12.808   5.658
 3480POPC   GL246682  24.623  13.083   5.649
 3480POPC   C1A46683  24.391  13.038   6.100
 3480POPC   D2A46684  24.492  13.280   6.492
 3480POPC   C3A46685  24.419  13.071   6.906
 3480POPC   C4A46686  24.296  12.627   7.015
 3480POPC   C1B46687  24.789  12.739   5.958
 3480POPC   C2B46688  24.793  12.639   6.390
 3480POPC   C3B46689  24.779  12.698   6.829
 3480POPC   C4B46690  24.939  12.521   7.219
 3481POPC   NC346691  24.471  29.750   5.234
 3481POPC   PO446692  24.633  30.354   5.479
 3481POPC   GL146693  24.499  30.048   5.789
 3481POPC   GL246694  24.227  29.842   5.667
 3481POPC   C1A46695  24.464  29.996   6.247
 3481POPC   D2A46696  24.348  30.248   6.573
 3481POPC   C3A46697  24.424  30.080   6.965
 3481POPC   C4A46698  24.526  29.948   7.368
 3481POPC   C1B46699  24.026  30.000   6.028
 3481POPC   C2B46700  23.965  29.886   6.471
 3481POPC   C3B46701  24.049  29.706   6.885
 3481POPC   C4B46702  24.021  29.936   7.261
 3482POPC   NC346703  37.211  13.184   5.512
 3482POPC   PO446704  36.580  13.441   5.374
 3482POPC   GL146705  36.852  13.651   5.723
 3482POPC   GL246706  37.096  13.942   5.764
 3482POPC   C1A46707  36.748  13.730   6.166
 3482POPC   D2A46708  36.573  13.440   6.473
 3482POPC   C3A46709  36.804  13.493   6.859
 3482POPC   C4A46710  37.048  13.211   7.100
 3482POPC   C1B46711  37.231  13.651   6.088
 3482POPC   C2B46712  37.167  13.724   6.523
 3482POPC   C3B46713  37.255  13.804   6.962
 3482POPC   C4B46714  37.148  13.658   7.354
 3483POPC   NC346715  26.144  25.491   5.301
 3483POPC   PO446716  25.953  24.796   5.452
 3483POPC   GL146717  25.913  24.930   5.844
 3483POPC   GL246718  26.080  25.218   5.781
 3483POPC   C1A46719  25.760  24.907   6.263
 3483POPC   D2A46720  25.959  25.086   6.609
 3483POPC   C3A46721  25.830  24.959   7.005
 3483POPC   C4A46722  26.041  25.025   7.355
 3483POPC   C1B46723  25.898  25.396   6.151
 3483POPC   C2B46724  25.835  25.579   6.574
 3483POPC   C3B46725  26.020  25.443   6.990
 3483POPC   C4B46726  25.835  25.506   7.399
 3484POPC   NC346727  44.995  26.765   5.077
 3484POPC   PO446728  44.410  26.920   5.395
 3484POPC   GL146729  44.561  26.961   5.804
 3484POPC   GL246730  44.801  27.223   5.726
 3484POPC   C1A46731  44.528  26.725   6.218
 3484POPC   D2A46732  44.293  26.551   6.606
 3484POPC   C3A46733  44.500  26.722   6.984
 3484POPC   C4A46734  44.746  26.547   7.305
 3484POPC   C1B46735  44.942  27.102   6.136
 3484POPC   C2B46736  44.903  27.133   6.580
 3484POPC   C3B46737   0.146  27.139   6.965
 3484POPC   C4B46738  44.914  27.054   7.290
 3485POPC   NC346739  35.004   2.240   5.195
 3485POPC   PO446740  35.197   2.873   5.422
 3485POPC   GL146741  35.140   2.979   5.819
 3485POPC   GL246742  34.943   2.688   5.898
 3485POPC   C1A46743  35.344   2.795   6.208
 3485POPC   D2A46744  35.413   2.483   6.540
 3485POPC   C3A46745  35.545   2.651   6.931
 3485POPC   C4A46746  35.416   2.757   7.325
 3485POPC   C1B46747  34.851   3.016   6.225
 3485POPC   C2B46748  34.982   3.142   6.631
 3485POPC   C3B46749  35.005   2.918   7.056
 3485POPC   C4B46750  34.881   2.749   7.490
 3486POPC   NC346751  13.449   5.553   5.580
 3486POPC   PO446752  13.822   6.096   5.389
 3486POPC   GL146753  13.712   5.950   5.820
 3486POPC   GL246754  13.346   6.012   5.833
 3486POPC   C1A46755  13.609   6.042   6.272
 3486POPC   D2A46756  13.638   6.143   6.705
 3486POPC   C3A46757  13.765   5.821   7.008
 3486POPC   C4A46758  13.610   5.688   7.399
 3486POPC   C1B46759  13.226   5.695   6.185
 3486POPC   C2B46760  13.360   5.683   6.635
 3486POPC   C3B46761  13.231   5.804   7.055
 3486POPC   C4B46762  13.137   5.521   7.397
 3487POPC   NC346763  24.172   4.587   5.517
 3487POPC   PO446764  24.800   4.341   5.496
 3487POPC   GL146765  24.722   4.154   5.921
 3487POPC   GL246766  24.355   4.162   5.893
 3487POPC   C1A46767  24.656   4.224   6.394
 3487POPC   D2A46768  24.437   4.323   6.797
 3487POPC   C3A46769  24.713   4.200   7.135
 3487POPC   C4A46770  24.838   4.075   7.548
 3487POPC   C1B46771  24.366   4.558   6.143
 3487POPC   C2B46772  24.181   4.793   6.466
 3487POPC   C3B46773  24.175   4.775   6.911
 3487POPC   C4B46774  24.330   4.540   7.256
 3488POPC   NC346775   2.689  24.776   5.314
 3488POPC   PO446776   2.717  24.212   5.626
 3488POPC   GL146777   2.888  24.552   5.797
 3488POPC   GL246778   2.717  24.852   5.849
 3488POPC   C1A46779   2.982  24.565   6.229
 3488POPC   D2A46780   2.715  24.394   6.595
 3488POPC   C3A46781   2.908  24.284   7.010
 3488POPC   C4A46782   3.041  24.552   7.354
 3488POPC   C1B46783   2.536  24.869   6.284
 3488POPC   C2B46784   2.485  24.922   6.735
 3488POPC   C3B46785   2.631  24.733   7.121
 3488POPC   C4B46786   2.596  24.697   7.606
 3489POPC   NC346787  44.798  12.642   5.456
 3489POPC   PO446788  44.555  13.226   5.313
 3489POPC   GL146789  44.511  13.085   5.799
 3489POPC   GL246790  44.496  12.721   5.855
 3489POPC   C1A46791  44.627  13.114   6.231
 3489POPC   D2A46792  44.672  13.019   6.687
 3489POPC   C3A46793  44.357  13.118   6.996
 3489POPC   C4A46794  44.342  13.015   7.450
 3489POPC   C1B46795  44.480  12.616   6.291
 3489POPC   C2B46796  44.787  12.536   6.616
 3489POPC   C3B46797   0.066  12.765   6.907
 3489POPC   C4B46798  44.826  13.015   7.208
 3490POPC   NC346799  34.010  14.749   5.430
 3490POPC   PO446800  33.579  14.239   5.609
 3490POPC   GL146801  33.541  14.599   5.912
 3490POPC   GL246802  33.894  14.702   5.936
 3490POPC   C1A46803  33.558  14.601   6.402
 3490POPC   D2A46804  33.454  14.504   6.816
 3490POPC   C3A46805  33.622  14.627   7.209
 3490POPC   C4A46806  33.454  14.714   7.661
 3490POPC   C1B46807  34.057  14.563   6.360
 3490POPC   C2B46808  33.986  14.522   6.819
 3490POPC   C3B46809  34.143  14.428   7.235
 3490POPC   C4B46810  34.125  14.281   7.676
 3491POPC   NC346811  42.260  10.062   5.368
 3491POPC   PO446812  42.480   9.445   5.315
 3491POPC   GL146813  42.357   9.694   5.687
 3491POPC   GL246814  42.615   9.912   5.774
 3491POPC   C1A46815  42.263   9.659   6.113
 3491POPC   D2A46816  42.384   9.431   6.469
 3491POPC   C3A46817  42.342   9.746   6.768
 3491POPC   C4A46818  42.030   9.786   7.112
 3491POPC   C1B46819  42.782   9.983   6.193
 3491POPC   C2B46820  42.826  10.128   6.635
 3491POPC   C3B46821  42.778   9.913   7.009
 3491POPC   C4B46822  42.505   9.740   7.248
 3492POPC   NC346823  38.692  38.234   5.599
 3492POPC   PO446824  38.630  38.787   5.142
 3492POPC   GL146825  38.494  38.725   5.585
 3492POPC   GL246826  38.179  38.528   5.649
 3492POPC   C1A46827  38.536  38.682   6.041
 3492POPC   D2A46828  38.537  38.911   6.430
 3492POPC   C3A46829  38.373  38.683   6.792
 3492POPC   C4A46830  38.555  38.564   7.206
 3492POPC   C1B46831  38.189  38.317   6.062
 3492POPC   C2B46832  38.357  38.223   6.491
 3492POPC   C3B46833  38.281  38.200   6.959
 3492POPC   C4B46834  38.237  38.182   7.429
 3493POPC   NC346835  11.752  40.115   5.208
 3493POPC   PO446836  11.989  39.492   5.347
 3493POPC   GL146837  11.846  39.649   5.757
 3493POPC   GL246838  11.897  40.021   5.761
 3493POPC   C1A46839  12.040  39.730   6.172
 3493POPC   D2A46840  11.888  39.708   6.569
 3493POPC   C3A46841  12.058  39.828   6.969
 3493POPC   C4A46842  11.905  39.732   7.372
 3493POPC   C1B46843  11.748  40.185   6.191
 3493POPC   C2B46844  11.802  40.200   6.663
 3493POPC   C3B46845  11.847  40.416   7.076
 3493POPC   C4B46846  12.164  40.534   7.439
 3494POPC   NC346847  42.073  11.267   4.931
 3494POPC   PO446848  42.361  11.461   5.496
 3494POPC   GL146849  42.433  11.185   5.869
 3494POPC   GL246850  42.103  11.046   5.923
 3494POPC   C1A46851  42.419  11.206   6.343
 3494POPC   D2A46852  42.240  11.473   6.645
 3494POPC   C3A46853  42.435  11.599   7.020
 3494POPC   C4A46854  42.106  11.519   7.319
 3494POPC   C1B46855  42.023  10.839   6.325
 3494POPC   C2B46856  42.148  10.943   6.720
 3494POPC   C3B46857  42.387  11.113   7.008
 3494POPC   C4B46858  42.787  11.180   7.073
 3495POPC   NC346859  33.955  25.470   5.589
 3495POPC   PO446860  33.323  25.271   5.388
 3495POPC   GL146861  33.529  25.315   5.795
 3495POPC   GL246862  33.704  25.563   6.026
 3495POPC   C1A46863  33.608  25.101   6.173
 3495POPC   D2A46864  33.818  25.310   6.531
 3495POPC   C3A46865  33.561  25.416   6.845
 3495POPC   C4A46866  33.463  25.247   7.219
 3495POPC   C1B46867  34.153  25.504   6.203
 3495POPC   C2B46868  34.278  25.580   6.634
 3495POPC   C3B46869  34.045  25.528   7.021
 3495POPC   C4B46870  33.930  25.101   7.014
 3496POPC   NC346871  25.643   6.838   5.625
 3496POPC   PO446872  25.379   6.253   5.459
 3496POPC   GL146873  25.290   6.449   5.845
 3496POPC   GL246874  25.388   6.738   6.031
 3496POPC   C1A46875  25.102   6.379   6.221
 3496POPC   D2A46876  25.280   6.503   6.601
 3496POPC   C3A46877  25.102   6.449   7.022
 3496POPC   C4A46878  25.316   6.437   7.445
 3496POPC   C1B46879  25.202   6.990   6.329
 3496POPC   C2B46880  25.060   6.931   6.745
 3496POPC   C3B46881  25.193   6.925   7.176
 3496POPC   C4B46882  25.162   7.288   7.416
 3497POPC   NC346883  37.112  36.222   5.453
 3497POPC   PO446884  36.506  36.022   5.427
 3497POPC   GL146885  36.736  36.164   5.807
 3497POPC   GL246886  37.082  36.052   5.929
 3497POPC   C1A46887  36.678  36.083   6.238
 3497POPC   D2A46888  37.009  36.072   6.502
 3497POPC   C3A46889  36.825  36.060   6.867
 3497POPC   C4A46890  36.797  36.088   7.281
 3497POPC   C1B46891  37.255  36.407   6.185
 3497POPC   C2B46892  37.152  36.572   6.613
 3497POPC   C3B46893  37.075  36.451   7.059
 3497POPC   C4B46894  37.299  36.206   7.378
 3498POPC   NC346895  43.953  28.602   5.438
 3498POPC   PO446896  44.254  27.903   5.493
 3498POPC   GL146897  44.197  28.128   5.890
 3498POPC   GL246898  43.933  28.390   5.890
 3498POPC   C1A46899  43.994  28.114   6.332
 3498POPC   D2A46900  43.864  27.923   6.749
 3498POPC   C3A46901  44.091  28.116   7.124
 3498POPC   C4A46902  44.018  28.110   7.605
 3498POPC   C1B46903  43.774  28.579   6.249
 3498POPC   C2B46904  43.551  28.384   6.594
 3498POPC   C3B46905  43.576  28.282   7.036
 3498POPC   C4B46906  43.833  28.512   7.309
 3499POPC   NC346907   7.980  39.501   5.462
 3499POPC   PO446908   8.669  39.104   5.439
 3499POPC   GL146909   8.296  39.129   5.751
 3499POPC   GL246910   8.016  39.338   5.919
 3499POPC   C1A46911   8.338  39.074   6.204
 3499POPC   D2A46912   8.573  39.290   6.530
 3499POPC   C3A46913   8.426  39.316   6.940
 3499POPC   C4A46914   8.025  39.094   7.158
 3499POPC   C1B46915   8.103  39.507   6.307
 3499POPC   C2B46916   8.016  39.278   6.649
 3499POPC   C3B46917   7.975  39.546   6.971
 3499POPC   C4B46918   7.792  39.739   7.287
 3500POPC   NC346919  36.034  17.255   5.453
 3500POPC   PO446920  36.231  17.913   5.259
 3500POPC   GL146921  36.286  17.669   5.685
 3500POPC   GL246922  36.000  17.489   5.905
 3500POPC   C1A46923  36.401  17.737   6.142
 3500POPC   D2A46924  36.210  17.915   6.538
 3500POPC   C3A46925  36.144  17.641   6.913
 3500POPC   C4A46926  36.021  17.786   7.309
 3500POPC   C1B46927  35.908  17.099   6.180
 3500POPC   C2B46928  35.792  17.049   6.635
 3500POPC   C3B46929  35.742  17.046   7.101
 3500POPC   C4B46930  35.972  17.294   7.395
 3501POPC   NC346931  10.835  17.590   5.309
 3501POPC   PO446932  10.256  17.385   5.451
 3501POPC   GL146933  10.505  17.587   5.742
 3501POPC   GL246934  10.693  17.283   5.751
 3501POPC   C1A46935  10.432  17.716   6.179
 3501POPC   D2A46936  10.399  17.876   6.596
 3501POPC   C3A46937  10.644  17.708   6.937
 3501POPC   C4A46938  10.538  17.595   7.367
 3501POPC   C1B46939  10.644  17.244   6.177
 3501POPC   C2B46940  10.429  17.348   6.572
 3501POPC   C3B46941  10.354  17.270   7.005
 3501POPC   C4B46942  10.483  17.005   7.385
 3502POPC   NC346943  26.904  29.830   5.270
 3502POPC   PO446944  26.926  30.401   5.566
 3502POPC   GL146945  26.681  30.110   5.788
 3502POPC   GL246946  26.790  29.745   5.770
 3502POPC   C1A46947  26.781  30.016   6.231
 3502POPC   D2A46948  26.727  29.839   6.649
 3502POPC   C3A46949  26.887  30.095   6.967
 3502POPC   C4A46950  26.689  30.153   7.375
 3502POPC   C1B46951  27.090  29.631   6.113
 3502POPC   C2B46952  27.228  29.700   6.574
 3502POPC   C3B46953  27.082  29.601   6.986
 3502POPC   C4B46954  26.710  29.656   7.178
 3503POPC   NC346955   8.427  34.280   5.165
 3503POPC   PO446956   8.059  34.813   5.393
 3503POPC   GL146957   8.281  34.604   5.709
 3503POPC   GL246958   8.014  34.371   5.751
 3503POPC   C1A46959   8.362  34.455   6.125
 3503POPC   D2A46960   8.333  34.309   6.547
 3503POPC   C3A46961   8.437  34.651   6.836
 3503POPC   C4A46962   8.395  34.773   7.262
 3503POPC   C1B46963   7.863  34.620   6.101
 3503POPC   C2B46964   7.780  34.605   6.554
 3503POPC   C3B46965   7.925  34.732   6.986
 3503POPC   C4B46966   7.724  34.527   7.334
 3504POPC   NC346967  26.968  36.804   5.454
 3504POPC   PO446968  26.380  37.095   5.255
 3504POPC   GL146969  26.637  37.080   5.732
 3504POPC   GL246970  27.008  37.054   5.872
 3504POPC   C1A46971  26.648  36.890   6.224
 3504POPC   D2A46972  26.516  36.926   6.696
 3504POPC   C3A46973  26.773  36.778   7.074
 3504POPC   C4A46974  26.677  36.836   7.540
 3504POPC   C1B46975  27.131  37.066   6.270
 3504POPC   C2B46976  27.028  36.912   6.627
 3504POPC   C3B46977  27.281  36.875   6.958
 3504POPC   C4B46978  27.167  37.006   7.352
 3505POPC   NC346979  12.579  20.075   5.438
 3505POPC   PO446980  13.047  19.623   5.446
 3505POPC   GL146981  12.940  19.871   5.793
 3505POPC   GL246982  12.636  19.677   5.846
 3505POPC   C1A46983  13.008  19.924   6.256
 3505POPC   D2A46984  12.870  20.162   6.653
 3505POPC   C3A46985  12.703  19.923   7.009
 3505POPC   C4A46986  12.916  19.642   7.238
 3505POPC   C1B46987  12.721  19.446   6.249
 3505POPC   C2B46988  12.736  19.520   6.702
 3505POPC   C3B46989  12.518  19.359   7.053
 3505POPC   C4B46990  12.410  19.649   7.382
 3506POPC   NC346991  27.560   0.071   5.572
 3506POPC   PO446992  27.879   0.609   5.426
 3506POPC   GL146993  27.622   0.531   5.807
 3506POPC   GL246994  27.708   0.244   6.019
 3506POPC   C1A46995  27.433   0.667   6.207
 3506POPC   D2A46996  27.259   0.693   6.631
 3506POPC   C3A46997  27.528   0.541   6.952
 3506POPC   C4A46998  27.444   0.502   7.364
 3506POPC   C1B46999  27.918   0.131   6.374
 3506POPC   C2B47000  27.886   0.210   6.800
 3506POPC   C3B47001  27.807   0.112   7.211
 3506POPC   C4B47002  27.703   0.081   7.650
 3507POPC   NC347003  21.369  27.284   5.407
 3507POPC   PO447004  21.428  26.626   5.401
 3507POPC   GL147005  21.594  26.537   5.804
 3507POPC   GL247006  21.643  26.899   5.817
 3507POPC   C1A47007  21.652  26.626   6.259
 3507POPC   D2A47008  21.443  26.462   6.611
 3507POPC   C3A47009  21.548  26.648   6.997
 3507POPC   C4A47010  21.310  26.525   7.340
 3507POPC   C1B47011  21.279  26.933   6.101
 3507POPC   C2B47012  21.198  26.930   6.576
 3507POPC   C3B47013  21.056  26.792   6.998
 3507POPC   C4B47014  21.140  26.992   7.436
 3508POPC   NC347015  15.852  21.035   5.628
 3508POPC   PO447016  16.196  20.595   5.152
 3508POPC   GL147017  16.233  20.652   5.638
 3508POPC   GL247018  16.012  20.405   5.834
 3508POPC   C1A47019  16.215  20.763   6.131
 3508POPC   D2A47020  16.050  20.555   6.528
 3508POPC   C3A47021  16.024  20.860   6.911
 3508POPC   C4A47022  16.306  21.048   7.239
 3508POPC   C1B47023  15.669  20.296   6.144
 3508POPC   C2B47024  15.531  20.443   6.554
 3508POPC   C3B47025  15.767  20.402   6.950
 3508POPC   C4B47026  15.649  20.301   7.356
 3509POPC   NC347027  37.186   7.585   5.284
 3509POPC   PO447028  37.772   7.218   5.086
 3509POPC   GL147029  37.812   7.447   5.499
 3509POPC   GL247030  37.499   7.388   5.633
 3509POPC   C1A47031  37.835   7.539   6.000
 3509POPC   D2A47032  37.557   7.705   6.359
 3509POPC   C3A47033  37.583   7.564   6.796
 3509POPC   C4A47034  37.742   7.692   7.183
 3509POPC   C1B47035  37.352   7.298   6.053
 3509POPC   C2B47036  37.309   7.247   6.499
 3509POPC   C3B47037  37.178   7.262   6.951
 3509POPC   C4B47038  37.490   7.220   7.258
 3510POPC   NC347039  34.070  12.684   5.360
 3510POPC   PO447040  33.728  13.251   5.565
 3510POPC   GL147041  33.675  12.981   5.936
 3510POPC   GL247042  33.953  12.762   5.872
 3510POPC   C1A47043  33.687  12.617   6.293
 3510POPC   D2A47044  33.640  12.350   6.685
 3510POPC   C3A47045  33.598  12.621   7.047
 3510POPC   C4A47046  33.620  13.098   7.077
 3510POPC   C1B47047  34.045  13.000   6.285
 3510POPC   C2B47048  33.935  12.874   6.726
 3510POPC   C3B47049  34.048  12.851   7.187
 3510POPC   C4B47050  34.127  12.722   7.610
 3511POPC   NC347051  24.934  43.901   5.339
 3511POPC   PO447052  25.482  43.653   5.475
 3511POPC   GL147053  25.451  43.578   5.941
 3511POPC   GL247054  25.091  43.521   5.910
 3511POPC   C1A47055  25.587  43.733   6.415
 3511POPC   D2A47056  25.693  44.079   6.763
 3511POPC   C3A47057  25.423  44.140   7.172
 3511POPC   C4A47058  25.408  44.129   7.653
 3511POPC   C1B47059  25.079  43.739   6.311
 3511POPC   C2B47060  25.153  43.961   6.718
 3511POPC   C3B47061  24.914  44.181   7.062
 3511POPC   C4B47062  24.924  44.133   7.511
 3512POPC   NC347063  22.725  37.691   5.276
 3512POPC   PO447064  22.178  37.333   5.390
 3512POPC   GL147065  22.248  37.628   5.779
 3512POPC   GL247066  21.956  37.664   5.868
 3512POPC   C1A47067  22.451  37.723   6.235
 3512POPC   D2A47068  22.704  37.673   6.651
 3512POPC   C3A47069  22.485  37.703   7.091
 3512POPC   C4A47070  22.302  37.734   7.547
 3512POPC   C1B47071  21.969  37.537   6.296
 3512POPC   C2B47072  22.051  37.688   6.724
 3512POPC   C3B47073  21.952  37.670   7.146
 3512POPC   C4B47074  21.821  37.306   7.340
 3513POPC   NC347075   1.498  23.588   5.372
 3513POPC   PO447076   0.861  24.023   5.413
 3513POPC   GL147077   1.120  23.813   5.771
 3513POPC   GL247078   1.288  23.487   5.823
 3513POPC   C1A47079   1.313  23.969   6.182
 3513POPC   D2A47080   1.174  24.091   6.616
 3513POPC   C3A47081   1.419  23.875   6.980
 3513POPC   C4A47082   1.330  23.718   7.442
 3513POPC   C1B47083   1.115  23.503   6.225
 3513POPC   C2B47084   1.127  23.588   6.647
 3513POPC   C3B47085   1.175  23.422   7.047
 3513POPC   C4B47086   0.906  23.442   7.369
 3514POPC   NC347087  39.143  22.347   5.305
 3514POPC   PO447088  39.731  22.447   5.481
 3514POPC   GL147089  39.370  22.409   5.810
 3514POPC   GL247090  38.960  22.433   5.790
 3514POPC   C1A47091  39.258  22.300   6.256
 3514POPC   D2A47092  39.282  21.982   6.617
 3514POPC   C3A47093  39.345  22.059   7.106
 3514POPC   C4A47094  39.300  22.105   7.568
 3514POPC   C1B47095  38.753  22.321   6.223
 3514POPC   C2B47096  38.865  22.261   6.634
 3514POPC   C3B47097  38.870  21.960   6.949
 3514POPC   C4B47098  38.852  22.159   7.296
 3515POPC   NC347099  42.776  32.851   5.420
 3515POPC   PO447100  43.475  32.655   5.282
 3515POPC   GL147101  43.252  32.911   5.636
 3515POPC   GL247102  42.993  32.709   5.854
 3515POPC   C1A47103  43.227  33.064   6.087
 3515POPC   D2A47104  43.160  32.800   6.441
 3515POPC   C3A47105  43.137  32.989   6.840
 3515POPC   C4A47106  43.303  33.099   7.228
 3515POPC   C1B47107  42.706  32.963   6.090
 3515POPC   C2B47108  42.702  33.065   6.514
 3515POPC   C3B47109  42.630  32.925   6.891
 3515POPC   C4B47110  42.787  33.028   7.268
 3516POPC   NC347111   7.187  30.401   5.269
 3516POPC   PO447112   7.596  30.667   5.694
 3516POPC   GL147113   7.359  30.727   6.020
 3516POPC   GL247114   7.068  30.668   5.845
 3516POPC   C1A47115   7.499  30.739   6.446
 3516POPC   D2A47116   7.648  31.048   6.742
 3516POPC   C3A47117   7.656  30.863   7.141
 3516POPC   C4A47118   7.341  30.880   7.475
 3516POPC   C1B47119   7.169  30.265   6.074
 3516POPC   C2B47120   7.382  30.177   6.450
 3516POPC   C3B47121   7.216  30.125   6.849
 3516POPC   C4B47122   7.329  30.479   7.128
 3517POPC   NC347123  31.824  16.645   5.338
 3517POPC   PO447124  32.357  17.154   5.262
 3517POPC   GL147125  32.287  16.991   5.716
 3517POPC   GL247126  32.033  16.748   5.776
 3517POPC   C1A47127  32.377  16.839   6.155
 3517POPC   D2A47128  32.274  17.063   6.535
 3517POPC   C3A47129  32.267  16.918   6.947
 3517POPC   C4A47130  32.580  16.853   7.270
 3517POPC   C1B47131  32.133  16.393   6.060
 3517POPC   C2B47132  32.133  16.536   6.494
 3517POPC   C3B47133  32.286  16.404   6.857
 3517POPC   C4B47134  32.194  16.496   7.245
 3518POPC   NC347135   0.835  21.364   5.661
 3518POPC   PO447136   1.490  21.447   5.419
 3518POPC   GL147137   1.446  21.528   5.863
 3518POPC   GL247138   1.143  21.760   5.887
 3518POPC   C1A47139   1.348  21.472   6.310
 3518POPC   D2A47140   1.048  21.143   6.437
 3518POPC   C3A47141   0.900  21.114   6.859
 3518POPC   C4A47142   1.189  21.049   7.154
 3518POPC   C1B47143   0.856  21.676   6.251
 3518POPC   C2B47144   0.908  21.582   6.667
 3518POPC   C3B47145   1.108  21.548   7.058
 3518POPC   C4B47146   1.530  21.697   7.044
 3519POPC   NC347147   4.131  27.689   5.464
 3519POPC   PO447148   4.484  27.191   5.266
 3519POPC   GL147149   4.559  27.320   5.743
 3519POPC   GL247150   4.198  27.387   5.874
 3519POPC   C1A47151   4.554  27.426   6.238
 3519POPC   D2A47152   4.262  27.498   6.621
 3519POPC   C3A47153   4.253  27.427   7.091
 3519POPC   C4A47154   4.487  27.276   7.449
 3519POPC   C1B47155   3.986  27.769   6.095
 3519POPC   C2B47156   4.089  27.994   6.475
 3519POPC   C3B47157   3.966  27.854   6.886
 3519POPC   C4B47158   4.109  27.911   7.306
 3520POPC   NC347159  29.218  28.539   5.429
 3520POPC   PO447160  28.682  28.161   5.463
 3520POPC   GL147161  29.023  28.208   5.821
 3520POPC   GL247162  29.233  28.524   5.932
 3520POPC   C1A47163  28.943  28.266   6.278
 3520POPC   D2A47164  29.100  28.454   6.662
 3520POPC   C3A47165  29.205  28.343   7.079
 3520POPC   C4A47166  29.173  28.109   7.387
 3520POPC   C1B47167  29.491  28.399   6.304
 3520POPC   C2B47168  29.599  28.381   6.764
 3520POPC   C3B47169  29.630  28.612   7.179
 3520POPC   C4B47170  29.481  28.449   7.612
 3521POPC   NC347171  44.450  14.332   5.420
 3521POPC   PO447172  44.927  14.794   5.323
 3521POPC   GL147173  44.677  14.685   5.741
 3521POPC   GL247174  44.655  14.306   5.874
 3521POPC   C1A47175  44.543  14.653   6.211
 3521POPC   D2A47176  44.500  14.406   6.590
 3521POPC   C3A47177  44.623  14.619   6.957
 3521POPC   C4A47178  44.681  14.420   7.346
 3521POPC   C1B47179  44.840  14.137   6.263
 3521POPC   C2B47180  44.735  13.961   6.670
 3521POPC   C3B47181  44.588  13.995   7.108
 3521POPC   C4B47182  44.592  13.971   7.592
 3522POPC   NC347183   3.326   6.652   5.650
 3522POPC   PO447184   2.711   6.607   5.289
 3522POPC   GL147185   2.811   6.495   5.714
 3522POPC   GL247186   3.006   6.203   5.807
 3522POPC   C1A47187   2.702   6.427   6.149
 3522POPC   D2A47188   2.450   6.507   6.503
 3522POPC   C3A47189   2.691   6.764   6.767
 3522POPC   C4A47190   2.675   6.728   7.198
 3522POPC   C1B47191   3.187   6.205   6.188
 3522POPC   C2B47192   3.096   6.419   6.570
 3522POPC   C3B47193   2.893   6.339   6.943
 3522POPC   C4B47194   3.014   6.361   7.327
 3523POPC   NC347195  21.848  21.509   5.180
 3523POPC   PO447196  22.390  21.179   5.346
 3523POPC   GL147197  22.273  21.351   5.762
 3523POPC   GL247198  21.914  21.457   5.704
 3523POPC   C1A47199  22.328  21.399   6.240
 3523POPC   D2A47200  22.105  21.219   6.607
 3523POPC   C3A47201  22.296  21.228   7.049
 3523POPC   C4A47202  22.294  21.624   7.314
 3523POPC   C1B47203  21.827  21.484   6.135
 3523POPC   C2B47204  21.868  21.673   6.543
 3523POPC   C3B47205  21.890  21.513   6.960
 3523POPC   C4B47206  21.849  21.205   7.288
 3524POPC   NC347207  28.347  44.455   5.590
 3524POPC   PO447208  27.942  44.958   5.330
 3524POPC   GL147209  28.084  44.959   5.773
 3524POPC   GL247210  28.437  44.907   5.806
 3524POPC   C1A47211  28.098  44.687   6.175
 3524POPC   D2A47212  27.971  44.346   6.498
 3524POPC   C3A47213  28.069  44.495   6.939
 3524POPC   C4A47214  28.249  44.887   7.044
 3524POPC   C1B47215  28.612  44.724   6.198
 3524POPC   C2B47216  28.476  44.516   6.592
 3524POPC   C3B47217  28.566  44.293   6.965
 3524POPC   C4B47218  28.813  44.419   7.318
 3525POPC   NC347219  11.732  22.250   5.379
 3525POPC   PO447220  12.298  21.947   5.375
 3525POPC   GL147221  12.132  22.237   5.733
 3525POPC   GL247222  11.876  22.446   5.831
 3525POPC   C1A47223  12.216  22.274   6.183
 3525POPC   D2A47224  12.439  22.421   6.561
 3525POPC   C3A47225  12.231  22.340   6.946
 3525POPC   C4A47226  12.016  22.125   7.270
 3525POPC   C1B47227  11.715  22.436   6.238
 3525POPC   C2B47228  11.697  22.257   6.662
 3525POPC   C3B47229  11.636  22.391   7.098
 3525POPC   C4B47230  11.625  22.351   7.582
 3526POPC   NC347231  26.584  43.552   5.468
 3526POPC   PO447232  26.910  43.004   5.399
 3526POPC   GL147233  26.881  43.133   5.800
 3526POPC   GL247234  26.689  43.365   5.904
 3526POPC   C1A47235  26.955  42.902   6.192
 3526POPC   D2A47236  27.230  42.829   6.551
 3526POPC   C3A47237  26.988  42.789   6.958
 3526POPC   C4A47238  26.903  42.851   7.402
 3526POPC   C1B47239  26.857  43.426   6.274
 3526POPC   C2B47240  26.844  43.163   6.615
 3526POPC   C3B47241  26.604  43.143   6.950
 3526POPC   C4B47242  26.604  43.285   7.349
 3527POPC   NC347243  28.112  20.807   5.499
 3527POPC   PO447244  28.635  20.379   5.570
 3527POPC   GL147245  28.387  20.581   5.870
 3527POPC   GL247246  28.079  20.404   5.948
 3527POPC   C1A47247  28.371  20.762   6.269
 3527POPC   D2A47248  28.180  20.725   6.666
 3527POPC   C3A47249  28.404  20.727   7.052
 3527POPC   C4A47250  28.086  20.918   7.285
 3527POPC   C1B47251  28.366  20.215   6.259
 3527POPC   C2B47252  28.382  20.245   6.695
 3527POPC   C3B47253  28.116  20.318   7.019
 3527POPC   C4B47254  28.201  20.427   7.482
 3528POPC   NC347255  35.895  37.947   5.467
 3528POPC   PO447256  36.304  38.314   5.108
 3528POPC   GL147257  36.204  38.317   5.664
 3528POPC   GL247258  35.998  38.598   5.839
 3528POPC   C1A47259  36.178  38.269   6.198
 3528POPC   D2A47260  35.982  38.505   6.579
 3528POPC   C3A47261  36.112  38.409   7.018
 3528POPC   C4A47262  36.156  38.549   7.465
 3528POPC   C1B47263  36.305  38.760   6.166
 3528POPC   C2B47264  36.395  38.923   6.579
 3528POPC   C3B47265  36.561  38.822   7.002
 3528POPC   C4B47266  36.616  38.827   7.452
 3529POPC   NC347267  23.499  12.092   5.224
 3529POPC   PO447268  23.983  11.940   5.591
 3529POPC   GL147269  23.671  12.024   5.834
 3529POPC   GL247270  23.651  12.345   5.690
 3529POPC   C1A47271  23.546  12.064   6.261
 3529POPC   D2A47272  23.429  11.928   6.669
 3529POPC   C3A47273  23.733  11.800   6.990
 3529POPC   C4A47274  23.901  11.913   7.408
 3529POPC   C1B47275  23.839  12.472   6.098
 3529POPC   C2B47276  23.815  12.436   6.549
 3529POPC   C3B47277  23.639  12.313   6.939
 3529POPC   C4B47278  23.825  12.486   7.263
 3530POPC   NC347279   9.600  11.401   5.265
 3530POPC   PO447280   9.246  11.794   5.694
 3530POPC   GL147281   9.681  11.590   5.852
 3530POPC   GL247282   9.960  11.349   5.737
 3530POPC   C1A47283   9.935  11.508   6.253
 3530POPC   D2A47284   9.924  11.521   6.699
 3530POPC   C3A47285   9.589  11.218   6.820
 3530POPC   C4A47286   9.381  11.121   7.189
 3530POPC   C1B47287  10.157  11.072   6.072
 3530POPC   C2B47288  10.246  11.131   6.534
 3530POPC   C3B47289  10.066  11.098   6.968
 3530POPC   C4B47290  10.210  10.985   7.364
 3531POPC   NC347291   7.273  24.971   5.318
 3531POPC   PO447292   7.430  25.603   5.554
 3531POPC   GL147293   7.349  25.404   5.927
 3531POPC   GL247294   7.342  25.069   5.809
 3531POPC   C1A47295   7.571  25.195   6.265
 3531POPC   D2A47296   7.682  25.081   6.695
 3531POPC   C3A47297   7.583  25.316   7.091
 3531POPC   C4A47298   7.570  25.383   7.560
 3531POPC   C1B47299   7.072  24.948   6.125
 3531POPC   C2B47300   7.167  25.051   6.568
 3531POPC   C3B47301   7.135  25.045   7.011
 3531POPC   C4B47302   7.298  24.978   7.411
 3532POPC   NC347303  30.612  31.107   5.333
 3532POPC   PO447304  30.883  31.758   5.487
 3532POPC   GL147305  30.657  31.463   5.700
 3532POPC   GL247306  30.951  31.211   5.718
 3532POPC   C1A47307  30.476  31.520   6.096
 3532POPC   D2A47308  30.607  31.376   6.497
 3532POPC   C3A47309  30.576  31.553   6.894
 3532POPC   C4A47310  30.676  31.441   7.329
 3532POPC   C1B47311  30.967  31.379   6.144
 3532POPC   C2B47312  31.088  31.475   6.600
 3532POPC   C3B47313  31.084  31.541   7.042
 3532POPC   C4B47314  31.126  31.247   7.406
 3533POPC   NC347315   6.993  17.206   5.474
 3533POPC   PO447316   6.602  17.794   5.454
 3533POPC   GL147317   6.588  17.543   5.789
 3533POPC   GL247318   6.892  17.373   5.933
 3533POPC   C1A47319   6.634  17.713   6.184
 3533POPC   D2A47320   6.767  17.419   6.502
 3533POPC   C3A47321   6.616  17.445   6.889
 3533POPC   C4A47322   6.694  17.649   7.223
 3533POPC   C1B47323   7.200  17.396   6.242
 3533POPC   C2B47324   7.212  17.085   6.516
 3533POPC   C3B47325   7.019  17.117   6.881
 3533POPC   C4B47326   7.181  17.298   7.226
 3534POPC   NC347327  44.791  29.894   5.351
 3534POPC   PO447328  44.076  29.809   5.419
 3534POPC   GL147329  44.408  29.867   5.746
 3534POPC   GL247330  44.284  30.180   5.899
 3534POPC   C1A47331  44.764  29.740   6.069
 3534POPC   D2A47332  44.923  29.579   6.485
 3534POPC   C3A47333  44.851  29.837   6.860
 3534POPC   C4A47334  44.855  29.884   7.310
 3534POPC   C1B47335  44.708  30.252   6.118
 3534POPC   C2B47336  44.898  30.405   6.536
 3534POPC   C3B47337  44.702  30.328   6.953
 3534POPC   C4B47338  44.357  30.025   7.054
 3535POPC   NC347339  44.827   4.244   5.313
 3535POPC   PO447340  44.946   4.884   5.565
 3535POPC   GL147341  44.778   4.486   5.786
 3535POPC   GL247342   0.018   4.220   5.808
 3535POPC   C1A47343  44.570   4.503   6.214
 3535POPC   D2A47344  44.516   4.767   6.598
 3535POPC   C3A47345  44.634   4.597   7.031
 3535POPC   C4A47346  44.462   4.225   7.279
 3535POPC   C1B47347   0.095   4.504   6.186
 3535POPC   C2B47348  44.975   4.456   6.640
 3535POPC   C3B47349  44.927   4.155   7.014
 3535POPC   C4B47350  44.937   4.331   7.430
 3536POPC   NC347351   4.260  12.613   5.261
 3536POPC   PO447352   3.906  13.157   5.367
 3536POPC   GL147353   3.973  13.084   5.810
 3536POPC   GL247354   4.326  12.881   5.876
 3536POPC   C1A47355   4.130  13.185   6.230
 3536POPC   D2A47356   4.316  12.780   6.445
 3536POPC   C3A47357   4.308  12.683   6.896
 3536POPC   C4A47358   4.083  12.665   7.295
 3536POPC   C1B47359   4.630  13.105   6.188
 3536POPC   C2B47360   4.482  13.245   6.612
 3536POPC   C3B47361   4.568  13.113   7.037
 3536POPC   C4B47362   4.569  12.769   7.345
 3537POPC   NC347363  35.158  37.520   5.299
 3537POPC   PO447364  35.780  37.570   5.189
 3537POPC   GL147365  35.525  37.646   5.632
 3537POPC   GL247366  35.362  37.966   5.600
 3537POPC   C1A47367  35.537  37.529   6.090
 3537POPC   D2A47368  35.477  37.385   6.503
 3537POPC   C3A47369  35.547  37.603   6.862
 3537POPC   C4A47370  35.578  37.428   7.267
 3537POPC   C1B47371  35.299  37.975   6.052
 3537POPC   C2B47372  35.283  37.905   6.493
 3537POPC   C3B47373  35.203  37.970   6.918
 3537POPC   C4B47374  35.302  37.872   7.316
 3538POPC   NC347375  20.872  43.214   5.425
 3538POPC   PO447376  20.365  42.865   5.434
 3538POPC   GL147377  20.506  43.018   5.803
 3538POPC   GL247378  20.843  43.017   5.898
 3538POPC   C1A47379  20.420  43.017   6.215
 3538POPC   D2A47380  20.578  43.075   6.644
 3538POPC   C3A47381  20.726  42.853   6.970
 3538POPC   C4A47382  20.584  43.037   7.331
 3538POPC   C1B47383  20.854  43.281   6.271
 3538POPC   C2B47384  20.711  43.555   6.641
 3538POPC   C3B47385  20.717  43.458   7.084
 3538POPC   C4B47386  20.831  43.423   7.548
 3539POPC   NC347387  44.923   3.270   5.532
 3539POPC   PO447388  44.673   3.888   5.543
 3539POPC   GL147389  44.535   3.644   5.868
 3539POPC   GL247390  44.428   3.329   5.693
 3539POPC   C1A47391  44.750   3.624   6.287
 3539POPC   D2A47392  44.929   3.516   6.699
 3539POPC   C3A47393  44.641   3.666   7.015
 3539POPC   C4A47394  44.659   3.803   7.444
 3539POPC   C1B47395  44.504   3.195   6.132
 3539POPC   C2B47396  44.498   3.265   6.579
 3539POPC   C3B47397  44.603   3.146   7.020
 3539POPC   C4B47398  44.477   3.328   7.427
 3540POPC   NC347399  20.242  20.751   5.423
 3540POPC   PO447400  19.694  20.245   5.475
 3540POPC   GL147401  19.994  20.446   5.786
 3540POPC   GL247402  20.208  20.137   5.832
 3540POPC   C1A47403  19.977  20.728   6.191
 3540POPC   D2A47404  20.077  20.950   6.599
 3540POPC   C3A47405  19.955  20.807   7.004
 3540POPC   C4A47406  19.587  20.669   7.248
 3540POPC   C1B47407  19.961  20.200   6.233
 3540POPC   C2B47408  19.644  20.170   6.549
 3540POPC   C3B47409  19.812  20.315   6.923
 3540POPC   C4B47410  20.109  20.328   7.248
 3541POPC   NC347411   1.002  29.363   5.573
 3541POPC   PO447412   1.718  29.282   5.448
 3541POPC   GL147413   1.485  29.084   5.806
 3541POPC   GL247414   1.444  29.435   5.863
 3541POPC   C1A47415   1.133  28.972   6.147
 3541POPC   D2A47416   1.007  29.145   6.600
 3541POPC   C3A47417   1.062  29.001   7.055
 3541POPC   C4A47418   0.930  29.119   7.485
 3541POPC   C1B47419   1.212  29.467   6.223
 3541POPC   C2B47420   1.130  29.646   6.605
 3541POPC   C3B47421   1.166  29.501   6.976
 3541POPC   C4B47422   1.341  29.381   7.321
 3542POPC   NC347423  24.713  19.060   5.620
 3542POPC   PO447424  24.062  19.409   5.583
 3542POPC   GL147425  24.320  19.209   5.873
 3542POPC   GL247426  24.285  18.853   5.816
 3542POPC   C1A47427  24.530  19.128   6.273
 3542POPC   D2A47428  24.384  19.147   6.689
 3542POPC   C3A47429  24.604  19.326   7.010
 3542POPC   C4A47430  24.554  19.218   7.423
 3542POPC   C1B47431  24.141  18.727   6.223
 3542POPC   C2B47432  24.124  18.707   6.673
 3542POPC   C3B47433  24.346  18.809   7.068
 3542POPC   C4B47434  24.727  18.726   7.273
 3543POPC   NC347435   0.778   3.671   5.301
 3543POPC   PO447436   0.364   3.130   5.465
 3543POPC   GL147437   0.510   3.326   5.850
 3543POPC   GL247438   0.577   3.688   5.785
 3543POPC   C1A47439   0.267   3.542   6.207
 3543POPC   D2A47440   0.361   3.802   6.580
 3543POPC   C3A47441   0.379   3.538   6.957
 3543POPC   C4A47442   0.095   3.638   7.257
 3543POPC   C1B47443   0.754   3.650   6.201
 3543POPC   C2B47444   0.846   3.686   6.609
 3543POPC   C3B47445   0.749   3.868   6.989
 3543POPC   C4B47446   0.737   3.704   7.386
 3544POPC   NC347447  23.591  28.553   5.160
 3544POPC   PO447448  23.949  27.962   5.309
 3544POPC   GL147449  23.691  28.099   5.651
 3544POPC   GL247450  23.687  28.470   5.702
 3544POPC   C1A47451  23.828  28.138   6.085
 3544POPC   D2A47452  23.991  28.314   6.456
 3544POPC   C3A47453  23.654  28.293   6.735
 3544POPC   C4A47454  23.915  28.129   7.061
 3544POPC   C1B47455  23.711  28.659   6.141
 3544POPC   C2B47456  23.903  28.822   6.545
 3544POPC   C3B47457  23.956  28.630   6.943
 3544POPC   C4B47458  23.620  28.481   7.250
 3545POPC   NC347459  19.010  43.264   5.375
 3545POPC   PO447460  18.911  42.587   5.294
 3545POPC   GL147461  18.968  42.830   5.670
 3545POPC   GL247462  18.671  42.992   5.673
 3545POPC   C1A47463  19.217  43.105   6.004
 3545POPC   D2A47464  19.348  43.315   6.388
 3545POPC   C3A47465  19.256  43.187   6.815
 3545POPC   C4A47466  19.097  43.124   7.242
 3545POPC   C1B47467  18.736  42.968   6.116
 3545POPC   C2B47468  18.857  43.192   6.479
 3545POPC   C3B47469  18.736  43.351   6.890
 3545POPC   C4B47470  18.581  43.315   7.297
 3546POPC   NC347471  15.493  24.586   5.471
 3546POPC   PO447472  15.158  24.011   5.292
 3546POPC   GL147473  15.174  24.258   5.691
 3546POPC   GL247474  15.478  24.155   5.823
 3546POPC   C1A47475  15.145  24.465   6.135
 3546POPC   D2A47476  14.902  24.606   6.527
 3546POPC   C3A47477  14.914  24.359   6.901
 3546POPC   C4A47478  15.217  24.627   7.067
 3546POPC   C1B47479  15.557  24.139   6.246
 3546POPC   C2B47480  15.342  24.291   6.613
 3546POPC   C3B47481  15.482  24.208   7.040
 3546POPC   C4B47482  15.565  24.441   7.430
 3547POPC   NC347483  16.167  10.369   5.393
 3547POPC   PO447484  15.571  10.652   5.456
 3547POPC   GL147485  15.905  10.638   5.763
 3547POPC   GL247486  15.942  10.276   5.836
 3547POPC   C1A47487  16.046  10.604   6.212
 3547POPC   D2A47488  16.168  10.526   6.624
 3547POPC   C3A47489  15.801  10.555   6.895
 3547POPC   C4A47490  15.887  10.750   7.267
 3547POPC   C1B47491  16.046  10.092   6.235
 3547POPC   C2B47492  15.797  10.092   6.585
 3547POPC   C3B47493  16.058  10.094   6.874
 3547POPC   C4B47494  16.220  10.374   7.139
 3548POPC   NC347495  19.670   4.731   5.475
 3548POPC   PO447496  19.452   4.084   5.282
 3548POPC   GL147497  19.646   4.258   5.706
 3548POPC   GL247498  19.489   4.535   5.901
 3548POPC   C1A47499  19.831   4.289   6.165
 3548POPC   D2A47500  19.638   4.301   6.611
 3548POPC   C3A47501  19.848   4.228   7.023
 3548POPC   C4A47502  19.834   4.188   7.462
 3548POPC   C1B47503  19.350   4.576   6.292
 3548POPC   C2B47504  19.367   4.765   6.688
 3548POPC   C3B47505  19.402   4.494   7.061
 3548POPC   C4B47506  19.429   4.527   7.507
 3549POPC   NC347507   5.081   1.075   5.412
 3549POPC   PO447508   4.766   1.707   5.383
 3549POPC   GL147509   4.883   1.445   5.769
 3549POPC   GL247510   4.907   1.081   5.893
 3549POPC   C1A47511   5.238   1.430   6.062
 3549POPC   D2A47512   5.253   1.530   6.474
 3549POPC   C3A47513   5.100   1.328   6.847
 3549POPC   C4A47514   5.434   1.344   7.140
 3549POPC   C1B47515   4.832   1.213   6.299
 3549POPC   C2B47516   4.661   1.110   6.655
 3549POPC   C3B47517   4.792   0.916   7.016
 3549POPC   C4B47518   4.972   1.096   7.361
 3550POPC   NC347519   0.162   7.089   5.323
 3550POPC   PO447520   0.406   7.750   5.412
 3550POPC   GL147521   0.547   7.532   5.806
 3550POPC   GL247522   0.436   7.170   5.799
 3550POPC   C1A47523   0.677   7.449   6.239
 3550POPC   D2A47524   0.481   7.259   6.612
 3550POPC   C3A47525   0.272   7.478   6.914
 3550POPC   C4A47526   0.597   7.594   7.175
 3550POPC   C1B47527   0.508   6.955   6.197
 3550POPC   C2B47528   0.291   6.790   6.560
 3550POPC   C3B47529   0.155   6.951   6.951
 3550POPC   C4B47530   0.338   7.136   7.276
 3551POPC   NC347531  43.408  39.005   5.544
 3551POPC   PO447532  43.075  39.552   5.363
 3551POPC   GL147533  43.249  39.456   5.772
 3551POPC   GL247534  43.050  39.766   5.844
 3551POPC   C1A47535  43.302  39.172   6.154
 3551POPC   D2A47536  43.440  38.880   6.483
 3551POPC   C3A47537  43.403  39.013   6.873
 3551POPC   C4A47538  43.356  38.997   7.302
 3551POPC   C1B47539  42.966  39.574   6.217
 3551POPC   C2B47540  43.145  39.374   6.606
 3551POPC   C3B47541  43.030  39.305   7.054
 3551POPC   C4B47542  42.974  39.271   7.526
 3552POPC   NC347543  44.223   3.945   5.488
 3552POPC   PO447544  43.825   3.432   5.435
 3552POPC   GL147545  44.012   3.593   5.856
 3552POPC   GL247546  43.898   3.936   5.880
 3552POPC   C1A47547  44.220   3.646   6.297
 3552POPC   D2A47548  44.125   3.548   6.754
 3552POPC   C3A47549  44.162   3.759   7.163
 3552POPC   C4A47550  44.185   3.810   7.618
 3552POPC   C1B47551  43.747   3.840   6.299
 3552POPC   C2B47552  43.632   3.543   6.630
 3552POPC   C3B47553  43.702   3.492   7.074
 3552POPC   C4B47554  43.716   3.781   7.436
 3553POPC   NC347555   2.646   7.085   5.240
 3553POPC   PO447556   3.048   7.547   5.356
 3553POPC   GL147557   2.909   7.612   5.833
 3553POPC   GL247558   2.578   7.782   5.870
 3553POPC   C1A47559   2.898   7.598   6.298
 3553POPC   D2A47560   2.842   7.199   6.527
 3553POPC   C3A47561   2.815   7.227   6.973
 3553POPC   C4A47562   2.783   7.622   7.157
 3553POPC   C1B47563   2.429   7.441   6.180
 3553POPC   C2B47564   2.454   7.544   6.630
 3553POPC   C3B47565   2.315   7.371   7.006
 3553POPC   C4B47566   2.200   7.075   7.302
 3554POPC   NC347567  31.018  30.344   5.497
 3554POPC   PO447568  30.412  30.603   5.359
 3554POPC   GL147569  30.627  30.598   5.745
 3554POPC   GL247570  30.502  30.939   5.802
 3554POPC   C1A47571  30.781  30.379   6.139
 3554POPC   D2A47572  30.666  30.494   6.553
 3554POPC   C3A47573  30.776  30.405   6.970
 3554POPC   C4A47574  30.557  30.725   7.153
 3554POPC   C1B47575  30.843  30.885   6.105
 3554POPC   C2B47576  30.942  30.980   6.514
 3554POPC   C3B47577  30.866  31.086   6.939
 3554POPC   C4B47578  31.074  30.783   7.196
 3555POPC   NC347579   0.385  35.116   5.553
 3555POPC   PO447580   0.155  34.514   5.347
 3555POPC   GL147581   0.111  34.613   5.818
 3555POPC   GL247582  44.998  34.972   5.863
 3555POPC   C1A47583   0.371  34.640   6.245
 3555POPC   D2A47584   0.536  34.373   6.620
 3555POPC   C3A47585   0.612  34.427   7.075
 3555POPC   C4A47586   0.656  34.808   7.332
 3555POPC   C1B47587  44.889  34.811   6.256
 3555POPC   C2B47588   0.032  34.594   6.630
 3555POPC   C3B47589  44.978  34.750   7.045
 3555POPC   C4B47590   0.196  34.595   7.397
 3556POPC   NC347591  37.450  21.318   5.304
 3556POPC   PO447592  37.775  21.937   5.334
 3556POPC   GL147593  37.622  21.652   5.673
 3556POPC   GL247594  37.885  21.576   5.906
 3556POPC   C1A47595  37.429  21.491   6.088
 3556POPC   D2A47596  37.597  21.461   6.534
 3556POPC   C3A47597  37.560  21.240   6.955
 3556POPC   C4A47598  37.620  21.316   7.396
 3556POPC   C1B47599  38.035  21.630   6.311
 3556POPC   C2B47600  37.959  21.778   6.711
 3556POPC   C3B47601  37.817  21.686   7.092
 3556POPC   C4B47602  37.870  21.725   7.529
 3557POPC   NC347603   7.219  19.461   5.485
 3557POPC   PO447604   7.794  19.763   5.309
 3557POPC   GL147605   7.577  19.737   5.774
 3557POPC   GL247606   7.767  19.559   6.065
 3557POPC   C1A47607   7.335  19.805   6.189
 3557POPC   D2A47608   7.417  19.869   6.611
 3557POPC   C3A47609   7.174  19.790   6.947
 3557POPC   C4A47610   7.171  20.118   7.226
 3557POPC   C1B47611   7.816  19.965   6.285
 3557POPC   C2B47612   7.895  20.039   6.733
 3557POPC   C3B47613   7.651  19.926   7.099
 3557POPC   C4B47614   7.554  20.094   7.543
 3558POPC   NC347615  33.681  36.136   5.404
 3558POPC   PO447616  34.291  36.344   5.478
 3558POPC   GL147617  33.985  36.117   5.814
 3558POPC   GL247618  33.662  35.836   5.807
 3558POPC   C1A47619  33.686  36.202   6.149
 3558POPC   D2A47620  33.605  36.341   6.562
 3558POPC   C3A47621  33.893  36.272   6.863
 3558POPC   C4A47622  33.803  36.318   7.273
 3558POPC   C1B47623  33.898  35.734   6.176
 3558POPC   C2B47624  33.776  35.845   6.600
 3558POPC   C3B47625  33.648  35.860   7.041
 3558POPC   C4B47626  33.849  35.742   7.418
 3559POPC   NC347627   9.253  44.569   5.491
 3559POPC   PO447628   8.640  44.819   5.233
 3559POPC   GL147629   8.775  44.475   5.673
 3559POPC   GL247630   9.009  44.628   5.968
 3559POPC   C1A47631   8.622  44.392   6.145
 3559POPC   D2A47632   8.879  44.603   6.478
 3559POPC   C3A47633   8.838  44.549   6.923
 3559POPC   C4A47634   8.636  44.223   7.221
 3559POPC   C1B47635   9.280  44.886   6.198
 3559POPC   C2B47636   9.502  44.968   6.568
 3559POPC   C3B47637   9.367  44.831   6.926
 3559POPC   C4B47638   9.172  44.747   7.276
 3560POPC   NC347639  35.226  35.290   5.429
 3560POPC   PO447640  35.778  35.649   5.543
 3560POPC   GL147641  35.568  35.437   5.836
 3560POPC   GL247642  35.537  35.063   5.799
 3560POPC   C1A47643  35.602  35.394   6.262
 3560POPC   D2A47644  35.578  35.580   6.671
 3560POPC   C3A47645  35.287  35.408   6.978
 3560POPC   C4A47646  35.376  35.231   7.369
 3560POPC   C1B47647  35.312  34.960   6.177
 3560POPC   C2B47648  35.435  35.023   6.611
 3560POPC   C3B47649  35.254  34.893   6.986
 3560POPC   C4B47650  34.933  35.003   7.305
 3561POPC   NC347651  25.041  39.273   5.394
 3561POPC   PO447652  24.614  38.806   5.229
 3561POPC   GL147653  24.680  38.901   5.680
 3561POPC   GL247654  24.347  38.906   5.846
 3561POPC   C1A47655  24.724  39.152   6.068
 3561POPC   D2A47656  24.608  39.474   6.399
 3561POPC   C3A47657  24.622  39.317   6.825
 3561POPC   C4A47658  24.633  39.480   7.252
 3561POPC   C1B47659  24.192  39.244   6.147
 3561POPC   C2B47660  24.074  39.279   6.604
 3561POPC   C3B47661  24.175  39.332   7.059
 3561POPC   C4B47662  24.436  39.015   7.327
 3562POPC   NC347663  34.090  42.077   5.411
 3562POPC   PO447664  33.875  41.452   5.290
 3562POPC   GL147665  33.868  41.517   5.789
 3562POPC   GL247666  33.617  41.282   5.966
 3562POPC   C1A47667  33.738  41.700   6.222
 3562POPC   D2A47668  33.502  41.726   6.614
 3562POPC   C3A47669  33.787  41.754   6.954
 3562POPC   C4A47670  33.820  41.520   7.330
 3562POPC   C1B47671  34.018  41.268   6.225
 3562POPC   C2B47672  34.093  41.533   6.582
 3562POPC   C3B47673  34.180  41.410   6.979
 3562POPC   C4B47674  34.166  41.008   7.098
 3563POPC   NC347675  11.108  18.174   5.295
 3563POPC   PO447676  11.483  18.587   5.617
 3563POPC   GL147677  11.285  18.192   5.806
 3563POPC   GL247678  11.006  17.953   5.758
 3563POPC   C1A47679  11.250  18.154   6.247
 3563POPC   D2A47680  11.489  18.443   6.528
 3563POPC   C3A47681  11.280  18.453   6.888
 3563POPC   C4A47682  11.276  18.332   7.291
 3563POPC   C1B47683  10.943  17.734   6.126
 3563POPC   C2B47684  11.127  17.738   6.534
 3563POPC   C3B47685  11.144  17.929   6.945
 3563POPC   C4B47686  11.037  17.649   7.279
 3564POPC   NC347687  30.455  35.420   5.463
 3564POPC   PO447688  31.128  35.284   5.327
 3564POPC   GL147689  30.862  35.167   5.715
 3564POPC   GL247690  30.698  35.455   5.903
 3564POPC   C1A47691  30.836  35.073   6.189
 3564POPC   D2A47692  30.682  35.277   6.576
 3564POPC   C3A47693  30.870  35.170   6.970
 3564POPC   C4A47694  30.799  35.291   7.410
 3564POPC   C1B47695  30.462  35.631   6.250
 3564POPC   C2B47696  30.290  35.608   6.666
 3564POPC   C3B47697  30.534  35.632   7.051
 3564POPC   C4B47698  30.345  35.513   7.442
 3565POPC   NC347699  33.063  35.510   5.545
 3565POPC   PO447700  32.462  35.356   5.250
 3565POPC   GL147701  32.718  35.180   5.679
 3565POPC   GL247702  33.057  34.982   5.688
 3565POPC   C1A47703  32.779  35.276   6.137
 3565POPC   D2A47704  32.953  35.543   6.480
 3565POPC   C3A47705  32.807  35.396   6.878
 3565POPC   C4A47706  32.883  35.450   7.297
 3565POPC   C1B47707  33.215  34.985   6.129
 3565POPC   C2B47708  33.031  35.044   6.565
 3565POPC   C3B47709  33.101  34.989   7.032
 3565POPC   C4B47710  33.517  35.075   7.193
 3566POPC   NC347711  37.832   9.929   5.164
 3566POPC   PO447712  37.374   9.524   5.454
 3566POPC   GL147713  37.571   9.692   5.795
 3566POPC   GL247714  37.783   9.949   5.690
 3566POPC   C1A47715  37.574   9.568   6.222
 3566POPC   D2A47716  37.839   9.595   6.595
 3566POPC   C3A47717  37.617   9.616   6.974
 3566POPC   C4A47718  37.201   9.712   7.124
 3566POPC   C1B47719  37.964   9.882   6.099
 3566POPC   C2B47720  37.918  10.112   6.471
 3566POPC   C3B47721  38.016  10.125   6.876
 3566POPC   C4B47722  37.999   9.859   7.215
 3567POPC   NC347723   3.208  21.520   5.407
 3567POPC   PO447724   3.711  21.102   5.197
 3567POPC   GL147725   3.583  21.243   5.643
 3567POPC   GL247726   3.241  21.153   5.750
 3567POPC   C1A47727   3.483  21.448   6.085
 3567POPC   D2A47728   3.689  21.397   6.480
 3567POPC   C3A47729   3.502  21.351   6.890
 3567POPC   C4A47730   3.668  21.519   7.287
 3567POPC   C1B47731   3.199  20.968   6.150
 3567POPC   C2B47732   3.390  20.963   6.552
 3567POPC   C3B47733   3.240  20.882   6.964
 3567POPC   C4B47734   3.298  21.141   7.320
 3568POPC   NC347735  15.073  44.435   5.255
 3568POPC   PO447736  15.020  44.873   5.594
 3568POPC   GL147737  14.999  44.586   5.954
 3568POPC   GL247738  15.246  44.793   6.148
 3568POPC   C1A47739  14.946  44.498   6.423
 3568POPC   D2A47740  15.190  44.763   6.719
 3568POPC   C3A47741  15.246  44.536   7.110
 3568POPC   C4A47742  15.181  44.132   7.366
 3568POPC   C1B47743  15.536   0.117   6.350
 3568POPC   C2B47744  15.717   0.193   6.767
 3568POPC   C3B47745  15.471   0.023   7.120
 3568POPC   C4B47746  15.131  44.947   7.422
 3569POPC   NC347747  41.643  42.484   5.442
 3569POPC   PO447748  41.288  42.011   5.661
 3569POPC   GL147749  41.266  42.321   5.902
 3569POPC   GL247750  41.567  42.470   5.937
 3569POPC   C1A47751  41.348  42.220   6.325
 3569POPC   D2A47752  41.622  42.268   6.622
 3569POPC   C3A47753  41.389  42.439   6.913
 3569POPC   C4A47754  41.288  42.354   7.329
 3569POPC   C1B47755  41.908  42.404   6.180
 3569POPC   C2B47756  42.078  42.506   6.571
 3569POPC   C3B47757  41.893  42.506   6.976
 3569POPC   C4B47758  41.754  42.178   7.240
 3570POPC   NC347759   8.202   3.448   5.104
 3570POPC   PO447760   8.810   3.552   5.365
 3570POPC   GL147761   8.347   3.603   5.641
 3570POPC   GL247762   7.978   3.469   5.768
 3570POPC   C1A47763   8.239   3.676   6.138
 3570POPC   D2A47764   8.285   3.895   6.572
 3570POPC   C3A47765   8.237   3.563   6.912
 3570POPC   C4A47766   7.986   3.512   7.279
 3570POPC   C1B47767   7.945   3.209   6.177
 3570POPC   C2B47768   8.124   3.109   6.623
 3570POPC   C3B47769   8.006   3.054   7.076
 3570POPC   C4B47770   7.733   3.111   7.471
 3571POPC   NC347771   9.367  28.921   5.514
 3571POPC   PO447772   9.867  29.338   5.333
 3571POPC   GL147773   9.681  29.432   5.733
 3571POPC   GL247774   9.328  29.442   5.693
 3571POPC   C1A47775   9.622  29.165   6.131
 3571POPC   D2A47776   9.817  29.058   6.536
 3571POPC   C3A47777   9.612  28.775   6.819
 3571POPC   C4A47778   9.540  28.852   7.244
 3571POPC   C1B47779   9.407  29.622   6.128
 3571POPC   C2B47780   9.476  29.492   6.546
 3571POPC   C3B47781   9.612  29.319   6.932
 3571POPC   C4B47782   9.424  29.429   7.288
 3572POPC   NC347783   0.725  31.482   5.480
 3572POPC   PO447784   0.151  31.235   5.243
 3572POPC   GL147785   0.145  31.306   5.705
 3572POPC   GL247786   0.387  31.509   5.875
 3572POPC   C1A47787   0.246  31.120   6.132
 3572POPC   D2A47788   0.445  31.237   6.528
 3572POPC   C3A47789   0.222  31.229   6.920
 3572POPC   C4A47790   0.305  31.543   7.216
 3572POPC   C1B47791   0.703  31.528   6.170
 3572POPC   C2B47792   0.714  31.786   6.543
 3572POPC   C3B47793   0.718  31.687   6.957
 3572POPC   C4B47794   1.017  31.817   7.262
 3573POPC   NC347795  33.679  35.250   5.039
 3573POPC   PO447796  33.924  35.732   5.389
 3573POPC   GL147797  33.869  35.361   5.685
 3573POPC   GL247798  33.513  35.282   5.733
 3573POPC   C1A47799  33.831  35.217   6.149
 3573POPC   D2A47800  34.010  35.393   6.545
 3573POPC   C3A47801  33.865  35.398   6.968
 3573POPC   C4A47802  34.110  35.303   7.332
 3573POPC   C1B47803  33.404  35.503   6.133
 3573POPC   C2B47804  33.468  35.420   6.572
 3573POPC   C3B47805  33.296  35.494   6.969
 3573POPC   C4B47806  33.360  35.584   7.406
 3574POPC   NC347807  40.370  31.831   5.591
 3574POPC   PO447808  40.023  32.333   5.286
 3574POPC   GL147809  40.044  32.450   5.750
 3574POPC   GL247810  40.351  32.556   5.910
 3574POPC   C1A47811  39.813  32.421   6.155
 3574POPC   D2A47812  39.875  32.161   6.535
 3574POPC   C3A47813  39.743  32.318   6.932
 3574POPC   C4A47814  39.973  32.378   7.316
 3574POPC   C1B47815  40.265  32.213   6.160
 3574POPC   C2B47816  40.384  32.031   6.556
 3574POPC   C3B47817  40.231  32.136   6.938
 3574POPC   C4B47818  40.457  32.045   7.307
 3575POPC   NC347819  20.346  12.650   5.457
 3575POPC   PO447820  20.561  13.240   5.149
 3575POPC   GL147821  20.641  13.036   5.626
 3575POPC   GL247822  20.745  12.731   5.792
 3575POPC   C1A47823  20.386  12.878   6.095
 3575POPC   D2A47824  20.648  12.904   6.521
 3575POPC   C3A47825  20.498  12.848   6.950
 3575POPC   C4A47826  20.566  12.605   7.344
 3575POPC   C1B47827  20.775  13.167   6.093
 3575POPC   C2B47828  20.866  13.367   6.504
 3575POPC   C3B47829  20.911  13.190   6.925
 3575POPC   C4B47830  20.695  13.118   7.341
 3576POPC   NC347831   9.639  39.710   5.102
 3576POPC   PO447832   9.625  40.297   5.439
 3576POPC   GL147833   9.620  40.013   5.778
 3576POPC   GL247834   9.890  39.782   5.798
 3576POPC   C1A47835   9.453  40.022   6.189
 3576POPC   D2A47836   9.361  40.269   6.580
 3576POPC   C3A47837   9.534  40.156   6.996
 3576POPC   C4A47838   9.698  39.791   7.244
 3576POPC   C1B47839   9.989  39.887   6.245
 3576POPC   C2B47840   9.913  39.984   6.696
 3576POPC   C3B47841  10.095  40.067   7.126
 3576POPC   C4B47842   9.993  40.127   7.566
 3577POPC   NC347843  27.398  37.998   5.329
 3577POPC   PO447844  27.316  37.300   5.539
 3577POPC   GL147845  27.414  37.606   5.823
 3577POPC   GL247846  27.716  37.775   5.682
 3577POPC   C1A47847  27.355  37.526   6.277
 3577POPC   D2A47848  27.360  37.371   6.711
 3577POPC   C3A47849  27.593  37.711   6.932
 3577POPC   C4A47850  27.698  37.692   7.370
 3577POPC   C1B47851  27.811  37.775   6.158
 3577POPC   C2B47852  28.016  37.771   6.608
 3577POPC   C3B47853  28.082  37.874   7.093
 3577POPC   C4B47854  28.163  37.756   7.564
 3578POPC   NC347855   5.873  33.400   5.398
 3578POPC   PO447856   6.220  32.845   5.462
 3578POPC   GL147857   6.139  33.162   5.789
 3578POPC   GL247858   5.797  33.174   5.862
 3578POPC   C1A47859   6.142  33.112   6.256
 3578POPC   D2A47860   5.971  32.942   6.618
 3578POPC   C3A47861   5.762  33.287   6.851
 3578POPC   C4A47862   6.074  33.450   7.205
 3578POPC   C1B47863   5.611  33.005   6.250
 3578POPC   C2B47864   5.498  32.807   6.676
 3578POPC   C3B47865   5.655  32.562   7.050
 3578POPC   C4B47866   5.700  32.693   7.504
 3579POPC   NC347867  27.380   1.815   5.433
 3579POPC   PO447868  27.909   2.246   5.598
 3579POPC   GL147869  27.653   2.028   5.856
 3579POPC   GL247870  27.953   1.889   5.992
 3579POPC   C1A47871  27.544   1.931   6.296
 3579POPC   D2A47872  27.657   2.108   6.681
 3579POPC   C3A47873  27.348   2.052   6.982
 3579POPC   C4A47874  27.394   1.886   7.374
 3579POPC   C1B47875  27.903   1.569   6.294
 3579POPC   C2B47876  27.742   1.566   6.686
 3579POPC   C3B47877  27.800   1.778   7.067
 3579POPC   C4B47878  28.080   1.704   7.366
 3580POPC   NC347879   8.244  30.636   5.444
 3580POPC   PO447880   7.658  30.402   5.166
 3580POPC   GL147881   8.017  30.357   5.754
 3580POPC   GL247882   8.389  30.385   5.875
 3580POPC   C1A47883   8.035  30.618   6.171
 3580POPC   D2A47884   8.109  30.910   6.537
 3580POPC   C3A47885   8.076  30.693   6.922
 3580POPC   C4A47886   8.240  30.721   7.335
 3580POPC   C1B47887   8.544  30.648   6.188
 3580POPC   C2B47888   8.412  30.502   6.569
 3580POPC   C3B47889   8.567  30.530   6.961
 3580POPC   C4B47890   8.631  30.385   7.370
 3581POPC   NC347891   4.624  18.356   5.499
 3581POPC   PO447892   4.077  18.527   5.306
 3581POPC   GL147893   4.123  18.249   5.655
 3581POPC   GL247894   4.235  18.529   5.833
 3581POPC   C1A47895   4.186  18.084   6.102
 3581POPC   D2A47896   4.381  18.158   6.542
 3581POPC   C3A47897   4.107  18.060   6.919
 3581POPC   C4A47898   4.166  17.896   7.359
 3581POPC   C1B47899   4.558  18.499   6.144
 3581POPC   C2B47900   4.836  18.456   6.482
 3581POPC   C3B47901   4.741  18.399   6.902
 3581POPC   C4B47902   4.518  18.217   7.195
 3582POPC   NC347903  18.008  41.738   5.567
 3582POPC   PO447904  18.419  41.236   5.652
 3582POPC   GL147905  18.502  41.578   5.914
 3582POPC   GL247906  18.510  41.921   5.781
 3582POPC   C1A47907  18.431  41.509   6.326
 3582POPC   D2A47908  18.144  41.473   6.633
 3582POPC   C3A47909  18.477  41.535   6.895
 3582POPC   C4A47910  18.426  41.643   7.274
 3582POPC   C1B47911  18.263  41.979   6.171
 3582POPC   C2B47912  18.369  42.010   6.612
 3582POPC   C3B47913  18.113  41.891   6.940
 3582POPC   C4B47914  18.067  42.001   7.337
 3583POPC   NC347915  31.651   7.890   5.478
 3583POPC   PO447916  31.447   8.572   5.391
 3583POPC   GL147917  31.591   8.309   5.738
 3583POPC   GL247918  31.340   8.072   5.877
 3583POPC   C1A47919  31.726   8.273   6.174
 3583POPC   D2A47920  31.508   8.148   6.564
 3583POPC   C3A47921  31.693   8.338   6.956
 3583POPC   C4A47922  31.678   8.452   7.421
 3583POPC   C1B47923  31.109   7.831   6.217
 3583POPC   C2B47924  30.999   8.023   6.594
 3583POPC   C3B47925  31.187   8.083   6.986
 3583POPC   C4B47926  31.279   8.107   7.403
 3584POPC   NC347927  24.742  26.288   5.319
 3584POPC   PO447928  24.596  25.680   5.458
 3584POPC   GL147929  24.743  25.980   5.752
 3584POPC   GL247930  24.433  26.137   5.739
 3584POPC   C1A47931  24.697  26.216   6.156
 3584POPC   D2A47932  24.607  25.974   6.521
 3584POPC   C3A47933  24.667  26.181   6.903
 3584POPC   C4A47934  24.420  26.185   7.280
 3584POPC   C1B47935  24.284  25.891   6.073
 3584POPC   C2B47936  24.120  25.826   6.483
 3584POPC   C3B47937  24.169  26.009   6.856
 3584POPC   C4B47938  24.028  25.848   7.234
 3585POPC   NC347939  15.555  11.124   5.441
 3585POPC   PO447940  16.130  11.512   5.312
 3585POPC   GL147941  16.057  11.192   5.644
 3585POPC   GL247942  15.822  11.432   5.782
 3585POPC   C1A47943  15.990  11.095   6.111
 3585POPC   D2A47944  16.168  11.059   6.534
 3585POPC   C3A47945  15.919  11.125   6.920
 3585POPC   C4A47946  16.007  11.240   7.353
 3585POPC   C1B47947  15.791  11.547   6.237
 3585POPC   C2B47948  15.960  11.541   6.636
 3585POPC   C3B47949  15.978  11.643   7.047
 3585POPC   C4B47950  15.643  11.663   7.312
 3586POPC   NC347951  11.446   0.125   5.267
 3586POPC   PO447952  11.068   0.649   5.404
 3586POPC   GL147953  11.059   0.510   5.804
 3586POPC   GL247954  11.259   0.224   5.748
 3586POPC   C1A47955  11.177   0.568   6.245
 3586POPC   D2A47956  11.361   0.727   6.624
 3586POPC   C3A47957  11.047   0.682   6.916
 3586POPC   C4A47958  11.048   0.464   7.286
 3586POPC   C1B47959  11.440   0.149   6.143
 3586POPC   C2B47960  11.580   0.263   6.568
 3586POPC   C3B47961  11.415   0.307   6.947
 3586POPC   C4B47962  11.434   0.107   7.317
 3587POPC   NC347963  27.434   9.140   5.398
 3587POPC   PO447964  27.787   8.702   5.534
 3587POPC   GL147965  27.515   8.744   5.905
 3587POPC   GL247966  27.374   9.062   5.907
 3587POPC   C1A47967  27.430   8.835   6.368
 3587POPC   D2A47968  27.088   8.726   6.661
 3587POPC   C3A47969  27.261   8.620   7.069
 3587POPC   C4A47970  27.628   8.812   7.260
 3587POPC   C1B47971  27.810   9.126   6.137
 3587POPC   C2B47972  27.862   9.163   6.609
 3587POPC   C3B47973  27.489   9.163   6.902
 3587POPC   C4B47974  27.358   9.234   7.354
 3588POPC   NC347975  41.236  32.319   5.396
 3588POPC   PO447976  40.514  32.276   5.514
 3588POPC   GL147977  40.760  32.190   5.827
 3588POPC   GL247978  41.098  32.318   5.866
 3588POPC   C1A47979  40.754  32.211   6.225
 3588POPC   D2A47980  40.583  32.504   6.484
 3588POPC   C3A47981  40.673  32.368   6.884
 3588POPC   C4A47982  40.484  32.542   7.231
 3588POPC   C1B47983  41.263  32.263   6.253
 3588POPC   C2B47984  41.035  32.088   6.614
 3588POPC   C3B47985  41.150  32.176   7.002
 3588POPC   C4B47986  40.922  32.302   7.360
 3589POPC   NC347987  10.779  12.969   5.348
 3589POPC   PO447988  10.235  12.663   5.126
 3589POPC   GL147989  10.381  12.889   5.633
 3589POPC   GL247990  10.633  13.121   5.810
 3589POPC   C1A47991  10.498  12.719   6.065
 3589POPC   D2A47992  10.456  12.568   6.461
 3589POPC   C3A47993  10.756  12.697   6.732
 3589POPC   C4A47994  10.585  12.746   7.135
 3589POPC   C1B47995  10.747  13.196   6.253
 3589POPC   C2B47996  10.648  13.193   6.704
 3589POPC   C3B47997  10.632  13.254   7.161
 3589POPC   C4B47998  10.703  13.060   7.530
 3590POPC   NC347999  41.905  29.767   5.334
 3590POPC   PO448000  42.551  30.082   5.270
 3590POPC   GL148001  42.360  29.981   5.659
 3590POPC   GL248002  42.023  30.152   5.650
 3590POPC   C1A48003  42.387  29.750   6.051
 3590POPC   D2A48004  42.424  29.852   6.510
 3590POPC   C3A48005  42.577  29.693   6.885
 3590POPC   C4A48006  42.375  29.814   7.261
 3590POPC   C1B48007  41.966  30.014   6.070
 3590POPC   C2B48008  42.022  30.150   6.497
 3590POPC   C3B48009  42.040  29.996   6.901
 3590POPC   C4B48010  42.081  30.263   7.247
 3591POPC   NC348011  12.297  42.911   5.709
 3591POPC   PO448012  11.691  42.806   5.430
 3591POPC   GL148013  11.780  43.016   5.839
 3591POPC   GL248014  11.554  43.331   5.885
 3591POPC   C1A48015  11.934  42.822   6.250
 3591POPC   D2A48016  12.148  42.661   6.620
 3591POPC   C3A48017  12.246  42.998   6.957
 3591POPC   C4A48018  12.197  43.246   7.356
 3591POPC   C1B48019  11.795  43.353   6.314
 3591POPC   C2B48020  11.812  43.300   6.790
 3591POPC   C3B48021  11.723  43.457   7.224
 3591POPC   C4B48022  11.734  43.270   7.650
 3592POPC   NC348023  13.360  33.594   5.569
 3592POPC   PO448024  13.745  34.091   5.405
 3592POPC   GL148025  13.569  34.028   5.806
 3592POPC   GL248026  13.246  34.149   5.762
 3592POPC   C1A48027  13.713  33.885   6.264
 3592POPC   D2A48028  13.955  33.852   6.690
 3592POPC   C3A48029  13.915  33.575   7.050
 3592POPC   C4A48030  13.779  33.700   7.463
 3592POPC   C1B48031  13.220  34.024   6.161
 3592POPC   C2B48032  13.249  33.859   6.506
 3592POPC   C3B48033  13.485  33.682   6.782
 3592POPC   C4B48034  13.414  33.476   7.155
 3593POPC   NC348035   5.822   4.088   5.114
 3593POPC   PO448036   6.280   4.461   5.178
 3593POPC   GL148037   6.062   4.354   5.631
 3593POPC   GL248038   6.132   4.659   5.859
 3593POPC   C1A48039   5.879   4.287   6.088
 3593POPC   D2A48040   6.118   4.447   6.478
 3593POPC   C3A48041   6.053   4.245   6.904
 3593POPC   C4A48042   5.725   4.093   7.170
 3593POPC   C1B48043   5.713   4.761   6.011
 3593POPC   C2B48044   5.660   4.637   6.426
 3593POPC   C3B48045   5.765   4.697   6.856
 3593POPC   C4B48046   5.825   4.573   7.276
 3594POPC   NC348047   0.281  27.312   5.450
 3594POPC   PO448048   0.351  26.588   5.335
 3594POPC   GL148049   0.426  26.716   5.758
 3594POPC   GL248050   0.102  26.640   5.917
 3594POPC   C1A48051   0.446  26.987   6.118
 3594POPC   D2A48052   0.389  26.963   6.545
 3594POPC   C3A48053   0.674  26.825   6.838
 3594POPC   C4A48054   0.638  27.001   7.216
 3594POPC   C1B48055   0.021  26.654   6.370
 3594POPC   C2B48056  44.984  26.677   6.831
 3594POPC   C3B48057   0.242  26.668   7.202
 3594POPC   C4B48058   0.170  26.598   7.636
 3595POPC   NC348059  24.271   5.845   5.000
 3595POPC   PO448060  24.778   6.002   5.345
 3595POPC   GL148061  24.742   5.825   5.754
 3595POPC   GL248062  24.789   6.143   5.889
 3595POPC   C1A48063  24.556   5.709   6.168
 3595POPC   D2A48064  24.722   5.643   6.587
 3595POPC   C3A48065  24.507   5.652   6.961
 3595POPC   C4A48066  24.595   5.723   7.353
 3595POPC   C1B48067  24.631   6.201   6.287
 3595POPC   C2B48068  24.456   6.080   6.668
 3595POPC   C3B48069  24.553   6.176   7.081
 3595POPC   C4B48070  24.457   6.211   7.489
 3596POPC   NC348071  32.190  26.769   5.366
 3596POPC   PO448072  31.916  27.391   5.550
 3596POPC   GL148073  32.276  27.208   5.819
 3596POPC   GL248074  32.359  26.846   5.825
 3596POPC   C1A48075  32.270  27.105   6.251
 3596POPC   D2A48076  32.023  27.264   6.581
 3596POPC   C3A48077  32.133  27.064   6.958
 3596POPC   C4A48078  32.315  27.021   7.363
 3596POPC   C1B48079  32.520  26.651   6.182
 3596POPC   C2B48080  32.478  26.759   6.612
 3596POPC   C3B48081  32.612  26.782   7.021
 3596POPC   C4B48082  32.390  26.494   7.297
 3597POPC   NC348083  43.663  18.064   5.465
 3597POPC   PO448084  44.363  17.971   5.297
 3597POPC   GL148085  44.151  17.987   5.756
 3597POPC   GL248086  43.825  17.941   5.926
 3597POPC   C1A48087  44.146  18.271   6.151
 3597POPC   D2A48088  44.080  18.561   6.512
 3597POPC   C3A48089  44.096  18.552   6.983
 3597POPC   C4A48090  44.005  18.205   7.255
 3597POPC   C1B48091  43.652  18.227   6.281
 3597POPC   C2B48092  43.519  18.524   6.630
 3597POPC   C3B48093  43.599  18.618   7.090
 3597POPC   C4B48094  43.499  18.419   7.500
 3598POPC   NC348095  21.935   5.080   5.112
 3598POPC   PO448096  22.445   4.914   5.535
 3598POPC   GL148097  22.307   5.172   5.888
 3598POPC   GL248098  21.929   5.197   5.918
 3598POPC   C1A48099  22.221   5.221   6.345
 3598POPC   D2A48100  21.962   5.239   6.754
 3598POPC   C3A48101  22.224   5.300   7.132
 3598POPC   C4A48102  22.594   5.488   7.226
 3598POPC   C1B48103  21.813   4.927   6.295
 3598POPC   C2B48104  21.912   4.712   6.672
 3598POPC   C3B48105  21.981   4.856   7.098
 3598POPC   C4B48106  22.191   4.952   7.489
 3599POPC   NC348107  34.092  44.165   5.004
 3599POPC   PO448108  34.103  43.714   5.444
 3599POPC   GL148109  33.765  43.949   5.689
 3599POPC   GL248110  34.010  44.027   5.870
 3599POPC   C1A48111  33.619  43.917   6.162
 3599POPC   D2A48112  33.863  43.800   6.556
 3599POPC   C3A48113  33.714  43.836   6.976
 3599POPC   C4A48114  33.861  43.761   7.408
 3599POPC   C1B48115  34.073  44.194   6.240
 3599POPC   C2B48116  34.153  44.205   6.652
 3599POPC   C3B48117  33.939  44.426   6.936
 3599POPC   C4B48118  33.786  44.248   7.302
 3600POPC   NC348119  28.234  33.268   5.551
 3600POPC   PO448120  28.738  32.909   5.202
 3600POPC   GL148121  28.693  32.934   5.667
 3600POPC   GL248122  28.696  33.259   5.830
 3600POPC   C1A48123  28.544  32.866   6.119
 3600POPC   D2A48124  28.194  33.011   6.408
 3600POPC   C3A48125  28.264  32.805   6.808
 3600POPC   C4A48126  28.158  32.884   7.216
 3600POPC   C1B48127  28.535  33.373   6.242
 3600POPC   C2B48128  28.580  33.227   6.674
 3600POPC   C3B48129  28.365  33.323   7.064
 3600POPC   C4B48130  28.482  33.274   7.490
 3601POPC   NC348131  29.102  10.577   5.213
 3601POPC   PO448132  28.428  10.579   5.380
 3601POPC   GL148133  28.377  10.471   5.837
 3601POPC   GL248134  28.238  10.126   5.882
 3601POPC   C1A48135  28.325  10.693   6.254
 3601POPC   D2A48136  28.050  10.930   6.527
 3601POPC   C3A48137  27.972  10.767   6.925
 3601POPC   C4A48138  28.200  10.587   7.243
 3601POPC   C1B48139  28.294  10.080   6.352
 3601POPC   C2B48140  28.321  10.369   6.725
 3601POPC   C3B48141  28.620  10.374   7.092
 3601POPC   C4B48142  28.526  10.343   7.562
 3602POPC   NC348143  41.423  37.810   5.442
 3602POPC   PO448144  41.854  38.256   5.649
 3602POPC   GL148145  41.584  37.911   5.909
 3602POPC   GL248146  41.603  37.521   5.862
 3602POPC   C1A48147  41.512  37.803   6.344
 3602POPC   D2A48148  41.806  37.909   6.669
 3602POPC   C3A48149  41.704  37.689   7.007
 3602POPC   C4A48150  41.590  37.825   7.365
 3602POPC   C1B48151  41.442  37.321   6.233
 3602POPC   C2B48152  41.468  37.195   6.683
 3602POPC   C3B48153  41.356  37.321   7.127
 3602POPC   C4B48154  41.440  37.375   7.557
 3603POPC   NC348155  37.996  41.229   5.380
 3603POPC   PO448156  37.596  40.705   5.562
 3603POPC   GL148157  37.471  40.980   5.901
 3603POPC   GL248158  37.597  41.255   5.716
 3603POPC   C1A48159  37.473  40.997   6.362
 3603POPC   D2A48160  37.651  40.669   6.647
 3603POPC   C3A48161  37.632  40.683   7.072
 3603POPC   C4A48162  37.925  40.699   7.355
 3603POPC   C1B48163  37.899  41.223   6.087
 3603POPC   C2B48164  38.020  40.998   6.492
 3603POPC   C3B48165  38.030  41.040   6.963
 3603POPC   C4B48166  37.745  41.170   7.327
 3604POPC   NC348167  18.170  24.021   5.454
 3604POPC   PO448168  17.727  23.500   5.516
 3604POPC   GL148169  17.953  23.739   5.872
 3604POPC   GL248170  18.319  23.683   5.866
 3604POPC   C1A48171  18.085  23.815   6.340
 3604POPC   D2A48172  18.438  23.836   6.679
 3604POPC   C3A48173  18.363  23.883   7.124
 3604POPC   C4A48174  17.963  23.944   7.340
 3604POPC   C1B48175  18.535  23.546   6.249
 3604POPC   C2B48176  18.473  23.332   6.630
 3604POPC   C3B48177  18.620  23.410   7.048
 3604POPC   C4B48178  18.821  23.645   7.354
 3605POPC   NC348179  25.926  29.690   5.422
 3605POPC   PO448180  26.262  30.258   5.289
 3605POPC   GL148181  26.032  30.121   5.669
 3605POPC   GL248182  26.225  29.815   5.835
 3605POPC   C1A48183  25.880  30.067   6.107
 3605POPC   D2A48184  26.176  29.854   6.430
 3605POPC   C3A48185  26.162  29.990   6.864
 3605POPC   C4A48186  26.268  29.859   7.269
 3605POPC   C1B48187  25.902  29.540   6.098
 3605POPC   C2B48188  25.674  29.367   6.469
 3605POPC   C3B48189  25.870  29.511   6.859
 3605POPC   C4B48190  25.816  29.632   7.294
 3606POPC   NC348191  43.038  23.375   5.160
 3606POPC   PO448192  42.885  22.750   5.348
 3606POPC   GL148193  42.910  22.831   5.780
 3606POPC   GL248194  42.814  22.534   5.920
 3606POPC   C1A48195  42.868  23.040   6.192
 3606POPC   D2A48196  43.111  23.319   6.445
 3606POPC   C3A48197  43.122  23.205   6.858
 3606POPC   C4A48198  43.350  23.130   7.230
 3606POPC   C1B48199  43.214  22.666   6.148
 3606POPC   C2B48200  43.196  22.788   6.568
 3606POPC   C3B48201  42.977  22.716   6.950
 3606POPC   C4B48202  43.123  22.670   7.334
 3607POPC   NC348203  17.842  22.195   5.624
 3607POPC   PO448204  18.526  22.094   5.414
 3607POPC   GL148205  18.297  21.976   5.762
 3607POPC   GL248206  18.309  22.341   5.850
 3607POPC   C1A48207  18.204  21.972   6.199
 3607POPC   D2A48208  18.354  22.218   6.529
 3607POPC   C3A48209  18.002  22.153   6.780
 3607POPC   C4A48210  18.061  21.989   7.164
 3607POPC   C1B48211  18.089  22.495   6.207
 3607POPC   C2B48212  18.072  22.653   6.670
 3607POPC   C3B48213  18.256  22.500   7.084
 3607POPC   C4B48214  18.192  22.399   7.533
 3608POPC   NC348215  27.458  28.359   5.496
 3608POPC   PO448216  27.934  28.818   5.330
 3608POPC   GL148217  27.810  28.620   5.777
 3608POPC   GL248218  27.479  28.553   5.956
 3608POPC   C1A48219  27.867  28.341   6.186
 3608POPC   D2A48220  27.636  28.282   6.576
 3608POPC   C3A48221  27.881  28.384   6.922
 3608POPC   C4A48222  27.903  28.692   7.264
 3608POPC   C1B48223  27.302  28.211   6.190
 3608POPC   C2B48224  27.064  28.199   6.554
 3608POPC   C3B48225  27.267  28.149   6.926
 3608POPC   C4B48226  27.473  28.398   7.219
 3609POPC   NC348227  30.943  12.613   5.433
 3609POPC   PO448228  30.459  13.073   5.255
 3609POPC   GL148229  30.549  12.990   5.716
 3609POPC   GL248230  30.595  12.622   5.804
 3609POPC   C1A48231  30.684  12.938   6.182
 3609POPC   D2A48232  30.798  12.541   6.453
 3609POPC   C3A48233  31.011  12.636   6.848
 3609POPC   C4A48234  30.853  12.926   7.166
 3609POPC   C1B48235  30.344  12.548   6.206
 3609POPC   C2B48236  30.301  12.397   6.596
 3609POPC   C3B48237  30.498  12.568   6.957
 3609POPC   C4B48238  30.411  12.695   7.384
 3610POPC   NC348239  32.062  37.938   5.562
 3610POPC   PO448240  32.388  37.394   5.431
 3610POPC   GL148241  32.326  37.548   5.863
 3610POPC   GL248242  31.967  37.568   5.931
 3610POPC   C1A48243  32.426  37.608   6.315
 3610POPC   D2A48244  32.614  37.773   6.709
 3610POPC   C3A48245  32.345  37.686   7.068
 3610POPC   C4A48246  32.405  37.649   7.531
 3610POPC   C1B48247  32.028  37.929   6.208
 3610POPC   C2B48248  32.206  38.056   6.589
 3610POPC   C3B48249  32.055  38.101   7.003
 3610POPC   C4B48250  32.309  38.127   7.366
 3611POPC   NC348251  29.578  21.337   5.518
 3611POPC   PO448252  29.110  21.854   5.428
 3611POPC   GL148253  29.163  21.555   5.768
 3611POPC   GL248254  28.850  21.357   5.857
 3611POPC   C1A48255  29.296  21.315   6.138
 3611POPC   D2A48256  29.310  21.444   6.581
 3611POPC   C3A48257  29.325  21.117   6.882
 3611POPC   C4A48258  29.314  21.175   7.314
 3611POPC   C1B48259  28.894  21.622   6.241
 3611POPC   C2B48260  28.800  21.581   6.676
 3611POPC   C3B48261  28.925  21.399   7.069
 3611POPC   C4B48262  28.806  21.554   7.472
 3612POPC   NC348263  25.899   1.182   5.565
 3612POPC   PO448264  26.447   0.813   5.544
 3612POPC   GL148265  26.279   1.093   5.904
 3612POPC   GL248266  25.931   1.175   6.069
 3612POPC   C1A48267  26.374   1.304   6.303
 3612POPC   D2A48268  26.199   1.380   6.720
 3612POPC   C3A48269  26.232   1.011   6.996
 3612POPC   C4A48270  26.099   0.822   7.394
 3612POPC   C1B48271  25.832   1.512   6.373
 3612POPC   C2B48272  25.701   1.473   6.825
 3612POPC   C3B48273  25.652   1.053   6.993
 3612POPC   C4B48274  25.665   0.627   7.191
 3613POPC   NC348275  43.448  24.087   5.376
 3613POPC   PO448276  43.478  23.522   5.141
 3613POPC   GL148277  43.186  23.665   5.553
 3613POPC   GL248278  42.993  23.992   5.601
 3613POPC   C1A48279  42.956  23.570   5.980
 3613POPC   D2A48280  42.813  23.752   6.398
 3613POPC   C3A48281  43.003  23.707   6.816
 3613POPC   C4A48282  43.004  23.522   7.230
 3613POPC   C1B48283  43.134  24.051   6.047
 3613POPC   C2B48284  43.228  24.051   6.493
 3613POPC   C3B48285  43.250  24.187   6.928
 3613POPC   C4B48286  43.230  23.980   7.311
 3614POPC   NC348287   1.358  13.072   5.512
 3614POPC   PO448288   1.488  12.508   5.263
 3614POPC   GL148289   1.291  12.608   5.716
 3614POPC   GL248290   0.974  12.822   5.827
 3614POPC   C1A48291   1.334  12.799   6.168
 3614POPC   D2A48292   1.122  12.803   6.568
 3614POPC   C3A48293   1.383  12.934   6.884
 3614POPC   C4A48294   1.362  13.014   7.307
 3614POPC   C1B48295   1.059  13.228   6.108
 3614POPC   C2B48296   1.025  13.358   6.566
 3614POPC   C3B48297   0.994  13.254   7.015
 3614POPC   C4B48298   0.904  12.836   7.112
 3615POPC   NC348299  10.462   3.715   5.397
 3615POPC   PO448300  10.858   3.184   5.446
 3615POPC   GL148301  10.591   3.342   5.783
 3615POPC   GL248302  10.586   3.707   5.884
 3615POPC   C1A48303  10.524   3.345   6.248
 3615POPC   D2A48304  10.673   3.284   6.694
 3615POPC   C3A48305  10.452   3.485   7.083
 3615POPC   C4A48306  10.200   3.859   7.219
 3615POPC   C1B48307  10.662   3.879   6.286
 3615POPC   C2B48308  10.579   3.833   6.721
 3615POPC   C3B48309  10.689   3.944   7.123
 3615POPC   C4B48310  10.834   3.751   7.489
 3616POPC   NC348311   6.386  21.548   5.099
 3616POPC   PO448312   7.040  21.348   5.300
 3616POPC   GL148313   6.758  21.200   5.654
 3616POPC   GL248314   6.589  21.498   5.818
 3616POPC   C1A48315   6.621  21.052   6.082
 3616POPC   D2A48316   6.540  21.254   6.445
 3616POPC   C3A48317   6.596  21.134   6.883
 3616POPC   C4A48318   6.381  21.173   7.263
 3616POPC   C1B48319   6.676  21.706   6.249
 3616POPC   C2B48320   6.658  21.662   6.733
 3616POPC   C3B48321   6.443  21.685   7.128
 3616POPC   C4B48322   6.568  21.722   7.578
 3617POPC   NC348323  32.310  10.340   5.299
 3617POPC   PO448324  32.069  10.915   5.259
 3617POPC   GL148325  32.354  10.687   5.667
 3617POPC   GL248326  32.433  10.284   5.769
 3617POPC   C1A48327  32.432  10.656   6.123
 3617POPC   D2A48328  32.100  10.695   6.440
 3617POPC   C3A48329  32.240  10.736   6.852
 3617POPC   C4A48330  32.283  10.797   7.295
 3617POPC   C1B48331  32.104  10.268   6.082
 3617POPC   C2B48332  32.306  10.251   6.487
 3617POPC   C3B48333  32.283  10.241   6.904
 3617POPC   C4B48334  31.975  10.182   7.188
 3618POPC   NC348335   5.587  13.892   5.400
 3618POPC   PO448336   6.026  14.512   5.391
 3618POPC   GL148337   5.888  14.442   5.830
 3618POPC   GL248338   5.647  14.176   5.822
 3618POPC   C1A48339   5.921  14.307   6.264
 3618POPC   D2A48340   5.909  14.615   6.606
 3618POPC   C3A48341   5.594  14.652   6.926
 3618POPC   C4A48342   5.783  14.520   7.303
 3618POPC   C1B48343   5.417  14.239   6.210
 3618POPC   C2B48344   5.567  14.218   6.625
 3618POPC   C3B48345   5.494  14.165   7.032
 3618POPC   C4B48346   5.266  14.437   7.295
 3619POPC   NC348347  27.679  17.436   5.568
 3619POPC   PO448348  27.099  17.206   5.252
 3619POPC   GL148349  27.207  17.586   5.686
 3619POPC   GL248350  27.445  17.439   6.008
 3619POPC   C1A48351  27.281  17.886   6.114
 3619POPC   D2A48352  27.661  17.770   6.410
 3619POPC   C3A48353  27.556  17.621   6.855
 3619POPC   C4A48354  27.535  17.693   7.326
 3619POPC   C1B48355  27.895  17.330   6.179
 3619POPC   C2B48356  28.086  17.128   6.546
 3619POPC   C3B48357  28.113  17.221   6.989
 3619POPC   C4B48358  27.743  17.244   7.219
 3620POPC   NC348359  44.329  33.808   5.078
 3620POPC   PO448360  43.839  33.585   5.401
 3620POPC   GL148361  43.788  33.576   5.824
 3620POPC   GL248362  43.472  33.388   5.776
 3620POPC   C1A48363  43.797  33.868   6.194
 3620POPC   D2A48364  43.622  33.903   6.628
 3620POPC   C3A48365  43.868  33.695   6.966
 3620POPC   C4A48366  44.011  33.893   7.363
 3620POPC   C1B48367  43.479  33.471   6.224
 3620POPC   C2B48368  43.566  33.387   6.619
 3620POPC   C3B48369  43.375  33.542   6.975
 3620POPC   C4B48370  43.573  33.527   7.355
 3621POPC   NC348371  14.446  18.262   5.395
 3621POPC   PO448372  13.973  17.797   5.361
 3621POPC   GL148373  14.087  18.103   5.727
 3621POPC   GL248374  14.432  18.060   5.855
 3621POPC   C1A48375  14.151  18.380   6.148
 3621POPC   D2A48376  14.251  18.246   6.595
 3621POPC   C3A48377  14.279  18.454   7.012
 3621POPC   C4A48378  14.177  18.285   7.448
 3621POPC   C1B48379  14.703  18.294   6.128
 3621POPC   C2B48380  14.741  18.390   6.544
 3621POPC   C3B48381  14.740  18.200   6.927
 3621POPC   C4B48382  14.681  18.311   7.335
 3622POPC   NC348383  40.849  24.718   5.326
 3622POPC   PO448384  40.372  24.864   5.703
 3622POPC   GL148385  40.657  24.566   5.882
 3622POPC   GL248386  40.976  24.436   5.753
 3622POPC   C1A48387  40.759  24.538   6.297
 3622POPC   D2A48388  40.702  24.385   6.697
 3622POPC   C3A48389  40.701  24.696   7.012
 3622POPC   C4A48390  40.605  24.811   7.427
 3622POPC   C1B48391  41.008  24.154   6.100
 3622POPC   C2B48392  40.885  23.939   6.505
 3622POPC   C3B48393  40.836  23.970   6.962
 3622POPC   C4B48394  41.011  24.317   7.197
 3623POPC   NC348395   0.738  10.480   5.405
 3623POPC   PO448396   0.234  10.024   5.335
 3623POPC   GL148397   0.173  10.391   5.648
 3623POPC   GL248398   0.368  10.670   5.750
 3623POPC   C1A48399   0.173  10.388   6.129
 3623POPC   D2A48400   0.410  10.501   6.493
 3623POPC   C3A48401   0.331  10.331   6.902
 3623POPC   C4A48402   0.335  10.487   7.328
 3623POPC   C1B48403   0.322  10.881   6.146
 3623POPC   C2B48404   0.547  11.029   6.495
 3623POPC   C3B48405   0.536  10.806   6.894
 3623POPC   C4B48406   0.759  10.799   7.248
 3624POPC   NC348407  10.907  22.775   5.587
 3624POPC   PO448408  10.571  23.334   5.438
 3624POPC   GL148409  10.395  22.987   5.758
 3624POPC   GL248410  10.031  23.050   5.819
 3624POPC   C1A48411  10.249  22.748   6.177
 3624POPC   D2A48412  10.297  22.651   6.643
 3624POPC   C3A48413  10.705  22.777   6.811
 3624POPC   C4A48414  10.728  22.841   7.241
 3624POPC   C1B48415  10.265  23.299   6.170
 3624POPC   C2B48416  10.433  23.382   6.594
 3624POPC   C3B48417  10.396  23.169   6.983
 3624POPC   C4B48418  10.337  23.140   7.406
 3625POPC   NC348419  44.178  10.566   5.479
 3625POPC   PO448420  43.432  10.257   5.433
 3625POPC   GL148421  43.603  10.617   5.735
 3625POPC   GL248422  43.938  10.635   5.896
 3625POPC   C1A48423  43.593  10.778   6.196
 3625POPC   D2A48424  43.906  10.704   6.541
 3625POPC   C3A48425  43.765  10.541   6.942
 3625POPC   C4A48426  43.830  10.735   7.383
 3625POPC   C1B48427  44.279  10.642   6.181
 3625POPC   C2B48428  44.332  10.386   6.565
 3625POPC   C3B48429  44.221  10.340   7.004
 3625POPC   C4B48430  44.334  10.570   7.378
 3626POPC   NC348431  35.695  39.284   5.500
 3626POPC   PO448432  35.149  38.964   5.343
 3626POPC   GL148433  35.201  39.267   5.704
 3626POPC   GL248434  35.087  39.641   5.711
 3626POPC   C1A48435  35.420  39.300   6.111
 3626POPC   D2A48436  35.526  39.026   6.457
 3626POPC   C3A48437  35.480  39.231   6.863
 3626POPC   C4A48438  35.646  39.151   7.264
 3626POPC   C1B48439  34.933  39.444   6.107
 3626POPC   C2B48440  35.067  39.306   6.514
 3626POPC   C3B48441  34.930  39.275   6.924
 3626POPC   C4B48442  35.151  39.331   7.286
 3627POPC   NC348443  28.377  27.134   5.567
 3627POPC   PO448444  28.097  26.557   5.492
 3627POPC   GL148445  28.326  26.687   5.813
 3627POPC   GL248446  28.668  26.776   5.842
 3627POPC   C1A48447  28.382  26.577   6.204
 3627POPC   D2A48448  28.382  26.566   6.606
 3627POPC   C3A48449  28.335  26.977   6.789
 3627POPC   C4A48450  28.291  27.049   7.209
 3627POPC   C1B48451  28.861  26.740   6.306
 3627POPC   C2B48452  28.839  26.766   6.787
 3627POPC   C3B48453  28.535  26.595   7.085
 3627POPC   C4B48454  28.571  26.537   7.555
 3628POPC   NC348455  40.350  30.119   5.143
 3628POPC   PO448456  40.845  30.202   5.611
 3628POPC   GL148457  41.008  29.939   5.881
 3628POPC   GL248458  40.692  29.795   5.864
 3628POPC   C1A48459  40.992  29.835   6.297
 3628POPC   D2A48460  41.207  29.719   6.636
 3628POPC   C3A48461  41.003  29.891   6.964
 3628POPC   C4A48462  40.852  30.045   7.318
 3628POPC   C1B48463  40.490  29.945   6.210
 3628POPC   C2B48464  40.565  29.803   6.631
 3628POPC   C3B48465  40.568  30.162   6.899
 3628POPC   C4B48466  40.369  30.244   7.276
 3629POPC   NC348467   6.369  43.406   5.519
 3629POPC   PO448468   5.781  43.054   5.529
 3629POPC   GL148469   5.818  42.937   5.933
 3629POPC   GL248470   6.175  43.009   5.940
 3629POPC   C1A48471   5.925  42.809   6.347
 3629POPC   D2A48472   6.114  42.978   6.683
 3629POPC   C3A48473   5.827  42.910   6.980
 3629POPC   C4A48474   5.774  43.167   7.274
 3629POPC   C1B48475   6.098  43.306   6.287
 3629POPC   C2B48476   6.261  43.558   6.632
 3629POPC   C3B48477   6.328  43.537   7.058
 3629POPC   C4B48478   6.105  43.499   7.409
 3630POPC   NC348479  27.065  24.858   5.265
 3630POPC   PO448480  26.813  24.316   5.629
 3630POPC   GL148481  26.593  24.341   5.979
 3630POPC   GL248482  26.590  24.684   5.982
 3630POPC   C1A48483  26.687  24.428   6.394
 3630POPC   D2A48484  27.084  24.309   6.531
 3630POPC   C3A48485  26.965  24.307   6.943
 3630POPC   C4A48486  26.651  24.131   7.199
 3630POPC   C1B48487  27.049  24.684   6.129
 3630POPC   C2B48488  27.205  24.824   6.535
 3630POPC   C3B48489  27.080  24.806   6.964
 3630POPC   C4B48490  26.783  24.863   7.265
 3631POPC   NC348491  41.632   9.841   5.492
 3631POPC   PO448492  41.118   9.371   5.407
 3631POPC   GL148493  41.402   9.436   5.769
 3631POPC   GL248494  41.318   9.780   5.908
 3631POPC   C1A48495  41.603   9.319   6.170
 3631POPC   D2A48496  41.855   9.447   6.537
 3631POPC   C3A48497  41.627   9.532   6.939
 3631POPC   C4A48498  41.353   9.533   7.299
 3631POPC   C1B48499  41.670   9.825   6.211
 3631POPC   C2B48500  41.922   9.977   6.561
 3631POPC   C3B48501  41.784  10.178   6.933
 3631POPC   C4B48502  41.479  10.042   7.219
 3632POPC   NC348503  42.597  26.600   5.367
 3632POPC   PO448504  42.217  27.186   5.387
 3632POPC   GL148505  42.405  27.102   5.775
 3632POPC   GL248506  42.417  26.722   5.844
 3632POPC   C1A48507  42.287  27.080   6.218
 3632POPC   D2A48508  42.510  26.961   6.571
 3632POPC   C3A48509  42.358  27.148   6.918
 3632POPC   C4A48510  42.584  27.115   7.263
 3632POPC   C1B48511  42.318  26.557   6.277
 3632POPC   C2B48512  42.151  26.650   6.709
 3632POPC   C3B48513  42.345  26.658   7.109
 3632POPC   C4B48514  42.202  26.397   7.461
 3633POPC   NC348515  26.419  24.104   5.525
 3633POPC   PO448516  26.287  23.484   5.416
 3633POPC   GL148517  26.225  23.480   5.824
 3633POPC   GL248518  25.911  23.606   5.892
 3633POPC   C1A48519  26.249  23.488   6.257
 3633POPC   D2A48520  26.091  23.695   6.584
 3633POPC   C3A48521  26.065  23.497   6.953
 3633POPC   C4A48522  26.255  23.673   7.271
 3633POPC   C1B48523  25.771  23.878   6.242
 3633POPC   C2B48524  25.751  24.060   6.677
 3633POPC   C3B48525  25.701  23.846   7.072
 3633POPC   C4B48526  25.734  23.483   7.366
 3634POPC   NC348527  43.205  38.236   5.386
 3634POPC   PO448528  42.866  38.850   5.624
 3634POPC   GL148529  43.096  38.553   5.775
 3634POPC   GL248530  43.017  38.199   5.862
 3634POPC   C1A48531  43.267  38.518   6.171
 3634POPC   D2A48532  43.095  38.294   6.510
 3634POPC   C3A48533  43.232  38.414   6.904
 3634POPC   C4A48534  43.341  38.504   7.302
 3634POPC   C1B48535  42.754  38.028   6.198
 3634POPC   C2B48536  42.793  37.901   6.643
 3634POPC   C3B48537  42.776  38.202   6.997
 3634POPC   C4B48538  42.880  38.336   7.401
 3635POPC   NC348539  31.370  26.204   5.456
 3635POPC   PO448540  31.726  25.660   5.549
 3635POPC   GL148541  31.507  25.873   5.836
 3635POPC   GL248542  31.227  25.726   5.759
 3635POPC   C1A48543  31.467  26.135   6.201
 3635POPC   D2A48544  31.701  26.284   6.551
 3635POPC   C3A48545  31.448  26.175   6.889
 3635POPC   C4A48546  31.486  25.908   7.246
 3635POPC   C1B48547  31.196  25.672   6.203
 3635POPC   C2B48548  31.087  25.949   6.529
 3635POPC   C3B48549  31.141  25.775   6.906
 3635POPC   C4B48550  31.182  25.405   7.176
 3636POPC   NC348551   8.532  37.981   5.361
 3636POPC   PO448552   8.080  37.470   5.541
 3636POPC   GL148553   8.283  37.562   5.912
 3636POPC   GL248554   8.486  37.838   5.851
 3636POPC   C1A48555   8.287  37.724   6.332
 3636POPC   D2A48556   8.069  37.895   6.693
 3636POPC   C3A48557   8.035  37.756   7.138
 3636POPC   C4A48558   7.831  37.878   7.557
 3636POPC   C1B48559   8.612  38.110   6.219
 3636POPC   C2B48560   8.540  38.114   6.669
 3636POPC   C3B48561   8.354  38.194   7.066
 3636POPC   C4B48562   8.332  37.987   7.484
 3637POPC   NC348563   8.655  16.927   5.134
 3637POPC   PO448564   9.088  16.536   5.620
 3637POPC   GL148565   8.997  16.701   6.010
 3637POPC   GL248566   9.288  16.917   5.990
 3637POPC   C1A48567   8.752  16.592   6.388
 3637POPC   D2A48568   8.707  16.476   6.806
 3637POPC   C3A48569   9.071  16.633   6.947
 3637POPC   C4A48570   9.103  16.853   7.301
 3637POPC   C1B48571   9.193  16.951   6.425
 3637POPC   C2B48572   9.416  17.014   6.831
 3637POPC   C3B48573   9.217  17.305   7.117
 3637POPC   C4B48574   8.912  17.308   7.473
 3638POPC   NC348575  37.715  32.027   5.414
 3638POPC   PO448576  37.294  32.556   5.472
 3638POPC   GL148577  37.555  32.357   5.769
 3638POPC   GL248578  37.505  31.993   5.863
 3638POPC   C1A48579  37.619  32.473   6.173
 3638POPC   D2A48580  37.436  32.526   6.568
 3638POPC   C3A48581  37.667  32.358   6.923
 3638POPC   C4A48582  37.788  32.538   7.332
 3638POPC   C1B48583  37.456  31.986   6.287
 3638POPC   C2B48584  37.580  31.723   6.609
 3638POPC   C3B48585  37.703  31.830   7.023
 3638POPC   C4B48586  37.500  32.107   7.342
 3639POPC   NC348587  14.622   8.772   5.552
 3639POPC   PO448588  14.814   8.153   5.330
 3639POPC   GL148589  14.649   8.283   5.765
 3639POPC   GL248590  14.302   8.457   5.806
 3639POPC   C1A48591  14.506   8.204   6.221
 3639POPC   D2A48592  14.496   8.330   6.673
 3639POPC   C3A48593  14.236   8.147   6.969
 3639POPC   C4A48594  14.581   7.949   7.092
 3639POPC   C1B48595  13.989   8.560   6.130
 3639POPC   C2B48596  14.034   8.503   6.565
 3639POPC   C3B48597  14.167   8.665   6.957
 3639POPC   C4B48598  14.140   8.569   7.413
 3640POPC   NC348599  43.340   1.132   5.480
 3640POPC   PO448600  42.792   1.453   5.312
 3640POPC   GL148601  42.927   1.278   5.750
 3640POPC   GL248602  42.772   0.973   5.845
 3640POPC   C1A48603  43.140   1.156   6.170
 3640POPC   D2A48604  43.152   1.341   6.615
 3640POPC   C3A48605  42.865   1.212   6.967
 3640POPC   C4A48606  42.948   1.268   7.390
 3640POPC   C1B48607  42.822   0.714   6.179
 3640POPC   C2B48608  42.861   0.909   6.534
 3640POPC   C3B48609  43.150   0.840   6.800
 3640POPC   C4B48610  43.103   0.807   7.200
 3641POPC   NC348611  34.250  35.245   5.217
 3641POPC   PO448612  34.887  35.569   5.264
 3641POPC   GL148613  34.754  35.362   5.687
 3641POPC   GL248614  34.411  35.167   5.720
 3641POPC   C1A48615  34.751  35.536   6.146
 3641POPC   D2A48616  34.420  35.704   6.468
 3641POPC   C3A48617  34.437  35.608   6.941
 3641POPC   C4A48618  34.819  35.497   7.214
 3641POPC   C1B48619  34.347  35.227   6.174
 3641POPC   C2B48620  34.368  35.036   6.594
 3641POPC   C3B48621  34.511  35.092   7.009
 3641POPC   C4B48622  34.427  34.891   7.373
 3642POPC   NC348623  13.450  29.679   5.413
 3642POPC   PO448624  13.922  29.208   5.378
 3642POPC   GL148625  13.724  29.105   5.760
 3642POPC   GL248626  13.732  29.495   5.815
 3642POPC   C1A48627  13.795  28.873   6.188
 3642POPC   D2A48628  13.601  28.861   6.618
 3642POPC   C3A48629  13.834  28.953   6.996
 3642POPC   C4A48630  13.730  29.177   7.350
 3642POPC   C1B48631  13.487  29.304   6.157
 3642POPC   C2B48632  13.261  29.285   6.530
 3642POPC   C3B48633  13.444  29.289   6.926
 3642POPC   C4B48634  13.203  29.200   7.268
 3643POPC   NC348635  32.692  19.789   5.337
 3643POPC   PO448636  33.357  19.946   5.381
 3643POPC   GL148637  33.192  20.002   5.778
 3643POPC   GL248638  32.951  19.779   5.791
 3643POPC   C1A48639  33.339  19.899   6.179
 3643POPC   D2A48640  33.197  19.748   6.562
 3643POPC   C3A48641  33.384  19.877   6.950
 3643POPC   C4A48642  33.179  19.668   7.275
 3643POPC   C1B48643  32.830  19.946   6.172
 3643POPC   C2B48644  32.811  20.136   6.552
 3643POPC   C3B48645  32.870  19.959   6.950
 3643POPC   C4B48646  32.661  19.689   7.243
 3644POPC   NC348647  35.317   4.256   5.462
 3644POPC   PO448648  34.778   4.653   5.537
 3644POPC   GL148649  35.105   4.490   5.832
 3644POPC   GL248650  35.454   4.648   5.807
 3644POPC   C1A48651  35.265   4.252   6.209
 3644POPC   D2A48652  35.383   4.105   6.629
 3644POPC   C3A48653  35.145   4.275   7.001
 3644POPC   C4A48654  34.782   4.055   7.171
 3644POPC   C1B48655  35.644   4.606   6.226
 3644POPC   C2B48656  35.528   4.592   6.648
 3644POPC   C3B48657  35.630   4.497   7.062
 3644POPC   C4B48658  35.769   4.691   7.422
 3645POPC   NC348659   9.458  40.471   5.036
 3645POPC   PO448660   8.895  40.162   5.372
 3645POPC   GL148661   9.067  40.108   5.776
 3645POPC   GL248662   8.795  39.908   5.872
 3645POPC   C1A48663   8.997  40.256   6.191
 3645POPC   D2A48664   8.892  40.028   6.572
 3645POPC   C3A48665   8.985  40.233   6.953
 3645POPC   C4A48666   8.991  40.149   7.391
 3645POPC   C1B48667   8.568  39.743   6.235
 3645POPC   C2B48668   8.414  39.792   6.632
 3645POPC   C3B48669   8.640  39.799   7.000
 3645POPC   C4B48670   8.384  39.658   7.320
 3646POPC   NC348671  34.165  10.205   5.413
 3646POPC   PO448672  34.550  10.844   5.309
 3646POPC   GL148673  34.555  10.705   5.712
 3646POPC   GL248674  34.267  10.527   5.796
 3646POPC   C1A48675  34.567  10.813   6.138
 3646POPC   D2A48676  34.477  10.596   6.499
 3646POPC   C3A48677  34.640  10.689   6.881
 3646POPC   C4A48678  34.471  10.837   7.220
 3646POPC   C1B48679  34.108  10.294   6.161
 3646POPC   C2B48680  34.016  10.404   6.598
 3646POPC   C3B48681  34.225  10.377   7.007
 3646POPC   C4B48682  34.204   9.970   7.238
 3647POPC   NC348683  44.771  19.258   5.407
 3647POPC   PO448684  44.231  18.860   5.450
 3647POPC   GL148685  44.511  19.054   5.800
 3647POPC   GL248686  44.862  18.904   5.804
 3647POPC   C1A48687  44.484  19.232   6.222
 3647POPC   D2A48688  44.257  19.053   6.573
 3647POPC   C3A48689  44.397  19.105   6.983
 3647POPC   C4A48690  44.735  19.174   7.251
 3647POPC   C1B48691  44.990  19.023   6.219
 3647POPC   C2B48692  44.806  19.058   6.625
 3647POPC   C3B48693   0.020  18.882   6.956
 3647POPC   C4B48694   0.114  18.827   7.350
 3648POPC   NC348695   3.187  25.643   5.330
 3648POPC   PO448696   3.603  26.154   5.465
 3648POPC   GL148697   3.625  25.853   5.792
 3648POPC   GL248698   3.884  25.605   5.845
 3648POPC   C1A48699   3.550  26.032   6.196
 3648POPC   D2A48700   3.755  26.313   6.471
 3648POPC   C3A48701   3.501  26.296   6.792
 3648POPC   C4A48702   3.449  26.406   7.170
 3648POPC   C1B48703   3.823  25.621   6.300
 3648POPC   C2B48704   3.663  25.792   6.672
 3648POPC   C3B48705   3.553  25.872   7.095
 3648POPC   C4B48706   3.233  25.875   7.428
 3649POPC   NC348707  10.874  11.633   5.521
 3649POPC   PO448708  10.715  10.983   5.428
 3649POPC   GL148709  10.627  11.217   5.799
 3649POPC   GL248710  10.999  11.227   5.811
 3649POPC   C1A48711  10.461  11.493   6.154
 3649POPC   D2A48712  10.551  11.695   6.546
 3649POPC   C3A48713  10.419  11.461   6.925
 3649POPC   C4A48714  10.536  11.393   7.351
 3649POPC   C1B48715  10.914  11.276   6.227
 3649POPC   C2B48716  10.775  11.243   6.621
 3649POPC   C3B48717  10.931  11.444   6.966
 3649POPC   C4B48718  11.023  11.291   7.332
 3650POPC   NC348719  19.237  31.538   5.101
 3650POPC   PO448720  18.728  31.430   5.598
 3650POPC   GL148721  19.003  31.587   5.925
 3650POPC   GL248722  19.342  31.576   5.794
 3650POPC   C1A48723  18.929  31.526   6.371
 3650POPC   D2A48724  18.659  31.327   6.680
 3650POPC   C3A48725  18.681  31.501   7.031
 3650POPC   C4A48726  19.085  31.516   7.151
 3650POPC   C1B48727  19.450  31.546   6.260
 3650POPC   C2B48728  19.436  31.662   6.719
 3650POPC   C3B48729  19.357  31.945   7.082
 3650POPC   C4B48730  19.237  31.835   7.520
 3651POPC   NC348731  14.967   8.498   5.047
 3651POPC   PO448732  15.542   8.197   5.288
 3651POPC   GL148733  15.221   8.325   5.608
 3651POPC   GL248734  15.124   8.047   5.784
 3651POPC   C1A48735  15.045   8.516   5.999
 3651POPC   D2A48736  14.915   8.454   6.419
 3651POPC   C3A48737  15.051   8.500   6.892
 3651POPC   C4A48738  15.160   8.322   7.263
 3651POPC   C1B48739  15.032   7.972   6.235
 3651POPC   C2B48740  15.034   8.040   6.688
 3651POPC   C3B48741  15.065   7.844   7.070
 3651POPC   C4B48742  15.018   7.563   7.425
 3652POPC   NC348743  27.223  29.253   5.362
 3652POPC   PO448744  27.738  29.580   5.570
 3652POPC   GL148745  27.459  29.387   5.842
 3652POPC   GL248746  27.401  29.027   5.787
 3652POPC   C1A48747  27.566  29.462   6.267
 3652POPC   D2A48748  27.722  29.565   6.674
 3652POPC   C3A48749  27.536  29.363   7.017
 3652POPC   C4A48750  27.739  29.296   7.387
 3652POPC   C1B48751  27.696  28.982   6.129
 3652POPC   C2B48752  27.815  28.770   6.509
 3652POPC   C3B48753  27.607  28.824   6.878
 3652POPC   C4B48754  27.446  28.906   7.274
 3653POPC   NC348755  36.496  25.006   5.568
 3653POPC   PO448756  35.963  25.358   5.355
 3653POPC   GL148757  35.893  25.367   5.803
 3653POPC   GL248758  36.237  25.297   5.896
 3653POPC   C1A48759  35.895  25.221   6.250
 3653POPC   D2A48760  36.076  25.256   6.657
 3653POPC   C3A48761  35.800  25.251   6.997
 3653POPC   C4A48762  35.910  25.045   7.342
 3653POPC   C1B48763  36.456  25.349   6.283
 3653POPC   C2B48764  36.577  25.136   6.666
 3653POPC   C3B48765  36.456  25.134   7.107
 3653POPC   C4B48766  36.258  25.457   7.374
 3654POPC   NC348767  34.000  18.724   5.157
 3654POPC   PO448768  33.620  18.135   5.235
 3654POPC   GL148769  33.620  18.166   5.720
 3654POPC   GL248770  33.957  18.090   5.785
 3654POPC   C1A48771  33.683  18.326   6.188
 3654POPC   D2A48772  34.075  18.381   6.435
 3654POPC   C3A48773  34.016  18.350   6.894
 3654POPC   C4A48774  33.687  18.519   7.147
 3654POPC   C1B48775  33.922  17.872   6.186
 3654POPC   C2B48776  33.735  17.710   6.576
 3654POPC   C3B48777  33.830  17.870   6.971
 3654POPC   C4B48778  33.605  18.027   7.305
 3655POPC   NC348779  44.350  33.502   5.559
 3655POPC   PO448780  44.704  34.041   5.194
 3655POPC   GL148781  44.591  33.974   5.661
 3655POPC   GL248782  44.235  33.911   5.812
 3655POPC   C1A48783  44.703  33.865   6.104
 3655POPC   D2A48784  44.638  33.986   6.535
 3655POPC   C3A48785  44.821  33.879   6.983
 3655POPC   C4A48786  44.640  33.878   7.416
 3655POPC   C1B48787  44.254  33.639   6.191
 3655POPC   C2B48788  44.158  33.811   6.572
 3655POPC   C3B48789  44.324  33.926   6.958
 3655POPC   C4B48790  44.327  33.543   7.171
 3656POPC   NC348791  11.821  11.370   5.339
 3656POPC   PO448792  12.471  11.117   5.402
 3656POPC   GL148793  12.159  11.184   5.715
 3656POPC   GL248794  12.253  10.986   5.984
 3656POPC   C1A48795  11.848  11.296   6.042
 3656POPC   D2A48796  11.783  11.388   6.478
 3656POPC   C3A48797  11.902  11.193   6.891
 3656POPC   C4A48798  11.916  11.324   7.365
 3656POPC   C1B48799  12.315  11.378   6.229
 3656POPC   C2B48800  12.219  11.568   6.630
 3656POPC   C3B48801  12.232  11.560   7.009
 3656POPC   C4B48802  12.371  11.202   7.182
 3657POPC   NC348803   9.374  21.896   5.342
 3657POPC   PO448804   9.907  21.396   5.331
 3657POPC   GL148805   9.775  21.293   5.762
 3657POPC   GL248806   9.435  21.392   5.784
 3657POPC   C1A48807   9.845  21.197   6.193
 3657POPC   D2A48808  10.044  21.380   6.531
 3657POPC   C3A48809   9.877  21.482   6.935
 3657POPC   C4A48810  10.113  21.622   7.299
 3657POPC   C1B48811   9.557  21.627   6.147
 3657POPC   C2B48812   9.517  21.463   6.551
 3657POPC   C3B48813   9.347  21.577   6.946
 3657POPC   C4B48814   9.420  21.782   7.336
 3658POPC   NC348815  23.859  13.871   5.426
 3658POPC   PO448816  23.289  13.507   5.245
 3658POPC   GL148817  23.469  13.667   5.733
 3658POPC   GL248818  23.578  13.945   5.872
 3658POPC   C1A48819  23.776  13.563   6.123
 3658POPC   D2A48820  23.979  13.383   6.512
 3658POPC   C3A48821  23.886  13.532   6.935
 3658POPC   C4A48822  23.740  13.325   7.305
 3658POPC   C1B48823  23.342  13.876   6.202
 3658POPC   C2B48824  23.485  13.695   6.557
 3658POPC   C3B48825  23.546  13.920   6.893
 3658POPC   C4B48826  23.621  13.912   7.291
 3659POPC   NC348827  36.279  10.015   5.423
 3659POPC   PO448828  36.226  10.694   5.510
 3659POPC   GL148829  36.169  10.400   5.852
 3659POPC   GL248830  35.801  10.359   5.816
 3659POPC   C1A48831  36.360  10.410   6.302
 3659POPC   D2A48832  36.496  10.641   6.706
 3659POPC   C3A48833  36.339  10.425   7.077
 3659POPC   C4A48834  35.937  10.247   7.205
 3659POPC   C1B48835  35.859  10.721   6.127
 3659POPC   C2B48836  35.987  10.844   6.561
 3659POPC   C3B48837  35.981  10.798   7.006
 3659POPC   C4B48838  35.671  10.669   7.320
 3660POPC   NC348839   7.151  25.841   5.217
 3660POPC   PO448840   6.678  26.258   5.490
 3660POPC   GL148841   6.513  26.099   5.853
 3660POPC   GL248842   6.575  25.754   5.953
 3660POPC   C1A48843   6.615  26.208   6.252
 3660POPC   D2A48844   6.344  26.195   6.601
 3660POPC   C3A48845   6.495  26.035   6.943
 3660POPC   C4A48846   6.824  26.331   7.049
 3660POPC   C1B48847   6.597  25.759   6.429
 3660POPC   C2B48848   6.923  25.966   6.662
 3660POPC   C3B48849   6.944  25.838   7.075
 3660POPC   C4B48850   6.577  25.570   7.196
 3661POPC   NC348851  19.610   5.809   5.072
 3661POPC   PO448852  19.776   5.200   5.465
 3661POPC   GL148853  19.695   5.038   5.883
 3661POPC   GL248854  19.937   4.774   5.924
 3661POPC   C1A48855  19.633   5.205   6.288
 3661POPC   D2A48856  19.877   5.186   6.668
 3661POPC   C3A48857  19.702   5.157   7.090
 3661POPC   C4A48858  19.599   5.475   7.400
 3661POPC   C1B48859  19.837   4.744   6.387
 3661POPC   C2B48860  19.861   4.707   6.839
 3661POPC   C3B48861  19.876   4.677   7.279
 3661POPC   C4B48862  19.970   4.619   7.717
 3662POPC   NC348863   3.323  36.120   5.493
 3662POPC   PO448864   2.766  36.310   5.430
 3662POPC   GL148865   2.730  36.273   5.882
 3662POPC   GL248866   3.066  36.173   5.943
 3662POPC   C1A48867   2.538  36.097   6.282
 3662POPC   D2A48868   2.557  35.705   6.569
 3662POPC   C3A48869   2.672  35.706   7.034
 3662POPC   C4A48870   3.036  35.900   7.256
 3662POPC   C1B48871   3.030  36.046   6.387
 3662POPC   C2B48872   2.772  36.134   6.763
 3662POPC   C3B48873   2.908  36.374   7.115
 3662POPC   C4B48874   3.332  36.365   7.298
 3663POPC   NC348875  23.171  35.948   5.580
 3663POPC   PO448876  22.662  36.501   5.597
 3663POPC   GL148877  22.882  36.311   5.936
 3663POPC   GL248878  23.231  36.295   5.942
 3663POPC   C1A48879  22.856  36.002   6.272
 3663POPC   D2A48880  22.861  35.614   6.506
 3663POPC   C3A48881  22.658  35.757   6.891
 3663POPC   C4A48882  22.535  36.188   7.087
 3663POPC   C1B48883  23.355  36.090   6.274
 3663POPC   C2B48884  23.228  36.186   6.672
 3663POPC   C3B48885  23.103  36.044   7.070
 3663POPC   C4B48886  23.415  35.984   7.350
 3664POPC   NC348887  13.974   2.375   5.579
 3664POPC   PO448888  14.427   1.874   5.657
 3664POPC   GL148889  14.239   2.053   5.942
 3664POPC   GL248890  14.426   2.359   5.838
 3664POPC   C1A48891  14.417   1.825   6.310
 3664POPC   D2A48892  14.595   1.987   6.681
 3664POPC   C3A48893  14.373   1.919   7.029
 3664POPC   C4A48894  14.415   1.543   7.172
 3664POPC   C1B48895  14.490   2.319   6.294
 3664POPC   C2B48896  14.315   2.477   6.690
 3664POPC   C3B48897  14.333   2.424   7.130
 3664POPC   C4B48898  14.579   2.220   7.425
 3665POPC   NC348899  43.353  31.236   5.294
 3665POPC   PO448900  42.857  31.607   5.462
 3665POPC   GL148901  43.011  31.295   5.760
 3665POPC   GL248902  43.300  31.458   5.840
 3665POPC   C1A48903  42.969  31.235   6.210
 3665POPC   D2A48904  42.874  31.481   6.573
 3665POPC   C3A48905  42.997  31.339   6.994
 3665POPC   C4A48906  43.003  31.040   7.335
 3665POPC   C1B48907  43.175  31.732   6.179
 3665POPC   C2B48908  43.390  31.888   6.541
 3665POPC   C3B48909  43.561  31.864   6.928
 3665POPC   C4B48910  43.324  31.653   7.239
 3666POPC   NC348911  24.720  14.487   5.450
 3666POPC   PO448912  24.212  14.181   5.455
 3666POPC   GL148913  24.344  14.493   5.818
 3666POPC   GL248914  24.728  14.549   5.938
 3666POPC   C1A48915  24.362  14.441   6.277
 3666POPC   D2A48916  24.691  14.302   6.561
 3666POPC   C3A48917  24.557  14.137   6.984
 3666POPC   C4A48918  24.618  14.208   7.429
 3666POPC   C1B48919  25.009  14.754   6.240
 3666POPC   C2B48920  24.873  14.808   6.662
 3666POPC   C3B48921  24.613  14.638   6.989
 3666POPC   C4B48922  24.670  14.700   7.388
 3667POPC   NC348923   0.144  21.135   5.444
 3667POPC   PO448924   0.559  21.738   5.568
 3667POPC   GL148925   0.278  21.505   5.828
 3667POPC   GL248926   0.396  21.176   5.893
 3667POPC   C1A48927   0.222  21.599   6.263
 3667POPC   D2A48928   0.440  21.777   6.622
 3667POPC   C3A48929   0.539  21.569   7.018
 3667POPC   C4A48930   0.267  21.479   7.361
 3667POPC   C1B48931   0.570  21.240   6.286
 3667POPC   C2B48932   0.370  21.247   6.669
 3667POPC   C3B48933   0.423  21.087   7.074
 3667POPC   C4B48934   0.731  21.143   7.357
 3668POPC   NC348935  42.258  10.768   5.487
 3668POPC   PO448936  41.898  10.194   5.634
 3668POPC   GL148937  42.250  10.244   5.867
 3668POPC   GL248938  42.187  10.545   5.939
 3668POPC   C1A48939  42.360  10.247   6.317
 3668POPC   D2A48940  42.186  10.421   6.692
 3668POPC   C3A48941  42.341  10.192   7.053
 3668POPC   C4A48942  42.510  10.246   7.485
 3668POPC   C1B48943  42.512  10.732   6.166
 3668POPC   C2B48944  42.639  10.791   6.593
 3668POPC   C3B48945  42.541  10.648   6.982
 3668POPC   C4B48946  42.167  10.648   7.231
 3669POPC   NC348947  44.263  18.398   5.458
 3669POPC   PO448948  44.882  18.108   5.566
 3669POPC   GL148949  44.590  18.237   5.869
 3669POPC   GL248950  44.477  18.559   5.889
 3669POPC   C1A48951  44.637  18.252   6.314
 3669POPC   D2A48952  44.886  17.977   6.504
 3669POPC   C3A48953  44.783  17.938   6.913
 3669POPC   C4A48954  44.538  18.205   7.161
 3669POPC   C1B48955  44.547  18.737   6.296
 3669POPC   C2B48956  44.536  18.639   6.763
 3669POPC   C3B48957  44.624  18.685   7.215
 3669POPC   C4B48958  44.867  18.425   7.515
 3670POPC   NC348959   8.802  10.049   5.481
 3670POPC   PO448960   9.426   9.858   5.366
 3670POPC   GL148961   9.199   9.812   5.785
 3670POPC   GL248962   8.850   9.618   5.803
 3670POPC   C1A48963   9.074   9.735   6.227
 3670POPC   D2A48964   8.759   9.918   6.462
 3670POPC   C3A48965   8.914   9.864   6.860
 3670POPC   C4A48966   9.030   9.694   7.263
 3670POPC   C1B48967   8.598   9.509   6.203
 3670POPC   C2B48968   8.474   9.517   6.651
 3670POPC   C3B48969   8.514   9.615   7.098
 3670POPC   C4B48970   8.655   9.486   7.519
 3671POPC   NC348971   0.663  44.070   5.352
 3671POPC   PO448972   0.335  43.471   5.458
 3671POPC   GL148973   0.550  43.758   5.758
 3671POPC   GL248974   0.723  44.124   5.841
 3671POPC   C1A48975   0.487  43.863   6.200
 3671POPC   D2A48976   0.735  43.958   6.582
 3671POPC   C3A48977   0.583  43.814   6.990
 3671POPC   C4A48978   0.919  43.545   7.139
 3671POPC   C1B48979   0.624  44.337   6.247
 3671POPC   C2B48980   0.421  44.352   6.645
 3671POPC   C3B48981   0.691  44.303   6.991
 3671POPC   C4B48982   0.625  44.123   7.428
 3672POPC   NC348983  24.817  16.122   5.404
 3672POPC   PO448984  25.501  16.086   5.439
 3672POPC   GL148985  25.191  16.078   5.774
 3672POPC   GL248986  24.987  15.758   5.735
 3672POPC   C1A48987  25.284  16.050   6.217
 3672POPC   D2A48988  25.283  15.762   6.571
 3672POPC   C3A48989  25.416  15.946   6.962
 3672POPC   C4A48990  25.262  15.676   7.261
 3672POPC   C1B48991  24.831  15.813   6.149
 3672POPC   C2B48992  24.817  16.021   6.506
 3672POPC   C3B48993  24.896  15.904   6.897
 3672POPC   C4B48994  25.007  16.154   7.233
 3673POPC   NC348995  18.487  39.603   5.592
 3673POPC   PO448996  18.199  39.004   5.452
 3673POPC   GL148997  18.180  39.237   5.831
 3673POPC   GL248998  17.897  39.002   5.884
 3673POPC   C1A48999  18.489  39.358   6.198
 3673POPC   D2A49000  18.812  39.273   6.502
 3673POPC   C3A49001  18.708  39.433   6.895
 3673POPC   C4A49002  18.665  39.361   7.315
 3673POPC   C1B49003  18.050  39.133   6.310
 3673POPC   C2B49004  18.361  39.010   6.601
 3673POPC   C3B49005  18.337  39.094   7.017
 3673POPC   C4B49006  18.047  39.029   7.328
 3674POPC   NC349007  35.028  20.077   5.441
 3674POPC   PO449008  35.777  20.102   5.468
 3674POPC   GL149009  35.454  19.975   5.702
 3674POPC   GL249010  35.376  19.696   5.508
 3674POPC   C1A49011  35.240  20.057   6.093
 3674POPC   D2A49012  35.326  20.042   6.534
 3674POPC   C3A49013  35.065  20.075   6.905
 3674POPC   C4A49014  35.329  20.189   7.280
 3674POPC   C1B49015  35.280  19.559   5.922
 3674POPC   C2B49016  35.230  19.543   6.349
 3674POPC   C3B49017  35.133  19.571   6.764
 3674POPC   C4B49018  35.266  19.694   7.169
 3675POPC   NC349019  29.033  22.989   5.374
 3675POPC   PO449020  29.720  23.144   5.380
 3675POPC   GL149021  29.391  23.054   5.727
 3675POPC   GL249022  29.330  23.320   5.993
 3675POPC   C1A49023  29.236  22.856   6.128
 3675POPC   D2A49024  29.377  23.156   6.484
 3675POPC   C3A49025  29.336  23.047   6.891
 3675POPC   C4A49026  29.060  22.835   7.151
 3675POPC   C1B49027  28.900  23.206   6.293
 3675POPC   C2B49028  28.814  23.098   6.750
 3675POPC   C3B49029  28.856  23.281   7.188
 3675POPC   C4B49030  28.693  23.333   7.641
 3676POPC   NC349031   6.898   3.551   5.624
 3676POPC   PO449032   7.574   3.589   5.314
 3676POPC   GL149033   7.459   3.560   5.751
 3676POPC   GL249034   7.290   3.832   5.871
 3676POPC   C1A49035   7.682   3.686   6.149
 3676POPC   D2A49036   7.875   3.596   6.538
 3676POPC   C3A49037   7.672   3.424   6.891
 3676POPC   C4A49038   7.331   3.386   7.170
 3676POPC   C1B49039   7.177   3.781   6.291
 3676POPC   C2B49040   6.897   3.753   6.649
 3676POPC   C3B49041   6.957   3.790   7.084
 3676POPC   C4B49042   7.052   3.687   7.501
 3677POPC   NC349043   1.369  41.917   5.503
 3677POPC   PO449044   1.010  41.316   5.409
 3677POPC   GL149045   1.140  41.553   5.794
 3677POPC   GL249046   1.539  41.541   5.805
 3677POPC   C1A49047   1.073  41.385   6.201
 3677POPC   D2A49048   1.245  41.428   6.608
 3677POPC   C3A49049   1.011  41.468   6.981
 3677POPC   C4A49050   1.179  41.549   7.384
 3677POPC   C1B49051   1.513  41.671   6.215
 3677POPC   C2B49052   1.511  41.873   6.609
 3677POPC   C3B49053   1.472  41.763   7.020
 3677POPC   C4B49054   1.509  41.951   7.425
 3678POPC   NC349055  25.998  40.323   5.490
 3678POPC   PO449056  25.780  39.702   5.522
 3678POPC   GL149057  26.091  39.933   5.788
 3678POPC   GL249058  25.815  40.101   5.914
 3678POPC   C1A49059  26.341  40.226   6.074
 3678POPC   D2A49060  26.402  40.303   6.573
 3678POPC   C3A49061  26.033  40.144   6.872
 3678POPC   C4A49062  25.981  39.829   7.242
 3678POPC   C1B49063  25.932  40.207   6.347
 3678POPC   C2B49064  25.778  40.535   6.610
 3678POPC   C3B49065  25.492  40.445   6.906
 3678POPC   C4B49066  25.633  40.182   7.228
 3679POPC   NC349067  23.151  27.887   5.493
 3679POPC   PO449068  22.557  27.608   5.614
 3679POPC   GL149069  22.896  27.567   5.859
 3679POPC   GL249070  22.945  27.868   5.956
 3679POPC   C1A49071  23.062  27.538   6.303
 3679POPC   D2A49072  22.935  27.512   6.735
 3679POPC   C3A49073  23.246  27.520   7.067
 3679POPC   C4A49074  23.237  27.448   7.533
 3679POPC   C1B49075  22.586  27.755   6.248
 3679POPC   C2B49076  22.515  27.790   6.672
 3679POPC   C3B49077  22.626  27.882   7.070
 3679POPC   C4B49078  22.987  27.902   7.306
 3680POPC   NC349079  32.680   4.093   5.330
 3680POPC   PO449080  33.218   4.416   5.003
 3680POPC   GL149081  33.240   4.486   5.561
 3680POPC   GL249082  32.907   4.350   5.739
 3680POPC   C1A49083  33.279   4.380   6.087
 3680POPC   D2A49084  33.321   4.174   6.539
 3680POPC   C3A49085  33.200   4.345   6.958
 3680POPC   C4A49086  32.882   4.460   7.271
 3680POPC   C1B49087  32.703   4.049   6.057
 3680POPC   C2B49088  32.818   4.081   6.495
 3680POPC   C3B49089  32.741   4.032   6.916
 3680POPC   C4B49090  32.503   4.080   7.274
 3681POPC   NC349091  27.565  37.434   5.180
 3681POPC   PO449092  27.416  36.731   5.322
 3681POPC   GL149093  27.427  36.750   5.766
 3681POPC   GL249094  27.734  36.561   5.834
 3681POPC   C1A49095  27.613  36.928   6.174
 3681POPC   D2A49096  27.690  36.708   6.572
 3681POPC   C3A49097  27.799  36.910   6.942
 3681POPC   C4A49098  27.611  37.196   7.238
 3681POPC   C1B49099  27.724  36.290   6.232
 3681POPC   C2B49100  27.880  36.220   6.661
 3681POPC   C3B49101  27.621  36.368   6.976
 3681POPC   C4B49102  27.556  36.638   7.319
 3682POPC   NC349103  10.451  30.283   5.341
 3682POPC   PO449104  10.684  29.641   5.367
 3682POPC   GL149105  10.525  29.846   5.728
 3682POPC   GL249106  10.780  29.957   5.938
 3682POPC   C1A49107  10.373  29.743   6.162
 3682POPC   D2A49108  10.219  29.933   6.560
 3682POPC   C3A49109  10.274  29.669   6.928
 3682POPC   C4A49110  10.389  29.696   7.363
 3682POPC   C1B49111  10.722  30.052   6.386
 3682POPC   C2B49112  10.707  29.978   6.849
 3682POPC   C3B49113  10.632  30.149   7.260
 3682POPC   C4B49114  10.717  30.418   7.629
 3683POPC   NC349115   6.388  38.411   5.223
 3683POPC   PO449116   5.767  38.095   5.294
 3683POPC   GL149117   5.916  38.335   5.689
 3683POPC   GL249118   5.882  38.678   5.830
 3683POPC   C1A49119   6.147  38.237   6.112
 3683POPC   D2A49120   6.248  38.335   6.561
 3683POPC   C3A49121   5.976  38.460   6.861
 3683POPC   C4A49122   5.944  38.318   7.232
 3683POPC   C1B49123   5.813  38.579   6.248
 3683POPC   C2B49124   5.777  38.820   6.593
 3683POPC   C3B49125   5.678  38.896   6.977
 3683POPC   C4B49126   5.719  38.760   7.395
 3684POPC   NC349127  38.826  14.739   5.517
 3684POPC   PO449128  38.984  14.048   5.390
 3684POPC   GL149129  39.077  14.347   5.740
 3684POPC   GL249130  39.388  14.555   5.804
 3684POPC   C1A49131  39.023  14.544   6.168
 3684POPC   D2A49132  39.136  14.380   6.564
 3684POPC   C3A49133  38.953  14.556   6.896
 3684POPC   C4A49134  39.074  14.778   7.230
 3684POPC   C1B49135  39.540  14.622   6.266
 3684POPC   C2B49136  39.672  14.722   6.717
 3684POPC   C3B49137  39.546  14.583   7.150
 3684POPC   C4B49138  39.436  14.644   7.619
 3685POPC   NC349139  27.725  37.071   5.512
 3685POPC   PO449140  28.398  36.841   5.475
 3685POPC   GL149141  28.381  36.866   5.880
 3685POPC   GL249142  28.061  36.958   5.879
 3685POPC   C1A49143  28.458  36.984   6.310
 3685POPC   D2A49144  28.299  37.067   6.725
 3685POPC   C3A49145  28.538  36.972   7.113
 3685POPC   C4A49146  28.463  36.933   7.583
 3685POPC   C1B49147  28.065  36.674   6.230
 3685POPC   C2B49148  28.286  36.541   6.565
 3685POPC   C3B49149  28.209  36.606   6.961
 3685POPC   C4B49150  28.027  36.415   7.269
 3686POPC   NC349151  29.613  29.287   5.499
 3686POPC   PO449152  30.144  28.876   5.508
 3686POPC   GL149153  29.793  28.946   5.834
 3686POPC   GL249154  29.774  29.305   5.980
 3686POPC   C1A49155  29.632  28.904   6.265
 3686POPC   D2A49156  29.775  28.868   6.689
 3686POPC   C3A49157  29.869  29.251   6.916
 3686POPC   C4A49158  29.887  29.082   7.325
 3686POPC   C1B49159  29.996  29.250   6.384
 3686POPC   C2B49160  30.324  29.267   6.679
 3686POPC   C3B49161  30.276  29.556   7.054
 3686POPC   C4B49162  30.125  29.491   7.474
 3687POPC   NC349163  34.883   5.422   5.679
 3687POPC   PO449164  35.327   4.971   5.393
 3687POPC   GL149165  35.285   5.138   5.807
 3687POPC   GL249166  34.982   4.973   5.877
 3687POPC   C1A49167  35.157   5.242   6.256
 3687POPC   D2A49168  35.350   5.096   6.611
 3687POPC   C3A49169  35.287   5.302   6.978
 3687POPC   C4A49170  35.635   5.366   7.217
 3687POPC   C1B49171  35.145   4.751   6.246
 3687POPC   C2B49172  35.023   4.697   6.647
 3687POPC   C3B49173  35.224   4.800   7.033
 3687POPC   C4B49174  35.355   4.997   7.423
 3688POPC   NC349175  25.108  41.656   5.493
 3688POPC   PO449176  25.575  41.287   5.655
 3688POPC   GL149177  25.499  41.691   5.865
 3688POPC   GL249178  25.145  41.675   5.980
 3688POPC   C1A49179  25.477  41.838   6.315
 3688POPC   D2A49180  25.323  41.616   6.667
 3688POPC   C3A49181  25.301  41.769   7.082
 3688POPC   C4A49182  25.547  41.534   7.388
 3688POPC   C1B49183  24.911  41.500   6.312
 3688POPC   C2B49184  24.810  41.648   6.702
 3688POPC   C3B49185  24.828  41.557   7.129
 3688POPC   C4B49186  25.053  41.552   7.489
 3689POPC   NC349187  11.859  32.176   5.404
 3689POPC   PO449188  12.425  31.942   5.200
 3689POPC   GL149189  12.273  32.294   5.661
 3689POPC   GL249190  11.926  32.193   5.902
 3689POPC   C1A49191  12.251  32.476   6.129
 3689POPC   D2A49192  12.062  32.611   6.553
 3689POPC   C3A49193  12.244  32.640   6.974
 3689POPC   C4A49194  12.181  32.377   7.335
 3689POPC   C1B49195  11.868  31.903   6.272
 3689POPC   C2B49196  12.011  31.800   6.679
 3689POPC   C3B49197  11.976  32.159   6.928
 3689POPC   C4B49198  11.666  32.329   7.187
 3690POPC   NC349199   1.677   7.414   5.552
 3690POPC   PO449200   2.202   7.071   5.313
 3690POPC   GL149201   2.142   7.251   5.757
 3690POPC   GL249202   2.065   7.634   5.846
 3690POPC   C1A49203   1.946   7.208   6.167
 3690POPC   D2A49204   1.945   7.444   6.537
 3690POPC   C3A49205   1.837   7.185   6.879
 3690POPC   C4A49206   1.706   6.923   7.172
 3690POPC   C1B49207   2.159   7.870   6.247
 3690POPC   C2B49208   2.077   7.929   6.700
 3690POPC   C3B49209   1.886   7.669   6.995
 3690POPC   C4B49210   1.960   7.514   7.401
 3691POPC   NC349211  38.954  43.737   5.578
 3691POPC   PO449212  39.186  44.359   5.514
 3691POPC   GL149213  39.214  44.112   5.907
 3691POPC   GL249214  39.292  43.747   5.983
 3691POPC   C1A49215  39.227  44.102   6.344
 3691POPC   D2A49216  39.050  44.317   6.657
 3691POPC   C3A49217  39.283  44.098   6.911
 3691POPC   C4A49218  39.383  44.138   7.342
 3691POPC   C1B49219  38.894  43.736   6.262
 3691POPC   C2B49220  38.850  43.854   6.729
 3691POPC   C3B49221  39.005  43.816   7.203
 3691POPC   C4B49222  39.254  43.652   7.562
 3692POPC   NC349223  13.143   3.110   5.710
 3692POPC   PO449224  13.483   3.534   5.240
 3692POPC   GL149225  13.564   3.401   5.678
 3692POPC   GL249226  13.695   3.676   5.795
 3692POPC   C1A49227  13.559   3.357   6.179
 3692POPC   D2A49228  13.581   3.198   6.617
 3692POPC   C3A49229  13.506   3.443   6.995
 3692POPC   C4A49230  13.839   3.734   7.119
 3692POPC   C1B49231  13.415   3.839   6.164
 3692POPC   C2B49232  13.434   3.813   6.615
 3692POPC   C3B49233  13.362   3.938   7.031
 3692POPC   C4B49234  13.470   3.831   7.443
 3693POPC   NC349235  40.053  21.992   5.518
 3693POPC   PO449236  40.455  22.515   5.507
 3693POPC   GL149237  40.272  22.297   5.883
 3693POPC   GL249238  39.904  22.298   5.933
 3693POPC   C1A49239  40.234  21.998   6.214
 3693POPC   D2A49240  40.208  21.933   6.655
 3693POPC   C3A49241  40.197  22.286   6.958
 3693POPC   C4A49242  40.299  22.296   7.402
 3693POPC   C1B49243  39.756  22.166   6.349
 3693POPC   C2B49244  39.746  22.032   6.786
 3693POPC   C3B49245  39.846  21.979   7.212
 3693POPC   C4B49246  39.674  21.779   7.602
 3694POPC   NC349247  10.027   2.134   5.128
 3694POPC   PO449248   9.456   1.883   5.319
 3694POPC   GL149249   9.712   2.032   5.661
 3694POPC   GL249250  10.029   1.852   5.645
 3694POPC   C1A49251   9.642   2.190   6.096
 3694POPC   D2A49252   9.760   2.045   6.511
 3694POPC   C3A49253   9.677   2.226   6.908
 3694POPC   C4A49254   9.676   1.928   7.229
 3694POPC   C1B49255  10.126   1.897   6.110
 3694POPC   C2B49256  10.156   1.697   6.524
 3694POPC   C3B49257  10.057   1.834   6.923
 3694POPC   C4B49258  10.135   2.161   7.228
 3695POPC   NC349259   6.325  42.511   5.075
 3695POPC   PO449260   6.797  42.135   5.316
 3695POPC   GL149261   6.720  42.305   5.711
 3695POPC   GL249262   6.381  42.320   5.677
 3695POPC   C1A49263   6.805  42.416   6.139
 3695POPC   D2A49264   7.013  42.356   6.528
 3695POPC   C3A49265   6.789  42.351   6.918
 3695POPC   C4A49266   6.598  42.571   7.285
 3695POPC   C1B49267   6.400  42.087   6.075
 3695POPC   C2B49268   6.542  42.084   6.495
 3695POPC   C3B49269   6.364  42.096   6.901
 3695POPC   C4B49270   6.493  42.048   7.278
 3696POPC   NC349271  11.104  20.520   5.229
 3696POPC   PO449272  11.474  21.042   5.462
 3696POPC   GL149273  11.426  20.634   5.646
 3696POPC   GL249274  11.114  20.758   5.776
 3696POPC   C1A49275  11.436  20.445   6.065
 3696POPC   D2A49276  11.273  20.628   6.475
 3696POPC   C3A49277  11.499  20.592   6.875
 3696POPC   C4A49278  11.531  20.794   7.269
 3696POPC   C1B49279  10.866  20.908   6.155
 3696POPC   C2B49280  10.905  21.006   6.610
 3696POPC   C3B49281  11.120  21.063   7.018
 3696POPC   C4B49282  10.949  21.155   7.454
 3697POPC   NC349283   1.266  12.113   5.226
 3697POPC   PO449284   0.794  12.313   5.634
 3697POPC   GL149285   1.154  12.060   5.775
 3697POPC   GL249286   1.504  12.134   5.680
 3697POPC   C1A49287   1.243  11.920   6.205
 3697POPC   D2A49288   1.026  11.892   6.577
 3697POPC   C3A49289   1.241  11.956   6.916
 3697POPC   C4A49290   1.162  12.003   7.312
 3697POPC   C1B49291   1.491  12.337   6.091
 3697POPC   C2B49292   1.409  12.304   6.520
 3697POPC   C3B49293   1.477  12.427   6.923
 3697POPC   C4B49294   1.253  12.507   7.246
 3698POPC   NC349295  42.972   8.347   5.414
 3698POPC   PO449296  43.475   7.908   5.439
 3698POPC   GL149297  43.349   8.204   5.783
 3698POPC   GL249298  42.999   8.127   5.888
 3698POPC   C1A49299  43.425   8.218   6.254
 3698POPC   D2A49300  43.285   8.082   6.687
 3698POPC   C3A49301  43.196   8.414   6.977
 3698POPC   C4A49302  43.195   8.468   7.427
 3698POPC   C1B49303  42.893   8.162   6.340
 3698POPC   C2B49304  42.759   8.344   6.746
 3698POPC   C3B49305  42.752   8.194   7.182
 3698POPC   C4B49306  42.422   8.045   7.478
 3699POPC   NC349307  35.085  31.269   5.413
 3699POPC   PO449308  35.588  31.668   5.367
 3699POPC   GL149309  35.434  31.500   5.719
 3699POPC   GL249310  35.159  31.708   5.690
 3699POPC   C1A49311  35.431  31.243   6.073
 3699POPC   D2A49312  35.258  31.311   6.460
 3699POPC   C3A49313  35.473  31.219   6.839
 3699POPC   C4A49314  35.295  31.355   7.215
 3699POPC   C1B49315  35.060  31.631   6.085
 3699POPC   C2B49316  35.074  31.787   6.490
 3699POPC   C3B49317  35.037  31.664   6.898
 3699POPC   C4B49318  35.049  31.834   7.313
 3700POPC   NC349319  14.742  21.654   5.349
 3700POPC   PO449320  14.106  21.284   5.331
 3700POPC   GL149321  14.250  21.465   5.731
 3700POPC   GL249322  14.581  21.331   5.724
 3700POPC   C1A49323  14.111  21.599   6.162
 3700POPC   D2A49324  14.047  21.714   6.624
 3700POPC   C3A49325  14.187  21.399   6.916
 3700POPC   C4A49326  14.433  21.294   7.275
 3700POPC   C1B49327  14.637  21.529   6.099
 3700POPC   C2B49328  14.498  21.476   6.512
 3700POPC   C3B49329  14.636  21.633   6.910
 3700POPC   C4B49330  14.757  21.893   7.296
 3701POPC   NC349331  34.421  40.364   5.350
 3701POPC   PO449332  34.845  40.891   5.330
 3701POPC   GL149333  34.582  40.846   5.750
 3701POPC   GL249334  34.363  40.554   5.812
 3701POPC   C1A49335  34.388  40.895   6.207
 3701POPC   D2A49336  34.444  41.040   6.643
 3701POPC   C3A49337  34.659  40.761   6.951
 3701POPC   C4A49338  34.547  40.796   7.368
 3701POPC   C1B49339  34.481  40.392   6.201
 3701POPC   C2B49340  34.346  40.484   6.629
 3701POPC   C3B49341  34.366  40.338   7.062
 3701POPC   C4B49342  34.439  40.333   7.523
 3702POPC   NC349343   2.696  18.430   5.342
 3702POPC   PO449344   2.506  17.838   5.600
 3702POPC   GL149345   2.792  18.141   5.774
 3702POPC   GL249346   2.537  18.396   5.828
 3702POPC   C1A49347   2.892  18.378   6.172
 3702POPC   D2A49348   2.630  18.401   6.532
 3702POPC   C3A49349   2.844  18.254   6.875
 3702POPC   C4A49350   2.903  18.344   7.300
 3702POPC   C1B49351   2.447  18.081   6.177
 3702POPC   C2B49352   2.544  17.903   6.613
 3702POPC   C3B49353   2.403  18.039   7.045
 3702POPC   C4B49354   2.471  18.076   7.511
 3703POPC   NC349355  23.125  19.921   5.082
 3703POPC   PO449356  22.802  19.401   5.429
 3703POPC   GL149357  22.880  19.535   5.897
 3703POPC   GL249358  23.152  19.769   5.861
 3703POPC   C1A49359  22.927  19.588   6.356
 3703POPC   D2A49360  23.207  19.771   6.635
 3703POPC   C3A49361  23.008  19.848   7.026
 3703POPC   C4A49362  22.746  19.549   7.265
 3703POPC   C1B49363  22.942  20.051   6.166
 3703POPC   C2B49364  22.808  20.111   6.611
 3703POPC   C3B49365  22.774  20.303   7.046
 3703POPC   C4B49366  22.816  20.114   7.434
 3704POPC   NC349367  25.993  17.276   5.414
 3704POPC   PO449368  26.380  17.744   5.591
 3704POPC   GL149369  26.005  17.543   5.854
 3704POPC   GL249370  25.866  17.167   5.879
 3704POPC   C1A49371  25.878  17.482   6.282
 3704POPC   D2A49372  26.060  17.658   6.602
 3704POPC   C3A49373  25.871  17.599   6.958
 3704POPC   C4A49374  26.131  17.744   7.284
 3704POPC   C1B49375  26.083  17.006   6.233
 3704POPC   C2B49376  26.061  17.132   6.657
 3704POPC   C3B49377  25.968  17.068   7.091
 3704POPC   C4B49378  26.197  17.143   7.495
 3705POPC   NC349379   6.854   1.851   5.468
 3705POPC   PO449380   6.474   2.394   5.593
 3705POPC   GL149381   6.662   2.142   5.839
 3705POPC   GL249382   7.006   2.227   5.802
 3705POPC   C1A49383   6.517   2.021   6.203
 3705POPC   D2A49384   6.607   2.118   6.605
 3705POPC   C3A49385   6.785   1.762   6.748
 3705POPC   C4A49386   6.968   1.631   7.120
 3705POPC   C1B49387   6.917   2.378   6.223
 3705POPC   C2B49388   7.089   2.430   6.613
 3705POPC   C3B49389   6.871   2.377   6.962
 3705POPC   C4B49390   6.939   2.111   7.273
 3706POPC   NC349391  31.767   4.086   5.587
 3706POPC   PO449392  32.355   4.440   5.328
 3706POPC   GL149393  32.248   4.240   5.728
 3706POPC   GL249394  32.444   4.461   5.918
 3706POPC   C1A49395  32.088   4.212   6.183
 3706POPC   D2A49396  32.318   4.313   6.543
 3706POPC   C3A49397  32.178   4.092   6.885
 3706POPC   C4A49398  32.040   4.248   7.286
 3706POPC   C1B49399  32.724   4.543   6.288
 3706POPC   C2B49400  32.725   4.535   6.776
 3706POPC   C3B49401  32.415   4.589   7.134
 3706POPC   C4B49402  32.365   4.473   7.606
 3707POPC   NC349403  19.642   2.803   5.441
 3707POPC   PO449404  19.806   2.218   5.476
 3707POPC   GL149405  19.768   2.490   5.845
 3707POPC   GL249406  19.968   2.840   5.827
 3707POPC   C1A49407  19.836   2.638   6.275
 3707POPC   D2A49408  19.636   2.925   6.519
 3707POPC   C3A49409  19.783   2.949   6.928
 3707POPC   C4A49410  19.865   2.733   7.296
 3707POPC   C1B49411  20.109   3.076   6.191
 3707POPC   C2B49412  20.255   2.954   6.605
 3707POPC   C3B49413  20.282   2.906   7.047
 3707POPC   C4B49414  20.035   3.224   7.303
 3708POPC   NC349415  32.823   3.384   5.414
 3708POPC   PO449416  33.132   4.027   5.433
 3708POPC   GL149417  33.024   3.761   5.760
 3708POPC   GL249418  33.074   3.391   5.843
 3708POPC   C1A49419  33.162   3.849   6.176
 3708POPC   D2A49420  33.149   3.660   6.577
 3708POPC   C3A49421  33.222   3.837   6.968
 3708POPC   C4A49422  32.941   3.833   7.344
 3708POPC   C1B49423  32.822   3.465   6.186
 3708POPC   C2B49424  32.813   3.252   6.573
 3708POPC   C3B49425  32.879   3.427   6.960
 3708POPC   C4B49426  32.697   3.231   7.291
 3709POPC   NC349427  39.604  44.103   5.573
 3709POPC   PO449428  40.115  43.842   5.213
 3709POPC   GL149429  40.147  43.807   5.704
 3709POPC   GL249430  39.824  43.748   5.857
 3709POPC   C1A49431  40.243  43.958   6.129
 3709POPC   D2A49432  40.426  43.955   6.543
 3709POPC   C3A49433  40.239  43.951   6.935
 3709POPC   C4A49434  40.465  43.801   7.257
 3709POPC   C1B49435  39.723  44.013   6.204
 3709POPC   C2B49436  39.731  44.147   6.606
 3709POPC   C3B49437  39.731  43.889   6.953
 3709POPC   C4B49438  39.713  43.706   7.331
 3710POPC   NC349439  23.189  33.458   5.106
 3710POPC   PO449440  22.895  33.980   5.397
 3710POPC   GL149441  22.776  33.857   5.787
 3710POPC   GL249442  23.074  33.993   5.948
 3710POPC   C1A49443  22.812  33.636   6.169
 3710POPC   D2A49444  23.108  33.617   6.500
 3710POPC   C3A49445  22.875  33.616   6.878
 3710POPC   C4A49446  23.008  33.550   7.263
 3710POPC   C1B49447  23.033  34.215   6.294
 3710POPC   C2B49448  22.878  34.073   6.663
 3710POPC   C3B49449  23.043  34.080   7.068
 3710POPC   C4B49450  23.091  34.348   7.432
 3711POPC   NC349451   1.977  13.398   5.377
 3711POPC   PO449452   2.064  13.982   5.665
 3711POPC   GL149453   1.917  13.570   5.858
 3711POPC   GL249454   2.138  13.257   5.880
 3711POPC   C1A49455   1.928  13.484   6.308
 3711POPC   D2A49456   2.052  13.784   6.644
 3711POPC   C3A49457   1.847  13.780   7.045
 3711POPC   C4A49458   1.954  13.703   7.490
 3711POPC   C1B49459   2.301  13.091   6.277
 3711POPC   C2B49460   2.324  13.326   6.660
 3711POPC   C3B49461   2.203  13.399   7.096
 3711POPC   C4B49462   2.350  13.389   7.521
 3712POPC   NC349463  33.382  44.363   5.484
 3712POPC   PO449464  33.080  44.953   5.404
 3712POPC   GL149465  33.070  44.689   5.761
 3712POPC   GL249466  33.405  44.770   5.874
 3712POPC   C1A49467  33.029  44.719   6.222
 3712POPC   D2A49468  33.188  44.582   6.608
 3712POPC   C3A49469  33.067  44.837   6.957
 3712POPC   C4A49470  32.929  44.791   7.378
 3712POPC   C1B49471  33.425  44.399   6.152
 3712POPC   C2B49472  33.623  44.281   6.544
 3712POPC   C3B49473  33.432  44.286   6.950
 3712POPC   C4B49474  33.312  44.467   7.351
 3713POPC   NC349475   5.461  10.524   5.456
 3713POPC   PO449476   4.819  10.352   5.338
 3713POPC   GL149477   4.990  10.610   5.690
 3713POPC   GL249478   5.066  10.300   5.821
 3713POPC   C1A49479   5.313  10.676   6.071
 3713POPC   D2A49480   5.373  10.445   6.475
 3713POPC   C3A49481   5.315  10.637   6.916
 3713POPC   C4A49482   5.114  10.683   7.353
 3713POPC   C1B49483   4.852  10.433   6.196
 3713POPC   C2B49484   4.884  10.415   6.650
 3713POPC   C3B49485   4.758  10.468   7.067
 3713POPC   C4B49486   4.722  10.250   7.454
 3714POPC   NC349487   9.378  23.691   5.451
 3714POPC   PO449488   9.952  23.901   5.015
 3714POPC   GL149489   9.875  23.709   5.496
 3714POPC   GL249490   9.897  23.965   5.741
 3714POPC   C1A49491   9.853  23.508   5.958
 3714POPC   D2A49492   9.652  23.450   6.396
 3714POPC   C3A49493   9.681  23.456   6.847
 3714POPC   C4A49494   9.443  23.562   7.251
 3714POPC   C1B49495   9.641  23.909   6.174
 3714POPC   C2B49496   9.540  23.973   6.614
 3714POPC   C3B49497   9.722  23.929   7.032
 3714POPC   C4B49498   9.836  23.863   7.460
 3715POPC   NC349499  44.534  15.051   5.292
 3715POPC   PO449500  44.876  15.572   5.359
 3715POPC   GL149501  44.768  15.291   5.706
 3715POPC   GL249502  44.495  15.527   5.735
 3715POPC   C1A49503  44.718  15.135   6.175
 3715POPC   D2A49504  44.813  14.998   6.644
 3715POPC   C3A49505  44.740  15.115   7.112
 3715POPC   C4A49506  44.682  14.877   7.531
 3715POPC   C1B49507  44.377  15.514   6.179
 3715POPC   C2B49508  44.455  15.369   6.610
 3715POPC   C3B49509  44.364  15.543   7.031
 3715POPC   C4B49510  44.235  15.650   7.447
 3716POPC   NC349511  29.722  31.791   5.378
 3716POPC   PO449512  30.186  31.311   5.356
 3716POPC   GL149513  30.071  31.465   5.761
 3716POPC   GL249514  29.954  31.154   5.891
 3716POPC   C1A49515  29.983  31.549   6.224
 3716POPC   D2A49516  30.115  31.397   6.595
 3716POPC   C3A49517  29.926  31.552   6.905
 3716POPC   C4A49518  29.860  31.261   7.231
 3716POPC   C1B49519  30.263  31.060   6.227
 3716POPC   C2B49520  30.410  30.947   6.663
 3716POPC   C3B49521  30.323  31.162   7.050
 3716POPC   C4B49522  30.272  31.178   7.512
 3717POPC   NC349523  21.816  23.937   5.267
 3717POPC   PO449524  22.174  23.423   5.454
 3717POPC   GL149525  21.888  23.631   5.754
 3717POPC   GL249526  21.865  24.000   5.797
 3717POPC   C1A49527  21.995  23.657   6.207
 3717POPC   D2A49528  22.296  23.897   6.483
 3717POPC   C3A49529  22.387  23.753   6.890
 3717POPC   C4A49530  22.571  23.993   7.212
 3717POPC   C1B49531  21.961  24.159   6.189
 3717POPC   C2B49532  21.755  24.226   6.581
 3717POPC   C3B49533  21.696  24.038   6.982
 3717POPC   C4B49534  21.930  23.673   7.114
 3718POPC   NC349535  23.638  27.624   5.176
 3718POPC   PO449536  24.093  27.211   5.461
 3718POPC   GL149537  23.710  27.447   5.795
 3718POPC   GL249538  23.433  27.696   5.870
 3718POPC   C1A49539  23.787  27.632   6.223
 3718POPC   D2A49540  23.877  27.836   6.611
 3718POPC   C3A49541  23.755  27.632   6.982
 3718POPC   C4A49542  23.654  27.304   7.267
 3718POPC   C1B49543  23.372  27.946   6.247
 3718POPC   C2B49544  23.367  27.859   6.698
 3718POPC   C3B49545  23.435  28.009   7.129
 3718POPC   C4B49546  23.450  27.898   7.575
 3719POPC   NC349547  43.813  41.799   5.286
 3719POPC   PO449548  44.423  41.649   5.554
 3719POPC   GL149549  44.072  41.608   5.792
 3719POPC   GL249550  43.983  41.963   5.747
 3719POPC   C1A49551  43.923  41.372   6.188
 3719POPC   D2A49552  44.181  41.302   6.598
 3719POPC   C3A49553  44.011  41.340   7.015
 3719POPC   C4A49554  43.580  41.330   7.121
 3719POPC   C1B49555  43.700  41.846   6.069
 3719POPC   C2B49556  43.778  41.771   6.494
 3719POPC   C3B49557  43.662  41.784   6.908
 3719POPC   C4B49558  43.849  41.747   7.293
 3720POPC   NC349559  28.531  10.140   5.441
 3720POPC   PO449560  28.018   9.668   5.419
 3720POPC   GL149561  28.264   9.596   5.823
 3720POPC   GL249562  28.587   9.725   5.755
 3720POPC   C1A49563  28.346   9.372   6.211
 3720POPC   D2A49564  28.218   9.560   6.584
 3720POPC   C3A49565  28.310   9.324   6.919
 3720POPC   C4A49566  28.359   9.555   7.236
 3720POPC   C1B49567  28.732  10.016   6.075
 3720POPC   C2B49568  28.773  10.068   6.531
 3720POPC   C3B49569  28.541   9.909   6.897
 3720POPC   C4B49570  28.753   9.873   7.293
 3721POPC   NC349571  38.443   6.094   5.000
 3721POPC   PO449572  38.438   5.733   5.560
 3721POPC   GL149573  38.435   6.026   5.899
 3721POPC   GL249574  38.765   6.084   6.065
 3721POPC   C1A49575  38.397   5.832   6.312
 3721POPC   D2A49576  38.363   5.503   6.605
 3721POPC   C3A49577  38.275   5.760   6.906
 3721POPC   C4A49578  38.244   6.016   7.232
 3721POPC   C1B49579  38.889   5.739   6.397
 3721POPC   C2B49580  38.812   5.591   6.830
 3721POPC   C3B49581  38.729   5.868   7.200
 3721POPC   C4B49582  38.861   6.006   7.629
 3722POPC   NC349583   8.968  19.452   5.443
 3722POPC   PO449584   9.240  18.891   5.336
 3722POPC   GL149585   9.080  18.924   5.763
 3722POPC   GL249586   8.871  19.225   5.893
 3722POPC   C1A49587   9.128  18.928   6.213
 3722POPC   D2A49588   8.980  19.198   6.513
 3722POPC   C3A49589   9.203  19.020   6.831
 3722POPC   C4A49590   8.989  18.875   7.134
 3722POPC   C1B49591   9.236  19.438   6.123
 3722POPC   C2B49592   9.295  19.598   6.555
 3722POPC   C3B49593   9.083  19.493   6.938
 3722POPC   C4B49594   9.155  19.314   7.305
 3723POPC   NC349595  37.831   9.274   5.395
 3723POPC   PO449596  37.355   8.766   5.343
 3723POPC   GL149597  37.664   8.824   5.682
 3723POPC   GL249598  37.572   9.170   5.810
 3723POPC   C1A49599  37.653   8.620   6.107
 3723POPC   D2A49600  37.890   8.612   6.507
 3723POPC   C3A49601  37.663   8.635   6.912
 3723POPC   C4A49602  37.824   8.757   7.344
 3723POPC   C1B49603  37.870   9.079   6.140
 3723POPC   C2B49604  38.035   9.105   6.582
 3723POPC   C3B49605  37.810   9.132   6.972
 3723POPC   C4B49606  37.719   9.320   7.380
 3724POPC   NC349607   8.253   4.713   5.692
 3724POPC   PO449608   8.405   4.117   5.490
 3724POPC   GL149609   8.297   4.093   5.867
 3724POPC   GL249610   7.948   3.983   5.783
 3724POPC   C1A49611   8.368   4.320   6.239
 3724POPC   D2A49612   8.105   4.527   6.525
 3724POPC   C3A49613   8.196   4.327   6.896
 3724POPC   C4A49614   8.301   4.473   7.307
 3724POPC   C1B49615   7.874   4.182   6.175
 3724POPC   C2B49616   7.775   4.130   6.596
 3724POPC   C3B49617   7.867   3.923   6.962
 3724POPC   C4B49618   8.154   3.980   7.265
 3725POPC   NC349619   4.059  24.301   5.395
 3725POPC   PO449620   4.529  24.773   5.407
 3725POPC   GL149621   4.363  24.527   5.764
 3725POPC   GL249622   4.076  24.723   5.841
 3725POPC   C1A49623   4.302  24.348   6.192
 3725POPC   D2A49624   4.442  24.537   6.593
 3725POPC   C3A49625   4.291  24.508   6.996
 3725POPC   C4A49626   4.313  24.292   7.353
 3725POPC   C1B49627   3.889  24.631   6.248
 3725POPC   C2B49628   3.876  24.485   6.689
 3725POPC   C3B49629   3.865  24.759   7.073
 3725POPC   C4B49630   3.915  24.670   7.506
 3726POPC   NC349631  19.502   1.075   5.497
 3726POPC   PO449632  19.742   1.594   5.211
 3726POPC   GL149633  19.945   1.375   5.613
 3726POPC   GL249634  19.718   1.339   5.879
 3726POPC   C1A49635  20.138   1.264   6.097
 3726POPC   D2A49636  19.921   1.320   6.520
 3726POPC   C3A49637  20.013   1.146   6.917
 3726POPC   C4A49638  20.128   0.894   7.263
 3726POPC   C1B49639  19.600   1.601   6.242
 3726POPC   C2B49640  19.683   1.786   6.616
 3726POPC   C3B49641  19.666   1.524   6.946
 3726POPC   C4B49642  19.695   1.292   7.297
 3727POPC   NC349643  40.597  10.380   5.481
 3727POPC   PO449644  41.131  10.716   5.262
 3727POPC   GL149645  40.895  10.730   5.699
 3727POPC   GL249646  40.932  10.358   5.867
 3727POPC   C1A49647  40.749  10.704   6.162
 3727POPC   D2A49648  40.943  10.386   6.473
 3727POPC   C3A49649  40.865  10.341   6.914
 3727POPC   C4A49650  40.803  10.723   7.134
 3727POPC   C1B49651  40.553  10.239   6.165
 3727POPC   C2B49652  40.511  10.036   6.578
 3727POPC   C3B49653  40.418  10.110   7.020
 3727POPC   C4B49654  40.610  10.297   7.382
 3728POPC   NC349655  25.857   8.235   5.625
 3728POPC   PO449656  25.225   7.935   5.455
 3728POPC   GL149657  25.384   8.032   5.880
 3728POPC   GL249658  25.440   8.380   5.874
 3728POPC   C1A49659  25.274   8.202   6.326
 3728POPC   D2A49660  25.099   8.390   6.700
 3728POPC   C3A49661  25.311   8.219   7.022
 3728POPC   C4A49662  25.339   7.788   7.138
 3728POPC   C1B49663  25.708   8.442   6.247
 3728POPC   C2B49664  25.650   8.402   6.685
 3728POPC   C3B49665  25.554   8.703   7.025
 3728POPC   C4B49666  25.509   8.741   7.482
 3729POPC   NC349667  17.675  10.074   5.552
 3729POPC   PO449668  17.577   9.471   5.306
 3729POPC   GL149669  17.355   9.723   5.730
 3729POPC   GL249670  17.196   9.559   6.008
 3729POPC   C1A49671  17.286  10.029   6.139
 3729POPC   D2A49672  17.227   9.940   6.612
 3729POPC   C3A49673  17.540  10.011   6.967
 3729POPC   C4A49674  17.542  10.042   7.428
 3729POPC   C1B49675  17.547   9.549   6.230
 3729POPC   C2B49676  17.491   9.441   6.637
 3729POPC   C3B49677  17.385   9.507   7.049
 3729POPC   C4B49678  17.753   9.576   7.275
 3730POPC   NC349679  26.597  31.483   5.319
 3730POPC   PO449680  27.119  31.149   5.682
 3730POPC   GL149681  26.909  31.438   5.956
 3730POPC   GL249682  26.573  31.535   5.823
 3730POPC   C1A49683  26.892  31.458   6.433
 3730POPC   D2A49684  27.049  31.322   6.858
 3730POPC   C3A49685  26.998  31.620   7.244
 3730POPC   C4A49686  26.994  32.049   7.447
 3730POPC   C1B49687  26.422  31.282   6.180
 3730POPC   C2B49688  26.388  31.440   6.611
 3730POPC   C3B49689  26.565  31.388   7.036
 3730POPC   C4B49690  26.851  31.128   7.304
 3731POPC   NC349691  36.456  34.202   5.554
 3731POPC   PO449692  35.852  34.067   5.741
 3731POPC   GL149693  36.263  33.860   5.933
 3731POPC   GL249694  36.361  33.496   5.854
 3731POPC   C1A49695  36.279  33.629   6.343
 3731POPC   D2A49696  36.082  33.772   6.730
 3731POPC   C3A49697  36.408  33.797   7.035
 3731POPC   C4A49698  36.496  34.137   7.300
 3731POPC   C1B49699  36.005  33.317   6.064
 3731POPC   C2B49700  35.985  33.113   6.469
 3731POPC   C3B49701  36.131  33.276   6.840
 3731POPC   C4B49702  35.991  33.520   7.184
 3732POPC   NC349703   3.195   1.659   5.495
 3732POPC   PO449704   2.643   1.943   5.180
 3732POPC   GL149705   2.681   1.832   5.650
 3732POPC   GL249706   2.682   1.462   5.616
 3732POPC   C1A49707   2.762   2.005   6.095
 3732POPC   D2A49708   2.961   2.196   6.454
 3732POPC   C3A49709   2.874   2.167   6.879
 3732POPC   C4A49710   2.701   2.024   7.247
 3732POPC   C1B49711   2.818   1.505   6.047
 3732POPC   C2B49712   2.988   1.669   6.434
 3732POPC   C3B49713   2.952   1.670   6.880
 3732POPC   C4B49714   3.067   1.694   7.316
 3733POPC   NC349715  28.087  25.517   5.575
 3733POPC   PO449716  28.307  24.963   5.387
 3733POPC   GL149717  28.342  24.865   5.815
 3733POPC   GL249718  28.309  25.236   5.934
 3733POPC   C1A49719  28.156  24.879   6.239
 3733POPC   D2A49720  28.293  25.228   6.491
 3733POPC   C3A49721  28.412  25.175   6.916
 3733POPC   C4A49722  28.460  24.883   7.256
 3733POPC   C1B49723  28.563  25.556   6.152
 3733POPC   C2B49724  28.725  25.518   6.568
 3733POPC   C3B49725  28.693  25.580   7.006
 3733POPC   C4B49726  28.456  25.548   7.386
 3734POPC   NC349727  44.875  43.491   5.481
 3734POPC   PO449728  44.600  44.065   5.131
 3734POPC   GL149729  44.714  43.981   5.595
 3734POPC   GL249730   0.059  43.922   5.724
 3734POPC   C1A49731  44.663  43.966   6.080
 3734POPC   D2A49732  44.445  44.013   6.504
 3734POPC   C3A49733  44.685  43.996   6.905
 3734POPC   C4A49734  44.621  43.685   7.222
 3734POPC   C1B49735   0.053  43.617   6.095
 3734POPC   C2B49736   0.018  43.768   6.515
 3734POPC   C3B49737   0.074  43.634   6.946
 3734POPC   C4B49738   0.119  43.879   7.314
 3735POPC   NC349739  17.756  42.211   5.267
 3735POPC   PO449740  17.209  42.579   5.231
 3735POPC   GL149741  17.383  42.404   5.632
 3735POPC   GL249742  17.743  42.413   5.737
 3735POPC   C1A49743  17.355  42.256   6.076
 3735POPC   D2A49744  17.351  42.089   6.502
 3735POPC   C3A49745  17.193  42.319   6.850
 3735POPC   C4A49746  17.197  42.391   7.284
 3735POPC   C1B49747  17.824  42.389   6.189
 3735POPC   C2B49748  17.854  42.151   6.583
 3735POPC   C3B49749  17.649  42.121   6.997
 3735POPC   C4B49750  17.732  42.401   7.352
 3736POPC   NC349751  10.108  32.781   5.334
 3736POPC   PO449752   9.875  33.412   5.323
 3736POPC   GL149753   9.922  33.122   5.703
 3736POPC   GL249754  10.151  33.344   5.876
 3736POPC   C1A49755   9.666  32.940   6.088
 3736POPC   D2A49756   9.660  33.052   6.567
 3736POPC   C3A49757   9.936  32.899   6.914
 3736POPC   C4A49758   9.820  32.920   7.366
 3736POPC   C1B49759   9.907  33.360   6.239
 3736POPC   C2B49760   9.929  33.496   6.670
 3736POPC   C3B49761   9.839  33.364   7.090
 3736POPC   C4B49762   9.804  33.397   7.559
 3737POPC   NC349763   8.776  11.758   5.593
 3737POPC   PO449764   9.102  11.298   5.194
 3737POPC   GL149765   8.845  11.251   5.646
 3737POPC   GL249766   8.510  11.064   5.662
 3737POPC   C1A49767   8.812  11.354   6.144
 3737POPC   D2A49768   8.913  11.620   6.562
 3737POPC   C3A49769   8.898  11.614   7.056
 3737POPC   C4A49770   9.088  11.460   7.463
 3737POPC   C1B49771   8.574  10.868   6.085
 3737POPC   C2B49772   8.778  10.979   6.506
 3737POPC   C3B49773   8.973  11.151   6.869
 3737POPC   C4B49774   8.888  11.019   7.313
 3738POPC   NC349775  15.487  30.968   5.396
 3738POPC   PO449776  15.202  30.308   5.559
 3738POPC   GL149777  15.361  30.620   5.833
 3738POPC   GL249778  15.114  30.873   5.841
 3738POPC   C1A49779  15.358  30.683   6.309
 3738POPC   D2A49780  15.316  30.369   6.677
 3738POPC   C3A49781  15.282  30.573   7.103
 3738POPC   C4A49782  15.277  30.891   7.475
 3738POPC   C1B49783  14.875  30.831   6.244
 3738POPC   C2B49784  14.938  30.723   6.698
 3738POPC   C3B49785  14.920  30.962   7.108
 3738POPC   C4B49786  14.797  31.006   7.566
 3739POPC   NC349787  24.793  24.328   5.368
 3739POPC   PO449788  24.239  24.746   5.450
 3739POPC   GL149789  24.448  24.552   5.847
 3739POPC   GL249790  24.581  24.198   5.807
 3739POPC   C1A49791  24.501  24.410   6.313
 3739POPC   D2A49792  24.453  24.233   6.754
 3739POPC   C3A49793  24.439  24.595   7.041
 3739POPC   C4A49794  24.757  24.828   7.275
 3739POPC   C1B49795  24.923  24.341   6.062
 3739POPC   C2B49796  24.966  24.657   6.403
 3739POPC   C3B49797  24.931  24.593   6.844
 3739POPC   C4B49798  24.864  24.327   7.180
 3740POPC   NC349799  23.547  15.409   5.467
 3740POPC   PO449800  23.682  16.097   5.476
 3740POPC   GL149801  23.799  15.910   5.840
 3740POPC   GL249802  23.929  15.586   5.897
 3740POPC   C1A49803  23.765  16.137   6.189
 3740POPC   D2A49804  23.940  16.188   6.567
 3740POPC   C3A49805  23.690  16.175   6.925
 3740POPC   C4A49806  23.772  16.228   7.361
 3740POPC   C1B49807  23.885  15.658   6.339
 3740POPC   C2B49808  23.884  15.719   6.798
 3740POPC   C3B49809  23.765  15.733   7.209
 3740POPC   C4B49810  23.347  15.621   7.394
 3741POPC   NC349811   9.526  21.111   5.356
 3741POPC   PO449812   9.919  20.503   5.407
 3741POPC   GL149813   9.846  20.760   5.801
 3741POPC   GL249814   9.488  20.852   5.813
 3741POPC   C1A49815   9.914  20.697   6.265
 3741POPC   D2A49816   9.757  20.518   6.662
 3741POPC   C3A49817   9.755  20.787   7.024
 3741POPC   C4A49818   9.707  20.535   7.364
 3741POPC   C1B49819   9.353  21.071   6.187
 3741POPC   C2B49820   9.462  20.955   6.602
 3741POPC   C3B49821   9.271  21.055   6.998
 3741POPC   C4B49822   9.568  21.236   7.252
 3742POPC   NC349823  34.799  43.235   5.441
 3742POPC   PO449824  34.279  42.936   5.331
 3742POPC   GL149825  34.422  43.005   5.725
 3742POPC   GL249826  34.157  42.909   5.893
 3742POPC   C1A49827  34.543  43.271   6.098
 3742POPC   D2A49828  34.737  43.161   6.523
 3742POPC   C3A49829  34.634  43.197   6.974
 3742POPC   C4A49830  34.936  43.039   7.280
 3742POPC   C1B49831  34.330  42.871   6.322
 3742POPC   C2B49832  34.186  43.016   6.736
 3742POPC   C3B49833  34.117  42.981   7.191
 3742POPC   C4B49834  34.161  42.842   7.655
 3743POPC   NC349835  40.159  39.775   5.397
 3743POPC   PO449836  39.878  40.436   5.353
 3743POPC   GL149837  39.932  40.099   5.705
 3743POPC   GL249838  39.636  39.919   5.757
 3743POPC   C1A49839  40.088  39.999   6.126
 3743POPC   D2A49840  40.261  40.148   6.546
 3743POPC   C3A49841  40.055  40.233   6.952
 3743POPC   C4A49842  40.211  39.967   7.315
 3743POPC   C1B49843  39.643  39.729   6.159
 3743POPC   C2B49844  39.816  39.856   6.558
 3743POPC   C3B49845  39.878  39.767   6.991
 3743POPC   C4B49846  39.694  40.044   7.313
 3744POPC   NC349847  24.426  28.010   5.236
 3744POPC   PO449848  24.705  28.580   5.471
 3744POPC   GL149849  24.550  28.372   5.828
 3744POPC   GL249850  24.189  28.349   5.776
 3744POPC   C1A49851  24.602  28.270   6.286
 3744POPC   D2A49852  24.782  28.186   6.715
 3744POPC   C3A49853  24.416  28.268   6.995
 3744POPC   C4A49854  24.280  28.169   7.416
 3744POPC   C1B49855  24.245  28.642   6.165
 3744POPC   C2B49856  24.407  28.687   6.633
 3744POPC   C3B49857  24.403  28.753   7.121
 3744POPC   C4B49858  24.065  28.644   7.459
 3745POPC   NC349859  43.785  20.909   4.831
 3745POPC   PO449860  44.005  21.281   5.412
 3745POPC   GL149861  44.029  21.532   5.767
 3745POPC   GL249862  44.090  21.254   5.930
 3745POPC   C1A49863  43.825  21.572   6.199
 3745POPC   D2A49864  43.919  21.648   6.647
 3745POPC   C3A49865  43.714  21.324   6.908
 3745POPC   C4A49866  43.484  21.313   7.312
 3745POPC   C1B49867  44.265  21.298   6.337
 3745POPC   C2B49868  44.386  21.357   6.752
 3745POPC   C3B49869  44.166  21.498   7.091
 3745POPC   C4B49870  43.991  21.170   7.301
 3746POPC   NC349871  22.466  31.236   5.419
 3746POPC   PO449872  22.320  31.864   5.642
 3746POPC   GL149873  22.157  31.465   5.836
 3746POPC   GL249874  22.382  31.183   5.919
 3746POPC   C1A49875  22.034  31.327   6.259
 3746POPC   D2A49876  22.036  31.378   6.693
 3746POPC   C3A49877  22.017  31.744   6.915
 3746POPC   C4A49878  21.965  31.647   7.321
 3746POPC   C1B49879  22.538  31.487   6.271
 3746POPC   C2B49880  22.486  31.615   6.735
 3746POPC   C3B49881  22.381  31.394   7.133
 3746POPC   C4B49882  22.341  31.115   7.501
 3747POPC   NC349883  34.647  36.057   5.403
 3747POPC   PO449884  34.714  36.764   5.224
 3747POPC   GL149885  34.605  36.591   5.761
 3747POPC   GL249886  34.622  36.229   5.908
 3747POPC   C1A49887  34.243  36.502   6.094
 3747POPC   D2A49888  34.142  36.160   6.396
 3747POPC   C3A49889  34.398  36.136   6.783
 3747POPC   C4A49890  34.305  36.210   7.208
 3747POPC   C1B49891  34.826  36.033   6.310
 3747POPC   C2B49892  34.854  35.860   6.758
 3747POPC   C3B49893  34.822  36.000   7.208
 3747POPC   C4B49894  34.839  35.837   7.643
 3748POPC   NC349895  39.818  11.616   5.406
 3748POPC   PO449896  40.270  11.152   5.478
 3748POPC   GL149897  39.975  11.274   5.802
 3748POPC   GL249898  39.891  10.957   5.972
 3748POPC   C1A49899  39.990  11.527   6.196
 3748POPC   D2A49900  40.198  11.421   6.602
 3748POPC   C3A49901  39.944  11.307   6.945
 3748POPC   C4A49902  39.889  11.491   7.351
 3748POPC   C1B49903  39.879  11.059   6.398
 3748POPC   C2B49904  39.586  10.997   6.723
 3748POPC   C3B49905  39.805  10.806   7.047
 3748POPC   C4B49906  39.970  10.957   7.409
 3749POPC   NC349907   8.799  39.595   5.455
 3749POPC   PO449908   9.360  39.288   5.229
 3749POPC   GL149909   9.161  39.281   5.649
 3749POPC   GL249910   9.231  39.622   5.782
 3749POPC   C1A49911   9.245  39.166   6.093
 3749POPC   D2A49912   9.014  38.996   6.459
 3749POPC   C3A49913   9.156  39.054   6.869
 3749POPC   C4A49914   8.913  39.362   7.128
 3749POPC   C1B49915   9.085  39.653   6.214
 3749POPC   C2B49916   9.014  39.531   6.641
 3749POPC   C3B49917   9.178  39.769   6.987
 3749POPC   C4B49918   9.238  39.688   7.414
 3750POPC   NC349919  19.269  15.627   5.550
 3750POPC   PO449920  19.943  15.660   5.420
 3750POPC   GL149921  19.694  15.856   5.770
 3750POPC   GL249922  19.599  16.210   5.768
 3750POPC   C1A49923  19.686  15.820   6.239
 3750POPC   D2A49924  19.984  15.985   6.613
 3750POPC   C3A49925  19.987  15.877   7.077
 3750POPC   C4A49926  19.635  15.656   7.271
 3750POPC   C1B49927  19.563  16.304   6.220
 3750POPC   C2B49928  19.485  16.123   6.607
 3750POPC   C3B49929  19.681  16.263   6.941
 3750POPC   C4B49930  19.582  16.305   7.312
 3751POPC   NC349931  11.389  30.885   5.386
 3751POPC   PO449932  10.879  30.463   5.200
 3751POPC   GL149933  11.260  30.457   5.611
 3751POPC   GL249934  11.649  30.380   5.675
 3751POPC   C1A49935  11.433  30.691   6.019
 3751POPC   D2A49936  11.274  30.714   6.452
 3751POPC   C3A49937  11.325  30.728   6.891
 3751POPC   C4A49938  11.125  30.596   7.313
 3751POPC   C1B49939  11.758  30.310   6.147
 3751POPC   C2B49940  11.637  30.336   6.604
 3751POPC   C3B49941  11.788  30.366   7.039
 3751POPC   C4B49942  11.629  30.735   7.283
 3752POPC   NC349943  19.713  21.600   5.452
 3752POPC   PO449944  19.820  20.956   5.547
 3752POPC   GL149945  19.770  21.266   5.846
 3752POPC   GL249946  20.038  21.559   5.859
 3752POPC   C1A49947  19.898  21.277   6.263
 3752POPC   D2A49948  20.010  21.488   6.632
 3752POPC   C3A49949  19.775  21.306   6.992
 3752POPC   C4A49950  19.686  21.147   7.433
 3752POPC   C1B49951  19.631  21.680   6.115
 3752POPC   C2B49952  19.502  21.623   6.537
 3752POPC   C3B49953  19.624  21.797   6.952
 3752POPC   C4B49954  19.465  21.597   7.293
 3753POPC   NC349955  42.580  12.785   5.413
 3753POPC   PO449956  41.881  12.916   5.392
 3753POPC   GL149957  42.172  12.819   5.728
 3753POPC   GL249958  42.209  13.155   5.752
 3753POPC   C1A49959  42.493  12.842   6.081
 3753POPC   D2A49960  42.553  13.071   6.474
 3753POPC   C3A49961  42.472  12.847   6.848
 3753POPC   C4A49962  42.499  12.942   7.269
 3753POPC   C1B49963  42.114  13.183   6.176
 3753POPC   C2B49964  42.045  13.058   6.607
 3753POPC   C3B49965  42.181  13.263   6.992
 3753POPC   C4B49966  42.150  13.263   7.464
 3754POPC   NC349967  39.569  27.644   5.596
 3754POPC   PO449968  38.905  27.825   5.353
 3754POPC   GL149969  38.851  27.679   5.793
 3754POPC   GL249970  39.135  27.512   5.822
 3754POPC   C1A49971  39.018  27.652   6.269
 3754POPC   D2A49972  39.288  27.698   6.637
 3754POPC   C3A49973  39.086  27.542   7.008
 3754POPC   C4A49974  38.950  27.547   7.446
 3754POPC   C1B49975  39.465  27.390   6.163
 3754POPC   C2B49976  39.705  27.339   6.537
 3754POPC   C3B49977  39.526  27.296   6.928
 3754POPC   C4B49978  39.451  27.424   7.363
 3755POPC   NC349979  14.387  26.317   5.473
 3755POPC   PO449980  14.557  26.948   5.165
 3755POPC   GL149981  14.536  26.834   5.606
 3755POPC   GL249982  14.663  26.537   5.820
 3755POPC   C1A49983  14.533  26.966   6.027
 3755POPC   D2A49984  14.499  26.996   6.485
 3755POPC   C3A49985  14.547  26.879   6.907
 3755POPC   C4A49986  14.392  26.990   7.308
 3755POPC   C1B49987  14.785  26.608   6.262
 3755POPC   C2B49988  14.692  26.461   6.661
 3755POPC   C3B49989  14.814  26.402   7.051
 3755POPC   C4B49990  14.758  26.654   7.336
 3756POPC   NC349991  44.186  25.767   5.267
 3756POPC   PO449992  43.719  26.198   5.369
 3756POPC   GL149993  43.970  26.033   5.652
 3756POPC   GL249994  43.771  25.745   5.672
 3756POPC   C1A49995  44.091  26.009   6.063
 3756POPC   D2A49996  43.935  25.912   6.477
 3756POPC   C3A49997  44.060  26.053   6.862
 3756POPC   C4A49998  43.860  26.066   7.262
 3756POPC   C1B49999  43.607  25.745   6.093
 3756POPC   C2B50000  43.505  25.652   6.528
 3756POPC   C3B50001  43.512  25.926   6.876
 3756POPC   C4B50002  43.448  25.691   7.237
 3757POPC   NC350003   8.466  15.256   5.357
 3757POPC   PO450004   9.105  15.038   5.325
 3757POPC   GL150005   9.065  15.152   5.751
 3757POPC   GL250006   8.722  15.151   5.797
 3757POPC   C1A50007   9.118  15.269   6.183
 3757POPC   D2A50008   8.837  15.090   6.514
 3757POPC   C3A50009   9.017  15.003   6.922
 3757POPC   C4A50010   9.186  15.225   7.271
 3757POPC   C1B50011   8.624  15.451   6.129
 3757POPC   C2B50012   8.521  15.545   6.560
 3757POPC   C3B50013   8.703  15.430   6.936
 3757POPC   C4B50014   8.662  15.163   7.286
 3758POPC   NC350015   4.216  36.560   5.405
 3758POPC   PO450016   3.760  36.232   5.503
 3758POPC   GL150017   4.082  36.340   5.869
 3758POPC   GL250018   4.461  36.424   5.853
 3758POPC   C1A50019   4.198  36.457   6.317
 3758POPC   D2A50020   4.365  36.559   6.734
 3758POPC   C3A50021   4.239  36.339   7.140
 3758POPC   C4A50022   4.067  35.937   7.354
 3758POPC   C1B50023   4.722  36.304   6.233
 3758POPC   C2B50024   4.854  36.438   6.660
 3758POPC   C3B50025   4.799  36.429   7.112
 3758POPC   C4B50026   4.637  36.468   7.545
 3759POPC   NC350027  26.444   3.606   5.477
 3759POPC   PO450028  25.864   3.240   5.440
 3759POPC   GL150029  26.005   3.515   5.767
 3759POPC   GL250030  26.280   3.355   5.890
 3759POPC   C1A50031  25.819   3.636   6.147
 3759POPC   D2A50032  25.908   3.307   6.466
 3759POPC   C3A50033  25.952   3.306   6.899
 3759POPC   C4A50034  25.967   3.160   7.329
 3759POPC   C1B50035  26.298   3.600   6.278
 3759POPC   C2B50036  26.103   3.756   6.680
 3759POPC   C3B50037  26.011   3.737   7.157
 3759POPC   C4B50038  26.209   3.579   7.527
 3760POPC   NC350039   4.948  33.760   5.511
 3760POPC   PO450040   5.576  33.751   5.459
 3760POPC   GL150041   5.375  33.736   5.903
 3760POPC   GL250042   5.103  34.000   5.941
 3760POPC   C1A50043   5.221  33.756   6.375
 3760POPC   D2A50044   5.038  33.992   6.756
 3760POPC   C3A50045   5.285  33.896   7.121
 3760POPC   C4A50046   5.436  33.504   7.192
 3760POPC   C1B50047   4.727  33.824   6.173
 3760POPC   C2B50048   4.721  33.587   6.566
 3760POPC   C3B50049   4.962  33.508   6.947
 3760POPC   C4B50050   4.899  33.631   7.364
 3761POPC   NC350051  20.084  32.814   5.160
 3761POPC   PO450052  19.747  33.321   5.469
 3761POPC   GL150053  19.944  33.117   5.816
 3761POPC   GL250054  19.612  33.138   5.980
 3761POPC   C1A50055  19.979  32.847   6.181
 3761POPC   D2A50056  19.887  32.903   6.570
 3761POPC   C3A50057  20.182  32.828   6.873
 3761POPC   C4A50058  20.080  32.907   7.283
 3761POPC   C1B50059  19.471  32.820   6.270
 3761POPC   C2B50060  19.466  32.642   6.707
 3761POPC   C3B50061  19.648  32.906   7.029
 3761POPC   C4B50062  19.495  33.347   7.102
 3762POPC   NC350063  44.510   6.901   5.659
 3762POPC   PO450064  44.258   6.252   5.365
 3762POPC   GL150065  44.145   6.485   5.734
 3762POPC   GL250066  44.210   6.189   5.905
 3762POPC   C1A50067  43.916   6.580   6.168
 3762POPC   D2A50068  43.646   6.571   6.585
 3762POPC   C3A50069  43.723   6.797   7.018
 3762POPC   C4A50070  43.900   6.680   7.439
 3762POPC   C1B50071  43.999   6.070   6.239
 3762POPC   C2B50072  44.068   6.274   6.627
 3762POPC   C3B50073  43.963   6.360   7.058
 3762POPC   C4B50074  43.932   6.150   7.461
 3763POPC   NC350075   2.389  44.016   5.539
 3763POPC   PO450076   1.819  44.248   5.288
 3763POPC   GL150077   1.877  43.988   5.740
 3763POPC   GL250078   2.110  43.682   5.842
 3763POPC   C1A50079   1.934  44.100   6.210
 3763POPC   D2A50080   1.840  44.303   6.619
 3763POPC   C3A50081   1.809  44.008   6.933
 3763POPC   C4A50082   2.091  44.001   7.267
 3763POPC   C1B50083   2.196  43.570   6.285
 3763POPC   C2B50084   2.198  43.749   6.720
 3763POPC   C3B50085   2.431  43.674   7.090
 3763POPC   C4B50086   2.523  43.279   7.256
 3764POPC   NC350087  17.808  39.317   5.440
 3764POPC   PO450088  17.347  38.705   5.444
 3764POPC   GL150089  17.274  38.922   5.835
 3764POPC   GL250090  17.441  39.216   5.783
 3764POPC   C1A50091  17.222  39.153   6.237
 3764POPC   D2A50092  17.057  39.416   6.562
 3764POPC   C3A50093  17.281  39.372   6.955
 3764POPC   C4A50094  17.467  38.958   7.106
 3764POPC   C1B50095  17.680  39.405   6.106
 3764POPC   C2B50096  17.624  39.366   6.534
 3764POPC   C3B50097  17.868  39.295   6.896
 3764POPC   C4B50098  17.698  39.379   7.283
 3765POPC   NC350099  41.115   1.388   5.239
 3765POPC   PO450100  40.670   0.906   5.506
 3765POPC   GL150101  40.786   0.997   5.913
 3765POPC   GL250102  41.127   0.853   5.942
 3765POPC   C1A50103  40.544   1.175   6.291
 3765POPC   D2A50104  40.323   1.150   6.697
 3765POPC   C3A50105  40.604   1.146   7.053
 3765POPC   C4A50106  40.639   1.423   7.396
 3765POPC   C1B50107  41.049   0.966   6.350
 3765POPC   C2B50108  40.946   1.284   6.662
 3765POPC   C3B50109  41.052   1.386   7.087
 3765POPC   C4B50110  41.001   1.072   7.433
 3766POPC   NC350111  22.014   4.737   5.704
 3766POPC   PO450112  21.850   4.088   5.567
 3766POPC   GL150113  22.142   4.213   5.857
 3766POPC   GL250114  22.478   4.294   5.695
 3766POPC   C1A50115  22.054   4.374   6.269
 3766POPC   D2A50116  22.054   4.177   6.662
 3766POPC   C3A50117  21.920   4.344   7.032
 3766POPC   C4A50118  21.576   4.558   7.114
 3766POPC   C1B50119  22.573   4.203   6.136
 3766POPC   C2B50120  22.480   4.467   6.508
 3766POPC   C3B50121  22.632   4.488   6.881
 3766POPC   C4B50122  22.369   4.547   7.195
 3767POPC   NC350123   7.702  26.462   5.517
 3767POPC   PO450124   7.233  26.968   5.256
 3767POPC   GL150125   7.212  26.794   5.741
 3767POPC   GL250126   7.135  27.142   5.798
 3767POPC   C1A50127   7.318  26.692   6.201
 3767POPC   D2A50128   7.468  27.025   6.525
 3767POPC   C3A50129   7.466  27.008   6.969
 3767POPC   C4A50130   7.658  26.685   7.223
 3767POPC   C1B50131   7.024  27.098   6.237
 3767POPC   C2B50132   7.006  27.224   6.664
 3767POPC   C3B50133   6.984  27.135   7.089
 3767POPC   C4B50134   6.913  27.018   7.520
 3768POPC   NC350135  41.153  13.758   5.478
 3768POPC   PO450136  40.499  13.759   5.715
 3768POPC   GL150137  40.882  13.689   5.916
 3768POPC   GL250138  40.938  13.345   5.778
 3768POPC   C1A50139  40.893  13.740   6.359
 3768POPC   D2A50140  40.707  13.423   6.642
 3768POPC   C3A50141  40.631  13.587   7.035
 3768POPC   C4A50142  40.812  13.953   7.190
 3768POPC   C1B50143  41.121  13.297   6.188
 3768POPC   C2B50144  41.229  13.440   6.597
 3768POPC   C3B50145  41.117  13.376   7.013
 3768POPC   C4B50146  40.895  13.386   7.424
 3769POPC   NC350147  21.652  39.816   5.369
 3769POPC   PO450148  22.316  39.918   5.336
 3769POPC   GL150149  22.144  40.089   5.721
 3769POPC   GL250150  22.400  40.337   5.832
 3769POPC   C1A50151  22.040  40.159   6.156
 3769POPC   D2A50152  22.122  40.331   6.557
 3769POPC   C3A50153  22.008  40.056   6.859
 3769POPC   C4A50154  22.061  40.153   7.249
 3769POPC   C1B50155  22.547  40.269   6.258
 3769POPC   C2B50156  22.453  39.944   6.590
 3769POPC   C3B50157  22.408  39.767   6.997
 3769POPC   C4B50158  22.639  39.445   7.156
 3770POPC   NC350159   8.028  10.981   5.418
 3770POPC   PO450160   8.340  11.556   5.550
 3770POPC   GL150161   8.010  11.370   5.766
 3770POPC   GL250162   8.065  11.046   5.916
 3770POPC   C1A50163   7.819  11.453   6.163
 3770POPC   D2A50164   7.808  11.711   6.544
 3770POPC   C3A50165   7.974  11.500   6.911
 3770POPC   C4A50166   8.139  11.593   7.301
 3770POPC   C1B50167   8.303  11.283   6.190
 3770POPC   C2B50168   8.352  11.260   6.602
 3770POPC   C3B50169   8.480  11.261   7.008
 3770POPC   C4B50170   8.356  10.971   7.284
 3771POPC   NC350171   6.992  34.727   5.491
 3771POPC   PO450172   6.284  34.454   5.540
 3771POPC   GL150173   6.634  34.552   5.834
 3771POPC   GL250174   6.924  34.334   5.824
 3771POPC   C1A50175   6.923  34.753   6.167
 3771POPC   D2A50176   7.158  34.706   6.570
 3771POPC   C3A50177   6.917  34.605   6.950
 3771POPC   C4A50178   6.566  34.819   7.167
 3771POPC   C1B50179   6.784  34.256   6.271
 3771POPC   C2B50180   6.717  34.158   6.715
 3771POPC   C3B50181   6.481  34.320   7.080
 3771POPC   C4B50182   6.737  34.401   7.404
 3772POPC   NC350183  44.120  30.256   5.266
 3772POPC   PO450184  43.773  30.883   5.323
 3772POPC   GL150185  43.752  30.821   5.743
 3772POPC   GL250186  43.447  30.977   5.710
 3772POPC   C1A50187  43.902  30.915   6.174
 3772POPC   D2A50188  43.980  30.673   6.559
 3772POPC   C3A50189  43.767  30.762   6.918
 3772POPC   C4A50190  43.784  30.625   7.312
 3772POPC   C1B50191  43.397  30.976   6.120
 3772POPC   C2B50192  43.433  30.767   6.509
 3772POPC   C3B50193  43.269  30.902   6.910
 3772POPC   C4B50194  43.498  31.031   7.283
 3773POPC   NC350195   3.744   9.430   5.272
 3773POPC   PO450196   4.077   8.908   5.577
 3773POPC   GL150197   3.709   9.018   5.829
 3773POPC   GL250198   4.010   9.062   6.080
 3773POPC   C1A50199   3.553   9.101   6.251
 3773POPC   D2A50200   3.774   9.070   6.620
 3773POPC   C3A50201   3.491   9.149   6.939
 3773POPC   C4A50202   3.311   8.873   7.200
 3773POPC   C1B50203   3.887   8.659   6.258
 3773POPC   C2B50204   3.684   8.505   6.627
 3773POPC   C3B50205   3.730   8.696   7.000
 3773POPC   C4B50206   3.725   8.673   7.440
 3774POPC   NC350207  23.884  18.519   5.473
 3774POPC   PO450208  23.654  17.939   5.093
 3774POPC   GL150209  23.659  18.012   5.625
 3774POPC   GL250210  23.520  18.337   5.798
 3774POPC   C1A50211  23.624  17.948   6.135
 3774POPC   D2A50212  23.428  18.045   6.576
 3774POPC   C3A50213  23.628  18.200   6.991
 3774POPC   C4A50214  23.878  18.081   7.368
 3774POPC   C1B50215  23.653  18.470   6.245
 3774POPC   C2B50216  23.619  18.620   6.719
 3774POPC   C3B50217  23.852  18.672   7.149
 3774POPC   C4B50218  23.809  18.529   7.593
 3775POPC   NC350219  25.993  28.050   5.475
 3775POPC   PO450220  26.419  27.569   5.322
 3775POPC   GL150221  26.186  27.518   5.723
 3775POPC   GL250222  26.050  27.802   5.913
 3775POPC   C1A50223  26.151  27.366   6.157
 3775POPC   D2A50224  26.002  27.131   6.488
 3775POPC   C3A50225  25.974  27.370   6.844
 3775POPC   C4A50226  26.195  27.391   7.212
 3775POPC   C1B50227  26.344  27.839   6.235
 3775POPC   C2B50228  26.296  27.712   6.643
 3775POPC   C3B50229  26.105  27.862   7.002
 3775POPC   C4B50230  25.827  27.736   7.317
 3776POPC   NC350231  24.390  39.727   5.522
 3776POPC   PO450232  24.966  39.931   5.213
 3776POPC   GL150233  24.699  40.088   5.697
 3776POPC   GL250234  24.435  40.320   5.775
 3776POPC   C1A50235  24.546  39.968   6.131
 3776POPC   D2A50236  24.571  40.104   6.537
 3776POPC   C3A50237  24.557  39.832   6.865
 3776POPC   C4A50238  24.293  39.842   7.232
 3776POPC   C1B50239  24.142  40.324   6.145
 3776POPC   C2B50240  24.174  40.437   6.555
 3776POPC   C3B50241  24.231  40.247   6.929
 3776POPC   C4B50242  24.422  40.363   7.325
 3777POPC   NC350243   1.915  44.782   5.105
 3777POPC   PO450244   1.649  44.741   5.652
 3777POPC   GL150245   1.941  44.584   5.946
 3777POPC   GL250246   2.218  44.373   5.874
 3777POPC   C1A50247   1.990  44.715   6.350
 3777POPC   D2A50248   1.880  44.979   6.638
 3777POPC   C3A50249   1.975  44.753   6.920
 3777POPC   C4A50250   1.775  44.464   7.118
 3777POPC   C1B50251   2.432  44.489   6.273
 3777POPC   C2B50252   2.337  44.402   6.725
 3777POPC   C3B50253   2.295  44.470   7.178
 3777POPC   C4B50254   2.344  44.687   7.592
 3778POPC   NC350255  42.295  35.204   5.431
 3778POPC   PO450256  42.443  35.760   5.746
 3778POPC   GL150257  42.360  35.407   5.926
 3778POPC   GL250258  42.630  35.153   5.833
 3778POPC   C1A50259  42.372  35.538   6.346
 3778POPC   D2A50260  42.292  35.345   6.688
 3778POPC   C3A50261  42.378  35.546   7.035
 3778POPC   C4A50262  42.208  35.419   7.421
 3778POPC   C1B50263  42.539  35.078   6.292
 3778POPC   C2B50264  42.486  34.868   6.694
 3778POPC   C3B50265  42.310  35.031   7.087
 3778POPC   C4B50266  41.873  35.060   7.159
 3779POPC   NC350267  15.167  26.220   5.252
 3779POPC   PO450268  15.551  25.741   5.358
 3779POPC   GL150269  15.364  26.028   5.678
 3779POPC   GL250270  14.976  26.083   5.689
 3779POPC   C1A50271  15.263  25.953   6.095
 3779POPC   D2A50272  15.184  25.752   6.476
 3779POPC   C3A50273  15.402  25.981   6.786
 3779POPC   C4A50274  15.227  26.111   7.174
 3779POPC   C1B50275  14.791  26.131   6.079
 3779POPC   C2B50276  14.662  26.015   6.442
 3779POPC   C3B50277  14.870  25.960   6.815
 3779POPC   C4B50278  14.771  25.914   7.236
 3780POPC   NC350279  30.704  18.968   5.279
 3780POPC   PO450280  30.965  19.591   5.405
 3780POPC   GL150281  30.842  19.246   5.756
 3780POPC   GL250282  30.793  18.861   5.773
 3780POPC   C1A50283  30.470  19.129   6.058
 3780POPC   D2A50284  30.239  19.208   6.447
 3780POPC   C3A50285  30.350  18.968   6.816
 3780POPC   C4A50286  30.359  19.167   7.232
 3780POPC   C1B50287  30.597  18.626   6.143
 3780POPC   C2B50288  30.433  18.515   6.570
 3780POPC   C3B50289  30.581  18.539   6.994
 3780POPC   C4B50290  30.618  18.751   7.400
 3781POPC   NC350291  16.003  31.725   4.821
 3781POPC   PO450292  15.775  31.361   5.388
 3781POPC   GL150293  15.805  31.248   5.858
 3781POPC   GL250294  15.558  31.072   6.006
 3781POPC   C1A50295  15.963  31.367   6.304
 3781POPC   D2A50296  16.222  31.481   6.687
 3781POPC   C3A50297  16.140  31.620   7.120
 3781POPC   C4A50298  16.176  31.595   7.587
 3781POPC   C1B50299  15.569  31.130   6.506
 3781POPC   C2B50300  15.710  31.415   6.854
 3781POPC   C3B50301  15.707  31.422   7.318
 3781POPC   C4B50302  15.607  31.233   7.749
 3782POPC   NC350303  27.504  33.034   5.279
 3782POPC   PO450304  28.045  32.845   5.640
 3782POPC   GL150305  27.743  33.168   5.805
 3782POPC   GL250306  27.358  33.147   5.759
 3782POPC   C1A50307  27.625  33.084   6.252
 3782POPC   D2A50308  27.754  32.835   6.628
 3782POPC   C3A50309  27.893  33.152   6.873
 3782POPC   C4A50310  27.860  33.286   7.268
 3782POPC   C1B50311  27.234  32.794   6.055
 3782POPC   C2B50312  27.255  32.750   6.521
 3782POPC   C3B50313  27.360  33.126   6.823
 3782POPC   C4B50314  27.341  33.266   7.260
 3783POPC   NC350315  33.923  27.693   4.995
 3783POPC   PO450316  33.557  27.303   5.394
 3783POPC   GL150317  33.759  27.548   5.781
 3783POPC   GL250318  34.098  27.663   5.682
 3783POPC   C1A50319  33.708  27.586   6.264
 3783POPC   D2A50320  33.725  27.285   6.639
 3783POPC   C3A50321  33.822  27.461   7.057
 3783POPC   C4A50322  33.668  27.910   7.080
 3783POPC   C1B50323  34.215  27.752   6.111
 3783POPC   C2B50324  34.158  27.688   6.573
 3783POPC   C3B50325  34.194  27.810   7.034
 3783POPC   C4B50326  34.289  27.552   7.394
 3784POPC   NC350327   3.523  14.987   5.142
 3784POPC   PO450328   3.719  15.527   5.383
 3784POPC   GL150329   3.493  15.293   5.724
 3784POPC   GL250330   3.424  14.935   5.679
 3784POPC   C1A50331   3.497  15.376   6.193
 3784POPC   D2A50332   3.744  15.479   6.592
 3784POPC   C3A50333   3.578  15.384   7.023
 3784POPC   C4A50334   3.329  15.419   7.443
 3784POPC   C1B50335   3.495  14.844   6.111
 3784POPC   C2B50336   3.552  14.971   6.550
 3784POPC   C3B50337   3.481  14.878   6.989
 3784POPC   C4B50338   3.595  15.024   7.397
 3785POPC   NC350339  33.004   9.106   4.983
 3785POPC   PO450340  33.180   8.925   5.605
 3785POPC   GL150341  32.973   8.867   5.936
 3785POPC   GL250342  32.671   8.656   5.903
 3785POPC   C1A50343  32.824   9.066   6.292
 3785POPC   D2A50344  32.929   9.322   6.602
 3785POPC   C3A50345  33.052   9.072   6.901
 3785POPC   C4A50346  33.122   9.241   7.272
 3785POPC   C1B50347  32.909   8.550   6.315
 3785POPC   C2B50348  32.824   8.507   6.751
 3785POPC   C3B50349  32.900   8.612   7.157
 3785POPC   C4B50350  33.314   8.790   7.261
 3786POPC   NC350351  24.453  36.837   5.251
 3786POPC   PO450352  24.745  37.411   5.169
 3786POPC   GL150353  24.659  37.076   5.635
 3786POPC   GL250354  24.450  36.761   5.779
 3786POPC   C1A50355  24.755  37.022   6.121
 3786POPC   D2A50356  24.676  36.735   6.498
 3786POPC   C3A50357  24.723  36.929   6.919
 3786POPC   C4A50358  24.587  37.007   7.367
 3786POPC   C1B50359  24.237  36.910   6.213
 3786POPC   C2B50360  24.199  36.885   6.710
 3786POPC   C3B50361  24.111  36.980   7.178
 3786POPC   C4B50362  24.088  37.055   7.648
 3787POPC   NC350363  39.219   4.065   5.683
 3787POPC   PO450364  39.449   4.418   5.226
 3787POPC   GL150365  39.434   4.526   5.765
 3787POPC   GL250366  39.674   4.386   6.030
 3787POPC   C1A50367  39.222   4.420   6.246
 3787POPC   D2A50368  38.935   4.302   6.653
 3787POPC   C3A50369  39.030   3.921   6.930
 3787POPC   C4A50370  39.301   3.676   7.245
 3787POPC   C1B50371  39.596   4.761   6.346
 3787POPC   C2B50372  39.649   4.871   6.835
 3787POPC   C3B50373  39.621   4.579   7.182
 3787POPC   C4B50374  39.310   4.243   7.229
 3788POPC   NC350375  23.048  24.327   5.397
 3788POPC   PO450376  22.652  24.804   5.613
 3788POPC   GL150377  22.852  24.588   5.919
 3788POPC   GL250378  23.229  24.522   5.838
 3788POPC   C1A50379  22.740  24.652   6.345
 3788POPC   D2A50380  22.675  24.330   6.660
 3788POPC   C3A50381  22.642  24.517   7.042
 3788POPC   C4A50382  22.724  24.400   7.443
 3788POPC   C1B50383  23.248  24.630   6.279
 3788POPC   C2B50384  23.080  24.711   6.718
 3788POPC   C3B50385  23.141  24.649   7.154
 3788POPC   C4B50386  23.479  24.782   7.402
 3789POPC   NC350387   3.571   1.019   5.410
 3789POPC   PO450388   3.775   1.595   5.461
 3789POPC   GL150389   3.791   1.294   5.820
 3789POPC   GL250390   3.449   1.135   5.889
 3789POPC   C1A50391   3.832   1.232   6.280
 3789POPC   D2A50392   3.861   1.456   6.696
 3789POPC   C3A50393   3.820   1.166   7.051
 3789POPC   C4A50394   3.538   0.845   7.199
 3789POPC   C1B50395   3.385   1.461   6.177
 3789POPC   C2B50396   3.340   1.322   6.618
 3789POPC   C3B50397   3.424   1.479   7.020
 3789POPC   C4B50398   3.389   1.292   7.376
 3790POPC   NC350399  13.919   7.195   5.347
 3790POPC   PO450400  13.533   7.788   5.337
 3790POPC   GL150401  13.777   7.591   5.773
 3790POPC   GL250402  13.556   7.690   6.063
 3790POPC   C1A50403  13.725   7.254   6.174
 3790POPC   D2A50404  13.799   7.340   6.611
 3790POPC   C3A50405  13.720   7.235   7.017
 3790POPC   C4A50406  13.555   7.445   7.317
 3790POPC   C1B50407  13.495   7.744   6.486
 3790POPC   C2B50408  13.319   7.572   6.863
 3790POPC   C3B50409  13.065   7.488   7.225
 3790POPC   C4B50410  13.174   7.532   7.646
 3791POPC   NC350411  23.171  12.749   5.358
 3791POPC   PO450412  22.551  12.419   5.554
 3791POPC   GL150413  22.713  12.469   5.944
 3791POPC   GL250414  22.927  12.766   5.930
 3791POPC   C1A50415  22.611  12.694   6.320
 3791POPC   D2A50416  22.951  12.812   6.602
 3791POPC   C3A50417  22.934  12.688   7.036
 3791POPC   C4A50418  22.812  12.582   7.441
 3791POPC   C1B50419  22.806  13.147   6.203
 3791POPC   C2B50420  22.684  13.275   6.598
 3791POPC   C3B50421  22.823  13.172   6.980
 3791POPC   C4B50422  22.843  13.092   7.400
 3792POPC   NC350423  36.297  20.115   5.411
 3792POPC   PO450424  36.219  19.404   5.338
 3792POPC   GL150425  36.178  19.696   5.657
 3792POPC   GL250426  35.851  19.668   5.767
 3792POPC   C1A50427  36.315  19.784   6.083
 3792POPC   D2A50428  36.133  19.964   6.486
 3792POPC   C3A50429  36.235  19.715   6.893
 3792POPC   C4A50430  36.155  19.699   7.371
 3792POPC   C1B50431  35.695  19.786   6.181
 3792POPC   C2B50432  35.687  19.678   6.636
 3792POPC   C3B50433  35.751  19.825   7.074
 3792POPC   C4B50434  35.662  19.624   7.484
 3793POPC   NC350435   9.300  38.113   5.396
 3793POPC   PO450436   9.804  37.644   5.366
 3793POPC   GL150437   9.621  37.599   5.782
 3793POPC   GL250438   9.502  37.947   5.843
 3793POPC   C1A50439   9.815  37.444   6.181
 3793POPC   D2A50440   9.810  37.518   6.617
 3793POPC   C3A50441   9.865  37.360   6.983
 3793POPC   C4A50442   9.564  37.529   7.254
 3793POPC   C1B50443   9.788  37.964   6.196
 3793POPC   C2B50444  10.013  37.994   6.607
 3793POPC   C3B50445   9.879  37.872   7.004
 3793POPC   C4B50446   9.499  38.069   7.167
 3794POPC   NC350447   4.741  15.838   5.633
 3794POPC   PO450448   5.403  15.777   5.689
 3794POPC   GL150449   5.156  15.988   5.926
 3794POPC   GL250450   5.029  16.285   5.775
 3794POPC   C1A50451   5.057  15.869   6.307
 3794POPC   D2A50452   5.123  16.132   6.620
 3794POPC   C3A50453   5.136  15.923   6.987
 3794POPC   C4A50454   5.125  16.070   7.371
 3794POPC   C1B50455   4.764  16.265   6.175
 3794POPC   C2B50456   4.644  16.402   6.583
 3794POPC   C3B50457   4.771  16.276   6.987
 3794POPC   C4B50458   4.626  16.159   7.394
 3795POPC   NC350459  36.524  34.911   5.260
 3795POPC   PO450460  36.897  34.373   5.515
 3795POPC   GL150461  36.846  34.285   5.924
 3795POPC   GL250462  36.538  34.307   6.050
 3795POPC   C1A50463  37.139  34.276   6.246
 3795POPC   D2A50464  37.274  34.631   6.486
 3795POPC   C3A50465  37.128  34.556   6.872
 3795POPC   C4A50466  37.172  34.637   7.289
 3795POPC   C1B50467  36.719  34.582   6.370
 3795POPC   C2B50468  36.640  34.757   6.788
 3795POPC   C3B50469  36.646  34.644   7.229
 3795POPC   C4B50470  36.472  34.704   7.671
 3796POPC   NC350471  10.490  30.947   5.397
 3796POPC   PO450472  10.760  30.397   5.697
 3796POPC   GL150473  10.394  30.604   5.780
 3796POPC   GL250474  10.227  30.288   5.814
 3796POPC   C1A50475  10.413  30.917   6.129
 3796POPC   D2A50476  10.247  30.763   6.536
 3796POPC   C3A50477  10.372  30.908   6.916
 3796POPC   C4A50478  10.642  30.793   7.252
 3796POPC   C1B50479  10.007  30.317   6.213
 3796POPC   C2B50480   9.935  30.360   6.653
 3796POPC   C3B50481  10.270  30.407   6.946
 3796POPC   C4B50482  10.247  30.487   7.391
 3797POPC   NC350483  41.777  20.650   5.315
 3797POPC   PO450484  42.214  20.958   5.555
 3797POPC   GL150485  41.934  20.672   5.840
 3797POPC   GL250486  42.247  20.636   6.027
 3797POPC   C1A50487  41.669  20.596   6.292
 3797POPC   D2A50488  41.443  20.472   6.743
 3797POPC   C3A50489  41.446  20.534   7.228
 3797POPC   C4A50490  41.440  20.271   7.605
 3797POPC   C1B50491  42.009  20.974   6.226
 3797POPC   C2B50492  41.839  20.971   6.628
 3797POPC   C3B50493  41.870  20.694   6.996
 3797POPC   C4B50494  41.836  20.819   7.439
 3798POPC   NC350495  37.798  24.680   5.400
 3798POPC   PO450496  37.321  24.234   5.562
 3798POPC   GL150497  37.625  24.454   5.818
 3798POPC   GL250498  37.657  24.824   5.861
 3798POPC   C1A50499  37.815  24.361   6.187
 3798POPC   D2A50500  37.474  24.391   6.500
 3798POPC   C3A50501  37.563  24.409   6.934
 3798POPC   C4A50502  37.884  24.259   7.209
 3798POPC   C1B50503  37.857  24.856   6.272
 3798POPC   C2B50504  37.845  24.796   6.713
 3798POPC   C3B50505  37.835  24.797   7.158
 3798POPC   C4B50506  37.579  24.558   7.454
 3799POPC   NC350507  25.816  15.623   5.620
 3799POPC   PO450508  26.020  16.093   5.171
 3799POPC   GL150509  26.010  16.121   5.633
 3799POPC   GL250510  26.281  15.861   5.751
 3799POPC   C1A50511  25.906  16.121   6.101
 3799POPC   D2A50512  26.109  16.085   6.543
 3799POPC   C3A50513  25.923  16.114   6.975
 3799POPC   C4A50514  26.149  16.138   7.376
 3799POPC   C1B50515  26.469  15.580   6.095
 3799POPC   C2B50516  26.428  15.620   6.550
 3799POPC   C3B50517  26.162  15.670   6.904
 3799POPC   C4B50518  26.270  15.653   7.334
 3800POPC   NC350519  43.561  17.139   5.568
 3800POPC   PO450520  42.902  17.081   5.666
 3800POPC   GL150521  43.240  17.264   5.977
 3800POPC   GL250522  43.419  17.591   5.896
 3800POPC   C1A50523  43.394  17.295   6.423
 3800POPC   D2A50524  43.487  17.203   6.855
 3800POPC   C3A50525  43.291  17.523   7.126
 3800POPC   C4A50526  43.289  17.862   7.441
 3800POPC   C1B50527  43.277  17.789   6.310
 3800POPC   C2B50528  43.101  17.836   6.754
 3800POPC   C3B50529  42.856  17.841   7.163
 3800POPC   C4B50530  42.815  17.949   7.612
 3801POPC   NC350531   2.037  17.826   5.642
 3801POPC   PO450532   1.739  17.347   5.187
 3801POPC   GL150533   1.906  17.316   5.696
 3801POPC   GL250534   1.816  17.531   6.011
 3801POPC   C1A50535   2.116  17.153   6.120
 3801POPC   D2A50536   1.955  17.248   6.515
 3801POPC   C3A50537   2.209  17.179   6.907
 3801POPC   C4A50538   2.022  17.185   7.338
 3801POPC   C1B50539   2.059  17.752   6.352
 3801POPC   C2B50540   2.123  17.667   6.782
 3801POPC   C3B50541   1.787  17.446   6.950
 3801POPC   C4B50542   1.691  17.709   7.191
 3802POPC   NC350543   8.189  42.505   5.284
 3802POPC   PO450544   8.498  41.965   5.536
 3802POPC   GL150545   8.312  42.311   5.774
 3802POPC   GL250546   7.944  42.312   5.790
 3802POPC   C1A50547   8.450  42.515   6.183
 3802POPC   D2A50548   8.282  42.543   6.622
 3802POPC   C3A50549   8.320  42.383   7.080
 3802POPC   C4A50550   7.927  42.469   7.333
 3802POPC   C1B50551   7.971  42.331   6.232
 3802POPC   C2B50552   8.004  42.077   6.588
 3802POPC   C3B50553   7.915  42.081   7.001
 3802POPC   C4B50554   8.109  41.976   7.400
 3803POPC   NC350555  11.426   0.855   5.626
 3803POPC   PO450556  11.077   1.402   5.330
 3803POPC   GL150557  11.281   1.443   5.685
 3803POPC   GL250558  11.638   1.319   5.651
 3803POPC   C1A50559  11.084   1.443   6.087
 3803POPC   D2A50560  11.205   1.153   6.402
 3803POPC   C3A50561  11.159   1.199   6.839
 3803POPC   C4A50562  11.105   1.066   7.255
 3803POPC   C1B50563  11.852   1.228   6.062
 3803POPC   C2B50564  11.698   1.229   6.480
 3803POPC   C3B50565  11.656   1.110   6.879
 3803POPC   C4B50566  11.535   0.776   7.116
 3804POPC   NC350567  14.695   2.566   5.357
 3804POPC   PO450568  14.013   2.686   5.246
 3804POPC   GL150569  14.279   2.809   5.600
 3804POPC   GL250570  14.031   2.793   5.849
 3804POPC   C1A50571  14.502   2.819   6.030
 3804POPC   D2A50572  14.711   2.744   6.419
 3804POPC   C3A50573  14.582   2.885   6.819
 3804POPC   C4A50574  14.716   3.066   7.185
 3804POPC   C1B50575  14.041   2.545   6.224
 3804POPC   C2B50576  13.799   2.490   6.593
 3804POPC   C3B50577  13.881   2.670   7.001
 3804POPC   C4B50578  14.222   2.907   7.179
 3805POPC   NC350579  37.553  30.515   5.388
 3805POPC   PO450580  37.730  31.155   5.337
 3805POPC   GL150581  37.838  30.848   5.652
 3805POPC   GL250582  37.989  30.536   5.718
 3805POPC   C1A50583  37.658  30.735   6.067
 3805POPC   D2A50584  37.846  30.632   6.469
 3805POPC   C3A50585  37.646  30.817   6.827
 3805POPC   C4A50586  37.445  30.556   7.121
 3805POPC   C1B50587  38.171  30.763   6.070
 3805POPC   C2B50588  38.133  31.054   6.424
 3805POPC   C3B50589  38.147  30.937   6.866
 3805POPC   C4B50590  37.925  30.717   7.235
 3806POPC   NC350591  35.312   1.568   5.345
 3806POPC   PO450592  35.142   0.987   5.574
 3806POPC   GL150593  35.351   1.276   5.835
 3806POPC   GL250594  35.645   1.455   5.792
 3806POPC   C1A50595  35.241   1.323   6.266
 3806POPC   D2A50596  35.034   0.943   6.466
 3806POPC   C3A50597  35.142   0.836   6.900
 3806POPC   C4A50598  35.360   1.063   7.226
 3806POPC   C1B50599  35.687   1.623   6.207
 3806POPC   C2B50600  35.588   1.498   6.637
 3806POPC   C3B50601  35.395   1.544   7.043
 3806POPC   C4B50602  35.671   1.446   7.402
 3807POPC   NC350603  37.631  40.229   5.551
 3807POPC   PO450604  38.089  39.558   5.478
 3807POPC   GL150605  37.823  39.825   5.829
 3807POPC   GL250606  37.912  40.217   5.968
 3807POPC   C1A50607  37.669  39.889   6.253
 3807POPC   D2A50608  37.878  40.181   6.541
 3807POPC   C3A50609  37.804  40.060   6.955
 3807POPC   C4A50610  37.538  39.754   7.122
 3807POPC   C1B50611  37.519  40.388   6.228
 3807POPC   C2B50612  37.361  40.236   6.671
 3807POPC   C3B50613  37.353  40.244   7.137
 3807POPC   C4B50614  37.630  40.321   7.512
 3808POPC   NC350615  18.123   2.088   5.497
 3808POPC   PO450616  18.486   1.587   5.806
 3808POPC   GL150617  18.340   1.958   5.942
 3808POPC   GL250618  18.504   2.247   5.817
 3808POPC   C1A50619  17.972   2.076   6.186
 3808POPC   D2A50620  17.862   1.924   6.590
 3808POPC   C3A50621  18.189   1.947   6.891
 3808POPC   C4A50622  18.113   1.971   7.309
 3808POPC   C1B50623  18.410   2.353   6.254
 3808POPC   C2B50624  18.096   2.398   6.603
 3808POPC   C3B50625  18.182   2.433   7.060
 3808POPC   C4B50626  18.561   2.231   7.190
 3809POPC   NC350627  16.995  39.860   5.422
 3809POPC   PO450628  16.513  40.222   5.164
 3809POPC   GL150629  16.531  40.097   5.683
 3809POPC   GL250630  16.794  39.889   5.868
 3809POPC   C1A50631  16.413  39.994   6.166
 3809POPC   D2A50632  16.508  40.172   6.600
 3809POPC   C3A50633  16.464  39.980   7.019
 3809POPC   C4A50634  16.609  40.038   7.460
 3809POPC   C1B50635  16.921  40.012   6.301
 3809POPC   C2B50636  16.892  39.863   6.717
 3809POPC   C3B50637  16.908  39.765   7.132
 3809POPC   C4B50638  16.999  39.759   7.595
 3810POPC   NC350639  28.148  43.992   5.474
 3810POPC   PO450640  28.548  43.622   5.180
 3810POPC   GL150641  28.371  43.569   5.635
 3810POPC   GL250642  28.651  43.561   5.844
 3810POPC   C1A50643  28.196  43.712   6.092
 3810POPC   D2A50644  28.359  43.955   6.490
 3810POPC   C3A50645  28.132  43.986   6.881
 3810POPC   C4A50646  27.990  43.691   7.174
 3810POPC   C1B50647  28.609  43.509   6.295
 3810POPC   C2B50648  28.793  43.688   6.652
 3810POPC   C3B50649  28.580  43.754   7.004
 3810POPC   C4B50650  28.658  43.945   7.376
 3811POPC   NC350651  20.971  32.597   5.399
 3811POPC   PO450652  21.524  32.201   5.447
 3811POPC   GL150653  21.396  32.268   5.843
 3811POPC   GL250654  21.306  32.592   5.789
 3811POPC   C1A50655  21.175  32.080   6.189
 3811POPC   D2A50656  21.223  32.187   6.604
 3811POPC   C3A50657  21.288  31.887   6.864
 3811POPC   C4A50658  21.480  31.958   7.228
 3811POPC   C1B50659  21.238  32.580   6.236
 3811POPC   C2B50660  21.489  32.618   6.597
 3811POPC   C3B50661  21.397  32.511   6.997
 3811POPC   C4B50662  21.441  32.501   7.426
 3812POPC   NC350663  10.249  35.988   5.427
 3812POPC   PO450664  10.871  36.297   5.339
 3812POPC   GL150665  10.655  36.114   5.726
 3812POPC   GL250666  10.917  36.134   5.895
 3812POPC   C1A50667  10.526  36.172   6.222
 3812POPC   D2A50668  10.547  36.080   6.693
 3812POPC   C3A50669  10.371  36.353   7.031
 3812POPC   C4A50670  10.338  36.294   7.490
 3812POPC   C1B50671  10.840  35.776   6.174
 3812POPC   C2B50672  10.827  35.627   6.566
 3812POPC   C3B50673  10.934  35.823   6.919
 3812POPC   C4B50674  10.672  35.975   7.230
 3813POPC   NC350675  34.367  30.573   5.398
 3813POPC   PO450676  34.893  30.861   5.393
 3813POPC   GL150677  34.711  30.808   5.785
 3813POPC   GL250678  34.423  31.008   5.733
 3813POPC   C1A50679  34.646  30.595   6.193
 3813POPC   D2A50680  34.826  30.481   6.596
 3813POPC   C3A50681  34.638  30.694   6.944
 3813POPC   C4A50682  34.297  30.540   7.176
 3813POPC   C1B50683  34.279  30.964   6.164
 3813POPC   C2B50684  34.302  30.796   6.569
 3813POPC   C3B50685  34.236  31.027   6.934
 3813POPC   C4B50686  34.219  31.382   7.196
 3814POPC   NC350687  43.691   8.322   5.407
 3814POPC   PO450688  44.205   8.021   5.154
 3814POPC   GL150689  44.121   8.167   5.625
 3814POPC   GL250690  44.292   8.445   5.800
 3814POPC   C1A50691  43.879   8.029   6.014
 3814POPC   D2A50692  43.907   8.040   6.492
 3814POPC   C3A50693  43.700   8.386   6.745
 3814POPC   C4A50694  43.635   8.370   7.192
 3814POPC   C1B50695  44.109   8.447   6.191
 3814POPC   C2B50696  44.200   8.473   6.617
 3814POPC   C3B50697  44.141   8.220   6.972
 3814POPC   C4B50698  44.428   8.199   7.283
 3815POPC   NC350699   3.524  28.169   5.275
 3815POPC   PO450700   3.969  28.630   5.503
 3815POPC   GL150701   3.533  28.405   5.730
 3815POPC   GL250702   3.230  28.619   5.839
 3815POPC   C1A50703   3.474  28.026   5.993
 3815POPC   D2A50704   3.588  27.998   6.426
 3815POPC   C3A50705   3.522  28.126   6.842
 3815POPC   C4A50706   3.691  28.143   7.216
 3815POPC   C1B50707   3.461  28.672   6.208
 3815POPC   C2B50708   3.345  28.522   6.605
 3815POPC   C3B50709   3.460  28.644   7.016
 3815POPC   C4B50710   3.592  28.581   7.432
 3816POPC   NC350711   7.764  37.124   5.547
 3816POPC   PO450712   7.570  36.520   5.188
 3816POPC   GL150713   7.383  36.783   5.614
 3816POPC   GL250714   7.074  36.908   5.764
 3816POPC   C1A50715   7.500  36.888   6.096
 3816POPC   D2A50716   7.654  37.122   6.465
 3816POPC   C3A50717   7.684  36.923   6.877
 3816POPC   C4A50718   7.441  37.097   7.225
 3816POPC   C1B50719   7.012  36.964   6.227
 3816POPC   C2B50720   7.105  36.945   6.692
 3816POPC   C3B50721   6.955  36.959   7.126
 3816POPC   C4B50722   7.125  36.830   7.542
 3817POPC   NC350723  39.434  13.951   5.392
 3817POPC   PO450724  39.166  13.401   5.478
 3817POPC   GL150725  39.132  13.726   5.811
 3817POPC   GL250726  39.413  13.979   5.893
 3817POPC   C1A50727  38.912  13.590   6.191
 3817POPC   D2A50728  38.608  13.483   6.496
 3817POPC   C3A50729  38.903  13.546   6.817
 3817POPC   C4A50730  39.118  13.679   7.212
 3817POPC   C1B50731  39.284  13.945   6.306
 3817POPC   C2B50732  39.254  13.896   6.741
 3817POPC   C3B50733  39.270  14.167   7.049
 3817POPC   C4B50734  39.143  14.302   7.421
 3818POPC   NC350735  41.574  12.599   5.512
 3818POPC   PO450736  41.332  13.274   5.450
 3818POPC   GL150737  41.372  12.991   5.805
 3818POPC   GL250738  41.707  12.884   5.930
 3818POPC   C1A50739  41.281  12.813   6.209
 3818POPC   D2A50740  41.458  12.996   6.566
 3818POPC   C3A50741  41.290  12.908   6.946
 3818POPC   C4A50742  41.388  13.030   7.329
 3818POPC   C1B50743  41.781  12.657   6.345
 3818POPC   C2B50744  41.764  12.684   6.812
 3818POPC   C3B50745  41.923  12.856   7.177
 3818POPC   C4B50746  41.750  12.612   7.473
 3819POPC   NC350747  27.494  13.402   4.892
 3819POPC   PO450748  27.916  13.752   5.295
 3819POPC   GL150749  27.651  13.828   5.710
 3819POPC   GL250750  27.251  13.824   5.697
 3819POPC   C1A50751  27.708  13.609   6.143
 3819POPC   D2A50752  27.940  13.444   6.512
 3819POPC   C3A50753  27.768  13.591   6.886
 3819POPC   C4A50754  27.642  13.616   7.302
 3819POPC   C1B50755  27.326  13.959   6.096
 3819POPC   C2B50756  27.459  13.907   6.523
 3819POPC   C3B50757  27.470  14.008   6.958
 3819POPC   C4B50758  27.183  13.881   7.257
 3820POPC   NC350759  25.070  37.858   5.674
 3820POPC   PO450760  25.688  37.547   5.470
 3820POPC   GL150761  25.535  37.757   5.828
 3820POPC   GL250762  25.292  37.463   5.901
 3820POPC   C1A50763  25.395  37.823   6.282
 3820POPC   D2A50764  25.105  37.849   6.644
 3820POPC   C3A50765  25.350  37.687   6.965
 3820POPC   C4A50766  25.442  37.659   7.367
 3820POPC   C1B50767  25.099  37.401   6.311
 3820POPC   C2B50768  24.978  37.367   6.767
 3820POPC   C3B50769  24.873  37.612   7.169
 3820POPC   C4B50770  24.854  37.395   7.560
 3821POPC   NC350771  30.241  36.254   5.632
 3821POPC   PO450772  30.142  35.711   5.257
 3821POPC   GL150773  30.037  35.778   5.775
 3821POPC   GL250774  29.849  36.044   5.881
 3821POPC   C1A50775  30.017  35.876   6.297
 3821POPC   D2A50776  29.745  35.948   6.653
 3821POPC   C3A50777  29.815  36.152   7.043
 3821POPC   C4A50778  30.095  35.949   7.286
 3821POPC   C1B50779  29.771  36.344   6.216
 3821POPC   C2B50780  29.888  36.432   6.618
 3821POPC   C3B50781  30.132  36.569   6.966
 3821POPC   C4B50782  30.279  36.448   7.393
 3822POPC   NC350783   3.733  19.239   5.604
 3822POPC   PO450784   3.459  18.716   5.346
 3822POPC   GL150785   3.328  18.928   5.757
 3822POPC   GL250786   3.314  18.721   6.076
 3822POPC   C1A50787   3.285  19.211   6.152
 3822POPC   D2A50788   3.369  18.976   6.555
 3822POPC   C3A50789   3.489  19.157   6.941
 3822POPC   C4A50790   3.358  19.144   7.364
 3822POPC   C1B50791   3.727  18.944   6.199
 3822POPC   C2B50792   3.912  19.075   6.593
 3822POPC   C3B50793   3.965  19.022   7.029
 3822POPC   C4B50794   3.846  18.922   7.462
 3823POPC   NC350795  33.975  28.741   5.539
 3823POPC   PO450796  33.441  29.186   5.433
 3823POPC   GL150797  33.692  29.033   5.878
 3823POPC   GL250798  33.713  28.697   6.008
 3823POPC   C1A50799  33.963  29.264   6.240
 3823POPC   D2A50800  34.198  29.246   6.664
 3823POPC   C3A50801  33.957  29.021   6.975
 3823POPC   C4A50802  33.671  29.278   7.187
 3823POPC   C1B50803  33.456  28.916   6.319
 3823POPC   C2B50804  33.518  28.840   6.761
 3823POPC   C3B50805  33.306  28.798   7.106
 3823POPC   C4B50806  33.182  29.175   7.175
 3824POPC   NC350807  25.082  25.621   5.519
 3824POPC   PO450808  25.733  25.401   5.480
 3824POPC   GL150809  25.438  25.391   5.873
 3824POPC   GL250810  25.057  25.458   5.995
 3824POPC   C1A50811  25.416  25.319   6.313
 3824POPC   D2A50812  25.447  25.109   6.680
 3824POPC   C3A50813  25.516  25.422   6.990
 3824POPC   C4A50814  25.292  25.582   7.339
 3824POPC   C1B50815  24.853  25.212   6.331
 3824POPC   C2B50816  24.826  25.098   6.767
 3824POPC   C3B50817  25.130  25.111   7.097
 3824POPC   C4B50818  25.046  25.129   7.563
 3825POPC   NC350819  37.499  28.045   5.566
 3825POPC   PO450820  37.986  27.637   5.214
 3825POPC   GL150821  37.932  27.791   5.628
 3825POPC   GL250822  37.667  27.589   5.772
 3825POPC   C1A50823  38.010  27.939   6.059
 3825POPC   D2A50824  38.113  27.734   6.485
 3825POPC   C3A50825  37.860  27.713   6.868
 3825POPC   C4A50826  37.764  27.450   7.224
 3825POPC   C1B50827  37.574  27.727   6.209
 3825POPC   C2B50828  37.437  27.854   6.615
 3825POPC   C3B50829  37.329  27.728   7.045
 3825POPC   C4B50830  36.955  27.899   7.270
 3826POPC   NC350831   6.508  20.164   5.500
 3826POPC   PO450832   6.896  19.674   5.740
 3826POPC   GL150833   6.554  19.866   5.892
 3826POPC   GL250834   6.315  19.679   5.770
 3826POPC   C1A50835   6.575  20.058   6.260
 3826POPC   D2A50836   6.862  19.962   6.567
 3826POPC   C3A50837   6.725  20.062   6.962
 3826POPC   C4A50838   6.805  19.782   7.308
 3826POPC   C1B50839   6.415  19.524   6.218
 3826POPC   C2B50840   6.346  19.679   6.636
 3826POPC   C3B50841   6.423  19.444   6.994
 3826POPC   C4B50842   6.176  19.185   7.228
 3827POPC   NC350843  22.626  32.103   5.383
 3827POPC   PO450844  23.314  32.159   5.428
 3827POPC   GL150845  23.169  32.347   5.780
 3827POPC   GL250846  22.821  32.423   5.762
 3827POPC   C1A50847  23.292  32.231   6.198
 3827POPC   D2A50848  23.137  32.122   6.572
 3827POPC   C3A50849  23.251  32.269   6.970
 3827POPC   C4A50850  23.235  31.988   7.301
 3827POPC   C1B50851  22.818  32.057   6.063
 3827POPC   C2B50852  22.639  32.022   6.474
 3827POPC   C3B50853  22.773  32.011   6.902
 3827POPC   C4B50854  22.807  32.263   7.249
 3828POPC   NC350855  14.653  28.140   5.401
 3828POPC   PO450856  14.258  28.631   5.054
 3828POPC   GL150857  14.314  28.674   5.559
 3828POPC   GL250858  14.675  28.589   5.718
 3828POPC   C1A50859  14.253  28.602   6.030
 3828POPC   D2A50860  14.449  28.616   6.447
 3828POPC   C3A50861  14.296  28.784   6.828
 3828POPC   C4A50862  14.306  28.600   7.255
 3828POPC   C1B50863  14.681  28.278   6.084
 3828POPC   C2B50864  14.399  28.112   6.428
 3828POPC   C3B50865  14.381  28.255   6.861
 3828POPC   C4B50866  14.167  28.064   7.209
 3829POPC   NC350867   3.165  19.056   5.251
 3829POPC   PO450868   2.502  19.006   5.317
 3829POPC   GL150869   2.477  18.916   5.752
 3829POPC   GL250870   2.455  19.251   5.868
 3829POPC   C1A50871   2.815  18.902   6.092
 3829POPC   D2A50872   2.876  18.831   6.547
 3829POPC   C3A50873   2.996  19.023   6.939
 3829POPC   C4A50874   2.921  18.869   7.348
 3829POPC   C1B50875   2.457  19.189   6.330
 3829POPC   C2B50876   2.459  19.405   6.729
 3829POPC   C3B50877   2.532  19.152   7.091
 3829POPC   C4B50878   2.479  19.096   7.536
 3830POPC   NC350879   2.210  42.253   5.584
 3830POPC   PO450880   2.911  42.197   5.518
 3830POPC   GL150881   2.693  42.299   5.873
 3830POPC   GL250882   2.473  42.007   5.955
 3830POPC   C1A50883   2.835  42.229   6.298
 3830POPC   D2A50884   2.759  42.062   6.701
 3830POPC   C3A50885   2.909  42.338   7.011
 3830POPC   C4A50886   2.809  42.448   7.466
 3830POPC   C1B50887   2.339  42.354   6.241
 3830POPC   C2B50888   2.358  42.423   6.689
 3830POPC   C3B50889   2.415  42.324   7.132
 3830POPC   C4B50890   2.310  42.323   7.572
 3831POPC   NC350891   3.429  44.342   5.461
 3831POPC   PO450892   3.322  44.991   5.441
 3831POPC   GL150893   3.383  44.777   5.799
 3831POPC   GL250894   3.540  44.463   5.944
 3831POPC   C1A50895   3.364  44.905   6.193
 3831POPC   D2A50896   3.558  44.835   6.583
 3831POPC   C3A50897   3.337  44.909   7.000
 3831POPC   C4A50898   3.648  44.839   7.316
 3831POPC   C1B50899   3.840  44.278   6.239
 3831POPC   C2B50900   3.990  44.341   6.666
 3831POPC   C3B50901   3.639  44.470   6.942
 3831POPC   C4B50902   3.188  44.413   7.072
 3832POPC   NC350903  24.940  12.215   5.404
 3832POPC   PO450904  25.380  11.728   5.494
 3832POPC   GL150905  25.326  12.046   5.795
 3832POPC   GL250906  24.982  12.000   5.866
 3832POPC   C1A50907  25.308  12.240   6.210
 3832POPC   D2A50908  25.595  12.204   6.572
 3832POPC   C3A50909  25.644  12.351   6.997
 3832POPC   C4A50910  25.539  12.207   7.421
 3832POPC   C1B50911  24.763  12.144   6.240
 3832POPC   C2B50912  24.984  12.173   6.630
 3832POPC   C3B50913  25.208  12.055   7.007
 3832POPC   C4B50914  25.187  11.838   7.397
 3833POPC   NC350915  12.968  16.132   5.316
 3833POPC   PO450916  12.421  15.783   5.308
 3833POPC   GL150917  12.657  15.910   5.699
 3833POPC   GL250918  12.695  15.628   5.959
 3833POPC   C1A50919  12.740  16.106   6.121
 3833POPC   D2A50920  12.547  16.096   6.530
 3833POPC   C3A50921  12.731  16.311   6.873
 3833POPC   C4A50922  13.070  16.188   7.148
 3833POPC   C1B50923  12.773  15.621   6.432
 3833POPC   C2B50924  12.891  15.786   6.840
 3833POPC   C3B50925  12.894  15.582   7.276
 3833POPC   C4B50926  12.811  15.349   7.696
 3834POPC   NC350927  28.673  12.746   5.585
 3834POPC   PO450928  29.200  12.944   5.134
 3834POPC   GL150929  29.195  12.936   5.624
 3834POPC   GL250930  29.393  13.205   5.782
 3834POPC   C1A50931  29.090  12.819   6.096
 3834POPC   D2A50932  29.199  12.565   6.512
 3834POPC   C3A50933  29.081  12.651   6.979
 3834POPC   C4A50934  29.197  12.661   7.445
 3834POPC   C1B50935  29.489  13.115   6.184
 3834POPC   C2B50936  29.200  13.072   6.529
 3834POPC   C3B50937  29.328  13.091   6.928
 3834POPC   C4B50938  29.300  13.200   7.335
 3835POPC   NC350939  30.204   4.746   5.505
 3835POPC   PO450940  29.765   4.318   5.210
 3835POPC   GL150941  29.766   4.249   5.696
 3835POPC   GL250942  29.819   4.591   5.832
 3835POPC   C1A50943  29.780   4.225   6.175
 3835POPC   D2A50944  29.743   4.495   6.567
 3835POPC   C3A50945  29.624   4.278   6.974
 3835POPC   C4A50946  29.789   4.029   7.350
 3835POPC   C1B50947  30.136   4.602   6.202
 3835POPC   C2B50948  30.261   4.398   6.625
 3835POPC   C3B50949  30.122   4.412   7.072
 3835POPC   C4B50950  30.014   4.465   7.522
 3836POPC   NC350951  28.516  36.391   5.456
 3836POPC   PO450952  27.924  35.961   5.458
 3836POPC   GL150953  28.004  36.079   5.872
 3836POPC   GL250954  28.219  36.377   5.863
 3836POPC   C1A50955  28.224  36.093   6.283
 3836POPC   D2A50956  28.611  36.068   6.521
 3836POPC   C3A50957  28.487  36.162   6.927
 3836POPC   C4A50958  28.312  35.999   7.308
 3836POPC   C1B50959  28.593  36.483   6.148
 3836POPC   C2B50960  28.802  36.561   6.559
 3836POPC   C3B50961  28.872  36.491   7.001
 3836POPC   C4B50962  28.554  36.492   7.325
 3837POPC   NC350963   4.656  39.745   5.339
 3837POPC   PO450964   4.149  39.407   5.464
 3837POPC   GL150965   4.469  39.316   5.724
 3837POPC   GL250966   4.283  39.164   6.007
 3837POPC   C1A50967   4.701  39.481   6.072
 3837POPC   D2A50968   4.720  39.588   6.532
 3837POPC   C3A50969   4.592  39.296   6.870
 3837POPC   C4A50970   4.374  39.268   7.262
 3837POPC   C1B50971   4.048  39.103   6.406
 3837POPC   C2B50972   4.150  39.032   6.850
 3837POPC   C3B50973   4.314  38.744   7.183
 3837POPC   C4B50974   4.317  38.864   7.641
 3838POPC   NC350975  17.995  16.943   5.199
 3838POPC   PO450976  17.332  16.952   5.455
 3838POPC   GL150977  17.590  16.806   5.779
 3838POPC   GL250978  17.841  16.610   5.628
 3838POPC   C1A50979  17.656  16.928   6.217
 3838POPC   D2A50980  17.498  16.915   6.636
 3838POPC   C3A50981  17.646  17.086   7.011
 3838POPC   C4A50982  17.494  16.967   7.406
 3838POPC   C1B50983  17.796  16.440   6.079
 3838POPC   C2B50984  17.633  16.430   6.503
 3838POPC   C3B50985  17.715  16.553   6.942
 3838POPC   C4B50986  18.127  16.500   7.090
 3839POPC   NC350987  36.829  16.648   5.422
 3839POPC   PO450988  36.801  17.294   5.513
 3839POPC   GL150989  36.820  16.941   5.863
 3839POPC   GL250990  37.086  16.681   5.856
 3839POPC   C1A50991  36.768  16.620   6.252
 3839POPC   D2A50992  36.823  16.717   6.698
 3839POPC   C3A50993  36.814  16.420   7.074
 3839POPC   C4A50994  37.097  16.399   7.466
 3839POPC   C1B50995  37.167  16.933   6.257
 3839POPC   C2B50996  37.290  16.942   6.702
 3839POPC   C3B50997  37.092  16.843   7.110
 3839POPC   C4B50998  36.702  17.041   7.169
 3840POPC   NC350999  22.405  18.295   5.589
 3840POPC   PO451000  21.718  18.221   5.638
 3840POPC   GL151001  21.978  18.314   5.974
 3840POPC   GL251002  21.958  18.669   5.974
 3840POPC   C1A51003  22.278  18.262   6.309
 3840POPC   D2A51004  22.285  17.987   6.647
 3840POPC   C3A51005  22.121  18.163   6.968
 3840POPC   C4A51006  21.892  18.524   7.035
 3840POPC   C1B51007  22.244  18.792   6.331
 3840POPC   C2B51008  22.627  18.696   6.536
 3840POPC   C3B51009  22.534  18.519   6.919
 3840POPC   C4B51010  22.423  18.366   7.321
 3841POPC   NC351011  26.529  28.894   5.483
 3841POPC   PO451012  26.784  29.406   5.328
 3841POPC   GL151013  26.918  29.225   5.763
 3841POPC   GL251014  26.650  29.069   5.936
 3841POPC   C1A51015  27.087  29.133   6.202
 3841POPC   D2A51016  26.835  29.351   6.533
 3841POPC   C3A51017  26.754  29.196   6.941
 3841POPC   C4A51018  26.969  29.012   7.203
 3841POPC   C1B51019  26.516  28.751   6.205
 3841POPC   C2B51020  26.709  28.653   6.599
 3841POPC   C3B51021  26.569  28.721   7.030
 3841POPC   C4B51022  26.630  28.771   7.496
 3842POPC   NC351023   9.162  28.220   5.463
 3842POPC   PO451024   8.564  28.136   5.163
 3842POPC   GL151025   8.695  28.294   5.666
 3842POPC   GL251026   8.911  28.608   5.687
 3842POPC   C1A51027   9.015  28.256   6.091
 3842POPC   D2A51028   9.401  28.213   6.397
 3842POPC   C3A51029   9.334  28.317   6.840
 3842POPC   C4A51030   9.010  28.197   7.137
 3842POPC   C1B51031   8.938  28.762   6.108
 3842POPC   C2B51032   8.983  28.574   6.527
 3842POPC   C3B51033   8.815  28.638   6.939
 3842POPC   C4B51034   9.046  28.670   7.323
 3843POPC   NC351035   3.448  13.226   5.514
 3843POPC   PO451036   3.453  12.623   5.157
 3843POPC   GL151037   3.606  12.738   5.640
 3843POPC   GL251038   3.414  12.943   5.913
 3843POPC   C1A51039   3.815  12.689   6.097
 3843POPC   D2A51040   3.789  12.925   6.487
 3843POPC   C3A51041   3.795  12.792   6.894
 3843POPC   C4A51042   3.594  12.685   7.247
 3843POPC   C1B51043   3.303  12.638   6.188
 3843POPC   C2B51044   3.028  12.606   6.513
 3843POPC   C3B51045   3.223  12.635   6.899
 3843POPC   C4B51046   3.289  12.281   7.188
 3844POPC   NC351047  25.702  10.647   5.221
 3844POPC   PO451048  25.116  10.270   5.131
 3844POPC   GL151049  25.225  10.393   5.619
 3844POPC   GL251050  25.410  10.714   5.778
 3844POPC   C1A51051  25.346  10.336   6.108
 3844POPC   D2A51052  25.296  10.422   6.569
 3844POPC   C3A51053  25.226  10.099   6.889
 3844POPC   C4A51054  25.079  10.280   7.294
 3844POPC   C1B51055  25.574  10.787   6.250
 3844POPC   C2B51056  25.664  10.759   6.722
 3844POPC   C3B51057  25.406  10.651   7.078
 3844POPC   C4B51058  24.985  10.801   7.217
 3845POPC   NC351059  19.996  38.599   5.537
 3845POPC   PO451060  19.804  37.967   5.354
 3845POPC   GL151061  19.844  38.170   5.780
 3845POPC   GL251062  20.168  38.340   5.913
 3845POPC   C1A51063  19.685  38.408   6.141
 3845POPC   D2A51064  19.673  38.218   6.527
 3845POPC   C3A51065  19.769  38.263   6.939
 3845POPC   C4A51066  19.598  38.531   7.198
 3845POPC   C1B51067  20.148  38.248   6.288
 3845POPC   C2B51068  20.123  38.461   6.625
 3845POPC   C3B51069  20.111  38.656   7.002
 3845POPC   C4B51070  20.164  38.426   7.359
 3846POPC   NC351071  28.641  30.210   5.417
 3846POPC   PO451072  28.329  29.641   5.240
 3846POPC   GL151073  28.291  29.763   5.702
 3846POPC   GL251074  28.635  29.705   5.710
 3846POPC   C1A51075  28.470  29.985   6.126
 3846POPC   D2A51076  28.425  30.272   6.484
 3846POPC   C3A51077  28.532  30.138   6.922
 3846POPC   C4A51078  28.419  29.991   7.344
 3846POPC   C1B51079  28.565  29.488   6.109
 3846POPC   C2B51080  28.621  29.636   6.554
 3846POPC   C3B51081  28.441  29.580   6.980
 3846POPC   C4B51082  28.634  29.523   7.375
 3847POPC   NC351083  34.332   4.588   5.685
 3847POPC   PO451084  34.061   4.083   5.250
 3847POPC   GL151085  34.318   4.053   5.733
 3847POPC   GL251086  34.666   4.178   5.763
 3847POPC   C1A51087  34.295   4.185   6.240
 3847POPC   D2A51088  34.232   4.360   6.710
 3847POPC   C3A51089  34.283   4.203   7.160
 3847POPC   C4A51090  34.421   4.060   7.596
 3847POPC   C1B51091  34.766   4.366   6.187
 3847POPC   C2B51092  34.771   4.221   6.619
 3847POPC   C3B51093  34.676   4.495   6.956
 3847POPC   C4B51094  34.840   4.678   7.323
 3848POPC   NC351095  42.673  21.016   5.570
 3848POPC   PO451096  42.475  21.614   5.554
 3848POPC   GL151097  42.259  21.429   5.948
 3848POPC   GL251098  42.441  21.171   6.023
 3848POPC   C1A51099  42.113  21.439   6.396
 3848POPC   D2A51100  42.274  21.306   6.800
 3848POPC   C3A51101  41.946  21.179   7.084
 3848POPC   C4A51102  41.690  21.381   7.412
 3848POPC   C1B51103  42.617  21.459   6.369
 3848POPC   C2B51104  42.790  21.298   6.749
 3848POPC   C3B51105  42.729  21.137   7.181
 3848POPC   C4B51106  42.650  21.078   7.649
 3849POPC   NC351107  16.421  21.636   5.496
 3849POPC   PO451108  16.801  21.144   5.191
 3849POPC   GL151109  16.816  21.351   5.668
 3849POPC   GL251110  16.538  21.460   5.959
 3849POPC   C1A51111  16.974  21.235   6.099
 3849POPC   D2A51112  16.759  21.278   6.504
 3849POPC   C3A51113  16.847  21.223   6.961
 3849POPC   C4A51114  16.989  21.483   7.374
 3849POPC   C1B51115  16.276  21.279   6.316
 3849POPC   C2B51116  16.337  21.273   6.787
 3849POPC   C3B51117  16.500  21.520   7.172
 3849POPC   C4B51118  16.577  21.309   7.601
 3850POPC   NC351119  11.591  44.052   5.028
 3850POPC   PO451120  11.203  43.591   5.413
 3850POPC   GL151121  11.317  43.889   5.768
 3850POPC   GL251122  11.000  43.898   5.845
 3850POPC   C1A51123  11.275  44.179   6.180
 3850POPC   D2A51124  11.288  44.323   6.656
 3850POPC   C3A51125  11.330  44.045   7.056
 3850POPC   C4A51126  11.339  44.004   7.561
 3850POPC   C1B51127  11.114  43.543   6.102
 3850POPC   C2B51128  11.078  43.444   6.520
 3850POPC   C3B51129  11.320  43.469   6.887
 3850POPC   C4B51130  11.211  43.590   7.302
 3851POPC   NC351131   7.889  27.869   5.366
 3851POPC   PO451132   7.994  28.549   5.492
 3851POPC   GL151133   8.214  28.471   5.865
 3851POPC   GL251134   8.463  28.729   5.911
 3851POPC   C1A51135   8.097  28.298   6.286
 3851POPC   D2A51136   7.946  28.544   6.644
 3851POPC   C3A51137   8.013  28.330   7.030
 3851POPC   C4A51138   8.037  28.021   7.361
 3851POPC   C1B51139   8.501  28.605   6.345
 3851POPC   C2B51140   8.435  28.320   6.699
 3851POPC   C3B51141   8.501  28.227   7.131
 3851POPC   C4B51142   8.539  28.561   7.434
 3852POPC   NC351143   8.429   6.944   5.459
 3852POPC   PO451144   7.813   7.124   5.556
 3852POPC   GL151145   8.078   6.894   5.859
 3852POPC   GL251146   8.281   6.574   5.839
 3852POPC   C1A51147   8.171   6.831   6.289
 3852POPC   D2A51148   8.146   6.561   6.616
 3852POPC   C3A51149   8.409   6.724   6.907
 3852POPC   C4A51150   8.347   6.912   7.281
 3852POPC   C1B51151   7.930   6.409   6.115
 3852POPC   C2B51152   7.729   6.218   6.498
 3852POPC   C3B51153   7.834   6.259   6.911
 3852POPC   C4B51154   8.147   6.418   7.215
 3853POPC   NC351155  33.490  20.350   5.553
 3853POPC   PO451156  33.899  20.863   5.403
 3853POPC   GL151157  33.836  20.671   5.824
 3853POPC   GL251158  33.939  20.321   5.894
 3853POPC   C1A51159  34.031  20.668   6.263
 3853POPC   D2A51160  33.981  20.926   6.637
 3853POPC   C3A51161  33.826  20.796   7.044
 3853POPC   C4A51162  33.476  20.716   7.293
 3853POPC   C1B51163  33.641  20.348   6.224
 3853POPC   C2B51164  33.737  20.465   6.659
 3853POPC   C3B51165  33.662  20.301   7.080
 3853POPC   C4B51166  33.836  20.399   7.488
 3854POPC   NC351167  32.480  36.174   5.525
 3854POPC   PO451168  31.760  36.059   5.363
 3854POPC   GL151169  31.911  36.075   5.830
 3854POPC   GL251170  32.236  35.946   5.881
 3854POPC   C1A51171  32.153  36.312   6.200
 3854POPC   D2A51172  32.240  36.059   6.570
 3854POPC   C3A51173  32.034  36.020   6.949
 3854POPC   C4A51174  32.258  36.255   7.247
 3854POPC   C1B51175  32.228  35.690   6.227
 3854POPC   C2B51176  32.412  35.574   6.615
 3854POPC   C3B51177  32.428  35.698   7.066
 3854POPC   C4B51178  32.432  35.564   7.511
 3855POPC   NC351179  13.169  36.533   5.449
 3855POPC   PO451180  13.158  37.215   5.630
 3855POPC   GL151181  12.997  36.823   5.828
 3855POPC   GL251182  12.660  36.846   5.924
 3855POPC   C1A51183  13.010  36.668   6.252
 3855POPC   D2A51184  13.081  36.929   6.605
 3855POPC   C3A51185  12.885  36.843   6.960
 3855POPC   C4A51186  13.107  36.867   7.307
 3855POPC   C1B51187  12.829  37.178   6.215
 3855POPC   C2B51188  12.776  37.360   6.638
 3855POPC   C3B51189  12.925  37.340   7.086
 3855POPC   C4B51190  12.830  37.208   7.506
 3856POPC   NC351191   3.884  25.716   5.319
 3856POPC   PO451192   4.385  26.161   5.287
 3856POPC   GL151193   4.153  26.016   5.656
 3856POPC   GL251194   4.378  25.734   5.781
 3856POPC   C1A51195   4.068  26.031   6.110
 3856POPC   D2A51196   4.234  26.141   6.526
 3856POPC   C3A51197   4.013  26.088   6.917
 3856POPC   C4A51198   4.078  25.888   7.304
 3856POPC   C1B51199   4.579  25.891   6.177
 3856POPC   C2B51200   4.718  26.016   6.606
 3856POPC   C3B51201   4.533  25.884   7.023
 3856POPC   C4B51202   4.664  25.582   7.381
 3857POPC   NC351203   5.632  15.392   5.551
 3857POPC   PO451204   6.369  15.230   5.586
 3857POPC   GL151205   6.104  14.937   5.796
 3857POPC   GL251206   5.969  15.252   5.925
 3857POPC   C1A51207   5.795  14.838   6.154
 3857POPC   D2A51208   5.602  15.038   6.539
 3857POPC   C3A51209   5.902  15.053   6.881
 3857POPC   C4A51210   5.792  15.011   7.286
 3857POPC   C1B51211   5.965  15.356   6.364
 3857POPC   C2B51212   5.889  15.538   6.765
 3857POPC   C3B51213   5.934  15.486   7.223
 3857POPC   C4B51214   5.920  15.622   7.647
 3858POPC   NC351215  19.883   8.341   5.359
 3858POPC   PO451216  19.411   7.864   5.405
 3858POPC   GL151217  19.449   8.185   5.662
 3858POPC   GL251218  19.765   8.169   5.823
 3858POPC   C1A51219  19.365   8.234   6.111
 3858POPC   D2A51220  19.637   8.061   6.417
 3858POPC   C3A51221  19.600   8.086   6.872
 3858POPC   C4A51222  19.954   8.032   7.161
 3858POPC   C1B51223  19.796   8.500   6.142
 3858POPC   C2B51224  19.689   8.537   6.580
 3858POPC   C3B51225  19.792   8.549   7.024
 3858POPC   C4B51226  19.575   8.344   7.362
 3859POPC   NC351227   7.905  10.033   5.709
 3859POPC   PO451228   8.450   9.707   5.494
 3859POPC   GL151229   8.276   9.681   5.853
 3859POPC   GL251230   8.405   9.941   6.020
 3859POPC   C1A51231   8.047   9.600   6.197
 3859POPC   D2A51232   7.961   9.384   6.530
 3859POPC   C3A51233   7.989   9.629   6.865
 3859POPC   C4A51234   8.013   9.506   7.256
 3859POPC   C1B51235   8.134  10.109   6.343
 3859POPC   C2B51236   8.133  10.119   6.777
 3859POPC   C3B51237   8.036  10.017   7.198
 3859POPC   C4B51238   8.289   9.859   7.500
 3860POPC   NC351239  43.513   2.117   5.456
 3860POPC   PO451240  42.899   2.283   5.434
 3860POPC   GL151241  43.050   2.045   5.798
 3860POPC   GL251242  43.349   1.824   5.856
 3860POPC   C1A51243  43.138   2.123   6.251
 3860POPC   D2A51244  42.971   2.408   6.566
 3860POPC   C3A51245  43.121   2.375   6.955
 3860POPC   C4A51246  43.126   2.084   7.265
 3860POPC   C1B51247  43.004   1.648   6.127
 3860POPC   C2B51248  42.807   1.765   6.530
 3860POPC   C3B51249  42.950   1.720   6.943
 3860POPC   C4B51250  43.286   1.590   7.147
 3861POPC   NC351251  39.378  25.013   5.480
 3861POPC   PO451252  38.903  25.455   5.737
 3861POPC   GL151253  39.083  25.078   5.887
 3861POPC   GL251254  39.413  25.269   5.910
 3861POPC   C1A51255  39.300  24.943   6.278
 3861POPC   D2A51256  39.431  25.227   6.609
 3861POPC   C3A51257  39.174  25.168   6.984
 3861POPC   C4A51258  39.154  25.193   7.429
 3861POPC   C1B51259  39.618  25.550   6.192
 3861POPC   C2B51260  39.680  25.680   6.605
 3861POPC   C3B51261  39.444  25.631   6.955
 3861POPC   C4B51262  39.016  25.630   7.139
 3862POPC   NC351263   0.318  29.369   5.338
 3862POPC   PO451264   0.801  28.971   5.375
 3862POPC   GL151265   0.625  29.096   5.792
 3862POPC   GL251266   0.306  29.294   5.854
 3862POPC   C1A51267   0.657  29.237   6.218
 3862POPC   D2A51268   0.305  29.193   6.516
 3862POPC   C3A51269   0.535  29.090   6.878
 3862POPC   C4A51270   0.694  29.396   7.143
 3862POPC   C1B51271   0.283  28.867   6.123
 3862POPC   C2B51272   0.299  28.665   6.574
 3862POPC   C3B51273   0.172  28.755   7.027
 3862POPC   C4B51274   0.336  29.093   7.361
 3863POPC   NC351275  11.426  17.197   5.305
 3863POPC   PO451276  11.202  17.775   5.106
 3863POPC   GL151277  11.387  17.687   5.547
 3863POPC   GL251278  11.164  17.464   5.717
 3863POPC   C1A51279  11.471  17.719   6.035
 3863POPC   D2A51280  11.601  17.479   6.424
 3863POPC   C3A51281  11.462  17.517   6.874
 3863POPC   C4A51282  11.530  17.717   7.280
 3863POPC   C1B51283  11.165  17.275   6.173
 3863POPC   C2B51284  10.937  17.246   6.602
 3863POPC   C3B51285  10.894  17.203   7.058
 3863POPC   C4B51286  11.301  17.220   7.292
 3864POPC   NC351287  37.483   3.184   5.496
 3864POPC   PO451288  37.338   3.842   5.420
 3864POPC   GL151289  37.599   3.632   5.769
 3864POPC   GL251290  37.473   3.331   5.970
 3864POPC   C1A51291  37.831   3.588   6.183
 3864POPC   D2A51292  37.684   3.665   6.585
 3864POPC   C3A51293  37.973   3.640   6.921
 3864POPC   C4A51294  37.900   3.765   7.329
 3864POPC   C1B51295  37.619   3.075   6.317
 3864POPC   C2B51296  37.782   3.000   6.744
 3864POPC   C3B51297  37.766   3.188   7.150
 3864POPC   C4B51298  37.438   3.159   7.436
 3865POPC   NC351299  18.943   9.743   5.386
 3865POPC   PO451300  19.567   9.874   5.524
 3865POPC   GL151301  19.227   9.699   5.832
 3865POPC   GL251302  18.882   9.543   5.869
 3865POPC   C1A51303  19.118   9.824   6.264
 3865POPC   D2A51304  19.085  10.083   6.660
 3865POPC   C3A51305  19.445  10.068   6.923
 3865POPC   C4A51306  19.534   9.720   7.209
 3865POPC   C1B51307  18.622   9.828   6.144
 3865POPC   C2B51308  18.581  10.094   6.513
 3865POPC   C3B51309  18.618  10.002   6.956
 3865POPC   C4B51310  19.013   9.837   7.135
 3866POPC   NC351311  16.047  24.635   5.072
 3866POPC   PO451312  15.804  24.209   5.437
 3866POPC   GL151313  15.862  24.499   5.804
 3866POPC   GL251314  16.004  24.251   6.005
 3866POPC   C1A51315  15.702  24.615   6.229
 3866POPC   D2A51316  15.836  24.385   6.626
 3866POPC   C3A51317  15.881  24.563   7.044
 3866POPC   C4A51318  16.105  24.702   7.426
 3866POPC   C1B51319  16.214  24.515   6.293
 3866POPC   C2B51320  16.342  24.478   6.721
 3866POPC   C3B51321  16.359  24.337   7.136
 3866POPC   C4B51322  16.515  24.400   7.561
 3867POPC   NC351323   9.499  42.964   5.501
 3867POPC   PO451324   9.955  43.376   5.351
 3867POPC   GL151325  10.014  43.225   5.800
 3867POPC   GL251326   9.894  42.932   5.828
 3867POPC   C1A51327   9.935  43.246   6.233
 3867POPC   D2A51328   9.602  43.455   6.444
 3867POPC   C3A51329   9.594  43.194   6.783
 3867POPC   C4A51330   9.446  43.119   7.175
 3867POPC   C1B51331   9.617  42.774   6.159
 3867POPC   C2B51332   9.775  42.772   6.558
 3867POPC   C3B51333   9.714  42.714   6.960
 3867POPC   C4B51334   9.934  42.820   7.299
 3868POPC   NC351335  36.007  22.436   5.578
 3868POPC   PO451336  36.137  23.071   5.259
 3868POPC   GL151337  36.202  22.914   5.725
 3868POPC   GL251338  36.461  22.690   5.827
 3868POPC   C1A51339  36.125  22.881   6.217
 3868POPC   D2A51340  35.899  22.832   6.659
 3868POPC   C3A51341  35.991  23.000   7.086
 3868POPC   C4A51342  36.387  23.197   7.175
 3868POPC   C1B51343  36.365  22.380   6.182
 3868POPC   C2B51344  36.292  22.412   6.614
 3868POPC   C3B51345  36.371  22.716   6.915
 3868POPC   C4B51346  36.361  22.725   7.347
 3869POPC   NC351347  26.837  13.994   5.359
 3869POPC   PO451348  26.436  14.485   5.423
 3869POPC   GL151349  26.769  14.484   5.727
 3869POPC   GL251350  26.864  14.159   5.856
 3869POPC   C1A51351  26.940  14.713   6.088
 3869POPC   D2A51352  26.904  14.719   6.517
 3869POPC   C3A51353  27.055  14.405   6.803
 3869POPC   C4A51354  26.957  14.545   7.213
 3869POPC   C1B51355  26.893  14.228   6.297
 3869POPC   C2B51356  26.554  14.347   6.581
 3869POPC   C3B51357  26.458  14.322   7.001
 3869POPC   C4B51358  26.705  14.029   7.227
 3870POPC   NC351359  43.436  30.444   5.420
 3870POPC   PO451360  42.993  30.933   5.397
 3870POPC   GL151361  43.035  30.718   5.817
 3870POPC   GL251362  43.369  30.512   5.921
 3870POPC   C1A51363  42.955  30.705   6.257
 3870POPC   D2A51364  42.816  30.931   6.635
 3870POPC   C3A51365  42.815  30.639   6.978
 3870POPC   C4A51366  43.038  30.526   7.324
 3870POPC   C1B51367  43.270  30.221   6.237
 3870POPC   C2B51368  43.124  30.366   6.614
 3870POPC   C3B51369  43.374  30.416   6.963
 3870POPC   C4B51370  43.483  30.199   7.298
 3871POPC   NC351371  20.807  34.116   5.583
 3871POPC   PO451372  20.438  34.777   5.440
 3871POPC   GL151373  20.484  34.489   5.744
 3871POPC   GL251374  20.242  34.203   5.694
 3871POPC   C1A51375  20.619  34.552   6.149
 3871POPC   D2A51376  20.650  34.840   6.458
 3871POPC   C3A51377  20.581  34.647   6.828
 3871POPC   C4A51378  20.558  34.785   7.229
 3871POPC   C1B51379  20.160  34.302   6.115
 3871POPC   C2B51380  20.294  34.235   6.512
 3871POPC   C3B51381  20.473  34.138   6.887
 3871POPC   C4B51382  20.423  34.305   7.245
 3872POPC   NC351383  38.017  42.130   5.022
 3872POPC   PO451384  37.589  42.372   5.474
 3872POPC   GL151385  37.752  42.419   5.867
 3872POPC   GL251386  37.454  42.384   6.115
 3872POPC   C1A51387  37.897  42.245   6.253
 3872POPC   D2A51388  37.574  42.026   6.517
 3872POPC   C3A51389  37.643  42.170   6.942
 3872POPC   C4A51390  38.001  42.327   7.158
 3872POPC   C1B51391  37.332  42.668   6.436
 3872POPC   C2B51392  37.344  42.617   6.884
 3872POPC   C3B51393  37.491  42.520   7.295
 3872POPC   C4B51394  37.342  42.365   7.730
 3873POPC   NC351395  39.004  31.703   5.414
 3873POPC   PO451396  39.738  31.672   5.331
 3873POPC   GL151397  39.397  31.583   5.687
 3873POPC   GL251398  39.400  31.899   5.789
 3873POPC   C1A51399  39.285  31.502   6.137
 3873POPC   D2A51400  39.202  31.265   6.507
 3873POPC   C3A51401  39.265  31.392   6.918
 3873POPC   C4A51402  38.996  31.421   7.241
 3873POPC   C1B51403  39.604  31.889   6.194
 3873POPC   C2B51404  39.569  31.704   6.600
 3873POPC   C3B51405  39.474  31.875   6.993
 3873POPC   C4B51406  39.442  31.676   7.349
 3874POPC   NC351407  15.583  23.806   5.396
 3874POPC   PO451408  16.092  23.253   5.390
 3874POPC   GL151409  15.813  23.431   5.757
 3874POPC   GL251410  15.849  23.786   5.848
 3874POPC   C1A51411  15.585  23.483   6.183
 3874POPC   D2A51412  15.573  23.669   6.625
 3874POPC   C3A51413  15.858  23.501   6.946
 3874POPC   C4A51414  16.300  23.567   7.042
 3874POPC   C1B51415  15.948  23.815   6.307
 3874POPC   C2B51416  16.121  23.956   6.716
 3874POPC   C3B51417  15.965  24.012   7.136
 3874POPC   C4B51418  16.026  24.209   7.552
 3875POPC   NC351419  18.752   2.267   5.361
 3875POPC   PO451420  19.207   2.712   5.344
 3875POPC   GL151421  19.213   2.745   5.780
 3875POPC   GL251422  18.900   2.583   5.797
 3875POPC   C1A51423  19.133   2.921   6.213
 3875POPC   D2A51424  18.942   3.041   6.627
 3875POPC   C3A51425  19.275   2.906   6.908
 3875POPC   C4A51426  19.445   2.516   7.065
 3875POPC   C1B51427  18.966   2.439   6.226
 3875POPC   C2B51428  19.053   2.483   6.677
 3875POPC   C3B51429  18.930   2.605   7.122
 3875POPC   C4B51430  18.915   3.060   7.243
 3876POPC   NC351431  35.566  33.746   5.560
 3876POPC   PO451432  34.967  34.086   5.275
 3876POPC   GL151433  35.191  34.038   5.753
 3876POPC   GL251434  35.299  33.688   5.974
 3876POPC   C1A51435  35.378  34.119   6.196
 3876POPC   D2A51436  35.234  33.957   6.555
 3876POPC   C3A51437  35.530  33.909   6.914
 3876POPC   C4A51438  35.417  33.956   7.356
 3876POPC   C1B51439  35.503  33.547   6.345
 3876POPC   C2B51440  35.267  33.470   6.706
 3876POPC   C3B51441  35.238  33.524   7.128
 3876POPC   C4B51442  35.541  33.446   7.390
 3877POPC   NC351443   4.276   1.662   5.491
 3877POPC   PO451444   4.618   1.099   5.484
 3877POPC   GL151445   4.364   1.094   5.819
 3877POPC   GL251446   4.379   1.423   5.938
 3877POPC   C1A51447   4.345   0.934   6.237
 3877POPC   D2A51448   4.126   0.991   6.619
 3877POPC   C3A51449   4.301   1.022   7.009
 3877POPC   C4A51450   4.255   1.231   7.364
 3877POPC   C1B51451   4.317   1.432   6.387
 3877POPC   C2B51452   4.375   1.495   6.815
 3877POPC   C3B51453   4.661   1.412   7.129
 3877POPC   C4B51454   4.662   1.397   7.621
 3878POPC   NC351455  39.359  27.772   5.153
 3878POPC   PO451456  39.336  28.447   5.372
 3878POPC   GL151457  39.222  28.413   5.784
 3878POPC   GL251458  39.224  28.042   5.726
 3878POPC   C1A51459  39.263  28.445   6.226
 3878POPC   D2A51460  39.214  28.664   6.610
 3878POPC   C3A51461  39.205  28.427   6.990
 3878POPC   C4A51462  39.387  28.500   7.393
 3878POPC   C1B51463  38.906  28.107   6.054
 3878POPC   C2B51464  38.957  28.096   6.505
 3878POPC   C3B51465  38.849  27.990   6.907
 3878POPC   C4B51466  39.038  28.021   7.291
 3879POPC   NC351467   6.843  18.189   5.581
 3879POPC   PO451468   6.579  18.792   5.496
 3879POPC   GL151469   6.664  18.592   5.896
 3879POPC   GL251470   6.366  18.372   5.857
 3879POPC   C1A51471   6.736  18.235   6.247
 3879POPC   D2A51472   6.754  17.928   6.626
 3879POPC   C3A51473   6.652  18.102   7.026
 3879POPC   C4A51474   6.779  18.488   7.154
 3879POPC   C1B51475   6.226  18.099   6.220
 3879POPC   C2B51476   6.293  18.171   6.664
 3879POPC   C3B51477   6.139  18.175   7.092
 3879POPC   C4B51478   6.365  18.208   7.505
 3880POPC   NC351479  18.592  30.955   5.596
 3880POPC   PO451480  18.067  30.845   5.128
 3880POPC   GL151481  18.195  30.598   5.664
 3880POPC   GL251482  18.355  30.830   6.008
 3880POPC   C1A51483  17.969  30.557   6.134
 3880POPC   D2A51484  18.222  30.697   6.534
 3880POPC   C3A51485  18.041  30.693   6.973
 3880POPC   C4A51486  18.055  30.583   7.417
 3880POPC   C1B51487  18.695  30.929   6.348
 3880POPC   C2B51488  18.757  30.854   6.829
 3880POPC   C3B51489  18.548  30.666   7.210
 3880POPC   C4B51490  18.560  30.494   7.642
 3881POPC   NC351491  30.101   8.608   5.305
 3881POPC   PO451492  29.669   9.146   5.297
 3881POPC   GL151493  29.807   9.103   5.723
 3881POPC   GL251494  30.148   8.992   5.725
 3881POPC   C1A51495  29.812   9.181   6.154
 3881POPC   D2A51496  29.986   8.948   6.478
 3881POPC   C3A51497  29.823   8.985   6.891
 3881POPC   C4A51498  30.020   9.003   7.294
 3881POPC   C1B51499  30.292   8.736   6.100
 3881POPC   C2B51500  30.276   8.550   6.548
 3881POPC   C3B51501  30.329   8.652   7.002
 3881POPC   C4B51502  30.449   8.702   7.456
 3882POPC   NC351503  34.505  37.351   5.327
 3882POPC   PO451504  34.866  37.876   5.390
 3882POPC   GL151505  34.943  37.684   5.782
 3882POPC   GL251506  34.636  37.548   5.793
 3882POPC   C1A51507  34.823  37.827   6.220
 3882POPC   D2A51508  34.774  37.980   6.640
 3882POPC   C3A51509  34.732  37.864   7.082
 3882POPC   C4A51510  34.441  37.959   7.380
 3882POPC   C1B51511  34.575  37.384   6.194
 3882POPC   C2B51512  34.467  37.565   6.584
 3882POPC   C3B51513  34.563  37.410   6.963
 3882POPC   C4B51514  34.670  37.321   7.364
 3883POPC   NC351515  15.814  22.914   5.571
 3883POPC   PO451516  16.475  22.931   5.661
 3883POPC   GL151517  16.185  23.106   5.892
 3883POPC   GL251518  16.068  22.788   6.009
 3883POPC   C1A51519  16.049  23.225   6.294
 3883POPC   D2A51520  16.066  22.862   6.590
 3883POPC   C3A51521  16.240  22.992   6.967
 3883POPC   C4A51522  16.088  23.173   7.301
 3883POPC   C1B51523  15.667  22.883   6.232
 3883POPC   C2B51524  15.628  23.144   6.601
 3883POPC   C3B51525  15.707  22.971   7.029
 3883POPC   C4B51526  15.705  22.866   7.487
 3884POPC   NC351527  37.591  29.572   5.436
 3884POPC   PO451528  37.842  30.159   5.403
 3884POPC   GL151529  37.491  30.033   5.643
 3884POPC   GL251530  37.639  30.201   5.912
 3884POPC   C1A51531  37.340  29.835   6.055
 3884POPC   D2A51532  37.539  30.003   6.427
 3884POPC   C3A51533  37.439  29.797   6.807
 3884POPC   C4A51534  37.432  30.051   7.209
 3884POPC   C1B51535  37.853  29.771   6.087
 3884POPC   C2B51536  37.853  29.600   6.545
 3884POPC   C3B51537  37.890  29.906   6.967
 3884POPC   C4B51538  37.838  29.740   7.361
 3885POPC   NC351539   4.080  20.194   5.634
 3885POPC   PO451540   4.497  19.801   5.244
 3885POPC   GL151541   4.449  19.822   5.733
 3885POPC   GL251542   4.091  19.745   5.890
 3885POPC   C1A51543   4.474  19.906   6.213
 3885POPC   D2A51544   4.590  19.741   6.659
 3885POPC   C3A51545   4.615  20.094   6.939
 3885POPC   C4A51546   4.379  20.207   7.298
 3885POPC   C1B51547   4.027  19.444   6.242
 3885POPC   C2B51548   4.075  19.588   6.679
 3885POPC   C3B51549   4.020  19.964   6.989
 3885POPC   C4B51550   3.727  20.006   7.350
 3886POPC   NC351551   1.225  41.077   5.081
 3886POPC   PO451552   1.228  40.565   5.479
 3886POPC   GL151553   1.314  40.735   5.861
 3886POPC   GL251554   1.321  41.075   5.802
 3886POPC   C1A51555   1.097  40.852   6.229
 3886POPC   D2A51556   1.085  40.680   6.605
 3886POPC   C3A51557   1.084  40.959   6.914
 3886POPC   C4A51558   1.290  40.795   7.208
 3886POPC   C1B51559   1.535  41.141   6.202
 3886POPC   C2B51560   1.528  41.006   6.639
 3886POPC   C3B51561   1.493  41.239   7.043
 3886POPC   C4B51562   1.490  41.145   7.491
 3887POPC   NC351563   6.054  42.694   5.543
 3887POPC   PO451564   5.957  42.088   5.328
 3887POPC   GL151565   5.902  42.164   5.787
 3887POPC   GL251566   5.972  42.450   5.973
 3887POPC   C1A51567   5.916  42.012   6.206
 3887POPC   D2A51568   6.055  42.293   6.508
 3887POPC   C3A51569   5.852  42.163   6.841
 3887POPC   C4A51570   5.954  42.147   7.247
 3887POPC   C1B51571   6.325  42.568   6.165
 3887POPC   C2B51572   6.481  42.607   6.579
 3887POPC   C3B51573   6.215  42.567   6.962
 3887POPC   C4B51574   6.057  42.681   7.372
 3888POPC   NC351575  32.647  12.889   5.456
 3888POPC   PO451576  32.078  13.081   5.442
 3888POPC   GL151577  32.098  12.717   5.702
 3888POPC   GL251578  32.369  12.877   5.882
 3888POPC   C1A51579  32.041  12.605   6.154
 3888POPC   D2A51580  32.383  12.789   6.390
 3888POPC   C3A51581  32.383  12.850   6.803
 3888POPC   C4A51582  32.306  12.811   7.249
 3888POPC   C1B51583  32.702  13.088   6.114
 3888POPC   C2B51584  32.662  13.240   6.543
 3888POPC   C3B51585  32.793  13.106   6.948
 3888POPC   C4B51586  32.712  13.188   7.361
 3889POPC   NC351587  26.515  38.514   5.364
 3889POPC   PO451588  27.172  38.411   5.389
 3889POPC   GL151589  26.849  38.293   5.719
 3889POPC   GL251590  26.712  38.614   5.816
 3889POPC   C1A51591  26.826  38.285   6.196
 3889POPC   D2A51592  26.745  38.445   6.625
 3889POPC   C3A51593  26.824  38.248   6.996
 3889POPC   C4A51594  27.102  38.275   7.316
 3889POPC   C1B51595  26.664  38.761   6.226
 3889POPC   C2B51596  26.422  38.838   6.603
 3889POPC   C3B51597  26.468  38.658   7.031
 3889POPC   C4B51598  26.577  38.762   7.481
 3890POPC   NC351599  36.181  36.489   5.506
 3890POPC   PO451600  36.017  35.975   5.138
 3890POPC   GL151601  36.062  36.019   5.689
 3890POPC   GL251602  36.249  36.127   5.918
 3890POPC   C1A51603  35.886  35.876   6.158
 3890POPC   D2A51604  35.747  36.058   6.569
 3890POPC   C3A51605  35.895  35.904   6.973
 3890POPC   C4A51606  36.048  35.969   7.382
 3890POPC   C1B51607  36.018  36.374   6.259
 3890POPC   C2B51608  36.104  36.382   6.712
 3890POPC   C3B51609  36.371  36.266   7.040
 3890POPC   C4B51610  36.443  36.465   7.425
 3891POPC   NC351611  37.305   2.478   5.475
 3891POPC   PO451612  37.909   2.939   5.477
 3891POPC   GL151613  37.740   2.874   5.858
 3891POPC   GL251614  37.393   2.794   5.904
 3891POPC   C1A51615  37.846   2.627   6.202
 3891POPC   D2A51616  37.640   2.529   6.586
 3891POPC   C3A51617  37.879   2.437   6.982
 3891POPC   C4A51618  38.028   2.753   7.268
 3891POPC   C1B51619  37.213   2.735   6.328
 3891POPC   C2B51620  37.284   2.816   6.787
 3891POPC   C3B51621  37.505   2.709   7.204
 3891POPC   C4B51622  37.300   2.594   7.625
 3892POPC   NC351623   5.883  34.112   5.471
 3892POPC   PO451624   6.282  33.622   5.432
 3892POPC   GL151625   5.996  33.676   5.806
 3892POPC   GL251626   5.836  33.973   5.961
 3892POPC   C1A51627   5.851  33.536   6.211
 3892POPC   D2A51628   6.037  33.606   6.597
 3892POPC   C3A51629   5.797  33.798   6.975
 3892POPC   C4A51630   5.782  33.775   7.453
 3892POPC   C1B51631   5.741  34.003   6.432
 3892POPC   C2B51632   5.853  34.267   6.817
 3892POPC   C3B51633   5.982  34.265   7.257
 3892POPC   C4B51634   6.029  34.160   7.714
 3893POPC   NC351635   5.268  40.401   5.396
 3893POPC   PO451636   5.114  39.654   5.383
 3893POPC   GL151637   5.223  39.802   5.789
 3893POPC   GL251638   5.196  40.171   5.849
 3893POPC   C1A51639   5.008  39.879   6.200
 3893POPC   D2A51640   4.949  40.037   6.627
 3893POPC   C3A51641   5.218  39.949   6.988
 3893POPC   C4A51642   4.889  40.082   7.249
 3893POPC   C1B51643   5.200  40.350   6.293
 3893POPC   C2B51644   5.315  40.389   6.743
 3893POPC   C3B51645   5.240  40.446   7.175
 3893POPC   C4B51646   5.283  40.339   7.614
 3894POPC   NC351647  28.117  30.892   5.318
 3894POPC   PO451648  28.231  30.296   5.607
 3894POPC   GL151649  28.421  30.662   5.778
 3894POPC   GL251650  28.533  30.969   5.615
 3894POPC   C1A51651  28.354  30.722   6.207
 3894POPC   D2A51652  28.068  30.656   6.507
 3894POPC   C3A51653  28.278  30.610   6.862
 3894POPC   C4A51654  28.178  30.911   7.146
 3894POPC   C1B51655  28.674  31.085   6.022
 3894POPC   C2B51656  28.698  31.127   6.478
 3894POPC   C3B51657  28.634  30.990   6.928
 3894POPC   C4B51658  28.700  30.582   7.173
 3895POPC   NC351659  11.849  29.458   5.438
 3895POPC   PO451660  12.279  30.058   5.400
 3895POPC   GL151661  12.090  30.102   5.805
 3895POPC   GL251662  11.806  29.860   5.778
 3895POPC   C1A51663  12.174  29.987   6.254
 3895POPC   D2A51664  12.379  29.840   6.654
 3895POPC   C3A51665  12.129  29.948   7.020
 3895POPC   C4A51666  12.012  30.016   7.454
 3895POPC   C1B51667  11.644  29.801   6.187
 3895POPC   C2B51668  11.814  29.864   6.599
 3895POPC   C3B51669  11.721  29.630   6.971
 3895POPC   C4B51670  11.553  29.800   7.327
 3896POPC   NC351671  12.698   6.971   5.295
 3896POPC   PO451672  13.086   6.438   5.177
 3896POPC   GL151673  12.984   6.551   5.616
 3896POPC   GL251674  12.688   6.368   5.802
 3896POPC   C1A51675  13.018   6.639   6.063
 3896POPC   D2A51676  13.170   6.535   6.466
 3896POPC   C3A51677  13.003   6.646   6.822
 3896POPC   C4A51678  13.109   6.624   7.249
 3896POPC   C1B51679  12.466   6.253   6.178
 3896POPC   C2B51680  12.569   6.395   6.621
 3896POPC   C3B51681  12.538   6.647   7.005
 3896POPC   C4B51682  12.644   6.717   7.430
 3897POPC   NC351683  41.942  40.071   5.606
 3897POPC   PO451684  41.341  39.764   5.435
 3897POPC   GL151685  41.409  40.024   5.795
 3897POPC   GL251686  41.644  39.805   5.890
 3897POPC   C1A51687  41.453  40.353   6.138
 3897POPC   D2A51688  41.307  40.395   6.563
 3897POPC   C3A51689  41.619  40.236   6.826
 3897POPC   C4A51690  41.584  40.067   7.210
 3897POPC   C1B51691  41.962  39.715   6.164
 3897POPC   C2B51692  41.769  39.854   6.510
 3897POPC   C3B51693  41.728  39.670   6.911
 3897POPC   C4B51694  41.780  39.630   7.357
 3898POPC   NC351695   8.386  20.251   5.331
 3898POPC   PO451696   8.926  20.614   5.456
 3898POPC   GL151697   8.968  20.452   5.856
 3898POPC   GL251698   8.704  20.218   5.747
 3898POPC   C1A51699   9.120  20.620   6.220
 3898POPC   D2A51700   8.994  20.768   6.611
 3898POPC   C3A51701   9.232  20.550   6.922
 3898POPC   C4A51702   8.942  20.676   7.219
 3898POPC   C1B51703   8.723  20.095   6.162
 3898POPC   C2B51704   8.872  20.288   6.525
 3898POPC   C3B51705   8.785  20.289   6.923
 3898POPC   C4B51706   8.769  20.202   7.335
 3899POPC   NC351707  38.468   9.433   5.180
 3899POPC   PO451708  38.097   8.845   5.328
 3899POPC   GL151709  38.208   8.940   5.756
 3899POPC   GL251710  38.545   9.092   5.720
 3899POPC   C1A51711  38.357   8.916   6.203
 3899POPC   D2A51712  38.451   8.720   6.603
 3899POPC   C3A51713  38.172   8.728   6.934
 3899POPC   C4A51714  38.327   8.899   7.280
 3899POPC   C1B51715  38.657   9.337   6.101
 3899POPC   C2B51716  38.543   9.275   6.539
 3899POPC   C3B51717  38.678   9.263   6.944
 3899POPC   C4B51718  38.681   9.269   7.359
 3900POPC   NC351719  20.964   3.440   5.215
 3900POPC   PO451720  20.375   3.737   5.452
 3900POPC   GL151721  20.574   3.626   5.814
 3900POPC   GL251722  20.915   3.630   5.708
 3900POPC   C1A51723  20.408   3.520   6.222
 3900POPC   D2A51724  20.345   3.707   6.626
 3900POPC   C3A51725  20.371   3.393   6.920
 3900POPC   C4A51726  20.488   3.475   7.335
 3900POPC   C1B51727  20.920   3.459   6.141
 3900POPC   C2B51728  20.788   3.453   6.562
 3900POPC   C3B51729  20.837   3.602   6.960
 3900POPC   C4B51730  20.994   3.520   7.367
 3901POPC   NC351731  31.849  28.535   5.244
 3901POPC   PO451732  31.279  28.254   5.404
 3901POPC   GL151733  31.499  28.393   5.767
 3901POPC   GL251734  31.847  28.336   5.755
 3901POPC   C1A51735  31.453  28.438   6.217
 3901POPC   D2A51736  31.549  28.452   6.659
 3901POPC   C3A51737  31.207  28.461   7.011
 3901POPC   C4A51738  31.239  28.149   7.298
 3901POPC   C1B51739  31.965  28.617   6.114
 3901POPC   C2B51740  32.072  28.844   6.494
 3901POPC   C3B51741  31.957  28.646   6.892
 3901POPC   C4B51742  31.676  28.465   7.186
 3902POPC   NC351743  44.705  34.514   5.223
 3902POPC   PO451744  44.739  35.171   5.454
 3902POPC   GL151745  44.593  34.738   5.666
 3902POPC   GL251746  44.463  34.852   5.982
 3902POPC   C1A51747  44.664  34.398   6.017
 3902POPC   D2A51748  44.561  34.499   6.478
 3902POPC   C3A51749  44.643  34.358   6.872
 3902POPC   C4A51750  44.726  34.365   7.278
 3902POPC   C1B51751  44.170  34.713   6.272
 3902POPC   C2B51752  44.189  34.813   6.712
 3902POPC   C3B51753  44.466  34.833   7.033
 3902POPC   C4B51754  44.454  34.751   7.442
 3903POPC   NC351755  32.511   1.303   5.170
 3903POPC   PO451756  33.143   1.522   5.445
 3903POPC   GL151757  33.083   1.275   5.828
 3903POPC   GL251758  32.869   1.510   6.041
 3903POPC   C1A51759  32.995   1.072   6.248
 3903POPC   D2A51760  32.792   1.168   6.633
 3903POPC   C3A51761  32.961   1.087   7.025
 3903POPC   C4A51762  32.803   0.914   7.415
 3903POPC   C1B51763  33.278   1.493   6.264
 3903POPC   C2B51764  33.389   1.209   6.612
 3903POPC   C3B51765  33.518   1.274   7.042
 3903POPC   C4B51766  33.422   1.597   7.356
 3904POPC   NC351767  35.031  22.624   5.194
 3904POPC   PO451768  35.549  22.189   5.331
 3904POPC   GL151769  35.437  22.342   5.746
 3904POPC   GL251770  35.101  22.171   5.805
 3904POPC   C1A51771  35.386  22.329   6.226
 3904POPC   D2A51772  35.173  22.203   6.634
 3904POPC   C3A51773  35.353  22.297   7.015
 3904POPC   C4A51774  35.701  22.029   7.087
 3904POPC   C1B51775  34.881  22.308   6.203
 3904POPC   C2B51776  34.796  22.535   6.589
 3904POPC   C3B51777  34.825  22.365   7.005
 3904POPC   C4B51778  34.925  22.430   7.431
 3905POPC   NC351779  20.185   5.124   5.274
 3905POPC   PO451780  20.753   5.403   5.527
 3905POPC   GL151781  20.558   5.109   5.812
 3905POPC   GL251782  20.201   5.209   5.789
 3905POPC   C1A51783  20.709   4.934   6.233
 3905POPC   D2A51784  20.812   4.736   6.655
 3905POPC   C3A51785  20.713   4.972   7.039
 3905POPC   C4A51786  20.808   5.144   7.463
 3905POPC   C1B51787  20.214   5.064   6.238
 3905POPC   C2B51788  20.305   4.896   6.646
 3905POPC   C3B51789  20.207   5.029   7.070
 3905POPC   C4B51790  20.366   4.850   7.448
 3906POPC   NC351791  10.523   7.366   5.327
 3906POPC   PO451792  11.139   7.206   5.504
 3906POPC   GL151793  10.926   7.479   5.821
 3906POPC   GL251794  10.545   7.534   5.822
 3906POPC   C1A51795  10.763   7.384   6.247
 3906POPC   D2A51796  10.535   7.344   6.626
 3906POPC   C3A51797  10.651   7.538   6.973
 3906POPC   C4A51798  10.526   7.258   7.220
 3906POPC   C1B51799  10.264   7.555   6.216
 3906POPC   C2B51800  10.087   7.593   6.668
 3906POPC   C3B51801  10.153   7.632   7.141
 3906POPC   C4B51802   9.976   7.791   7.579
 3907POPC   NC351803  32.250   2.183   5.564
 3907POPC   PO451804  32.144   1.484   5.461
 3907POPC   GL151805  32.262   1.725   5.821
 3907POPC   GL251806  31.926   1.816   5.815
 3907POPC   C1A51807  32.520   1.912   6.160
 3907POPC   D2A51808  32.414   2.143   6.522
 3907POPC   C3A51809  32.432   1.954   6.921
 3907POPC   C4A51810  32.302   2.256   7.238
 3907POPC   C1B51811  32.017   1.987   6.210
 3907POPC   C2B51812  31.990   1.867   6.619
 3907POPC   C3B51813  31.934   2.112   6.922
 3907POPC   C4B51814  31.836   2.076   7.317
 3908POPC   NC351815   5.840   0.697   5.442
 3908POPC   PO451816   5.740   0.093   5.610
 3908POPC   GL151817   5.831   0.401   5.903
 3908POPC   GL251818   6.077   0.685   5.875
 3908POPC   C1A51819   5.684   0.391   6.316
 3908POPC   D2A51820   5.620   0.685   6.636
 3908POPC   C3A51821   5.659   0.465   6.995
 3908POPC   C4A51822   5.303   0.246   7.148
 3908POPC   C1B51823   5.946   0.810   6.254
 3908POPC   C2B51824   6.112   0.603   6.633
 3908POPC   C3B51825   6.161   0.668   7.071
 3908POPC   C4B51826   6.018   0.415   7.384
 3909POPC   NC351827  22.554   6.147   5.233
 3909POPC   PO451828  23.011   5.724   5.477
 3909POPC   GL151829  22.952   5.750   5.883
 3909POPC   GL251830  22.597   5.673   5.836
 3909POPC   C1A51831  23.033   5.897   6.316
 3909POPC   D2A51832  22.985   5.585   6.660
 3909POPC   C3A51833  23.271   5.676   6.969
 3909POPC   C4A51834  23.215   6.009   7.208
 3909POPC   C1B51835  22.606   5.620   6.280
 3909POPC   C2B51836  22.607   5.927   6.647
 3909POPC   C3B51837  22.640   5.991   7.109
 3909POPC   C4B51838  22.371   5.899   7.492
 3910POPC   NC351839  29.900  24.216   5.474
 3910POPC   PO451840  30.275  24.714   5.481
 3910POPC   GL151841  29.978  24.588   5.818
 3910POPC   GL251842  29.610  24.581   5.681
 3910POPC   C1A51843  30.123  24.507   6.241
 3910POPC   D2A51844  30.342  24.662   6.612
 3910POPC   C3A51845  30.227  24.399   6.941
 3910POPC   C4A51846  30.252  24.406   7.366
 3910POPC   C1B51847  29.528  24.674   6.102
 3910POPC   C2B51848  29.660  24.543   6.500
 3910POPC   C3B51849  29.827  24.709   6.839
 3910POPC   C4B51850  29.827  24.737   7.253
 3911POPC   NC351851  40.907  29.798   5.372
 3911POPC   PO451852  41.582  30.120   5.318
 3911POPC   GL151853  41.512  29.927   5.718
 3911POPC   GL251854  41.547  30.229   5.840
 3911POPC   C1A51855  41.491  29.856   6.196
 3911POPC   D2A51856  41.718  29.720   6.601
 3911POPC   C3A51857  41.514  29.860   7.025
 3911POPC   C4A51858  41.260  29.662   7.363
 3911POPC   C1B51859  41.645  30.361   6.236
 3911POPC   C2B51860  41.505  30.185   6.600
 3911POPC   C3B51861  41.662  30.334   6.940
 3911POPC   C4B51862  41.581  30.271   7.338
 3912POPC   NC351863   0.844  13.660   5.378
 3912POPC   PO451864   1.508  13.506   5.399
 3912POPC   GL151865   1.398  13.506   5.816
 3912POPC   GL251866   1.132  13.732   5.800
 3912POPC   C1A51867   1.373  13.637   6.257
 3912POPC   D2A51868   1.165  13.865   6.591
 3912POPC   C3A51869   1.343  13.823   6.992
 3912POPC   C4A51870   1.516  13.482   7.271
 3912POPC   C1B51871   0.887  13.929   6.111
 3912POPC   C2B51872   0.837  14.229   6.477
 3912POPC   C3B51873   0.807  14.052   6.914
 3912POPC   C4B51874   0.930  13.730   7.251
 3913POPC   NC351875  38.382  29.424   5.318
 3913POPC   PO451876  38.754  28.811   5.428
 3913POPC   GL151877  38.679  29.129   5.724
 3913POPC   GL251878  38.311  29.184   5.790
 3913POPC   C1A51879  38.705  29.352   6.102
 3913POPC   D2A51880  38.456  29.335   6.467
 3913POPC   C3A51881  38.716  29.371   6.844
 3913POPC   C4A51882  38.712  29.395   7.281
 3913POPC   C1B51883  38.406  28.867   6.128
 3913POPC   C2B51884  38.327  28.687   6.544
 3913POPC   C3B51885  38.440  28.884   6.910
 3913POPC   C4B51886  38.506  28.851   7.315
 3914POPC   NC351887  40.451  30.443   5.560
 3914POPC   PO451888  39.896  30.074   5.310
 3914POPC   GL151889  40.127  30.023   5.709
 3914POPC   GL251890  40.187  29.697   5.845
 3914POPC   C1A51891  39.965  30.018   6.163
 3914POPC   D2A51892  40.146  30.111   6.577
 3914POPC   C3A51893  39.910  30.102   6.936
 3914POPC   C4A51894  39.909  29.893   7.353
 3914POPC   C1B51895  40.251  29.487   6.215
 3914POPC   C2B51896  40.100  29.317   6.593
 3914POPC   C3B51897  40.018  29.615   6.887
 3914POPC   C4B51898  40.353  29.751   7.135
 3915POPC   NC351899  24.164  38.765   5.377
 3915POPC   PO451900  24.041  39.408   5.502
 3915POPC   GL151901  23.787  39.156   5.800
 3915POPC   GL251902  23.851  38.836   5.884
 3915POPC   C1A51903  23.676  39.203   6.235
 3915POPC   D2A51904  23.467  39.062   6.612
 3915POPC   C3A51905  23.677  39.217   6.985
 3915POPC   C4A51906  23.686  39.565   7.298
 3915POPC   C1B51907  23.984  38.782   6.292
 3915POPC   C2B51908  23.901  38.786   6.721
 3915POPC   C3B51909  24.009  38.832   7.130
 3915POPC   C4B51910  23.937  39.113   7.452
 3916POPC   NC351911  34.198  23.035   5.371
 3916POPC   PO451912  34.899  23.015   5.413
 3916POPC   GL151913  34.570  22.900   5.725
 3916POPC   GL251914  34.399  23.217   5.824
 3916POPC   C1A51915  34.590  22.768   6.177
 3916POPC   D2A51916  34.582  23.037   6.561
 3916POPC   C3A51917  34.604  22.829   6.970
 3916POPC   C4A51918  34.340  22.529   7.184
 3916POPC   C1B51919  34.832  23.217   6.061
 3916POPC   C2B51920  35.076  23.168   6.453
 3916POPC   C3B51921  35.022  23.295   6.884
 3916POPC   C4B51922  34.825  23.155   7.286
 3917POPC   NC351923  29.064  16.124   5.194
 3917POPC   PO451924  29.465  16.411   5.661
 3917POPC   GL151925  29.251  16.001   5.733
 3917POPC   GL251926  28.997  16.164   5.857
 3917POPC   C1A51927  29.150  15.701   6.102
 3917POPC   D2A51928  29.032  15.761   6.563
 3917POPC   C3A51929  29.210  15.611   6.953
 3917POPC   C4A51930  29.326  15.894   7.278
 3917POPC   C1B51931  29.241  16.184   6.237
 3917POPC   C2B51932  29.474  16.475   6.489
 3917POPC   C3B51933  29.596  16.367   6.908
 3917POPC   C4B51934  29.402  16.398   7.310
 3918POPC   NC351935  42.380  13.879   5.436
 3918POPC   PO451936  42.624  13.265   5.477
 3918POPC   GL151937  42.556  13.561   5.794
 3918POPC   GL251938  42.194  13.653   5.873
 3918POPC   C1A51939  42.541  13.509   6.208
 3918POPC   D2A51940  42.259  13.537   6.535
 3918POPC   C3A51941  42.457  13.744   6.854
 3918POPC   C4A51942  42.441  13.619   7.251
 3918POPC   C1B51943  41.913  13.784   6.215
 3918POPC   C2B51944  41.936  13.930   6.646
 3918POPC   C3B51945  41.984  13.744   7.064
 3918POPC   C4B51946  42.047  13.787   7.559
 3919POPC   NC351947  42.713   1.048   5.126
 3919POPC   PO451948  42.114   0.804   5.400
 3919POPC   GL151949  42.263   0.998   5.764
 3919POPC   GL251950  42.403   1.331   5.707
 3919POPC   C1A51951  42.383   1.008   6.191
 3919POPC   D2A51952  42.384   0.732   6.535
 3919POPC   C3A51953  42.349   1.012   6.924
 3919POPC   C4A51954  42.208   1.042   7.374
 3919POPC   C1B51955  42.508   1.508   6.129
 3919POPC   C2B51956  42.525   1.342   6.560
 3919POPC   C3B51957  42.475   1.526   6.967
 3919POPC   C4B51958  42.489   1.447   7.366
 3920POPC   NC351959  36.733  30.080   5.364
 3920POPC   PO451960  37.111  29.409   5.469
 3920POPC   GL151961  36.965  29.818   5.724
 3920POPC   GL251962  37.031  30.199   5.783
 3920POPC   C1A51963  36.657  29.990   6.075
 3920POPC   D2A51964  36.357  29.891   6.424
 3920POPC   C3A51965  36.550  30.054   6.811
 3920POPC   C4A51966  36.557  29.913   7.232
 3920POPC   C1B51967  37.093  30.264   6.226
 3920POPC   C2B51968  37.009  29.935   6.539
 3920POPC   C3B51969  36.994  29.889   6.997
 3920POPC   C4B51970  36.903  30.279   7.186
 3921POPC   NC351971  30.642   6.578   5.397
 3921POPC   PO451972  31.218   6.923   5.335
 3921POPC   GL151973  30.920   6.906   5.725
 3921POPC   GL251974  30.861   6.578   5.845
 3921POPC   C1A51975  30.676   6.940   6.141
 3921POPC   D2A51976  30.490   6.742   6.511
 3921POPC   C3A51977  30.733   6.693   6.858
 3921POPC   C4A51978  30.608   6.836   7.235
 3921POPC   C1B51979  30.859   6.252   6.088
 3921POPC   C2B51980  30.783   6.283   6.495
 3921POPC   C3B51981  30.492   6.238   6.806
 3921POPC   C4B51982  30.453   6.321   7.235
 3922POPC   NC351983   4.453  29.220   5.356
 3922POPC   PO451984   4.840  28.763   5.563
 3922POPC   GL151985   4.531  28.868   5.858
 3922POPC   GL251986   4.187  29.011   5.794
 3922POPC   C1A51987   4.493  28.976   6.275
 3922POPC   D2A51988   4.543  29.300   6.574
 3922POPC   C3A51989   4.624  29.131   6.966
 3922POPC   C4A51990   4.355  29.031   7.265
 3922POPC   C1B51991   4.005  28.845   6.207
 3922POPC   C2B51992   4.157  28.840   6.658
 3922POPC   C3B51993   3.924  28.881   7.043
 3922POPC   C4B51994   3.895  28.967   7.478
 3923POPC   NC351995  44.190  42.749   5.363
 3923POPC   PO451996  43.781  42.269   5.224
 3923POPC   GL151997  43.891  42.465   5.675
 3923POPC   GL251998  44.099  42.712   5.867
 3923POPC   C1A51999  43.813  42.351   6.116
 3923POPC   D2A52000  43.672  42.284   6.554
 3923POPC   C3A52001  43.974  42.168   6.890
 3923POPC   C4A52002  43.822  42.253   7.305
 3923POPC   C1B52003  44.099  42.709   6.344
 3923POPC   C2B52004  44.024  42.656   6.788
 3923POPC   C3B52005  44.231  42.519   7.167
 3923POPC   C4B52006  44.364  42.766   7.479
 3924POPC   NC352007  40.791   9.481   5.087
 3924POPC   PO452008  40.564   9.937   5.557
 3924POPC   GL152009  40.793   9.856   5.926
 3924POPC   GL252010  40.634   9.574   6.079
 3924POPC   C1A52011  40.986   9.910   6.304
 3924POPC   D2A52012  41.299   9.944   6.617
 3924POPC   C3A52013  41.066   9.731   6.926
 3924POPC   C4A52014  40.995   9.920   7.294
 3924POPC   C1B52015  40.262   9.357   6.168
 3924POPC   C2B52016  40.313   9.543   6.546
 3924POPC   C3B52017  40.463   9.419   6.933
 3924POPC   C4B52018  40.577   9.675   7.255
 3925POPC   NC352019  25.830  32.010   5.350
 3925POPC   PO452020  25.925  32.684   5.468
 3925POPC   GL152021  25.806  32.324   5.752
 3925POPC   GL252022  26.095  32.094   5.805
 3925POPC   C1A52023  25.745  32.074   6.151
 3925POPC   D2A52024  26.004  32.018   6.542
 3925POPC   C3A52025  25.816  32.100   6.961
 3925POPC   C4A52026  25.807  32.402   7.331
 3925POPC   C1B52027  26.106  32.429   6.151
 3925POPC   C2B52028  26.231  32.495   6.591
 3925POPC   C3B52029  26.237  32.372   7.039
 3925POPC   C4B52030  26.344  32.459   7.475
 3926POPC   NC352031  18.100   3.774   5.527
 3926POPC   PO452032  18.672   3.409   5.350
 3926POPC   GL152033  18.503   3.540   5.751
 3926POPC   GL252034  18.356   3.233   5.767
 3926POPC   C1A52035  18.237   3.616   6.158
 3926POPC   D2A52036  18.127   3.868   6.556
 3926POPC   C3A52037  18.342   3.842   6.962
 3926POPC   C4A52038  18.185   3.704   7.345
 3926POPC   C1B52039  18.175   3.099   6.158
 3926POPC   C2B52040  18.330   3.145   6.563
 3926POPC   C3B52041  18.217   3.330   6.954
 3926POPC   C4B52042  18.454   3.255   7.315
 3927POPC   NC352043  42.945   5.883   5.430
 3927POPC   PO452044  43.508   5.655   5.498
 3927POPC   GL152045  43.297   5.740   5.865
 3927POPC   GL252046  43.615   5.780   6.006
 3927POPC   C1A52047  43.174   5.731   6.326
 3927POPC   D2A52048  43.018   5.680   6.760
 3927POPC   C3A52049  43.135   5.962   7.132
 3927POPC   C4A52050  43.497   5.889   7.432
 3927POPC   C1B52051  43.495   6.121   6.269
 3927POPC   C2B52052  43.375   6.108   6.686
 3927POPC   C3B52053  43.433   6.371   7.038
 3927POPC   C4B52054  43.464   6.417   7.480
 3928POPC   NC352055  34.166   2.278   5.504
 3928POPC   PO452056  33.931   1.644   5.402
 3928POPC   GL152057  33.822   1.972   5.772
 3928POPC   GL252058  33.991   2.256   5.975
 3928POPC   C1A52059  33.530   2.005   6.154
 3928POPC   D2A52060  33.347   1.890   6.588
 3928POPC   C3A52061  33.530   2.074   6.910
 3928POPC   C4A52062  33.699   2.034   7.288
 3928POPC   C1B52063  33.999   2.001   6.341
 3928POPC   C2B52064  33.992   2.055   6.738
 3928POPC   C3B52065  34.107   2.269   7.079
 3928POPC   C4B52066  34.232   1.941   7.267
 3929POPC   NC352067   8.199  19.425   5.157
 3929POPC   PO452068   8.233  19.908   5.604
 3929POPC   GL152069   8.237  19.881   5.993
 3929POPC   GL252070   8.255  20.255   5.955
 3929POPC   C1A52071   8.199  19.621   6.360
 3929POPC   D2A52072   8.451  19.507   6.685
 3929POPC   C3A52073   8.231  19.611   7.067
 3929POPC   C4A52074   8.327  19.448   7.488
 3929POPC   C1B52075   8.254  20.218   6.368
 3929POPC   C2B52076   8.408  20.028   6.686
 3929POPC   C3B52077   8.306  20.126   7.082
 3929POPC   C4B52078   7.983  20.238   7.322
 3930POPC   NC352079   1.500   6.194   5.500
 3930POPC   PO452080   1.155   5.744   5.143
 3930POPC   GL152081   1.274   5.731   5.646
 3930POPC   GL252082   1.608   5.704   5.786
 3930POPC   C1A52083   1.258   5.928   6.111
 3930POPC   D2A52084   0.997   6.160   6.409
 3930POPC   C3A52085   1.031   5.950   6.799
 3930POPC   C4A52086   1.284   5.960   7.162
 3930POPC   C1B52087   1.459   5.463   6.138
 3930POPC   C2B52088   1.370   5.619   6.558
 3930POPC   C3B52089   1.514   5.493   6.982
 3930POPC   C4B52090   1.433   5.568   7.426
 3931POPC   NC352091   7.199  13.766   5.371
 3931POPC   PO452092   7.503  13.186   5.460
 3931POPC   GL152093   7.470  13.503   5.790
 3931POPC   GL252094   7.386  13.861   5.829
 3931POPC   C1A52095   7.284  13.551   6.218
 3931POPC   D2A52096   7.301  13.777   6.596
 3931POPC   C3A52097   7.289  13.493   6.932
 3931POPC   C4A52098   6.974  13.221   7.183
 3931POPC   C1B52099   7.633  13.949   6.220
 3931POPC   C2B52100   7.587  14.216   6.589
 3931POPC   C3B52101   7.415  14.079   7.017
 3931POPC   C4B52102   7.312  14.008   7.474
 3932POPC   NC352103  21.593  38.913   5.440
 3932POPC   PO452104  21.220  39.629   5.309
 3932POPC   GL152105  21.298  39.316   5.635
 3932POPC   GL252106  21.486  39.566   5.814
 3932POPC   C1A52107  21.349  39.039   6.029
 3932POPC   D2A52108  21.630  39.072   6.395
 3932POPC   C3A52109  21.525  38.969   6.838
 3932POPC   C4A52110  21.618  39.232   7.184
 3932POPC   C1B52111  21.136  39.495   6.079
 3932POPC   C2B52112  21.048  39.435   6.508
 3932POPC   C3B52113  21.224  39.403   6.914
 3932POPC   C4B52114  21.101  39.426   7.370
 3933POPC   NC352115  33.422   1.909   5.450
 3933POPC   PO452116  32.674   1.961   5.496
 3933POPC   GL152117  32.903   2.088   5.846
 3933POPC   GL252118  32.748   2.398   5.934
 3933POPC   C1A52119  33.029   1.943   6.214
 3933POPC   D2A52120  32.850   1.663   6.538
 3933POPC   C3A52121  33.065   1.645   6.948
 3933POPC   C4A52122  33.141   2.018   7.223
 3933POPC   C1B52123  32.835   2.376   6.329
 3933POPC   C2B52124  32.899   2.149   6.692
 3933POPC   C3B52125  32.747   2.345   7.024
 3933POPC   C4B52126  32.842   2.629   7.298
 3934POPC   NC352127  39.142  37.733   5.388
 3934POPC   PO452128  38.640  37.803   5.781
 3934POPC   GL152129  39.030  37.535   5.851
 3934POPC   GL252130  39.225  37.843   5.892
 3934POPC   C1A52131  39.439  37.429   6.109
 3934POPC   D2A52132  39.609  37.509   6.555
 3934POPC   C3A52133  39.284  37.598   6.856
 3934POPC   C4A52134  39.152  37.395   7.209
 3934POPC   C1B52135  39.488  38.117   6.163
 3934POPC   C2B52136  39.711  38.048   6.572
 3934POPC   C3B52137  39.712  37.844   6.978
 3934POPC   C4B52138  39.386  37.927   7.254
 3935POPC   NC352139  11.855   8.595   5.516
 3935POPC   PO452140  12.277   9.042   5.499
 3935POPC   GL152141  12.158   8.845   5.868
 3935POPC   GL252142  11.838   8.988   5.860
 3935POPC   C1A52143  12.071   8.807   6.315
 3935POPC   D2A52144  12.021   8.556   6.672
 3935POPC   C3A52145  12.068   8.865   6.999
 3935POPC   C4A52146  12.404   9.178   7.036
 3935POPC   C1B52147  11.730   9.181   6.230
 3935POPC   C2B52148  11.675   9.021   6.612
 3935POPC   C3B52149  11.605   9.246   6.942
 3935POPC   C4B52150  11.674   9.069   7.287
 3936POPC   NC352151  16.664   6.543   5.347
 3936POPC   PO452152  16.862   7.097   5.458
 3936POPC   GL152153  16.757   6.854   5.805
 3936POPC   GL252154  16.422   6.738   5.886
 3936POPC   C1A52155  16.898   6.753   6.221
 3936POPC   D2A52156  17.153   6.726   6.591
 3936POPC   C3A52157  16.966   6.683   6.968
 3936POPC   C4A52158  16.773   7.028   7.065
 3936POPC   C1B52159  16.409   6.862   6.315
 3936POPC   C2B52160  16.546   6.652   6.686
 3936POPC   C3B52161  16.469   6.633   7.147
 3936POPC   C4B52162  16.304   6.395   7.483
 3937POPC   NC352163  41.775  39.614   5.354
 3937POPC   PO452164  41.383  39.071   5.417
 3937POPC   GL152165  41.516  39.336   5.754
 3937POPC   GL252166  41.899  39.347   5.764
 3937POPC   C1A52167  41.394  39.492   6.194
 3937POPC   D2A52168  41.193  39.382   6.607
 3937POPC   C3A52169  41.291  39.490   7.078
 3937POPC   C4A52170  41.359  39.379   7.548
 3937POPC   C1B52171  41.857  39.187   6.137
 3937POPC   C2B52172  41.767  39.343   6.512
 3937POPC   C3B52173  41.589  39.155   6.827
 3937POPC   C4B52174  41.662  39.149   7.223
 3938POPC   NC352175  34.249  22.036   5.401
 3938POPC   PO452176  34.724  22.446   5.492
 3938POPC   GL152177  34.568  22.185   5.810
 3938POPC   GL252178  34.692  21.842   5.701
 3938POPC   C1A52179  34.370  22.283   6.233
 3938POPC   D2A52180  34.305  22.414   6.680
 3938POPC   C3A52181  34.401  22.062   6.986
 3938POPC   C4A52182  34.586  22.058   7.391
 3938POPC   C1B52183  34.682  21.815   6.155
 3938POPC   C2B52184  34.693  22.016   6.574
 3938POPC   C3B52185  34.897  21.855   6.947
 3938POPC   C4B52186  35.101  21.971   7.320
 3939POPC   NC352187  33.758  23.782   5.387
 3939POPC   PO452188  34.284  23.453   5.217
 3939POPC   GL152189  34.131  23.674   5.732
 3939POPC   GL252190  33.709  23.660   5.863
 3939POPC   C1A52191  34.028  23.726   6.232
 3939POPC   D2A52192  34.165  23.701   6.674
 3939POPC   C3A52193  33.944  23.815   7.059
 3939POPC   C4A52194  34.130  23.954   7.446
 3939POPC   C1B52195  33.475  23.610   6.246
 3939POPC   C2B52196  33.551  23.851   6.619
 3939POPC   C3B52197  33.408  23.928   7.026
 3939POPC   C4B52198  33.411  23.556   7.252
 3940POPC   NC352199   4.585   6.326   5.248
 3940POPC   PO452200   3.969   6.565   5.327
 3940POPC   GL152201   4.268   6.475   5.707
 3940POPC   GL252202   4.419   6.807   5.861
 3940POPC   C1A52203   4.182   6.518   6.189
 3940POPC   D2A52204   4.424   6.470   6.572
 3940POPC   C3A52205   4.421   6.740   6.933
 3940POPC   C4A52206   4.369   6.393   7.258
 3940POPC   C1B52207   4.620   6.856   6.296
 3940POPC   C2B52208   4.919   6.643   6.608
 3940POPC   C3B52209   4.852   6.543   7.071
 3940POPC   C4B52210   4.617   6.791   7.425
 3941POPC   NC352211  21.050  25.281   5.521
 3941POPC   PO452212  21.444  25.682   5.153
 3941POPC   GL152213  21.492  25.472   5.708
 3941POPC   GL252214  21.402  25.622   6.062
 3941POPC   C1A52215  21.480  25.135   6.082
 3941POPC   D2A52216  21.611  25.256   6.519
 3941POPC   C3A52217  21.485  25.083   6.906
 3941POPC   C4A52218  21.651  25.267   7.289
 3941POPC   C1B52219  21.126  25.389   6.350
 3941POPC   C2B52220  21.003  25.277   6.765
 3941POPC   C3B52221  21.044  25.267   7.196
 3941POPC   C4B52222  20.691  25.373   7.431
 3942POPC   NC352223  28.986   3.433   5.341
 3942POPC   PO452224  29.431   3.890   5.481
 3942POPC   GL152225  29.155   3.624   5.792
 3942POPC   GL252226  28.898   3.302   5.807
 3942POPC   C1A52227  29.255   3.446   6.186
 3942POPC   D2A52228  29.291   3.610   6.580
 3942POPC   C3A52229  29.364   3.346   6.906
 3942POPC   C4A52230  29.360   3.554   7.297
 3942POPC   C1B52231  28.741   3.389   6.184
 3942POPC   C2B52232  28.910   3.283   6.579
 3942POPC   C3B52233  28.889   3.539   6.929
 3942POPC   C4B52234  28.873   3.324   7.293
 3943POPC   NC352235  37.096   1.742   5.462
 3943POPC   PO452236  36.692   2.295   5.482
 3943POPC   GL152237  36.793   1.991   5.764
 3943POPC   GL252238  37.150   2.089   5.817
 3943POPC   C1A52239  36.767   1.685   6.103
 3943POPC   D2A52240  36.952   1.694   6.513
 3943POPC   C3A52241  36.707   1.635   6.875
 3943POPC   C4A52242  36.770   1.761   7.304
 3943POPC   C1B52243  36.970   2.145   6.218
 3943POPC   C2B52244  36.933   2.351   6.588
 3943POPC   C3B52245  36.874   2.116   6.942
 3943POPC   C4B52246  36.995   2.246   7.349
 3944POPC   NC352247  40.329  32.704   5.400
 3944POPC   PO452248  39.701  32.985   5.509
 3944POPC   GL152249  39.913  32.940   5.891
 3944POPC   GL252250  40.243  33.049   5.801
 3944POPC   C1A52251  39.910  32.922   6.341
 3944POPC   D2A52252  40.136  32.667   6.674
 3944POPC   C3A52253  40.089  32.853   7.089
 3944POPC   C4A52254  39.647  32.780   7.169
 3944POPC   C1B52255  40.422  32.946   6.213
 3944POPC   C2B52256  40.308  33.178   6.575
 3944POPC   C3B52257  40.374  33.402   6.957
 3944POPC   C4B52258  40.232  33.332   7.364
 3945POPC   NC352259  32.228   0.643   5.461
 3945POPC   PO452260  32.351   0.014   5.446
 3945POPC   GL152261  32.272   0.235   5.810
 3945POPC   GL252262  32.599   0.378   5.763
 3945POPC   C1A52263  32.156   0.248   6.267
 3945POPC   D2A52264  32.261   0.093   6.706
 3945POPC   C3A52265  32.178   0.394   7.050
 3945POPC   C4A52266  31.973   0.365   7.466
 3945POPC   C1B52267  32.464   0.660   6.115
 3945POPC   C2B52268  32.539   0.719   6.593
 3945POPC   C3B52269  32.429   0.842   7.048
 3945POPC   C4B52270  32.410   0.623   7.469
 3946POPC   NC352271  36.217  37.686   5.078
 3946POPC   PO452272  36.020  37.542   5.677
 3946POPC   GL152273  36.085  37.851   5.937
 3946POPC   GL252274  35.785  38.081   5.928
 3946POPC   C1A52275  36.278  37.751   6.334
 3946POPC   D2A52276  36.514  37.496   6.642
 3946POPC   C3A52277  36.345  37.779   6.939
 3946POPC   C4A52278  35.971  37.714   7.134
 3946POPC   C1B52279  35.772  37.906   6.329
 3946POPC   C2B52280  35.930  37.982   6.689
 3946POPC   C3B52281  35.685  38.101   7.002
 3946POPC   C4B52282  35.812  38.168   7.383
 3947POPC   NC352283  25.802  20.071   5.396
 3947POPC   PO452284  26.248  19.601   5.192
 3947POPC   GL152285  26.098  19.749   5.669
 3947POPC   GL252286  25.834  19.582   5.862
 3947POPC   C1A52287  25.974  20.054   6.054
 3947POPC   D2A52288  25.939  20.290   6.483
 3947POPC   C3A52289  25.916  20.118   6.928
 3947POPC   C4A52290  26.167  20.138   7.317
 3947POPC   C1B52291  26.152  19.591   6.198
 3947POPC   C2B52292  26.037  19.678   6.641
 3947POPC   C3B52293  25.824  19.609   7.046
 3947POPC   C4B52294  25.886  19.719   7.491
 3948POPC   NC352295  29.594  25.168   5.425
 3948POPC   PO452296  29.994  25.655   5.295
 3948POPC   GL152297  29.988  25.467   5.707
 3948POPC   GL252298  29.681  25.611   5.718
 3948POPC   C1A52299  29.869  25.173   6.081
 3948POPC   D2A52300  29.861  25.335   6.532
 3948POPC   C3A52301  29.972  25.177   6.964
 3948POPC   C4A52302  30.285  24.877   7.098
 3948POPC   C1B52303  29.596  25.598   6.122
 3948POPC   C2B52304  29.627  25.816   6.486
 3948POPC   C3B52305  29.710  25.682   6.877
 3948POPC   C4B52306  29.647  25.465   7.240
 3949POPC   NC352307   7.899  36.033   5.528
 3949POPC   PO452308   8.514  36.268   5.402
 3949POPC   GL152309   8.347  36.006   5.770
 3949POPC   GL252310   8.181  36.292   5.903
 3949POPC   C1A52311   8.374  35.964   6.222
 3949POPC   D2A52312   8.211  36.266   6.551
 3949POPC   C3A52313   8.135  36.009   6.866
 3949POPC   C4A52314   8.413  36.036   7.161
 3949POPC   C1B52315   7.878  36.084   6.214
 3949POPC   C2B52316   7.655  36.335   6.510
 3949POPC   C3B52317   7.767  36.387   6.913
 3949POPC   C4B52318   7.996  36.291   7.291
 3950POPC   NC352319  40.552  43.766   5.375
 3950POPC   PO452320  40.037  44.285   5.523
 3950POPC   GL152321  40.517  44.160   5.759
 3950POPC   GL252322  40.664  43.800   5.843
 3950POPC   C1A52323  40.757  44.132   6.194
 3950POPC   D2A52324  40.742  44.390   6.530
 3950POPC   C3A52325  40.737  44.168   6.930
 3950POPC   C4A52326  40.947  44.167   7.334
 3950POPC   C1B52327  40.660  43.628   6.233
 3950POPC   C2B52328  40.897  43.756   6.609
 3950POPC   C3B52329  41.087  43.729   7.022
 3950POPC   C4B52330  40.927  43.684   7.451
 3951POPC   NC352331  27.260  34.002   5.216
 3951POPC   PO452332  27.660  33.465   5.313
 3951POPC   GL152333  27.621  33.677   5.697
 3951POPC   GL252334  27.438  33.982   5.702
 3951POPC   C1A52335  27.555  33.634   6.131
 3951POPC   D2A52336  27.729  33.843   6.498
 3951POPC   C3A52337  27.620  33.593   6.855
 3951POPC   C4A52338  27.591  33.703   7.270
 3951POPC   C1B52339  27.601  34.149   6.073
 3951POPC   C2B52340  27.394  34.250   6.466
 3951POPC   C3B52341  27.450  34.084   6.881
 3951POPC   C4B52342  27.741  34.176   7.205
 3952POPC   NC352343  38.152  25.577   5.136
 3952POPC   PO452344  37.663  25.158   5.390
 3952POPC   GL152345  37.681  25.336   5.779
 3952POPC   GL252346  37.973  25.497   5.717
 3952POPC   C1A52347  37.585  25.282   6.207
 3952POPC   D2A52348  37.814  25.298   6.568
 3952POPC   C3A52349  37.629  25.218   6.944
 3952POPC   C4A52350  37.446  25.288   7.321
 3952POPC   C1B52351  37.953  25.657   6.158
 3952POPC   C2B52352  38.201  25.637   6.552
 3952POPC   C3B52353  37.944  25.662   6.906
 3952POPC   C4B52354  37.893  25.552   7.320
 3953POPC   NC352355  38.350  16.116   5.161
 3953POPC   PO452356  38.523  15.592   5.479
 3953POPC   GL152357  38.302  15.802   5.825
 3953POPC   GL252358  38.532  16.017   6.039
 3953POPC   C1A52359  38.137  15.817   6.279
 3953POPC   D2A52360  38.306  16.101   6.604
 3953POPC   C3A52361  38.429  15.886   6.969
 3953POPC   C4A52362  38.702  15.581   7.164
 3953POPC   C1B52363  38.627  16.410   6.281
 3953POPC   C2B52364  38.708  16.484   6.724
 3953POPC   C3B52365  38.669  16.342   7.183
 3953POPC   C4B52366  38.452  16.463   7.597
 3954POPC   NC352367  31.060  16.803   5.389
 3954POPC   PO452368  31.653  17.140   5.363
 3954POPC   GL152369  31.577  17.005   5.799
 3954POPC   GL252370  31.400  16.722   5.787
 3954POPC   C1A52371  31.715  16.659   6.167
 3954POPC   D2A52372  31.619  16.479   6.592
 3954POPC   C3A52373  31.784  16.655   6.972
 3954POPC   C4A52374  31.566  16.879   7.305
 3954POPC   C1B52375  31.303  16.942   6.229
 3954POPC   C2B52376  31.264  16.909   6.710
 3954POPC   C3B52377  31.256  16.544   6.993
 3954POPC   C4B52378  31.467  16.374   7.354
 3955POPC   NC352379  14.512  26.537   4.961
 3955POPC   PO452380  14.579  25.952   5.254
 3955POPC   GL152381  14.520  25.856   5.739
 3955POPC   GL252382  14.315  26.105   5.915
 3955POPC   C1A52383  14.368  25.693   6.163
 3955POPC   D2A52384  14.139  25.956   6.465
 3955POPC   C3A52385  14.350  25.998   6.881
 3955POPC   C4A52386  14.297  25.745   7.269
 3955POPC   C1B52387  14.318  26.407   6.252
 3955POPC   C2B52388  14.193  26.555   6.671
 3955POPC   C3B52389  14.314  26.475   7.106
 3955POPC   C4B52390  14.415  26.212   7.466
 3956POPC   NC352391   6.758   1.087   5.368
 3956POPC   PO452392   6.396   1.729   5.453
 3956POPC   GL152393   6.604   1.597   5.844
 3956POPC   GL252394   6.931   1.369   5.834
 3956POPC   C1A52395   6.682   1.555   6.276
 3956POPC   D2A52396   6.613   1.263   6.584
 3956POPC   C3A52397   6.481   1.415   6.961
 3956POPC   C4A52398   6.350   1.114   7.237
 3956POPC   C1B52399   7.077   1.243   6.279
 3956POPC   C2B52400   7.082   1.290   6.750
 3956POPC   C3B52401   6.889   1.141   7.139
 3956POPC   C4B52402   7.097   0.919   7.441
 3957POPC   NC352403  35.821  12.595   5.067
 3957POPC   PO452404  35.215  12.668   5.456
 3957POPC   GL152405  35.456  12.876   5.787
 3957POPC   GL252406  35.260  13.142   5.811
 3957POPC   C1A52407  35.571  12.973   6.216
 3957POPC   D2A52408  35.309  13.017   6.571
 3957POPC   C3A52409  35.477  12.901   6.938
 3957POPC   C4A52410  35.379  12.523   7.094
 3957POPC   C1B52411  35.046  12.883   6.131
 3957POPC   C2B52412  34.793  12.807   6.491
 3957POPC   C3B52413  34.904  12.671   6.893
 3957POPC   C4B52414  35.042  12.856   7.234
 3958POPC   NC352415  26.065  36.427   5.661
 3958POPC   PO452416  26.171  35.802   5.557
 3958POPC   GL152417  26.084  35.963   5.933
 3958POPC   GL252418  25.749  36.053   5.847
 3958POPC   C1A52419  26.118  36.299   6.287
 3958POPC   D2A52420  26.193  36.496   6.700
 3958POPC   C3A52421  26.006  36.245   7.006
 3958POPC   C4A52422  25.949  35.996   7.420
 3958POPC   C1B52423  25.744  35.942   6.289
 3958POPC   C2B52424  25.784  35.848   6.740
 3958POPC   C3B52425  25.536  36.033   7.087
 3958POPC   C4B52426  25.505  36.147   7.556
 3959POPC   NC352427   6.890   6.987   5.030
 3959POPC   PO452428   6.470   6.738   5.518
 3959POPC   GL152429   6.672   6.750   5.901
 3959POPC   GL252430   6.855   7.054   5.874
 3959POPC   C1A52431   6.666   6.524   6.287
 3959POPC   D2A52432   6.679   6.209   6.623
 3959POPC   C3A52433   6.781   6.489   6.966
 3959POPC   C4A52434   6.677   6.634   7.431
 3959POPC   C1B52435   6.712   7.068   6.306
 3959POPC   C2B52436   6.491   6.882   6.627
 3959POPC   C3B52437   6.531   6.924   7.036
 3959POPC   C4B52438   6.985   6.913   7.144
 3960POPC   NC352439  33.623  26.463   5.377
 3960POPC   PO452440  33.663  25.818   5.568
 3960POPC   GL152441  33.909  25.997   5.852
 3960POPC   GL252442  34.074  26.232   5.669
 3960POPC   C1A52443  33.895  25.970   6.300
 3960POPC   D2A52444  33.925  25.941   6.726
 3960POPC   C3A52445  33.650  25.880   7.051
 3960POPC   C4A52446  33.902  26.128   7.281
 3960POPC   C1B52447  34.174  26.355   6.102
 3960POPC   C2B52448  34.281  26.281   6.530
 3960POPC   C3B52449  34.165  26.383   6.928
 3960POPC   C4B52450  34.188  26.531   7.350
 3961POPC   NC352451  31.876  11.361   5.147
 3961POPC   PO452452  31.265  11.234   5.460
 3961POPC   GL152453  31.364  11.432   5.784
 3961POPC   GL252454  31.720  11.450   5.666
 3961POPC   C1A52455  31.252  11.443   6.204
 3961POPC   D2A52456  31.437  11.411   6.575
 3961POPC   C3A52457  31.315  11.426   6.983
 3961POPC   C4A52458  31.554  11.340   7.334
 3961POPC   C1B52459  31.718  11.207   6.071
 3961POPC   C2B52460  31.747  11.036   6.476
 3961POPC   C3B52461  31.659  11.048   6.893
 3961POPC   C4B52462  31.790  10.899   7.276
 3962POPC   NC352463  26.923  35.353   4.922
 3962POPC   PO452464  26.573  34.952   5.436
 3962POPC   GL152465  26.759  35.266   5.727
 3962POPC   GL252466  26.537  35.549   5.859
 3962POPC   C1A52467  26.742  35.211   6.185
 3962POPC   D2A52468  26.982  35.074   6.514
 3962POPC   C3A52469  26.784  35.078   6.883
 3962POPC   C4A52470  26.749  35.201   7.296
 3962POPC   C1B52471  26.925  35.661   6.046
 3962POPC   C2B52472  27.024  35.648   6.469
 3962POPC   C3B52473  26.977  35.879   6.825
 3962POPC   C4B52474  26.690  35.661   7.086
 3963POPC   NC352475  34.253  26.209   5.188
 3963POPC   PO452476  34.634  25.764   5.336
 3963POPC   GL152477  34.472  25.908   5.752
 3963POPC   GL252478  34.585  26.235   5.834
 3963POPC   C1A52479  34.470  25.907   6.220
 3963POPC   D2A52480  34.645  25.931   6.648
 3963POPC   C3A52481  34.398  25.920   7.033
 3963POPC   C4A52482  34.352  25.880   7.490
 3963POPC   C1B52483  34.711  26.397   6.259
 3963POPC   C2B52484  34.767  26.427   6.733
 3963POPC   C3B52485  34.654  26.369   7.169
 3963POPC   C4B52486  34.594  26.332   7.624
 3964POPC   NC352487  35.004   9.020   5.539
 3964POPC   PO452488  35.681   8.796   5.527
 3964POPC   GL152489  35.441   8.963   5.835
 3964POPC   GL252490  35.201   8.682   5.884
 3964POPC   C1A52491  35.387   9.145   6.266
 3964POPC   D2A52492  35.331   9.344   6.693
 3964POPC   C3A52493  35.301   9.127   7.107
 3964POPC   C4A52494  35.281   9.145   7.560
 3964POPC   C1B52495  35.139   8.686   6.324
 3964POPC   C2B52496  35.331   8.781   6.713
 3964POPC   C3B52497  35.236   8.604   7.116
 3964POPC   C4B52498  35.054   8.701   7.550
 3965POPC   NC352499  22.207  16.391   5.132
 3965POPC   PO452500  21.929  15.818   5.418
 3965POPC   GL152501  22.121  15.780   5.849
 3965POPC   GL252502  22.378  16.029   5.939
 3965POPC   C1A52503  22.008  15.809   6.276
 3965POPC   D2A52504  21.834  16.162   6.490
 3965POPC   C3A52505  21.830  16.100   6.904
 3965POPC   C4A52506  22.019  15.727   7.060
 3965POPC   C1B52507  22.366  16.149   6.346
 3965POPC   C2B52508  22.577  16.240   6.680
 3965POPC   C3B52509  22.328  16.210   7.011
 3965POPC   C4B52510  22.407  15.971   7.307
 3966POPC   NC352511   2.922  13.724   5.346
 3966POPC   PO452512   2.431  13.221   5.280
 3966POPC   GL152513   2.558  13.495   5.719
 3966POPC   GL252514   2.863  13.667   5.832
 3966POPC   C1A52515   2.572  13.544   6.230
 3966POPC   D2A52516   2.560  13.776   6.668
 3966POPC   C3A52517   2.663  13.645   7.099
 3966POPC   C4A52518   3.009  13.920   7.005
 3966POPC   C1B52519   3.118  13.568   6.150
 3966POPC   C2B52520   3.069  13.615   6.564
 3966POPC   C3B52521   3.045  13.397   6.925
 3966POPC   C4B52522   3.197  13.552   7.326
 3967POPC   NC352523  22.756  25.272   5.545
 3967POPC   PO452524  23.345  24.973   5.352
 3967POPC   GL152525  23.131  25.031   5.849
 3967POPC   GL252526  22.765  25.100   6.023
 3967POPC   C1A52527  23.126  25.111   6.348
 3967POPC   D2A52528  22.714  25.129   6.596
 3967POPC   C3A52529  22.794  25.047   7.044
 3967POPC   C4A52530  23.130  25.225   7.306
 3967POPC   C1B52531  22.846  25.541   6.276
 3967POPC   C2B52532  22.707  25.728   6.699
 3967POPC   C3B52533  22.803  25.598   7.174
 3967POPC   C4B52534  22.789  25.605   7.652
 3968POPC   NC352535  25.611  28.403   5.176
 3968POPC   PO452536  26.291  28.409   5.421
 3968POPC   GL152537  26.241  28.276   5.847
 3968POPC   GL252538  25.840  28.305   5.863
 3968POPC   C1A52539  26.183  28.356   6.252
 3968POPC   D2A52540  26.195  28.597   6.598
 3968POPC   C3A52541  26.209  28.368   6.966
 3968POPC   C4A52542  26.232  28.488   7.360
 3968POPC   C1B52543  25.745  28.103   6.222
 3968POPC   C2B52544  25.867  28.159   6.632
 3968POPC   C3B52545  25.719  28.237   7.041
 3968POPC   C4B52546  25.748  28.218   7.476
 3969POPC   NC352547  25.704  31.176   5.546
 3969POPC   PO452548  26.127  31.672   5.272
 3969POPC   GL152549  26.039  31.584   5.701
 3969POPC   GL252550  25.696  31.704   5.763
 3969POPC   C1A52551  26.041  31.628   6.169
 3969POPC   D2A52552  25.842  31.534   6.584
 3969POPC   C3A52553  26.060  31.620   6.977
 3969POPC   C4A52554  26.119  31.289   7.280
 3969POPC   C1B52555  25.527  31.613   6.180
 3969POPC   C2B52556  25.487  31.890   6.561
 3969POPC   C3B52557  25.493  31.710   6.950
 3969POPC   C4B52558  25.693  31.706   7.330
 3970POPC   NC352559  36.596  14.149   5.622
 3970POPC   PO452560  36.034  14.629   5.378
 3970POPC   GL152561  35.902  14.568   5.768
 3970POPC   GL252562  36.259  14.498   5.836
 3970POPC   C1A52563  35.896  14.331   6.161
 3970POPC   D2A52564  36.221  14.378   6.505
 3970POPC   C3A52565  36.156  14.249   6.938
 3970POPC   C4A52566  35.925  14.281   7.300
 3970POPC   C1B52567  36.149  14.789   6.173
 3970POPC   C2B52568  36.295  14.924   6.592
 3970POPC   C3B52569  36.288  14.750   6.993
 3970POPC   C4B52570  36.074  14.754   7.384
 3971POPC   NC352571  12.917  21.625   5.473
 3971POPC   PO452572  12.742  21.101   5.080
 3971POPC   GL152573  12.761  21.179   5.620
 3971POPC   GL252574  12.555  21.492   5.828
 3971POPC   C1A52575  12.926  21.227   6.077
 3971POPC   D2A52576  12.966  21.079   6.521
 3971POPC   C3A52577  13.050  21.253   6.947
 3971POPC   C4A52578  12.786  21.046   7.295
 3971POPC   C1B52579  12.492  21.359   6.301
 3971POPC   C2B52580  12.553  21.324   6.773
 3971POPC   C3B52581  12.672  21.536   7.144
 3971POPC   C4B52582  13.062  21.755   7.118
 3972POPC   NC352583  33.550  22.846   5.324
 3972POPC   PO452584  33.865  23.295   5.558
 3972POPC   GL152585  33.913  22.925   5.786
 3972POPC   GL252586  33.560  22.822   5.843
 3972POPC   C1A52587  34.129  22.958   6.186
 3972POPC   D2A52588  34.079  23.195   6.558
 3972POPC   C3A52589  34.109  22.919   6.908
 3972POPC   C4A52590  34.176  23.019   7.334
 3972POPC   C1B52591  33.653  23.123   6.195
 3972POPC   C2B52592  33.540  23.225   6.622
 3972POPC   C3B52593  33.678  23.157   7.054
 3972POPC   C4B52594  33.483  22.917   7.368
 3973POPC   NC352595  40.714   7.590   5.505
 3973POPC   PO452596  41.147   7.250   5.531
 3973POPC   GL152597  40.955   7.479   5.936
 3973POPC   GL252598  40.686   7.244   5.915
 3973POPC   C1A52599  40.552   7.618   6.225
 3973POPC   D2A52600  40.394   7.499   6.636
 3973POPC   C3A52601  40.619   7.504   7.028
 3973POPC   C4A52602  40.965   7.489   7.318
 3973POPC   C1B52603  40.811   7.192   6.357
 3973POPC   C2B52604  40.636   7.033   6.737
 3973POPC   C3B52605  40.852   7.011   7.117
 3973POPC   C4B52606  41.300   7.125   7.214
 3974POPC   NC352607  22.766  21.470   5.404
 3974POPC   PO452608  23.349  21.600   5.172
 3974POPC   GL152609  23.206  21.478   5.684
 3974POPC   GL252610  22.916  21.253   5.844
 3974POPC   C1A52611  23.251  21.695   6.139
 3974POPC   D2A52612  23.453  21.800   6.577
 3974POPC   C3A52613  23.273  21.564   6.949
 3974POPC   C4A52614  23.049  21.677   7.343
 3974POPC   C1B52615  22.717  21.010   6.197
 3974POPC   C2B52616  22.618  21.134   6.629
 3974POPC   C3B52617  22.754  21.422   6.981
 3974POPC   C4B52618  22.696  21.321   7.413
 3975POPC   NC352619  30.590  44.029   5.378
 3975POPC   PO452620  31.179  43.960   5.511
 3975POPC   GL152621  30.909  43.828   5.865
 3975POPC   GL252622  30.514  43.804   5.865
 3975POPC   C1A52623  30.824  43.999   6.284
 3975POPC   D2A52624  30.693  44.248   6.632
 3975POPC   C3A52625  30.704  44.007   7.002
 3975POPC   C4A52626  31.073  43.906   7.256
 3975POPC   C1B52627  30.675  43.500   6.197
 3975POPC   C2B52628  30.854  43.346   6.589
 3975POPC   C3B52629  30.711  43.477   7.012
 3975POPC   C4B52630  30.774  43.531   7.452
 3976POPC   NC352631  17.756  10.678   5.047
 3976POPC   PO452632  17.282  10.288   5.431
 3976POPC   GL152633  17.595  10.555   5.663
 3976POPC   GL252634  17.409  10.776   5.822
 3976POPC   C1A52635  17.779  10.505   6.092
 3976POPC   D2A52636  17.596  10.303   6.470
 3976POPC   C3A52637  17.742  10.498   6.820
 3976POPC   C4A52638  17.813  10.433   7.215
 3976POPC   C1B52639  17.248  10.565   6.179
 3976POPC   C2B52640  17.281  10.659   6.630
 3976POPC   C3B52641  17.253  10.446   7.006
 3976POPC   C4B52642  17.021  10.657   7.295
 3977POPC   NC352643  37.195  19.729   5.297
 3977POPC   PO452644  36.767  20.236   5.426
 3977POPC   GL152645  36.716  19.915   5.733
 3977POPC   GL252646  37.012  19.684   5.776
 3977POPC   C1A52647  36.794  19.941   6.176
 3977POPC   D2A52648  36.620  19.822   6.554
 3977POPC   C3A52649  36.727  20.042   6.909
 3977POPC   C4A52650  36.989  19.993   7.278
 3977POPC   C1B52651  36.986  19.437   6.168
 3977POPC   C2B52652  37.023  19.255   6.594
 3977POPC   C3B52653  36.949  19.512   6.964
 3977POPC   C4B52654  36.631  19.648   7.226
 3978POPC   NC352655  43.219  37.445   5.466
 3978POPC   PO452656  42.773  37.949   5.411
 3978POPC   GL152657  42.928  37.690   5.797
 3978POPC   GL252658  43.286  37.763   5.857
 3978POPC   C1A52659  43.105  37.369   6.123
 3978POPC   D2A52660  43.097  37.495   6.558
 3978POPC   C3A52661  43.161  37.317   6.955
 3978POPC   C4A52662  43.176  37.512   7.361
 3978POPC   C1B52663  43.232  37.871   6.243
 3978POPC   C2B52664  43.421  37.928   6.626
 3978POPC   C3B52665  43.200  37.855   6.956
 3978POPC   C4B52666  43.247  38.013   7.310
 3979POPC   NC352667  44.337  17.556   5.096
 3979POPC   PO452668  43.741  17.592   5.480
 3979POPC   GL152669  44.001  17.448   5.824
 3979POPC   GL252670  43.764  17.243   6.023
 3979POPC   C1A52671  44.200  17.355   6.240
 3979POPC   D2A52672  44.015  17.323   6.643
 3979POPC   C3A52673  44.264  17.313   6.999
 3979POPC   C4A52674  44.114  17.509   7.370
 3979POPC   C1B52675  43.765  17.621   6.302
 3979POPC   C2B52676  43.606  17.695   6.725
 3979POPC   C3B52677  43.737  17.768   7.159
 3979POPC   C4B52678  43.737  17.736   7.631
 3980POPC   NC352679  21.905   2.149   5.472
 3980POPC   PO452680  22.218   1.668   5.585
 3980POPC   GL152681  22.003   1.933   5.929
 3980POPC   GL252682  22.144   2.287   5.893
 3980POPC   C1A52683  21.948   1.840   6.377
 3980POPC   D2A52684  22.227   1.920   6.747
 3980POPC   C3A52685  22.156   1.661   7.143
 3980POPC   C4A52686  22.210   1.411   7.561
 3980POPC   C1B52687  21.927   2.366   6.262
 3980POPC   C2B52688  21.782   2.230   6.663
 3980POPC   C3B52689  21.891   2.112   7.059
 3980POPC   C4B52690  22.099   2.073   7.426
 3981POPC   NC352691  16.353  30.138   5.417
 3981POPC   PO452692  17.042  30.139   5.157
 3981POPC   GL152693  16.838  30.043   5.601
 3981POPC   GL252694  16.678  29.706   5.705
 3981POPC   C1A52695  16.822  30.036   6.079
 3981POPC   D2A52696  16.559  30.051   6.482
 3981POPC   C3A52697  16.615  30.087   6.952
 3981POPC   C4A52698  16.540  30.409   7.263
 3981POPC   C1B52699  16.541  29.615   6.180
 3981POPC   C2B52700  16.521  29.524   6.641
 3981POPC   C3B52701  16.539  29.589   7.106
 3981POPC   C4B52702  16.674  29.436   7.557
 3982POPC   NC352703   4.112  26.541   5.406
 3982POPC   PO452704   4.762  26.608   5.621
 3982POPC   GL152705   4.411  26.858   5.876
 3982POPC   GL252706   4.031  26.880   5.830
 3982POPC   C1A52707   4.205  27.058   6.285
 3982POPC   D2A52708   4.078  27.023   6.726
 3982POPC   C3A52709   4.341  26.910   7.062
 3982POPC   C4A52710   4.288  26.794   7.494
 3982POPC   C1B52711   4.118  26.562   6.176
 3982POPC   C2B52712   4.409  26.639   6.532
 3982POPC   C3B52713   4.667  26.536   6.881
 3982POPC   C4B52714   4.452  26.398   7.214
 3983POPC   NC352715  22.800   5.298   5.563
 3983POPC   PO452716  23.225   4.864   5.218
 3983POPC   GL152717  23.207   4.990   5.655
 3983POPC   GL252718  23.298   5.358   5.744
 3983POPC   C1A52719  23.199   4.962   6.114
 3983POPC   D2A52720  22.830   5.146   6.398
 3983POPC   C3A52721  22.831   5.128   6.860
 3983POPC   C4A52722  22.647   4.967   7.238
 3983POPC   C1B52723  23.219   5.445   6.208
 3983POPC   C2B52724  23.330   5.211   6.607
 3983POPC   C3B52725  23.275   5.184   7.051
 3983POPC   C4B52726  23.039   5.308   7.395
 3984POPC   NC352727  21.779  25.430   5.316
 3984POPC   PO452728  22.331  25.279   5.376
 3984POPC   GL152729  22.309  25.218   5.794
 3984POPC   GL252730  21.970  25.280   5.780
 3984POPC   C1A52731  22.382  25.406   6.175
 3984POPC   D2A52732  22.218  25.458   6.568
 3984POPC   C3A52733  22.408  25.389   6.946
 3984POPC   C4A52734  22.150  25.480   7.273
 3984POPC   C1B52735  21.971  25.135   6.174
 3984POPC   C2B52736  22.091  24.977   6.532
 3984POPC   C3B52737  21.998  25.115   6.928
 3984POPC   C4B52738  22.301  24.893   7.165
 3985POPC   NC352739   2.135  30.447   5.350
 3985POPC   PO452740   1.814  31.109   5.393
 3985POPC   GL152741   1.790  30.739   5.706
 3985POPC   GL252742   2.136  30.638   5.822
 3985POPC   C1A52743   1.774  30.627   6.185
 3985POPC   D2A52744   1.612  30.558   6.610
 3985POPC   C3A52745   1.750  30.715   7.048
 3985POPC   C4A52746   2.058  30.995   7.230
 3985POPC   C1B52747   2.268  30.692   6.278
 3985POPC   C2B52748   2.120  30.586   6.690
 3985POPC   C3B52749   2.298  30.580   7.096
 3985POPC   C4B52750   2.609  30.799   7.373
 3986POPC   NC352751  37.132  33.471   5.455
 3986POPC   PO452752  36.754  32.956   5.257
 3986POPC   GL152753  36.908  32.910   5.689
 3986POPC   GL252754  36.809  33.215   5.803
 3986POPC   C1A52755  36.917  32.851   6.167
 3986POPC   D2A52756  37.101  32.917   6.592
 3986POPC   C3A52757  36.986  32.883   7.038
 3986POPC   C4A52758  36.734  32.820   7.429
 3986POPC   C1B52759  36.770  33.391   6.212
 3986POPC   C2B52760  36.692  33.559   6.639
 3986POPC   C3B52761  36.891  33.632   7.021
 3986POPC   C4B52762  36.982  33.334   7.336
 3987POPC   NC352763  44.299  35.159   5.625
 3987POPC   PO452764  44.108  34.648   5.287
 3987POPC   GL152765  44.015  34.712   5.732
 3987POPC   GL252766  44.194  34.425   5.836
 3987POPC   C1A52767  43.703  34.655   6.105
 3987POPC   D2A52768  43.719  34.849   6.531
 3987POPC   C3A52769  43.760  34.648   6.952
 3987POPC   C4A52770  43.980  34.853   7.283
 3987POPC   C1B52771  44.227  34.195   6.241
 3987POPC   C2B52772  44.107  34.310   6.681
 3987POPC   C3B52773  44.201  34.398   7.132
 3987POPC   C4B52774  44.314  34.264   7.565
 3988POPC   NC352775  26.567  12.271   5.359
 3988POPC   PO452776  27.203  11.916   5.268
 3988POPC   GL152777  26.924  12.054   5.630
 3988POPC   GL252778  26.715  11.825   5.775
 3988POPC   C1A52779  26.878  12.326   6.023
 3988POPC   D2A52780  27.036  12.445   6.474
 3988POPC   C3A52781  27.045  12.285   6.903
 3988POPC   C4A52782  26.840  12.204   7.306
 3988POPC   C1B52783  27.027  11.865   6.152
 3988POPC   C2B52784  26.928  11.880   6.593
 3988POPC   C3B52785  26.923  11.778   7.027
 3988POPC   C4B52786  27.152  11.792   7.406
 3989POPC   NC352787  40.345  41.629   5.288
 3989POPC   PO452788  39.897  41.285   5.702
 3989POPC   GL152789  39.986  41.643   5.928
 3989POPC   GL252790  40.330  41.674   5.988
 3989POPC   C1A52791  39.700  41.726   6.248
 3989POPC   D2A52792  39.869  41.742   6.614
 3989POPC   C3A52793  39.971  41.392   6.825
 3989POPC   C4A52794  39.803  41.459   7.196
 3989POPC   C1B52795  40.139  41.349   6.317
 3989POPC   C2B52796  40.365  41.126   6.630
 3989POPC   C3B52797  40.538  41.375   6.916
 3989POPC   C4B52798  40.303  41.544   7.216
 3990POPC   NC352799  26.499  18.312   5.439
 3990POPC   PO452800  25.918  18.690   5.438
 3990POPC   GL152801  26.197  18.580   5.760
 3990POPC   GL252802  26.178  18.185   5.808
 3990POPC   C1A52803  26.374  18.510   6.147
 3990POPC   D2A52804  26.218  18.377   6.516
 3990POPC   C3A52805  26.463  18.371   6.869
 3990POPC   C4A52806  26.376  18.425   7.265
 3990POPC   C1B52807  26.018  17.971   6.174
 3990POPC   C2B52808  25.806  18.096   6.524
 3990POPC   C3B52809  26.000  18.109   6.933
 3990POPC   C4B52810  25.709  18.000   7.264
 3991POPC   NC352811   7.686  24.257   5.536
 3991POPC   PO452812   7.233  24.545   5.161
 3991POPC   GL152813   7.267  24.556   5.657
 3991POPC   GL252814   7.172  24.203   5.693
 3991POPC   C1A52815   7.479  24.654   6.134
 3991POPC   D2A52816   7.561  24.525   6.592
 3991POPC   C3A52817   7.559  24.719   7.039
 3991POPC   C4A52818   7.604  24.557   7.496
 3991POPC   C1B52819   7.041  24.410   6.076
 3991POPC   C2B52820   7.037  24.572   6.467
 3991POPC   C3B52821   7.117  24.543   6.873
 3991POPC   C4B52822   7.152  24.465   7.296
 3992POPC   NC352823  19.874  39.037   5.119
 3992POPC   PO452824  19.650  39.515   5.507
 3992POPC   GL152825  19.908  39.138   5.706
 3992POPC   GL252826  19.741  38.884   5.913
 3992POPC   C1A52827  20.156  39.100   6.122
 3992POPC   D2A52828  20.069  39.347   6.517
 3992POPC   C3A52829  20.218  39.188   6.930
 3992POPC   C4A52830  20.101  39.425   7.276
 3992POPC   C1B52831  19.670  39.286   6.166
 3992POPC   C2B52832  19.569  39.472   6.560
 3992POPC   C3B52833  19.707  39.325   6.945
 3992POPC   C4B52834  19.796  38.996   7.234
 3993POPC   NC352835   6.296  19.181   5.408
 3993POPC   PO452836   6.939  19.242   5.194
 3993POPC   GL152837   6.858  19.168   5.696
 3993POPC   GL252838   6.567  19.244   5.811
 3993POPC   C1A52839   6.898  19.146   6.176
 3993POPC   D2A52840   6.791  19.418   6.573
 3993POPC   C3A52841   6.928  19.321   7.018
 3993POPC   C4A52842   6.988  18.936   7.263
 3993POPC   C1B52843   6.401  19.019   6.146
 3993POPC   C2B52844   6.349  19.111   6.589
 3993POPC   C3B52845   6.529  18.929   6.975
 3993POPC   C4B52846   6.301  18.645   7.244
 3994POPC   NC352847  13.389  38.695   5.367
 3994POPC   PO452848  13.771  38.346   5.652
 3994POPC   GL152849  13.484  38.442   5.949
 3994POPC   GL252850  13.269  38.176   5.827
 3994POPC   C1A52851  13.473  38.447   6.409
 3994POPC   D2A52852  13.458  38.698   6.768
 3994POPC   C3A52853  13.774  38.468   6.987
 3994POPC   C4A52854  14.057  38.350   7.301
 3994POPC   C1B52855  13.426  37.987   6.206
 3994POPC   C2B52856  13.361  37.984   6.660
 3994POPC   C3B52857  13.263  38.261   7.012
 3994POPC   C4B52858  13.406  38.603   7.289
 3995POPC   NC352859  16.934  18.894   5.477
 3995POPC   PO452860  17.485  18.426   5.419
 3995POPC   GL152861  17.386  18.314   5.840
 3995POPC   GL252862  17.072  18.508   5.848
 3995POPC   C1A52863  17.602  18.405   6.266
 3995POPC   D2A52864  17.698  18.636   6.680
 3995POPC   C3A52865  17.669  18.354   7.047
 3995POPC   C4A52866  17.662  18.029   7.397
 3995POPC   C1B52867  17.097  18.270   6.252
 3995POPC   C2B52868  17.275  18.322   6.658
 3995POPC   C3B52869  17.150  18.478   7.012
 3995POPC   C4B52870  17.228  18.274   7.385
 3996POPC   NC352871   1.925  21.886   5.343
 3996POPC   PO452872   1.532  22.297   5.335
 3996POPC   GL152873   1.842  22.215   5.718
 3996POPC   GL252874   1.594  21.992   5.755
 3996POPC   C1A52875   2.207  22.300   6.041
 3996POPC   D2A52876   2.338  22.115   6.456
 3996POPC   C3A52877   2.237  22.254   6.875
 3996POPC   C4A52878   2.202  22.062   7.269
 3996POPC   C1B52879   1.474  22.108   6.157
 3996POPC   C2B52880   1.569  22.273   6.544
 3996POPC   C3B52881   1.749  22.158   6.950
 3996POPC   C4B52882   1.706  22.042   7.392
 3997POPC   NC352883  21.780  23.159   5.378
 3997POPC   PO452884  21.181  23.358   5.360
 3997POPC   GL152885  21.382  23.019   5.657
 3997POPC   GL252886  21.580  23.229   5.844
 3997POPC   C1A52887  21.580  22.733   5.985
 3997POPC   D2A52888  21.614  22.563   6.413
 3997POPC   C3A52889  21.712  22.776   6.794
 3997POPC   C4A52890  21.384  22.843   7.101
 3997POPC   C1B52891  21.393  23.149   6.248
 3997POPC   C2B52892  21.434  23.200   6.677
 3997POPC   C3B52893  21.625  23.278   7.078
 3997POPC   C4B52894  21.710  23.079   7.451
 3998POPC   NC352895   5.328  12.994   5.484
 3998POPC   PO452896   4.648  12.794   5.465
 3998POPC   GL152897   4.907  12.897   5.806
 3998POPC   GL252898   5.073  12.568   5.891
 3998POPC   C1A52899   5.166  12.996   6.165
 3998POPC   D2A52900   5.372  12.697   6.410
 3998POPC   C3A52901   5.320  12.775   6.835
 3998POPC   C4A52902   5.046  12.949   7.151
 3998POPC   C1B52903   4.834  12.625   6.296
 3998POPC   C2B52904   4.814  12.655   6.761
 3998POPC   C3B52905   4.865  12.421   7.158
 3998POPC   C4B52906   4.666  12.361   7.621
 3999POPC   NC352907  32.449  42.618   5.343
 3999POPC   PO452908  31.879  42.735   5.424
 3999POPC   GL152909  32.063  42.568   5.785
 3999POPC   GL252910  32.295  42.314   5.786
 3999POPC   C1A52911  32.281  42.657   6.179
 3999POPC   D2A52912  32.579  42.522   6.535
 3999POPC   C3A52913  32.463  42.532   6.970
 3999POPC   C4A52914  32.774  42.415   7.282
 3999POPC   C1B52915  32.238  42.158   6.244
 3999POPC   C2B52916  32.388  42.060   6.676
 3999POPC   C3B52917  32.394  42.046   7.157
 3999POPC   C4B52918  32.202  41.799   7.506
 4000POPC   NC352919  30.035  12.873   5.349
 4000POPC   PO452920  29.725  12.278   5.553
 4000POPC   GL152921  29.627  12.638   5.832
 4000POPC   GL252922  29.835  12.926   5.815
 4000POPC   C1A52923  29.752  12.690   6.269
 4000POPC   D2A52924  29.771  12.976   6.596
 4000POPC   C3A52925  29.960  12.803   6.960
 4000POPC   C4A52926  29.647  12.845   7.260
 4000POPC   C1B52927  30.155  13.009   6.118
 4000POPC   C2B52928  30.299  12.932   6.553
 4000POPC   C3B52929  30.406  13.079   6.961
 4000POPC   C4B52930  30.162  13.143   7.308
 4001POPC   NC352931  14.011  34.451   5.526
 4001POPC   PO452932  14.593  34.482   5.756
 4001POPC   GL152933  14.404  34.088   5.973
 4001POPC   GL252934  14.049  34.116   5.929
 4001POPC   C1A52935  14.289  33.744   6.312
 4001POPC   D2A52936  14.349  33.524   6.750
 4001POPC   C3A52937  14.346  33.251   7.134
 4001POPC   C4A52938  14.545  33.249   7.564
 4001POPC   C1B52939  14.104  34.229   6.377
 4001POPC   C2B52940  14.419  34.078   6.717
 4001POPC   C3B52941  14.600  33.834   7.069
 4001POPC   C4B52942  14.301  33.685   7.395
 4002POPC   NC352943  30.004   0.568   5.512
 4002POPC   PO452944  29.704  44.983   5.309
 4002POPC   GL152945  29.888   0.130   5.794
 4002POPC   GL252946  30.176   0.328   5.911
 4002POPC   C1A52947  29.786   0.344   6.231
 4002POPC   D2A52948  29.560   0.390   6.615
 4002POPC   C3A52949  29.774   0.316   7.011
 4002POPC   C4A52950  29.744   0.573   7.350
 4002POPC   C1B52951  30.160   0.691   6.183
 4002POPC   C2B52952  29.931   0.789   6.573
 4002POPC   C3B52953  30.121   0.715   6.966
 4002POPC   C4B52954  30.260   0.391   7.200
 4003POPC   NC352955  35.558  32.747   5.526
 4003POPC   PO452956  35.496  32.284   5.026
 4003POPC   GL152957  35.540  32.198   5.562
 4003POPC   GL252958  35.742  31.924   5.772
 4003POPC   C1A52959  35.320  32.118   5.978
 4003POPC   D2A52960  35.428  32.158   6.417
 4003POPC   C3A52961  35.338  32.100   6.853
 4003POPC   C4A52962  35.263  32.288   7.252
 4003POPC   C1B52963  35.557  31.726   6.189
 4003POPC   C2B52964  35.562  31.689   6.650
 4003POPC   C3B52965  35.647  31.762   7.093
 4003POPC   C4B52966  35.570  31.645   7.531
 4004POPC   NC352967  17.028  44.746   5.490
 4004POPC   PO452968  16.961  44.160   5.246
 4004POPC   GL152969  16.847  44.312   5.724
 4004POPC   GL252970  16.641  44.636   5.804
 4004POPC   C1A52971  16.981  44.487   6.165
 4004POPC   D2A52972  16.767  44.555   6.576
 4004POPC   C3A52973  16.964  44.661   6.970
 4004POPC   C4A52974  17.001  44.494   7.378
 4004POPC   C1B52975  16.638  44.896   6.194
 4004POPC   C2B52976  16.488   0.115   6.578
 4004POPC   C3B52977  16.551  44.972   7.009
 4004POPC   C4B52978  16.492  44.671   7.393
 4005POPC   NC352979   5.325   6.512   5.168
 4005POPC   PO452980   4.772   6.551   5.598
 4005POPC   GL152981   4.971   6.785   5.907
 4005POPC   GL252982   4.937   6.496   6.105
 4005POPC   C1A52983   5.308   6.835   6.213
 4005POPC   D2A52984   5.478   7.033   6.600
 4005POPC   C3A52985   5.235   6.873   6.952
 4005POPC   C4A52986   5.179   6.805   7.381
 4005POPC   C1B52987   5.272   6.240   6.255
 4005POPC   C2B52988   5.301   6.044   6.640
 4005POPC   C3B52989   5.261   6.242   7.025
 4005POPC   C4B52990   5.402   6.098   7.409
 4006POPC   NC352991   8.428  17.861   5.410
 4006POPC   PO452992   8.421  17.219   5.412
 4006POPC   GL152993   8.129  17.472   5.693
 4006POPC   GL252994   8.190  17.804   5.835
 4006POPC   C1A52995   8.042  17.432   6.148
 4006POPC   D2A52996   8.224  17.250   6.503
 4006POPC   C3A52997   8.110  17.327   6.914
 4006POPC   C4A52998   8.078  17.055   7.249
 4006POPC   C1B52999   8.128  17.953   6.213
 4006POPC   C2B53000   8.197  17.769   6.581
 4006POPC   C3B53001   8.068  17.849   6.971
 4006POPC   C4B53002   8.004  17.687   7.328
 4007POPC   NC353003   7.251  42.161   5.247
 4007POPC   PO453004   7.742  42.552   5.385
 4007POPC   GL153005   7.423  42.383   5.671
 4007POPC   GL253006   7.143  42.619   5.712
 4007POPC   C1A53007   7.318  42.271   6.095
 4007POPC   D2A53008   7.497  42.149   6.501
 4007POPC   C3A53009   7.351  42.287   6.917
 4007POPC   C4A53010   7.482  42.116   7.303
 4007POPC   C1B53011   7.148  42.802   6.141
 4007POPC   C2B53012   7.172  42.837   6.613
 4007POPC   C3B53013   7.072  42.739   7.070
 4007POPC   C4B53014   7.289  42.597   7.472
 4008POPC   NC353015  10.579  39.514   5.381
 4008POPC   PO453016  10.474  38.883   5.427
 4008POPC   GL153017  10.648  39.076   5.819
 4008POPC   GL253018  10.479  39.395   5.862
 4008POPC   C1A53019  10.605  39.175   6.301
 4008POPC   D2A53020  10.343  39.157   6.659
 4008POPC   C3A53021  10.606  39.113   6.984
 4008POPC   C4A53022  10.575  39.354   7.313
 4008POPC   C1B53023  10.140  39.389   6.171
 4008POPC   C2B53024   9.957  39.471   6.571
 4008POPC   C3B53025  10.143  39.577   6.973
 4008POPC   C4B53026  10.148  39.629   7.438
 4009POPC   NC353027   4.595  21.842   5.501
 4009POPC   PO453028   4.032  22.206   5.425
 4009POPC   GL153029   4.218  22.248   5.827
 4009POPC   GL253030   4.258  21.894   5.923
 4009POPC   C1A53031   4.355  22.279   6.277
 4009POPC   D2A53032   4.294  22.124   6.715
 4009POPC   C3A53033   4.590  22.130   7.093
 4009POPC   C4A53034   4.463  22.075   7.539
 4009POPC   C1B53035   3.977  21.891   6.306
 4009POPC   C2B53036   3.900  21.792   6.759
 4009POPC   C3B53037   3.990  21.914   7.216
 4009POPC   C4B53038   3.844  21.833   7.665
 4010POPC   NC353039   3.815  29.878   5.471
 4010POPC   PO453040   3.137  29.957   5.427
 4010POPC   GL153041   3.392  29.886   5.810
 4010POPC   GL253042   3.692  30.116   5.893
 4010POPC   C1A53043   3.336  30.052   6.258
 4010POPC   D2A53044   3.565  30.227   6.629
 4010POPC   C3A53045   3.350  30.127   7.025
 4010POPC   C4A53046   3.337  29.680   7.128
 4010POPC   C1B53047   3.750  29.736   6.165
 4010POPC   C2B53048   3.612  29.649   6.594
 4010POPC   C3B53049   3.803  29.847   6.957
 4010POPC   C4B53050   3.820  30.303   7.084
 4011POPC   NC353051  30.143  44.923   5.386
 4011POPC   PO453052  29.483  44.455   5.479
 4011POPC   GL153053  29.833  44.629   5.718
 4011POPC   GL253054  29.656  44.718   6.007
 4011POPC   C1A53055  30.073  44.450   6.060
 4011POPC   D2A53056  29.879  44.527   6.447
 4011POPC   C3A53057  30.116  44.589   6.834
 4011POPC   C4A53058  30.179  44.874   7.172
 4011POPC   C1B53059  29.480  44.947   6.322
 4011POPC   C2B53060  29.711  44.919   6.700
 4011POPC   C3B53061  29.677  44.791   7.103
 4011POPC   C4B53062  29.508  44.982   7.472
 4012POPC   NC353063  38.856  41.826   5.474
 4012POPC   PO453064  38.202  41.590   5.584
 4012POPC   GL153065  38.528  41.642   5.850
 4012POPC   GL253066  38.691  41.351   5.710
 4012POPC   C1A53067  38.459  41.549   6.278
 4012POPC   D2A53068  38.192  41.458   6.605
 4012POPC   C3A53069  38.447  41.603   6.871
 4012POPC   C4A53070  38.563  41.750   7.250
 4012POPC   C1B53071  38.892  41.304   6.138
 4012POPC   C2B53072  38.933  41.526   6.550
 4012POPC   C3B53073  38.923  41.453   6.978
 4012POPC   C4B53074  38.578  41.209   7.152
 4013POPC   NC353075  38.349  34.316   5.513
 4013POPC   PO453076  38.449  33.686   5.425
 4013POPC   GL153077  38.267  33.859   5.801
 4013POPC   GL253078  38.599  33.872   5.945
 4013POPC   C1A53079  38.093  33.839   6.212
 4013POPC   D2A53080  38.142  33.614   6.580
 4013POPC   C3A53081  38.264  33.729   6.960
 4013POPC   C4A53082  38.228  33.936   7.301
 4013POPC   C1B53083  38.562  33.565   6.282
 4013POPC   C2B53084  38.692  33.583   6.730
 4013POPC   C3B53085  38.753  33.961   6.997
 4013POPC   C4B53086  38.687  34.146   7.402
 4014POPC   NC353087  30.019   1.368   5.144
 4014POPC   PO453088  29.724   0.965   5.506
 4014POPC   GL153089  30.087   1.094   5.682
 4014POPC   GL253090  30.007   1.427   5.690
 4014POPC   C1A53091  30.220   1.188   6.099
 4014POPC   D2A53092  30.117   1.401   6.476
 4014POPC   C3A53093  30.045   1.215   6.851
 4014POPC   C4A53094  29.703   1.043   7.063
 4014POPC   C1B53095  29.746   1.380   6.107
 4014POPC   C2B53096  29.571   1.588   6.483
 4014POPC   C3B53097  29.470   1.588   6.918
 4014POPC   C4B53098  29.366   1.396   7.312
 4015POPC   NC353099   5.337  43.135   5.575
 4015POPC   PO453100   4.803  42.788   5.474
 4015POPC   GL153101   4.872  43.111   5.787
 4015POPC   GL253102   5.087  42.846   5.940
 4015POPC   C1A53103   4.975  43.258   6.225
 4015POPC   D2A53104   5.050  42.988   6.605
 4015POPC   C3A53105   4.901  43.173   6.981
 4015POPC   C4A53106   5.021  43.308   7.380
 4015POPC   C1B53107   5.418  42.930   6.236
 4015POPC   C2B53108   5.617  43.157   6.563
 4015POPC   C3B53109   5.408  43.243   6.932
 4015POPC   C4B53110   5.323  42.905   7.196
 4016POPC   NC353111  29.863  17.875   5.036
 4016POPC   PO453112  30.024  17.390   5.440
 4016POPC   GL153113  29.861  17.608   5.794
 4016POPC   GL253114  29.665  17.325   5.845
 4016POPC   C1A53115  29.726  17.761   6.218
 4016POPC   D2A53116  29.693  17.558   6.613
 4016POPC   C3A53117  29.898  17.752   6.990
 4016POPC   C4A53118  29.670  17.638   7.393
 4016POPC   C1B53119  29.974  17.292   6.211
 4016POPC   C2B53120  30.000  17.166   6.668
 4016POPC   C3B53121  29.825  17.241   7.065
 4016POPC   C4B53122  30.112  17.337   7.385
 4017POPC   NC353123   2.840  15.516   5.171
 4017POPC   PO453124   3.056  16.164   5.339
 4017POPC   GL153125   3.017  15.978   5.771
 4017POPC   GL253126   2.764  15.746   5.722
 4017POPC   C1A53127   2.810  16.072   6.192
 4017POPC   D2A53128   2.835  16.082   6.614
 4017POPC   C3A53129   2.569  16.110   6.949
 4017POPC   C4A53130   2.909  16.079   7.270
 4017POPC   C1B53131   2.901  15.569   6.133
 4017POPC   C2B53132   2.770  15.564   6.552
 4017POPC   C3B53133   2.854  15.680   6.936
 4017POPC   C4B53134   2.871  15.569   7.345
 4018POPC   NC353135  29.025   0.093   5.260
 4018POPC   PO453136  29.478   0.355   5.655
 4018POPC   GL153137  29.307   0.379   6.001
 4018POPC   GL253138  29.007   0.571   5.902
 4018POPC   C1A53139  29.271   0.675   6.314
 4018POPC   D2A53140  29.093   0.659   6.684
 4018POPC   C3A53141  29.367   0.663   6.995
 4018POPC   C4A53142  29.324   0.876   7.349
 4018POPC   C1B53143  28.750   0.584   6.305
 4018POPC   C2B53144  28.717   0.301   6.689
 4018POPC   C3B53145  29.064   0.229   6.992
 4018POPC   C4B53146  29.219   0.385   7.404
 4019POPC   NC353147   3.897  30.765   5.529
 4019POPC   PO453148   3.223  30.759   5.445
 4019POPC   GL153149   3.385  30.561   5.860
 4019POPC   GL253150   3.743  30.621   6.002
 4019POPC   C1A53151   3.299  30.574   6.315
 4019POPC   D2A53152   3.181  30.534   6.740
 4019POPC   C3A53153   3.452  30.679   7.061
 4019POPC   C4A53154   3.477  31.026   7.375
 4019POPC   C1B53155   4.119  30.609   6.283
 4019POPC   C2B53156   4.206  30.815   6.691
 4019POPC   C3B53157   3.992  30.808   7.091
 4019POPC   C4B53158   3.893  30.741   7.519
 4020POPC   NC353159  40.242  21.143   5.025
 4020POPC   PO453160  40.165  21.565   5.385
 4020POPC   GL153161  40.064  21.548   5.853
 4020POPC   GL253162  39.816  21.794   5.953
 4020POPC   C1A53163  40.022  21.203   6.192
 4020POPC   D2A53164  39.871  21.044   6.615
 4020POPC   C3A53165  40.008  21.272   6.972
 4020POPC   C4A53166  40.218  21.650   7.086
 4020POPC   C1B53167  39.872  21.655   6.379
 4020POPC   C2B53168  39.625  21.513   6.701
 4020POPC   C3B53169  39.557  21.558   7.137
 4020POPC   C4B53170  39.390  21.345   7.510
 4021POPC   NC353171  35.662  14.930   5.421
 4021POPC   PO453172  35.250  15.384   5.311
 4021POPC   GL153173  35.272  15.353   5.747
 4021POPC   GL253174  35.586  15.254   5.802
 4021POPC   C1A53175  35.262  15.265   6.210
 4021POPC   D2A53176  35.159  15.407   6.642
 4021POPC   C3A53177  35.401  15.303   7.046
 4021POPC   C4A53178  35.468  15.361   7.546
 4021POPC   C1B53179  35.624  14.865   6.105
 4021POPC   C2B53180  35.773  14.691   6.529
 4021POPC   C3B53181  35.708  14.620   6.986
 4021POPC   C4B53182  35.597  14.909   7.316
 4022POPC   NC353183  41.513  23.252   5.428
 4022POPC   PO453184  41.352  22.619   5.587
 4022POPC   GL153185  41.636  22.870   5.880
 4022POPC   GL253186  41.719  23.259   5.906
 4022POPC   C1A53187  41.513  23.010   6.303
 4022POPC   D2A53188  41.547  23.215   6.676
 4022POPC   C3A53189  41.651  23.105   7.053
 4022POPC   C4A53190  41.324  22.819   7.157
 4022POPC   C1B53191  41.982  23.260   6.289
 4022POPC   C2B53192  42.130  23.198   6.728
 4022POPC   C3B53193  42.122  23.291   7.183
 4022POPC   C4B53194  41.837  23.117   7.537
 4023POPC   NC353195   0.748  22.937   5.488
 4023POPC   PO453196   0.245  23.302   5.284
 4023POPC   GL153197   0.420  23.248   5.747
 4023POPC   GL253198   0.778  23.339   5.809
 4023POPC   C1A53199   0.397  22.988   6.177
 4023POPC   D2A53200   0.512  22.768   6.591
 4023POPC   C3A53201   0.424  22.912   7.011
 4023POPC   C4A53202   0.244  22.860   7.461
 4023POPC   C1B53203   0.623  23.440   6.181
 4023POPC   C2B53204   0.674  23.272   6.547
 4023POPC   C3B53205   0.665  23.385   6.933
 4023POPC   C4B53206   0.411  23.340   7.285
 4024POPC   NC353207  38.564  24.434   5.433
 4024POPC   PO453208  37.919  24.191   5.373
 4024POPC   GL153209  38.122  24.406   5.718
 4024POPC   GL253210  38.290  24.120   5.831
 4024POPC   C1A53211  38.294  24.589   6.095
 4024POPC   D2A53212  38.536  24.555   6.481
 4024POPC   C3A53213  38.293  24.588   6.860
 4024POPC   C4A53214  38.429  24.789   7.201
 4024POPC   C1B53215  38.652  24.177   6.125
 4024POPC   C2B53216  38.888  24.124   6.544
 4024POPC   C3B53217  38.766  24.320   6.952
 4024POPC   C4B53218  38.375  24.203   7.199
 4025POPC   NC353219  32.436  36.956   5.216
 4025POPC   PO453220  32.113  36.449   5.523
 4025POPC   GL153221  32.283  36.732   5.832
 4025POPC   GL253222  32.134  37.063   5.756
 4025POPC   C1A53223  32.540  36.688   6.223
 4025POPC   D2A53224  32.503  36.503   6.644
 4025POPC   C3A53225  32.195  36.684   6.941
 4025POPC   C4A53226  32.286  36.743   7.373
 4025POPC   C1B53227  32.237  37.125   6.212
 4025POPC   C2B53228  32.380  37.174   6.659
 4025POPC   C3B53229  32.205  37.201   7.096
 4025POPC   C4B53230  32.020  37.148   7.493
 4026POPC   NC353231   1.027  24.469   5.411
 4026POPC   PO453232   1.605  24.777   5.405
 4026POPC   GL153233   1.340  24.608   5.793
 4026POPC   GL253234   0.969  24.705   5.859
 4026POPC   C1A53235   1.235  24.498   6.257
 4026POPC   D2A53236   1.147  24.682   6.672
 4026POPC   C3A53237   1.002  24.386   7.001
 4026POPC   C4A53238   1.247  24.221   7.317
 4026POPC   C1B53239   0.897  24.976   6.194
 4026POPC   C2B53240   0.692  24.947   6.602
 4026POPC   C3B53241   0.793  24.858   7.029
 4026POPC   C4B53242   0.840  24.795   7.483
 4027POPC   NC353243   6.493  16.362   5.125
 4027POPC   PO453244   6.223  17.054   5.334
 4027POPC   GL153245   6.546  17.025   5.728
 4027POPC   GL253246   6.656  16.672   5.850
 4027POPC   C1A53247   6.601  17.011   6.225
 4027POPC   D2A53248   6.508  16.712   6.613
 4027POPC   C3A53249   6.667  16.768   7.050
 4027POPC   C4A53250   6.696  17.132   7.304
 4027POPC   C1B53251   6.876  16.548   6.276
 4027POPC   C2B53252   7.044  16.616   6.714
 4027POPC   C3B53253   6.993  16.374   7.101
 4027POPC   C4B53254   6.899  16.490   7.555
 4028POPC   NC353255  21.410  36.498   5.477
 4028POPC   PO453256  21.714  35.889   5.622
 4028POPC   GL153257  21.572  36.049   5.958
 4028POPC   GL253258  21.306  36.172   5.870
 4028POPC   C1A53259  21.585  35.964   6.357
 4028POPC   D2A53260  21.595  36.151   6.731
 4028POPC   C3A53261  21.661  35.886   7.062
 4028POPC   C4A53262  21.681  35.931   7.505
 4028POPC   C1B53263  21.086  35.931   6.162
 4028POPC   C2B53264  21.072  35.965   6.600
 4028POPC   C3B53265  20.954  36.139   6.995
 4028POPC   C4B53266  21.235  36.079   7.321
 4029POPC   NC353267  28.281  38.039   5.378
 4029POPC   PO453268  27.998  37.423   5.363
 4029POPC   GL153269  28.246  37.614   5.713
 4029POPC   GL253270  28.477  37.360   5.908
 4029POPC   C1A53271  28.355  37.783   6.141
 4029POPC   D2A53272  28.536  37.481   6.452
 4029POPC   C3A53273  28.440  37.562   6.871
 4029POPC   C4A53274  28.571  37.764   7.266
 4029POPC   C1B53275  28.095  37.341   6.184
 4029POPC   C2B53276  27.847  37.274   6.548
 4029POPC   C3B53277  27.976  37.388   6.966
 4029POPC   C4B53278  28.246  37.334   7.304
 4030POPC   NC353279  28.946  19.848   5.321
 4030POPC   PO453280  29.161  19.316   5.669
 4030POPC   GL153281  29.132  19.778   5.796
 4030POPC   GL253282  28.756  19.904   5.793
 4030POPC   C1A53283  29.284  20.043   6.170
 4030POPC   D2A53284  29.322  19.828   6.585
 4030POPC   C3A53285  29.372  20.045   7.004
 4030POPC   C4A53286  29.313  19.864   7.404
 4030POPC   C1B53287  28.843  19.803   6.219
 4030POPC   C2B53288  28.819  19.993   6.604
 4030POPC   C3B53289  28.911  19.862   7.010
 4030POPC   C4B53290  28.744  19.758   7.396
 4031POPC   NC353291   8.950  14.665   5.552
 4031POPC   PO453292   8.551  14.093   5.660
 4031POPC   GL153293   8.828  14.343   5.930
 4031POPC   GL253294   8.805  14.710   6.043
 4031POPC   C1A53295   9.048  14.278   6.307
 4031POPC   D2A53296   9.035  14.574   6.633
 4031POPC   C3A53297   8.757  14.537   6.962
 4031POPC   C4A53298   8.879  14.384   7.338
 4031POPC   C1B53299   9.207  14.772   6.183
 4031POPC   C2B53300   9.453  14.855   6.565
 4031POPC   C3B53301   9.448  14.669   6.950
 4031POPC   C4B53302   9.229  14.723   7.306
 4032POPC   NC353303   5.716  27.312   5.439
 4032POPC   PO453304   6.073  27.894   5.515
 4032POPC   GL153305   5.886  27.615   5.824
 4032POPC   GL253306   6.101  27.316   5.798
 4032POPC   C1A53307   5.638  27.515   6.205
 4032POPC   D2A53308   5.625  27.221   6.540
 4032POPC   C3A53309   5.660  27.411   6.935
 4032POPC   C4A53310   5.789  27.593   7.297
 4032POPC   C1B53311   6.143  27.449   6.245
 4032POPC   C2B53312   6.088  27.531   6.695
 4032POPC   C3B53313   6.264  27.672   7.115
 4032POPC   C4B53314   6.216  27.573   7.586
 4033POPC   NC353315  31.022   5.987   5.456
 4033POPC   PO453316  30.373   6.159   5.372
 4033POPC   GL153317  30.568   5.988   5.747
 4033POPC   GL253318  30.778   5.660   5.779
 4033POPC   C1A53319  30.490   5.891   6.180
 4033POPC   D2A53320  30.662   5.800   6.568
 4033POPC   C3A53321  30.425   5.759   6.954
 4033POPC   C4A53322  30.758   5.908   7.224
 4033POPC   C1B53323  31.019   5.757   6.172
 4033POPC   C2B53324  31.107   5.518   6.567
 4033POPC   C3B53325  31.326   5.483   6.965
 4033POPC   C4B53326  31.197   5.363   7.386
 4034POPC   NC353327   6.180  36.822   5.055
 4034POPC   PO453328   6.694  36.954   5.393
 4034POPC   GL153329   6.537  36.813   5.739
 4034POPC   GL253330   6.746  36.517   5.684
 4034POPC   C1A53331   6.492  37.036   6.133
 4034POPC   D2A53332   6.662  37.212   6.509
 4034POPC   C3A53333   6.471  37.069   6.841
 4034POPC   C4A53334   6.477  37.040   7.249
 4034POPC   C1B53335   6.737  36.545   6.120
 4034POPC   C2B53336   6.673  36.674   6.543
 4034POPC   C3B53337   6.609  36.601   6.984
 4034POPC   C4B53338   6.656  36.598   7.435
 4035POPC   NC353339   7.909  16.030   5.289
 4035POPC   PO453340   7.221  15.936   5.475
 4035POPC   GL153341   7.491  15.979   5.832
 4035POPC   GL253342   7.873  15.866   5.767
 4035POPC   C1A53343   7.337  16.073   6.255
 4035POPC   D2A53344   7.098  16.117   6.627
 4035POPC   C3A53345   7.352  16.005   6.983
 4035POPC   C4A53346   7.812  16.043   7.050
 4035POPC   C1B53347   7.736  15.596   6.076
 4035POPC   C2B53348   7.537  15.626   6.467
 4035POPC   C3B53349   7.465  15.512   6.856
 4035POPC   C4B53350   7.765  15.498   7.146
 4036POPC   NC353351  16.972  19.765   5.363
 4036POPC   PO453352  16.521  20.236   5.470
 4036POPC   GL153353  16.655  19.954   5.769
 4036POPC   GL253354  16.957  20.051   5.822
 4036POPC   C1A53355  16.576  19.837   6.202
 4036POPC   D2A53356  16.735  19.792   6.611
 4036POPC   C3A53357  16.560  19.455   6.830
 4036POPC   C4A53358  16.283  19.526   7.185
 4036POPC   C1B53359  16.957  20.181   6.252
 4036POPC   C2B53360  17.008  20.399   6.619
 4036POPC   C3B53361  16.952  20.149   6.955
 4036POPC   C4B53362  16.772  19.790   7.157
 4037POPC   NC353363  29.301  37.639   5.309
 4037POPC   PO453364  28.680  37.797   5.409
 4037POPC   GL153365  28.941  37.479   5.670
 4037POPC   GL253366  29.325  37.447   5.774
 4037POPC   C1A53367  28.948  37.454   6.128
 4037POPC   D2A53368  29.082  37.763   6.446
 4037POPC   C3A53369  29.129  37.656   6.872
 4037POPC   C4A53370  28.869  37.412   7.079
 4037POPC   C1B53371  29.464  37.498   6.196
 4037POPC   C2B53372  29.297  37.291   6.530
 4037POPC   C3B53373  29.430  37.235   6.909
 4037POPC   C4B53374  29.344  37.338   7.287
 4038POPC   NC353375   6.705   4.494   5.353
 4038POPC   PO453376   7.087   3.924   5.425
 4038POPC   GL153377   6.917   4.185   5.798
 4038POPC   GL253378   6.546   4.275   5.832
 4038POPC   C1A53379   6.840   4.177   6.266
 4038POPC   D2A53380   6.543   4.224   6.627
 4038POPC   C3A53381   6.503   4.018   7.046
 4038POPC   C4A53382   6.745   4.093   7.452
 4038POPC   C1B53383   6.585   4.617   6.162
 4038POPC   C2B53384   6.527   4.802   6.567
 4038POPC   C3B53385   6.332   4.672   6.920
 4038POPC   C4B53386   6.635   4.507   7.169
 4039POPC   NC353387   8.322   8.001   5.144
 4039POPC   PO453388   8.364   7.387   5.341
 4039POPC   GL153389   8.264   7.371   5.754
 4039POPC   GL253390   8.412   7.693   5.739
 4039POPC   C1A53391   8.103   7.343   6.171
 4039POPC   D2A53392   8.275   7.277   6.580
 4039POPC   C3A53393   8.041   7.365   6.944
 4039POPC   C4A53394   8.008   7.276   7.356
 4039POPC   C1B53395   8.617   7.532   6.105
 4039POPC   C2B53396   8.691   7.589   6.531
 4039POPC   C3B53397   8.470   7.668   6.905
 4039POPC   C4B53398   8.393   7.803   7.293
 4040POPC   NC353399  27.271  31.566   5.548
 4040POPC   PO453400  27.841  31.264   5.373
 4040POPC   GL153401  27.644  31.290   5.801
 4040POPC   GL253402  27.715  31.612   5.871
 4040POPC   C1A53403  27.415  31.390   6.230
 4040POPC   D2A53404  27.538  31.535   6.652
 4040POPC   C3A53405  27.492  31.434   7.091
 4040POPC   C4A53406  27.329  31.256   7.474
 4040POPC   C1B53407  27.907  31.590   6.299
 4040POPC   C2B53408  27.996  31.783   6.724
 4040POPC   C3B53409  27.933  31.752   7.174
 4040POPC   C4B53410  27.762  31.680   7.617
 4041POPC   NC353411   5.976  28.338   5.414
 4041POPC   PO453412   5.308  28.388   5.416
 4041POPC   GL153413   5.631  28.426   5.758
 4041POPC   GL253414   5.713  28.104   5.853
 4041POPC   C1A53415   5.885  28.474   6.175
 4041POPC   D2A53416   5.721  28.325   6.597
 4041POPC   C3A53417   5.900  28.485   7.000
 4041POPC   C4A53418   5.750  28.807   7.301
 4041POPC   C1B53419   5.924  27.954   6.238
 4041POPC   C2B53420   6.159  28.031   6.621
 4041POPC   C3B53421   5.893  27.975   6.967
 4041POPC   C4B53422   5.788  28.126   7.374
 4042POPC   NC353423  41.352  15.315   5.531
 4042POPC   PO453424  41.779  14.765   5.453
 4042POPC   GL153425  41.841  15.021   5.816
 4042POPC   GL253426  41.790  15.393   5.851
 4042POPC   C1A53427  41.660  15.046   6.202
 4042POPC   D2A53428  41.766  15.278   6.538
 4042POPC   C3A53429  41.471  15.074   6.773
 4042POPC   C4A53430  41.656  15.020   7.148
 4042POPC   C1B53431  41.452  15.514   6.172
 4042POPC   C2B53432  41.381  15.586   6.619
 4042POPC   C3B53433  41.534  15.507   7.031
 4042POPC   C4B53434  41.299  15.482   7.385
 4043POPC   NC353435  10.223  38.499   5.383
 4043POPC   PO453436   9.533  38.607   5.359
 4043POPC   GL153437   9.820  38.600   5.716
 4043POPC   GL253438   9.969  38.253   5.785
 4043POPC   C1A53439   9.687  38.505   6.129
 4043POPC   D2A53440   9.392  38.662   6.393
 4043POPC   C3A53441   9.458  38.586   6.824
 4043POPC   C4A53442   9.607  38.764   7.213
 4043POPC   C1B53443  10.155  38.323   6.227
 4043POPC   C2B53444   9.942  38.513   6.609
 4043POPC   C3B53445   9.910  38.382   7.050
 4043POPC   C4B53446   9.950  38.137   7.434
 4044POPC   NC353447  28.802  19.156   5.418
 4044POPC   PO453448  28.497  18.594   5.548
 4044POPC   GL153449  28.551  18.985   5.861
 4044POPC   GL253450  28.663  19.360   5.859
 4044POPC   C1A53451  28.323  19.121   6.242
 4044POPC   D2A53452  28.112  18.908   6.578
 4044POPC   C3A53453  28.313  19.002   6.974
 4044POPC   C4A53454  28.031  18.915   7.323
 4044POPC   C1B53455  28.804  19.286   6.265
 4044POPC   C2B53456  28.850  19.164   6.697
 4044POPC   C3B53457  28.674  19.374   7.052
 4044POPC   C4B53458  28.592  19.258   7.449
 4045POPC   NC353459  11.617   7.035   5.393
 4045POPC   PO453460  11.709   7.743   5.375
 4045POPC   GL153461  11.488   7.513   5.772
 4045POPC   GL253462  11.523   7.206   5.855
 4045POPC   C1A53463  11.271   7.456   6.223
 4045POPC   D2A53464  11.058   7.467   6.657
 4045POPC   C3A53465  11.260   7.632   7.051
 4045POPC   C4A53466  11.409   7.408   7.404
 4045POPC   C1B53467  11.598   7.055   6.224
 4045POPC   C2B53468  11.452   7.074   6.623
 4045POPC   C3B53469  11.272   7.118   7.005
 4045POPC   C4B53470  11.400   6.897   7.336
 4046POPC   NC353471  24.272   2.247   5.429
 4046POPC   PO453472  24.760   1.835   5.530
 4046POPC   GL153473  24.442   1.975   5.843
 4046POPC   GL253474  24.237   1.764   6.075
 4046POPC   C1A53475  24.391   2.300   6.139
 4046POPC   D2A53476  24.273   2.452   6.562
 4046POPC   C3A53477  24.389   2.193   6.888
 4046POPC   C4A53478  24.731   2.048   7.124
 4046POPC   C1B53479  24.412   1.908   6.473
 4046POPC   C2B53480  24.525   1.666   6.840
 4046POPC   C3B53481  24.708   1.556   7.244
 4046POPC   C4B53482  24.714   1.539   7.700
 4047POPC   NC353483   8.975  36.430   5.437
 4047POPC   PO453484   9.109  35.858   5.577
 4047POPC   GL153485   8.883  35.933   5.902
 4047POPC   GL253486   8.766  36.262   5.906
 4047POPC   C1A53487   8.853  35.862   6.319
 4047POPC   D2A53488   8.640  35.974   6.676
 4047POPC   C3A53489   8.914  35.947   6.981
 4047POPC   C4A53490   9.108  35.888   7.343
 4047POPC   C1B53491   8.671  36.396   6.356
 4047POPC   C2B53492   8.639  36.449   6.861
 4047POPC   C3B53493   8.793  36.329   7.305
 4047POPC   C4B53494   8.689  36.568   7.759
 4048POPC   NC353495  28.860  20.777   5.679
 4048POPC   PO453496  29.495  20.889   5.528
 4048POPC   GL153497  29.407  20.548   5.807
 4048POPC   GL253498  29.116  20.309   5.763
 4048POPC   C1A53499  29.302  20.568   6.242
 4048POPC   D2A53500  29.228  20.334   6.615
 4048POPC   C3A53501  29.256  20.575   7.004
 4048POPC   C4A53502  28.926  20.865   7.111
 4048POPC   C1B53503  28.857  20.324   6.171
 4048POPC   C2B53504  28.766  20.556   6.543
 4048POPC   C3B53505  28.799  20.393   6.944
 4048POPC   C4B53506  28.570  20.206   7.215
 4049POPC   NC353507  43.457  18.918   5.740
 4049POPC   PO453508  43.161  19.287   5.265
 4049POPC   GL153509  43.103  19.288   5.746
 4049POPC   GL253510  42.820  19.206   5.949
 4049POPC   C1A53511  43.204  19.387   6.212
 4049POPC   D2A53512  43.471  19.289   6.539
 4049POPC   C3A53513  43.272  18.958   6.771
 4049POPC   C4A53514  43.176  18.864   7.199
 4049POPC   C1B53515  43.056  18.903   6.278
 4049POPC   C2B53516  42.982  18.580   6.626
 4049POPC   C3B53517  42.750  18.684   7.010
 4049POPC   C4B53518  42.725  18.813   7.464
 4050POPC   NC353519   0.225  22.132   5.464
 4050POPC   PO453520   0.298  22.799   5.543
 4050POPC   GL153521   0.304  22.454   5.849
 4050POPC   GL253522   0.630  22.296   5.764
 4050POPC   C1A53523   0.400  22.144   6.193
 4050POPC   D2A53524   0.602  22.252   6.560
 4050POPC   C3A53525   0.347  22.207   6.916
 4050POPC   C4A53526   0.400  21.977   7.288
 4050POPC   C1B53527   0.721  22.582   6.133
 4050POPC   C2B53528   0.981  22.595   6.539
 4050POPC   C3B53529   0.847  22.475   6.948
 4050POPC   C4B53530   0.568  22.507   7.283
 4051POPC   NC353531  31.947  21.529   5.384
 4051POPC   PO453532  31.368  21.196   5.290
 4051POPC   GL153533  31.470  21.335   5.711
 4051POPC   GL253534  31.193  21.301   5.960
 4051POPC   C1A53535  31.680  21.224   6.108
 4051POPC   D2A53536  31.656  21.092   6.537
 4051POPC   C3A53537  31.345  21.176   6.869
 4051POPC   C4A53538  31.644  21.193   7.210
 4051POPC   C1B53539  31.379  21.613   6.288
 4051POPC   C2B53540  31.555  21.620   6.733
 4051POPC   C3B53541  31.366  21.615   7.174
 4051POPC   C4B53542  31.316  21.689   7.686
 4052POPC   NC353543  11.249  28.761   5.362
 4052POPC   PO453544  11.108  28.069   5.445
 4052POPC   GL153545  11.162  28.367   5.784
 4052POPC   GL253546  11.482  28.545   5.789
 4052POPC   C1A53547  11.171  28.472   6.234
 4052POPC   D2A53548  11.310  28.399   6.666
 4052POPC   C3A53549  10.964  28.477   6.946
 4052POPC   C4A53550  10.907  28.599   7.348
 4052POPC   C1B53551  11.518  28.841   6.157
 4052POPC   C2B53552  11.597  28.833   6.615
 4052POPC   C3B53553  11.397  28.767   7.032
 4052POPC   C4B53554  11.368  28.384   7.286
 4053POPC   NC353555   5.500  22.265   5.547
 4053POPC   PO453556   5.068  21.780   5.455
 4053POPC   GL153557   5.112  22.058   5.807
 4053POPC   GL253558   5.354  21.862   5.893
 4053POPC   C1A53559   5.361  22.224   6.220
 4053POPC   D2A53560   5.388  22.043   6.646
 4053POPC   C3A53561   5.133  22.331   6.882
 4053POPC   C4A53562   4.985  22.523   7.257
 4053POPC   C1B53563   5.019  21.805   6.239
 4053POPC   C2B53564   4.849  21.813   6.662
 4053POPC   C3B53565   5.052  21.847   7.058
 4053POPC   C4B53566   4.953  22.044   7.470
 4054POPC   NC353567  26.635  35.860   5.485
 4054POPC   PO453568  27.004  36.351   5.494
 4054POPC   GL153569  26.860  36.144   5.878
 4054POPC   GL253570  26.523  36.207   5.868
 4054POPC   C1A53571  26.945  36.148   6.333
 4054POPC   D2A53572  26.725  36.413   6.656
 4054POPC   C3A53573  26.622  36.191   7.033
 4054POPC   C4A53574  26.789  36.274   7.470
 4054POPC   C1B53575  26.501  35.921   6.231
 4054POPC   C2B53576  26.292  35.948   6.631
 4054POPC   C3B53577  26.219  35.797   7.035
 4054POPC   C4B53578  26.429  35.933   7.435
 4055POPC   NC353579   3.179  23.180   5.378
 4055POPC   PO453580   2.716  22.688   5.380
 4055POPC   GL153581   2.820  23.001   5.725
 4055POPC   GL253582   2.541  23.226   5.864
 4055POPC   C1A53583   2.964  22.889   6.161
 4055POPC   D2A53584   2.999  22.713   6.596
 4055POPC   C3A53585   2.898  23.038   6.886
 4055POPC   C4A53586   3.090  23.114   7.272
 4055POPC   C1B53587   2.462  22.780   6.046
 4055POPC   C2B53588   2.498  22.617   6.480
 4055POPC   C3B53589   2.394  22.750   6.910
 4055POPC   C4B53590   2.517  22.988   7.265
 4056POPC   NC353591  17.250  29.697   5.441
 4056POPC   PO453592  17.796  30.120   5.592
 4056POPC   GL153593  17.504  29.848   5.887
 4056POPC   GL253594  17.703  29.644   6.148
 4056POPC   C1A53595  17.236  29.757   6.286
 4056POPC   D2A53596  17.344  29.510   6.671
 4056POPC   C3A53597  17.436  29.779   7.056
 4056POPC   C4A53598  17.541  29.801   7.502
 4056POPC   C1B53599  17.682  30.085   6.318
 4056POPC   C2B53600  17.830  30.332   6.669
 4056POPC   C3B53601  17.777  30.227   7.143
 4056POPC   C4B53602  17.713  30.269   7.613
 4057POPC   NC353603  37.144   9.937   5.557
 4057POPC   PO453604  36.527   9.622   5.418
 4057POPC   GL153605  36.754   9.618   5.841
 4057POPC   GL253606  37.096   9.425   5.867
 4057POPC   C1A53607  36.726   9.873   6.252
 4057POPC   D2A53608  36.509   9.959   6.664
 4057POPC   C3A53609  36.777   9.975   7.041
 4057POPC   C4A53610  36.724   9.878   7.497
 4057POPC   C1B53611  37.010   9.436   6.286
 4057POPC   C2B53612  36.921   9.628   6.675
 4057POPC   C3B53613  36.607   9.513   6.972
 4057POPC   C4B53614  36.773   9.388   7.335
 4058POPC   NC353615  38.977  34.165   5.215
 4058POPC   PO453616  39.328  33.675   5.573
 4058POPC   GL153617  39.400  33.652   5.999
 4058POPC   GL253618  39.037  33.504   6.006
 4058POPC   C1A53619  39.606  33.659   6.392
 4058POPC   D2A53620  39.402  33.922   6.668
 4058POPC   C3A53621  39.203  33.689   6.963
 4058POPC   C4A53622  39.537  33.666   7.249
 4058POPC   C1B53623  39.026  33.750   6.386
 4058POPC   C2B53624  38.976  34.187   6.554
 4058POPC   C3B53625  39.186  34.318   6.919
 4058POPC   C4B53626  39.212  34.109   7.273
 4059POPC   NC353627  41.735   2.198   5.284
 4059POPC   PO453628  41.503   1.595   5.399
 4059POPC   GL153629  41.757   1.798   5.790
 4059POPC   GL253630  41.899   2.162   5.793
 4059POPC   C1A53631  41.684   1.836   6.271
 4059POPC   D2A53632  41.828   2.062   6.656
 4059POPC   C3A53633  41.669   1.885   7.037
 4059POPC   C4A53634  41.244   1.928   7.245
 4059POPC   C1B53635  41.807   2.356   6.207
 4059POPC   C2B53636  41.664   2.550   6.615
 4059POPC   C3B53637  41.739   2.407   7.050
 4059POPC   C4B53638  41.920   2.211   7.419
 4060POPC   NC353639  37.071  34.069   5.215
 4060POPC   PO453640  36.684  33.583   5.474
 4060POPC   GL153641  36.811  33.778   5.815
 4060POPC   GL253642  37.140  33.907   5.735
 4060POPC   C1A53643  36.731  33.891   6.236
 4060POPC   D2A53644  36.492  34.044   6.541
 4060POPC   C3A53645  36.711  34.243   6.836
 4060POPC   C4A53646  36.988  34.156   7.158
 4060POPC   C1B53647  37.205  33.754   6.152
 4060POPC   C2B53648  37.127  33.906   6.610
 4060POPC   C3B53649  37.356  33.855   7.008
 4060POPC   C4B53650  37.329  33.706   7.442
 4061POPC   NC353651   9.897  16.248   5.424
 4061POPC   PO453652   9.412  15.942   5.029
 4061POPC   GL153653   9.526  15.882   5.549
 4061POPC   GL253654   9.873  15.782   5.707
 4061POPC   C1A53655   9.509  15.905   6.047
 4061POPC   D2A53656   9.623  16.073   6.446
 4061POPC   C3A53657   9.552  15.879   6.842
 4061POPC   C4A53658   9.683  15.941   7.239
 4061POPC   C1B53659  10.042  15.900   6.174
 4061POPC   C2B53660  10.011  15.783   6.655
 4061POPC   C3B53661  10.169  15.976   7.080
 4061POPC   C4B53662  10.259  16.091   7.568
 4062POPC   NC353663  28.550  34.802   5.435
 4062POPC   PO453664  28.339  34.162   5.540
 4062POPC   GL153665  28.546  34.436   5.817
 4062POPC   GL253666  28.289  34.365   6.073
 4062POPC   C1A53667  28.698  34.614   6.213
 4062POPC   D2A53668  28.502  34.487   6.588
 4062POPC   C3A53669  28.616  34.612   6.975
 4062POPC   C4A53670  28.643  34.340   7.313
 4062POPC   C1B53671  28.211  34.790   6.298
 4062POPC   C2B53672  28.091  34.773   6.727
 4062POPC   C3B53673  28.144  34.415   6.981
 4062POPC   C4B53674  28.233  34.691   7.305
 4063POPC   NC353675   3.929  43.037   5.411
 4063POPC   PO453676   3.414  43.440   5.425
 4063POPC   GL153677   3.512  43.120   5.752
 4063POPC   GL253678   3.842  43.108   5.894
 4063POPC   C1A53679   3.433  43.015   6.201
 4063POPC   D2A53680   3.496  43.227   6.602
 4063POPC   C3A53681   3.454  42.971   6.952
 4063POPC   C4A53682   3.175  42.713   7.214
 4063POPC   C1B53683   3.921  43.180   6.302
 4063POPC   C2B53684   3.841  42.848   6.592
 4063POPC   C3B53685   4.006  42.778   6.969
 4063POPC   C4B53686   3.908  43.143   7.209
 4064POPC   NC353687  20.375  41.717   5.463
 4064POPC   PO453688  20.733  41.294   5.638
 4064POPC   GL153689  20.712  41.638   5.886
 4064POPC   GL253690  20.367  41.766   5.967
 4064POPC   C1A53691  20.803  41.729   6.293
 4064POPC   D2A53692  20.462  41.682   6.584
 4064POPC   C3A53693  20.523  41.737   7.033
 4064POPC   C4A53694  20.817  41.605   7.393
 4064POPC   C1B53695  20.314  41.355   6.133
 4064POPC   C2B53696  20.219  41.181   6.513
 4064POPC   C3B53697  20.446  41.181   6.872
 4064POPC   C4B53698  20.403  41.294   7.275
 4065POPC   NC353699  20.619  21.677   5.455
 4065POPC   PO453700  20.669  20.991   5.447
 4065POPC   GL153701  20.557  21.240   5.791
 4065POPC   GL253702  20.250  21.047   5.877
 4065POPC   C1A53703  20.806  21.476   6.114
 4065POPC   D2A53704  20.843  21.699   6.544
 4065POPC   C3A53705  20.638  21.585   6.953
 4065POPC   C4A53706  20.662  21.273   7.286
 4065POPC   C1B53707  20.421  21.184   6.284
 4065POPC   C2B53708  20.553  21.145   6.701
 4065POPC   C3B53709  20.273  21.227   6.978
 4065POPC   C4B53710  20.161  21.237   7.355
 4066POPC   NC353711   7.542   4.036   5.445
 4066POPC   PO453712   7.263   4.635   5.244
 4066POPC   GL153713   7.370   4.459   5.678
 4066POPC   GL253714   7.736   4.495   5.739
 4066POPC   C1A53715   7.364   4.275   6.121
 4066POPC   D2A53716   7.259   4.209   6.567
 4066POPC   C3A53717   7.385   3.843   6.786
 4066POPC   C4A53718   7.423   3.947   7.216
 4066POPC   C1B53719   7.696   4.696   6.169
 4066POPC   C2B53720   7.574   4.625   6.606
 4066POPC   C3B53721   7.515   4.415   7.010
 4066POPC   C4B53722   7.601   4.564   7.439
 4067POPC   NC353723   8.653  26.096   5.449
 4067POPC   PO453724   9.361  26.201   5.331
 4067POPC   GL153725   9.087  26.068   5.708
 4067POPC   GL253726   9.251  25.796   5.888
 4067POPC   C1A53727   8.757  25.951   6.090
 4067POPC   D2A53728   8.851  25.786   6.518
 4067POPC   C3A53729   8.730  25.899   6.929
 4067POPC   C4A53730   8.906  25.984   7.314
 4067POPC   C1B53731   9.200  26.154   6.191
 4067POPC   C2B53732   9.125  26.250   6.603
 4067POPC   C3B53733   9.315  26.091   6.965
 4067POPC   C4B53734   9.208  26.376   7.245
 4068POPC   NC353735   3.182  26.354   5.598
 4068POPC   PO453736   3.713  26.800   5.434
 4068POPC   GL153737   3.497  26.798   5.798
 4068POPC   GL253738   3.155  26.891   5.768
 4068POPC   C1A53739   3.646  26.792   6.212
 4068POPC   D2A53740   3.595  27.052   6.560
 4068POPC   C3A53741   3.639  26.821   6.927
 4068POPC   C4A53742   3.957  26.558   7.132
 4068POPC   C1B53743   3.220  27.113   6.150
 4068POPC   C2B53744   3.123  27.207   6.590
 4068POPC   C3B53745   3.266  27.200   7.027
 4068POPC   C4B53746   3.344  26.881   7.351
 4069POPC   NC353747  29.930  16.923   5.405
 4069POPC   PO453748  30.307  16.466   5.696
 4069POPC   GL153749  30.090  16.804   5.885
 4069POPC   GL253750  29.736  16.795   5.866
 4069POPC   C1A53751  29.996  16.786   6.317
 4069POPC   D2A53752  30.235  16.722   6.685
 4069POPC   C3A53753  29.938  16.744   7.011
 4069POPC   C4A53754  29.888  16.482   7.361
 4069POPC   C1B53755  29.531  17.002   6.216
 4069POPC   C2B53756  29.530  16.996   6.630
 4069POPC   C3B53757  29.412  16.832   6.997
 4069POPC   C4B53758  29.586  16.892   7.402
 4070POPC   NC353759   1.050  15.474   5.381
 4070POPC   PO453760   0.980  16.128   5.379
 4070POPC   GL153761   1.063  16.032   5.794
 4070POPC   GL253762   0.933  15.722   5.810
 4070POPC   C1A53763   1.253  16.068   6.201
 4070POPC   D2A53764   1.563  15.903   6.515
 4070POPC   C3A53765   1.415  15.845   6.953
 4070POPC   C4A53766   1.527  16.159   7.310
 4070POPC   C1B53767   0.814  15.753   6.213
 4070POPC   C2B53768   1.007  15.766   6.582
 4070POPC   C3B53769   0.860  15.742   6.967
 4070POPC   C4B53770   1.032  15.879   7.316
 4071POPC   NC353771   7.520   5.014   5.295
 4071POPC   PO453772   7.140   5.611   5.443
 4071POPC   GL153773   7.428   5.350   5.734
 4071POPC   GL253774   7.435   4.964   5.792
 4071POPC   C1A53775   7.534   5.293   6.167
 4071POPC   D2A53776   7.379   5.361   6.580
 4071POPC   C3A53777   7.503   5.085   6.855
 4071POPC   C4A53778   7.769   5.208   7.165
 4071POPC   C1B53779   7.130   4.742   6.066
 4071POPC   C2B53780   7.029   4.667   6.499
 4071POPC   C3B53781   7.116   4.754   6.943
 4071POPC   C4B53782   7.330   4.968   7.316
 4072POPC   NC353783  28.326  27.880   5.628
 4072POPC   PO453784  27.991  27.376   5.347
 4072POPC   GL153785  27.926  27.555   5.773
 4072POPC   GL253786  28.116  27.318   5.964
 4072POPC   C1A53787  28.038  27.741   6.217
 4072POPC   D2A53788  28.351  27.567   6.540
 4072POPC   C3A53789  28.297  27.661   6.988
 4072POPC   C4A53790  27.965  27.736   7.293
 4072POPC   C1B53791  28.359  27.088   6.272
 4072POPC   C2B53792  28.722  27.191   6.523
 4072POPC   C3B53793  28.722  27.354   6.935
 4072POPC   C4B53794  28.596  27.444   7.370
 4073POPC   NC353795  12.045  25.408   5.278
 4073POPC   PO453796  12.321  24.969   5.629
 4073POPC   GL153797  11.962  25.159   5.770
 4073POPC   GL253798  12.080  25.497   5.769
 4073POPC   C1A53799  11.841  25.314   6.174
 4073POPC   D2A53800  12.097  25.200   6.523
 4073POPC   C3A53801  12.024  25.297   6.937
 4073POPC   C4A53802  12.043  25.133   7.358
 4073POPC   C1B53803  12.292  25.562   6.179
 4073POPC   C2B53804  12.239  25.707   6.598
 4073POPC   C3B53805  12.443  25.614   6.977
 4073POPC   C4B53806  12.506  25.422   7.388
 4074POPC   NC353807   1.862  21.235   5.592
 4074POPC   PO453808   2.343  21.717   5.266
 4074POPC   GL153809   2.294  21.544   5.687
 4074POPC   GL253810   1.997  21.681   5.791
 4074POPC   C1A53811   2.233  21.458   6.171
 4074POPC   D2A53812   1.903  21.307   6.465
 4074POPC   C3A53813   1.920  21.224   6.917
 4074POPC   C4A53814   1.637  21.239   7.274
 4074POPC   C1B53815   1.931  21.887   6.152
 4074POPC   C2B53816   1.779  21.810   6.541
 4074POPC   C3B53817   2.054  21.736   6.854
 4074POPC   C4B53818   1.982  21.615   7.246
 4075POPC   NC353819  31.453  42.599   5.440
 4075POPC   PO453820  30.901  42.532   5.467
 4075POPC   GL153821  31.160  42.489   5.863
 4075POPC   GL253822  31.522  42.343   5.872
 4075POPC   C1A53823  31.322  42.601   6.292
 4075POPC   D2A53824  31.513  42.362   6.634
 4075POPC   C3A53825  31.562  42.501   7.057
 4075POPC   C4A53826  31.422  42.223   7.428
 4075POPC   C1B53827  31.811  42.472   6.211
 4075POPC   C2B53828  32.034  42.471   6.606
 4075POPC   C3B53829  31.956  42.190   6.928
 4075POPC   C4B53830  31.925  42.203   7.360
 4076POPC   NC353831  19.366  39.168   5.613
 4076POPC   PO453832  18.921  39.695   5.410
 4076POPC   GL153833  18.927  39.465   5.821
 4076POPC   GL253834  18.706  39.150   5.779
 4076POPC   C1A53835  19.154  39.562   6.220
 4076POPC   D2A53836  19.107  39.705   6.640
 4076POPC   C3A53837  19.190  39.323   6.873
 4076POPC   C4A53838  19.183  39.303   7.283
 4076POPC   C1B53839  18.712  38.865   6.165
 4076POPC   C2B53840  18.841  38.753   6.602
 4076POPC   C3B53841  18.832  38.948   7.024
 4076POPC   C4B53842  18.886  38.947   7.484
 4077POPC   NC353843  33.819  29.405   5.594
 4077POPC   PO453844  33.745  29.963   5.282
 4077POPC   GL153845  33.808  29.924   5.712
 4077POPC   GL253846  33.738  30.241   5.845
 4077POPC   C1A53847  33.969  29.825   6.130
 4077POPC   D2A53848  34.149  29.761   6.524
 4077POPC   C3A53849  33.885  29.643   6.885
 4077POPC   C4A53850  33.814  29.767   7.346
 4077POPC   C1B53851  33.613  30.179   6.259
 4077POPC   C2B53852  33.807  30.122   6.654
 4077POPC   C3B53853  34.044  30.114   7.014
 4077POPC   C4B53854  33.883  30.288   7.366
 4078POPC   NC353855  37.029  43.607   5.069
 4078POPC   PO453856  37.009  43.000   5.376
 4078POPC   GL153857  36.911  42.960   5.801
 4078POPC   GL253858  37.141  43.239   5.827
 4078POPC   C1A53859  36.697  43.015   6.210
 4078POPC   D2A53860  36.871  43.114   6.629
 4078POPC   C3A53861  36.661  43.190   6.990
 4078POPC   C4A53862  36.887  43.202   7.340
 4078POPC   C1B53863  37.219  43.181   6.259
 4078POPC   C2B53864  37.265  43.477   6.599
 4078POPC   C3B53865  37.148  43.483   7.011
 4078POPC   C4B53866  37.309  43.490   7.415
 4079POPC   NC353867  26.569   0.419   5.331
 4079POPC   PO453868  27.106  44.979   5.506
 4079POPC   GL153869  26.957   0.299   5.817
 4079POPC   GL253870  26.868   0.654   5.792
 4079POPC   C1A53871  26.976   0.450   6.260
 4079POPC   D2A53872  26.925   0.264   6.657
 4079POPC   C3A53873  27.032   0.440   7.048
 4079POPC   C4A53874  26.861   0.165   7.331
 4079POPC   C1B53875  26.626   0.818   6.189
 4079POPC   C2B53876  26.739   0.771   6.650
 4079POPC   C3B53877  26.557   0.600   7.035
 4079POPC   C4B53878  26.397   0.387   7.385
 4080POPC   NC353879  13.301  30.432   5.625
 4080POPC   PO453880  13.825  30.010   5.444
 4080POPC   GL153881  13.542  29.993   5.802
 4080POPC   GL253882  13.621  30.250   5.986
 4080POPC   C1A53883  13.493  29.814   6.224
 4080POPC   D2A53884  13.686  29.587   6.571
 4080POPC   C3A53885  13.630  29.774   6.998
 4080POPC   C4A53886  13.338  29.933   7.313
 4080POPC   C1B53887  13.527  30.305   6.423
 4080POPC   C2B53888  13.742  30.274   6.842
 4080POPC   C3B53889  13.749  30.299   7.316
 4080POPC   C4B53890  13.865  30.490   7.724
 4081POPC   NC353891  32.687  44.716   5.356
 4081POPC   PO453892  32.019  44.495   5.415
 4081POPC   GL153893  32.227  44.659   5.811
 4081POPC   GL253894  32.568  44.797   5.859
 4081POPC   C1A53895  32.193  44.732   6.263
 4081POPC   D2A53896  32.125  44.397   6.571
 4081POPC   C3A53897  32.049  44.525   6.993
 4081POPC   C4A53898  32.117  44.916   7.200
 4081POPC   C1B53899  32.610  44.445   6.155
 4081POPC   C2B53900  32.655  44.458   6.591
 4081POPC   C3B53901  32.548  44.726   6.967
 4081POPC   C4B53902  32.462  44.604   7.400
 4082POPC   NC353903  17.719  17.244   5.528
 4082POPC   PO453904  17.305  17.711   5.569
 4082POPC   GL153905  17.474  17.522   5.923
 4082POPC   GL253906  17.328  17.227   5.900
 4082POPC   C1A53907  17.563  17.676   6.351
 4082POPC   D2A53908  17.695  18.011   6.618
 4082POPC   C3A53909  17.464  17.905   6.961
 4082POPC   C4A53910  17.481  17.553   7.225
 4082POPC   C1B53911  17.249  17.247   6.322
 4082POPC   C2B53912  17.325  17.387   6.744
 4082POPC   C3B53913  17.104  17.243   7.138
 4082POPC   C4B53914  17.172  17.324   7.583
 4083POPC   NC353915   2.139  17.016   5.334
 4083POPC   PO453916   1.792  16.417   5.551
 4083POPC   GL153917   1.765  16.820   5.750
 4083POPC   GL253918   2.121  16.781   5.799
 4083POPC   C1A53919   1.615  17.049   6.144
 4083POPC   D2A53920   1.605  16.859   6.573
 4083POPC   C3A53921   1.796  16.904   6.982
 4083POPC   C4A53922   1.829  16.611   7.343
 4083POPC   C1B53923   1.957  16.649   6.206
 4083POPC   C2B53924   2.130  16.774   6.591
 4083POPC   C3B53925   2.248  16.609   6.981
 4083POPC   C4B53926   2.178  16.264   7.250
 4084POPC   NC353927  33.689  32.771   5.577
 4084POPC   PO453928  33.835  33.383   5.408
 4084POPC   GL153929  33.722  33.220   5.805
 4084POPC   GL253930  33.400  33.282   5.740
 4084POPC   C1A53931  33.831  32.991   6.188
 4084POPC   D2A53932  33.953  33.005   6.602
 4084POPC   C3A53933  34.034  32.713   6.954
 4084POPC   C4A53934  33.880  32.923   7.288
 4084POPC   C1B53935  33.373  33.454   6.154
 4084POPC   C2B53936  33.514  33.283   6.525
 4084POPC   C3B53937  33.297  33.342   6.897
 4084POPC   C4B53938  33.428  33.220   7.261
 4085POPC   NC353939   0.152  34.056   5.338
 4085POPC   PO453940   0.580  33.612   5.415
 4085POPC   GL153941   0.236  33.731   5.780
 4085POPC   GL253942   0.079  34.072   5.833
 4085POPC   C1A53943   0.182  33.705   6.270
 4085POPC   D2A53944   0.340  33.619   6.738
 4085POPC   C3A53945   0.508  33.903   7.070
 4085POPC   C4A53946   0.893  33.999   7.316
 4085POPC   C1B53947   0.072  34.221   6.251
 4085POPC   C2B53948   0.129  34.082   6.638
 4085POPC   C3B53949   0.147  34.261   7.012
 4085POPC   C4B53950   0.137  34.079   7.416
 4086POPC   NC353951  13.379  20.047   5.465
 4086POPC   PO453952  13.811  19.516   5.458
 4086POPC   GL153953  13.899  19.778   5.839
 4086POPC   GL253954  13.859  20.143   5.807
 4086POPC   C1A53955  13.921  19.687   6.289
 4086POPC   D2A53956  14.113  19.779   6.697
 4086POPC   C3A53957  13.758  19.797   6.993
 4086POPC   C4A53958  13.716  19.487   7.313
 4086POPC   C1B53959  13.550  20.029   6.146
 4086POPC   C2B53960  13.460  19.864   6.559
 4086POPC   C3B53961  13.237  19.939   6.946
 4086POPC   C4B53962  13.373  19.872   7.375
 4087POPC   NC353963  33.315  14.570   5.418
 4087POPC   PO453964  32.885  14.026   5.520
 4087POPC   GL153965  33.043  14.349   5.792
 4087POPC   GL253966  32.745  14.565   5.939
 4087POPC   C1A53967  33.132  14.449   6.199
 4087POPC   D2A53968  32.909  14.666   6.514
 4087POPC   C3A53969  32.947  14.507   6.925
 4087POPC   C4A53970  33.230  14.311   7.245
 4087POPC   C1B53971  32.731  14.126   6.167
 4087POPC   C2B53972  32.532  13.976   6.575
 4087POPC   C3B53973  32.666  14.083   6.982
 4087POPC   C4B53974  32.727  14.331   7.356
 4088POPC   NC353975   9.285  12.179   5.431
 4088POPC   PO453976   8.586  12.135   5.377
 4088POPC   GL153977   8.724  12.305   5.759
 4088POPC   GL253978   9.033  12.243   5.860
 4088POPC   C1A53979   8.539  12.295   6.166
 4088POPC   D2A53980   8.402  12.169   6.564
 4088POPC   C3A53981   8.779  12.079   6.791
 4088POPC   C4A53982   8.876  12.335   7.111
 4088POPC   C1B53983   8.997  12.087   6.274
 4088POPC   C2B53984   9.187  12.311   6.587
 4088POPC   C3B53985   9.350  12.338   6.959
 4088POPC   C4B53986   9.367  12.036   7.310
 4089POPC   NC353987   7.142  28.347   5.314
 4089POPC   PO453988   6.465  28.348   5.331
 4089POPC   GL153989   6.416  28.303   5.733
 4089POPC   GL253990   6.761  28.419   5.819
 4089POPC   C1A53991   6.398  28.161   6.148
 4089POPC   D2A53992   6.748  28.180   6.404
 4089POPC   C3A53993   6.702  28.177   6.849
 4089POPC   C4A53994   6.333  28.185   7.123
 4089POPC   C1B53995   7.022  28.604   6.185
 4089POPC   C2B53996   6.883  28.651   6.609
 4089POPC   C3B53997   7.062  28.692   7.005
 4089POPC   C4B53998   6.941  28.802   7.439
 4090POPC   NC353999  42.316  37.140   5.442
 4090POPC   PO454000  42.625  36.471   5.393
 4090POPC   GL154001  42.370  36.726   5.746
 4090POPC   GL254002  42.475  37.060   5.915
 4090POPC   C1A54003  42.234  36.696   6.200
 4090POPC   D2A54004  42.242  37.037   6.539
 4090POPC   C3A54005  42.364  36.936   6.983
 4090POPC   C4A54006  42.324  36.505   7.168
 4090POPC   C1B54007  42.143  37.364   6.072
 4090POPC   C2B54008  41.914  37.442   6.468
 4090POPC   C3B54009  42.113  37.434   6.865
 4090POPC   C4B54010  41.995  37.312   7.278
 4091POPC   NC354011  15.037  32.582   5.812
 4091POPC   PO454012  15.047  32.031   5.522
 4091POPC   GL154013  15.233  32.104   5.947
 4091POPC   GL254014  15.601  32.032   5.990
 4091POPC   C1A54015  15.069  32.198   6.392
 4091POPC   D2A54016  14.721  32.081   6.681
 4091POPC   C3A54017  14.742  32.262   7.108
 4091POPC   C4A54018  15.130  32.330   7.362
 4091POPC   C1B54019  15.587  32.195   6.426
 4091POPC   C2B54020  15.375  32.120   6.840
 4091POPC   C3B54021  15.553  31.933   7.226
 4091POPC   C4B54022  15.997  32.036   7.401
 4092POPC   NC354023  21.040   1.648   5.498
 4092POPC   PO454024  21.421   2.254   5.438
 4092POPC   GL154025  21.565   2.224   5.848
 4092POPC   GL254026  21.682   2.523   5.860
 4092POPC   C1A54027  21.509   2.087   6.258
 4092POPC   D2A54028  21.438   1.837   6.605
 4092POPC   C3A54029  21.077   1.829   6.887
 4092POPC   C4A54030  20.936   2.171   7.163
 4092POPC   C1B54031  21.418   2.571   6.232
 4092POPC   C2B54032  21.289   2.390   6.643
 4092POPC   C3B54033  21.405   2.183   7.032
 4092POPC   C4B54034  21.506   2.149   7.471
 4093POPC   NC354035  25.168   4.910   5.102
 4093POPC   PO454036  25.482   5.362   5.498
 4093POPC   GL154037  25.254   5.147   5.808
 4093POPC   GL254038  25.084   5.452   5.850
 4093POPC   C1A54039  25.373   5.087   6.255
 4093POPC   D2A54040  25.340   4.883   6.655
 4093POPC   C3A54041  25.440   5.089   7.032
 4093POPC   C4A54042  25.084   5.020   7.293
 4093POPC   C1B54043  24.932   5.337   6.242
 4093POPC   C2B54044  24.923   5.176   6.656
 4093POPC   C3B54045  24.966   5.413   7.011
 4093POPC   C4B54046  25.369   5.609   7.137
 4094POPC   NC354047  22.549  23.156   5.285
 4094POPC   PO454048  21.951  22.720   5.340
 4094POPC   GL154049  22.029  22.903   5.764
 4094POPC   GL254050  22.373  23.021   5.755
 4094POPC   C1A54051  21.928  23.110   6.196
 4094POPC   D2A54052  21.913  23.366   6.618
 4094POPC   C3A54053  22.112  23.196   6.986
 4094POPC   C4A54054  22.042  22.802   7.192
 4094POPC   C1B54055  22.417  22.886   6.179
 4094POPC   C2B54056  22.209  22.885   6.575
 4094POPC   C3B54057  22.474  22.848   6.909
 4094POPC   C4B54058  22.585  22.901   7.291
 4095POPC   NC354059   8.556  34.972   5.439
 4095POPC   PO454060   8.180  35.580   5.480
 4095POPC   GL154061   8.322  35.297   5.778
 4095POPC   GL254062   8.568  35.526   5.867
 4095POPC   C1A54063   8.224  35.007   6.116
 4095POPC   D2A54064   8.104  35.002   6.566
 4095POPC   C3A54065   8.231  35.174   6.976
 4095POPC   C4A54066   8.133  35.559   7.241
 4095POPC   C1B54067   8.469  35.435   6.283
 4095POPC   C2B54068   8.368  35.553   6.684
 4095POPC   C3B54069   8.602  35.579   7.072
 4095POPC   C4B54070   8.616  35.747   7.515
 4096POPC   NC354071  12.597  32.371   5.270
 4096POPC   PO454072  13.136  32.067   5.574
 4096POPC   GL154073  13.004  32.222   5.924
 4096POPC   GL254074  12.677  32.084   5.862
 4096POPC   C1A54075  12.811  32.187   6.322
 4096POPC   D2A54076  12.918  32.128   6.693
 4096POPC   C3A54077  13.154  32.396   6.888
 4096POPC   C4A54078  13.098  32.226   7.246
 4096POPC   C1B54079  12.369  31.980   6.185
 4096POPC   C2B54080  12.379  32.173   6.611
 4096POPC   C3B54081  12.558  32.227   7.039
 4096POPC   C4B54082  12.664  32.046   7.439
 4097POPC   NC354083  39.025   4.802   5.419
 4097POPC   PO454084  39.366   5.365   5.508
 4097POPC   GL154085  39.045   5.204   5.813
 4097POPC   GL254086  39.040   4.849   5.928
 4097POPC   C1A54087  39.042   5.243   6.273
 4097POPC   D2A54088  39.389   5.207   6.544
 4097POPC   C3A54089  39.313   5.266   6.956
 4097POPC   C4A54090  39.179   5.628   7.188
 4097POPC   C1B54091  38.872   4.757   6.320
 4097POPC   C2B54092  39.166   4.748   6.656
 4097POPC   C3B54093  39.156   4.793   7.066
 4097POPC   C4B54094  38.892   5.165   7.198
 4098POPC   NC354095  19.446  35.473   5.489
 4098POPC   PO454096  20.132  35.662   5.378
 4098POPC   GL154097  20.015  35.486   5.779
 4098POPC   GL254098  19.755  35.723   5.894
 4098POPC   C1A54099  20.207  35.219   6.128
 4098POPC   D2A54100  20.148  34.937   6.508
 4098POPC   C3A54101  19.879  35.118   6.827
 4098POPC   C4A54102  19.860  35.096   7.265
 4098POPC   C1B54103  19.738  35.518   6.327
 4098POPC   C2B54104  19.419  35.445   6.696
 4098POPC   C3B54105  19.218  35.647   7.098
 4098POPC   C4B54106  19.432  35.604   7.526
 4099POPC   NC354107  27.897  42.374   5.288
 4099POPC   PO454108  27.299  42.157   5.427
 4099POPC   GL154109  27.372  42.354   5.787
 4099POPC   GL254110  27.709  42.492   5.762
 4099POPC   C1A54111  27.337  42.500   6.189
 4099POPC   D2A54112  27.538  42.394   6.600
 4099POPC   C3A54113  27.483  42.649   6.963
 4099POPC   C4A54114  27.304  42.477   7.327
 4099POPC   C1B54115  27.866  42.529   6.198
 4099POPC   C2B54116  27.901  42.753   6.618
 4099POPC   C3B54117  27.977  42.577   7.029
 4099POPC   C4B54118  27.733  42.190   7.075
 4100POPC   NC354119  32.990  23.391   5.597
 4100POPC   PO454120  33.076  22.757   5.263
 4100POPC   GL154121  32.995  22.886   5.715
 4100POPC   GL254122  32.694  23.109   5.883
 4100POPC   C1A54123  33.168  22.993   6.125
 4100POPC   D2A54124  33.051  22.893   6.536
 4100POPC   C3A54125  33.181  22.960   6.949
 4100POPC   C4A54126  32.806  22.962   7.201
 4100POPC   C1B54127  32.721  22.753   6.128
 4100POPC   C2B54128  32.697  22.530   6.489
 4100POPC   C3B54129  32.863  22.531   6.880
 4100POPC   C4B54130  32.624  22.458   7.208
 4101POPC   NC354131  24.969  31.644   5.374
 4101POPC   PO454132  25.241  31.116   5.703
 4101POPC   GL154133  25.080  31.415   5.969
 4101POPC   GL254134  25.158  31.743   5.859
 4101POPC   C1A54135  24.952  31.301   6.369
 4101POPC   D2A54136  25.312  31.357   6.596
 4101POPC   C3A54137  25.226  31.280   7.008
 4101POPC   C4A54138  25.604  31.224   7.257
 4101POPC   C1B54139  25.063  31.788   6.318
 4101POPC   C2B54140  24.946  31.693   6.744
 4101POPC   C3B54141  25.039  31.751   7.187
 4101POPC   C4B54142  25.142  31.787   7.624
 4102POPC   NC354143  41.225  40.909   5.321
 4102POPC   PO454144  41.606  40.353   5.468
 4102POPC   GL154145  41.532  40.701   5.747
 4102POPC   GL254146  41.209  40.586   5.748
 4102POPC   C1A54147  41.712  40.850   6.156
 4102POPC   D2A54148  41.745  40.684   6.587
 4102POPC   C3A54149  41.769  40.918   6.987
 4102POPC   C4A54150  41.912  41.187   7.328
 4102POPC   C1B54151  41.145  40.848   6.092
 4102POPC   C2B54152  41.303  40.904   6.469
 4102POPC   C3B54153  41.269  40.847   6.892
 4102POPC   C4B54154  41.428  40.558   7.192
 4103POPC   NC354155  27.558  11.683   5.473
 4103POPC   PO454156  27.887  12.283   5.392
 4103POPC   GL154157  27.697  12.113   5.741
 4103POPC   GL254158  27.401  12.123   5.716
 4103POPC   C1A54159  27.797  11.995   6.163
 4103POPC   D2A54160  27.960  11.979   6.557
 4103POPC   C3A54161  27.832  12.238   6.875
 4103POPC   C4A54162  27.877  12.064   7.262
 4103POPC   C1B54163  27.363  12.239   6.125
 4103POPC   C2B54164  27.404  12.072   6.553
 4103POPC   C3B54165  27.424  11.936   6.977
 4103POPC   C4B54166  27.381  12.254   7.301
 4104POPC   NC354167  34.795  28.898   5.508
 4104POPC   PO454168  34.219  29.281   5.422
 4104POPC   GL154169  34.298  29.182   5.836
 4104POPC   GL254170  34.647  29.301   5.809
 4104POPC   C1A54171  34.480  29.093   6.257
 4104POPC   D2A54172  34.702  28.990   6.653
 4104POPC   C3A54173  34.468  28.995   7.048
 4104POPC   C4A54174  34.201  28.963   7.434
 4104POPC   C1B54175  34.956  29.323   6.161
 4104POPC   C2B54176  35.155  29.231   6.565
 4104POPC   C3B54177  35.037  29.268   6.985
 4104POPC   C4B54178  34.712  29.434   7.226
 4105POPC   NC354179  36.279  26.788   5.409
 4105POPC   PO454180  35.629  27.018   5.462
 4105POPC   GL154181  35.964  27.001   5.797
 4105POPC   GL254182  36.037  26.635   5.874
 4105POPC   C1A54183  36.092  26.927   6.261
 4105POPC   D2A54184  36.101  26.617   6.568
 4105POPC   C3A54185  36.101  26.890   6.909
 4105POPC   C4A54186  35.891  27.160   7.205
 4105POPC   C1B54187  36.394  26.445   6.166
 4105POPC   C2B54188  36.425  26.213   6.595
 4105POPC   C3B54189  36.233  26.336   6.995
 4105POPC   C4B54190  35.840  26.537   7.164
 4106POPC   NC354191  26.648  15.629   5.384
 4106POPC   PO454192  26.978  16.073   5.683
 4106POPC   GL154193  26.910  15.783   5.925
 4106POPC   GL254194  27.235  15.613   5.839
 4106POPC   C1A54195  26.731  15.991   6.304
 4106POPC   D2A54196  26.578  16.297   6.602
 4106POPC   C3A54197  26.570  15.993   6.975
 4106POPC   C4A54198  26.657  15.504   7.039
 4106POPC   C1B54199  27.209  15.640   6.292
 4106POPC   C2B54200  26.947  15.650   6.625
 4106POPC   C3B54201  27.160  15.504   6.957
 4106POPC   C4B54202  27.252  15.697   7.306
 4107POPC   NC354203  25.199   9.891   5.357
 4107POPC   PO454204  25.726  10.343   5.569
 4107POPC   GL154205  25.524   9.989   5.755
 4107POPC   GL254206  25.167   9.931   5.870
 4107POPC   C1A54207  25.576   9.773   6.160
 4107POPC   D2A54208  25.663   9.832   6.611
 4107POPC   C3A54209  25.497   9.660   7.014
 4107POPC   C4A54210  25.280   9.809   7.358
 4107POPC   C1B54211  25.141   9.936   6.357
 4107POPC   C2B54212  25.163   9.591   6.651
 4107POPC   C3B54213  24.991   9.509   7.071
 4107POPC   C4B54214  24.769   9.874   7.252
 4108POPC   NC354215  32.751  17.085   5.524
 4108POPC   PO454216  32.998  16.472   5.263
 4108POPC   GL154217  33.002  16.671   5.743
 4108POPC   GL254218  33.200  16.969   5.844
 4108POPC   C1A54219  32.890  16.772   6.230
 4108POPC   D2A54220  32.675  16.701   6.668
 4108POPC   C3A54221  32.978  16.615   7.026
 4108POPC   C4A54222  33.327  16.340   7.191
 4108POPC   C1B54223  33.205  17.184   6.245
 4108POPC   C2B54224  33.273  17.364   6.665
 4108POPC   C3B54225  33.204  17.260   7.110
 4108POPC   C4B54226  32.996  17.198   7.511
 4109POPC   NC354227   0.755   5.857   5.339
 4109POPC   PO454228   0.076   5.857   5.375
 4109POPC   GL154229   0.369   6.036   5.674
 4109POPC   GL254230   0.145   6.132   5.914
 4109POPC   C1A54231   0.604   5.931   6.086
 4109POPC   D2A54232   0.578   5.756   6.514
 4109POPC   C3A54233   0.528   5.947   6.914
 4109POPC   C4A54234   0.765   5.919   7.278
 4109POPC   C1B54235   0.132   5.949   6.295
 4109POPC   C2B54236  44.859   6.066   6.636
 4109POPC   C3B54237   0.023   6.111   6.996
 4109POPC   C4B54238   0.274   6.030   7.351
 4110POPC   NC354239  21.884  35.592   5.318
 4110POPC   PO454240  22.394  35.254   5.257
 4110POPC   GL154241  22.394  35.258   5.726
 4110POPC   GL254242  22.039  35.229   5.749
 4110POPC   C1A54243  22.321  35.369   6.193
 4110POPC   D2A54244  22.454  35.327   6.648
 4110POPC   C3A54245  22.285  35.423   7.061
 4110POPC   C4A54246  22.303  35.473   7.502
 4110POPC   C1B54247  21.820  35.415   6.109
 4110POPC   C2B54248  21.904  35.590   6.507
 4110POPC   C3B54249  21.782  35.405   6.904
 4110POPC   C4B54250  21.828  35.471   7.335
 4111POPC   NC354251  39.699  37.342   5.237
 4111POPC   PO454252  40.226  37.005   5.307
 4111POPC   GL154253  40.167  36.957   5.744
 4111POPC   GL254254  39.981  36.662   5.829
 4111POPC   C1A54255  40.303  36.860   6.188
 4111POPC   D2A54256  40.434  36.597   6.551
 4111POPC   C3A54257  40.332  36.855   6.922
 4111POPC   C4A54258  39.986  36.862   7.234
 4111POPC   C1B54259  39.805  37.022   6.122
 4111POPC   C2B54260  39.713  37.007   6.585
 4111POPC   C3B54261  39.581  37.176   7.005
 4111POPC   C4B54262  39.481  36.986   7.394
 4112POPC   NC354263  10.721  43.562   5.451
 4112POPC   PO454264  10.460  44.210   5.157
 4112POPC   GL154265  10.555  44.058   5.674
 4112POPC   GL254266  10.276  44.033   5.921
 4112POPC   C1A54267  10.644  43.753   6.154
 4112POPC   D2A54268  10.566  43.545   6.582
 4112POPC   C3A54269  10.832  43.661   6.933
 4112POPC   C4A54270  10.848  43.975   7.236
 4112POPC   C1B54271  10.416  44.145   6.355
 4112POPC   C2B54272  10.298  43.993   6.731
 4112POPC   C3B54273  10.335  44.048   7.143
 4112POPC   C4B54274  10.354  43.998   7.577
 4113POPC   NC354275  24.292  37.709   5.714
 4113POPC   PO454276  23.618  37.732   5.446
 4113POPC   GL154277  23.647  37.834   5.847
 4113POPC   GL254278  23.554  37.474   5.917
 4113POPC   C1A54279  23.689  37.812   6.292
 4113POPC   D2A54280  23.583  37.616   6.666
 4113POPC   C3A54281  23.591  37.975   6.927
 4113POPC   C4A54282  23.752  37.994   7.292
 4113POPC   C1B54283  23.932  37.368   6.192
 4113POPC   C2B54284  24.104  37.405   6.620
 4113POPC   C3B54285  23.900  37.422   7.029
 4113POPC   C4B54286  23.493  37.566   7.193
 4114POPC   NC354287   6.188  21.754   5.604
 4114POPC   PO454288   6.734  21.837   5.219
 4114POPC   GL154289   6.651  22.052   5.667
 4114POPC   GL254290   6.336  22.228   5.794
 4114POPC   C1A54291   6.766  22.214   6.111
 4114POPC   D2A54292   6.821  22.414   6.546
 4114POPC   C3A54293   6.825  22.128   6.908
 4114POPC   C4A54294   6.651  22.139   7.318
 4114POPC   C1B54295   6.255  22.027   6.198
 4114POPC   C2B54296   6.416  22.107   6.588
 4114POPC   C3B54297   6.264  22.189   6.992
 4114POPC   C4B54298   6.164  22.021   7.401
 4115POPC   NC354299   9.568  33.771   5.355
 4115POPC   PO454300  10.247  34.027   5.340
 4115POPC   GL154301   9.972  33.833   5.689
 4115POPC   GL254302   9.707  33.576   5.790
 4115POPC   C1A54303   9.947  33.850   6.140
 4115POPC   D2A54304   9.642  33.877   6.493
 4115POPC   C3A54305   9.695  33.915   6.927
 4115POPC   C4A54306   9.963  33.822   7.261
 4115POPC   C1B54307   9.446  33.573   6.139
 4115POPC   C2B54308   9.191  33.617   6.499
 4115POPC   C3B54309   9.415  33.501   6.849
 4115POPC   C4B54310   9.461  33.645   7.280
 4116POPC   NC354311  18.524  38.669   5.410
 4116POPC   PO454312  18.168  38.228   5.273
 4116POPC   GL154313  18.119  38.524   5.682
 4116POPC   GL254314  18.268  38.293   5.861
 4116POPC   C1A54315  18.223  38.693   6.138
 4116POPC   D2A54316  18.214  38.495   6.554
 4116POPC   C3A54317  18.480  38.554   6.914
 4116POPC   C4A54318  18.458  38.700   7.324
 4116POPC   C1B54319  17.923  38.262   6.186
 4116POPC   C2B54320  17.858  38.141   6.646
 4116POPC   C3B54321  18.067  38.248   7.050
 4116POPC   C4B54322  17.982  38.176   7.491
 4117POPC   NC354323  22.813   4.655   5.331
 4117POPC   PO454324  22.773   3.986   5.375
 4117POPC   GL154325  22.974   4.103   5.743
 4117POPC   GL254326  22.971   4.467   5.802
 4117POPC   C1A54327  23.083   4.063   6.143
 4117POPC   D2A54328  22.937   4.240   6.523
 4117POPC   C3A54329  23.059   4.178   6.944
 4117POPC   C4A54330  22.819   3.981   7.225
 4117POPC   C1B54331  22.841   4.637   6.205
 4117POPC   C2B54332  23.077   4.737   6.609
 4117POPC   C3B54333  23.077   4.704   7.054
 4117POPC   C4B54334  22.845   4.465   7.344
 4118POPC   NC354335  25.717  15.742   5.114
 4118POPC   PO454336  26.231  15.405   5.497
 4118POPC   GL154337  26.077  15.192   5.838
 4118POPC   GL254338  25.786  15.010   5.702
 4118POPC   C1A54339  26.072  15.304   6.276
 4118POPC   D2A54340  26.109  15.085   6.658
 4118POPC   C3A54341  26.230  15.199   7.077
 4118POPC   C4A54342  26.025  15.050   7.453
 4118POPC   C1B54343  25.601  15.099   6.119
 4118POPC   C2B54344  25.646  15.282   6.562
 4118POPC   C3B54345  25.726  15.164   7.023
 4118POPC   C4B54346  25.544  15.257   7.437
 4119POPC   NC354347  20.368  17.799   5.514
 4119POPC   PO454348  20.531  17.114   5.222
 4119POPC   GL154349  20.650  17.151   5.682
 4119POPC   GL254350  21.008  17.168   5.614
 4119POPC   C1A54351  20.557  17.367   6.131
 4119POPC   D2A54352  20.358  17.399   6.580
 4119POPC   C3A54353  20.509  17.335   7.010
 4119POPC   C4A54354  20.415  17.537   7.391
 4119POPC   C1B54355  21.037  17.168   6.055
 4119POPC   C2B54356  20.926  17.259   6.496
 4119POPC   C3B54357  20.999  17.424   6.908
 4119POPC   C4B54358  20.913  17.560   7.320
 4120POPC   NC354359  13.511   8.398   5.377
 4120POPC   PO454360  13.205   7.934   5.779
 4120POPC   GL154361  13.611   8.120   5.819
 4120POPC   GL254362  13.546   8.439   5.887
 4120POPC   C1A54363  13.903   8.052   6.204
 4120POPC   D2A54364  14.057   7.844   6.593
 4120POPC   C3A54365  13.789   7.765   6.932
 4120POPC   C4A54366  13.878   7.886   7.312
 4120POPC   C1B54367  13.449   8.286   6.304
 4120POPC   C2B54368  13.655   8.190   6.676
 4120POPC   C3B54369  13.762   8.335   7.064
 4120POPC   C4B54370  13.490   8.371   7.395
 4121POPC   NC354371  24.664  21.684   5.507
 4121POPC   PO454372  24.241  21.295   5.238
 4121POPC   GL154373  24.455  21.268   5.700
 4121POPC   GL254374  24.263  21.587   5.820
 4121POPC   C1A54375  24.503  21.347   6.186
 4121POPC   D2A54376  24.127  21.439   6.461
 4121POPC   C3A54377  24.244  21.460   6.913
 4121POPC   C4A54378  24.589  21.285   7.166
 4121POPC   C1B54379  24.463  21.856   6.133
 4121POPC   C2B54380  24.467  21.831   6.546
 4121POPC   C3B54381  24.558  21.977   6.942
 4121POPC   C4B54382  24.319  21.870   7.256
 4122POPC   NC354383  28.841   1.145   5.310
 4122POPC   PO454384  28.243   1.284   5.424
 4122POPC   GL154385  28.476   1.340   5.750
 4122POPC   GL254386  28.175   1.436   5.898
 4122POPC   C1A54387  28.744   1.260   6.108
 4122POPC   D2A54388  28.854   1.076   6.506
 4122POPC   C3A54389  28.656   1.260   6.875
 4122POPC   C4A54390  28.431   1.311   7.261
 4122POPC   C1B54391  28.214   1.153   6.249
 4122POPC   C2B54392  28.151   1.185   6.711
 4122POPC   C3B54393  27.950   1.273   7.122
 4122POPC   C4B54394  28.045   1.236   7.597
 4123POPC   NC354395  32.319  24.751   5.173
 4123POPC   PO454396  31.915  24.275   5.486
 4123POPC   GL154397  32.247  24.201   5.751
 4123POPC   GL254398  32.421  24.513   5.781
 4123POPC   C1A54399  32.145  24.283   6.167
 4123POPC   D2A54400  31.876  24.156   6.475
 4123POPC   C3A54401  32.004  24.378   6.844
 4123POPC   C4A54402  31.895  24.500   7.244
 4123POPC   C1B54403  32.346  24.762   6.185
 4123POPC   C2B54404  32.135  24.799   6.569
 4123POPC   C3B54405  32.270  24.839   7.000
 4123POPC   C4B54406  32.672  24.858   7.281
 4124POPC   NC354407  18.068  11.330   5.586
 4124POPC   PO454408  18.527  11.025   5.256
 4124POPC   GL154409  18.563  10.946   5.702
 4124POPC   GL254410  18.215  10.855   5.785
 4124POPC   C1A54411  18.514  11.169   6.113
 4124POPC   D2A54412  18.315  11.390   6.435
 4124POPC   C3A54413  18.329  11.306   6.868
 4124POPC   C4A54414  18.165  11.633   7.124
 4124POPC   C1B54415  18.047  10.953   6.190
 4124POPC   C2B54416  18.094  10.805   6.588
 4124POPC   C3B54417  18.083  10.848   7.024
 4124POPC   C4B54418  17.893  11.204   7.158
 4125POPC   NC354419   8.407   0.117   5.519
 4125POPC   PO454420   8.073   0.736   5.531
 4125POPC   GL154421   8.011   0.468   5.844
 4125POPC   GL254422   7.686   0.304   5.878
 4125POPC   C1A54423   8.118   0.505   6.252
 4125POPC   D2A54424   8.295   0.306   6.601
 4125POPC   C3A54425   8.097   0.440   6.939
 4125POPC   C4A54426   8.105   0.619   7.325
 4125POPC   C1B54427   7.965   0.043   6.153
 4125POPC   C2B54428   7.925  44.924   6.555
 4125POPC   C3B54429   7.892  44.935   6.974
 4125POPC   C4B54430   8.134   0.082   7.314
 4126POPC   NC354431  17.211  21.258   5.360
 4126POPC   PO454432  17.670  21.640   5.168
 4126POPC   GL154433  17.622  21.276   5.620
 4126POPC   GL254434  17.333  21.478   5.805
 4126POPC   C1A54435  17.683  21.234   6.105
 4126POPC   D2A54436  17.916  21.544   6.400
 4126POPC   C3A54437  17.866  21.583   6.861
 4126POPC   C4A54438  17.776  21.294   7.186
 4126POPC   C1B54439  17.331  21.584   6.250
 4126POPC   C2B54440  17.275  21.320   6.592
 4126POPC   C3B54441  17.324  21.379   7.008
 4126POPC   C4B54442  17.497  21.700   7.249
 4127POPC   NC354443  44.939   9.953   5.694
 4127POPC   PO454444  44.408  10.151   5.399
 4127POPC   GL154445  44.335   9.906   5.823
 4127POPC   GL254446  44.588   9.658   5.969
 4127POPC   C1A54447  44.241   9.869   6.292
 4127POPC   D2A54448  44.339   9.905   6.747
 4127POPC   C3A54449  44.495   9.572   6.979
 4127POPC   C4A54450  44.855   9.572   7.203
 4127POPC   C1B54451  44.758   9.824   6.390
 4127POPC   C2B54452   0.033   9.895   6.771
 4127POPC   C3B54453   0.120   9.994   7.226
 4127POPC   C4B54454  44.917   9.895   7.633
 4128POPC   NC354455  31.660  12.924   5.303
 4128POPC   PO454456  31.066  13.073   5.548
 4128POPC   GL154457  31.243  12.761   5.848
 4128POPC   GL254458  31.596  12.763   5.791
 4128POPC   C1A54459  31.309  12.613   6.301
 4128POPC   D2A54460  31.552  12.621   6.719
 4128POPC   C3A54461  31.402  12.925   7.029
 4128POPC   C4A54462  31.275  12.816   7.427
 4128POPC   C1B54463  31.672  12.961   6.174
 4128POPC   C2B54464  31.929  12.958   6.544
 4128POPC   C3B54465  31.914  12.990   6.978
 4128POPC   C4B54466  31.791  12.733   7.314
 4129POPC   NC354467  10.173  41.987   5.456
 4129POPC   PO454468   9.895  42.617   5.447
 4129POPC   GL154469  10.183  42.469   5.746
 4129POPC   GL254470   9.889  42.413   5.929
 4129POPC   C1A54471  10.304  42.203   6.139
 4129POPC   D2A54472  10.284  42.014   6.576
 4129POPC   C3A54473  10.540  42.216   6.889
 4129POPC   C4A54474  10.688  42.148   7.310
 4129POPC   C1B54475  10.129  42.699   6.199
 4129POPC   C2B54476  10.265  42.535   6.559
 4129POPC   C3B54477  10.248  42.629   6.954
 4129POPC   C4B54478  10.221  42.351   7.293
 4130POPC   NC354479  26.362  32.852   5.425
 4130POPC   PO454480  27.078  32.831   5.384
 4130POPC   GL154481  26.788  32.871   5.764
 4130POPC   GL254482  26.704  33.215   5.906
 4130POPC   C1A54483  26.728  32.797   6.224
 4130POPC   D2A54484  26.827  33.023   6.614
 4130POPC   C3A54485  27.004  32.806   6.974
 4130POPC   C4A54486  27.137  32.817   7.378
 4130POPC   C1B54487  26.439  33.236   6.279
 4130POPC   C2B54488  26.305  33.000   6.610
 4130POPC   C3B54489  26.496  32.808   6.940
 4130POPC   C4B54490  26.636  32.883   7.363
 4131POPC   NC354491  39.193   7.944   5.668
 4131POPC   PO454492  38.971   8.516   5.486
 4131POPC   GL154493  39.062   8.366   5.908
 4131POPC   GL254494  38.787   8.093   5.933
 4131POPC   C1A54495  39.284   8.263   6.313
 4131POPC   D2A54496  39.651   8.168   6.613
 4131POPC   C3A54497  39.615   8.040   7.021
 4131POPC   C4A54498  39.408   8.134   7.362
 4131POPC   C1B54499  38.986   7.863   6.288
 4131POPC   C2B54500  39.181   7.927   6.700
 4131POPC   C3B54501  39.113   7.798   7.128
 4131POPC   C4B54502  38.971   7.967   7.548
 4132POPC   NC354503   9.462  18.582   5.597
 4132POPC   PO454504   8.851  18.099   5.465
 4132POPC   GL154505   8.973  18.388   5.771
 4132POPC   GL254506   9.070  18.080   5.937
 4132POPC   C1A54507   8.744  18.610   6.124
 4132POPC   D2A54508   8.868  18.690   6.581
 4132POPC   C3A54509   8.668  18.510   6.970
 4132POPC   C4A54510   8.908  18.179   7.232
 4132POPC   C1B54511   9.107  18.301   6.305
 4132POPC   C2B54512   9.016  18.228   6.716
 4132POPC   C3B54513   9.226  18.475   6.957
 4132POPC   C4B54514   9.382  18.480   7.354
 4133POPC   NC354515  21.761  36.530   5.049
 4133POPC   PO454516  21.316  36.928   5.278
 4133POPC   GL154517  21.346  36.949   5.768
 4133POPC   GL254518  21.468  36.657   5.948
 4133POPC   C1A54519  21.501  37.108   6.224
 4133POPC   D2A54520  21.722  37.245   6.642
 4133POPC   C3A54521  21.477  37.154   7.006
 4133POPC   C4A54522  21.537  36.861   7.356
 4133POPC   C1B54523  21.364  36.414   6.292
 4133POPC   C2B54524  21.197  36.461   6.646
 4133POPC   C3B54525  21.248  36.671   6.968
 4133POPC   C4B54526  21.117  36.558   7.321
 4134POPC   NC354527  34.866  11.241   5.308
 4134POPC   PO454528  34.208  11.353   5.229
 4134POPC   GL154529  34.468  11.271   5.646
 4134POPC   GL254530  34.811  11.143   5.797
 4134POPC   C1A54531  34.392  11.288   6.106
 4134POPC   D2A54532  34.300  11.111   6.515
 4134POPC   C3A54533  34.524  11.202   6.858
 4134POPC   C4A54534  34.431  11.357   7.243
 4134POPC   C1B54535  34.941  11.186   6.237
 4134POPC   C2B54536  34.976  11.373   6.665
 4134POPC   C3B54537  34.974  11.282   7.109
 4134POPC   C4B54538  34.864  11.037   7.480
 4135POPC   NC354539  39.218   9.577   5.349
 4135POPC   PO454540  38.719  10.084   5.408
 4135POPC   GL154541  38.967   9.842   5.721
 4135POPC   GL254542  39.341   9.948   5.709
 4135POPC   C1A54543  39.185   9.612   6.079
 4135POPC   D2A54544  39.388   9.823   6.454
 4135POPC   C3A54545  39.232   9.808   6.876
 4135POPC   C4A54546  39.144   9.486   7.190
 4135POPC   C1B54547  39.164  10.157   6.098
 4135POPC   C2B54548  38.962  10.228   6.513
 4135POPC   C3B54549  38.968  10.231   6.978
 4135POPC   C4B54550  39.141  10.003   7.348
 4136POPC   NC354551  19.713  28.230   5.763
 4136POPC   PO454552  20.084  28.682   5.651
 4136POPC   GL154553  19.808  28.682   6.025
 4136POPC   GL254554  19.441  28.584   6.039
 4136POPC   C1A54555  19.897  28.507   6.426
 4136POPC   D2A54556  20.146  28.306   6.732
 4136POPC   C3A54557  20.026  28.419   7.147
 4136POPC   C4A54558  19.722  28.222   7.439
 4136POPC   C1B54559  19.431  28.672   6.495
 4136POPC   C2B54560  19.702  28.726   6.866
 4136POPC   C3B54561  19.681  28.758   7.321
 4136POPC   C4B54562  19.396  28.578   7.630
 4137POPC   NC354563  33.229  36.987   5.135
 4137POPC   PO454564  32.708  36.726   5.533
 4137POPC   GL154565  33.100  36.762   5.731
 4137POPC   GL254566  33.168  37.100   5.792
 4137POPC   C1A54567  33.098  36.700   6.183
 4137POPC   D2A54568  32.925  36.904   6.571
 4137POPC   C3A54569  33.075  36.719   6.952
 4137POPC   C4A54570  32.791  36.504   7.274
 4137POPC   C1B54571  33.259  37.189   6.252
 4137POPC   C2B54572  33.445  37.317   6.696
 4137POPC   C3B54573  33.244  37.211   7.104
 4137POPC   C4B54574  32.988  36.969   7.423
 4138POPC   NC354575  40.088  22.675   5.291
 4138POPC   PO454576  39.895  23.233   5.524
 4138POPC   GL154577  40.016  23.097   5.933
 4138POPC   GL254578  40.097  22.768   5.825
 4138POPC   C1A54579  40.301  22.990   6.287
 4138POPC   D2A54580  40.578  23.049   6.628
 4138POPC   C3A54581  40.382  23.160   7.027
 4138POPC   C4A54582  39.974  23.071   7.247
 4138POPC   C1B54583  39.895  22.697   6.245
 4138POPC   C2B54584  39.772  23.003   6.589
 4138POPC   C3B54585  39.535  22.953   6.994
 4138POPC   C4B54586  39.699  22.594   7.263
 4139POPC   NC354587   6.540  33.217   5.403
 4139POPC   PO454588   6.991  32.737   5.529
 4139POPC   GL154589   6.935  33.102   5.853
 4139POPC   GL254590   6.625  33.062   5.866
 4139POPC   C1A54591   6.762  33.171   6.344
 4139POPC   D2A54592   6.784  32.959   6.779
 4139POPC   C3A54593   6.888  33.224   7.130
 4139POPC   C4A54594   6.593  33.479   7.375
 4139POPC   C1B54595   6.477  32.764   6.111
 4139POPC   C2B54596   6.422  32.685   6.524
 4139POPC   C3B54597   6.349  32.730   6.948
 4139POPC   C4B54598   6.485  32.986   7.295
 4140POPC   NC354599  16.862   4.968   5.351
 4140POPC   PO454600  17.043   5.552   5.578
 4140POPC   GL154601  16.765   5.199   5.808
 4140POPC   GL254602  16.599   4.848   5.758
 4140POPC   C1A54603  16.828   5.033   6.237
 4140POPC   D2A54604  16.962   5.280   6.583
 4140POPC   C3A54605  17.013   5.137   6.983
 4140POPC   C4A54606  16.832   5.429   7.240
 4140POPC   C1B54607  16.558   4.618   6.109
 4140POPC   C2B54608  16.433   4.759   6.516
 4140POPC   C3B54609  16.517   5.059   6.816
 4140POPC   C4B54610  16.581   4.986   7.222
 4141POPC   NC354611  24.956  22.584   5.419
 4141POPC   PO454612  25.335  23.179   5.395
 4141POPC   GL154613  25.362  23.032   5.797
 4141POPC   GL254614  25.658  23.147   5.855
 4141POPC   C1A54615  25.192  23.056   6.214
 4141POPC   D2A54616  25.031  23.318   6.558
 4141POPC   C3A54617  25.170  23.092   6.927
 4141POPC   C4A54618  25.033  22.799   7.216
 4141POPC   C1B54619  25.775  23.217   6.226
 4141POPC   C2B54620  25.576  23.051   6.573
 4141POPC   C3B54621  25.697  23.144   6.966
 4141POPC   C4B54622  25.544  22.966   7.312
 4142POPC   NC354623  35.163  16.498   5.656
 4142POPC   PO454624  35.624  16.972   5.478
 4142POPC   GL154625  35.644  16.676   5.840
 4142POPC   GL254626  35.626  16.309   5.739
 4142POPC   C1A54627  35.415  16.641   6.257
 4142POPC   D2A54628  35.176  16.498   6.634
 4142POPC   C3A54629  35.379  16.680   6.989
 4142POPC   C4A54630  35.396  16.747   7.414
 4142POPC   C1B54631  35.492  16.143   6.136
 4142POPC   C2B54632  35.621  16.257   6.542
 4142POPC   C3B54633  35.734  16.115   6.929
 4142POPC   C4B54634  35.444  16.214   7.226
 4143POPC   NC354635  18.416   5.664   5.525
 4143POPC   PO454636  18.426   5.006   5.361
 4143POPC   GL154637  18.201   5.114   5.780
 4143POPC   GL254638  18.033   5.445   5.842
 4143POPC   C1A54639  18.256   5.216   6.243
 4143POPC   D2A54640  18.496   5.223   6.612
 4143POPC   C3A54641  18.484   4.840   6.852
 4143POPC   C4A54642  18.403   4.889   7.269
 4143POPC   C1B54643  17.786   5.433   6.216
 4143POPC   C2B54644  17.829   5.188   6.557
 4143POPC   C3B54645  18.081   5.185   6.927
 4143POPC   C4B54646  18.249   5.411   7.248
 4144POPC   NC354647  34.974   7.740   5.417
 4144POPC   PO454648  35.290   7.190   5.396
 4144POPC   GL154649  35.646   7.317   5.682
 4144POPC   GL254650  35.657   7.665   5.828
 4144POPC   C1A54651  35.755   7.257   6.120
 4144POPC   D2A54652  35.526   7.429   6.470
 4144POPC   C3A54653  35.439   7.170   6.826
 4144POPC   C4A54654  35.170   7.219   7.143
 4144POPC   C1B54655  35.257   7.697   6.063
 4144POPC   C2B54656  35.222   7.847   6.482
 4144POPC   C3B54657  35.271   7.673   6.878
 4144POPC   C4B54658  35.277   7.747   7.294
 4145POPC   NC354659  19.639  18.186   5.360
 4145POPC   PO454660  20.285  18.343   5.406
 4145POPC   GL154661  20.015  18.128   5.698
 4145POPC   GL254662  19.810  18.419   5.804
 4145POPC   C1A54663  19.858  18.026   6.110
 4145POPC   D2A54664  19.774  18.289   6.473
 4145POPC   C3A54665  20.025  18.269   6.841
 4145POPC   C4A54666  19.873  18.122   7.215
 4145POPC   C1B54667  19.528  18.587   6.129
 4145POPC   C2B54668  19.440  18.669   6.581
 4145POPC   C3B54669  19.512  18.388   6.944
 4145POPC   C4B54670  19.570  18.466   7.403
 4146POPC   NC354671  29.701  11.163   5.417
 4146POPC   PO454672  30.067  11.651   5.157
 4146POPC   GL154673  30.021  11.513   5.673
 4146POPC   GL254674  29.991  11.137   5.830
 4146POPC   C1A54675  29.795  11.518   6.118
 4146POPC   D2A54676  29.957  11.331   6.490
 4146POPC   C3A54677  30.072  11.500   6.904
 4146POPC   C4A54678  30.333  11.248   7.137
 4146POPC   C1B54679  29.634  11.020   6.058
 4146POPC   C2B54680  29.539  10.962   6.466
 4146POPC   C3B54681  29.732  11.033   6.828
 4146POPC   C4B54682  29.805  11.161   7.208
 4147POPC   NC354683  32.912  18.642   5.549
 4147POPC   PO454684  32.945  19.401   5.437
 4147POPC   GL154685  33.160  19.319   5.842
 4147POPC   GL254686  33.076  18.988   5.899
 4147POPC   C1A54687  32.994  19.347   6.272
 4147POPC   D2A54688  32.820  19.081   6.621
 4147POPC   C3A54689  32.861  19.230   7.044
 4147POPC   C4A54690  33.197  19.161   7.317
 4147POPC   C1B54691  33.296  18.910   6.284
 4147POPC   C2B54692  33.204  18.638   6.623
 4147POPC   C3B54693  33.056  18.743   7.021
 4147POPC   C4B54694  33.232  18.657   7.415
 4148POPC   NC354695  30.730  10.885   5.673
 4148POPC   PO454696  30.612  10.297   5.462
 4148POPC   GL154697  30.717  10.355   5.876
 4148POPC   GL254698  31.051  10.288   5.800
 4148POPC   C1A54699  30.627  10.535   6.285
 4148POPC   D2A54700  30.756  10.652   6.702
 4148POPC   C3A54701  30.726  10.301   7.012
 4148POPC   C4A54702  30.605  10.342   7.481
 4148POPC   C1B54703  31.132  10.459   6.191
 4148POPC   C2B54704  31.103  10.280   6.587
 4148POPC   C3B54705  31.200  10.478   6.949
 4148POPC   C4B54706  31.044  10.526   7.353
 4149POPC   NC354707   5.007   0.060   5.523
 4149POPC   PO454708   4.966   0.641   5.295
 4149POPC   GL154709   5.166   0.651   5.739
 4149POPC   GL254710   5.495   0.781   5.865
 4149POPC   C1A54711   5.189   0.462   6.179
 4149POPC   D2A54712   5.256   0.335   6.623
 4149POPC   C3A54713   4.918   0.431   6.891
 4149POPC   C4A54714   4.713   0.157   7.165
 4149POPC   C1B54715   5.344   0.957   6.254
 4149POPC   C2B54716   5.138   0.853   6.645
 4149POPC   C3B54717   5.284   0.797   7.095
 4149POPC   C4B54718   5.418   0.999   7.533
 4150POPC   NC354719  17.104  18.108   5.441
 4150POPC   PO454720  16.671  18.556   5.257
 4150POPC   GL154721  16.601  18.360   5.683
 4150POPC   GL254722  16.541  18.673   5.834
 4150POPC   C1A54723  16.588  18.328   6.187
 4150POPC   D2A54724  16.753  18.474   6.622
 4150POPC   C3A54725  16.741  18.149   6.982
 4150POPC   C4A54726  16.600  18.006   7.421
 4150POPC   C1B54727  16.366  18.814   6.272
 4150POPC   C2B54728  16.272  18.755   6.735
 4150POPC   C3B54729  16.385  18.502   7.118
 4150POPC   C4B54730  16.771  18.482   7.386
 4151POPC   NC354731  37.806  35.639   5.118
 4151POPC   PO454732  37.455  35.103   5.361
 4151POPC   GL154733  37.671  35.336   5.709
 4151POPC   GL254734  37.715  35.697   5.689
 4151POPC   C1A54735  37.449  35.388   6.138
 4151POPC   D2A54736  37.354  35.656   6.496
 4151POPC   C3A54737  37.383  35.451   6.892
 4151POPC   C4A54738  37.636  35.331   7.239
 4151POPC   C1B54739  37.891  35.617   6.084
 4151POPC   C2B54740  37.858  35.471   6.507
 4151POPC   C3B54741  37.955  35.642   6.910
 4151POPC   C4B54742  38.074  35.564   7.353
 4152POPC   NC354743  22.123  27.775   5.596
 4152POPC   PO454744  21.826  27.223   5.308
 4152POPC   GL154745  22.047  27.256   5.749
 4152POPC   GL254746  22.424  27.126   5.789
 4152POPC   C1A54747  22.131  27.455   6.182
 4152POPC   D2A54748  22.031  27.737   6.558
 4152POPC   C3A54749  22.147  27.673   6.993
 4152POPC   C4A54750  21.885  27.690   7.353
 4152POPC   C1B54751  22.611  27.238   6.203
 4152POPC   C2B54752  22.383  27.296   6.606
 4152POPC   C3B54753  22.528  27.347   7.008
 4152POPC   C4B54754  22.807  27.437   7.284
 4153POPC   NC354755  22.649  28.045   5.581
 4153POPC   PO454756  23.247  28.344   5.430
 4153POPC   GL154757  23.221  28.284   5.845
 4153POPC   GL254758  22.890  28.440   5.839
 4153POPC   C1A54759  23.231  28.439   6.263
 4153POPC   D2A54760  22.894  28.574   6.539
 4153POPC   C3A54761  22.950  28.756   6.922
 4153POPC   C4A54762  23.137  28.657   7.313
 4153POPC   C1B54763  22.756  28.238   6.200
 4153POPC   C2B54764  22.930  28.043   6.529
 4153POPC   C3B54765  22.999  28.231   6.922
 4153POPC   C4B54766  22.693  28.418   7.204
 4154POPC   NC354767  23.413  20.541   5.478
 4154POPC   PO454768  23.909  20.804   5.403
 4154POPC   GL154769  23.898  20.651   5.821
 4154POPC   GL254770  24.035  20.303   5.845
 4154POPC   C1A54771  23.631  20.854   6.134
 4154POPC   D2A54772  23.371  20.766   6.463
 4154POPC   C3A54773  23.431  20.975   6.848
 4154POPC   C4A54774  23.481  20.883   7.250
 4154POPC   C1B54775  23.805  20.411   6.295
 4154POPC   C2B54776  23.725  20.519   6.767
 4154POPC   C3B54777  23.803  20.469   7.215
 4154POPC   C4B54778  23.815  20.200   7.584
 4155POPC   NC354779  34.737   3.096   5.425
 4155POPC   PO454780  34.598   2.389   5.383
 4155POPC   GL154781  34.457   2.524   5.842
 4155POPC   GL254782  34.474   2.894   5.823
 4155POPC   C1A54783  34.449   2.700   6.305
 4155POPC   D2A54784  34.725   2.709   6.682
 4155POPC   C3A54785  34.569   2.601   7.111
 4155POPC   C4A54786  34.346   2.408   7.509
 4155POPC   C1B54787  34.373   3.180   6.142
 4155POPC   C2B54788  34.470   3.353   6.525
 4155POPC   C3B54789  34.292   3.289   6.900
 4155POPC   C4B54790  34.500   3.082   7.228
 4156POPC   NC354791  27.405   8.425   5.482
 4156POPC   PO454792  27.657   7.825   5.463
 4156POPC   GL154793  27.554   8.020   5.849
 4156POPC   GL254794  27.757   8.289   5.824
 4156POPC   C1A54795  27.375   8.170   6.256
 4156POPC   D2A54796  27.235   8.114   6.718
 4156POPC   C3A54797  27.514   8.127   7.080
 4156POPC   C4A54798  27.452   8.333   7.451
 4156POPC   C1B54799  27.921   8.249   6.200
 4156POPC   C2B54800  27.759   8.221   6.594
 4156POPC   C3B54801  27.774   8.512   6.885
 4156POPC   C4B54802  27.913   8.397   7.289
 4157POPC   NC354803  42.172  25.222   5.375
 4157POPC   PO454804  42.798  25.401   5.434
 4157POPC   GL154805  42.503  25.287   5.771
 4157POPC   GL254806  42.559  24.925   5.742
 4157POPC   C1A54807  42.392  25.120   6.200
 4157POPC   D2A54808  42.372  25.038   6.653
 4157POPC   C3A54809  42.165  25.315   6.964
 4157POPC   C4A54810  42.361  25.461   7.369
 4157POPC   C1B54811  42.847  24.889   6.132
 4157POPC   C2B54812  42.807  24.746   6.588
 4157POPC   C3B54813  42.767  24.987   7.005
 4157POPC   C4B54814  42.390  24.952   7.249
 4158POPC   NC354815   0.869  40.915   5.616
 4158POPC   PO454816   0.241  40.686   5.515
 4158POPC   GL154817   0.498  40.637   5.863
 4158POPC   GL254818   0.844  40.444   5.851
 4158POPC   C1A54819   0.283  40.730   6.246
 4158POPC   D2A54820   0.216  41.013   6.558
 4158POPC   C3A54821   0.185  40.792   6.930
 4158POPC   C4A54822   0.373  40.740   7.266
 4158POPC   C1B54823   0.724  40.467   6.285
 4158POPC   C2B54824   0.578  40.608   6.668
 4158POPC   C3B54825   0.784  40.568   7.041
 4158POPC   C4B54826   0.855  40.728   7.447
 4159POPC   NC354827  35.874  25.783   5.474
 4159POPC   PO454828  36.163  26.337   5.485
 4159POPC   GL154829  35.995  26.126   5.834
 4159POPC   GL254830  36.196  25.815   5.873
 4159POPC   C1A54831  36.023  26.113   6.272
 4159POPC   D2A54832  36.077  25.757   6.535
 4159POPC   C3A54833  35.915  25.765   6.954
 4159POPC   C4A54834  36.017  26.009   7.338
 4159POPC   C1B54835  36.494  25.869   6.215
 4159POPC   C2B54836  36.591  25.699   6.642
 4159POPC   C3B54837  36.423  25.833   7.031
 4159POPC   C4B54838  36.533  26.100   7.369
 4160POPC   NC354839  32.607  10.936   5.295
 4160POPC   PO454840  32.231  11.489   5.411
 4160POPC   GL154841  32.374  11.231   5.741
 4160POPC   GL254842  32.570  11.499   5.894
 4160POPC   C1A54843  32.235  11.149   6.176
 4160POPC   D2A54844  32.103  11.381   6.548
 4160POPC   C3A54845  32.140  11.207   6.974
 4160POPC   C4A54846  32.065  11.306   7.397
 4160POPC   C1B54847  32.604  11.487   6.333
 4160POPC   C2B54848  32.559  11.424   6.752
 4160POPC   C3B54849  32.431  11.604   7.123
 4160POPC   C4B54850  32.577  11.215   7.283
 4161POPC   NC354851  26.607   6.902   5.499
 4161POPC   PO454852  26.987   6.401   5.393
 4161POPC   GL154853  26.940   6.580   5.793
 4161POPC   GL254854  26.930   6.252   5.928
 4161POPC   C1A54855  26.897   6.870   6.163
 4161POPC   D2A54856  26.580   6.914   6.489
 4161POPC   C3A54857  26.625   6.762   6.908
 4161POPC   C4A54858  26.919   6.967   7.175
 4161POPC   C1B54859  26.658   6.447   6.239
 4161POPC   C2B54860  26.937   6.525   6.560
 4161POPC   C3B54861  27.055   6.285   6.905
 4161POPC   C4B54862  26.812   6.425   7.264
 4162POPC   NC354863  33.649  37.867   5.357
 4162POPC   PO454864  34.054  37.288   5.419
 4162POPC   GL154865  34.101  37.500   5.785
 4162POPC   GL254866  33.776  37.666   5.861
 4162POPC   C1A54867  34.135  37.617   6.206
 4162POPC   D2A54868  33.925  37.603   6.591
 4162POPC   C3A54869  34.150  37.784   6.934
 4162POPC   C4A54870  34.185  37.542   7.259
 4162POPC   C1B54871  33.814  37.999   6.171
 4162POPC   C2B54872  33.725  38.058   6.562
 4162POPC   C3B54873  33.649  37.871   6.976
 4162POPC   C4B54874  33.539  38.108   7.326
 4163POPC   NC354875  26.923  41.878   5.391
 4163POPC   PO454876  27.045  41.274   5.504
 4163POPC   GL154877  26.812  41.476   5.839
 4163POPC   GL254878  26.647  41.779   5.802
 4163POPC   C1A54879  26.930  41.617   6.285
 4163POPC   D2A54880  27.006  41.777   6.719
 4163POPC   C3A54881  27.057  41.503   7.098
 4163POPC   C4A54882  27.232  41.553   7.528
 4163POPC   C1B54883  26.440  41.611   6.170
 4163POPC   C2B54884  26.493  41.804   6.558
 4163POPC   C3B54885  26.602  41.974   6.944
 4163POPC   C4B54886  26.565  41.655   7.237
 4164POPC   NC354887  11.909  33.148   5.427
 4164POPC   PO454888  12.417  32.769   5.439
 4164POPC   GL154889  12.309  32.988   5.874
 4164POPC   GL254890  12.037  33.288   5.907
 4164POPC   C1A54891  12.235  33.057   6.333
 4164POPC   D2A54892  11.843  33.163   6.545
 4164POPC   C3A54893  11.826  32.970   6.942
 4164POPC   C4A54894  11.942  32.876   7.362
 4164POPC   C1B54895  12.396  33.502   6.104
 4164POPC   C2B54896  12.404  33.561   6.550
 4164POPC   C3B54897  12.275  33.256   6.861
 4164POPC   C4B54898  12.052  33.368   7.227
 4165POPC   NC354899  13.815   4.428   5.459
 4165POPC   PO454900  13.655   5.125   5.560
 4165POPC   GL154901  13.487   5.018   5.912
 4165POPC   GL254902  13.593   4.676   5.875
 4165POPC   C1A54903  13.451   5.239   6.299
 4165POPC   D2A54904  13.365   5.114   6.705
 4165POPC   C3A54905  13.480   5.324   7.053
 4165POPC   C4A54906  13.898   5.301   7.209
 4165POPC   C1B54907  13.651   4.706   6.350
 4165POPC   C2B54908  13.696   4.676   6.820
 4165POPC   C3B54909  13.609   4.781   7.283
 4165POPC   C4B54910  13.536   4.710   7.739
 4166POPC   NC354911   4.525  30.823   5.328
 4166POPC   PO454912   4.085  30.269   5.360
 4166POPC   GL154913   4.261  30.330   5.790
 4166POPC   GL254914   4.370  30.672   5.803
 4166POPC   C1A54915   4.553  30.321   6.185
 4166POPC   D2A54916   4.613  30.508   6.609
 4166POPC   C3A54917   4.305  30.379   6.924
 4166POPC   C4A54918   4.222  30.381   7.369
 4166POPC   C1B54919   4.599  30.831   6.173
 4166POPC   C2B54920   4.647  31.035   6.573
 4166POPC   C3B54921   4.621  30.943   7.025
 4166POPC   C4B54922   4.605  31.278   7.375
 4167POPC   NC354923  33.294  33.678   5.428
 4167POPC   PO454924  32.865  34.211   5.386
 4167POPC   GL154925  33.078  34.002   5.769
 4167POPC   GL254926  33.011  33.637   5.831
 4167POPC   C1A54927  33.158  33.958   6.231
 4167POPC   D2A54928  33.063  34.141   6.671
 4167POPC   C3A54929  33.116  33.916   7.078
 4167POPC   C4A54930  33.223  33.890   7.560
 4167POPC   C1B54931  32.859  33.475   6.185
 4167POPC   C2B54932  32.932  33.630   6.591
 4167POPC   C3B54933  32.763  33.556   6.979
 4167POPC   C4B54934  33.018  33.479   7.330
 4168POPC   NC354935  34.532  32.283   5.375
 4168POPC   PO454936  35.140  32.520   5.454
 4168POPC   GL154937  34.891  32.154   5.712
 4168POPC   GL254938  34.509  32.009   5.790
 4168POPC   C1A54939  34.833  32.104   6.164
 4168POPC   D2A54940  34.958  32.295   6.545
 4168POPC   C3A54941  34.833  32.159   6.933
 4168POPC   C4A54942  34.641  32.457   7.210
 4168POPC   C1B54943  34.256  32.087   6.147
 4168POPC   C2B54944  34.084  32.030   6.531
 4168POPC   C3B54945  34.288  32.207   6.892
 4168POPC   C4B54946  34.128  32.280   7.296
 4169POPC   NC354947  39.618  40.856   5.463
 4169POPC   PO454948  40.177  41.172   5.266
 4169POPC   GL154949  40.074  40.797   5.674
 4169POPC   GL254950  40.263  40.487   5.683
 4169POPC   C1A54951  39.902  40.740   6.116
 4169POPC   D2A54952  39.804  40.981   6.506
 4169POPC   C3A54953  39.924  40.834   6.898
 4169POPC   C4A54954  40.210  41.015   7.139
 4169POPC   C1B54955  40.357  40.486   6.121
 4169POPC   C2B54956  40.245  40.651   6.513
 4169POPC   C3B54957  40.421  40.584   6.907
 4169POPC   C4B54958  40.343  40.457   7.317
 4170POPC   NC354959  43.706  35.839   5.574
 4170POPC   PO454960  44.235  36.327   5.501
 4170POPC   GL154961  43.933  36.310   5.807
 4170POPC   GL254962  43.620  36.520   5.733
 4170POPC   C1A54963  43.940  36.082   6.204
 4170POPC   D2A54964  43.838  35.831   6.561
 4170POPC   C3A54965  44.135  35.865   6.921
 4170POPC   C4A54966  44.002  35.946   7.367
 4170POPC   C1B54967  43.494  36.263   6.091
 4170POPC   C2B54968  43.473  36.211   6.522
 4170POPC   C3B54969  43.653  36.153   6.929
 4170POPC   C4B54970  43.618  36.281   7.328
 4171POPC   NC354971  13.338  34.256   5.267
 4171POPC   PO454972  13.700  34.795   5.434
 4171POPC   GL154973  13.568  34.560   5.781
 4171POPC   GL254974  13.263  34.722   5.756
 4171POPC   C1A54975  13.533  34.422   6.223
 4171POPC   D2A54976  13.595  34.215   6.648
 4171POPC   C3A54977  13.504  34.494   6.983
 4171POPC   C4A54978  13.766  34.842   7.144
 4171POPC   C1B54979  13.261  34.951   6.159
 4171POPC   C2B54980  13.331  34.802   6.595
 4171POPC   C3B54981  13.247  34.943   7.037
 4171POPC   C4B54982  13.365  34.713   7.426
 4172POPC   NC354983  13.839  14.203   5.658
 4172POPC   PO454984  13.389  13.901   5.582
 4172POPC   GL154985  13.331  14.286   5.878
 4172POPC   GL254986  13.616  14.540   5.983
 4172POPC   C1A54987  13.282  14.359   6.341
 4172POPC   D2A54988  13.222  14.085   6.686
 4172POPC   C3A54989  13.200  14.329   7.028
 4172POPC   C4A54990  13.278  14.715   7.247
 4172POPC   C1B54991  13.804  14.436   6.409
 4172POPC   C2B54992  13.715  14.202   6.808
 4172POPC   C3B54993  13.661  14.361   7.229
 4172POPC   C4B54994  13.773  14.722   7.454
 4173POPC   NC354995   9.722   7.095   5.406
 4173POPC   PO454996  10.144   7.581   5.499
 4173POPC   GL154997   9.932   7.382   5.839
 4173POPC   GL254998   9.568   7.368   5.813
 4173POPC   C1A54999   9.762   7.443   6.275
 4173POPC   D2A55000   9.542   7.405   6.634
 4173POPC   C3A55001   9.786   7.277   6.985
 4173POPC   C4A55002   9.661   7.640   7.186
 4173POPC   C1B55003   9.376   7.119   6.150
 4173POPC   C2B55004   9.178   7.044   6.548
 4173POPC   C3B55005   9.338   7.030   6.946
 4173POPC   C4B55006   9.313   7.305   7.260
 4174POPC   NC355007   3.731   2.047   5.359
 4174POPC   PO455008   3.110   2.115   5.552
 4174POPC   GL155009   3.467   1.962   5.823
 4174POPC   GL255010   3.860   1.919   5.827
 4174POPC   C1A55011   3.390   1.971   6.259
 4174POPC   D2A55012   3.433   1.825   6.660
 4174POPC   C3A55013   3.345   2.025   7.045
 4174POPC   C4A55014   3.147   2.188   7.420
 4174POPC   C1B55015   3.839   2.189   6.124
 4174POPC   C2B55016   3.828   2.130   6.546
 4174POPC   C3B55017   3.796   2.317   6.929
 4174POPC   C4B55018   3.786   2.093   7.289
 4175POPC   NC355019  18.956   7.972   5.292
 4175POPC   PO455020  18.768   8.622   5.513
 4175POPC   GL155021  18.976   8.358   5.769
 4175POPC   GL255022  18.978   7.988   5.799
 4175POPC   C1A55023  18.883   8.360   6.192
 4175POPC   D2A55024  18.570   8.341   6.479
 4175POPC   C3A55025  18.734   8.325   6.896
 4175POPC   C4A55026  18.738   8.431   7.325
 4175POPC   C1B55027  19.037   7.877   6.239
 4175POPC   C2B55028  19.141   8.130   6.605
 4175POPC   C3B55029  19.115   7.997   7.048
 4175POPC   C4B55030  18.973   7.717   7.371
 4176POPC   NC355031   6.046   5.793   5.220
 4176POPC   PO455032   5.584   6.172   5.380
 4176POPC   GL155033   5.733   5.809   5.646
 4176POPC   GL255034   6.057   5.933   5.718
 4176POPC   C1A55035   5.902   5.605   6.052
 4176POPC   D2A55036   5.721   5.612   6.464
 4176POPC   C3A55037   5.909   5.606   6.852
 4176POPC   C4A55038   5.656   5.581   7.219
 4176POPC   C1B55039   5.864   6.098   6.117
 4176POPC   C2B55040   5.792   6.129   6.592
 4176POPC   C3B55041   5.764   6.074   7.035
 4176POPC   C4B55042   6.073   5.925   7.328
 4177POPC   NC355043  42.580  29.028   5.321
 4177POPC   PO455044  41.964  29.280   5.382
 4177POPC   GL155045  42.318  29.289   5.714
 4177POPC   GL255046  42.615  29.484   5.629
 4177POPC   C1A55047  42.325  29.053   6.130
 4177POPC   D2A55048  42.117  28.984   6.555
 4177POPC   C3A55049  42.205  29.240   6.945
 4177POPC   C4A55050  42.107  29.209   7.446
 4177POPC   C1B55051  42.749  29.422   6.073
 4177POPC   C2B55052  42.580  29.304   6.494
 4177POPC   C3B55053  42.743  29.170   6.887
 4177POPC   C4B55054  42.606  29.347   7.264
 4178POPC   NC355055  25.130   7.468   5.492
 4178POPC   PO455056  24.615   7.688   5.182
 4178POPC   GL155057  24.633   7.567   5.649
 4178POPC   GL255058  24.834   7.298   5.868
 4178POPC   C1A55059  24.548   7.630   6.100
 4178POPC   D2A55060  24.700   7.477   6.510
 4178POPC   C3A55061  24.458   7.673   6.787
 4178POPC   C4A55062  24.426   7.820   7.166
 4178POPC   C1B55063  24.530   7.110   6.189
 4178POPC   C2B55064  24.517   7.028   6.671
 4178POPC   C3B55065  24.692   6.908   7.078
 4178POPC   C4B55066  24.684   7.055   7.491
 4179POPC   NC355067  25.003   2.227   5.447
 4179POPC   PO455068  25.431   1.749   5.439
 4179POPC   GL155069  25.316   1.888   5.844
 4179POPC   GL255070  25.443   2.226   5.767
 4179POPC   C1A55071  25.257   1.797   6.299
 4179POPC   D2A55072  24.918   1.887   6.603
 4179POPC   C3A55073  25.104   1.742   6.969
 4179POPC   C4A55074  25.098   1.798   7.430
 4179POPC   C1B55075  25.332   2.304   6.211
 4179POPC   C2B55076  25.285   2.209   6.670
 4179POPC   C3B55077  25.209   2.225   7.143
 4179POPC   C4B55078  25.137   2.284   7.585
 4180POPC   NC355079  34.049  13.894   5.353
 4180POPC   PO455080  34.631  13.480   5.458
 4180POPC   GL155081  34.543  13.643   5.835
 4180POPC   GL255082  34.364  13.938   5.788
 4180POPC   C1A55083  34.668  13.777   6.243
 4180POPC   D2A55084  34.538  13.685   6.664
 4180POPC   C3A55085  34.876  13.742   6.933
 4180POPC   C4A55086  34.905  13.866   7.337
 4180POPC   C1B55087  34.369  14.205   6.144
 4180POPC   C2B55088  34.316  14.175   6.605
 4180POPC   C3B55089  34.459  14.064   7.031
 4180POPC   C4B55090  34.438  13.663   7.250
 4181POPC   NC355091  28.169  43.357   5.190
 4181POPC   PO455092  28.625  42.857   5.260
 4181POPC   GL155093  28.380  43.067   5.555
 4181POPC   GL255094  28.617  43.068   5.791
 4181POPC   C1A55095  28.120  43.215   5.909
 4181POPC   D2A55096  28.196  43.166   6.340
 4181POPC   C3A55097  28.233  43.478   6.707
 4181POPC   C4A55098  28.296  43.281   7.124
 4181POPC   C1B55099  28.711  43.009   6.234
 4181POPC   C2B55100  28.596  43.135   6.649
 4181POPC   C3B55101  28.778  43.223   6.993
 4181POPC   C4B55102  28.737  43.446   7.375
 4182POPC   NC355103  24.911  15.377   5.388
 4182POPC   PO455104  25.570  15.341   5.329
 4182POPC   GL155105  25.345  15.368   5.704
 4182POPC   GL255106  25.123  15.078   5.794
 4182POPC   C1A55107  25.290  15.511   6.122
 4182POPC   D2A55108  25.154  15.210   6.441
 4182POPC   C3A55109  25.270  15.077   6.840
 4182POPC   C4A55110  25.095  14.883   7.178
 4182POPC   C1B55111  24.818  15.319   6.078
 4182POPC   C2B55112  24.733  15.465   6.567
 4182POPC   C3B55113  24.918  15.403   7.010
 4182POPC   C4B55114  25.024  15.312   7.493
 4183POPC   NC355115  23.331  31.719   5.285
 4183POPC   PO455116  22.679  31.662   5.221
 4183POPC   GL155117  22.826  31.514   5.675
 4183POPC   GL255118  23.045  31.198   5.671
 4183POPC   C1A55119  23.082  31.566   6.082
 4183POPC   D2A55120  22.970  31.650   6.516
 4183POPC   C3A55121  23.144  31.666   6.916
 4183POPC   C4A55122  22.838  31.642   7.256
 4183POPC   C1B55123  22.853  31.110   6.066
 4183POPC   C2B55124  22.997  31.154   6.481
 4183POPC   C3B55125  22.817  31.252   6.866
 4183POPC   C4B55126  22.728  30.966   7.193
 4184POPC   NC355127  15.468  21.412   5.252
 4184POPC   PO455128  14.928  21.168   5.386
 4184POPC   GL155129  15.100  21.405   5.712
 4184POPC   GL255130  15.459  21.368   5.752
 4184POPC   C1A55131  15.149  21.414   6.161
 4184POPC   D2A55132  15.333  21.275   6.535
 4184POPC   C3A55133  15.122  21.453   6.863
 4184POPC   C4A55134  14.915  21.401   7.245
 4184POPC   C1B55135  15.523  21.745   6.002
 4184POPC   C2B55136  15.507  21.759   6.439
 4184POPC   C3B55137  15.545  21.734   6.870
 4184POPC   C4B55138  15.316  21.717   7.251
 4185POPC   NC355139  29.782  14.774   5.346
 4185POPC   PO455140  29.684  14.118   5.410
 4185POPC   GL155141  29.992  14.240   5.737
 4185POPC   GL255142  30.021  14.594   5.755
 4185POPC   C1A55143  29.870  14.298   6.165
 4185POPC   D2A55144  29.701  14.216   6.546
 4185POPC   C3A55145  29.919  14.298   6.905
 4185POPC   C4A55146  29.717  14.336   7.247
 4185POPC   C1B55147  30.140  14.719   6.168
 4185POPC   C2B55148  30.206  14.552   6.584
 4185POPC   C3B55149  30.232  14.748   7.021
 4185POPC   C4B55150  30.089  14.748   7.478
 4186POPC   NC355151  14.278   5.981   5.342
 4186POPC   PO455152  14.754   6.414   5.498
 4186POPC   GL155153  14.600   6.031   5.752
 4186POPC   GL255154  14.247   6.153   5.836
 4186POPC   C1A55155  14.391   5.745   6.096
 4186POPC   D2A55156  14.114   5.915   6.473
 4186POPC   C3A55157  14.265   5.956   6.935
 4186POPC   C4A55158  14.278   5.757   7.381
 4186POPC   C1B55159  14.516   6.212   6.248
 4186POPC   C2B55160  14.631   6.311   6.673
 4186POPC   C3B55161  14.719   6.149   7.060
 4186POPC   C4B55162  14.787   5.792   7.285
 4187POPC   NC355163  30.865  37.003   5.368
 4187POPC   PO455164  30.373  36.666   5.445
 4187POPC   GL155165  30.599  36.881   5.795
 4187POPC   GL255166  30.972  36.826   5.825
 4187POPC   C1A55167  30.579  36.845   6.247
 4187POPC   D2A55168  30.502  36.554   6.614
 4187POPC   C3A55169  30.638  36.628   7.057
 4187POPC   C4A55170  30.605  36.879   7.436
 4187POPC   C1B55171  31.053  36.687   6.228
 4187POPC   C2B55172  30.948  36.797   6.640
 4187POPC   C3B55173  30.910  37.046   6.973
 4187POPC   C4B55174  31.140  36.980   7.328
 4188POPC   NC355175  41.108  30.365   5.256
 4188POPC   PO455176  41.496  30.980   5.332
 4188POPC   GL155177  41.587  30.974   5.771
 4188POPC   GL255178  41.358  30.687   5.832
 4188POPC   C1A55179  41.604  30.857   6.230
 4188POPC   D2A55180  41.404  30.686   6.603
 4188POPC   C3A55181  41.590  30.822   7.001
 4188POPC   C4A55182  41.836  30.725   7.350
 4188POPC   C1B55183  41.153  30.397   6.170
 4188POPC   C2B55184  40.999  30.254   6.584
 4188POPC   C3B55185  41.149  30.399   6.982
 4188POPC   C4B55186  41.090  30.489   7.401
 4189POPC   NC355187  38.544  39.544   5.566
 4189POPC   PO455188  38.053  40.081   5.449
 4189POPC   GL155189  38.317  39.955   5.791
 4189POPC   GL255190  38.639  40.042   5.720
 4189POPC   C1A55191  38.201  39.863   6.232
 4189POPC   D2A55192  38.299  39.911   6.683
 4189POPC   C3A55193  38.560  39.693   6.982
 4189POPC   C4A55194  38.361  39.787   7.363
 4189POPC   C1B55195  38.690  39.995   6.192
 4189POPC   C2B55196  38.796  40.077   6.651
 4189POPC   C3B55197  38.580  40.193   7.064
 4189POPC   C4B55198  38.745  40.074   7.494
 4190POPC   NC355199   0.776  26.443   5.467
 4190POPC   PO455200   0.634  25.857   5.301
 4190POPC   GL155201   0.659  25.895   5.735
 4190POPC   GL255202   0.452  26.198   5.815
 4190POPC   C1A55203   0.416  25.767   6.109
 4190POPC   D2A55204   0.379  25.958   6.502
 4190POPC   C3A55205   0.424  25.810   6.905
 4190POPC   C4A55206   0.355  25.871   7.343
 4190POPC   C1B55207   0.500  26.459   6.219
 4190POPC   C2B55208   0.395  26.431   6.669
 4190POPC   C3B55209   0.549  26.294   7.061
 4190POPC   C4B55210   0.930  26.471   7.129
 4191POPC   NC355211  12.097  28.736   5.435
 4191POPC   PO455212  12.041  28.065   5.502
 4191POPC   GL155213  12.207  28.339   5.792
 4191POPC   GL255214  11.976  28.579   5.920
 4191POPC   C1A55215  12.250  28.221   6.220
 4191POPC   D2A55216  12.059  28.007   6.564
 4191POPC   C3A55217  12.244  28.150   6.971
 4191POPC   C4A55218  12.334  28.600   7.040
 4191POPC   C1B55219  11.772  28.411   6.303
 4191POPC   C2B55220  11.943  28.481   6.709
 4191POPC   C3B55221  11.849  28.570   7.146
 4191POPC   C4B55222  11.791  28.756   7.537
 4192POPC   NC355223  25.686   3.738   5.453
 4192POPC   PO455224  25.075   3.399   5.304
 4192POPC   GL155225  25.253   3.468   5.726
 4192POPC   GL255226  25.514   3.271   5.814
 4192POPC   C1A55227  25.025   3.616   6.138
 4192POPC   D2A55228  24.890   3.749   6.564
 4192POPC   C3A55229  25.105   3.557   6.937
 4192POPC   C4A55230  25.140   3.713   7.377
 4192POPC   C1B55231  25.436   3.319   6.249
 4192POPC   C2B55232  25.481   3.076   6.621
 4192POPC   C3B55233  25.504   3.115   7.047
 4192POPC   C4B55234  25.570   3.469   7.283
 4193POPC   NC355235  10.898   1.838   5.337
 4193POPC   PO455236  11.235   2.389   5.377
 4193POPC   GL155237  11.313   2.047   5.671
 4193POPC   GL255238  11.600   1.837   5.599
 4193POPC   C1A55239  11.215   2.010   6.117
 4193POPC   D2A55240  11.278   2.173   6.555
 4193POPC   C3A55241  11.173   1.984   6.965
 4193POPC   C4A55242  11.301   2.063   7.417
 4193POPC   C1B55243  11.574   1.665   6.042
 4193POPC   C2B55244  11.381   1.652   6.467
 4193POPC   C3B55245  11.497   1.600   6.893
 4193POPC   C4B55246  11.262   1.570   7.279
 4194POPC   NC355247  38.631  32.427   5.372
 4194POPC   PO455248  38.553  31.722   5.323
 4194POPC   GL155249  38.462  32.031   5.682
 4194POPC   GL255250  38.111  32.160   5.727
 4194POPC   C1A55251  38.584  32.258   6.109
 4194POPC   D2A55252  38.858  32.355   6.509
 4194POPC   C3A55253  38.662  32.297   6.929
 4194POPC   C4A55254  38.798  32.362   7.330
 4194POPC   C1B55255  37.951  32.067   6.162
 4194POPC   C2B55256  37.991  32.030   6.629
 4194POPC   C3B55257  38.123  32.125   7.069
 4194POPC   C4B55258  38.294  32.436   7.337
 4195POPC   NC355259  41.876  31.284   5.405
 4195POPC   PO455260  41.432  31.778   5.349
 4195POPC   GL155261  41.471  31.493   5.700
 4195POPC   GL255262  41.823  31.552   5.845
 4195POPC   C1A55263  41.451  31.348   6.135
 4195POPC   D2A55264  41.639  31.467   6.565
 4195POPC   C3A55265  41.519  31.330   7.009
 4195POPC   C4A55266  41.181  31.361   7.351
 4195POPC   C1B55267  41.946  31.216   6.183
 4195POPC   C2B55268  41.885  31.026   6.623
 4195POPC   C3B55269  42.020  31.130   7.045
 4195POPC   C4B55270  42.105  31.504   7.284
 4196POPC   NC355271  35.838   2.686   5.271
 4196POPC   PO455272  36.263   3.071   5.635
 4196POPC   GL155273  35.986   2.783   5.782
 4196POPC   GL255274  35.652   2.891   5.760
 4196POPC   C1A55275  36.058   2.586   6.165
 4196POPC   D2A55276  35.911   2.724   6.559
 4196POPC   C3A55277  36.212   2.797   6.875
 4196POPC   C4A55278  36.100   2.518   7.199
 4196POPC   C1B55279  35.797   3.076   6.178
 4196POPC   C2B55280  35.974   3.229   6.600
 4196POPC   C3B55281  35.832   3.076   7.029
 4196POPC   C4B55282  35.675   3.191   7.428
 4197POPC   NC355283  27.138  11.439   5.198
 4197POPC   PO455284  27.828  11.300   5.444
 4197POPC   GL155285  27.725  11.415   5.893
 4197POPC   GL255286  27.468  11.670   5.969
 4197POPC   C1A55287  27.650  11.142   6.255
 4197POPC   D2A55288  27.579  11.114   6.680
 4197POPC   C3A55289  27.855  11.262   6.974
 4197POPC   C4A55290  27.692  11.088   7.341
 4197POPC   C1B55291  27.538  11.614   6.403
 4197POPC   C2B55292  27.240  11.496   6.713
 4197POPC   C3B55293  27.334  11.392   7.110
 4197POPC   C4B55294  27.673  11.605   7.310
 4198POPC   NC355295  37.890   0.881   5.512
 4198POPC   PO455296  37.504   0.322   5.474
 4198POPC   GL155297  37.742   0.469   5.802
 4198POPC   GL255298  37.692   0.183   6.044
 4198POPC   C1A55299  37.917   0.635   6.181
 4198POPC   D2A55300  37.809   0.457   6.575
 4198POPC   C3A55301  37.665   0.653   6.952
 4198POPC   C4A55302  37.704   0.351   7.256
 4198POPC   C1B55303  37.395   0.549   6.149
 4198POPC   C2B55304  37.338   0.717   6.564
 4198POPC   C3B55305  37.118   0.701   6.964
 4198POPC   C4B55306  37.240   0.572   7.357
 4199POPC   NC355307  24.274  28.805   5.495
 4199POPC   PO455308  24.604  29.363   5.497
 4199POPC   GL155309  24.402  29.166   5.843
 4199POPC   GL255310  24.109  29.338   5.710
 4199POPC   C1A55311  24.406  29.107   6.306
 4199POPC   D2A55312  24.748  29.115   6.555
 4199POPC   C3A55313  24.718  29.119   6.980
 4199POPC   C4A55314  24.878  28.884   7.312
 4199POPC   C1B55315  24.229  29.553   6.121
 4199POPC   C2B55316  24.450  29.572   6.543
 4199POPC   C3B55317  24.540  29.588   6.981
 4199POPC   C4B55318  24.292  29.500   7.323
 4200POPC   NC355319  43.822   4.701   5.039
 4200POPC   PO455320  44.364   4.387   5.349
 4200POPC   GL155321  44.265   4.340   5.802
 4200POPC   GL255322  43.924   4.469   5.855
 4200POPC   C1A55323  44.156   4.185   6.232
 4200POPC   D2A55324  44.097   4.479   6.537
 4200POPC   C3A55325  44.129   4.425   6.948
 4200POPC   C4A55326  43.944   4.224   7.298
 4200POPC   C1B55327  43.672   4.503   6.250
 4200POPC   C2B55328  43.602   4.442   6.705
 4200POPC   C3B55329  43.507   4.449   7.126
 4200POPC   C4B55330  43.484   4.229   7.512
 4201POPC   NC355331   8.779  42.985   5.308
 4201POPC   PO455332   9.265  43.393   5.487
 4201POPC   GL155333   8.940  43.195   5.745
 4201POPC   GL255334   8.588  43.313   5.676
 4201POPC   C1A55335   8.884  43.298   6.177
 4201POPC   D2A55336   9.076  43.125   6.539
 4201POPC   C3A55337   8.815  43.247   6.876
 4201POPC   C4A55338   8.914  43.072   7.259
 4201POPC   C1B55339   8.503  43.012   6.020
 4201POPC   C2B55340   8.581  42.955   6.472
 4201POPC   C3B55341   8.625  42.772   6.926
 4201POPC   C4B55342   8.752  42.574   7.338
 4202POPC   NC355343  37.185   5.720   5.614
 4202POPC   PO455344  36.707   6.193   5.443
 4202POPC   GL155345  36.722   6.078   5.872
 4202POPC   GL255346  36.952   5.828   6.056
 4202POPC   C1A55347  36.638   6.205   6.280
 4202POPC   D2A55348  36.852   6.006   6.629
 4202POPC   C3A55349  36.831   6.232   7.006
 4202POPC   C4A55350  36.915   6.066   7.389
 4202POPC   C1B55351  37.141   5.477   6.306
 4202POPC   C2B55352  37.141   5.381   6.762
 4202POPC   C3B55353  37.039   5.664   7.134
 4202POPC   C4B55354  37.199   5.590   7.663
 4203POPC   NC355355  34.806  34.396   5.586
 4203POPC   PO455356  34.268  34.793   5.385
 4203POPC   GL155357  34.398  34.627   5.801
 4203POPC   GL255358  34.197  34.343   5.936
 4203POPC   C1A55359  34.629  34.776   6.198
 4203POPC   D2A55360  34.843  34.820   6.626
 4203POPC   C3A55361  34.787  34.588   7.020
 4203POPC   C4A55362  34.796  34.547   7.478
 4203POPC   C1B55363  34.568  34.262   6.171
 4203POPC   C2B55364  34.782  34.231   6.565
 4203POPC   C3B55365  34.518  34.158   6.897
 4203POPC   C4B55366  34.441  34.268   7.269
 4204POPC   NC355367  31.335  31.860   5.397
 4204POPC   PO455368  31.765  31.329   5.293
 4204POPC   GL155369  31.498  31.418   5.676
 4204POPC   GL255370  31.795  31.390   5.886
 4204POPC   C1A55371  31.405  31.624   6.109
 4204POPC   D2A55372  31.578  31.492   6.514
 4204POPC   C3A55373  31.559  31.700   6.897
 4204POPC   C4A55374  31.514  31.594   7.329
 4204POPC   C1B55375  31.885  31.170   6.280
 4204POPC   C2B55376  31.954  31.209   6.737
 4204POPC   C3B55377  31.917  31.346   7.134
 4204POPC   C4B55378  31.890  31.357   7.602
 4205POPC   NC355379  20.183  13.466   5.325
 4205POPC   PO455380  19.550  13.570   5.262
 4205POPC   GL155381  19.625  13.692   5.687
 4205POPC   GL255382  19.972  13.796   5.714
 4205POPC   C1A55383  19.759  13.526   6.117
 4205POPC   D2A55384  19.914  13.282   6.476
 4205POPC   C3A55385  19.871  13.348   6.905
 4205POPC   C4A55386  19.743  13.567   7.275
 4205POPC   C1B55387  20.128  13.846   6.169
 4205POPC   C2B55388  19.926  13.789   6.595
 4205POPC   C3B55389  20.131  13.783   7.008
 4205POPC   C4B55390  20.296  13.897   7.421
 4206POPC   NC355391  43.966   5.646   5.409
 4206POPC   PO455392  43.662   5.006   5.339
 4206POPC   GL155393  43.795   5.252   5.741
 4206POPC   GL255394  43.694   4.949   5.897
 4206POPC   C1A55395  43.956   5.428   6.166
 4206POPC   D2A55396  44.092   5.318   6.595
 4206POPC   C3A55397  43.955   5.355   7.012
 4206POPC   C4A55398  44.034   5.136   7.415
 4206POPC   C1B55399  43.979   4.918   6.250
 4206POPC   C2B55400  43.834   4.899   6.667
 4206POPC   C3B55401  43.849   4.825   7.070
 4206POPC   C4B55402  43.739   4.711   7.483
 4207POPC   NC355403   8.415   1.070   5.511
 4207POPC   PO455404   8.035   1.712   5.500
 4207POPC   GL155405   7.982   1.450   5.884
 4207POPC   GL255406   7.936   1.085   5.864
 4207POPC   C1A55407   7.989   1.293   6.322
 4207POPC   D2A55408   8.187   1.317   6.706
 4207POPC   C3A55409   7.989   1.353   7.107
 4207POPC   C4A55410   8.057   1.517   7.509
 4207POPC   C1B55411   8.321   0.958   6.142
 4207POPC   C2B55412   8.446   0.888   6.570
 4207POPC   C3B55413   8.324   0.941   7.003
 4207POPC   C4B55414   8.296   1.080   7.426
 4208POPC   NC355415  22.876  13.704   5.342
 4208POPC   PO455416  23.089  13.122   5.609
 4208POPC   GL155417  23.022  13.458   5.846
 4208POPC   GL255418  22.995  13.840   5.834
 4208POPC   C1A55419  23.290  13.370   6.190
 4208POPC   D2A55420  23.195  13.259   6.587
 4208POPC   C3A55421  23.041  13.597   6.810
 4208POPC   C4A55422  23.295  13.549   7.157
 4208POPC   C1B55423  22.869  13.680   6.279
 4208POPC   C2B55424  22.600  13.872   6.587
 4208POPC   C3B55425  22.590  13.885   7.027
 4208POPC   C4B55426  22.806  13.580   7.270
 4209POPC   NC355427  39.135  29.866   5.315
 4209POPC   PO455428  39.138  30.479   5.539
 4209POPC   GL155429  39.187  30.067   5.785
 4209POPC   GL255430  38.928  29.747   5.748
 4209POPC   C1A55431  39.462  29.813   6.094
 4209POPC   D2A55432  39.644  29.606   6.501
 4209POPC   C3A55433  39.516  29.743   6.949
 4209POPC   C4A55434  39.445  30.116   7.222
 4209POPC   C1B55435  38.944  29.835   6.161
 4209POPC   C2B55436  39.153  29.817   6.555
 4209POPC   C3B55437  38.982  29.835   6.963
 4209POPC   C4B55438  39.018  29.810   7.404
 4210POPC   NC355439  30.078  30.881   5.459
 4210POPC   PO455440  29.762  30.301   5.386
 4210POPC   GL155441  29.795  30.560   5.758
 4210POPC   GL255442  30.133  30.558   5.879
 4210POPC   C1A55443  29.738  30.786   6.163
 4210POPC   D2A55444  29.892  30.908   6.568
 4210POPC   C3A55445  29.665  30.692   6.864
 4210POPC   C4A55446  29.550  30.856   7.243
 4210POPC   C1B55447  30.198  30.563   6.349
 4210POPC   C2B55448  30.164  30.530   6.837
 4210POPC   C3B55449  30.066  30.776   7.249
 4210POPC   C4B55450  30.284  30.687   7.668
 4211POPC   NC355451  23.035  14.298   5.340
 4211POPC   PO455452  23.345  14.938   5.352
 4211POPC   GL155453  23.072  14.721   5.678
 4211POPC   GL255454  22.962  14.385   5.827
 4211POPC   C1A55455  23.069  14.834   6.127
 4211POPC   D2A55456  23.308  14.736   6.500
 4211POPC   C3A55457  23.137  14.818   6.926
 4211POPC   C4A55458  23.201  14.595   7.322
 4211POPC   C1B55459  22.914  14.199   6.244
 4211POPC   C2B55460  23.105  14.065   6.637
 4211POPC   C3B55461  23.093  14.055   7.093
 4211POPC   C4B55462  22.779  14.327   7.216
 4212POPC   NC355463  12.725  35.973   5.462
 4212POPC   PO455464  12.652  36.649   5.430
 4212POPC   GL155465  12.597  36.357   5.792
 4212POPC   GL255466  12.922  36.225   5.867
 4212POPC   C1A55467  12.618  36.351   6.280
 4212POPC   D2A55468  13.005  36.246   6.593
 4212POPC   C3A55469  13.043  36.365   7.047
 4212POPC   C4A55470  12.661  36.424   7.301
 4212POPC   C1B55471  12.841  35.912   6.219
 4212POPC   C2B55472  12.562  35.928   6.612
 4212POPC   C3B55473  12.791  35.902   6.999
 4212POPC   C4B55474  13.247  35.848   7.064
 4213POPC   NC355475   6.662  22.560   5.404
 4213POPC   PO455476   6.659  23.217   5.348
 4213POPC   GL155477   6.431  22.989   5.678
 4213POPC   GL255478   6.585  22.693   5.888
 4213POPC   C1A55479   6.402  23.088   6.139
 4213POPC   D2A55480   6.706  22.911   6.432
 4213POPC   C3A55481   6.716  23.018   6.860
 4213POPC   C4A55482   6.784  23.041   7.290
 4213POPC   C1B55483   6.377  22.532   6.268
 4213POPC   C2B55484   6.338  22.652   6.731
 4213POPC   C3B55485   6.618  22.580   7.097
 4213POPC   C4B55486   6.792  22.602   7.550
 4214POPC   NC355487  32.252  32.056   5.421
 4214POPC   PO455488  32.404  32.768   5.514
 4214POPC   GL155489  32.249  32.423   5.814
 4214POPC   GL255490  32.483  32.152   5.878
 4214POPC   C1A55491  32.041  32.309   6.219
 4214POPC   D2A55492  31.987  32.179   6.667
 4214POPC   C3A55493  32.239  32.287   7.082
 4214POPC   C4A55494  32.324  32.546   7.470
 4214POPC   C1B55495  32.402  31.950   6.291
 4214POPC   C2B55496  32.500  31.999   6.731
 4214POPC   C3B55497  32.560  31.745   7.089
 4214POPC   C4B55498  32.293  31.603   7.403
 4215POPC   NC355499  41.159  31.329   5.286
 4215POPC   PO455500  40.478  31.551   5.209
 4215POPC   GL155501  40.771  31.514   5.611
 4215POPC   GL255502  40.993  31.804   5.592
 4215POPC   C1A55503  40.792  31.420   6.110
 4215POPC   D2A55504  40.679  31.583   6.582
 4215POPC   C3A55505  40.756  31.346   7.003
 4215POPC   C4A55506  40.688  31.395   7.470
 4215POPC   C1B55507  41.093  31.825   6.026
 4215POPC   C2B55508  41.163  31.634   6.423
 4215POPC   C3B55509  41.145  31.651   6.865
 4215POPC   C4B55510  40.908  31.796   7.252
 4216POPC   NC355511  13.885   9.192   5.396
 4216POPC   PO455512  14.561   9.247   5.569
 4216POPC   GL155513  14.398   9.017   5.939
 4216POPC   GL255514  14.099   8.938   5.784
 4216POPC   C1A55515  14.449   8.745   6.318
 4216POPC   D2A55516  14.692   8.804   6.710
 4216POPC   C3A55517  14.581   8.947   7.098
 4216POPC   C4A55518  14.517   8.917   7.535
 4216POPC   C1B55519  13.895   9.072   6.141
 4216POPC   C2B55520  14.077   9.029   6.538
 4216POPC   C3B55521  14.177   9.257   6.892
 4216POPC   C4B55522  14.116   9.069   7.259
 4217POPC   NC355523  41.673  26.223   5.431
 4217POPC   PO455524  42.026  25.617   5.556
 4217POPC   GL155525  41.937  26.008   5.838
 4217POPC   GL255526  41.955  25.769   6.064
 4217POPC   C1A55527  41.579  26.090   6.189
 4217POPC   D2A55528  41.286  25.954   6.509
 4217POPC   C3A55529  41.311  26.211   6.870
 4217POPC   C4A55530  41.189  26.187   7.275
 4217POPC   C1B55531  42.060  26.075   6.380
 4217POPC   C2B55532  41.775  25.976   6.723
 4217POPC   C3B55533  41.620  25.906   7.126
 4217POPC   C4B55534  41.669  26.161   7.499
 4218POPC   NC355535  35.647  36.068   5.403
 4218POPC   PO455536  35.032  36.209   5.604
 4218POPC   GL155537  35.376  35.980   5.828
 4218POPC   GL255538  35.645  36.229   5.882
 4218POPC   C1A55539  35.372  35.898   6.258
 4218POPC   D2A55540  35.256  36.159   6.619
 4218POPC   C3A55541  35.323  35.917   6.990
 4218POPC   C4A55542  35.295  35.743   7.427
 4218POPC   C1B55543  35.480  36.434   6.212
 4218POPC   C2B55544  35.629  36.614   6.590
 4218POPC   C3B55545  35.559  36.417   6.968
 4218POPC   C4B55546  35.547  36.180   7.346
 4219POPC   NC355547   5.402  25.539   5.671
 4219POPC   PO455548   5.841  25.193   5.247
 4219POPC   GL155549   5.753  25.114   5.691
 4219POPC   GL255550   6.005  24.888   5.833
 4219POPC   C1A55551   5.836  25.293   6.105
 4219POPC   D2A55552   5.882  25.265   6.537
 4219POPC   C3A55553   5.668  25.497   6.844
 4219POPC   C4A55554   5.717  25.405   7.286
 4219POPC   C1B55555   6.175  24.902   6.274
 4219POPC   C2B55556   6.209  24.879   6.745
 4219POPC   C3B55557   6.187  24.776   7.180
 4219POPC   C4B55558   5.853  24.822   7.516
 4220POPC   NC355559  31.643  34.059   5.411
 4220POPC   PO455560  31.131  33.638   5.584
 4220POPC   GL155561  31.388  33.912   5.898
 4220POPC   GL255562  31.761  33.977   5.899
 4220POPC   C1A55563  31.449  34.095   6.311
 4220POPC   D2A55564  31.319  34.284   6.702
 4220POPC   C3A55565  31.469  34.055   7.008
 4220POPC   C4A55566  31.283  33.731   7.259
 4220POPC   C1B55567  31.748  33.654   6.212
 4220POPC   C2B55568  31.856  33.573   6.624
 4220POPC   C3B55569  31.769  33.674   7.056
 4220POPC   C4B55570  31.749  33.905   7.430
 4221POPC   NC355571   9.854  24.552   5.280
 4221POPC   PO455572   9.408  24.139   5.604
 4221POPC   GL155573   9.624  24.345   5.931
 4221POPC   GL255574   9.902  24.492   5.825
 4221POPC   C1A55575   9.928  24.306   6.312
 4221POPC   D2A55576   9.921  24.308   6.749
 4221POPC   C3A55577  10.182  24.173   7.073
 4221POPC   C4A55578   9.867  24.354   7.304
 4221POPC   C1B55579   9.721  24.760   6.177
 4221POPC   C2B55580   9.859  24.822   6.589
 4221POPC   C3B55581   9.695  24.801   7.002
 4221POPC   C4B55582   9.846  24.934   7.398
 4222POPC   NC355583  38.115  21.964   5.650
 4222POPC   PO455584  38.703  22.222   5.324
 4222POPC   GL155585  38.568  22.104   5.797
 4222POPC   GL255586  38.385  22.382   5.867
 4222POPC   C1A55587  38.318  22.060   6.261
 4222POPC   D2A55588  38.436  21.943   6.702
 4222POPC   C3A55589  38.302  21.844   7.166
 4222POPC   C4A55590  38.376  21.657   7.619
 4222POPC   C1B55591  38.245  22.575   6.241
 4222POPC   C2B55592  38.412  22.477   6.618
 4222POPC   C3B55593  38.424  22.339   7.036
 4222POPC   C4B55594  38.215  22.584   7.340
 4223POPC   NC355595  32.624   1.438   5.618
 4223POPC   PO455596  32.156   1.023   5.217
 4223POPC   GL155597  32.254   1.076   5.739
 4223POPC   GL255598  32.016   1.272   5.913
 4223POPC   C1A55599  32.447   1.174   6.198
 4223POPC   D2A55600  32.274   1.168   6.644
 4223POPC   C3A55601  32.462   1.349   7.032
 4223POPC   C4A55602  32.398   1.207   7.493
 4223POPC   C1B55603  31.991   1.462   6.304
 4223POPC   C2B55604  31.822   1.389   6.749
 4223POPC   C3B55605  31.971   1.602   7.120
 4223POPC   C4B55606  32.334   1.717   7.370
 4224POPC   NC355607   2.297  37.392   5.524
 4224POPC   PO455608   1.737  37.882   5.428
 4224POPC   GL155609   1.970  37.701   5.765
 4224POPC   GL255610   1.680  37.560   5.875
 4224POPC   C1A55611   2.058  37.673   6.218
 4224POPC   D2A55612   2.269  37.809   6.623
 4224POPC   C3A55613   2.192  37.700   7.052
 4224POPC   C4A55614   1.823  37.483   7.162
 4224POPC   C1B55615   1.607  37.895   6.155
 4224POPC   C2B55616   1.778  37.964   6.556
 4224POPC   C3B55617   1.812  38.055   6.978
 4224POPC   C4B55618   1.883  37.958   7.387
 4225POPC   NC355619  11.401  40.817   5.490
 4225POPC   PO455620  11.308  40.236   5.110
 4225POPC   GL155621  11.113  40.373   5.598
 4225POPC   GL255622  10.941  40.689   5.604
 4225POPC   C1A55623  11.287  40.478   6.073
 4225POPC   D2A55624  11.533  40.587   6.465
 4225POPC   C3A55625  11.329  40.417   6.845
 4225POPC   C4A55626  11.326  40.384   7.298
 4225POPC   C1B55627  10.935  40.880   6.006
 4225POPC   C2B55628  11.133  40.875   6.384
 4225POPC   C3B55629  11.209  41.036   6.785
 4225POPC   C4B55630  11.279  40.970   7.218
 4226POPC   NC355631   0.486  44.811   5.438
 4226POPC   PO455632   0.228  44.258   5.358
 4226POPC   GL155633   0.317  44.441   5.782
 4226POPC   GL255634   0.633  44.651   5.873
 4226POPC   C1A55635   0.149  44.536   6.202
 4226POPC   D2A55636   0.124  44.795   6.580
 4226POPC   C3A55637   0.004  44.546   6.916
 4226POPC   C4A55638   0.232  44.333   7.159
 4226POPC   C1B55639   0.563  44.843   6.236
 4226POPC   C2B55640   0.654  44.792   6.623
 4226POPC   C3B55641   0.499  44.767   7.011
 4226POPC   C4B55642   0.529  44.939   7.405
 4227POPC   NC355643  23.118  34.335   5.580
 4227POPC   PO455644  22.711  34.863   5.569
 4227POPC   GL155645  22.895  34.677   5.889
 4227POPC   GL255646  22.699  34.358   5.876
 4227POPC   C1A55647  23.110  34.741   6.285
 4227POPC   D2A55648  22.987  34.571   6.681
 4227POPC   C3A55649  23.097  34.796   7.045
 4227POPC   C4A55650  22.886  34.831   7.438
 4227POPC   C1B55651  22.625  34.548   6.280
 4227POPC   C2B55652  22.451  34.850   6.477
 4227POPC   C3B55653  22.571  34.824   6.882
 4227POPC   C4B55654  22.713  34.469   7.099
 4228POPC   NC355655  23.658   5.084   5.212
 4228POPC   PO455656  24.083   4.997   5.715
 4228POPC   GL155657  23.695   5.015   5.806
 4228POPC   GL255658  23.650   4.699   5.665
 4228POPC   C1A55659  23.654   5.180   6.204
 4228POPC   D2A55660  23.906   5.221   6.574
 4228POPC   C3A55661  23.716   5.434   6.899
 4228POPC   C4A55662  23.666   5.321   7.332
 4228POPC   C1B55663  23.790   4.639   6.148
 4228POPC   C2B55664  23.625   4.785   6.545
 4228POPC   C3B55665  23.685   4.920   6.958
 4228POPC   C4B55666  23.465   4.838   7.370
 4229POPC   NC355667  31.574  23.732   4.565
 4229POPC   PO455668  31.678  23.584   5.242
 4229POPC   GL155669  31.567  23.803   5.609
 4229POPC   GL255670  31.726  23.527   5.783
 4229POPC   C1A55671  31.546  23.977   6.056
 4229POPC   D2A55672  31.461  23.826   6.487
 4229POPC   C3A55673  31.652  23.963   6.881
 4229POPC   C4A55674  31.406  23.863   7.200
 4229POPC   C1B55675  31.988  23.724   6.111
 4229POPC   C2B55676  31.928  23.625   6.532
 4229POPC   C3B55677  31.660  23.443   6.837
 4229POPC   C4B55678  31.880  23.536   7.180
 4230POPC   NC355679  12.546  11.516   5.619
 4230POPC   PO455680  13.041  11.147   5.246
 4230POPC   GL155681  12.932  11.114   5.705
 4230POPC   GL255682  12.705  11.206   5.955
 4230POPC   C1A55683  13.091  10.961   6.137
 4230POPC   D2A55684  13.072  10.834   6.600
 4230POPC   C3A55685  12.875  11.029   6.975
 4230POPC   C4A55686  13.099  11.268   7.268
 4230POPC   C1B55687  12.825  11.328   6.384
 4230POPC   C2B55688  12.681  11.447   6.780
 4230POPC   C3B55689  12.710  11.561   7.199
 4230POPC   C4B55690  12.778  11.727   7.610
 4231POPC   NC355691   3.356  27.070   5.344
 4231POPC   PO455692   3.648  27.730   5.371
 4231POPC   GL155693   3.675  27.379   5.673
 4231POPC   GL255694   3.371  27.502   5.829
 4231POPC   C1A55695   3.741  27.290   6.117
 4231POPC   D2A55696   3.778  27.530   6.500
 4231POPC   C3A55697   3.753  27.380   6.930
 4231POPC   C4A55698   3.733  27.541   7.357
 4231POPC   C1B55699   3.288  27.608   6.280
 4231POPC   C2B55700   3.354  27.655   6.746
 4231POPC   C3B55701   3.286  27.705   7.177
 4231POPC   C4B55702   3.229  27.401   7.526
 4232POPC   NC355703  39.315  33.241   5.392
 4232POPC   PO455704  38.827  32.855   5.369
 4232POPC   GL155705  39.111  32.953   5.796
 4232POPC   GL255706  39.417  33.171   5.879
 4232POPC   C1A55707  39.417  32.743   6.127
 4232POPC   D2A55708  39.548  32.634   6.559
 4232POPC   C3A55709  39.247  32.808   6.813
 4232POPC   C4A55710  39.091  32.756   7.218
 4232POPC   C1B55711  39.339  33.222   6.325
 4232POPC   C2B55712  39.551  33.246   6.734
 4232POPC   C3B55713  39.352  33.203   7.122
 4232POPC   C4B55714  38.913  33.252   7.163
 4233POPC   NC355715  22.377  41.433   5.343
 4233POPC   PO455716  23.017  41.309   5.418
 4233POPC   GL155717  22.949  41.425   5.858
 4233POPC   GL255718  22.596  41.571   5.928
 4233POPC   C1A55719  23.038  41.671   6.251
 4233POPC   D2A55720  22.914  41.577   6.677
 4233POPC   C3A55721  22.787  41.835   7.012
 4233POPC   C4A55722  23.092  41.639   7.251
 4233POPC   C1B55723  22.696  41.299   6.300
 4233POPC   C2B55724  22.597  41.146   6.708
 4233POPC   C3B55725  22.722  41.324   7.070
 4233POPC   C4B55726  22.614  41.548   7.429
 4234POPC   NC355727   4.046   9.373   5.677
 4234POPC   PO455728   3.454   9.739   5.453
 4234POPC   GL155729   3.586   9.561   5.797
 4234POPC   GL255730   3.309   9.416   5.925
 4234POPC   C1A55731   3.752   9.589   6.221
 4234POPC   D2A55732   3.541   9.558   6.608
 4234POPC   C3A55733   3.797   9.571   6.969
 4234POPC   C4A55734   3.773   9.821   7.345
 4234POPC   C1B55735   3.290   9.815   6.177
 4234POPC   C2B55736   3.371  10.071   6.544
 4234POPC   C3B55737   3.422   9.939   6.962
 4234POPC   C4B55738   3.237   9.855   7.357
 4235POPC   NC355739   5.185   6.344   5.645
 4235POPC   PO455740   4.926   5.721   5.491
 4235POPC   GL155741   5.065   5.879   5.839
 4235POPC   GL255742   4.746   6.090   5.834
 4235POPC   C1A55743   5.301   5.739   6.204
 4235POPC   D2A55744   5.231   5.543   6.634
 4235POPC   C3A55745   5.184   5.726   7.066
 4235POPC   C4A55746   5.233   5.637   7.537
 4235POPC   C1B55747   4.818   6.001   6.273
 4235POPC   C2B55748   4.802   6.137   6.698
 4235POPC   C3B55749   4.680   5.948   7.068
 4235POPC   C4B55750   4.882   5.972   7.420
 4236POPC   NC355751  44.291  21.634   5.247
 4236POPC   PO455752  44.694  21.258   5.418
 4236POPC   GL155753  44.550  21.448   5.783
 4236POPC   GL255754  44.593  21.156   5.972
 4236POPC   C1A55755  44.711  21.568   6.211
 4236POPC   D2A55756  44.871  21.356   6.567
 4236POPC   C3A55757  44.905  21.587   6.954
 4236POPC   C4A55758  44.619  21.695   7.298
 4236POPC   C1B55759  44.990  21.023   6.177
 4236POPC   C2B55760   0.060  20.845   6.611
 4236POPC   C3B55761  44.926  21.067   7.000
 4236POPC   C4B55762  44.562  21.199   7.204
 4237POPC   NC355763   7.729  17.016   5.500
 4237POPC   PO455764   7.116  16.778   5.597
 4237POPC   GL155765   7.144  16.909   6.000
 4237POPC   GL255766   7.405  17.127   5.891
 4237POPC   C1A55767   7.390  16.647   6.315
 4237POPC   D2A55768   7.575  16.373   6.642
 4237POPC   C3A55769   7.464  16.513   7.029
 4237POPC   C4A55770   7.169  16.803   7.261
 4237POPC   C1B55771   7.738  17.019   6.201
 4237POPC   C2B55772   7.796  16.898   6.635
 4237POPC   C3B55773   7.608  16.991   7.026
 4237POPC   C4B55774   7.635  16.798   7.457
 4238POPC   NC355775  39.097  25.728   5.428
 4238POPC   PO455776  38.951  26.416   5.491
 4238POPC   GL155777  39.069  26.302   5.879
 4238POPC   GL255778  39.412  26.401   5.958
 4238POPC   C1A55779  39.011  26.230   6.317
 4238POPC   D2A55780  39.127  25.905   6.619
 4238POPC   C3A55781  39.093  26.113   6.993
 4238POPC   C4A55782  38.744  26.096   7.234
 4238POPC   C1B55783  39.510  26.101   6.307
 4238POPC   C2B55784  39.568  26.132   6.771
 4238POPC   C3B55785  39.564  26.071   7.199
 4238POPC   C4B55786  39.534  26.354   7.499
 4239POPC   NC355787  21.057   5.037   5.590
 4239POPC   PO455788  21.674   4.905   5.439
 4239POPC   GL155789  21.491   4.949   5.870
 4239POPC   GL255790  21.376   5.280   5.947
 4239POPC   C1A55791  21.249   4.891   6.271
 4239POPC   D2A55792  21.394   4.807   6.686
 4239POPC   C3A55793  21.509   5.105   7.000
 4239POPC   C4A55794  21.765   5.295   7.328
 4239POPC   C1B55795  21.045   5.355   6.277
 4239POPC   C2B55796  21.058   5.201   6.711
 4239POPC   C3B55797  21.082   5.394   7.110
 4239POPC   C4B55798  21.414   5.668   7.280
 4240POPC   NC355799  19.538  42.002   5.533
 4240POPC   PO455800  19.889  42.471   5.117
 4240POPC   GL155801  19.842  42.459   5.631
 4240POPC   GL255802  19.902  42.162   5.845
 4240POPC   C1A55803  19.675  42.544   6.102
 4240POPC   D2A55804  19.877  42.590   6.559
 4240POPC   C3A55805  19.807  42.443   7.009
 4240POPC   C4A55806  19.912  42.526   7.438
 4240POPC   C1B55807  19.939  42.155   6.288
 4240POPC   C2B55808  19.640  42.141   6.639
 4240POPC   C3B55809  19.709  41.938   7.029
 4240POPC   C4B55810  20.119  42.028   7.183
 4241POPC   NC355811  25.752   8.164   5.131
 4241POPC   PO455812  26.320   8.285   5.591
 4241POPC   GL155813  26.386   8.080   5.938
 4241POPC   GL255814  26.069   8.135   6.056
 4241POPC   C1A55815  26.390   7.912   6.348
 4241POPC   D2A55816  26.075   8.106   6.577
 4241POPC   C3A55817  26.288   8.089   6.925
 4241POPC   C4A55818  26.384   7.827   7.259
 4241POPC   C1B55819  25.724   7.912   6.239
 4241POPC   C2B55820  25.542   7.884   6.648
 4241POPC   C3B55821  25.790   7.986   6.994
 4241POPC   C4B55822  25.760   8.308   7.269
 4242POPC   NC355823  22.363  23.833   5.659
 4242POPC   PO455824  22.941  23.865   5.424
 4242POPC   GL155825  23.036  23.719   5.834
 4242POPC   GL255826  23.209  24.013   5.847
 4242POPC   C1A55827  22.899  23.627   6.260
 4242POPC   D2A55828  22.845  23.836   6.657
 4242POPC   C3A55829  22.888  23.624   7.045
 4242POPC   C4A55830  22.556  23.378   7.187
 4242POPC   C1B55831  22.987  24.167   6.195
 4242POPC   C2B55832  23.162  24.220   6.588
 4242POPC   C3B55833  23.043  24.157   7.029
 4242POPC   C4B55834  23.081  24.017   7.461
 4243POPC   NC355835  40.265  13.355   5.699
 4243POPC   PO455836  39.905  13.830   5.340
 4243POPC   GL155837  39.824  13.695   5.734
 4243POPC   GL255838  40.059  13.842   5.932
 4243POPC   C1A55839  39.681  13.614   6.166
 4243POPC   D2A55840  39.718  13.746   6.593
 4243POPC   C3A55841  40.070  13.696   6.853
 4243POPC   C4A55842  40.167  13.487   7.217
 4243POPC   C1B55843  40.213  13.794   6.360
 4243POPC   C2B55844  40.486  13.974   6.714
 4243POPC   C3B55845  40.321  14.038   7.151
 4243POPC   C4B55846  40.077  13.944   7.513
 4244POPC   NC355847   3.952  43.758   5.359
 4244POPC   PO455848   4.628  44.035   5.379
 4244POPC   GL155849   4.329  44.089   5.759
 4244POPC   GL255850   3.958  44.070   5.784
 4244POPC   C1A55851   4.341  44.163   6.217
 4244POPC   D2A55852   4.596  44.060   6.576
 4244POPC   C3A55853   4.446  44.206   6.964
 4244POPC   C4A55854   4.398  44.016   7.380
 4244POPC   C1B55855   4.010  43.782   6.141
 4244POPC   C2B55856   4.174  43.737   6.540
 4244POPC   C3B55857   4.260  43.726   6.955
 4244POPC   C4B55858   4.042  43.651   7.338
 4245POPC   NC355859   5.578  11.517   5.483
 4245POPC   PO455860   6.091  11.066   5.416
 4245POPC   GL155861   5.925  11.278   5.783
 4245POPC   GL255862   5.592  11.114   5.842
 4245POPC   C1A55863   6.006  11.418   6.203
 4245POPC   D2A55864   5.929  11.273   6.623
 4245POPC   C3A55865   5.884  11.404   7.043
 4245POPC   C4A55866   6.018  11.180   7.428
 4245POPC   C1B55867   5.514  11.220   6.305
 4245POPC   C2B55868   5.428  11.337   6.738
 4245POPC   C3B55869   5.317  11.620   7.101
 4245POPC   C4B55870   5.552  11.445   7.429
 4246POPC   NC355871  16.068   7.962   5.332
 4246POPC   PO455872  15.880   7.284   5.489
 4246POPC   GL155873  16.001   7.361   5.870
 4246POPC   GL255874  15.994   7.715   5.792
 4246POPC   C1A55875  15.882   7.494   6.293
 4246POPC   D2A55876  15.557   7.328   6.570
 4246POPC   C3A55877  15.706   7.196   6.962
 4246POPC   C4A55878  15.892   7.008   7.306
 4246POPC   C1B55879  16.333   7.671   6.092
 4246POPC   C2B55880  16.338   7.862   6.483
 4246POPC   C3B55881  16.135   7.878   6.888
 4246POPC   C4B55882  15.986   7.565   7.145
 4247POPC   NC355883   4.975  41.378   5.265
 4247POPC   PO455884   4.279  41.678   5.289
 4247POPC   GL155885   4.382  41.481   5.715
 4247POPC   GL255886   4.113  41.276   5.859
 4247POPC   C1A55887   4.387  41.594   6.171
 4247POPC   D2A55888   4.440  41.901   6.499
 4247POPC   C3A55889   4.326  41.694   6.888
 4247POPC   C4A55890   4.439  41.498   7.283
 4247POPC   C1B55891   4.019  41.197   6.292
 4247POPC   C2B55892   4.106  41.238   6.731
 4247POPC   C3B55893   4.132  41.086   7.145
 4247POPC   C4B55894   4.129  41.094   7.598
 4248POPC   NC355895  14.041   0.901   5.272
 4248POPC   PO455896  13.457   0.726   5.404
 4248POPC   GL155897  13.591   0.647   5.867
 4248POPC   GL255898  13.767   0.350   5.940
 4248POPC   C1A55899  13.645   0.747   6.340
 4248POPC   D2A55900  13.439   0.749   6.762
 4248POPC   C3A55901  13.728   0.785   7.133
 4248POPC   C4A55902  13.916   0.714   7.546
 4248POPC   C1B55903  13.962   0.343   6.373
 4248POPC   C2B55904  13.797   0.370   6.803
 4248POPC   C3B55905  14.002   0.326   7.207
 4248POPC   C4B55906  13.977   0.217   7.662
 4249POPC   NC355907  23.431   2.757   5.359
 4249POPC   PO455908  23.802   2.209   5.425
 4249POPC   GL155909  23.920   2.100   5.856
 4249POPC   GL255910  23.691   1.836   6.013
 4249POPC   C1A55911  23.943   2.121   6.334
 4249POPC   D2A55912  23.937   1.772   6.590
 4249POPC   C3A55913  24.051   1.804   6.997
 4249POPC   C4A55914  23.908   2.090   7.294
 4249POPC   C1B55915  23.459   1.840   6.423
 4249POPC   C2B55916  23.131   1.862   6.776
 4249POPC   C3B55917  23.103   1.873   7.255
 4249POPC   C4B55918  23.391   1.701   7.595
 4250POPC   NC355919  22.719  19.845   5.525
 4250POPC   PO455920  22.039  19.677   5.438
 4250POPC   GL155921  22.167  19.846   5.781
 4250POPC   GL255922  22.378  19.577   5.825
 4250POPC   C1A55923  22.003  19.922   6.187
 4250POPC   D2A55924  21.768  19.885   6.548
 4250POPC   C3A55925  21.974  19.925   6.949
 4250POPC   C4A55926  21.788  19.943   7.358
 4250POPC   C1B55927  22.494  19.788   6.191
 4250POPC   C2B55928  22.497  19.693   6.622
 4250POPC   C3B55929  22.481  19.893   7.003
 4250POPC   C4B55930  22.275  19.782   7.367
 4251POPC   NC355931  37.414  10.780   5.352
 4251POPC   PO455932  37.947  10.346   5.326
 4251POPC   GL155933  37.692  10.451   5.720
 4251POPC   GL255934  37.941  10.367   5.978
 4251POPC   C1A55935  37.569  10.638   6.164
 4251POPC   D2A55936  37.403  10.528   6.558
 4251POPC   C3A55937  37.664  10.556   6.882
 4251POPC   C4A55938  37.412  10.611   7.262
 4251POPC   C1B55939  37.519  10.133   6.147
 4251POPC   C2B55940  37.392   9.994   6.604
 4251POPC   C3B55941  37.523  10.108   7.051
 4251POPC   C4B55942  37.839  10.325   7.314
 4252POPC   NC355943  23.631   1.786   5.490
 4252POPC   PO455944  23.587   1.233   5.402
 4252POPC   GL155945  23.588   1.363   5.803
 4252POPC   GL255946  23.925   1.434   5.824
 4252POPC   C1A55947  23.475   1.234   6.207
 4252POPC   D2A55948  23.552   1.370   6.611
 4252POPC   C3A55949  23.558   1.113   6.953
 4252POPC   C4A55950  23.861   1.081   7.283
 4252POPC   C1B55951  23.959   1.371   6.292
 4252POPC   C2B55952  24.030   1.319   6.777
 4252POPC   C3B55953  24.261   1.349   7.148
 4252POPC   C4B55954  24.294   1.256   7.581
 4253POPC   NC355955  19.768   3.795   5.451
 4253POPC   PO455956  19.920   3.165   5.418
 4253POPC   GL155957  19.793   3.359   5.783
 4253POPC   GL255958  20.052   3.586   5.851
 4253POPC   C1A55959  19.702   3.383   6.229
 4253POPC   D2A55960  19.929   3.350   6.635
 4253POPC   C3A55961  19.689   3.466   7.024
 4253POPC   C4A55962  19.734   3.641   7.459
 4253POPC   C1B55963  19.985   3.812   6.259
 4253POPC   C2B55964  19.852   3.842   6.694
 4253POPC   C3B55965  20.078   3.774   7.093
 4253POPC   C4B55966  20.197   3.843   7.517
 4254POPC   NC355967  43.607  11.465   5.272
 4254POPC   PO455968  44.070  11.020   5.542
 4254POPC   GL155969  43.823  11.210   5.877
 4254POPC   GL255970  43.681  11.546   5.786
 4254POPC   C1A55971  43.832  11.229   6.330
 4254POPC   D2A55972  43.567  11.085   6.643
 4254POPC   C3A55973  43.732  11.030   7.003
 4254POPC   C4A55974  44.172  10.899   7.011
 4254POPC   C1B55975  43.559  11.662   6.208
 4254POPC   C2B55976  43.692  11.612   6.640
 4254POPC   C3B55977  44.020  11.412   6.877
 4254POPC   C4B55978  43.699  11.505   7.176
 4255POPC   NC355979  31.980  24.719   5.631
 4255POPC   PO455980  32.407  25.159   5.378
 4255POPC   GL155981  32.344  25.079   5.780
 4255POPC   GL255982  32.670  24.948   5.833
 4255POPC   C1A55983  32.139  25.249   6.169
 4255POPC   D2A55984  31.911  25.284   6.576
 4255POPC   C3A55985  32.124  25.462   6.937
 4255POPC   C4A55986  32.203  25.233   7.300
 4255POPC   C1B55987  32.660  25.208   6.199
 4255POPC   C2B55988  32.464  25.193   6.597
 4255POPC   C3B55989  32.616  25.281   6.988
 4255POPC   C4B55990  32.558  25.578   7.315
 4256POPC   NC355991  40.656  37.171   5.380
 4256POPC   PO455992  41.189  36.797   5.480
 4256POPC   GL155993  40.996  37.023   5.854
 4256POPC   GL255994  40.642  37.114   5.884
 4256POPC   C1A55995  40.827  36.826   6.260
 4256POPC   D2A55996  40.809  36.936   6.693
 4256POPC   C3A55997  40.763  36.563   6.965
 4256POPC   C4A55998  40.422  36.444   7.224
 4256POPC   C1B55999  40.609  37.298   6.301
 4256POPC   C2B56000  40.540  37.425   6.720
 4256POPC   C3B56001  40.827  37.319   7.031
 4256POPC   C4B56002  40.735  36.943   7.285
 4257POPC   NC356003  19.345  40.658   5.481
 4257POPC   PO456004  18.899  41.083   5.272
 4257POPC   GL156005  18.952  40.938   5.706
 4257POPC   GL256006  19.273  41.051   5.819
 4257POPC   C1A56007  19.043  40.654   6.083
 4257POPC   D2A56008  18.965  40.742   6.526
 4257POPC   C3A56009  19.000  40.648   6.987
 4257POPC   C4A56010  18.822  40.812   7.404
 4257POPC   C1B56011  19.349  41.023   6.286
 4257POPC   C2B56012  19.325  41.035   6.735
 4257POPC   C3B56013  19.202  41.092   7.144
 4257POPC   C4B56014  19.315  41.324   7.491
 4258POPC   NC356015  20.101  30.373   5.369
 4258POPC   PO456016  19.759  30.929   5.455
 4258POPC   GL156017  19.692  30.762   5.808
 4258POPC   GL256018  19.618  30.448   5.692
 4258POPC   C1A56019  19.731  30.894   6.218
 4258POPC   D2A56020  19.962  30.893   6.555
 4258POPC   C3A56021  19.724  30.963   6.912
 4258POPC   C4A56022  19.985  30.702   7.155
 4258POPC   C1B56023  19.832  30.380   6.114
 4258POPC   C2B56024  19.726  30.420   6.571
 4258POPC   C3B56025  19.608  30.428   7.013
 4258POPC   C4B56026  19.885  30.249   7.386
 4259POPC   NC356027  14.463  25.520   5.368
 4259POPC   PO456028  14.255  24.903   5.538
 4259POPC   GL156029  14.408  25.068   5.882
 4259POPC   GL256030  14.705  25.238   5.757
 4259POPC   C1A56031  14.291  25.217   6.300
 4259POPC   D2A56032  14.241  25.499   6.678
 4259POPC   C3A56033  14.273  25.256   7.055
 4259POPC   C4A56034  14.085  24.866   7.144
 4259POPC   C1B56035  14.794  25.091   6.204
 4259POPC   C2B56036  14.644  25.042   6.642
 4259POPC   C3B56037  14.818  24.996   7.040
 4259POPC   C4B56038  14.616  25.120   7.416
 4260POPC   NC356039  43.836  19.107   5.385
 4260POPC   PO456040  43.650  18.503   5.612
 4260POPC   GL156041  43.931  18.708   5.916
 4260POPC   GL256042  43.995  19.067   5.894
 4260POPC   C1A56043  43.749  18.893   6.316
 4260POPC   D2A56044  43.792  18.937   6.747
 4260POPC   C3A56045  43.596  19.208   7.048
 4260POPC   C4A56046  43.943  19.108   7.220
 4260POPC   C1B56047  43.958  19.358   6.280
 4260POPC   C2B56048  43.952  19.431   6.746
 4260POPC   C3B56049  44.164  19.559   7.139
 4260POPC   C4B56050  44.366  19.508   7.547
 4261POPC   NC356051  11.013  19.593   5.583
 4261POPC   PO456052  11.347  20.106   5.307
 4261POPC   GL156053  11.433  19.885   5.723
 4261POPC   GL256054  11.118  19.974   5.912
 4261POPC   C1A56055  11.469  19.757   6.176
 4261POPC   D2A56056  11.269  20.089   6.434
 4261POPC   C3A56057  11.323  20.053   6.870
 4261POPC   C4A56058  11.504  19.741   7.149
 4261POPC   C1B56059  10.987  19.663   6.243
 4261POPC   C2B56060  11.169  19.603   6.652
 4261POPC   C3B56061  10.994  19.673   7.044
 4261POPC   C4B56062  10.910  20.030   7.222
 4262POPC   NC356063   9.014  24.389   5.478
 4262POPC   PO456064   8.361  24.700   5.326
 4262POPC   GL156065   8.594  24.549   5.745
 4262POPC   GL256066   8.887  24.709   5.918
 4262POPC   C1A56067   8.784  24.234   6.108
 4262POPC   D2A56068   9.061  24.182   6.513
 4262POPC   C3A56069   9.013  24.564   6.813
 4262POPC   C4A56070   8.724  24.640   7.185
 4262POPC   C1B56071   9.227  24.538   6.173
 4262POPC   C2B56072   9.473  24.493   6.558
 4262POPC   C3B56073   9.449  24.362   6.998
 4262POPC   C4B56074   9.443  24.595   7.409
 4263POPC   NC356075   0.084  18.551   5.475
 4263POPC   PO456076   0.764  18.443   5.504
 4263POPC   GL156077   0.558  18.115   5.752
 4263POPC   GL256078   0.344  18.375   5.874
 4263POPC   C1A56079   0.368  17.975   6.161
 4263POPC   D2A56080   0.354  18.223   6.514
 4263POPC   C3A56081   0.495  18.100   6.911
 4263POPC   C4A56082   0.730  18.014   7.257
 4263POPC   C1B56083   0.023  18.508   6.133
 4263POPC   C2B56084  44.981  18.559   6.563
 4263POPC   C3B56085   0.037  18.378   6.994
 4263POPC   C4B56086   0.384  18.420   7.288
 4264POPC   NC356087  11.485   9.494   5.281
 4264POPC   PO456088  11.039   9.850   5.546
 4264POPC   GL156089  11.262   9.668   5.919
 4264POPC   GL256090  11.552   9.459   5.789
 4264POPC   C1A56091  11.269   9.883   6.345
 4264POPC   D2A56092  11.173   9.950   6.799
 4264POPC   C3A56093  11.186   9.541   7.048
 4264POPC   C4A56094  11.229   9.490   7.512
 4264POPC   C1B56095  11.751   9.679   6.134
 4264POPC   C2B56096  11.662   9.618   6.580
 4264POPC   C3B56097  11.616   9.803   6.992
 4264POPC   C4B56098  11.697   9.562   7.349
 4265POPC   NC356099  30.304  20.676   5.330
 4265POPC   PO456100  30.906  20.834   5.492
 4265POPC   GL156101  30.535  20.857   5.756
 4265POPC   GL256102  30.579  20.508   5.789
 4265POPC   C1A56103  30.339  20.790   6.165
 4265POPC   D2A56104  30.515  20.726   6.578
 4265POPC   C3A56105  30.503  20.939   6.979
 4265POPC   C4A56106  30.876  21.038   7.233
 4265POPC   C1B56107  30.851  20.602   6.153
 4265POPC   C2B56108  30.893  20.375   6.543
 4265POPC   C3B56109  30.752  20.455   6.949
 4265POPC   C4B56110  30.918  20.506   7.317
 4266POPC   NC356111  42.159  41.260   5.391
 4266POPC   PO456112  42.577  41.682   5.349
 4266POPC   GL156113  42.379  41.550   5.740
 4266POPC   GL256114  42.642  41.435   5.842
 4266POPC   C1A56115  42.270  41.326   6.164
 4266POPC   D2A56116  42.120  41.524   6.557
 4266POPC   C3A56117  42.202  41.440   6.975
 4266POPC   C4A56118  42.313  41.464   7.414
 4266POPC   C1B56119  42.645  41.716   6.167
 4266POPC   C2B56120  42.435  41.939   6.485
 4266POPC   C3B56121  42.521  41.865   6.883
 4266POPC   C4B56122  42.748  41.895   7.253
 4267POPC   NC356123  16.260   2.402   5.515
 4267POPC   PO456124  15.909   1.905   5.322
 4267POPC   GL156125  16.090   1.956   5.727
 4267POPC   GL256126  16.159   1.630   5.863
 4267POPC   C1A56127  15.937   2.061   6.108
 4267POPC   D2A56128  15.956   2.281   6.456
 4267POPC   C3A56129  15.832   2.204   6.862
 4267POPC   C4A56130  16.097   2.080   7.171
 4267POPC   C1B56131  16.234   1.673   6.304
 4267POPC   C2B56132  16.289   1.847   6.719
 4267POPC   C3B56133  16.390   1.694   7.134
 4267POPC   C4B56134  16.108   1.481   7.406
 4268POPC   NC356135   1.069   6.804   5.405
 4268POPC   PO456136   1.006   6.160   5.583
 4268POPC   GL156137   1.214   6.486   5.814
 4268POPC   GL256138   1.383   6.819   5.845
 4268POPC   C1A56139   1.426   6.433   6.195
 4268POPC   D2A56140   1.329   6.631   6.577
 4268POPC   C3A56141   1.215   6.433   6.982
 4268POPC   C4A56142   1.131   6.350   7.452
 4268POPC   C1B56143   1.276   7.056   6.206
 4268POPC   C2B56144   0.978   7.082   6.537
 4268POPC   C3B56145   1.175   6.959   6.925
 4268POPC   C4B56146   1.233   6.836   7.337
 4269POPC   NC356147  34.844   6.946   5.307
 4269POPC   PO456148  34.528   7.647   5.334
 4269POPC   GL156149  34.452   7.565   5.753
 4269POPC   GL256150  34.722   7.768   5.879
 4269POPC   C1A56151  34.627   7.314   6.119
 4269POPC   D2A56152  34.950   7.393   6.439
 4269POPC   C3A56153  34.746   7.271   6.824
 4269POPC   C4A56154  34.675   7.159   7.231
 4269POPC   C1B56155  34.678   7.866   6.312
 4269POPC   C2B56156  34.779   7.780   6.735
 4269POPC   C3B56157  34.785   7.659   7.158
 4269POPC   C4B56158  34.753   7.909   7.519
 4270POPC   NC356159  41.777  22.417   5.556
 4270POPC   PO456160  41.593  21.740   5.502
 4270POPC   GL156161  41.828  21.989   5.861
 4270POPC   GL256162  41.573  22.251   5.985
 4270POPC   C1A56163  41.870  22.032   6.347
 4270POPC   D2A56164  41.756  22.208   6.773
 4270POPC   C3A56165  41.698  21.948   7.144
 4270POPC   C4A56166  41.316  21.727   7.291
 4270POPC   C1B56167  41.706  22.531   6.323
 4270POPC   C2B56168  41.618  22.704   6.742
 4270POPC   C3B56169  41.781  22.589   7.173
 4270POPC   C4B56170  41.926  22.264   7.483
 4271POPC   NC356171  37.715  16.318   5.097
 4271POPC   PO456172  37.353  16.821   5.426
 4271POPC   GL156173  37.563  16.870   5.883
 4271POPC   GL256174  37.516  16.566   6.106
 4271POPC   C1A56175  37.674  17.029   6.326
 4271POPC   D2A56176  37.700  17.247   6.760
 4271POPC   C3A56177  37.601  16.952   7.110
 4271POPC   C4A56178  37.459  16.495   7.101
 4271POPC   C1B56179  37.964  16.584   6.161
 4271POPC   C2B56180  38.189  16.596   6.556
 4271POPC   C3B56181  37.951  16.565   6.931
 4271POPC   C4B56182  37.982  16.476   7.360
 4272POPC   NC356183  29.796  27.724   5.459
 4272POPC   PO456184  30.138  27.196   5.255
 4272POPC   GL156185  30.134  27.389   5.712
 4272POPC   GL256186  29.805  27.422   5.856
 4272POPC   C1A56187  30.204  27.474   6.169
 4272POPC   D2A56188  29.889  27.391   6.505
 4272POPC   C3A56189  30.053  27.316   6.892
 4272POPC   C4A56190  30.211  27.489   7.253
 4272POPC   C1B56191  29.783  27.759   6.170
 4272POPC   C2B56192  29.734  27.897   6.577
 4272POPC   C3B56193  29.902  27.946   6.984
 4272POPC   C4B56194  29.673  28.053   7.341
 4273POPC   NC356195  18.628  40.045   5.272
 4273POPC   PO456196  18.064  39.741   5.465
 4273POPC   GL156197  18.093  39.982   5.782
 4273POPC   GL256198  18.414  40.139   5.772
 4273POPC   C1A56199  18.237  39.806   6.163
 4273POPC   D2A56200  18.067  39.626   6.519
 4273POPC   C3A56201  18.274  39.671   6.901
 4273POPC   C4A56202  18.193  39.522   7.293
 4273POPC   C1B56203  18.166  40.301   6.162
 4273POPC   C2B56204  18.253  40.129   6.582
 4273POPC   C3B56205  18.215  40.180   7.038
 4273POPC   C4B56206  18.419  39.981   7.380
 4274POPC   NC356207  14.118   5.032   5.581
 4274POPC   PO456208  14.536   5.555   5.366
 4274POPC   GL156209  14.550   5.290   5.780
 4274POPC   GL256210  14.601   4.920   5.759
 4274POPC   C1A56211  14.538   5.257   6.254
 4274POPC   D2A56212  14.526   5.608   6.596
 4274POPC   C3A56213  14.367   5.441   6.989
 4274POPC   C4A56214  14.363   5.204   7.371
 4274POPC   C1B56215  14.536   4.698   6.171
 4274POPC   C2B56216  14.713   4.777   6.597
 4274POPC   C3B56217  14.521   4.913   6.978
 4274POPC   C4B56218  14.103   4.777   7.146
 4275POPC   NC356219  22.253  40.395   5.327
 4275POPC   PO456220  22.045  41.083   5.356
 4275POPC   GL156221  22.141  40.784   5.700
 4275POPC   GL256222  21.885  40.533   5.714
 4275POPC   C1A56223  22.163  40.657   6.151
 4275POPC   D2A56224  22.240  40.815   6.559
 4275POPC   C3A56225  22.298  40.677   6.988
 4275POPC   C4A56226  22.422  40.989   7.270
 4275POPC   C1B56227  21.665  40.506   6.111
 4275POPC   C2B56228  21.752  40.692   6.514
 4275POPC   C3B56229  21.802  40.540   6.961
 4275POPC   C4B56230  21.933  40.614   7.407
 4276POPC   NC356231  38.167  36.077   5.443
 4276POPC   PO456232  38.781  36.328   5.281
 4276POPC   GL156233  38.601  36.280   5.694
 4276POPC   GL256234  38.340  36.412   5.861
 4276POPC   C1A56235  38.683  36.229   6.163
 4276POPC   D2A56236  38.402  36.317   6.483
 4276POPC   C3A56237  38.486  36.082   6.818
 4276POPC   C4A56238  38.667  36.164   7.196
 4276POPC   C1B56239  38.219  36.021   6.094
 4276POPC   C2B56240  37.999  35.961   6.470
 4276POPC   C3B56241  37.973  36.194   6.833
 4276POPC   C4B56242  38.160  36.045   7.201
 4277POPC   NC356243  19.131   6.345   5.364
 4277POPC   PO456244  18.974   6.939   5.538
 4277POPC   GL156245  18.894   6.530   5.796
 4277POPC   GL256246  19.237   6.443   5.860
 4277POPC   C1A56247  18.839   6.317   6.223
 4277POPC   D2A56248  19.054   6.344   6.667
 4277POPC   C3A56249  18.856   6.494   7.063
 4277POPC   C4A56250  18.615   6.273   7.368
 4277POPC   C1B56251  19.176   6.699   6.239
 4277POPC   C2B56252  19.052   6.877   6.650
 4277POPC   C3B56253  19.256   6.798   7.033
 4277POPC   C4B56254  19.341   6.344   7.129
 4278POPC   NC356255  43.606  39.752   5.029
 4278POPC   PO456256  43.856  40.172   5.440
 4278POPC   GL156257  43.925  40.029   5.838
 4278POPC   GL256258  44.147  39.781   5.832
 4278POPC   C1A56259  43.722  40.060   6.231
 4278POPC   D2A56260  43.479  39.894   6.537
 4278POPC   C3A56261  43.617  40.102   6.918
 4278POPC   C4A56262  43.621  39.950   7.317
 4278POPC   C1B56263  44.225  39.999   6.250
 4278POPC   C2B56264  44.067  40.136   6.660
 4278POPC   C3B56265  44.104  39.953   7.098
 4278POPC   C4B56266  44.085  40.015   7.562
 4279POPC   NC356267  21.715  15.389   5.361
 4279POPC   PO456268  22.355  15.074   5.382
 4279POPC   GL156269  22.324  15.333   5.746
 4279POPC   GL256270  22.607  15.583   5.796
 4279POPC   C1A56271  22.134  15.321   6.179
 4279POPC   D2A56272  22.022  15.422   6.632
 4279POPC   C3A56273  22.186  15.136   6.959
 4279POPC   C4A56274  21.967  14.798   7.155
 4279POPC   C1B56275  22.530  15.650   6.241
 4279POPC   C2B56276  22.424  15.736   6.688
 4279POPC   C3B56277  22.504  15.524   7.093
 4279POPC   C4B56278  22.487  15.512   7.556
 4280POPC   NC356279  23.180  15.225   5.000
 4280POPC   PO456280  23.901  15.129   5.352
 4280POPC   GL156281  23.762  15.092   5.796
 4280POPC   GL256282  23.524  14.856   5.866
 4280POPC   C1A56283  23.557  15.225   6.216
 4280POPC   D2A56284  23.676  15.072   6.642
 4280POPC   C3A56285  23.558  15.324   7.005
 4280POPC   C4A56286  23.679  15.273   7.492
 4280POPC   C1B56287  23.802  14.704   6.217
 4280POPC   C2B56288  23.962  14.520   6.611
 4280POPC   C3B56289  23.984  14.776   6.970
 4280POPC   C4B56290  23.626  14.873   7.199
 4281POPC   NC356291   7.783  43.017   5.422
 4281POPC   PO456292   7.198  43.386   5.478
 4281POPC   GL156293   7.402  43.109   5.802
 4281POPC   GL256294   7.621  42.805   5.871
 4281POPC   C1A56295   7.534  43.159   6.238
 4281POPC   D2A56296   7.647  43.049   6.652
 4281POPC   C3A56297   7.375  43.175   6.962
 4281POPC   C4A56298   7.278  43.096   7.364
 4281POPC   C1B56299   7.591  42.645   6.312
 4281POPC   C2B56300   7.768  42.539   6.706
 4281POPC   C3B56301   7.590  42.716   7.058
 4281POPC   C4B56302   7.760  42.999   7.328
 4282POPC   NC356303   8.915  34.061   5.505
 4282POPC   PO456304   9.192  33.503   5.355
 4282POPC   GL156305   9.232  33.776   5.749
 4282POPC   GL256306   8.947  33.783   5.966
 4282POPC   C1A56307   9.321  34.078   6.129
 4282POPC   D2A56308   9.237  34.167   6.584
 4282POPC   C3A56309   9.145  33.932   6.967
 4282POPC   C4A56310   8.938  34.148   7.332
 4282POPC   C1B56311   8.769  33.473   6.229
 4282POPC   C2B56312   8.686  33.249   6.568
 4282POPC   C3B56313   8.553  33.421   6.900
 4282POPC   C4B56314   8.666  33.769   7.120
 4283POPC   NC356315  11.261  36.522   5.491
 4283POPC   PO456316  11.355  37.181   5.439
 4283POPC   GL156317  11.416  36.939   5.797
 4283POPC   GL256318  11.067  36.976   5.851
 4283POPC   C1A56319  11.329  36.739   6.216
 4283POPC   D2A56320  11.173  36.626   6.608
 4283POPC   C3A56321  11.406  36.712   6.971
 4283POPC   C4A56322  11.566  37.073   7.159
 4283POPC   C1B56323  10.828  37.102   6.220
 4283POPC   C2B56324  10.602  37.173   6.613
 4283POPC   C3B56325  10.705  36.982   7.013
 4283POPC   C4B56326  11.055  36.945   7.248
 4284POPC   NC356327  24.161  23.187   5.490
 4284POPC   PO456328  24.494  22.637   5.401
 4284POPC   GL156329  24.439  22.841   5.811
 4284POPC   GL256330  24.091  22.784   5.812
 4284POPC   C1A56331  24.639  22.929   6.238
 4284POPC   D2A56332  24.892  22.785   6.592
 4284POPC   C3A56333  24.623  22.688   6.941
 4284POPC   C4A56334  24.499  22.882   7.349
 4284POPC   C1B56335  24.115  22.910   6.236
 4284POPC   C2B56336  24.231  22.791   6.603
 4284POPC   C3B56337  24.174  22.936   6.975
 4284POPC   C4B56338  24.194  23.300   7.190
 4285POPC   NC356339   5.212   1.729   5.481
 4285POPC   PO456340   5.180   2.440   5.467
 4285POPC   GL156341   5.065   2.169   5.787
 4285POPC   GL256342   4.801   2.389   5.833
 4285POPC   C1A56343   5.160   1.973   6.202
 4285POPC   D2A56344   5.306   2.021   6.643
 4285POPC   C3A56345   5.199   1.810   7.021
 4285POPC   C4A56346   5.297   2.009   7.428
 4285POPC   C1B56347   4.687   2.216   6.236
 4285POPC   C2B56348   4.842   2.286   6.650
 4285POPC   C3B56349   5.016   2.295   7.071
 4285POPC   C4B56350   4.890   2.286   7.521
 4286POPC   NC356351  20.958   2.465   5.418
 4286POPC   PO456352  20.647   1.894   5.446
 4286POPC   GL156353  20.445   1.912   5.816
 4286POPC   GL256354  20.414   1.574   5.815
 4286POPC   C1A56355  20.470   2.093   6.221
 4286POPC   D2A56356  20.686   2.022   6.617
 4286POPC   C3A56357  20.493   2.000   7.042
 4286POPC   C4A56358  20.575   2.197   7.511
 4286POPC   C1B56359  20.602   1.593   6.241
 4286POPC   C2B56360  20.394   1.521   6.659
 4286POPC   C3B56361  20.390   1.498   7.106
 4286POPC   C4B56362  20.760   1.690   7.339
 4287POPC   NC356363   1.298   2.035   5.414
 4287POPC   PO456364   0.730   1.686   5.230
 4287POPC   GL156365   0.877   1.806   5.744
 4287POPC   GL256366   1.285   1.799   5.871
 4287POPC   C1A56367   0.958   1.923   6.224
 4287POPC   D2A56368   1.117   1.751   6.622
 4287POPC   C3A56369   1.000   1.998   6.999
 4287POPC   C4A56370   1.015   1.783   7.391
 4287POPC   C1B56371   1.328   2.225   6.062
 4287POPC   C2B56372   1.282   2.248   6.513
 4287POPC   C3B56373   1.484   2.042   6.858
 4287POPC   C4B56374   1.440   2.027   7.309
 4288POPC   NC356375  28.637   2.731   5.461
 4288POPC   PO456376  28.064   2.946   5.348
 4288POPC   GL156377  28.213   2.790   5.781
 4288POPC   GL256378  28.559   2.905   5.945
 4288POPC   C1A56379  28.149   2.667   6.228
 4288POPC   D2A56380  28.361   2.454   6.585
 4288POPC   C3A56381  28.487   2.708   6.905
 4288POPC   C4A56382  28.513   2.859   7.306
 4288POPC   C1B56383  28.537   2.957   6.410
 4288POPC   C2B56384  28.144   3.020   6.618
 4288POPC   C3B56385  28.000   2.941   7.000
 4288POPC   C4B56386  28.038   2.986   7.438
 4289POPC   NC356387  31.335  20.738   5.368
 4289POPC   PO456388  31.992  20.692   5.385
 4289POPC   GL156389  31.621  20.516   5.730
 4289POPC   GL256390  31.192  20.444   5.762
 4289POPC   C1A56391  31.451  20.685   6.130
 4289POPC   D2A56392  31.238  20.764   6.510
 4289POPC   C3A56393  31.505  20.687   6.860
 4289POPC   C4A56394  31.322  20.794   7.226
 4289POPC   C1B56395  31.235  20.206   6.157
 4289POPC   C2B56396  31.393  20.266   6.562
 4289POPC   C3B56397  31.234  20.260   6.974
 4289POPC   C4B56398  31.443  20.321   7.372
 4290POPC   NC356399  44.893  12.049   5.211
 4290POPC   PO456400  44.361  12.474   5.418
 4290POPC   GL156401  44.432  12.169   5.706
 4290POPC   GL256402  44.791  12.186   5.710
 4290POPC   C1A56403  44.484  12.043   6.140
 4290POPC   D2A56404  44.303  12.183   6.514
 4290POPC   C3A56405  44.568  12.176   6.925
 4290POPC   C4A56406  44.877  11.916   7.200
 4290POPC   C1B56407  44.910  12.343   6.130
 4290POPC   C2B56408   0.006  12.102   6.519
 4290POPC   C3B56409   0.121  12.252   6.932
 4290POPC   C4B56410   0.315  12.193   7.368
 4291POPC   NC356411  37.370  31.478   5.291
 4291POPC   PO456412  37.923  31.673   5.601
 4291POPC   GL156413  37.596  31.485   5.759
 4291POPC   GL256414  37.795  31.248   5.946
 4291POPC   C1A56415  37.410  31.487   6.156
 4291POPC   D2A56416  37.618  31.215   6.487
 4291POPC   C3A56417  37.526  31.321   6.926
 4291POPC   C4A56418  37.329  31.178   7.289
 4291POPC   C1B56419  37.943  31.545   6.256
 4291POPC   C2B56420  38.139  31.526   6.652
 4291POPC   C3B56421  38.041  31.417   7.067
 4291POPC   C4B56422  38.061  31.662   7.439
 4292POPC   NC356423   8.915  42.005   5.317
 4292POPC   PO456424   9.193  42.655   5.336
 4292POPC   GL156425   8.961  42.426   5.665
 4292POPC   GL256426   8.683  42.665   5.706
 4292POPC   C1A56427   8.893  42.269   6.108
 4292POPC   D2A56428   9.022  42.082   6.541
 4292POPC   C3A56429   8.879  42.256   6.945
 4292POPC   C4A56430   9.091  42.201   7.363
 4292POPC   C1B56431   8.941  42.771   6.094
 4292POPC   C2B56432   8.930  42.600   6.528
 4292POPC   C3B56433   9.143  42.760   6.909
 4292POPC   C4B56434   9.260  42.690   7.330
 4293POPC   NC356435  30.521   3.145   5.397
 4293POPC   PO456436  30.919   3.587   5.071
 4293POPC   GL156437  30.887   3.464   5.618
 4293POPC   GL256438  30.685   3.690   5.864
 4293POPC   C1A56439  30.924   3.328   6.113
 4293POPC   D2A56440  30.852   3.523   6.568
 4293POPC   C3A56441  30.977   3.342   7.033
 4293POPC   C4A56442  30.869   3.401   7.531
 4293POPC   C1B56443  30.407   3.391   6.117
 4293POPC   C2B56444  30.378   3.270   6.567
 4293POPC   C3B56445  30.474   3.390   6.998
 4293POPC   C4B56446  30.336   3.316   7.420
 4294POPC   NC356447  16.782  42.419   5.222
 4294POPC   PO456448  16.451  42.828   5.481
 4294POPC   GL156449  16.860  42.655   5.700
 4294POPC   GL256450  16.891  42.285   5.755
 4294POPC   C1A56451  16.955  42.569   6.184
 4294POPC   D2A56452  16.757  42.467   6.614
 4294POPC   C3A56453  16.854  42.692   7.015
 4294POPC   C4A56454  16.716  42.761   7.445
 4294POPC   C1B56455  16.900  42.053   6.191
 4294POPC   C2B56456  16.874  41.963   6.653
 4294POPC   C3B56457  16.788  42.098   7.104
 4294POPC   C4B56458  16.672  41.817   7.480
 4295POPC   NC356459  42.716  16.657   5.607
 4295POPC   PO456460  43.110  16.148   5.371
 4295POPC   GL156461  43.149  16.430   5.776
 4295POPC   GL256462  43.276  16.771   5.811
 4295POPC   C1A56463  43.009  16.641   6.217
 4295POPC   D2A56464  43.122  16.871   6.620
 4295POPC   C3A56465  42.843  16.754   6.977
 4295POPC   C4A56466  42.800  16.736   7.453
 4295POPC   C1B56467  43.478  16.845   6.222
 4295POPC   C2B56468  43.611  16.669   6.616
 4295POPC   C3B56469  43.431  16.693   7.008
 4295POPC   C4B56470  43.179  17.029   7.240
 4296POPC   NC356471  16.818   3.804   5.463
 4296POPC   PO456472  16.828   4.499   5.299
 4296POPC   GL156473  16.881   4.389   5.744
 4296POPC   GL256474  17.118   4.100   5.808
 4296POPC   C1A56475  17.044   4.489   6.166
 4296POPC   D2A56476  16.799   4.389   6.538
 4296POPC   C3A56477  16.812   4.615   6.920
 4296POPC   C4A56478  16.609   4.490   7.301
 4296POPC   C1B56479  16.782   4.031   6.130
 4296POPC   C2B56480  16.616   3.906   6.541
 4296POPC   C3B56481  16.700   4.084   6.989
 4296POPC   C4B56482  16.693   4.019   7.475
 4297POPC   NC356483  10.971  23.590   5.558
 4297POPC   PO456484  11.464  24.099   5.431
 4297POPC   GL156485  11.389  23.802   5.756
 4297POPC   GL256486  11.608  23.522   5.692
 4297POPC   C1A56487  11.195  23.683   6.175
 4297POPC   D2A56488  11.107  23.899   6.565
 4297POPC   C3A56489  11.105  23.638   6.923
 4297POPC   C4A56490  11.131  23.830   7.297
 4297POPC   C1B56491  11.705  23.667   6.128
 4297POPC   C2B56492  11.590  23.603   6.558
 4297POPC   C3B56493  11.733  23.508   6.959
 4297POPC   C4B56494  11.503  23.498   7.319
 4298POPC   NC356495  34.714  39.109   5.367
 4298POPC   PO456496  34.017  39.116   5.432
 4298POPC   GL156497  34.370  39.006   5.767
 4298POPC   GL256498  34.761  38.983   5.840
 4298POPC   C1A56499  34.453  39.265   6.146
 4298POPC   D2A56500  34.582  39.499   6.508
 4298POPC   C3A56501  34.424  39.332   6.923
 4298POPC   C4A56502  34.593  39.454   7.343
 4298POPC   C1B56503  34.613  38.782   6.197
 4298POPC   C2B56504  34.647  38.984   6.566
 4298POPC   C3B56505  34.652  38.833   6.956
 4298POPC   C4B56506  34.463  38.972   7.317
 4299POPC   NC356507  44.175  22.409   5.439
 4299POPC   PO456508  44.848  22.346   5.278
 4299POPC   GL156509  44.703  22.194   5.684
 4299POPC   GL256510  44.394  21.951   5.697
 4299POPC   C1A56511  44.909  22.023   6.059
 4299POPC   D2A56512  44.946  21.960   6.498
 4299POPC   C3A56513  44.706  22.235   6.732
 4299POPC   C4A56514  44.846  22.086   7.094
 4299POPC   C1B56515  44.276  21.815   6.125
 4299POPC   C2B56516  44.424  21.823   6.574
 4299POPC   C3B56517  44.330  22.007   7.002
 4299POPC   C4B56518  44.156  22.333   7.316
 4300POPC   NC356519  37.066   9.139   5.439
 4300POPC   PO456520  36.668   8.645   5.575
 4300POPC   GL156521  36.898   8.647   5.920
 4300POPC   GL256522  37.185   8.833   5.864
 4300POPC   C1A56523  36.873   8.910   6.295
 4300POPC   D2A56524  36.684   9.167   6.611
 4300POPC   C3A56525  36.684   8.991   7.040
 4300POPC   C4A56526  36.932   8.659   7.198
 4300POPC   C1B56527  37.367   9.053   6.250
 4300POPC   C2B56528  37.368   9.317   6.629
 4300POPC   C3B56529  37.151   9.228   6.996
 4300POPC   C4B56530  37.372   8.953   7.236
 4301POPC   NC356531   9.112  20.171   5.458
 4301POPC   PO456532   8.601  19.686   5.270
 4301POPC   GL156533   8.674  19.705   5.766
 4301POPC   GL256534   9.019  19.803   5.833
 4301POPC   C1A56535   8.719  19.588   6.231
 4301POPC   D2A56536   8.856  19.808   6.611
 4301POPC   C3A56537   8.699  19.789   7.047
 4301POPC   C4A56538   8.796  19.658   7.456
 4301POPC   C1B56539   9.239  19.980   6.196
 4301POPC   C2B56540   9.347  20.115   6.623
 4301POPC   C3B56541   9.192  19.991   7.025
 4301POPC   C4B56542   9.288  19.805   7.421
 4302POPC   NC356543  21.425   0.740   5.333
 4302POPC   PO456544  21.289   1.263   5.490
 4302POPC   GL156545  21.341   1.135   5.955
 4302POPC   GL256546  21.090   1.324   6.147
 4302POPC   C1A56547  21.217   0.886   6.356
 4302POPC   D2A56548  21.303   0.835   6.802
 4302POPC   C3A56549  21.449   1.207   7.039
 4302POPC   C4A56550  21.838   1.270   7.240
 4302POPC   C1B56551  21.395   1.328   6.523
 4302POPC   C2B56552  21.779   1.496   6.751
 4302POPC   C3B56553  21.615   1.708   7.083
 4302POPC   C4B56554  21.279   1.703   7.352
 4303POPC   NC356555  21.101  38.021   5.377
 4303POPC   PO456556  21.121  38.763   5.425
 4303POPC   GL156557  21.380  38.444   5.696
 4303POPC   GL256558  21.217  38.169   5.888
 4303POPC   C1A56559  21.640  38.355   6.095
 4303POPC   D2A56560  21.678  38.573   6.505
 4303POPC   C3A56561  21.453  38.442   6.872
 4303POPC   C4A56562  21.505  38.635   7.268
 4303POPC   C1B56563  21.182  38.440   6.296
 4303POPC   C2B56564  20.893  38.446   6.644
 4303POPC   C3B56565  20.971  38.432   7.091
 4303POPC   C4B56566  21.204  38.130   7.300
 4304POPC   NC356567  11.668  12.821   5.463
 4304POPC   PO456568  11.014  12.563   5.365
 4304POPC   GL156569  10.978  12.676   5.810
 4304POPC   GL256570  11.152  13.004   5.827
 4304POPC   C1A56571  10.988  12.741   6.281
 4304POPC   D2A56572  11.141  13.066   6.593
 4304POPC   C3A56573  11.060  12.968   7.038
 4304POPC   C4A56574  11.062  12.505   7.105
 4304POPC   C1B56575  11.449  12.718   6.068
 4304POPC   C2B56576  11.537  12.702   6.495
 4304POPC   C3B56577  11.577  12.902   6.882
 4304POPC   C4B56578  11.474  12.799   7.277
 4305POPC   NC356579  12.363  14.583   5.498
 4305POPC   PO456580  11.795  14.270   5.425
 4305POPC   GL156581  12.023  14.209   5.824
 4305POPC   GL256582  12.352  14.080   5.803
 4305POPC   C1A56583  12.132  14.452   6.221
 4305POPC   D2A56584  11.991  14.616   6.639
 4305POPC   C3A56585  12.214  14.523   7.046
 4305POPC   C4A56586  12.166  14.390   7.473
 4305POPC   C1B56587  12.346  13.992   6.244
 4305POPC   C2B56588  12.289  14.165   6.677
 4305POPC   C3B56589  12.268  14.024   7.122
 4305POPC   C4B56590  12.330  13.916   7.595
 4306POPC   NC356591  12.466  39.509   5.329
 4306POPC   PO456592  12.249  38.883   5.229
 4306POPC   GL156593  12.170  39.104   5.646
 4306POPC   GL256594  11.850  39.119   5.847
 4306POPC   C1A56595  12.306  39.305   6.032
 4306POPC   D2A56596  12.342  39.361   6.492
 4306POPC   C3A56597  12.031  39.287   6.826
 4306POPC   C4A56598  12.130  39.062   7.184
 4306POPC   C1B56599  11.897  39.148   6.319
 4306POPC   C2B56600  11.678  38.927   6.651
 4306POPC   C3B56601  11.584  39.072   7.065
 4306POPC   C4B56602  11.731  38.965   7.483
 4307POPC   NC356603   9.327   8.395   5.379
 4307POPC   PO456604   8.730   8.001   5.355
 4307POPC   GL156605   8.884   7.909   5.760
 4307POPC   GL256606   9.038   8.235   5.780
 4307POPC   C1A56607   8.785   8.012   6.187
 4307POPC   D2A56608   8.871   8.266   6.531
 4307POPC   C3A56609   8.867   8.022   6.883
 4307POPC   C4A56610   8.790   8.135   7.291
 4307POPC   C1B56611   9.283   8.133   6.154
 4307POPC   C2B56612   9.380   8.318   6.543
 4307POPC   C3B56613   9.357   8.198   6.943
 4307POPC   C4B56614   9.316   8.362   7.351
 4308POPC   NC356615  38.082  14.881   5.598
 4308POPC   PO456616  37.531  15.255   5.491
 4308POPC   GL156617  37.724  15.161   5.856
 4308POPC   GL256618  37.629  14.846   5.854
 4308POPC   C1A56619  37.546  15.141   6.314
 4308POPC   D2A56620  37.238  15.182   6.691
 4308POPC   C3A56621  37.394  15.148   7.151
 4308POPC   C4A56622  37.736  15.353   7.330
 4308POPC   C1B56623  37.904  14.773   6.210
 4308POPC   C2B56624  38.150  14.918   6.542
 4308POPC   C3B56625  37.980  14.949   6.938
 4308POPC   C4B56626  38.096  15.026   7.356
 4309POPC   NC356627  25.941   9.983   5.355
 4309POPC   PO456628  25.479   9.522   5.408
 4309POPC   GL156629  25.845   9.607   5.749
 4309POPC   GL256630  26.122   9.874   5.803
 4309POPC   C1A56631  26.040   9.538   6.168
 4309POPC   D2A56632  25.916   9.376   6.553
 4309POPC   C3A56633  25.996   9.566   6.945
 4309POPC   C4A56634  25.873   9.809   7.301
 4309POPC   C1B56635  26.379   9.908   6.225
 4309POPC   C2B56636  26.155  10.045   6.601
 4309POPC   C3B56637  26.198  10.141   7.031
 4309POPC   C4B56638  26.368   9.798   7.201
 4310POPC   NC356639  35.836   1.822   5.478
 4310POPC   PO456640  36.149   2.336   5.276
 4310POPC   GL156641  36.154   2.203   5.687
 4310POPC   GL256642  36.299   1.883   5.721
 4310POPC   C1A56643  35.910   2.100   6.068
 4310POPC   D2A56644  35.949   2.188   6.506
 4310POPC   C3A56645  36.041   1.804   6.736
 4310POPC   C4A56646  36.274   1.730   7.141
 4310POPC   C1B56647  36.434   2.102   6.113
 4310POPC   C2B56648  36.522   1.994   6.530
 4310POPC   C3B56649  36.354   2.169   6.900
 4310POPC   C4B56650  36.491   2.215   7.290
 4311POPC   NC356651  22.232  17.388   5.206
 4311POPC   PO456652  22.911  17.563   5.396
 4311POPC   GL156653  22.809  17.413   5.777
 4311POPC   GL256654  23.110  17.251   5.826
 4311POPC   C1A56655  22.617  17.397   6.193
 4311POPC   D2A56656  22.383  17.506   6.562
 4311POPC   C3A56657  22.665  17.432   6.880
 4311POPC   C4A56658  22.821  17.587   7.263
 4311POPC   C1B56659  23.081  17.623   6.143
 4311POPC   C2B56660  23.113  17.497   6.589
 4311POPC   C3B56661  23.163  17.306   6.999
 4311POPC   C4B56662  23.283  17.401   7.433
 4312POPC   NC356663  18.080   4.716   5.454
 4312POPC   PO456664  18.481   4.140   5.513
 4312POPC   GL156665  18.236   4.203   5.834
 4312POPC   GL256666  18.296   4.560   5.903
 4312POPC   C1A56667  18.435   4.095   6.209
 4312POPC   D2A56668  18.611   4.092   6.598
 4312POPC   C3A56669  18.324   4.336   6.790
 4312POPC   C4A56670  18.332   4.379   7.197
 4312POPC   C1B56671  18.365   4.639   6.339
 4312POPC   C2B56672  18.037   4.734   6.615
 4312POPC   C3B56673  17.945   4.714   7.041
 4312POPC   C4B56674  18.015   4.654   7.480
 4313POPC   NC356675  37.579  19.182   5.447
 4313POPC   PO456676  37.620  18.536   5.387
 4313POPC   GL156677  37.330  18.863   5.743
 4313POPC   GL256678  37.375  19.293   5.883
 4313POPC   C1A56679  37.223  18.947   6.199
 4313POPC   D2A56680  37.448  18.950   6.589
 4313POPC   C3A56681  37.543  18.831   7.003
 4313POPC   C4A56682  37.687  18.992   7.430
 4313POPC   C1B56683  37.469  19.421   6.347
 4313POPC   C2B56684  37.466  19.427   6.840
 4313POPC   C3B56685  37.761  19.454   7.222
 4313POPC   C4B56686  37.770  19.455   7.697
 4314POPC   NC356687  34.868   2.142   5.685
 4314POPC   PO456688  35.426   2.016   5.367
 4314POPC   GL156689  35.419   1.917   5.790
 4314POPC   GL256690  35.145   1.735   5.886
 4314POPC   C1A56691  35.395   2.064   6.219
 4314POPC   D2A56692  35.328   1.961   6.640
 4314POPC   C3A56693  35.613   2.138   6.894
 4314POPC   C4A56694  35.777   1.870   7.160
 4314POPC   C1B56695  34.925   1.830   6.285
 4314POPC   C2B56696  34.893   2.221   6.552
 4314POPC   C3B56697  35.078   2.357   6.944
 4314POPC   C4B56698  35.225   2.016   7.198
 4315POPC   NC356699  13.406  35.241   5.424
 4315POPC   PO456700  13.884  35.721   5.451
 4315POPC   GL156701  13.670  35.480   5.814
 4315POPC   GL256702  13.655  35.093   5.854
 4315POPC   C1A56703  13.550  35.414   6.258
 4315POPC   D2A56704  13.323  35.302   6.611
 4315POPC   C3A56705  13.475  35.401   6.987
 4315POPC   C4A56706  13.545  35.259   7.358
 4315POPC   C1B56707  13.749  34.921   6.279
 4315POPC   C2B56708  13.787  35.110   6.703
 4315POPC   C3B56709  13.995  35.303   7.082
 4315POPC   C4B56710  14.276  35.639   7.306
 4316POPC   NC356711  28.237  16.659   5.369
 4316POPC   PO456712  28.832  16.997   5.376
 4316POPC   GL156713  28.571  16.931   5.731
 4316POPC   GL256714  28.539  16.587   5.794
 4316POPC   C1A56715  28.407  16.892   6.176
 4316POPC   D2A56716  28.542  16.692   6.550
 4316POPC   C3A56717  28.355  16.789   6.906
 4316POPC   C4A56718  28.502  16.969   7.299
 4316POPC   C1B56719  28.344  16.391   6.169
 4316POPC   C2B56720  28.347  16.222   6.581
 4316POPC   C3B56721  28.566  16.214   6.964
 4316POPC   C4B56722  28.412  16.451   7.275
 4317POPC   NC356723   3.341  39.458   5.142
 4317POPC   PO456724   3.499  40.080   5.394
 4317POPC   GL156725   3.687  40.157   5.776
 4317POPC   GL256726   4.026  40.295   5.719
 4317POPC   C1A56727   3.554  39.985   6.162
 4317POPC   D2A56728   3.716  39.899   6.559
 4317POPC   C3A56729   3.462  39.837   6.925
 4317POPC   C4A56730   3.402  39.591   7.292
 4317POPC   C1B56731   4.042  40.159   6.167
 4317POPC   C2B56732   4.024  40.286   6.602
 4317POPC   C3B56733   3.920  40.114   7.025
 4317POPC   C4B56734   3.754  40.319   7.400
 4318POPC   NC356735  12.961  28.202   5.546
 4318POPC   PO456736  12.608  28.600   5.082
 4318POPC   GL156737  12.598  28.640   5.579
 4318POPC   GL256738  12.936  28.674   5.745
 4318POPC   C1A56739  12.500  28.677   6.054
 4318POPC   D2A56740  12.454  28.585   6.525
 4318POPC   C3A56741  12.785  28.469   6.864
 4318POPC   C4A56742  12.662  28.317   7.304
 4318POPC   C1B56743  12.962  28.464   6.182
 4318POPC   C2B56744  12.951  28.086   6.486
 4318POPC   C3B56745  13.025  27.994   6.936
 4318POPC   C4B56746  13.150  28.204   7.316
 4319POPC   NC356747  30.176  13.859   5.431
 4319POPC   PO456748  29.757  13.286   5.435
 4319POPC   GL156749  29.873  13.449   5.834
 4319POPC   GL256750  29.727  13.784   5.821
 4319POPC   C1A56751  29.899  13.404   6.301
 4319POPC   D2A56752  30.026  13.374   6.772
 4319POPC   C3A56753  29.737  13.356   7.116
 4319POPC   C4A56754  29.740  13.294   7.577
 4319POPC   C1B56755  30.093  13.839   6.109
 4319POPC   C2B56756  30.040  13.841   6.549
 4319POPC   C3B56757  29.773  13.815   6.894
 4319POPC   C4B56758  29.983  13.864   7.276
 4320POPC   NC356759  12.466   1.739   5.332
 4320POPC   PO456760  12.873   2.206   5.015
 4320POPC   GL156761  12.846   2.167   5.554
 4320POPC   GL256762  12.840   1.831   5.739
 4320POPC   C1A56763  12.841   2.216   6.062
 4320POPC   D2A56764  12.916   1.921   6.445
 4320POPC   C3A56765  12.956   2.052   6.879
 4320POPC   C4A56766  13.167   2.070   7.263
 4320POPC   C1B56767  12.570   1.765   6.118
 4320POPC   C2B56768  12.389   1.731   6.568
 4320POPC   C3B56769  12.458   1.766   7.028
 4320POPC   C4B56770  12.585   1.762   7.485
 4321POPC   NC356771  10.859  26.024   5.590
 4321POPC   PO456772  10.295  26.345   5.367
 4321POPC   GL156773  10.303  25.974   5.615
 4321POPC   GL256774  10.475  26.188   5.868
 4321POPC   C1A56775  10.180  25.811   6.045
 4321POPC   D2A56776  10.374  25.907   6.427
 4321POPC   C3A56777  10.299  25.865   6.864
 4321POPC   C4A56778  10.350  25.880   7.312
 4321POPC   C1B56779  10.698  26.288   6.252
 4321POPC   C2B56780  10.600  26.277   6.689
 4321POPC   C3B56781  10.742  26.129   7.060
 4321POPC   C4B56782  10.597  26.308   7.423
 4322POPC   NC356783   6.223  40.123   5.498
 4322POPC   PO456784   6.847  39.645   5.498
 4322POPC   GL156785   6.775  39.880   5.882
 4322POPC   GL256786   6.421  39.847   5.898
 4322POPC   C1A56787   6.806  40.105   6.286
 4322POPC   D2A56788   6.515  40.304   6.595
 4322POPC   C3A56789   6.491  40.192   7.038
 4322POPC   C4A56790   6.863  39.990   7.227
 4322POPC   C1B56791   6.501  39.723   6.331
 4322POPC   C2B56792   6.679  39.791   6.731
 4322POPC   C3B56793   6.477  39.682   7.108
 4322POPC   C4B56794   6.409  39.853   7.513
 4323POPC   NC356795  20.402   5.727   5.507
 4323POPC   PO456796  20.473   6.359   5.613
 4323POPC   GL156797  20.708   6.113   5.958
 4323POPC   GL256798  20.737   5.758   5.891
 4323POPC   C1A56799  20.840   5.849   6.379
 4323POPC   D2A56800  20.866   5.800   6.849
 4323POPC   C3A56801  20.546   6.044   7.094
 4323POPC   C4A56802  20.606   6.328   7.434
 4323POPC   C1B56803  20.548   5.461   6.177
 4323POPC   C2B56804  20.588   5.315   6.583
 4323POPC   C3B56805  20.508   5.448   6.994
 4323POPC   C4B56806  20.683   5.622   7.350
 4324POPC   NC356807  19.941   0.068   5.421
 4324POPC   PO456808  19.689   0.662   5.569
 4324POPC   GL156809  19.691   0.309   5.861
 4324POPC   GL256810  19.892   0.493   6.116
 4324POPC   C1A56811  19.574   0.159   6.302
 4324POPC   D2A56812  19.705  44.974   6.714
 4324POPC   C3A56813  19.886   0.263   7.020
 4324POPC   C4A56814  19.865   0.448   7.415
 4324POPC   C1B56815  20.108   0.238   6.479
 4324POPC   C2B56816  20.363   0.189   6.894
 4324POPC   C3B56817  20.357   0.399   7.307
 4324POPC   C4B56818  20.233   0.657   7.697
 4325POPC   NC356819  34.158  24.382   5.404
 4325POPC   PO456820  34.698  24.720   5.175
 4325POPC   GL156821  34.565  24.675   5.668
 4325POPC   GL256822  34.769  24.439   5.877
 4325POPC   C1A56823  34.410  24.600   6.161
 4325POPC   D2A56824  34.683  24.581   6.556
 4325POPC   C3A56825  34.513  24.665   6.971
 4325POPC   C4A56826  34.349  24.369   7.268
 4325POPC   C1B56827  34.914  24.178   6.220
 4325POPC   C2B56828  34.869  24.075   6.660
 4325POPC   C3B56829  34.842  24.271   7.081
 4325POPC   C4B56830  34.779  24.430   7.529
 4326POPC   NC356831  31.238  22.256   5.481
 4326POPC   PO456832  31.823  22.007   5.492
 4326POPC   GL156833  31.583  22.149   5.831
 4326POPC   GL256834  31.627  22.503   5.862
 4326POPC   C1A56835  31.317  22.222   6.178
 4326POPC   D2A56836  31.425  22.086   6.556
 4326POPC   C3A56837  31.254  22.225   6.918
 4326POPC   C4A56838  31.354  22.083   7.346
 4326POPC   C1B56839  31.726  22.683   6.284
 4326POPC   C2B56840  31.659  22.524   6.732
 4326POPC   C3B56841  31.608  22.505   7.196
 4326POPC   C4B56842  31.780  22.538   7.606
 4327POPC   NC356843  28.384   4.122   5.514
 4327POPC   PO456844  28.303   4.696   5.170
 4327POPC   GL156845  28.284   4.617   5.671
 4327POPC   GL256846  28.599   4.460   5.895
 4327POPC   C1A56847  28.141   4.420   6.094
 4327POPC   D2A56848  28.440   4.305   6.402
 4327POPC   C3A56849  28.299   4.380   6.804
 4327POPC   C4A56850  28.136   4.315   7.212
 4327POPC   C1B56851  28.916   4.302   6.237
 4327POPC   C2B56852  28.889   3.901   6.424
 4327POPC   C3B56853  28.639   3.958   6.745
 4327POPC   C4B56854  28.654   4.202   7.124
 4328POPC   NC356855   3.781  24.846   5.439
 4328POPC   PO456856   3.553  25.425   5.129
 4328POPC   GL156857   3.500  25.326   5.602
 4328POPC   GL256858   3.717  25.126   5.845
 4328POPC   C1A56859   3.392  25.458   6.055
 4328POPC   D2A56860   3.422  25.321   6.488
 4328POPC   C3A56861   3.245  25.511   6.851
 4328POPC   C4A56862   3.308  25.396   7.272
 4328POPC   C1B56863   3.892  25.131   6.244
 4328POPC   C2B56864   3.892  25.191   6.685
 4328POPC   C3B56865   3.777  25.397   7.056
 4328POPC   C4B56866   3.810  25.163   7.441
 4329POPC   NC356867  16.792  32.712   5.397
 4329POPC   PO456868  16.284  32.580   5.938
 4329POPC   GL156869  16.566  32.264   6.046
 4329POPC   GL256870  16.911  32.353   5.938
 4329POPC   C1A56871  16.616  32.062   6.441
 4329POPC   D2A56872  16.935  32.201   6.719
 4329POPC   C3A56873  16.747  32.366   7.092
 4329POPC   C4A56874  16.509  32.172   7.465
 4329POPC   C1B56875  17.083  31.997   6.227
 4329POPC   C2B56876  17.006  31.708   6.612
 4329POPC   C3B56877  17.071  31.846   7.077
 4329POPC   C4B56878  17.009  32.139   7.444
 4330POPC   NC356879  35.060  40.047   5.380
 4330POPC   PO456880  35.582  39.725   5.514
 4330POPC   GL156881  35.635  40.047   5.823
 4330POPC   GL256882  35.323  40.173   5.824
 4330POPC   C1A56883  35.663  40.180   6.277
 4330POPC   D2A56884  35.387  40.158   6.646
 4330POPC   C3A56885  35.501  40.103   7.080
 4330POPC   C4A56886  35.583  39.696   7.260
 4330POPC   C1B56887  35.266  39.857   6.141
 4330POPC   C2B56888  35.050  39.805   6.502
 4330POPC   C3B56889  35.221  39.698   6.876
 4330POPC   C4B56890  35.101  39.844   7.255
 4331POPC   NC356891  44.499   8.395   5.319
 4331POPC   PO456892  44.441   7.786   5.670
 4331POPC   GL156893  44.676   8.121   5.839
 4331POPC   GL256894  44.803   8.479   5.765
 4331POPC   C1A56895  44.548   8.208   6.274
 4331POPC   D2A56896  44.454   7.958   6.639
 4331POPC   C3A56897  44.818   7.760   6.839
 4331POPC   C4A56898  44.788   7.863   7.265
 4331POPC   C1B56899   0.025   8.327   6.132
 4331POPC   C2B56900  44.997   8.179   6.541
 4331POPC   C3B56901  44.851   8.272   6.949
 4331POPC   C4B56902   0.064   8.285   7.324
 4332POPC   NC356903   8.688   4.373   5.247
 4332POPC   PO456904   9.290   4.057   5.380
 4332POPC   GL156905   9.100   4.404   5.649
 4332POPC   GL256906   8.792   4.330   5.884
 4332POPC   C1A56907   9.188   4.596   6.058
 4332POPC   D2A56908   9.396   4.531   6.455
 4332POPC   C3A56909   9.134   4.374   6.836
 4332POPC   C4A56910   8.715   4.390   7.004
 4332POPC   C1B56911   9.179   4.098   6.129
 4332POPC   C2B56912   9.360   4.012   6.546
 4332POPC   C3B56913   9.221   3.867   6.958
 4332POPC   C4B56914   8.988   4.072   7.317
 4333POPC   NC356915  32.415   5.659   5.478
 4333POPC   PO456916  32.114   6.309   5.419
 4333POPC   GL156917  32.246   6.061   5.761
 4333POPC   GL256918  32.086   5.747   5.915
 4333POPC   C1A56919  32.364   6.080   6.162
 4333POPC   D2A56920  32.281   5.834   6.512
 4333POPC   C3A56921  32.371   6.020   6.885
 4333POPC   C4A56922  32.093   6.077   7.214
 4333POPC   C1B56923  32.499   5.593   6.113
 4333POPC   C2B56924  32.664   5.482   6.520
 4333POPC   C3B56925  32.410   5.464   6.869
 4333POPC   C4B56926  32.416   5.663   7.254
 4334POPC   NC356927   0.930   4.049   5.658
 4334POPC   PO456928   1.101   3.374   5.481
 4334POPC   GL156929   1.048   3.424   5.864
 4334POPC   GL256930   0.974   3.071   5.916
 4334POPC   C1A56931   1.272   3.645   6.218
 4334POPC   D2A56932   1.290   3.922   6.567
 4334POPC   C3A56933   1.246   3.735   6.943
 4334POPC   C4A56934   1.593   3.606   7.109
 4334POPC   C1B56935   0.997   3.190   6.311
 4334POPC   C2B56936   1.120   3.270   6.686
 4334POPC   C3B56937   0.889   3.368   7.030
 4334POPC   C4B56938   1.221   3.289   7.266
 4335POPC   NC356939  12.083  15.454   5.385
 4335POPC   PO456940  12.446  14.976   5.704
 4335POPC   GL156941  12.313  15.266   5.999
 4335POPC   GL256942  11.953  15.321   5.868
 4335POPC   C1A56943  12.607  15.114   6.330
 4335POPC   D2A56944  12.472  14.801   6.663
 4335POPC   C3A56945  12.258  15.020   7.014
 4335POPC   C4A56946  12.410  15.366   7.243
 4335POPC   C1B56947  11.801  15.585   6.192
 4335POPC   C2B56948  11.858  15.634   6.625
 4335POPC   C3B56949  11.842  15.338   6.949
 4335POPC   C4B56950  11.914  15.347   7.369
 4336POPC   NC356951   0.565  12.713   5.540
 4336POPC   PO456952  44.965  13.050   5.616
 4336POPC   GL156953   0.143  12.815   5.887
 4336POPC   GL256954   0.452  13.023   5.924
 4336POPC   C1A56955   0.173  12.769   6.328
 4336POPC   D2A56956   0.416  12.486   6.540
 4336POPC   C3A56957   0.529  12.531   6.960
 4336POPC   C4A56958   0.443  12.714   7.310
 4336POPC   C1B56959   0.698  12.911   6.277
 4336POPC   C2B56960   0.637  12.968   6.688
 4336POPC   C3B56961   0.459  13.127   7.043
 4336POPC   C4B56962   0.680  13.181   7.445
 4337POPC   NC356963   7.062  23.487   5.394
 4337POPC   PO456964   7.738  23.800   5.596
 4337POPC   GL156965   7.423  23.559   5.756
 4337POPC   GL256966   7.088  23.705   5.845
 4337POPC   C1A56967   7.380  23.409   6.146
 4337POPC   D2A56968   7.294  23.599   6.512
 4337POPC   C3A56969   7.563  23.570   6.805
 4337POPC   C4A56970   7.522  23.649   7.178
 4337POPC   C1B56971   7.271  23.940   6.130
 4337POPC   C2B56972   7.205  24.108   6.528
 4337POPC   C3B56973   7.306  24.061   6.943
 4337POPC   C4B56974   7.154  23.964   7.331
 4338POPC   NC356975  30.465  29.351   5.548
 4338POPC   PO456976  30.933  29.886   5.586
 4338POPC   GL156977  30.646  29.836   5.941
 4338POPC   GL256978  30.435  30.122   5.865
 4338POPC   C1A56979  30.590  29.609   6.362
 4338POPC   D2A56980  30.752  29.512   6.798
 4338POPC   C3A56981  30.937  29.863   7.028
 4338POPC   C4A56982  30.890  29.921   7.486
 4338POPC   C1B56983  30.365  30.088   6.305
 4338POPC   C2B56984  30.555  30.001   6.708
 4338POPC   C3B56985  30.474  30.017   7.137
 4338POPC   C4B56986  30.285  30.324   7.311
 4339POPC   NC356987  29.976  35.276   5.326
 4339POPC   PO456988  29.551  35.669   5.609
 4339POPC   GL156989  29.801  35.321   5.834
 4339POPC   GL256990  30.161  35.284   5.835
 4339POPC   C1A56991  29.907  35.387   6.276
 4339POPC   D2A56992  29.721  35.426   6.685
 4339POPC   C3A56993  29.935  35.524   7.052
 4339POPC   C4A56994  29.848  35.539   7.489
 4339POPC   C1B56995  30.335  35.136   6.201
 4339POPC   C2B56996  30.168  35.119   6.632
 4339POPC   C3B56997  30.314  35.175   7.064
 4339POPC   C4B56998  30.199  34.993   7.492
 4340POPC   NC356999  44.807  10.205   5.163
 4340POPC   PO457000  44.652  10.827   5.394
 4340POPC   GL157001  44.642  10.517   5.730
 4340POPC   GL257002  44.862  10.730   5.894
 4340POPC   C1A57003  44.659  10.306   6.164
 4340POPC   D2A57004  44.890  10.365   6.570
 4340POPC   C3A57005  44.723  10.252   6.976
 4340POPC   C4A57006  44.805  10.337   7.405
 4340POPC   C1B57007  44.793  10.948   6.270
 4340POPC   C2B57008   0.053  10.864   6.623
 4340POPC   C3B57009  44.995  10.716   7.038
 4340POPC   C4B57010  44.889  10.812   7.478
 4341POPC   NC357011  21.629  19.422   5.392
 4341POPC   PO457012  21.181  18.970   5.553
 4341POPC   GL157013  21.453  19.135   5.804
 4341POPC   GL257014  21.243  19.417   5.839
 4341POPC   C1A57015  21.389  19.081   6.232
 4341POPC   D2A57016  21.169  19.206   6.595
 4341POPC   C3A57017  21.369  19.077   6.966
 4341POPC   C4A57018  21.126  18.902   7.307
 4341POPC   C1B57019  21.597  19.546   6.124
 4341POPC   C2B57020  21.676  19.382   6.560
 4341POPC   C3B57021  21.630  19.535   6.957
 4341POPC   C4B57022  21.900  19.444   7.293
 4342POPC   NC357023   2.982  27.798   5.426
 4342POPC   PO457024   2.875  27.100   5.295
 4342POPC   GL157025   2.883  27.353   5.783
 4342POPC   GL257026   2.893  27.710   5.942
 4342POPC   C1A57027   2.761  27.377   6.269
 4342POPC   D2A57028   2.877  27.647   6.604
 4342POPC   C3A57029   2.819  27.563   7.033
 4342POPC   C4A57030   2.512  27.806   7.249
 4342POPC   C1B57031   2.591  27.909   6.285
 4342POPC   C2B57032   2.630  28.080   6.706
 4342POPC   C3B57033   3.003  28.065   6.912
 4342POPC   C4B57034   3.208  28.216   7.260
 4343POPC   NC357035  23.390  30.860   5.461
 4343POPC   PO457036  22.721  30.814   5.491
 4343POPC   GL157037  22.815  30.598   5.844
 4343POPC   GL257038  23.141  30.693   5.864
 4343POPC   C1A57039  22.893  30.667   6.299
 4343POPC   D2A57040  22.689  30.788   6.657
 4343POPC   C3A57041  22.630  30.475   6.916
 4343POPC   C4A57042  22.834  30.474   7.301
 4343POPC   C1B57043  23.349  31.000   6.134
 4343POPC   C2B57044  23.475  30.971   6.574
 4343POPC   C3B57045  23.233  30.940   6.958
 4343POPC   C4B57046  23.164  31.251   7.233
 4344POPC   NC357047  19.733  14.007   5.233
 4344POPC   PO457048  19.986  14.662   5.374
 4344POPC   GL157049  19.966  14.307   5.623
 4344POPC   GL257050  19.640  14.213   5.693
 4344POPC   C1A57051  19.962  14.317   6.084
 4344POPC   D2A57052  20.113  14.539   6.463
 4344POPC   C3A57053  19.828  14.443   6.795
 4344POPC   C4A57054  20.080  14.274   7.128
 4344POPC   C1B57055  19.490  13.993   6.089
 4344POPC   C2B57056  19.495  14.070   6.551
 4344POPC   C3B57057  19.613  14.029   7.010
 4344POPC   C4B57058  19.457  14.346   7.343
 4345POPC   NC357059   8.411  15.918   5.568
 4345POPC   PO457060   8.600  16.484   5.245
 4345POPC   GL157061   8.640  16.317   5.770
 4345POPC   GL257062   8.655  15.959   5.995
 4345POPC   C1A57063   8.389  16.324   6.174
 4345POPC   D2A57064   8.062  16.278   6.467
 4345POPC   C3A57065   8.266  16.209   6.831
 4345POPC   C4A57066   8.328  16.160   7.253
 4345POPC   C1B57067   8.244  15.836   6.203
 4345POPC   C2B57068   8.036  15.748   6.607
 4345POPC   C3B57069   8.234  15.725   7.009
 4345POPC   C4B57070   8.519  15.662   7.355
 4346POPC   NC357071  25.871   5.511   5.666
 4346POPC   PO457072  26.297   5.940   5.459
 4346POPC   GL157073  26.114   5.969   5.834
 4346POPC   GL257074  26.422   6.130   5.919
 4346POPC   C1A57075  25.927   5.845   6.255
 4346POPC   D2A57076  26.102   5.993   6.647
 4346POPC   C3A57077  25.915   5.912   7.018
 4346POPC   C4A57078  26.000   5.727   7.394
 4346POPC   C1B57079  26.176   6.291   6.234
 4346POPC   C2B57080  26.257   6.514   6.603
 4346POPC   C3B57081  26.209   6.383   6.994
 4346POPC   C4B57082  26.331   6.115   7.266
 4347POPC   NC357083   2.296   2.092   5.434
 4347POPC   PO457084   1.706   1.843   5.514
 4347POPC   GL157085   2.007   1.883   5.829
 4347POPC   GL257086   1.851   2.205   5.880
 4347POPC   C1A57087   2.262   1.999   6.195
 4347POPC   D2A57088   2.546   1.899   6.559
 4347POPC   C3A57089   2.320   1.995   6.930
 4347POPC   C4A57090   1.924   1.988   7.119
 4347POPC   C1B57091   1.736   1.967   6.250
 4347POPC   C2B57092   1.933   2.094   6.603
 4347POPC   C3B57093   1.808   2.445   6.860
 4347POPC   C4B57094   1.846   2.454   7.310
 4348POPC   NC357095  25.054  17.456   5.390
 4348POPC   PO457096  25.657  16.947   5.409
 4348POPC   GL157097  25.386  17.209   5.676
 4348POPC   GL257098  25.478  17.556   5.781
 4348POPC   C1A57099  25.111  17.231   6.047
 4348POPC   D2A57100  25.110  17.465   6.411
 4348POPC   C3A57101  25.099  17.449   6.864
 4348POPC   C4A57102  25.397  17.579   7.163
 4348POPC   C1B57103  25.472  17.765   6.199
 4348POPC   C2B57104  25.413  17.809   6.660
 4348POPC   C3B57105  25.275  18.046   7.021
 4348POPC   C4B57106  25.254  17.951   7.491
 4349POPC   NC357107  12.471  33.964   5.299
 4349POPC   PO457108  12.991  33.527   5.306
 4349POPC   GL157109  12.896  33.741   5.731
 4349POPC   GL257110  12.598  33.940   5.777
 4349POPC   C1A57111  12.928  33.571   6.168
 4349POPC   D2A57112  13.160  33.366   6.517
 4349POPC   C3A57113  12.961  33.590   6.838
 4349POPC   C4A57114  12.840  33.723   7.223
 4349POPC   C1B57115  12.739  34.080   6.122
 4349POPC   C2B57116  12.745  33.955   6.516
 4349POPC   C3B57117  12.684  34.103   6.892
 4349POPC   C4B57118  12.670  34.200   7.311
 4350POPC   NC357119  30.690   1.663   5.076
 4350POPC   PO457120  30.876   2.242   5.388
 4350POPC   GL157121  30.734   1.957   5.641
 4350POPC   GL257122  31.059   1.996   5.814
 4350POPC   C1A57123  30.598   1.954   6.062
 4350POPC   D2A57124  30.765   2.044   6.484
 4350POPC   C3A57125  30.606   1.981   6.887
 4350POPC   C4A57126  30.262   2.061   7.138
 4350POPC   C1B57127  31.074   1.771   6.201
 4350POPC   C2B57128  31.076   1.706   6.677
 4350POPC   C3B57129  31.070   1.921   7.109
 4350POPC   C4B57130  30.996   1.957   7.591
 4351POPC   NC357131  22.426   3.028   5.435
 4351POPC   PO457132  22.003   2.592   5.460
 4351POPC   GL157133  22.125   2.805   5.813
 4351POPC   GL257134  22.471   2.784   5.883
 4351POPC   C1A57135  22.117   2.845   6.245
 4351POPC   D2A57136  22.233   3.008   6.637
 4351POPC   C3A57137  22.116   2.818   6.986
 4351POPC   C4A57138  22.313   2.751   7.367
 4351POPC   C1B57139  22.464   2.487   6.240
 4351POPC   C2B57140  22.239   2.457   6.643
 4351POPC   C3B57141  22.322   2.357   7.061
 4351POPC   C4B57142  22.571   2.268   7.420
 4352POPC   NC357143  22.275  32.997   5.106
 4352POPC   PO457144  22.130  32.840   5.746
 4352POPC   GL157145  21.953  33.025   6.082
 4352POPC   GL257146  21.674  32.794   6.095
 4352POPC   C1A57147  22.206  33.121   6.425
 4352POPC   D2A57148  22.335  33.424   6.716
 4352POPC   C3A57149  22.064  33.254   7.029
 4352POPC   C4A57150  22.296  32.919   7.219
 4352POPC   C1B57151  21.971  32.615   6.381
 4352POPC   C2B57152  21.980  32.777   6.769
 4352POPC   C3B57153  21.876  32.634   7.128
 4352POPC   C4B57154  21.839  32.878   7.442
 4353POPC   NC357155  25.913  10.782   5.703
 4353POPC   PO457156  26.109  10.380   5.152
 4353POPC   GL157157  26.223  10.356   5.644
 4353POPC   GL257158  26.403  10.618   5.834
 4353POPC   C1A57159  26.068  10.274   6.105
 4353POPC   D2A57160  25.764  10.332   6.410
 4353POPC   C3A57161  25.739  10.270   6.851
 4353POPC   C4A57162  25.583  10.208   7.238
 4353POPC   C1B57163  26.294  10.687   6.282
 4353POPC   C2B57164  26.150  10.570   6.696
 4353POPC   C3B57165  26.021  10.629   7.127
 4353POPC   C4B57166  26.308  10.655   7.484
 4354POPC   NC357167  41.291  25.342   5.151
 4354POPC   PO457168  40.703  25.173   5.266
 4354POPC   GL157169  40.766  25.213   5.739
 4354POPC   GL257170  40.998  24.944   5.779
 4354POPC   C1A57171  40.643  25.462   6.157
 4354POPC   D2A57172  40.496  25.334   6.600
 4354POPC   C3A57173  40.419  25.577   7.004
 4354POPC   C4A57174  40.454  25.408   7.440
 4354POPC   C1B57175  40.918  25.025   6.225
 4354POPC   C2B57176  40.932  25.037   6.685
 4354POPC   C3B57177  40.760  25.209   7.086
 4354POPC   C4B57178  40.907  25.184   7.540
 4355POPC   NC357179  25.360  21.819   5.050
 4355POPC   PO457180  24.810  22.109   5.356
 4355POPC   GL157181  25.057  22.088   5.768
 4355POPC   GL257182  25.369  21.901   5.788
 4355POPC   C1A57183  25.298  22.317   6.126
 4355POPC   D2A57184  25.393  22.542   6.523
 4355POPC   C3A57185  25.393  22.323   6.907
 4355POPC   C4A57186  25.413  22.461   7.288
 4355POPC   C1B57187  25.579  21.908   6.198
 4355POPC   C2B57188  25.393  21.943   6.573
 4355POPC   C3B57189  25.470  21.821   6.983
 4355POPC   C4B57190  25.251  21.971   7.311
 4356POPC   NC357191  18.028  43.450   5.352
 4356POPC   PO457192  18.232  44.166   5.308
 4356POPC   GL157193  18.215  43.849   5.701
 4356POPC   GL257194  18.250  44.172   5.831
 4356POPC   C1A57195  18.429  43.801   6.166
 4356POPC   D2A57196  18.453  43.938   6.650
 4356POPC   C3A57197  18.390  43.821   7.135
 4356POPC   C4A57198  18.482  44.134   7.485
 4356POPC   C1B57199  17.972  44.128   6.186
 4356POPC   C2B57200  17.747  44.173   6.567
 4356POPC   C3B57201  17.984  44.040   6.901
 4356POPC   C4B57202  18.002  44.143   7.323
 4357POPC   NC357203  23.177  37.699   5.632
 4357POPC   PO457204  22.497  38.013   5.515
 4357POPC   GL157205  22.726  37.797   5.821
 4357POPC   GL257206  22.710  37.441   5.755
 4357POPC   C1A57207  22.953  37.885   6.218
 4357POPC   D2A57208  23.246  38.000   6.537
 4357POPC   C3A57209  23.097  37.847   6.929
 4357POPC   C4A57210  23.059  37.756   7.344
 4357POPC   C1B57211  22.868  37.349   6.190
 4357POPC   C2B57212  23.130  37.353   6.569
 4357POPC   C3B57213  22.977  37.340   6.998
 4357POPC   C4B57214  23.149  37.247   7.384
 4358POPC   NC357215   9.111  17.698   5.578
 4358POPC   PO457216   9.037  17.047   5.376
 4358POPC   GL157217   8.906  17.222   5.793
 4358POPC   GL257218   8.655  17.507   5.783
 4358POPC   C1A57219   9.028  17.428   6.195
 4358POPC   D2A57220   8.965  17.814   6.430
 4358POPC   C3A57221   9.203  17.762   6.831
 4358POPC   C4A57222   9.235  17.775   7.291
 4358POPC   C1B57223   8.530  17.591   6.212
 4358POPC   C2B57224   8.644  17.505   6.656
 4358POPC   C3B57225   8.765  17.596   7.071
 4358POPC   C4B57226   8.449  17.470   7.320
 4359POPC   NC357227  29.462  10.310   5.546
 4359POPC   PO457228  29.290  10.982   5.287
 4359POPC   GL157229  29.337  10.766   5.708
 4359POPC   GL257230  28.995  10.597   5.745
 4359POPC   C1A57231  29.433  10.552   6.136
 4359POPC   D2A57232  29.194  10.568   6.518
 4359POPC   C3A57233  29.364  10.696   6.899
 4359POPC   C4A57234  29.528  10.400   7.195
 4359POPC   C1B57235  28.805  10.528   6.174
 4359POPC   C2B57236  28.710  10.697   6.615
 4359POPC   C3B57237  28.878  10.814   7.042
 4359POPC   C4B57238  28.650  10.818   7.432
 4360POPC   NC357239  12.142  13.174   5.482
 4360POPC   PO457240  12.507  13.653   5.502
 4360POPC   GL157241  12.280  13.552   5.848
 4360POPC   GL257242  11.996  13.653   5.761
 4360POPC   C1A57243  12.224  13.486   6.286
 4360POPC   D2A57244  12.310  13.644   6.687
 4360POPC   C3A57245  11.928  13.759   6.833
 4360POPC   C4A57246  11.819  13.824   7.254
 4360POPC   C1B57247  11.865  13.835   6.160
 4360POPC   C2B57248  11.789  14.147   6.483
 4360POPC   C3B57249  11.788  14.236   6.924
 4360POPC   C4B57250  11.701  14.382   7.307
 4361POPC   NC357251  24.775  42.592   5.602
 4361POPC   PO457252  24.244  42.361   5.315
 4361POPC   GL157253  24.350  42.127   5.722
 4361POPC   GL257254  24.712  42.000   5.815
 4361POPC   C1A57255  24.431  42.280   6.151
 4361POPC   D2A57256  24.588  42.260   6.593
 4361POPC   C3A57257  24.435  42.562   6.916
 4361POPC   C4A57258  24.539  42.518   7.363
 4361POPC   C1B57259  24.907  42.021   6.251
 4361POPC   C2B57260  25.073  42.099   6.668
 4361POPC   C3B57261  24.852  42.261   7.033
 4361POPC   C4B57262  24.865  42.022   7.396
 4362POPC   NC357263  33.309  13.848   5.510
 4362POPC   PO457264  32.803  13.326   5.459
 4362POPC   GL157265  32.718  13.594   5.784
 4362POPC   GL257266  33.049  13.686   5.917
 4362POPC   C1A57267  32.623  13.611   6.190
 4362POPC   D2A57268  32.942  13.702   6.462
 4362POPC   C3A57269  32.843  13.600   6.864
 4362POPC   C4A57270  33.180  13.395   7.105
 4362POPC   C1B57271  33.290  13.974   6.177
 4362POPC   C2B57272  33.192  14.137   6.585
 4362POPC   C3B57273  33.255  13.915   6.926
 4362POPC   C4B57274  33.013  13.852   7.265
 4363POPC   NC357275   7.596  30.227   5.603
 4363POPC   PO457276   7.446  29.689   5.388
 4363POPC   GL157277   7.283  29.830   5.728
 4363POPC   GL257278   7.008  30.036   5.611
 4363POPC   C1A57279   7.416  29.778   6.131
 4363POPC   D2A57280   7.445  29.668   6.558
 4363POPC   C3A57281   7.690  29.957   6.850
 4363POPC   C4A57282   7.541  30.045   7.292
 4363POPC   C1B57283   6.864  29.856   6.020
 4363POPC   C2B57284   6.888  29.696   6.430
 4363POPC   C3B57285   7.026  29.564   6.825
 4363POPC   C4B57286   7.156  29.661   7.265
 4364POPC   NC357287   3.652  38.520   5.244
 4364POPC   PO457288   3.363  38.088   5.653
 4364POPC   GL157289   3.664  38.368   5.845
 4364POPC   GL257290   3.634  38.723   5.725
 4364POPC   C1A57291   3.743  38.341   6.275
 4364POPC   D2A57292   3.497  38.524   6.617
 4364POPC   C3A57293   3.412  38.249   6.942
 4364POPC   C4A57294   3.580  38.167   7.362
 4364POPC   C1B57295   3.667  38.859   6.135
 4364POPC   C2B57296   3.536  39.039   6.501
 4364POPC   C3B57297   3.663  38.940   6.886
 4364POPC   C4B57298   3.619  38.656   7.175
 4365POPC   NC357299  36.748  39.151   5.367
 4365POPC   PO457300  36.408  39.669   5.503
 4365POPC   GL157301  36.761  39.512   5.717
 4365POPC   GL257302  37.036  39.199   5.780
 4365POPC   C1A57303  36.833  39.492   6.120
 4365POPC   D2A57304  36.701  39.325   6.477
 4365POPC   C3A57305  36.937  39.386   6.862
 4365POPC   C4A57306  36.816  39.251   7.263
 4365POPC   C1B57307  37.140  39.142   6.259
 4365POPC   C2B57308  36.967  38.887   6.621
 4365POPC   C3B57309  37.163  38.934   7.038
 4365POPC   C4B57310  37.321  39.320   7.269
 4366POPC   NC357311  36.069  42.221   5.603
 4366POPC   PO457312  36.421  42.733   5.629
 4366POPC   GL157313  36.422  42.469   5.926
 4366POPC   GL257314  36.626  42.217   5.764
 4366POPC   C1A57315  36.126  42.330   6.239
 4366POPC   D2A57316  35.992  42.507   6.602
 4366POPC   C3A57317  35.898  42.198   6.875
 4366POPC   C4A57318  35.807  42.450   7.211
 4366POPC   C1B57319  36.575  42.057   6.181
 4366POPC   C2B57320  36.416  42.099   6.604
 4366POPC   C3B57321  36.421  42.402   6.920
 4366POPC   C4B57322  36.612  42.395   7.313
 4367POPC   NC357323  12.636   2.638   5.518
 4367POPC   PO457324  12.781   3.305   5.505
 4367POPC   GL157325  12.688   3.022   5.896
 4367POPC   GL257326  12.325   2.885   5.859
 4367POPC   C1A57327  12.974   2.783   6.231
 4367POPC   D2A57328  12.943   2.451   6.519
 4367POPC   C3A57329  12.941   2.603   6.921
 4367POPC   C4A57330  13.097   2.570   7.297
 4367POPC   C1B57331  12.480   2.675   6.219
 4367POPC   C2B57332  12.607   2.842   6.603
 4367POPC   C3B57333  12.462   2.806   7.011
 4367POPC   C4B57334  12.614   2.709   7.402
 4368POPC   NC357335  10.207  12.206   5.045
 4368POPC   PO457336  10.695  12.054   5.471
 4368POPC   GL157337  10.582  11.908   5.833
 4368POPC   GL257338  10.364  11.665   5.680
 4368POPC   C1A57339  10.519  12.107   6.209
 4368POPC   D2A57340  10.761  12.172   6.544
 4368POPC   C3A57341  10.564  12.275   6.908
 4368POPC   C4A57342  10.661  12.263   7.328
 4368POPC   C1B57343  10.106  11.895   5.987
 4368POPC   C2B57344  10.068  11.986   6.448
 4368POPC   C3B57345  10.218  11.925   6.852
 4368POPC   C4B57346  10.360  11.866   7.253
 4369POPC   NC357347  25.189  19.454   5.280
 4369POPC   PO457348  24.938  18.831   5.297
 4369POPC   GL157349  25.198  18.987   5.698
 4369POPC   GL257350  25.486  19.211   5.714
 4369POPC   C1A57351  25.051  19.085   6.165
 4369POPC   D2A57352  24.944  19.278   6.558
 4369POPC   C3A57353  24.984  19.015   6.884
 4369POPC   C4A57354  25.062  19.088   7.294
 4369POPC   C1B57355  25.509  18.887   6.100
 4369POPC   C2B57356  25.407  19.004   6.572
 4369POPC   C3B57357  25.471  18.906   7.048
 4369POPC   C4B57358  25.549  18.854   7.546
 4370POPC   NC357359  20.418  36.397   5.467
 4370POPC   PO457360  21.031  36.184   5.471
 4370POPC   GL157361  20.653  35.965   5.652
 4370POPC   GL257362  20.614  36.210   5.927
 4370POPC   C1A57363  20.404  35.763   6.014
 4370POPC   D2A57364  20.612  35.847   6.404
 4370POPC   C3A57365  20.509  36.146   6.708
 4370POPC   C4A57366  20.426  36.029   7.113
 4370POPC   C1B57367  20.809  36.359   6.316
 4370POPC   C2B57368  20.723  36.627   6.690
 4370POPC   C3B57369  20.610  36.542   7.084
 4370POPC   C4B57370  20.678  36.310   7.437
 4371POPC   NC357371  32.804  40.788   5.471
 4371POPC   PO457372  33.380  40.946   5.321
 4371POPC   GL157373  33.326  40.837   5.773
 4371POPC   GL257374  33.071  41.075   5.814
 4371POPC   C1A57375  33.050  40.668   6.144
 4371POPC   D2A57376  33.020  40.649   6.609
 4371POPC   C3A57377  33.105  40.939   6.958
 4371POPC   C4A57378  33.176  40.783   7.401
 4371POPC   C1B57379  33.198  41.136   6.234
 4371POPC   C2B57380  33.122  41.356   6.598
 4371POPC   C3B57381  33.182  41.500   6.985
 4371POPC   C4B57382  33.195  41.273   7.324
 4372POPC   NC357383  33.266  13.273   5.445
 4372POPC   PO457384  32.985  12.586   5.479
 4372POPC   GL157385  33.149  12.861   5.771
 4372POPC   GL257386  33.340  12.590   5.924
 4372POPC   C1A57387  33.214  13.123   6.141
 4372POPC   D2A57388  33.168  13.250   6.573
 4372POPC   C3A57389  33.249  12.910   6.826
 4372POPC   C4A57390  33.161  12.885   7.260
 4372POPC   C1B57391  32.979  12.618   6.187
 4372POPC   C2B57392  32.870  12.792   6.542
 4372POPC   C3B57393  32.836  12.603   6.953
 4372POPC   C4B57394  32.963  12.403   7.309
 4373POPC   NC357395   0.150  42.566   5.562
 4373POPC   PO457396   0.573  42.182   5.181
 4373POPC   GL157397   0.601  42.336   5.709
 4373POPC   GL257398   0.852  42.582   5.718
 4373POPC   C1A57399   0.382  42.403   6.217
 4373POPC   D2A57400   0.085  42.636   6.565
 4373POPC   C3A57401   0.173  42.503   7.021
 4373POPC   C4A57402   0.474  42.173   7.212
 4373POPC   C1B57403   0.899  42.441   6.157
 4373POPC   C2B57404   0.787  42.537   6.567
 4373POPC   C3B57405   0.917  42.427   6.972
 4373POPC   C4B57406   0.873  42.494   7.404
 4374POPC   NC357407  34.978  12.226   5.438
 4374POPC   PO457408  35.687  12.077   5.374
 4374POPC   GL157409  35.421  12.136   5.765
 4374POPC   GL257410  35.147  11.874   5.772
 4374POPC   C1A57411  35.356  12.448   6.135
 4374POPC   D2A57412  35.209  12.411   6.570
 4374POPC   C3A57413  35.507  12.127   6.796
 4374POPC   C4A57414  35.628  12.125   7.242
 4374POPC   C1B57415  35.021  12.039   6.186
 4374POPC   C2B57416  35.023  11.917   6.633
 4374POPC   C3B57417  35.052  12.119   7.040
 4374POPC   C4B57418  35.002  11.962   7.451
 4375POPC   NC357419  20.217  40.180   5.589
 4375POPC   PO457420  20.562  39.588   5.497
 4375POPC   GL157421  20.788  39.725   5.792
 4375POPC   GL257422  20.673  40.065   5.813
 4375POPC   C1A57423  20.826  39.848   6.242
 4375POPC   D2A57424  20.671  40.028   6.605
 4375POPC   C3A57425  20.555  39.741   6.956
 4375POPC   C4A57426  20.754  39.823   7.419
 4375POPC   C1B57427  20.339  39.853   6.118
 4375POPC   C2B57428  20.157  39.892   6.524
 4375POPC   C3B57429  20.272  40.165   6.883
 4375POPC   C4B57430  20.620  40.228   7.150
 4376POPC   NC357431  15.767  19.222   5.444
 4376POPC   PO457432  16.264  18.846   5.436
 4376POPC   GL157433  16.173  19.031   5.839
 4376POPC   GL257434  16.061  19.359   5.856
 4376POPC   C1A57435  15.880  18.982   6.203
 4376POPC   D2A57436  15.631  19.139   6.555
 4376POPC   C3A57437  15.811  18.966   6.924
 4376POPC   C4A57438  15.933  18.715   7.278
 4376POPC   C1B57439  16.287  19.332   6.268
 4376POPC   C2B57440  16.123  19.281   6.644
 4376POPC   C3B57441  15.832  19.515   6.870
 4376POPC   C4B57442  15.802  19.345   7.249
 4377POPC   NC357443  19.094  44.476   5.372
 4377POPC   PO457444  19.483   0.004   5.436
 4377POPC   GL157445  19.176  44.791   5.779
 4377POPC   GL257446  19.303  44.428   5.838
 4377POPC   C1A57447  19.005  44.623   6.202
 4377POPC   D2A57448  19.221  44.745   6.607
 4377POPC   C3A57449  19.020  44.850   6.979
 4377POPC   C4A57450  18.820  44.534   7.189
 4377POPC   C1B57451  19.406  44.321   6.281
 4377POPC   C2B57452  19.548  44.382   6.716
 4377POPC   C3B57453  19.459  44.618   7.109
 4377POPC   C4B57454  19.431  44.431   7.528
 4378POPC   NC357455  36.411  33.215   5.400
 4378POPC   PO457456  35.792  33.131   5.468
 4378POPC   GL157457  36.065  32.913   5.751
 4378POPC   GL257458  36.412  32.771   5.719
 4378POPC   C1A57459  36.036  32.711   6.146
 4378POPC   D2A57460  36.227  32.636   6.556
 4378POPC   C3A57461  35.988  32.765   6.901
 4378POPC   C4A57462  35.974  33.007   7.264
 4378POPC   C1B57463  36.431  33.024   6.111
 4378POPC   C2B57464  36.562  33.038   6.544
 4378POPC   C3B57465  36.481  32.944   6.976
 4378POPC   C4B57466  36.452  33.286   7.263
 4379POPC   NC357467   2.843  44.903   5.458
 4379POPC   PO457468   2.800  44.228   5.479
 4379POPC   GL157469   2.818  44.525   5.808
 4379POPC   GL257470   2.549  44.776   5.858
 4379POPC   C1A57471   2.944  44.606   6.215
 4379POPC   D2A57472   3.006  44.829   6.603
 4379POPC   C3A57473   2.757  44.646   6.928
 4379POPC   C4A57474   2.773  44.588   7.359
 4379POPC   C1B57475   2.392   0.009   6.225
 4379POPC   C2B57476   2.402  44.934   6.675
 4379POPC   C3B57477   2.403  44.962   7.135
 4379POPC   C4B57478   2.447   0.179   7.516
 4380POPC   NC357479   4.657   7.881   5.473
 4380POPC   PO457480   4.293   8.392   5.323
 4380POPC   GL157481   4.401   8.221   5.768
 4380POPC   GL257482   4.351   7.823   5.870
 4380POPC   C1A57483   4.247   8.206   6.193
 4380POPC   D2A57484   4.107   8.227   6.602
 4380POPC   C3A57485   4.322   8.255   7.008
 4380POPC   C4A57486   4.172   8.273   7.470
 4380POPC   C1B57487   4.644   7.863   6.222
 4380POPC   C2B57488   4.572   7.976   6.643
 4380POPC   C3B57489   4.610   7.828   7.078
 4380POPC   C4B57490   4.680   8.158   7.373
 4381POPC   NC357491  27.486  38.752   5.361
 4381POPC   PO457492  27.835  38.197   5.355
 4381POPC   GL157493  27.590  38.352   5.707
 4381POPC   GL257494  27.325  38.143   5.825
 4381POPC   C1A57495  27.630  38.399   6.166
 4381POPC   D2A57496  27.595  38.107   6.514
 4381POPC   C3A57497  27.758  38.244   6.897
 4381POPC   C4A57498  27.598  38.166   7.272
 4381POPC   C1B57499  27.194  38.594   5.995
 4381POPC   C2B57500  27.189  38.609   6.412
 4381POPC   C3B57501  27.272  38.447   6.812
 4381POPC   C4B57502  27.459  38.633   7.162
 4382POPC   NC357503  19.372  38.137   5.446
 4382POPC   PO457504  19.591  38.814   5.424
 4382POPC   GL157505  19.356  38.560   5.774
 4382POPC   GL257506  19.016  38.393   5.733
 4382POPC   C1A57507  19.197  38.615   6.225
 4382POPC   D2A57508  19.381  38.669   6.665
 4382POPC   C3A57509  19.126  38.533   7.025
 4382POPC   C4A57510  19.197  38.560   7.508
 4382POPC   C1B57511  18.755  38.317   6.092
 4382POPC   C2B57512  18.682  38.258   6.526
 4382POPC   C3B57513  18.784  38.095   6.938
 4382POPC   C4B57514  18.785  38.325   7.325
 4383POPC   NC357515  23.581  13.263   5.494
 4383POPC   PO457516  23.847  12.656   5.297
 4383POPC   GL157517  23.845  12.846   5.695
 4383POPC   GL257518  23.486  12.823   5.758
 4383POPC   C1A57519  23.876  13.001   6.132
 4383POPC   D2A57520  24.110  12.863   6.519
 4383POPC   C3A57521  23.910  12.963   6.928
 4383POPC   C4A57522  24.068  12.924   7.346
 4383POPC   C1B57523  23.402  12.777   6.170
 4383POPC   C2B57524  23.561  12.884   6.541
 4383POPC   C3B57525  23.430  12.778   6.922
 4383POPC   C4B57526  23.304  13.022   7.219
 4384POPC   NC357527  29.681  11.948   5.208
 4384POPC   PO457528  30.209  12.419   5.314
 4384POPC   GL157529  30.131  12.424   5.781
 4384POPC   GL257530  30.356  12.165   5.894
 4384POPC   C1A57531  29.927  12.224   6.182
 4384POPC   D2A57532  29.526  12.159   6.439
 4384POPC   C3A57533  29.544  12.049   6.900
 4384POPC   C4A57534  29.648  12.331   7.256
 4384POPC   C1B57535  30.220  11.796   6.131
 4384POPC   C2B57536  30.044  11.866   6.540
 4384POPC   C3B57537  30.068  12.087   6.926
 4384POPC   C4B57538  29.956  11.921   7.285
 4385POPC   NC357539  27.806  19.237   5.454
 4385POPC   PO457540  27.750  18.566   5.382
 4385POPC   GL157541  27.712  18.827   5.754
 4385POPC   GL257542  27.399  19.035   5.765
 4385POPC   C1A57543  27.692  18.821   6.201
 4385POPC   D2A57544  27.640  18.632   6.601
 4385POPC   C3A57545  27.682  18.918   6.917
 4385POPC   C4A57546  27.508  18.937   7.306
 4385POPC   C1B57547  27.416  19.284   6.148
 4385POPC   C2B57548  27.162  19.328   6.534
 4385POPC   C3B57549  27.242  19.262   6.978
 4385POPC   C4B57550  27.657  19.389   7.149
 4386POPC   NC357551  29.337   9.554   5.363
 4386POPC   PO457552  29.007  10.175   5.418
 4386POPC   GL157553  29.157   9.940   5.771
 4386POPC   GL257554  29.074   9.589   5.830
 4386POPC   C1A57555  29.216   9.907   6.230
 4386POPC   D2A57556  29.266   9.611   6.578
 4386POPC   C3A57557  29.149   9.762   6.986
 4386POPC   C4A57558  29.263   9.992   7.374
 4386POPC   C1B57559  28.849   9.523   6.234
 4386POPC   C2B57560  28.747   9.509   6.672
 4386POPC   C3B57561  28.826   9.377   7.097
 4386POPC   C4B57562  29.139   9.487   7.430
 4387POPC   NC357563  43.967   3.007   5.405
 4387POPC   PO457564  43.931   2.330   5.424
 4387POPC   GL157565  43.937   2.624   5.819
 4387POPC   GL257566  44.154   2.925   5.863
 4387POPC   C1A57567  43.801   2.685   6.276
 4387POPC   D2A57568  43.896   2.549   6.710
 4387POPC   C3A57569  43.749   2.754   7.100
 4387POPC   C4A57570  43.396   2.559   7.355
 4387POPC   C1B57571  43.998   3.170   6.228
 4387POPC   C2B57572  43.911   3.082   6.664
 4387POPC   C3B57573  44.092   3.145   7.073
 4387POPC   C4B57574  43.972   3.329   7.478
 4388POPC   NC357575   9.719  39.026   5.363
 4388POPC   PO457576  10.067  39.605   5.324
 4388POPC   GL157577   9.999  39.280   5.697
 4388POPC   GL257578   9.653  39.343   5.742
 4388POPC   C1A57579   9.779  39.025   6.094
 4388POPC   D2A57580   9.569  39.126   6.504
 4388POPC   C3A57581   9.858  39.012   6.840
 4388POPC   C4A57582  10.081  39.138   7.224
 4388POPC   C1B57583   9.613  39.532   6.154
 4388POPC   C2B57584   9.497  39.688   6.565
 4388POPC   C3B57585   9.564  39.439   6.915
 4388POPC   C4B57586   9.426  39.246   7.267
 4389POPC   NC357587  37.792   8.464   5.305
 4389POPC   PO457588  37.290   8.067   5.250
 4389POPC   GL157589  37.415   8.300   5.666
 4389POPC   GL257590  37.778   8.257   5.775
 4389POPC   C1A57591  37.396   8.150   6.110
 4389POPC   D2A57592  37.473   8.303   6.516
 4389POPC   C3A57593  37.481   8.058   6.884
 4389POPC   C4A57594  37.714   8.226   7.211
 4389POPC   C1B57595  37.912   8.033   6.163
 4389POPC   C2B57596  37.929   8.084   6.623
 4389POPC   C3B57597  38.124   7.972   7.026
 4389POPC   C4B57598  38.027   7.955   7.519
 4390POPC   NC357599  35.816   9.239   5.463
 4390POPC   PO457600  36.309   8.823   5.156
 4390POPC   GL157601  36.274   8.960   5.614
 4390POPC   GL257602  36.008   8.942   5.859
 4390POPC   C1A57603  36.439   9.086   6.062
 4390POPC   D2A57604  36.228   8.957   6.444
 4390POPC   C3A57605  36.222   9.172   6.871
 4390POPC   C4A57606  36.257   9.245   7.327
 4390POPC   C1B57607  35.776   8.785   6.223
 4390POPC   C2B57608  35.862   8.642   6.644
 4390POPC   C3B57609  35.750   8.678   7.055
 4390POPC   C4B57610  35.737   9.014   7.349
 4391POPC   NC357611   3.526  28.834   5.477
 4391POPC   PO457612   3.607  29.475   5.476
 4391POPC   GL157613   3.535  29.381   5.866
 4391POPC   GL257614   3.298  29.131   5.845
 4391POPC   C1A57615   3.653  29.210   6.252
 4391POPC   D2A57616   3.646  28.955   6.610
 4391POPC   C3A57617   3.585  29.250   6.937
 4391POPC   C4A57618   3.762  29.438   7.315
 4391POPC   C1B57619   3.137  29.181   6.258
 4391POPC   C2B57620   3.127  28.971   6.665
 4391POPC   C3B57621   3.092  29.089   7.082
 4391POPC   C4B57622   3.416  29.077   7.382
 4392POPC   NC357623   2.869   5.397   5.502
 4392POPC   PO457624   3.026   4.747   5.364
 4392POPC   GL157625   2.778   4.894   5.707
 4392POPC   GL257626   2.473   5.114   5.705
 4392POPC   C1A57627   2.751   4.918   6.153
 4392POPC   D2A57628   2.677   5.180   6.511
 4392POPC   C3A57629   2.880   5.055   6.891
 4392POPC   C4A57630   2.752   4.862   7.262
 4392POPC   C1B57631   2.483   5.420   6.065
 4392POPC   C2B57632   2.410   5.632   6.463
 4392POPC   C3B57633   2.636   5.590   6.852
 4392POPC   C4B57634   2.707   5.367   7.226
 4393POPC   NC357635  11.721   1.417   5.141
 4393POPC   PO457636  11.849   0.856   5.444
 4393POPC   GL157637  12.158   1.179   5.637
 4393POPC   GL257638  12.107   1.537   5.691
 4393POPC   C1A57639  12.378   1.298   6.049
 4393POPC   D2A57640  12.203   1.251   6.495
 4393POPC   C3A57641  12.435   1.238   6.898
 4393POPC   C4A57642  12.307   1.314   7.333
 4393POPC   C1B57643  12.073   1.710   6.114
 4393POPC   C2B57644  11.888   1.702   6.519
 4393POPC   C3B57645  12.003   1.528   6.929
 4393POPC   C4B57646  11.777   1.393   7.302
 4394POPC   NC357647   6.301  23.492   5.428
 4394POPC   PO457648   6.816  23.902   5.439
 4394POPC   GL157649   6.569  23.724   5.808
 4394POPC   GL257650   6.669  23.411   5.818
 4394POPC   C1A57651   6.444  23.604   6.280
 4394POPC   D2A57652   6.449  23.753   6.753
 4394POPC   C3A57653   6.556  23.451   7.097
 4394POPC   C4A57654   6.610  23.435   7.548
 4394POPC   C1B57655   6.882  23.335   6.186
 4394POPC   C2B57656   6.825  23.441   6.608
 4394POPC   C3B57657   7.021  23.623   6.968
 4394POPC   C4B57658   7.097  23.453   7.383
 4395POPC   NC357659  21.279  34.959   5.436
 4395POPC   PO457660  21.186  34.290   5.335
 4395POPC   GL157661  21.343  34.489   5.721
 4395POPC   GL257662  21.022  34.623   5.776
 4395POPC   C1A57663  21.621  34.535   6.126
 4395POPC   D2A57664  21.526  34.441   6.586
 4395POPC   C3A57665  21.521  34.536   7.068
 4395POPC   C4A57666  21.323  34.306   7.444
 4395POPC   C1B57667  21.122  34.469   6.222
 4395POPC   C2B57668  21.079  34.647   6.655
 4395POPC   C3B57669  21.019  34.593   7.096
 4395POPC   C4B57670  21.170  34.800   7.452
 4396POPC   NC357671  33.059  37.941   5.480
 4396POPC   PO457672  33.507  38.323   5.310
 4396POPC   GL157673  33.301  38.355   5.734
 4396POPC   GL257674  33.454  38.052   5.794
 4396POPC   C1A57675  32.963  38.451   6.120
 4396POPC   D2A57676  32.786  38.237   6.559
 4396POPC   C3A57677  32.671  38.382   7.034
 4396POPC   C4A57678  32.727  38.356   7.550
 4396POPC   C1B57679  33.265  38.055   6.171
 4396POPC   C2B57680  33.296  38.323   6.517
 4396POPC   C3B57681  33.218  38.225   6.927
 4396POPC   C4B57682  33.124  38.416   7.262
 4397POPC   NC357683  41.586  28.950   5.400
 4397POPC   PO457684  40.972  29.226   5.433
 4397POPC   GL157685  41.186  29.255   5.846
 4397POPC   GL257686  41.470  28.988   5.925
 4397POPC   C1A57687  41.337  29.363   6.259
 4397POPC   D2A57688  41.611  29.164   6.563
 4397POPC   C3A57689  41.585  29.364   6.956
 4397POPC   C4A57690  41.912  29.585   7.174
 4397POPC   C1B57691  41.786  28.741   6.199
 4397POPC   C2B57692  41.823  28.556   6.625
 4397POPC   C3B57693  41.817  28.862   6.972
 4397POPC   C4B57694  41.418  28.937   7.142
 4398POPC   NC357695   8.693  16.790   5.606
 4398POPC   PO457696   8.142  16.315   5.563
 4398POPC   GL157697   8.247  16.697   5.870
 4398POPC   GL257698   8.370  17.062   5.910
 4398POPC   C1A57699   8.237  16.776   6.342
 4398POPC   D2A57700   8.283  16.798   6.807
 4398POPC   C3A57701   7.960  16.570   7.054
 4398POPC   C4A57702   7.888  16.349   7.467
 4398POPC   C1B57703   8.662  17.079   6.258
 4398POPC   C2B57704   8.762  17.004   6.708
 4398POPC   C3B57705   8.640  17.041   7.134
 4398POPC   C4B57706   8.496  17.061   7.608
 4399POPC   NC357707  39.061  12.961   5.412
 4399POPC   PO457708  39.789  12.879   5.236
 4399POPC   GL157709  39.518  12.939   5.651
 4399POPC   GL257710  39.606  13.237   5.771
 4399POPC   C1A57711  39.371  12.776   6.086
 4399POPC   D2A57712  39.432  12.899   6.548
 4399POPC   C3A57713  39.157  12.760   6.903
 4399POPC   C4A57714  39.307  12.527   7.260
 4399POPC   C1B57715  39.306  13.274   6.112
 4399POPC   C2B57716  39.306  13.441   6.515
 4399POPC   C3B57717  39.340  13.280   6.932
 4399POPC   C4B57718  39.574  12.939   7.129
 4400POPC   NC357719  27.619  27.730   5.376
 4400POPC   PO457720  27.314  27.129   5.247
 4400POPC   GL157721  27.492  27.290   5.630
 4400POPC   GL257722  27.333  27.546   5.762
 4400POPC   C1A57723  27.625  27.249   6.091
 4400POPC   D2A57724  27.836  27.349   6.506
 4400POPC   C3A57725  27.571  27.355   6.912
 4400POPC   C4A57726  27.645  27.314   7.367
 4400POPC   C1B57727  27.529  27.763   6.083
 4400POPC   C2B57728  27.452  27.793   6.517
 4400POPC   C3B57729  27.694  27.863   6.879
 4400POPC   C4B57730  27.458  27.775   7.250
 4401POPC   NC357731  44.444   9.361   5.558
 4401POPC   PO457732  44.775   8.816   5.361
 4401POPC   GL157733  44.744   9.002   5.777
 4401POPC   GL257734  44.379   8.965   5.876
 4401POPC   C1A57735  44.802   9.204   6.175
 4401POPC   D2A57736  44.568   9.118   6.539
 4401POPC   C3A57737  44.753   9.118   6.942
 4401POPC   C4A57738  44.518   9.103   7.314
 4401POPC   C1B57739  44.584   8.711   6.179
 4401POPC   C2B57740  44.703   8.620   6.594
 4401POPC   C3B57741  44.519   8.663   7.004
 4401POPC   C4B57742  44.661   8.608   7.428
 4402POPC   NC357743  34.745  16.462   5.146
 4402POPC   PO457744  34.426  15.831   5.429
 4402POPC   GL157745  34.582  15.897   5.843
 4402POPC   GL257746  34.757  16.182   5.790
 4402POPC   C1A57747  34.660  15.790   6.280
 4402POPC   D2A57748  34.635  15.493   6.579
 4402POPC   C3A57749  34.738  15.719   6.923
 4402POPC   C4A57750  34.586  16.057   7.201
 4402POPC   C1B57751  34.900  16.239   6.224
 4402POPC   C2B57752  34.766  16.185   6.696
 4402POPC   C3B57753  34.973  16.368   7.100
 4402POPC   C4B57754  35.101  16.328   7.567
 4403POPC   NC357755  32.641  14.411   5.468
 4403POPC   PO457756  32.136  14.067   5.375
 4403POPC   GL157757  32.312  14.181   5.797
 4403POPC   GL257758  32.256  14.539   5.808
 4403POPC   C1A57759  32.258  14.294   6.255
 4403POPC   D2A57760  32.428  14.508   6.634
 4403POPC   C3A57761  32.222  14.354   7.016
 4403POPC   C4A57762  31.832  14.124   7.131
 4403POPC   C1B57763  32.303  14.810   6.169
 4403POPC   C2B57764  32.134  15.000   6.532
 4403POPC   C3B57765  32.237  14.879   6.948
 4403POPC   C4B57766  32.447  14.742   7.302
 4404POPC   NC357767  15.200   7.899   5.270
 4404POPC   PO457768  15.226   7.258   5.422
 4404POPC   GL157769  15.176   7.540   5.746
 4404POPC   GL257770  15.492   7.694   5.650
 4404POPC   C1A57771  15.177   7.468   6.209
 4404POPC   D2A57772  15.086   7.545   6.635
 4404POPC   C3A57773  15.208   7.309   6.997
 4404POPC   C4A57774  15.090   7.061   7.350
 4404POPC   C1B57775  15.537   7.787   6.068
 4404POPC   C2B57776  15.515   7.853   6.523
 4404POPC   C3B57777  15.535   7.696   6.969
 4404POPC   C4B57778  15.425   7.878   7.410
 4405POPC   NC357779  13.262   9.208   5.302
 4405POPC   PO457780  13.830   8.741   5.393
 4405POPC   GL157781  13.565   8.921   5.719
 4405POPC   GL257782  13.560   9.268   5.782
 4405POPC   C1A57783  13.426   8.842   6.155
 4405POPC   D2A57784  13.571   8.718   6.567
 4405POPC   C3A57785  13.698   8.993   6.889
 4405POPC   C4A57786  13.700   8.807   7.291
 4405POPC   C1B57787  13.287   9.328   6.122
 4405POPC   C2B57788  13.216   9.114   6.544
 4405POPC   C3B57789  13.207   9.333   6.910
 4405POPC   C4B57790  13.410   9.225   7.248
 4406POPC   NC357791   2.395  26.340   5.606
 4406POPC   PO457792   2.899  26.002   5.435
 4406POPC   GL157793   2.753  26.068   5.843
 4406POPC   GL257794   2.460  25.847   5.776
 4406POPC   C1A57795   2.866  26.151   6.273
 4406POPC   D2A57796   3.162  25.934   6.555
 4406POPC   C3A57797   3.072  26.029   6.978
 4406POPC   C4A57798   2.750  26.131   7.304
 4406POPC   C1B57799   2.430  25.869   6.217
 4406POPC   C2B57800   2.627  25.870   6.645
 4406POPC   C3B57801   2.408  25.845   7.034
 4406POPC   C4B57802   2.459  25.759   7.502
 4407POPC   NC357803  24.073  31.070   5.237
 4407POPC   PO457804  23.718  30.534   5.398
 4407POPC   GL157805  23.629  30.542   5.823
 4407POPC   GL257806  23.912  30.708   5.842
 4407POPC   C1A57807  23.473  30.535   6.276
 4407POPC   D2A57808  23.216  30.519   6.654
 4407POPC   C3A57809  23.424  30.439   7.015
 4407POPC   C4A57810  23.746  30.414   7.318
 4407POPC   C1B57811  23.983  30.476   6.225
 4407POPC   C2B57812  23.834  30.397   6.646
 4407POPC   C3B57813  24.111  30.478   6.979
 4407POPC   C4B57814  24.232  30.819   7.205
 4408POPC   NC357815   4.554  44.552   5.436
 4408POPC   PO457816   3.857  44.501   5.536
 4408POPC   GL157817   4.101  44.623   5.883
 4408POPC   GL257818   4.457  44.577   5.932
 4408POPC   C1A57819   4.121  44.752   6.307
 4408POPC   D2A57820   4.174  44.977   6.683
 4408POPC   C3A57821   4.064  44.746   7.030
 4408POPC   C4A57822   4.101  44.423   7.289
 4408POPC   C1B57823   4.629  44.904   6.203
 4408POPC   C2B57824   4.665   0.049   6.626
 4408POPC   C3B57825   4.571  44.727   6.959
 4408POPC   C4B57826   4.643  44.498   7.345
 4409POPC   NC357827  36.259   6.074   5.480
 4409POPC   PO457828  35.664   5.755   5.368
 4409POPC   GL157829  35.928   5.775   5.757
 4409POPC   GL257830  36.243   5.582   5.779
 4409POPC   C1A57831  36.062   6.038   6.131
 4409POPC   D2A57832  35.938   6.189   6.552
 4409POPC   C3A57833  36.039   6.009   6.965
 4409POPC   C4A57834  35.847   5.804   7.291
 4409POPC   C1B57835  36.453   5.722   6.164
 4409POPC   C2B57836  36.358   5.877   6.579
 4409POPC   C3B57837  36.523   5.822   7.009
 4409POPC   C4B57838  36.413   5.829   7.444
 4410POPC   NC357839   4.091  21.218   4.944
 4410POPC   PO457840   4.634  21.425   5.264
 4410POPC   GL157841   4.333  21.428   5.639
 4410POPC   GL257842   4.562  21.219   5.794
 4410POPC   C1A57843   4.052  21.437   6.042
 4410POPC   D2A57844   4.202  21.433   6.491
 4410POPC   C3A57845   4.025  21.306   6.884
 4410POPC   C4A57846   4.182  21.415   7.285
 4410POPC   C1B57847   4.597  21.472   6.135
 4410POPC   C2B57848   4.697  21.280   6.515
 4410POPC   C3B57849   4.598  21.294   6.968
 4410POPC   C4B57850   4.679  21.613   7.318
 4411POPC   NC357851  25.077  23.576   5.390
 4411POPC   PO457852  25.687  23.832   5.456
 4411POPC   GL157853  25.415  23.595   5.780
 4411POPC   GL257854  25.071  23.464   5.872
 4411POPC   C1A57855  25.392  23.534   6.238
 4411POPC   D2A57856  25.606  23.553   6.628
 4411POPC   C3A57857  25.304  23.586   6.925
 4411POPC   C4A57858  25.125  23.466   7.292
 4411POPC   C1B57859  24.892  23.780   6.157
 4411POPC   C2B57860  24.725  23.777   6.586
 4411POPC   C3B57861  24.858  23.828   7.013
 4411POPC   C4B57862  24.944  23.922   7.464
 4412POPC   NC357863  10.027  34.501   5.394
 4412POPC   PO457864   9.386  34.263   5.466
 4412POPC   GL157865   9.646  34.494   5.775
 4412POPC   GL257866   9.939  34.337   5.870
 4412POPC   C1A57867   9.671  34.748   6.151
 4412POPC   D2A57868   9.534  34.621   6.579
 4412POPC   C3A57869   9.727  34.781   6.947
 4412POPC   C4A57870   9.590  34.651   7.331
 4412POPC   C1B57871   9.853  34.308   6.301
 4412POPC   C2B57872  10.003  34.232   6.699
 4412POPC   C3B57873   9.937  34.329   7.131
 4412POPC   C4B57874  10.089  34.672   7.410
 4413POPC   NC357875  19.992  29.088   5.455
 4413POPC   PO457876  19.712  29.579   5.409
 4413POPC   GL157877  19.749  29.352   5.811
 4413POPC   GL257878  19.560  29.023   5.735
 4413POPC   C1A57879  19.923  29.332   6.235
 4413POPC   D2A57880  20.151  29.296   6.646
 4413POPC   C3A57881  19.928  29.171   7.033
 4413POPC   C4A57882  19.725  29.274   7.419
 4413POPC   C1B57883  19.474  29.080   6.190
 4413POPC   C2B57884  19.603  29.175   6.634
 4413POPC   C3B57885  19.397  29.118   7.080
 4413POPC   C4B57886  19.270  29.063   7.549
 4414POPC   NC357887  37.342  23.821   5.377
 4414POPC   PO457888  37.740  23.328   5.508
 4414POPC   GL157889  37.640  23.601   5.812
 4414POPC   GL257890  37.736  23.951   5.802
 4414POPC   C1A57891  37.670  23.436   6.199
 4414POPC   D2A57892  37.461  23.345   6.537
 4414POPC   C3A57893  37.635  23.477   6.869
 4414POPC   C4A57894  37.722  23.436   7.270
 4414POPC   C1B57895  37.539  23.938   6.225
 4414POPC   C2B57896  37.336  23.862   6.646
 4414POPC   C3B57897  37.487  23.910   7.088
 4414POPC   C4B57898  37.507  24.071   7.496
 4415POPC   NC357899  33.125   0.409   5.441
 4415POPC   PO457900  32.668   0.961   5.476
 4415POPC   GL157901  32.934   0.762   5.831
 4415POPC   GL257902  33.297   0.632   5.886
 4415POPC   C1A57903  32.942   0.577   6.267
 4415POPC   D2A57904  33.083   0.720   6.662
 4415POPC   C3A57905  32.855   0.558   7.018
 4415POPC   C4A57906  33.026   0.431   7.410
 4415POPC   C1B57907  33.212   0.197   6.090
 4415POPC   C2B57908  33.098   0.148   6.540
 4415POPC   C3B57909  33.295   0.292   6.933
 4415POPC   C4B57910  33.352   0.064   7.313
 4416POPC   NC357911   7.843  23.342   5.500
 4416POPC   PO457912   8.119  23.940   5.224
 4416POPC   GL157913   8.167  24.026   5.719
 4416POPC   GL257914   8.160  23.656   5.850
 4416POPC   C1A57915   8.208  23.998   6.214
 4416POPC   D2A57916   8.213  23.679   6.586
 4416POPC   C3A57917   7.995  23.822   6.959
 4416POPC   C4A57918   8.168  24.067   7.267
 4416POPC   C1B57919   7.856  23.599   6.223
 4416POPC   C2B57920   7.872  23.266   6.549
 4416POPC   C3B57921   8.014  23.327   6.985
 4416POPC   C4B57922   8.350  23.573   7.203
 4417POPC   NC357923   3.360  12.176   5.240
 4417POPC   PO457924   3.584  11.662   5.538
 4417POPC   GL157925   3.405  11.959   5.785
 4417POPC   GL257926   3.101  11.797   5.800
 4417POPC   C1A57927   3.479  12.136   6.212
 4417POPC   D2A57928   3.595  12.422   6.571
 4417POPC   C3A57929   3.942  12.305   6.869
 4417POPC   C4A57930   3.821  12.225   7.274
 4417POPC   C1B57931   3.310  11.615   6.167
 4417POPC   C2B57932   3.502  11.724   6.545
 4417POPC   C3B57933   3.565  11.953   6.896
 4417POPC   C4B57934   3.531  11.759   7.264
 4418POPC   NC357935  41.810  27.981   5.500
 4418POPC   PO457936  41.428  28.500   5.382
 4418POPC   GL157937  41.485  28.468   5.816
 4418POPC   GL257938  41.431  28.120   5.875
 4418POPC   C1A57939  41.338  28.480   6.244
 4418POPC   D2A57940  41.370  28.219   6.579
 4418POPC   C3A57941  41.387  28.423   6.975
 4418POPC   C4A57942  41.785  28.412   7.196
 4418POPC   C1B57943  41.795  28.210   6.167
 4418POPC   C2B57944  41.880  28.014   6.551
 4418POPC   C3B57945  41.687  27.977   6.925
 4418POPC   C4B57946  41.867  27.896   7.297
 4419POPC   NC357947  13.839  21.649   5.463
 4419POPC   PO457948  13.238  21.290   5.504
 4419POPC   GL157949  13.617  21.240   5.680
 4419POPC   GL257950  13.767  20.939   5.549
 4419POPC   C1A57951  13.618  21.422   6.096
 4419POPC   D2A57952  13.403  21.361   6.488
 4419POPC   C3A57953  13.525  21.634   6.810
 4419POPC   C4A57954  13.556  21.526   7.239
 4419POPC   C1B57955  13.830  20.966   6.038
 4419POPC   C2B57956  13.910  21.195   6.451
 4419POPC   C3B57957  13.742  21.178   6.862
 4419POPC   C4B57958  13.918  21.176   7.297
 4420POPC   NC357959  23.495  32.595   5.435
 4420POPC   PO457960  23.997  32.181   5.392
 4420POPC   GL157961  23.985  32.196   5.839
 4420POPC   GL257962  23.678  32.377   5.859
 4420POPC   C1A57963  23.765  32.026   6.225
 4420POPC   D2A57964  23.629  32.224   6.613
 4420POPC   C3A57965  23.672  31.984   6.984
 4420POPC   C4A57966  24.004  31.722   7.039
 4420POPC   C1B57967  23.663  32.587   6.249
 4420POPC   C2B57968  23.913  32.668   6.589
 4420POPC   C3B57969  23.829  32.524   6.976
 4420POPC   C4B57970  23.478  32.754   7.098
 4421POPC   NC357971  23.212  33.669   5.582
 4421POPC   PO457972  23.869  33.806   5.254
 4421POPC   GL157973  23.780  33.628   5.705
 4421POPC   GL257974  23.861  33.915   5.988
 4421POPC   C1A57975  23.819  33.449   6.130
 4421POPC   D2A57976  23.632  33.542   6.537
 4421POPC   C3A57977  23.899  33.530   6.879
 4421POPC   C4A57978  23.845  33.556   7.299
 4421POPC   C1B57979  23.501  33.956   6.265
 4421POPC   C2B57980  23.387  34.016   6.667
 4421POPC   C3B57981  23.464  33.795   7.016
 4421POPC   C4B57982  23.750  34.038   7.226
 4422POPC   NC357983   8.493  38.677   5.570
 4422POPC   PO457984   8.075  38.213   5.344
 4422POPC   GL157985   8.206  38.266   5.769
 4422POPC   GL257986   8.067  38.605   5.858
 4422POPC   C1A57987   8.078  38.170   6.211
 4422POPC   D2A57988   8.142  38.416   6.608
 4422POPC   C3A57989   7.896  38.531   6.971
 4422POPC   C4A57990   7.942  38.327   7.354
 4422POPC   C1B57991   8.394  38.564   6.180
 4422POPC   C2B57992   8.554  38.746   6.523
 4422POPC   C3B57993   8.332  38.828   6.862
 4422POPC   C4B57994   8.338  38.681   7.267
 4423POPC   NC357995  16.541  11.258   5.334
 4423POPC   PO457996  17.047  11.523   5.709
 4423POPC   GL157997  16.774  11.178   5.806
 4423POPC   GL257998  16.900  10.868   5.908
 4423POPC   C1A57999  16.524  11.234   6.174
 4423POPC   D2A58000  16.429  11.521   6.484
 4423POPC   C3A58001  16.400  11.372   6.909
 4423POPC   C4A58002  16.663  11.179   7.224
 4423POPC   C1B58003  17.010  11.019   6.331
 4423POPC   C2B58004  17.120  11.120   6.777
 4423POPC   C3B58005  17.014  11.491   6.991
 4423POPC   C4B58006  16.927  11.586   7.411
 4424POPC   NC358007   4.665  23.507   5.439
 4424POPC   PO458008   4.161  23.843   5.406
 4424POPC   GL158009   4.275  23.989   5.803
 4424POPC   GL258010   4.603  23.835   5.840
 4424POPC   C1A58011   4.258  23.828   6.239
 4424POPC   D2A58012   4.454  23.896   6.645
 4424POPC   C3A58013   4.143  24.019   6.940
 4424POPC   C4A58014   4.067  23.847   7.365
 4424POPC   C1B58015   4.741  24.044   6.225
 4424POPC   C2B58016   4.886  24.269   6.572
 4424POPC   C3B58017   4.740  24.241   6.959
 4424POPC   C4B58018   4.593  23.905   7.158
 4425POPC   NC358019  28.254  40.641   5.457
 4425POPC   PO458020  28.115  40.038   5.496
 4425POPC   GL158021  28.276  40.159   5.925
 4425POPC   GL258022  28.567  40.369   5.889
 4425POPC   C1A58023  28.147  40.254   6.378
 4425POPC   D2A58024  27.995  39.943   6.704
 4425POPC   C3A58025  28.296  39.574   6.819
 4425POPC   C4A58026  28.698  39.364   6.936
 4425POPC   C1B58027  28.645  40.163   6.325
 4425POPC   C2B58028  28.479  40.079   6.763
 4425POPC   C3B58029  28.226  40.358   7.039
 4425POPC   C4B58030  28.200  40.619   7.422
 4426POPC   NC358031  37.228  25.338   5.422
 4426POPC   PO458032  36.587  25.540   5.611
 4426POPC   GL158033  36.813  25.241   5.905
 4426POPC   GL258034  37.200  25.157   5.890
 4426POPC   C1A58035  36.963  25.163   6.330
 4426POPC   D2A58036  37.246  25.374   6.583
 4426POPC   C3A58037  36.986  25.375   6.883
 4426POPC   C4A58038  36.956  25.203   7.237
 4426POPC   C1B58039  37.323  24.834   6.236
 4426POPC   C2B58040  37.332  24.872   6.690
 4426POPC   C3B58041  37.304  24.836   7.146
 4426POPC   C4B58042  37.207  24.908   7.625
 4427POPC   NC358043   9.647  14.071   5.532
 4427POPC   PO458044   9.872  13.595   5.104
 4427POPC   GL158045   9.863  13.541   5.577
 4427POPC   GL258046   9.985  13.241   5.759
 4427POPC   C1A58047   9.931  13.742   6.001
 4427POPC   D2A58048   9.868  13.998   6.387
 4427POPC   C3A58049   9.985  13.795   6.784
 4427POPC   C4A58050   9.725  13.795   7.147
 4427POPC   C1B58051   9.587  13.373   6.010
 4427POPC   C2B58052   9.418  13.385   6.428
 4427POPC   C3B58053   9.522  13.423   6.865
 4427POPC   C4B58054   9.785  13.272   7.230
 4428POPC   NC358055  22.535  30.359   5.431
 4428POPC   PO458056  22.076  30.917   5.433
 4428POPC   GL158057  22.298  30.684   5.768
 4428POPC   GL258058  22.108  30.407   5.909
 4428POPC   C1A58059  22.405  30.740   6.202
 4428POPC   D2A58060  22.200  30.921   6.558
 4428POPC   C3A58061  22.268  30.826   6.991
 4428POPC   C4A58062  22.115  30.430   7.177
 4428POPC   C1B58063  21.909  30.837   6.086
 4428POPC   C2B58064  21.700  30.968   6.491
 4428POPC   C3B58065  21.791  31.009   6.926
 4428POPC   C4B58066  21.906  30.887   7.347
 4429POPC   NC358067  27.433  20.130   5.426
 4429POPC   PO458068  27.381  19.465   5.438
 4429POPC   GL158069  27.622  19.622   5.778
 4429POPC   GL258070  27.796  19.938   5.765
 4429POPC   C1A58071  27.456  19.808   6.148
 4429POPC   D2A58072  27.604  19.749   6.544
 4429POPC   C3A58073  27.342  19.756   6.838
 4429POPC   C4A58074  27.394  19.829   7.230
 4429POPC   C1B58075  27.955  19.925   6.160
 4429POPC   C2B58076  28.089  19.842   6.585
 4429POPC   C3B58077  27.895  19.821   7.009
 4429POPC   C4B58078  27.794  20.128   7.335
 4430POPC   NC358079  38.579  22.655   5.453
 4430POPC   PO458080  38.341  23.287   5.430
 4430POPC   GL158081  38.493  23.126   5.767
 4430POPC   GL258082  38.293  22.882   5.845
 4430POPC   C1A58083  38.534  23.221   6.231
 4430POPC   D2A58084  38.415  23.002   6.643
 4430POPC   C3A58085  38.564  23.151   7.098
 4430POPC   C4A58086  38.623  23.134   7.556
 4430POPC   C1B58087  38.689  22.781   6.079
 4430POPC   C2B58088  38.917  22.773   6.467
 4430POPC   C3B58089  38.790  22.737   6.891
 4430POPC   C4B58090  38.714  22.663   7.310
 4431POPC   NC358091  33.590  24.897   5.441
 4431POPC   PO458092  33.703  24.258   5.340
 4431POPC   GL158093  33.771  24.354   5.742
 4431POPC   GL258094  33.475  24.535   5.792
 4431POPC   C1A58095  34.045  24.225   6.074
 4431POPC   D2A58096  33.953  24.181   6.519
 4431POPC   C3A58097  33.996  24.488   6.861
 4431POPC   C4A58098  33.728  24.312   7.146
 4431POPC   C1B58099  33.696  24.587   6.196
 4431POPC   C2B58100  33.715  24.806   6.576
 4431POPC   C3B58101  33.544  24.777   6.950
 4431POPC   C4B58102  33.719  24.785   7.345
 4432POPC   NC358103  13.378  19.284   5.457
 4432POPC   PO458104  13.834  18.783   5.412
 4432POPC   GL158105  13.637  18.988   5.830
 4432POPC   GL258106  13.671  19.317   5.879
 4432POPC   C1A58107  13.731  19.145   6.321
 4432POPC   D2A58108  13.701  19.393   6.652
 4432POPC   C3A58109  13.524  19.033   6.820
 4432POPC   C4A58110  13.565  19.012   7.218
 4432POPC   C1B58111  13.408  19.529   6.166
 4432POPC   C2B58112  13.206  19.408   6.556
 4432POPC   C3B58113  13.323  19.452   7.018
 4432POPC   C4B58114  13.266  19.335   7.496
 4433POPC   NC358115  26.815  21.664   5.417
 4433POPC   PO458116  26.368  21.270   5.277
 4433POPC   GL158117  26.646  21.292   5.745
 4433POPC   GL258118  26.940  21.527   5.874
 4433POPC   C1A58119  26.813  21.136   6.173
 4433POPC   D2A58120  26.781  21.279   6.616
 4433POPC   C3A58121  26.654  20.963   6.953
 4433POPC   C4A58122  26.561  20.949   7.432
 4433POPC   C1B58123  26.644  21.634   6.207
 4433POPC   C2B58124  26.792  21.823   6.571
 4433POPC   C3B58125  26.965  21.693   6.941
 4433POPC   C4B58126  26.824  21.858   7.318
 4434POPC   NC358127  10.911   6.768   5.469
 4434POPC   PO458128  11.581   6.567   5.376
 4434POPC   GL158129  11.554   6.688   5.795
 4434POPC   GL258130  11.218   6.788   5.861
 4434POPC   C1A58131  11.472   6.547   6.217
 4434POPC   D2A58132  11.202   6.549   6.565
 4434POPC   C3A58133  11.442   6.605   6.922
 4434POPC   C4A58134  11.464   6.363   7.298
 4434POPC   C1B58135  11.095   6.977   6.245
 4434POPC   C2B58136  10.935   6.968   6.653
 4434POPC   C3B58137  10.932   6.737   7.041
 4434POPC   C4B58138  10.894   6.960   7.411
 4435POPC   NC358139  18.468  20.303   5.430
 4435POPC   PO458140  17.922  20.736   5.446
 4435POPC   GL158141  18.276  20.617   5.793
 4435POPC   GL258142  18.520  20.336   5.924
 4435POPC   C1A58143  18.461  20.728   6.217
 4435POPC   D2A58144  18.197  20.722   6.568
 4435POPC   C3A58145  18.450  20.712   6.924
 4435POPC   C4A58146  18.350  20.584   7.310
 4435POPC   C1B58147  18.101  20.341   6.194
 4435POPC   C2B58148  18.029  20.225   6.642
 4435POPC   C3B58149  18.249  20.089   7.043
 4435POPC   C4B58150  18.262  20.146   7.518
 4436POPC   NC358151  25.960  36.901   5.115
 4436POPC   PO458152  26.201  36.851   5.720
 4436POPC   GL158153  25.906  36.965   5.973
 4436POPC   GL258154  25.780  37.319   5.953
 4436POPC   C1A58155  25.902  36.796   6.369
 4436POPC   D2A58156  25.759  36.910   6.736
 4436POPC   C3A58157  26.021  36.841   7.076
 4436POPC   C4A58158  26.344  36.562   7.224
 4436POPC   C1B58159  25.795  37.306   6.365
 4436POPC   C2B58160  25.497  37.330   6.651
 4436POPC   C3B58161  25.674  37.299   7.063
 4436POPC   C4B58162  25.996  37.286   7.355
 4437POPC   NC358163  12.775  31.781   5.476
 4437POPC   PO458164  12.711  31.071   5.503
 4437POPC   GL158165  13.010  31.357   5.761
 4437POPC   GL258166  13.047  31.701   5.903
 4437POPC   C1A58167  13.189  31.365   6.227
 4437POPC   D2A58168  13.027  31.666   6.543
 4437POPC   C3A58169  13.180  31.748   6.966
 4437POPC   C4A58170  13.165  31.406   7.199
 4437POPC   C1B58171  12.691  31.574   6.155
 4437POPC   C2B58172  12.505  31.660   6.566
 4437POPC   C3B58173  12.656  31.740   6.939
 4437POPC   C4B58174  12.700  31.554   7.301
 4438POPC   NC358175  13.006  25.467   5.548
 4438POPC   PO458176  12.758  24.981   5.209
 4438POPC   GL158177  12.809  25.050   5.757
 4438POPC   GL258178  12.593  25.342   5.830
 4438POPC   C1A58179  13.024  25.334   6.179
 4438POPC   D2A58180  13.174  25.499   6.622
 4438POPC   C3A58181  12.917  25.390   7.009
 4438POPC   C4A58182  12.974  25.124   7.362
 4438POPC   C1B58183  12.574  25.122   6.230
 4438POPC   C2B58184  12.599  25.267   6.630
 4438POPC   C3B58185  12.512  25.076   7.028
 4438POPC   C4B58186  12.528  24.901   7.441
 4439POPC   NC358187  31.302  25.325   5.394
 4439POPC   PO458188  31.824  24.826   5.214
 4439POPC   GL158189  31.690  25.110   5.661
 4439POPC   GL258190  31.441  25.301   5.875
 4439POPC   C1A58191  31.684  25.007   6.165
 4439POPC   D2A58192  31.404  25.228   6.469
 4439POPC   C3A58193  31.404  25.038   6.877
 4439POPC   C4A58194  31.768  24.989   7.174
 4439POPC   C1B58195  31.695  25.557   6.188
 4439POPC   C2B58196  31.564  25.740   6.572
 4439POPC   C3B58197  31.609  25.515   6.934
 4439POPC   C4B58198  31.760  25.480   7.347
 4440POPC   NC358199  36.806  42.595   5.430
 4440POPC   PO458200  36.752  42.025   5.052
 4440POPC   GL158201  37.065  42.126   5.499
 4440POPC   GL258202  37.162  42.456   5.723
 4440POPC   C1A58203  37.086  42.033   5.992
 4440POPC   D2A58204  36.986  42.081   6.468
 4440POPC   C3A58205  37.164  42.018   6.888
 4440POPC   C4A58206  37.099  42.205   7.299
 4440POPC   C1B58207  36.915  42.519   6.125
 4440POPC   C2B58208  36.835  42.565   6.592
 4440POPC   C3B58209  36.865  42.730   7.026
 4440POPC   C4B58210  37.025  42.721   7.459
 4441POPC   NC358211  28.654  17.488   5.356
 4441POPC   PO458212  28.058  17.113   5.433
 4441POPC   GL158213  28.278  17.350   5.786
 4441POPC   GL258214  28.417  17.678   5.771
 4441POPC   C1A58215  28.470  17.381   6.207
 4441POPC   D2A58216  28.572  17.200   6.612
 4441POPC   C3A58217  28.677  17.364   7.015
 4441POPC   C4A58218  28.392  17.500   7.328
 4441POPC   C1B58219  28.145  17.791   6.105
 4441POPC   C2B58220  28.163  17.646   6.507
 4441POPC   C3B58221  28.298  17.683   6.862
 4441POPC   C4B58222  27.987  17.727   7.121
 4442POPC   NC358223  37.060   0.351   5.337
 4442POPC   PO458224  36.592   0.794   5.558
 4442POPC   GL158225  36.890   0.748   5.848
 4442POPC   GL258226  36.956   0.400   5.826
 4442POPC   C1A58227  36.897   0.671   6.289
 4442POPC   D2A58228  36.937   0.373   6.612
 4442POPC   C3A58229  36.685   0.322   6.983
 4442POPC   C4A58230  36.705   0.594   7.355
 4442POPC   C1B58231  37.087   0.142   6.156
 4442POPC   C2B58232  37.387   0.171   6.479
 4442POPC   C3B58233  37.360   0.224   6.905
 4442POPC   C4B58234  37.091   0.118   7.235
 4443POPC   NC358235  11.579  24.548   5.375
 4443POPC   PO458236  11.031  24.892   5.311
 4443POPC   GL158237  11.196  24.717   5.733
 4443POPC   GL258238  11.322  24.397   5.805
 4443POPC   C1A58239  11.125  24.664   6.197
 4443POPC   D2A58240  11.337  24.799   6.588
 4443POPC   C3A58241  11.068  24.716   6.930
 4443POPC   C4A58242  11.066  24.265   7.054
 4443POPC   C1B58243  11.441  24.137   6.146
 4443POPC   C2B58244  11.596  24.105   6.546
 4443POPC   C3B58245  11.491  23.971   6.951
 4443POPC   C4B58246  11.502  24.243   7.325
 4444POPC   NC358247   3.050  43.494   5.702
 4444POPC   PO458248   3.480  43.932   5.266
 4444POPC   GL158249   3.470  43.872   5.726
 4444POPC   GL258250   3.712  43.604   5.782
 4444POPC   C1A58251   3.355  44.014   6.172
 4444POPC   D2A58252   3.188  44.106   6.624
 4444POPC   C3A58253   3.446  43.957   6.976
 4444POPC   C4A58254   3.870  44.032   7.077
 4444POPC   C1B58255   3.545  43.528   6.163
 4444POPC   C2B58256   3.649  43.747   6.532
 4444POPC   C3B58257   3.781  43.551   6.890
 4444POPC   C4B58258   3.469  43.441   7.156
 4445POPC   NC358259  29.410  22.111   5.668
 4445POPC   PO458260  29.863  22.261   5.152
 4445POPC   GL158261  29.889  22.328   5.615
 4445POPC   GL258262  29.921  22.041   5.842
 4445POPC   C1A58263  29.979  22.476   6.082
 4445POPC   D2A58264  30.052  22.557   6.517
 4445POPC   C3A58265  29.947  22.234   6.829
 4445POPC   C4A58266  29.963  22.467   7.200
 4445POPC   C1B58267  29.674  22.110   6.268
 4445POPC   C2B58268  29.309  21.951   6.514
 4445POPC   C3B58269  29.332  21.961   6.959
 4445POPC   C4B58270  29.663  22.037   7.268
 4446POPC   NC358271  23.718  22.952   5.022
 4446POPC   PO458272  23.724  23.236   5.620
 4446POPC   GL158273  23.778  23.165   5.969
 4446POPC   GL258274  24.073  23.362   5.984
 4446POPC   C1A58275  23.557  22.949   6.286
 4446POPC   D2A58276  23.266  22.837   6.600
 4446POPC   C3A58277  23.440  22.715   6.985
 4446POPC   C4A58278  23.839  22.650   7.206
 4446POPC   C1B58279  23.910  23.380   6.402
 4446POPC   C2B58280  23.761  23.106   6.718
 4446POPC   C3B58281  23.711  23.124   7.128
 4446POPC   C4B58282  23.718  23.445   7.372
 4447POPC   NC358283  36.188   4.659   5.552
 4447POPC   PO458284  35.747   4.066   5.463
 4447POPC   GL158285  36.156   4.175   5.714
 4447POPC   GL258286  35.910   4.376   5.861
 4447POPC   C1A58287  36.371   4.377   6.111
 4447POPC   D2A58288  36.226   4.593   6.478
 4447POPC   C3A58289  36.306   4.326   6.827
 4447POPC   C4A58290  36.166   4.425   7.223
 4447POPC   C1B58291  35.753   4.109   6.147
 4447POPC   C2B58292  35.890   4.199   6.540
 4447POPC   C3B58293  35.877   4.076   6.940
 4447POPC   C4B58294  35.538   3.970   7.096
 4448POPC   NC358295  32.542   6.448   5.577
 4448POPC   PO458296  31.964   6.686   5.128
 4448POPC   GL158297  32.134   6.786   5.614
 4448POPC   GL258298  31.979   7.014   5.880
 4448POPC   C1A58299  32.135   6.564   6.071
 4448POPC   D2A58300  32.255   6.418   6.509
 4448POPC   C3A58301  32.142   6.509   6.922
 4448POPC   C4A58302  32.465   6.434   7.204
 4448POPC   C1B58303  32.230   6.996   6.326
 4448POPC   C2B58304  32.287   6.991   6.811
 4448POPC   C3B58305  32.256   6.897   7.282
 4448POPC   C4B58306  31.927   6.892   7.600
 4449POPC   NC358307   6.893  37.343   5.524
 4449POPC   PO458308   6.588  37.968   5.242
 4449POPC   GL158309   6.522  37.682   5.663
 4449POPC   GL258310   6.390  37.328   5.694
 4449POPC   C1A58311   6.707  37.550   6.123
 4449POPC   D2A58312   6.802  37.704   6.577
 4449POPC   C3A58313   6.800  37.452   6.971
 4449POPC   C4A58314   6.564  37.522   7.356
 4449POPC   C1B58315   6.211  37.586   6.070
 4449POPC   C2B58316   6.314  37.829   6.453
 4449POPC   C3B58317   6.335  37.707   6.903
 4449POPC   C4B58318   6.091  37.771   7.286
 4450POPC   NC358319  28.362  28.598   5.343
 4450POPC   PO458320  27.859  28.111   5.554
 4450POPC   GL158321  28.240  28.350   5.798
 4450POPC   GL258322  28.582  28.534   5.804
 4450POPC   C1A58323  28.389  28.234   6.211
 4450POPC   D2A58324  28.164  28.086   6.589
 4450POPC   C3A58325  28.344  28.171   6.986
 4450POPC   C4A58326  28.132  28.240   7.361
 4450POPC   C1B58327  28.664  28.683   6.217
 4450POPC   C2B58328  28.590  28.472   6.616
 4450POPC   C3B58329  28.732  28.497   7.031
 4450POPC   C4B58330  28.674  28.234   7.389
 4451POPC   NC358331  11.042  38.033   5.290
 4451POPC   PO458332  11.445  38.654   5.352
 4451POPC   GL158333  11.251  38.549   5.775
 4451POPC   GL258334  10.891  38.598   5.788
 4451POPC   C1A58335  11.179  38.347   6.211
 4451POPC   D2A58336  11.283  38.108   6.606
 4451POPC   C3A58337  11.192  38.290   7.011
 4451POPC   C4A58338  11.401  38.629   7.281
 4451POPC   C1B58339  10.962  38.833   6.164
 4451POPC   C2B58340  10.961  38.695   6.571
 4451POPC   C3B58341  10.770  38.598   6.936
 4451POPC   C4B58342  10.886  38.584   7.294
 4452POPC   NC358343   6.504  27.879   5.382
 4452POPC   PO458344   6.672  27.244   5.324
 4452POPC   GL158345   6.805  27.526   5.668
 4452POPC   GL258346   6.929  27.919   5.663
 4452POPC   C1A58347   6.627  27.369   6.070
 4452POPC   D2A58348   6.583  27.530   6.503
 4452POPC   C3A58349   6.516  27.277   6.887
 4452POPC   C4A58350   6.622  27.400   7.327
 4452POPC   C1B58351   6.930  27.776   6.101
 4452POPC   C2B58352   7.049  27.734   6.538
 4452POPC   C3B58353   6.852  27.659   6.935
 4452POPC   C4B58354   6.752  27.909   7.281
 4453POPC   NC358355  23.449  22.876   5.618
 4453POPC   PO458356  22.906  22.824   5.240
 4453POPC   GL158357  22.903  22.888   5.700
 4453POPC   GL258358  22.750  22.617   5.879
 4453POPC   C1A58359  22.965  23.066   6.145
 4453POPC   D2A58360  22.731  23.118   6.544
 4453POPC   C3A58361  22.942  23.074   6.942
 4453POPC   C4A58362  23.026  23.194   7.363
 4453POPC   C1B58363  22.896  22.590   6.331
 4453POPC   C2B58364  22.877  22.563   6.801
 4453POPC   C3B58365  23.019  22.656   7.244
 4453POPC   C4B58366  22.855  22.655   7.655
 4454POPC   NC358367   9.571  29.710   5.279
 4454POPC   PO458368   9.931  30.266   5.163
 4454POPC   GL158369   9.885  29.967   5.576
 4454POPC   GL258370   9.501  29.953   5.728
 4454POPC   C1A58371   9.876  29.842   6.044
 4454POPC   D2A58372   9.666  29.968   6.448
 4454POPC   C3A58373   9.793  29.850   6.872
 4454POPC   C4A58374  10.047  30.041   7.199
 4454POPC   C1B58375   9.284  30.102   6.125
 4454POPC   C2B58376   9.151  29.961   6.536
 4454POPC   C3B58377   9.286  29.794   6.943
 4454POPC   C4B58378   9.491  29.929   7.312
 4455POPC   NC358379  19.136  12.093   5.193
 4455POPC   PO458380  18.569  12.328   5.426
 4455POPC   GL158381  18.920  12.159   5.694
 4455POPC   GL258382  19.268  12.253   5.723
 4455POPC   C1A58383  19.038  11.909   6.069
 4455POPC   D2A58384  18.957  11.859   6.517
 4455POPC   C3A58385  18.929  12.015   6.963
 4455POPC   C4A58386  18.918  12.020   7.411
 4455POPC   C1B58387  19.312  12.339   6.195
 4455POPC   C2B58388  19.191  12.359   6.658
 4455POPC   C3B58389  19.270  12.535   7.107
 4455POPC   C4B58390  19.295  12.366   7.529
 4456POPC   NC358391  29.233  17.109   5.179
 4456POPC   PO458392  29.167  17.790   5.287
 4456POPC   GL158393  29.189  17.532   5.690
 4456POPC   GL258394  28.876  17.372   5.787
 4456POPC   C1A58395  29.273  17.441   6.144
 4456POPC   D2A58396  29.047  17.306   6.504
 4456POPC   C3A58397  29.223  17.315   6.890
 4456POPC   C4A58398  29.184  17.461   7.279
 4456POPC   C1B58399  28.832  17.697   6.100
 4456POPC   C2B58400  28.722  17.728   6.558
 4456POPC   C3B58401  28.901  17.813   6.993
 4456POPC   C4B58402  28.819  17.800   7.448
 4457POPC   NC358403  37.990  22.942   5.444
 4457POPC   PO458404  37.284  22.697   5.470
 4457POPC   GL158405  37.486  22.800   5.890
 4457POPC   GL258406  37.776  23.002   5.897
 4457POPC   C1A58407  37.579  22.875   6.343
 4457POPC   D2A58408  37.760  22.978   6.729
 4457POPC   C3A58409  37.425  23.034   7.067
 4457POPC   C4A58410  37.220  22.821   7.423
 4457POPC   C1B58411  38.041  23.077   6.244
 4457POPC   C2B58412  38.071  23.398   6.542
 4457POPC   C3B58413  38.109  23.303   6.963
 4457POPC   C4B58414  37.913  22.966   7.216
 4458POPC   NC358415   7.608   5.821   5.598
 4458POPC   PO458416   8.241   5.737   5.457
 4458POPC   GL158417   8.102   5.982   5.785
 4458POPC   GL258418   8.406   6.072   5.980
 4458POPC   C1A58419   7.977   5.898   6.195
 4458POPC   D2A58420   8.241   6.074   6.493
 4458POPC   C3A58421   8.194   5.914   6.890
 4458POPC   C4A58422   7.960   5.686   7.201
 4458POPC   C1B58423   8.432   5.658   6.217
 4458POPC   C2B58424   8.324   5.457   6.637
 4458POPC   C3B58425   8.489   5.557   7.075
 4458POPC   C4B58426   8.676   5.647   7.462
 4459POPC   NC358427  29.901  44.420   5.267
 4459POPC   PO458428  30.206  43.773   5.370
 4459POPC   GL158429  29.968  43.810   5.766
 4459POPC   GL258430  29.781  44.118   5.741
 4459POPC   C1A58431  30.022  43.957   6.186
 4459POPC   D2A58432  30.201  44.162   6.532
 4459POPC   C3A58433  30.108  44.045   6.941
 4459POPC   C4A58434  30.315  43.807   7.251
 4459POPC   C1B58435  29.582  44.224   6.145
 4459POPC   C2B58436  29.664  44.089   6.586
 4459POPC   C3B58437  29.612  44.234   7.007
 4459POPC   C4B58438  29.512  43.921   7.318
 4460POPC   NC358439   7.916   7.556   5.428
 4460POPC   PO458440   7.242   7.290   5.204
 4460POPC   GL158441   7.441   7.458   5.604
 4460POPC   GL258442   7.354   7.174   5.790
 4460POPC   C1A58443   7.597   7.533   6.069
 4460POPC   D2A58444   7.755   7.564   6.534
 4460POPC   C3A58445   7.543   7.530   6.986
 4460POPC   C4A58446   7.602   7.555   7.462
 4460POPC   C1B58447   7.208   7.216   6.226
 4460POPC   C2B58448   7.144   7.032   6.646
 4460POPC   C3B58449   7.446   7.028   6.990
 4460POPC   C4B58450   7.515   7.046   7.431
 4461POPC   NC358451  41.848  24.757   5.364
 4461POPC   PO458452  41.265  24.524   5.324
 4461POPC   GL158453  41.470  24.617   5.713
 4461POPC   GL258454  41.720  24.350   5.675
 4461POPC   C1A58455  41.268  24.655   6.128
 4461POPC   D2A58456  41.216  24.422   6.510
 4461POPC   C3A58457  41.573  24.444   6.773
 4461POPC   C4A58458  41.462  24.539   7.172
 4461POPC   C1B58459  41.524  24.218   6.060
 4461POPC   C2B58460  41.382  23.963   6.372
 4461POPC   C3B58461  41.356  23.947   6.806
 4461POPC   C4B58462  41.622  24.054   7.158
 4462POPC   NC358463  36.742  38.221   5.011
 4462POPC   PO458464  36.920  38.720   5.384
 4462POPC   GL158465  36.953  38.578   5.833
 4462POPC   GL258466  36.824  38.817   6.069
 4462POPC   C1A58467  36.847  38.361   6.270
 4462POPC   D2A58468  36.527  38.423   6.628
 4462POPC   C3A58469  36.595  38.275   7.074
 4462POPC   C4A58470  36.604  38.331   7.567
 4462POPC   C1B58471  37.265  38.658   6.228
 4462POPC   C2B58472  37.408  38.452   6.590
 4462POPC   C3B58473  37.050  38.428   6.874
 4462POPC   C4B58474  36.990  38.528   7.305
 4463POPC   NC358475  29.096  27.823   5.472
 4463POPC   PO458476  28.580  27.495   5.752
 4463POPC   GL158477  29.019  27.587   5.941
 4463POPC   GL258478  29.388  27.758   5.865
 4463POPC   C1A58479  28.889  27.657   6.368
 4463POPC   D2A58480  28.677  27.969   6.618
 4463POPC   C3A58481  28.837  27.936   7.015
 4463POPC   C4A58482  29.069  27.615   7.220
 4463POPC   C1B58483  29.307  27.930   6.224
 4463POPC   C2B58484  29.204  27.959   6.633
 4463POPC   C3B58485  29.396  27.880   6.965
 4463POPC   C4B58486  29.635  27.546   7.150
 4464POPC   NC358487  26.354  35.385   5.420
 4464POPC   PO458488  25.741  35.130   5.385
 4464POPC   GL158489  25.985  35.365   5.766
 4464POPC   GL258490  25.770  35.550   5.947
 4464POPC   C1A58491  26.211  35.488   6.221
 4464POPC   D2A58492  26.519  35.472   6.593
 4464POPC   C3A58493  26.346  35.299   6.989
 4464POPC   C4A58494  26.274  35.429   7.403
 4464POPC   C1B58495  25.739  35.444   6.380
 4464POPC   C2B58496  25.938  35.266   6.702
 4464POPC   C3B58497  25.852  35.436   7.101
 4464POPC   C4B58498  25.598  35.638   7.382
 4465POPC   NC358499  32.991   4.756   5.199
 4465POPC   PO458500  32.725   5.368   5.268
 4465POPC   GL158501  32.818   5.409   5.742
 4465POPC   GL258502  33.143   5.226   5.817
 4465POPC   C1A58503  32.711   5.138   6.118
 4465POPC   D2A58504  32.781   4.978   6.543
 4465POPC   C3A58505  32.687   5.055   7.000
 4465POPC   C4A58506  32.812   5.351   7.338
 4465POPC   C1B58507  33.159   4.891   6.135
 4465POPC   C2B58508  33.190   4.671   6.528
 4465POPC   C3B58509  33.154   4.858   6.934
 4465POPC   C4B58510  33.177   4.918   7.387
 4466POPC   NC358511   4.696  15.061   5.433
 4466POPC   PO458512   5.355  14.995   5.521
 4466POPC   GL158513   5.217  15.186   5.894
 4466POPC   GL258514   4.918  14.966   5.885
 4466POPC   C1A58515   5.367  15.432   6.257
 4466POPC   D2A58516   5.407  15.656   6.649
 4466POPC   C3A58517   5.471  15.340   6.990
 4466POPC   C4A58518   5.275  14.985   7.185
 4466POPC   C1B58519   4.957  15.039   6.323
 4466POPC   C2B58520   4.916  15.423   6.542
 4466POPC   C3B58521   4.964  15.448   6.959
 4466POPC   C4B58522   4.829  15.216   7.284
 4467POPC   NC358523  18.647   9.068   5.538
 4467POPC   PO458524  18.079   8.902   5.291
 4467POPC   GL158525  18.163   9.081   5.729
 4467POPC   GL258526  18.383   9.387   5.813
 4467POPC   C1A58527  18.321   8.840   6.096
 4467POPC   D2A58528  18.148   8.630   6.459
 4467POPC   C3A58529  18.231   8.830   6.842
 4467POPC   C4A58530  18.299   8.675   7.215
 4467POPC   C1B58531  18.549   9.307   6.226
 4467POPC   C2B58532  18.192   9.185   6.475
 4467POPC   C3B58533  17.975   9.363   6.828
 4467POPC   C4B58534  17.995   9.134   7.196
 4468POPC   NC358535  37.543  20.472   5.464
 4468POPC   PO458536  37.628  19.877   5.245
 4468POPC   GL158537  37.522  19.830   5.698
 4468POPC   GL258538  37.725  20.075   5.849
 4468POPC   C1A58539  37.308  19.893   6.125
 4468POPC   D2A58540  37.127  19.764   6.527
 4468POPC   C3A58541  37.272  19.916   6.867
 4468POPC   C4A58542  37.522  19.897   7.163
 4468POPC   C1B58543  37.795  19.846   6.268
 4468POPC   C2B58544  37.823  19.807   6.733
 4468POPC   C3B58545  38.051  19.882   7.125
 4468POPC   C4B58546  38.222  19.668   7.506
 4469POPC   NC358547  25.455  26.549   5.530
 4469POPC   PO458548  25.032  27.057   5.452
 4469POPC   GL158549  25.069  26.806   5.808
 4469POPC   GL258550  24.956  26.466   5.751
 4469POPC   C1A58551  25.235  26.936   6.232
 4469POPC   D2A58552  25.508  27.092   6.578
 4469POPC   C3A58553  25.315  26.904   6.922
 4469POPC   C4A58554  24.961  27.069   7.172
 4469POPC   C1B58555  25.182  26.418   6.131
 4469POPC   C2B58556  25.036  26.510   6.509
 4469POPC   C3B58557  25.180  26.396   6.926
 4469POPC   C4B58558  25.592  26.437   7.137
 4470POPC   NC358559   7.439  44.866   5.534
 4470POPC   PO458560   7.152  44.306   5.508
 4470POPC   GL158561   7.145  44.544   5.882
 4470POPC   GL258562   7.129  44.912   5.925
 4470POPC   C1A58563   7.195  44.499   6.323
 4470POPC   D2A58564   7.549  44.507   6.568
 4470POPC   C3A58565   7.449  44.543   6.981
 4470POPC   C4A58566   7.792  44.439   7.155
 4470POPC   C1B58567   7.475  44.920   6.243
 4470POPC   C2B58568   7.426  44.980   6.700
 4470POPC   C3B58569   7.318  44.999   7.144
 4470POPC   C4B58570   7.204   0.108   7.571
 4471POPC   NC358571  33.156   5.492   5.361
 4471POPC   PO458572  32.751   5.970   5.603
 4471POPC   GL158573  32.953   5.928   5.928
 4471POPC   GL258574  33.242   5.748   5.838
 4471POPC   C1A58575  32.839   5.931   6.331
 4471POPC   D2A58576  33.063   5.815   6.673
 4471POPC   C3A58577  32.831   5.741   6.969
 4471POPC   C4A58578  32.785   6.048   7.246
 4471POPC   C1B58579  33.092   5.510   6.216
 4471POPC   C2B58580  33.144   5.311   6.605
 4471POPC   C3B58581  33.228   5.406   7.001
 4471POPC   C4B58582  33.226   5.738   7.301
 4472POPC   NC358583  12.657  29.777   5.586
 4472POPC   PO458584  12.306  29.159   5.446
 4472POPC   GL158585  12.092  29.075   5.837
 4472POPC   GL258586  11.779  29.245   5.899
 4472POPC   C1A58587  12.005  28.946   6.280
 4472POPC   D2A58588  12.135  28.952   6.699
 4472POPC   C3A58589  11.854  29.060   7.018
 4472POPC   C4A58590  12.178  28.985   7.319
 4472POPC   C1B58591  12.041  29.471   6.189
 4472POPC   C2B58592  12.054  29.435   6.623
 4472POPC   C3B58593  12.204  29.416   7.035
 4472POPC   C4B58594  12.027  29.473   7.457
 4473POPC   NC358595  38.320   4.418   5.421
 4473POPC   PO458596  38.945   4.419   5.667
 4473POPC   GL158597  38.625   4.489   5.922
 4473POPC   GL258598  38.285   4.592   5.896
 4473POPC   C1A58599  38.533   4.374   6.322
 4473POPC   D2A58600  38.413   4.679   6.624
 4473POPC   C3A58601  38.686   4.611   6.970
 4473POPC   C4A58602  38.761   4.238   7.249
 4473POPC   C1B58603  38.040   4.375   6.216
 4473POPC   C2B58604  38.106   4.256   6.606
 4473POPC   C3B58605  38.296   4.273   6.986
 4473POPC   C4B58606  38.241   4.158   7.396
 4474POPC   NC358607   8.889  31.309   5.325
 4474POPC   PO458608   9.440  31.721   5.185
 4474POPC   GL158609   9.191  31.713   5.645
 4474POPC   GL258610   8.865  31.565   5.753
 4474POPC   C1A58611   9.248  31.463   6.069
 4474POPC   D2A58612   9.446  31.403   6.473
 4474POPC   C3A58613   9.246  31.516   6.841
 4474POPC   C4A58614   9.249  31.480   7.254
 4474POPC   C1B58615   8.704  31.529   6.147
 4474POPC   C2B58616   8.848  31.638   6.532
 4474POPC   C3B58617   8.738  31.649   6.950
 4474POPC   C4B58618   8.699  31.388   7.286
 4475POPC   NC358619  13.937  25.224   5.661
 4475POPC   PO458620  13.275  25.083   5.572
 4475POPC   GL158621  13.467  25.196   5.935
 4475POPC   GL258622  13.567  25.533   5.869
 4475POPC   C1A58623  13.535  25.143   6.374
 4475POPC   D2A58624  13.906  25.104   6.623
 4475POPC   C3A58625  13.778  25.257   6.970
 4475POPC   C4A58626  13.384  25.201   7.086
 4475POPC   C1B58627  13.857  25.536   6.230
 4475POPC   C2B58628  13.715  25.630   6.615
 4475POPC   C3B58629  13.884  25.771   6.970
 4475POPC   C4B58630  13.784  25.591   7.340
 4476POPC   NC358631  21.665   3.436   5.501
 4476POPC   PO458632  21.213   3.845   5.254
 4476POPC   GL158633  21.398   3.769   5.751
 4476POPC   GL258634  21.398   3.436   5.942
 4476POPC   C1A58635  21.265   3.794   6.250
 4476POPC   D2A58636  21.299   3.424   6.516
 4476POPC   C3A58637  21.361   3.521   6.942
 4476POPC   C4A58638  21.770   3.600   7.104
 4476POPC   C1B58639  21.724   3.508   6.234
 4476POPC   C2B58640  21.821   3.313   6.628
 4476POPC   C3B58641  21.686   3.107   6.995
 4476POPC   C4B58642  21.886   3.015   7.403
 4477POPC   NC358643   7.671  34.508   5.381
 4477POPC   PO458644   7.318  35.075   5.497
 4477POPC   GL158645   7.552  34.889   5.793
 4477POPC   GL258646   7.397  34.579   5.806
 4477POPC   C1A58647   7.495  34.956   6.250
 4477POPC   D2A58648   7.578  35.072   6.690
 4477POPC   C3A58649   7.416  34.796   7.002
 4477POPC   C4A58650   7.211  34.613   7.400
 4477POPC   C1B58651   7.303  34.387   6.179
 4477POPC   C2B58652   7.411  34.220   6.565
 4477POPC   C3B58653   7.358  34.296   7.000
 4477POPC   C4B58654   7.197  34.110   7.359
 4478POPC   NC358655  32.419  34.255   5.512
 4478POPC   PO458656  32.025  33.693   5.548
 4478POPC   GL158657  32.235  33.774   5.927
 4478POPC   GL258658  32.558  33.879   5.820
 4478POPC   C1A58659  32.133  33.959   6.355
 4478POPC   D2A58660  32.034  34.032   6.791
 4478POPC   C3A58661  32.273  33.757   7.073
 4478POPC   C4A58662  32.246  33.826   7.508
 4478POPC   C1B58663  32.636  33.926   6.248
 4478POPC   C2B58664  32.553  34.012   6.681
 4478POPC   C3B58665  32.651  34.124   7.088
 4478POPC   C4B58666  32.733  33.895   7.455
 4479POPC   NC358667  15.537   2.185   5.357
 4479POPC   PO458668  14.827   2.109   5.310
 4479POPC   GL158669  14.891   2.071   5.749
 4479POPC   GL258670  15.260   1.984   5.825
 4479POPC   C1A58671  14.900   1.932   6.184
 4479POPC   D2A58672  15.301   1.896   6.419
 4479POPC   C3A58673  15.263   1.895   6.870
 4479POPC   C4A58674  14.887   1.921   7.151
 4479POPC   C1B58675  15.466   2.294   6.124
 4479POPC   C2B58676  15.465   2.416   6.566
 4479POPC   C3B58677  15.312   2.406   6.973
 4479POPC   C4B58678  15.245   2.218   7.343
 4480POPC   NC358679   2.819   2.359   5.263
 4480POPC   PO458680   2.821   3.036   5.351
 4480POPC   GL158681   2.659   2.768   5.730
 4480POPC   GL258682   2.636   2.369   5.757
 4480POPC   C1A58683   2.528   2.772   6.214
 4480POPC   D2A58684   2.324   2.911   6.647
 4480POPC   C3A58685   2.532   2.978   7.091
 4480POPC   C4A58686   2.993   2.995   7.159
 4480POPC   C1B58687   2.947   2.508   6.054
 4480POPC   C2B58688   3.011   2.716   6.441
 4480POPC   C3B58689   2.796   2.658   6.803
 4480POPC   C4B58690   2.771   2.532   7.230
 4481POPC   NC358691   9.408  27.392   5.608
 4481POPC   PO458692  10.058  27.564   5.461
 4481POPC   GL158693   9.829  27.599   5.847
 4481POPC   GL258694   9.828  27.220   5.853
 4481POPC   C1A58695   9.630  27.703   6.257
 4481POPC   D2A58696   9.468  27.775   6.679
 4481POPC   C3A58697   9.426  27.363   6.861
 4481POPC   C4A58698   9.386  27.310   7.309
 4481POPC   C1B58699   9.961  27.278   6.251
 4481POPC   C2B58700   9.888  27.463   6.655
 4481POPC   C3B58701   9.880  27.380   7.085
 4481POPC   C4B58702  10.167  27.193   7.346
 4482POPC   NC358703  29.555  30.003   5.067
 4482POPC   PO458704  29.117  29.833   5.567
 4482POPC   GL158705  28.957  30.078   5.894
 4482POPC   GL258706  28.956  29.808   6.121
 4482POPC   C1A58707  29.161  30.243   6.266
 4482POPC   D2A58708  28.905  30.072   6.563
 4482POPC   C3A58709  29.050  29.901   6.935
 4482POPC   C4A58710  28.910  30.101   7.288
 4482POPC   C1B58711  29.395  29.749   6.276
 4482POPC   C2B58712  29.638  29.691   6.670
 4482POPC   C3B58713  29.518  29.684   7.106
 4482POPC   C4B58714  29.151  29.667   7.409
 4483POPC   NC358715   1.742   3.935   5.305
 4483POPC   PO458716   2.117   4.473   5.380
 4483POPC   GL158717   1.916   4.393   5.796
 4483POPC   GL258718   1.779   4.072   5.809
 4483POPC   C1A58719   1.970   4.535   6.219
 4483POPC   D2A58720   2.154   4.384   6.611
 4483POPC   C3A58721   1.946   4.451   7.013
 4483POPC   C4A58722   1.874   4.408   7.490
 4483POPC   C1B58723   1.639   4.126   6.234
 4483POPC   C2B58724   1.740   4.101   6.671
 4483POPC   C3B58725   1.576   4.116   7.084
 4483POPC   C4B58726   1.397   4.244   7.487
 4484POPC   NC358727  19.367  39.868   5.348
 4484POPC   PO458728  18.888  40.374   5.455
 4484POPC   GL158729  18.941  40.062   5.769
 4484POPC   GL258730  19.245  39.866   5.831
 4484POPC   C1A58731  18.763  39.894   6.136
 4484POPC   D2A58732  18.604  39.764   6.516
 4484POPC   C3A58733  18.703  39.969   6.901
 4484POPC   C4A58734  18.931  39.776   7.215
 4484POPC   C1B58735  19.226  40.119   6.207
 4484POPC   C2B58736  19.042  40.224   6.588
 4484POPC   C3B58737  19.217  40.138   6.982
 4484POPC   C4B58738  19.416  39.741   7.056
 4485POPC   NC358739  10.231  27.105   5.523
 4485POPC   PO458740   9.520  26.954   5.532
 4485POPC   GL158741   9.687  26.685   5.786
 4485POPC   GL258742   9.469  26.414   5.837
 4485POPC   C1A58743   9.909  26.770   6.163
 4485POPC   D2A58744   9.774  26.944   6.576
 4485POPC   C3A58745   9.949  26.875   6.957
 4485POPC   C4A58746   9.722  26.940   7.314
 4485POPC   C1B58747   9.456  26.581   6.274
 4485POPC   C2B58748   9.588  26.472   6.694
 4485POPC   C3B58749   9.702  26.458   7.133
 4485POPC   C4B58750   9.549  26.553   7.575
 4486POPC   NC358751   5.032  32.259   5.011
 4486POPC   PO458752   5.533  32.101   5.351
 4486POPC   GL158753   5.335  32.143   5.805
 4486POPC   GL258754   5.514  31.989   6.070
 4486POPC   C1A58755   5.149  32.276   6.261
 4486POPC   D2A58756   5.231  32.379   6.716
 4486POPC   C3A58757   4.990  32.338   7.098
 4486POPC   C4A58758   4.902  32.195   7.517
 4486POPC   C1B58759   5.265  31.811   6.441
 4486POPC   C2B58760   5.089  31.883   6.852
 4486POPC   C3B58761   5.169  31.806   7.294
 4486POPC   C4B58762   5.298  31.934   7.745
 4487POPC   NC358763  10.851  28.437   5.273
 4487POPC   PO458764  10.419  27.967   5.365
 4487POPC   GL158765  10.677  28.194   5.702
 4487POPC   GL258766  10.681  28.564   5.819
 4487POPC   C1A58767  10.723  28.195   6.151
 4487POPC   D2A58768  10.428  28.164   6.489
 4487POPC   C3A58769  10.589  28.111   6.900
 4487POPC   C4A58770  10.433  28.359   7.224
 4487POPC   C1B58771  10.493  28.644   6.253
 4487POPC   C2B58772  10.578  28.715   6.702
 4487POPC   C3B58773  10.495  28.832   7.150
 4487POPC   C4B58774  10.587  28.876   7.615
 4488POPC   NC358775  34.990   9.706   5.149
 4488POPC   PO458776  34.307   9.894   5.114
 4488POPC   GL158777  34.577   9.887   5.530
 4488POPC   GL258778  34.741  10.215   5.629
 4488POPC   C1A58779  34.557   9.785   6.012
 4488POPC   D2A58780  34.680   9.585   6.451
 4488POPC   C3A58781  34.471   9.699   6.851
 4488POPC   C4A58782  34.504   9.563   7.286
 4488POPC   C1B58783  34.638  10.299   6.078
 4488POPC   C2B58784  34.487  10.089   6.470
 4488POPC   C3B58785  34.676  10.169   6.871
 4488POPC   C4B58786  34.898   9.946   7.164
 4489POPC   NC358787   6.975  13.049   5.431
 4489POPC   PO458788   6.596  12.546   5.689
 4489POPC   GL158789   6.664  12.965   5.845
 4489POPC   GL258790   6.393  13.154   5.697
 4489POPC   C1A58791   6.835  13.118   6.241
 4489POPC   D2A58792   6.933  13.121   6.679
 4489POPC   C3A58793   7.009  12.715   6.879
 4489POPC   C4A58794   6.892  12.703   7.311
 4489POPC   C1B58795   6.260  13.064   6.148
 4489POPC   C2B58796   6.325  12.878   6.564
 4489POPC   C3B58797   6.520  12.846   6.960
 4489POPC   C4B58798   6.453  12.997   7.364
 4490POPC   NC358799  33.013  43.434   5.472
 4490POPC   PO458800  32.932  44.200   5.468
 4490POPC   GL158801  32.824  44.076   5.882
 4490POPC   GL258802  32.892  43.725   5.886
 4490POPC   C1A58803  33.021  44.089   6.308
 4490POPC   D2A58804  33.300  43.863   6.610
 4490POPC   C3A58805  33.102  43.891   7.027
 4490POPC   C4A58806  33.372  43.947   7.364
 4490POPC   C1B58807  32.809  43.488   6.255
 4490POPC   C2B58808  32.882  43.561   6.677
 4490POPC   C3B58809  32.715  43.428   7.058
 4490POPC   C4B58810  32.576  43.760   7.254
 4491POPC   NC358811  16.130  31.037   5.520
 4491POPC   PO458812  15.735  30.591   5.391
 4491POPC   GL158813  15.869  30.697   5.796
 4491POPC   GL258814  16.011  30.386   5.823
 4491POPC   C1A58815  15.919  30.832   6.249
 4491POPC   D2A58816  16.201  30.947   6.609
 4491POPC   C3A58817  16.051  31.086   7.011
 4491POPC   C4A58818  15.679  30.919   7.181
 4491POPC   C1B58819  15.717  30.360   6.162
 4491POPC   C2B58820  15.820  30.459   6.598
 4491POPC   C3B58821  16.085  30.426   6.947
 4491POPC   C4B58822  16.117  30.672   7.304
 4492POPC   NC358823   0.509  16.114   5.394
 4492POPC   PO458824   0.609  15.470   5.505
 4492POPC   GL158825   0.404  15.781   5.802
 4492POPC   GL258826   0.561  16.113   5.905
 4492POPC   C1A58827   0.309  15.825   6.253
 4492POPC   D2A58828   0.505  15.965   6.628
 4492POPC   C3A58829   0.333  15.792   7.005
 4492POPC   C4A58830   0.540  15.752   7.392
 4492POPC   C1B58831   0.379  16.351   6.259
 4492POPC   C2B58832   0.495  16.485   6.690
 4492POPC   C3B58833   0.591  16.234   7.080
 4492POPC   C4B58834   0.260  16.209   7.401
 4493POPC   NC358835  16.821  40.548   5.278
 4493POPC   PO458836  16.287  40.575   5.632
 4493POPC   GL158837  16.755  40.664   5.767
 4493POPC   GL258838  16.943  40.366   5.827
 4493POPC   C1A58839  17.089  40.736   6.148
 4493POPC   D2A58840  17.216  40.962   6.567
 4493POPC   C3A58841  17.047  40.826   6.989
 4493POPC   C4A58842  16.818  40.985   7.354
 4493POPC   C1B58843  16.676  40.436   6.193
 4493POPC   C2B58844  16.847  40.551   6.580
 4493POPC   C3B58845  16.920  40.315   6.939
 4493POPC   C4B58846  17.072  40.200   7.315
 4494POPC   NC358847  20.596   4.229   5.451
 4494POPC   PO458848  20.112   4.666   5.348
 4494POPC   GL158849  20.404   4.609   5.777
 4494POPC   GL258850  20.676   4.336   5.943
 4494POPC   C1A58851  20.314   4.554   6.239
 4494POPC   D2A58852  20.161   4.322   6.610
 4494POPC   C3A58853  20.319   4.499   7.005
 4494POPC   C4A58854  20.727   4.460   7.186
 4494POPC   C1B58855  20.709   3.972   6.262
 4494POPC   C2B58856  20.723   4.059   6.725
 4494POPC   C3B58857  20.533   3.990   7.121
 4494POPC   C4B58858  20.688   3.926   7.522
 4495POPC   NC358859  10.159  32.196   5.380
 4495POPC   PO458860  10.806  32.207   5.432
 4495POPC   GL158861  10.748  32.452   5.796
 4495POPC   GL258862  10.384  32.400   5.799
 4495POPC   C1A58863  10.842  32.324   6.232
 4495POPC   D2A58864  10.571  32.207   6.625
 4495POPC   C3A58865  10.634  31.936   6.988
 4495POPC   C4A58866  10.779  32.292   7.183
 4495POPC   C1B58867  10.328  32.208   6.183
 4495POPC   C2B58868  10.045  32.209   6.544
 4495POPC   C3B58869  10.141  32.124   6.990
 4495POPC   C4B58870  10.295  32.250   7.404
 4496POPC   NC358871  20.741  18.425   5.287
 4496POPC   PO458872  20.775  17.902   5.728
 4496POPC   GL158873  20.694  18.352   5.809
 4496POPC   GL258874  20.337  18.472   5.899
 4496POPC   C1A58875  20.723  18.574   6.205
 4496POPC   D2A58876  20.398  18.534   6.523
 4496POPC   C3A58877  20.532  18.334   6.915
 4496POPC   C4A58878  20.830  18.216   7.257
 4496POPC   C1B58879  20.364  18.117   6.214
 4496POPC   C2B58880  20.621  17.855   6.517
 4496POPC   C3B58881  20.633  17.829   6.976
 4496POPC   C4B58882  20.355  18.027   7.299
 4497POPC   NC358883  22.476  26.124   5.516
 4497POPC   PO458884  21.903  26.232   5.419
 4497POPC   GL158885  21.894  25.816   5.675
 4497POPC   GL258886  22.257  25.721   5.751
 4497POPC   C1A58887  21.911  25.654   6.124
 4497POPC   D2A58888  22.043  25.905   6.455
 4497POPC   C3A58889  22.205  25.880   6.877
 4497POPC   C4A58890  22.012  25.960   7.274
 4497POPC   C1B58891  22.437  25.920   6.151
 4497POPC   C2B58892  22.448  26.218   6.524
 4497POPC   C3B58893  22.471  26.319   6.957
 4497POPC   C4B58894  22.540  26.023   7.272
 4498POPC   NC358895   0.090  25.792   5.292
 4498POPC   PO458896  44.457  26.144   5.276
 4498POPC   GL158897  44.613  25.984   5.709
 4498POPC   GL258898  44.986  25.895   5.794
 4498POPC   C1A58899  44.579  26.105   6.164
 4498POPC   D2A58900  44.484  25.961   6.569
 4498POPC   C3A58901  44.536  26.210   6.941
 4498POPC   C4A58902  44.389  26.014   7.305
 4498POPC   C1B58903   0.073  26.166   6.164
 4498POPC   C2B58904  44.933  26.214   6.606
 4498POPC   C3B58905   0.035  26.165   7.064
 4498POPC   C4B58906  44.953  26.147   7.542
 4499POPC   NC358907  31.043   9.156   5.458
 4499POPC   PO458908  30.535   8.704   5.438
 4499POPC   GL158909  30.655   8.997   5.796
 4499POPC   GL258910  30.589   9.343   5.692
 4499POPC   C1A58911  30.735   8.978   6.261
 4499POPC   D2A58912  30.564   8.981   6.680
 4499POPC   C3A58913  30.813   8.817   7.061
 4499POPC   C4A58914  30.924   8.811   7.563
 4499POPC   C1B58915  30.827   9.440   6.075
 4499POPC   C2B58916  30.746   9.512   6.529
 4499POPC   C3B58917  30.612   9.401   6.961
 4499POPC   C4B58918  30.662   9.179   7.365
 4500POPC   NC358919   7.170  21.771   5.059
 4500POPC   PO458920   7.115  22.332   5.463
 4500POPC   GL158921   7.414  22.204   5.801
 4500POPC   GL258922   7.511  21.858   5.802
 4500POPC   C1A58923   7.537  22.198   6.243
 4500POPC   D2A58924   7.263  22.117   6.606
 4500POPC   C3A58925   7.321  22.255   7.038
 4500POPC   C4A58926   7.664  22.268   7.318
 4500POPC   C1B58927   7.179  21.851   6.162
 4500POPC   C2B58928   7.127  21.613   6.526
 4500POPC   C3B58929   7.248  21.711   6.932
 4500POPC   C4B58930   7.083  21.868   7.288
 4501POPC   NC358931   3.017  30.974   5.104
 4501POPC   PO458932   2.600  30.494   5.338
 4501POPC   GL158933   2.645  30.644   5.825
 4501POPC   GL258934   2.523  30.980   5.932
 4501POPC   C1A58935   2.768  30.506   6.257
 4501POPC   D2A58936   2.635  30.610   6.676
 4501POPC   C3A58937   2.784  30.446   7.020
 4501POPC   C4A58938   3.043  30.483   7.329
 4501POPC   C1B58939   2.643  31.029   6.378
 4501POPC   C2B58940   2.975  30.989   6.679
 4501POPC   C3B58941   3.016  30.967   7.115
 4501POPC   C4B58942   2.844  31.273   7.430
 4502POPC   NC358943  35.443   3.264   5.473
 4502POPC   PO458944  34.869   3.591   5.403
 4502POPC   GL158945  35.146   3.505   5.803
 4502POPC   GL258946  35.474   3.677   5.833
 4502POPC   C1A58947  35.303   3.303   6.216
 4502POPC   D2A58948  35.487   3.095   6.619
 4502POPC   C3A58949  35.357   3.311   7.020
 4502POPC   C4A58950  35.149   3.689   7.170
 4502POPC   C1B58951  35.717   3.603   6.239
 4502POPC   C2B58952  35.643   3.633   6.679
 4502POPC   C3B58953  35.857   3.577   7.056
 4502POPC   C4B58954  35.734   3.685   7.471
 4503POPC   NC358955  10.278  35.016   5.581
 4503POPC   PO458956  10.539  35.614   5.498
 4503POPC   GL158957  10.736  35.398   5.837
 4503POPC   GL258958  10.791  35.066   5.782
 4503POPC   C1A58959  10.543  35.335   6.241
 4503POPC   D2A58960  10.309  35.625   6.499
 4503POPC   C3A58961  10.436  35.626   6.918
 4503POPC   C4A58962  10.440  35.492   7.327
 4503POPC   C1B58963  10.773  34.882   6.201
 4503POPC   C2B58964  10.589  34.918   6.610
 4503POPC   C3B58965  10.789  34.803   7.008
 4503POPC   C4B58966  10.717  35.041   7.395
 4504POPC   NC358967  11.796  20.140   5.436
 4504POPC   PO458968  12.243  19.665   5.356
 4504POPC   GL158969  12.117  19.760   5.743
 4504POPC   GL258970  12.298  20.058   5.900
 4504POPC   C1A58971  12.223  19.610   6.162
 4504POPC   D2A58972  12.225  19.427   6.579
 4504POPC   C3A58973  12.235  19.747   6.860
 4504POPC   C4A58974  12.002  19.866   7.172
 4504POPC   C1B58975  11.896  20.016   6.116
 4504POPC   C2B58976  11.808  19.881   6.538
 4504POPC   C3B58977  11.830  20.195   6.821
 4504POPC   C4B58978  11.877  20.348   7.216
 4505POPC   NC358979   1.491  39.315   5.473
 4505POPC   PO458980   0.886  38.993   5.287
 4505POPC   GL158981   1.097  38.917   5.778
 4505POPC   GL258982   1.420  39.017   5.859
 4505POPC   C1A58983   1.251  38.852   6.282
 4505POPC   D2A58984   1.175  39.180   6.583
 4505POPC   C3A58985   1.078  39.159   6.974
 4505POPC   C4A58986   1.079  39.380   7.338
 4505POPC   C1B58987   1.468  39.372   6.199
 4505POPC   C2B58988   1.478  39.622   6.618
 4505POPC   C3B58989   1.513  39.482   7.068
 4505POPC   C4B58990   1.512  39.527   7.563
 4506POPC   NC358991  29.883  43.430   5.406
 4506POPC   PO458992  30.017  42.793   5.429
 4506POPC   GL158993  29.746  43.030   5.794
 4506POPC   GL258994  29.662  43.390   5.866
 4506POPC   C1A58995  29.645  43.055   6.265
 4506POPC   D2A58996  29.751  43.194   6.697
 4506POPC   C3A58997  30.091  43.024   7.010
 4506POPC   C4A58998  30.329  42.811   7.383
 4506POPC   C1B58999  29.997  43.443   6.189
 4506POPC   C2B59000  29.974  43.664   6.594
 4506POPC   C3B59001  29.964  43.537   6.998
 4506POPC   C4B59002  29.592  43.358   7.191
 4507POPC   NC359003  21.613  30.997   5.410
 4507POPC   PO459004  21.278  30.411   5.309
 4507POPC   GL159005  21.262  30.464   5.738
 4507POPC   GL259006  21.599  30.399   5.852
 4507POPC   C1A59007  21.302  30.767   6.096
 4507POPC   D2A59008  21.259  30.715   6.545
 4507POPC   C3A59009  21.263  31.070   6.835
 4507POPC   C4A59010  21.096  31.046   7.245
 4507POPC   C1B59011  21.661  30.466   6.314
 4507POPC   C2B59012  21.778  30.518   6.751
 4507POPC   C3B59013  21.480  30.647   7.082
 4507POPC   C4B59014  21.236  30.407   7.334
 4508POPC   NC359015   7.597   0.703   5.537
 4508POPC   PO459016   7.112   0.202   5.485
 4508POPC   GL159017   7.176   0.492   5.803
 4508POPC   GL259018   6.932   0.779   5.749
 4508POPC   C1A59019   7.324   0.404   6.221
 4508POPC   D2A59020   7.688   0.376   6.494
 4508POPC   C3A59021   7.593   0.419   6.921
 4508POPC   C4A59022   7.680   0.337   7.351
 4508POPC   C1B59023   6.932   0.740   6.195
 4508POPC   C2B59024   7.248   0.811   6.523
 4508POPC   C3B59025   7.282   0.842   6.955
 4508POPC   C4B59026   7.189   0.485   7.223
 4509POPC   NC359027  34.174  11.726   5.624
 4509POPC   PO459028  33.814  12.253   5.418
 4509POPC   GL159029  33.722  12.231   5.868
 4509POPC   GL259030  33.657  11.893   5.782
 4509POPC   C1A59031  33.880  12.105   6.298
 4509POPC   D2A59032  34.152  12.070   6.682
 4509POPC   C3A59033  34.026  12.319   7.044
 4509POPC   C4A59034  33.797  12.332   7.440
 4509POPC   C1B59035  33.576  11.702   6.165
 4509POPC   C2B59036  33.496  11.831   6.598
 4509POPC   C3B59037  33.738  11.874   6.950
 4509POPC   C4B59038  34.095  11.785   7.155
 4510POPC   NC359039  24.164  12.351   5.489
 4510POPC   PO459040  24.670  11.823   5.436
 4510POPC   GL159041  24.458  12.013   5.811
 4510POPC   GL259042  24.579  12.324   5.785
 4510POPC   C1A59043  24.183  12.044   6.200
 4510POPC   D2A59044  23.960  11.955   6.570
 4510POPC   C3A59045  24.109  12.152   6.953
 4510POPC   C4A59046  24.274  12.243   7.362
 4510POPC   C1B59047  24.360  12.513   6.141
 4510POPC   C2B59048  24.381  12.377   6.579
 4510POPC   C3B59049  24.616  12.215   6.975
 4510POPC   C4B59050  24.749  12.075   7.402
 4511POPC   NC359051  18.918   1.502   5.655
 4511POPC   PO459052  19.085   0.876   5.439
 4511POPC   GL159053  18.958   0.987   5.871
 4511POPC   GL259054  19.235   1.191   5.938
 4511POPC   C1A59055  18.988   1.051   6.365
 4511POPC   D2A59056  18.715   1.185   6.750
 4511POPC   C3A59057  18.741   1.125   7.205
 4511POPC   C4A59058  18.831   0.853   7.581
 4511POPC   C1B59059  19.535   1.052   6.263
 4511POPC   C2B59060  19.496   1.044   6.705
 4511POPC   C3B59061  19.218   1.248   6.992
 4511POPC   C4B59062  19.267   1.618   7.261
 4512POPC   NC359063  34.974  32.961   5.378
 4512POPC   PO459064  35.167  33.517   5.531
 4512POPC   GL159065  35.338  33.169   5.756
 4512POPC   GL259066  35.182  32.839   5.875
 4512POPC   C1A59067  35.571  33.077   6.127
 4512POPC   D2A59068  35.474  33.009   6.536
 4512POPC   C3A59069  35.616  33.151   6.924
 4512POPC   C4A59070  35.276  33.015   7.167
 4512POPC   C1B59071  35.519  32.573   6.127
 4512POPC   C2B59072  35.714  32.560   6.517
 4512POPC   C3B59073  35.481  32.609   6.876
 4512POPC   C4B59074  35.630  32.634   7.265
 4513POPC   NC359075  44.740  43.016   5.217
 4513POPC   PO459076  44.438  43.532   5.606
 4513POPC   GL159077  44.608  43.208   5.853
 4513POPC   GL259078  44.872  42.988   5.741
 4513POPC   C1A59079  44.672  43.314   6.282
 4513POPC   D2A59080  44.600  43.537   6.666
 4513POPC   C3A59081  44.331  43.372   6.916
 4513POPC   C4A59082  44.197  43.036   7.095
 4513POPC   C1B59083   0.087  43.042   6.179
 4513POPC   C2B59084   0.023  43.198   6.640
 4513POPC   C3B59085  44.797  43.202   7.052
 4513POPC   C4B59086  44.864  42.928   7.416
 4514POPC   NC359087   7.802  15.056   5.518
 4514POPC   PO459088   8.136  15.606   5.362
 4514POPC   GL159089   8.223  15.455   5.796
 4514POPC   GL259090   8.212  15.085   5.827
 4514POPC   C1A59091   8.132  15.344   6.256
 4514POPC   D2A59092   7.903  15.225   6.617
 4514POPC   C3A59093   8.199  15.239   6.925
 4514POPC   C4A59094   8.172  15.290   7.353
 4514POPC   C1B59095   8.089  14.843   6.211
 4514POPC   C2B59096   8.315  14.823   6.628
 4514POPC   C3B59097   8.316  14.781   7.090
 4514POPC   C4B59098   8.347  14.840   7.552
 4515POPC   NC359099  30.762  14.608   5.450
 4515POPC   PO459100  30.647  13.976   5.640
 4515POPC   GL159101  30.832  14.289   5.858
 4515POPC   GL259102  30.517  14.484   5.869
 4515POPC   C1A59103  30.905  14.377   6.284
 4515POPC   D2A59104  30.695  14.434   6.674
 4515POPC   C3A59105  30.811  14.299   7.084
 4515POPC   C4A59106  30.733  14.160   7.515
 4515POPC   C1B59107  30.399  14.253   6.207
 4515POPC   C2B59108  30.521  13.978   6.510
 4515POPC   C3B59109  30.375  14.057   6.928
 4515POPC   C4B59110  30.283  14.313   7.286
 4516POPC   NC359111  13.823  28.754   5.336
 4516POPC   PO459112  13.404  28.286   5.443
 4516POPC   GL159113  13.464  28.405   5.843
 4516POPC   GL259114  13.801  28.525   5.803
 4516POPC   C1A59115  13.474  28.472   6.278
 4516POPC   D2A59116  13.239  28.486   6.625
 4516POPC   C3A59117  13.444  28.307   6.935
 4516POPC   C4A59118  13.660  28.152   7.304
 4516POPC   C1B59119  13.906  28.233   6.156
 4516POPC   C2B59120  13.962  28.411   6.563
 4516POPC   C3B59121  13.910  28.462   6.996
 4516POPC   C4B59122  13.840  28.649   7.438
 4517POPC   NC359123   9.573  37.229   5.378
 4517POPC   PO459124   9.993  36.703   5.086
 4517POPC   GL159125   9.884  36.850   5.542
 4517POPC   GL259126   9.576  36.739   5.757
 4517POPC   C1A59127   9.954  36.974   6.002
 4517POPC   D2A59128   9.731  36.736   6.361
 4517POPC   C3A59129   9.746  36.843   6.824
 4517POPC   C4A59130   9.809  36.985   7.294
 4517POPC   C1B59131   9.461  37.097   6.029
 4517POPC   C2B59132   9.477  37.169   6.472
 4517POPC   C3B59133   9.386  37.190   6.913
 4517POPC   C4B59134   9.314  37.106   7.348
 4518POPC   NC359135   8.657  21.010   5.407
 4518POPC   PO459136   9.182  21.466   5.337
 4518POPC   GL159137   8.927  21.357   5.703
 4518POPC   GL259138   9.010  21.021   5.778
 4518POPC   C1A59139   9.049  21.485   6.141
 4518POPC   D2A59140   9.034  21.290   6.570
 4518POPC   C3A59141   8.835  21.563   6.875
 4518POPC   C4A59142   8.907  21.705   7.298
 4518POPC   C1B59143   8.789  21.046   6.155
 4518POPC   C2B59144   8.564  21.043   6.545
 4518POPC   C3B59145   8.689  21.056   6.973
 4518POPC   C4B59146   8.520  21.369   7.246
 4519POPC   NC359147  20.773  29.702   5.345
 4519POPC   PO459148  20.446  30.223   5.628
 4519POPC   GL159149  20.638  29.964   5.868
 4519POPC   GL259150  20.955  30.027   5.731
 4519POPC   C1A59151  20.699  30.066   6.312
 4519POPC   D2A59152  20.612  30.185   6.753
 4519POPC   C3A59153  20.672  29.938   7.125
 4519POPC   C4A59154  20.811  30.178   7.486
 4519POPC   C1B59155  21.020  29.706   6.090
 4519POPC   C2B59156  20.813  29.584   6.467
 4519POPC   C3B59157  20.660  29.458   6.860
 4519POPC   C4B59158  20.848  29.451   7.215
 4520POPC   NC359159  27.163  14.710   5.464
 4520POPC   PO459160  26.952  15.311   5.194
 4520POPC   GL159161  26.868  15.262   5.667
 4520POPC   GL259162  26.622  15.006   5.719
 4520POPC   C1A59163  26.910  15.267   6.132
 4520POPC   D2A59164  27.122  15.189   6.535
 4520POPC   C3A59165  26.991  15.023   6.959
 4520POPC   C4A59166  27.003  15.236   7.385
 4520POPC   C1B59167  26.478  15.015   6.146
 4520POPC   C2B59168  26.603  15.131   6.561
 4520POPC   C3B59169  26.523  14.820   6.876
 4520POPC   C4B59170  26.570  14.900   7.296
 4521POPC   NC359171   8.613  18.540   5.374
 4521POPC   PO459172   8.043  18.145   5.427
 4521POPC   GL159173   8.166  18.329   5.799
 4521POPC   GL259174   8.475  18.249   5.777
 4521POPC   C1A59175   8.230  18.591   6.151
 4521POPC   D2A59176   8.158  18.695   6.569
 4521POPC   C3A59177   8.128  18.363   6.880
 4521POPC   C4A59178   7.819  18.366   7.228
 4521POPC   C1B59179   8.610  18.110   6.141
 4521POPC   C2B59180   8.521  18.264   6.521
 4521POPC   C3B59181   8.554  18.018   6.874
 4521POPC   C4B59182   8.444  17.983   7.299
 4522POPC   NC359183   2.324  43.179   5.544
 4522POPC   PO459184   3.013  43.048   5.610
 4522POPC   GL159185   2.681  43.117   5.906
 4522POPC   GL259186   2.471  42.783   5.867
 4522POPC   C1A59187   2.685  43.282   6.331
 4522POPC   D2A59188   2.689  43.380   6.769
 4522POPC   C3A59189   3.001  43.201   7.083
 4522POPC   C4A59190   2.890  43.026   7.506
 4522POPC   C1B59191   2.727  42.744   6.267
 4522POPC   C2B59192   2.922  42.816   6.704
 4522POPC   C3B59193   2.678  42.797   7.087
 4522POPC   C4B59194   2.431  42.793   7.454
 4523POPC   NC359195   4.608  10.784   5.342
 4523POPC   PO459196   4.013  10.530   5.203
 4523POPC   GL159197   4.272  10.468   5.612
 4523POPC   GL259198   4.550  10.250   5.757
 4523POPC   C1A59199   4.278  10.618   6.059
 4523POPC   D2A59200   4.480  10.678   6.473
 4523POPC   C3A59201   4.283  10.484   6.852
 4523POPC   C4A59202   4.003  10.481   7.223
 4523POPC   C1B59203   4.377  10.144   6.173
 4523POPC   C2B59204   4.147   9.972   6.525
 4523POPC   C3B59205   4.003  10.036   6.925
 4523POPC   C4B59206   4.321  10.074   7.203
 4524POPC   NC359207  25.973  44.633   5.166
 4524POPC   PO459208  26.378   0.002   5.490
 4524POPC   GL159209  26.253  44.792   5.892
 4524POPC   GL259210  26.080  44.513   5.781
 4524POPC   C1A59211  26.270  44.859   6.371
 4524POPC   D2A59212  26.402  44.971   6.822
 4524POPC   C3A59213  26.116  44.924   7.197
 4524POPC   C4A59214  25.906   0.244   7.475
 4524POPC   C1B59215  25.941  44.484   6.236
 4524POPC   C2B59216  26.060  44.497   6.694
 4524POPC   C3B59217  25.875  44.472   7.118
 4524POPC   C4B59218  25.859  44.296   7.536
 4525POPC   NC359219  40.498  15.120   5.048
 4525POPC   PO459220  40.989  15.021   5.487
 4525POPC   GL159221  40.758  15.100   5.871
 4525POPC   GL259222  40.968  15.399   5.893
 4525POPC   C1A59223  40.517  15.085   6.290
 4525POPC   D2A59224  40.311  15.377   6.612
 4525POPC   C3A59225  40.609  15.501   6.953
 4525POPC   C4A59226  40.766  15.453   7.402
 4525POPC   C1B59227  41.096  15.155   6.249
 4525POPC   C2B59228  40.938  15.231   6.638
 4525POPC   C3B59229  41.048  15.212   7.042
 4525POPC   C4B59230  41.080  14.997   7.427
 4526POPC   NC359231   0.870  18.904   5.474
 4526POPC   PO459232   0.187  19.048   5.414
 4526POPC   GL159233   0.481  19.099   5.774
 4526POPC   GL259234   0.640  18.796   5.918
 4526POPC   C1A59235   0.506  19.214   6.213
 4526POPC   D2A59236   0.344  19.121   6.631
 4526POPC   C3A59237   0.100  19.377   6.908
 4526POPC   C4A59238   0.247  19.307   7.292
 4526POPC   C1B59239   0.447  18.712   6.336
 4526POPC   C2B59240   0.448  18.646   6.791
 4526POPC   C3B59241   0.544  18.903   7.111
 4526POPC   C4B59242   0.631  18.833   7.526
 4527POPC   NC359243  20.095   6.588   5.470
 4527POPC   PO459244  19.544   6.123   5.446
 4527POPC   GL159245  19.749   6.330   5.817
 4527POPC   GL259246  20.081   6.249   5.894
 4527POPC   C1A59247  19.773   6.481   6.266
 4527POPC   D2A59248  19.527   6.620   6.623
 4527POPC   C3A59249  19.742   6.622   7.019
 4527POPC   C4A59250  19.891   6.770   7.400
 4527POPC   C1B59251  20.271   6.446   6.256
 4527POPC   C2B59252  20.109   6.585   6.657
 4527POPC   C3B59253  20.260   6.531   7.083
 4527POPC   C4B59254  20.444   6.820   7.370
 4528POPC   NC359255  29.904  16.239   5.695
 4528POPC   PO459256  29.950  15.548   5.519
 4528POPC   GL159257  29.704  15.778   5.837
 4528POPC   GL259258  29.627  15.534   6.009
 4528POPC   C1A59259  29.719  15.993   6.285
 4528POPC   D2A59260  29.976  16.314   6.532
 4528POPC   C3A59261  30.111  16.237   6.960
 4528POPC   C4A59262  29.804  16.004   7.210
 4528POPC   C1B59263  30.072  15.640   6.159
 4528POPC   C2B59264  30.232  15.873   6.491
 4528POPC   C3B59265  30.043  15.742   6.851
 4528POPC   C4B59266  30.160  15.658   7.277
 4529POPC   NC359267  14.175  29.675   5.504
 4529POPC   PO459268  14.528  30.248   5.477
 4529POPC   GL159269  14.436  29.995   5.847
 4529POPC   GL259270  14.451  29.640   5.938
 4529POPC   C1A59271  14.478  30.053   6.285
 4529POPC   D2A59272  14.816  30.252   6.504
 4529POPC   C3A59273  14.716  30.249   6.933
 4529POPC   C4A59274  14.561  30.073   7.314
 4529POPC   C1B59275  14.049  29.808   6.133
 4529POPC   C2B59276  14.169  29.732   6.551
 4529POPC   C3B59277  14.298  29.869   6.922
 4529POPC   C4B59278  14.059  29.872   7.268
 4530POPC   NC359279  30.793  22.634   5.428
 4530POPC   PO459280  30.370  23.063   5.168
 4530POPC   GL159281  30.563  23.103   5.636
 4530POPC   GL259282  30.925  23.080   5.766
 4530POPC   C1A59283  30.584  22.892   6.090
 4530POPC   D2A59284  30.753  22.891   6.526
 4530POPC   C3A59285  30.441  22.920   6.877
 4530POPC   C4A59286  30.435  22.688   7.224
 4530POPC   C1B59287  30.900  23.309   6.207
 4530POPC   C2B59288  31.066  23.299   6.660
 4530POPC   C3B59289  30.882  23.148   7.072
 4530POPC   C4B59290  30.932  23.276   7.507
 4531POPC   NC359291  27.146   3.424   5.632
 4531POPC   PO459292  27.623   3.767   5.202
 4531POPC   GL159293  27.509   3.770   5.640
 4531POPC   GL259294  27.651   3.440   5.773
 4531POPC   C1A59295  27.442   3.918   6.066
 4531POPC   D2A59296  27.537   3.897   6.535
 4531POPC   C3A59297  27.452   3.623   6.898
 4531POPC   C4A59298  27.262   3.773   7.311
 4531POPC   C1B59299  27.791   3.573   6.198
 4531POPC   C2B59300  27.939   3.535   6.621
 4531POPC   C3B59301  27.968   3.440   7.051
 4531POPC   C4B59302  27.646   3.439   7.346
 4532POPC   NC359303   9.887  13.144   4.988
 4532POPC   PO459304   9.915  12.739   5.557
 4532POPC   GL159305   9.669  12.826   5.874
 4532POPC   GL259306   9.434  12.589   5.742
 4532POPC   C1A59307   9.816  12.992   6.261
 4532POPC   D2A59308  10.222  13.036   6.472
 4532POPC   C3A59309  10.194  13.071   6.939
 4532POPC   C4A59310  10.054  12.818   7.279
 4532POPC   C1B59311   9.436  12.475   6.168
 4532POPC   C2B59312   9.544  12.679   6.566
 4532POPC   C3B59313   9.655  12.765   6.984
 4532POPC   C4B59314   9.692  12.445   7.308
 4533POPC   NC359315  13.043   0.922   5.318
 4533POPC   PO459316  12.896   1.551   5.325
 4533POPC   GL159317  12.893   1.294   5.696
 4533POPC   GL259318  12.644   1.017   5.690
 4533POPC   C1A59319  12.965   1.440   6.115
 4533POPC   D2A59320  12.704   1.366   6.452
 4533POPC   C3A59321  12.852   1.532   6.800
 4533POPC   C4A59322  12.810   1.404   7.219
 4533POPC   C1B59323  12.781   0.969   6.127
 4533POPC   C2B59324  13.068   1.027   6.473
 4533POPC   C3B59325  12.971   1.022   6.890
 4533POPC   C4B59326  13.276   1.032   7.190
 4534POPC   NC359327  43.266  44.168   5.503
 4534POPC   PO459328  43.142  43.528   5.482
 4534POPC   GL159329  43.044  43.843   5.830
 4534POPC   GL259330  42.731  44.003   5.902
 4534POPC   C1A59331  43.143  44.113   6.214
 4534POPC   D2A59332  43.304  43.979   6.615
 4534POPC   C3A59333  43.148  44.001   7.067
 4534POPC   C4A59334  43.340  43.838   7.468
 4534POPC   C1B59335  42.769  43.778   6.260
 4534POPC   C2B59336  42.907  43.655   6.629
 4534POPC   C3B59337  42.742  43.704   6.999
 4534POPC   C4B59338  42.454  43.609   7.283
 4535POPC   NC359339  24.115  27.650   5.612
 4535POPC   PO459340  24.770  27.808   5.502
 4535POPC   GL159341  24.585  27.556   5.889
 4535POPC   GL259342  24.244  27.400   6.024
 4535POPC   C1A59343  24.645  27.493   6.359
 4535POPC   D2A59344  24.430  27.387   6.746
 4535POPC   C3A59345  24.649  27.469   7.139
 4535POPC   C4A59346  24.747  27.903   7.188
 4535POPC   C1B59347  24.265  27.840   6.224
 4535POPC   C2B59348  24.373  27.912   6.636
 4535POPC   C3B59349  24.260  27.772   7.043
 4535POPC   C4B59350  24.150  27.381   7.233
 4536POPC   NC359351  38.416  40.323   5.341
 4536POPC   PO459352  38.379  40.996   5.210
 4536POPC   GL159353  38.476  40.879   5.662
 4536POPC   GL259354  38.719  40.578   5.688
 4536POPC   C1A59355  38.428  41.052   6.127
 4536POPC   D2A59356  38.586  41.125   6.593
 4536POPC   C3A59357  38.542  40.758   6.890
 4536POPC   C4A59358  38.437  40.633   7.320
 4536POPC   C1B59359  38.432  40.423   6.044
 4536POPC   C2B59360  38.366  40.402   6.518
 4536POPC   C3B59361  38.119  40.467   6.916
 4536POPC   C4B59362  38.118  40.238   7.318
 4537POPC   NC359363  16.167  18.308   5.387
 4537POPC   PO459364  15.464  18.437   5.388
 4537POPC   GL159365  15.724  18.293   5.732
 4537POPC   GL259366  16.013  18.520   5.859
 4537POPC   C1A59367  15.670  18.121   6.153
 4537POPC   D2A59368  15.762  18.094   6.616
 4537POPC   C3A59369  15.754  18.232   7.060
 4537POPC   C4A59370  15.623  18.003   7.436
 4537POPC   C1B59371  16.037  18.438   6.326
 4537POPC   C2B59372  16.276  18.223   6.673
 4537POPC   C3B59373  16.226  18.018   7.087
 4537POPC   C4B59374  16.098  18.225   7.494
 4538POPC   NC359375  39.377  16.161   5.569
 4538POPC   PO459376  38.799  16.011   5.255
 4538POPC   GL159377  38.945  15.917   5.727
 4538POPC   GL259378  39.269  15.744   5.806
 4538POPC   C1A59379  39.028  16.040   6.146
 4538POPC   D2A59380  38.817  15.971   6.514
 4538POPC   C3A59381  39.031  16.117   6.844
 4538POPC   C4A59382  39.166  15.959   7.185
 4538POPC   C1B59383  39.336  15.640   6.192
 4538POPC   C2B59384  39.350  15.814   6.583
 4538POPC   C3B59385  39.614  15.787   6.935
 4538POPC   C4B59386  39.586  15.588   7.274
 4539POPC   NC359387  32.663  16.103   5.357
 4539POPC   PO459388  32.036  16.216   5.364
 4539POPC   GL159389  32.259  15.883   5.628
 4539POPC   GL259390  32.412  15.539   5.559
 4539POPC   C1A59391  32.304  15.893   6.075
 4539POPC   D2A59392  32.456  16.121   6.416
 4539POPC   C3A59393  32.317  15.900   6.752
 4539POPC   C4A59394  32.302  15.975   7.160
 4539POPC   C1B59395  32.646  15.542   5.960
 4539POPC   C2B59396  32.570  15.583   6.429
 4539POPC   C3B59397  32.722  15.611   6.895
 4539POPC   C4B59398  32.637  15.635   7.337
 4540POPC   NC359399  37.534  16.438   5.597
 4540POPC   PO459400  37.915  15.940   5.265
 4540POPC   GL159401  37.746  15.713   5.653
 4540POPC   GL259402  37.449  15.916   5.760
 4540POPC   C1A59403  37.666  15.598   6.106
 4540POPC   D2A59404  37.548  15.797   6.502
 4540POPC   C3A59405  37.526  15.602   6.922
 4540POPC   C4A59406  37.414  15.718   7.360
 4540POPC   C1B59407  37.758  16.097   6.084
 4540POPC   C2B59408  37.807  16.242   6.516
 4540POPC   C3B59409  37.719  16.089   6.930
 4540POPC   C4B59410  37.913  15.856   7.228
 4541POPC   NC359411  33.208  17.985   5.439
 4541POPC   PO459412  33.379  18.628   5.676
 4541POPC   GL159413  33.148  18.303   5.936
 4541POPC   GL259414  32.896  18.012   5.975
 4541POPC   C1A59415  33.245  18.103   6.361
 4541POPC   D2A59416  33.517  18.209   6.719
 4541POPC   C3A59417  33.240  18.275   7.070
 4541POPC   C4A59418  33.157  18.165   7.528
 4541POPC   C1B59419  32.778  18.323   6.305
 4541POPC   C2B59420  32.818  18.306   6.761
 4541POPC   C3B59421  32.753  18.162   7.177
 4541POPC   C4B59422  32.695  18.402   7.549
 4542POPC   NC359423  21.450  22.228   5.405
 4542POPC   PO459424  20.871  21.926   5.156
 4542POPC   GL159425  21.053  21.881   5.630
 4542POPC   GL259426  21.352  22.039   5.842
 4542POPC   C1A59427  20.948  21.967   6.104
 4542POPC   D2A59428  21.164  22.321   6.334
 4542POPC   C3A59429  21.241  22.356   6.810
 4542POPC   C4A59430  21.295  22.022   7.148
 4542POPC   C1B59431  21.655  21.992   6.162
 4542POPC   C2B59432  21.937  22.173   6.469
 4542POPC   C3B59433  21.732  22.204   6.840
 4542POPC   C4B59434  21.627  22.423   7.183
 4543POPC   NC359435  28.089  21.511   5.591
 4543POPC   PO459436  28.498  21.045   5.605
 4543POPC   GL159437  28.329  21.216   5.966
 4543POPC   GL259438  27.955  21.216   5.983
 4543POPC   C1A59439  28.549  21.250   6.347
 4543POPC   D2A59440  28.636  21.057   6.727
 4543POPC   C3A59441  28.436  21.249   7.086
 4543POPC   C4A59442  28.329  21.380   7.496
 4543POPC   C1B59443  28.039  21.188   6.429
 4543POPC   C2B59444  27.948  21.188   6.871
 4543POPC   C3B59445  27.911  21.479   7.220
 4543POPC   C4B59446  27.926  21.630   7.672
 4544POPC   NC359447  44.932  30.873   5.500
 4544POPC   PO459448  44.593  30.326   5.190
 4544POPC   GL159449  44.604  30.535   5.690
 4544POPC   GL259450  44.280  30.741   5.758
 4544POPC   C1A59451  44.876  30.733   6.117
 4544POPC   D2A59452  44.963  30.968   6.521
 4544POPC   C3A59453  44.973  30.768   6.904
 4544POPC   C4A59454  44.670  30.814   7.193
 4544POPC   C1B59455  44.379  30.680   6.214
 4544POPC   C2B59456  44.482  30.752   6.674
 4544POPC   C3B59457  44.257  30.568   7.039
 4544POPC   C4B59458  44.261  30.669   7.475
 4545POPC   NC359459  38.110  12.754   5.433
 4545POPC   PO459460  38.615  13.158   5.348
 4545POPC   GL159461  38.533  12.884   5.688
 4545POPC   GL259462  38.809  12.715   5.827
 4545POPC   C1A59463  38.328  12.794   6.081
 4545POPC   D2A59464  38.405  12.955   6.485
 4545POPC   C3A59465  38.556  12.640   6.783
 4545POPC   C4A59466  38.603  12.773   7.207
 4545POPC   C1B59467  38.797  13.094   6.073
 4545POPC   C2B59468  38.945  13.086   6.470
 4545POPC   C3B59469  38.771  13.079   6.831
 4545POPC   C4B59470  38.896  13.178   7.192
 4546POPC   NC359471  25.123   4.667   5.595
 4546POPC   PO459472  25.313   3.962   5.606
 4546POPC   GL159473  25.248   4.248   5.878
 4546POPC   GL259474  25.530   4.527   5.879
 4546POPC   C1A59475  25.165   4.094   6.274
 4546POPC   D2A59476  25.429   4.043   6.634
 4546POPC   C3A59477  25.223   4.085   7.031
 4546POPC   C4A59478  25.342   4.203   7.459
 4546POPC   C1B59479  25.241   4.593   6.244
 4546POPC   C2B59480  25.079   4.437   6.639
 4546POPC   C3B59481  25.110   4.584   7.040
 4546POPC   C4B59482  25.458   4.680   7.336
 4547POPC   NC359483  43.707  12.869   5.241
 4547POPC   PO459484  43.043  12.824   5.276
 4547POPC   GL159485  43.144  12.655   5.688
 4547POPC   GL259486  43.492  12.541   5.669
 4547POPC   C1A59487  43.024  12.746   6.103
 4547POPC   D2A59488  42.856  12.646   6.495
 4547POPC   C3A59489  42.993  12.956   6.794
 4547POPC   C4A59490  43.050  12.952   7.223
 4547POPC   C1B59491  43.541  12.778   6.092
 4547POPC   C2B59492  43.425  12.725   6.530
 4547POPC   C3B59493  43.465  12.735   6.983
 4547POPC   C4B59494  43.539  13.111   7.225
 4548POPC   NC359495   4.349  18.871   5.196
 4548POPC   PO459496   4.141  19.440   5.495
 4548POPC   GL159497   4.383  19.315   5.844
 4548POPC   GL259498   4.527  18.990   5.778
 4548POPC   C1A59499   4.531  19.406   6.258
 4548POPC   D2A59500   4.413  19.188   6.598
 4548POPC   C3A59501   4.398  19.295   7.007
 4548POPC   C4A59502   4.053  19.497   7.178
 4548POPC   C1B59503   4.260  18.935   6.166
 4548POPC   C2B59504   4.294  18.681   6.542
 4548POPC   C3B59505   4.261  18.600   6.966
 4548POPC   C4B59506   4.360  18.868   7.306
 4549POPC   NC359507  44.603   2.421   4.950
 4549POPC   PO459508  44.669   2.897   5.413
 4549POPC   GL159509  44.694   2.691   5.800
 4549POPC   GL259510  44.431   2.487   5.905
 4549POPC   C1A59511  44.817   2.784   6.208
 4549POPC   D2A59512  44.919   2.953   6.610
 4549POPC   C3A59513  44.787   2.644   6.895
 4549POPC   C4A59514  44.684   2.688   7.313
 4549POPC   C1B59515  44.314   2.734   6.293
 4549POPC   C2B59516  44.340   2.814   6.719
 4549POPC   C3B59517  44.254   2.588   7.072
 4549POPC   C4B59518  44.302   2.332   7.441
 4550POPC   NC359519  42.896  29.771   5.276
 4550POPC   PO459520  43.059  30.249   5.619
 4550POPC   GL159521  42.888  29.899   5.804
 4550POPC   GL259522  43.115  29.612   5.727
 4550POPC   C1A59523  42.833  29.940   6.234
 4550POPC   D2A59524  43.003  29.853   6.625
 4550POPC   C3A59525  42.962  30.094   7.004
 4550POPC   C4A59526  42.884  29.841   7.304
 4550POPC   C1B59527  43.267  29.668   6.154
 4550POPC   C2B59528  43.481  29.686   6.569
 4550POPC   C3B59529  43.369  29.777   7.018
 4550POPC   C4B59530  43.353  29.729   7.504
 4551POPC   NC359531  44.421  25.004   5.357
 4551POPC   PO459532  44.857  25.455   5.522
 4551POPC   GL159533  44.791  25.109   5.814
 4551POPC   GL259534  44.654  25.330   6.009
 4551POPC   C1A59535  44.886  24.973   6.286
 4551POPC   D2A59536  44.764  25.254   6.642
 4551POPC   C3A59537  44.731  25.216   7.115
 4551POPC   C4A59538  44.272  25.250   7.226
 4551POPC   C1B59539  44.882  25.654   6.244
 4551POPC   C2B59540  44.963  25.717   6.665
 4551POPC   C3B59541  44.702  25.720   6.996
 4551POPC   C4B59542  44.868  25.671   7.383
 4552POPC   NC359543  19.205  42.282   5.118
 4552POPC   PO459544  19.113  41.954   5.714
 4552POPC   GL159545  19.338  42.182   5.960
 4552POPC   GL259546  19.330  42.458   5.718
 4552POPC   C1A59547  19.211  42.187   6.376
 4552POPC   D2A59548  18.955  41.978   6.674
 4552POPC   C3A59549  19.208  42.106   6.987
 4552POPC   C4A59550  18.962  42.407   7.165
 4552POPC   C1B59551  19.125  42.615   6.114
 4552POPC   C2B59552  19.180  42.784   6.513
 4552POPC   C3B59553  18.877  42.852   6.865
 4552POPC   C4B59554  18.691  42.822   7.259
 4553POPC   NC359555  40.985   0.532   5.573
 4553POPC   PO459556  40.447   0.091   5.584
 4553POPC   GL159557  40.641   0.336   5.910
 4553POPC   GL259558  40.422   0.628   5.876
 4553POPC   C1A59559  41.029   0.394   6.212
 4553POPC   D2A59560  41.148   0.449   6.643
 4553POPC   C3A59561  40.779   0.284   6.813
 4553POPC   C4A59562  40.614   0.135   7.175
 4553POPC   C1B59563  40.614   0.677   6.278
 4553POPC   C2B59564  40.719   0.787   6.692
 4553POPC   C3B59565  40.503   0.649   7.047
 4553POPC   C4B59566  40.320   0.589   7.412
 4554POPC   NC359567  19.897  36.016   5.196
 4554POPC   PO459568  19.266  35.976   5.415
 4554POPC   GL159569  19.582  36.203   5.670
 4554POPC   GL259570  19.442  36.525   5.694
 4554POPC   C1A59571  19.906  36.205   6.025
 4554POPC   D2A59572  20.077  36.001   6.420
 4554POPC   C3A59573  19.996  36.166   6.867
 4554POPC   C4A59574  19.908  35.981   7.285
 4554POPC   C1B59575  19.519  36.539   6.125
 4554POPC   C2B59576  19.723  36.415   6.507
 4554POPC   C3B59577  19.629  36.543   6.961
 4554POPC   C4B59578  19.681  36.439   7.417
 4555POPC   NC359579  39.679   1.946   5.473
 4555POPC   PO459580  40.197   2.281   5.266
 4555POPC   GL159581  40.057   2.203   5.764
 4555POPC   GL259582  39.716   2.129   5.941
 4555POPC   C1A59583  40.135   1.947   6.187
 4555POPC   D2A59584  40.090   2.035   6.662
 4555POPC   C3A59585  40.391   1.949   7.027
 4555POPC   C4A59586  40.317   1.798   7.474
 4555POPC   C1B59587  39.654   1.966   6.370
 4555POPC   C2B59588  39.590   1.971   6.803
 4555POPC   C3B59589  39.903   1.908   7.131
 4555POPC   C4B59590  39.914   2.079   7.570
 4556POPC   NC359591   6.434  10.753   5.454
 4556POPC   PO459592   6.634  10.096   5.462
 4556POPC   GL159593   6.564  10.410   5.816
 4556POPC   GL259594   6.795  10.712   5.864
 4556POPC   C1A59595   6.256  10.535   6.105
 4556POPC   D2A59596   6.120  10.438   6.512
 4556POPC   C3A59597   6.465  10.491   6.778
 4556POPC   C4A59598   6.468  10.594   7.204
 4556POPC   C1B59599   6.689  10.683   6.321
 4556POPC   C2B59600   6.751  10.931   6.711
 4556POPC   C3B59601   6.920  10.838   7.118
 4556POPC   C4B59602   6.993  10.765   7.553
 4557POPC   NC359603  36.467   7.468   5.460
 4557POPC   PO459604  37.055   7.119   5.298
 4557POPC   GL159605  36.982   7.394   5.731
 4557POPC   GL259606  36.698   7.606   5.883
 4557POPC   C1A59607  36.867   7.245   6.213
 4557POPC   D2A59608  36.846   7.463   6.572
 4557POPC   C3A59609  36.655   7.316   6.929
 4557POPC   C4A59610  36.776   7.517   7.300
 4557POPC   C1B59611  37.063   7.718   6.137
 4557POPC   C2B59612  37.117   7.918   6.528
 4557POPC   C3B59613  37.022   7.778   6.926
 4557POPC   C4B59614  37.257   7.675   7.255
 4558POPC   NC359615  17.231  37.504   5.510
 4558POPC   PO459616  16.696  37.955   5.561
 4558POPC   GL159617  16.754  37.858   6.003
 4558POPC   GL259618  17.111  37.823   6.005
 4558POPC   C1A59619  16.802  37.986   6.467
 4558POPC   D2A59620  16.503  37.924   6.836
 4558POPC   C3A59621  16.423  37.550   7.107
 4558POPC   C4A59622  16.539  37.584   7.569
 4558POPC   C1B59623  16.941  37.498   6.328
 4558POPC   C2B59624  16.798  37.524   6.753
 4558POPC   C3B59625  16.951  37.568   7.175
 4558POPC   C4B59626  17.383  37.614   7.275
 4559POPC   NC359627  40.085   0.175   5.322
 4559POPC   PO459628  39.736   0.800   5.382
 4559POPC   GL159629  39.884   0.635   5.791
 4559POPC   GL259630  40.034   0.290   5.818
 4559POPC   C1A59631  40.039   0.786   6.208
 4559POPC   D2A59632  40.221   0.661   6.599
 4559POPC   C3A59633  40.005   0.805   6.938
 4559POPC   C4A59634  39.846   0.712   7.329
 4559POPC   C1B59635  40.208   0.278   6.236
 4559POPC   C2B59636  39.970   0.230   6.620
 4559POPC   C3B59637  40.102   0.315   7.022
 4559POPC   C4B59638  40.153   0.112   7.384
 4560POPC   NC359639   1.510   3.237   5.653
 4560POPC   PO459640   2.088   3.473   5.352
 4560POPC   GL159641   2.137   3.708   5.760
 4560POPC   GL259642   2.333   4.044   5.735
 4560POPC   C1A59643   1.854   3.662   6.154
 4560POPC   D2A59644   1.697   3.570   6.587
 4560POPC   C3A59645   2.021   3.396   6.870
 4560POPC   C4A59646   1.924   3.289   7.286
 4560POPC   C1B59647   2.177   4.068   6.171
 4560POPC   C2B59648   2.173   3.853   6.582
 4560POPC   C3B59649   2.043   3.892   7.024
 4560POPC   C4B59650   2.221   3.688   7.358
 4561POPC   NC359651  33.926  27.054   5.499
 4561POPC   PO459652  33.293  26.780   5.427
 4561POPC   GL159653  33.531  26.855   5.783
 4561POPC   GL259654  33.847  26.662   5.797
 4561POPC   C1A59655  33.725  26.924   6.204
 4561POPC   D2A59656  33.927  26.655   6.493
 4561POPC   C3A59657  33.927  26.853   6.882
 4561POPC   C4A59658  34.102  27.021   7.243
 4561POPC   C1B59659  33.655  26.403   6.074
 4561POPC   C2B59660  33.492  26.327   6.479
 4561POPC   C3B59661  33.641  26.375   6.869
 4561POPC   C4B59662  33.652  26.602   7.223
 4562POPC   NC359663  36.114   3.721   5.328
 4562POPC   PO459664  35.816   3.137   5.255
 4562POPC   GL159665  35.884   3.366   5.743
 4562POPC   GL259666  35.991   3.713   5.819
 4562POPC   C1A59667  36.189   3.408   6.175
 4562POPC   D2A59668  36.514   3.393   6.539
 4562POPC   C3A59669  36.316   3.325   6.961
 4562POPC   C4A59670  36.179   3.388   7.406
 4562POPC   C1B59671  36.210   3.902   6.192
 4562POPC   C2B59672  36.148   3.749   6.611
 4562POPC   C3B59673  36.314   3.837   7.003
 4562POPC   C4B59674  36.172   3.903   7.389
 4563POPC   NC359675  10.813   2.781   5.662
 4563POPC   PO459676  11.301   3.000   5.234
 4563POPC   GL159677  11.333   2.925   5.719
 4563POPC   GL259678  11.264   2.577   5.839
 4563POPC   C1A59679  11.310   3.000   6.225
 4563POPC   D2A59680  11.184   3.097   6.702
 4563POPC   C3A59681  11.383   2.858   7.064
 4563POPC   C4A59682  11.326   2.933   7.521
 4563POPC   C1B59683  11.462   2.506   6.202
 4563POPC   C2B59684  11.562   2.654   6.613
 4563POPC   C3B59685  11.534   2.363   6.975
 4563POPC   C4B59686  11.581   2.499   7.390
 4564POPC   NC359687   8.504  27.799   5.474
 4564POPC   PO459688   9.159  27.780   5.589
 4564POPC   GL159689   9.055  27.589   5.929
 4564POPC   GL259690   8.917  27.283   5.758
 4564POPC   C1A59691   9.107  27.789   6.314
 4564POPC   D2A59692   8.893  28.057   6.623
 4564POPC   C3A59693   8.774  27.777   6.962
 4564POPC   C4A59694   9.176  27.712   7.121
 4564POPC   C1B59695   8.927  27.184   6.201
 4564POPC   C2B59696   8.954  27.389   6.601
 4564POPC   C3B59697   8.951  27.209   6.986
 4564POPC   C4B59698   8.835  27.335   7.355
 4565POPC   NC359699  27.206  30.771   5.421
 4565POPC   PO459700  27.848  30.518   5.240
 4565POPC   GL159701  27.803  30.567   5.684
 4565POPC   GL259702  27.947  30.867   5.821
 4565POPC   C1A59703  27.799  30.431   6.125
 4565POPC   D2A59704  27.557  30.542   6.496
 4565POPC   C3A59705  27.773  30.489   6.902
 4565POPC   C4A59706  27.625  30.391   7.303
 4565POPC   C1B59707  27.739  30.973   6.243
 4565POPC   C2B59708  27.663  30.997   6.707
 4565POPC   C3B59709  27.613  30.905   7.166
 4565POPC   C4B59710  27.883  30.794   7.544
 4566POPC   NC359711  27.410  44.107   5.564
 4566POPC   PO459712  27.851  43.662   5.337
 4566POPC   GL159713  27.777  43.807   5.765
 4566POPC   GL259714  27.489  43.622   5.785
 4566POPC   C1A59715  27.615  44.032   6.167
 4566POPC   D2A59716  27.404  44.264   6.516
 4566POPC   C3A59717  27.645  44.194   6.868
 4566POPC   C4A59718  27.798  44.176   7.264
 4566POPC   C1B59719  27.735  43.510   6.166
 4566POPC   C2B59720  27.815  43.747   6.539
 4566POPC   C3B59721  27.522  43.704   6.853
 4566POPC   C4B59722  27.498  43.522   7.234
 4567POPC   NC359723  28.226  41.441   5.353
 4567POPC   PO459724  28.593  40.925   5.541
 4567POPC   GL159725  28.239  40.973   5.848
 4567POPC   GL259726  28.128  40.643   5.965
 4567POPC   C1A59727  28.085  41.018   6.292
 4567POPC   D2A59728  28.106  40.710   6.641
 4567POPC   C3A59729  28.330  40.861   7.009
 4567POPC   C4A59730  28.461  41.116   7.337
 4567POPC   C1B59731  28.471  40.669   6.289
 4567POPC   C2B59732  28.620  40.564   6.719
 4567POPC   C3B59733  28.758  40.638   7.174
 4567POPC   C4B59734  28.979  41.008   7.390
 4568POPC   NC359735  28.243   0.345   5.352
 4568POPC   PO459736  28.875   0.533   5.366
 4568POPC   GL159737  28.548   0.399   5.764
 4568POPC   GL259738  28.170   0.470   5.843
 4568POPC   C1A59739  28.412   0.223   6.212
 4568POPC   D2A59740  28.237   0.510   6.557
 4568POPC   C3A59741  28.522   0.770   6.811
 4568POPC   C4A59742  28.850   0.697   7.126
 4568POPC   C1B59743  27.943   0.714   6.163
 4568POPC   C2B59744  27.786   0.823   6.581
 4568POPC   C3B59745  28.001   0.745   6.982
 4568POPC   C4B59746  28.294   0.388   7.085
 4569POPC   NC359747  29.140  44.117   5.450
 4569POPC   PO459748  28.570  44.051   5.661
 4569POPC   GL159749  28.986  43.946   5.918
 4569POPC   GL259750  29.356  43.835   5.853
 4569POPC   C1A59751  29.148  44.016   6.342
 4569POPC   D2A59752  28.969  44.244   6.672
 4569POPC   C3A59753  29.088  44.086   7.080
 4569POPC   C4A59754  29.099  44.093   7.565
 4569POPC   C1B59755  29.562  43.707   6.259
 4569POPC   C2B59756  29.435  43.617   6.702
 4569POPC   C3B59757  29.142  43.586   7.062
 4569POPC   C4B59758  29.197  43.594   7.538
 4570POPC   NC359759  19.052  36.387   5.399
 4570POPC   PO459760  18.445  36.649   5.533
 4570POPC   GL159761  18.743  36.421   5.872
 4570POPC   GL259762  19.084  36.220   5.884
 4570POPC   C1A59763  19.010  36.532   6.280
 4570POPC   D2A59764  19.232  36.321   6.646
 4570POPC   C3A59765  18.993  36.150   7.015
 4570POPC   C4A59766  18.862  36.181   7.475
 4570POPC   C1B59767  19.426  36.042   6.175
 4570POPC   C2B59768  19.584  35.931   6.595
 4570POPC   C3B59769  19.508  36.053   6.994
 4570POPC   C4B59770  19.344  36.066   7.371
 4571POPC   NC359771  39.372   7.344   5.297
 4571POPC   PO459772  38.698   7.385   5.425
 4571POPC   GL159773  38.863   7.541   5.854
 4571POPC   GL259774  39.231   7.515   5.936
 4571POPC   C1A59775  38.865   7.366   6.295
 4571POPC   D2A59776  39.012   7.452   6.741
 4571POPC   C3A59777  39.146   7.288   7.156
 4571POPC   C4A59778  39.208   7.507   7.573
 4571POPC   C1B59779  39.376   7.415   6.361
 4571POPC   C2B59780  39.570   7.607   6.724
 4571POPC   C3B59781  39.577   7.548   7.176
 4571POPC   C4B59782  39.614   7.197   7.481
 4572POPC   NC359783  34.045  11.776   5.109
 4572POPC   PO459784  34.719  11.828   5.388
 4572POPC   GL159785  34.623  11.971   5.798
 4572POPC   GL259786  34.691  11.657   5.891
 4572POPC   C1A59787  34.481  12.087   6.239
 4572POPC   D2A59788  34.679  12.297   6.594
 4572POPC   C3A59789  34.546  12.211   7.012
 4572POPC   C4A59790  34.385  12.327   7.410
 4572POPC   C1B59791  34.723  11.637   6.298
 4572POPC   C2B59792  34.500  11.672   6.643
 4572POPC   C3B59793  34.706  11.718   7.010
 4572POPC   C4B59794  34.526  11.845   7.375
 4573POPC   NC359795  36.129  44.115   5.337
 4573POPC   PO459796  36.695  43.663   5.386
 4573POPC   GL159797  36.301  43.707   5.634
 4573POPC   GL259798  35.959  43.652   5.682
 4573POPC   C1A59799  36.293  43.742   6.104
 4573POPC   D2A59800  36.123  43.826   6.512
 4573POPC   C3A59801  36.322  43.934   6.892
 4573POPC   C4A59802  36.183  43.850   7.313
 4573POPC   C1B59803  35.775  43.743   6.098
 4573POPC   C2B59804  35.667  43.605   6.518
 4573POPC   C3B59805  35.836  43.748   6.930
 4573POPC   C4B59806  35.796  43.533   7.342
 4574POPC   NC359807  15.375   4.556   5.313
 4574POPC   PO459808  14.989   3.960   5.426
 4574POPC   GL159809  15.159   4.145   5.822
 4574POPC   GL259810  15.518   4.211   5.780
 4574POPC   C1A59811  15.269   4.356   6.265
 4574POPC   D2A59812  15.318   4.654   6.660
 4574POPC   C3A59813  15.005   4.607   7.032
 4574POPC   C4A59814  15.025   4.569   7.512
 4574POPC   C1B59815  15.490   3.901   6.119
 4574POPC   C2B59816  15.336   3.882   6.514
 4574POPC   C3B59817  15.297   4.177   6.840
 4574POPC   C4B59818  15.203   4.178   7.254
 4575POPC   NC359819  18.923  20.994   5.354
 4575POPC   PO459820  19.289  21.451   5.349
 4575POPC   GL159821  19.070  21.362   5.739
 4575POPC   GL259822  19.250  21.066   5.781
 4575POPC   C1A59823  19.005  21.573   6.150
 4575POPC   D2A59824  18.861  21.434   6.567
 4575POPC   C3A59825  19.082  21.561   6.924
 4575POPC   C4A59826  18.988  21.416   7.330
 4575POPC   C1B59827  19.375  21.223   6.196
 4575POPC   C2B59828  19.301  21.168   6.649
 4575POPC   C3B59829  19.314  21.105   7.099
 4575POPC   C4B59830  19.244  20.979   7.561
 4576POPC   NC359831   2.161  41.383   5.256
 4576POPC   PO459832   1.864  41.958   5.379
 4576POPC   GL159833   2.035  41.761   5.778
 4576POPC   GL259834   2.187  41.408   5.790
 4576POPC   C1A59835   2.028  41.687   6.241
 4576POPC   D2A59836   1.814  41.424   6.563
 4576POPC   C3A59837   1.989  41.329   6.967
 4576POPC   C4A59838   1.822  41.520   7.338
 4576POPC   C1B59839   2.065  41.164   6.178
 4576POPC   C2B59840   2.098  40.958   6.594
 4576POPC   C3B59841   2.373  40.971   6.973
 4576POPC   C4B59842   2.439  41.314   7.256
 4577POPC   NC359843  21.701  37.221   5.414
 4577POPC   PO459844  21.540  37.881   5.484
 4577POPC   GL159845  21.262  37.671   5.747
 4577POPC   GL259846  21.508  37.442   5.846
 4577POPC   C1A59847  21.078  37.748   6.171
 4577POPC   D2A59848  21.031  37.909   6.610
 4577POPC   C3A59849  21.154  37.580   6.933
 4577POPC   C4A59850  21.411  37.609   7.320
 4577POPC   C1B59851  21.571  37.814   6.143
 4577POPC   C2B59852  21.516  37.710   6.563
 4577POPC   C3B59853  21.539  37.929   6.931
 4577POPC   C4B59854  21.701  38.118   7.292
 4578POPC   NC359855   6.221  39.055   5.714
 4578POPC   PO459856   6.104  39.666   5.475
 4578POPC   GL159857   5.923  39.473   5.851
 4578POPC   GL259858   6.183  39.422   6.076
 4578POPC   C1A59859   5.745  39.497   6.293
 4578POPC   D2A59860   5.864  39.332   6.689
 4578POPC   C3A59861   5.568  39.451   6.941
 4578POPC   C4A59862   5.481  39.616   7.324
 4578POPC   C1B59863   6.125  39.049   6.332
 4578POPC   C2B59864   6.293  38.850   6.701
 4578POPC   C3B59865   6.173  38.950   7.123
 4578POPC   C4B59866   5.873  39.247   7.293
 4579POPC   NC359867  23.510  38.162   5.287
 4579POPC   PO459868  23.669  38.790   5.411
 4579POPC   GL159869  23.625  38.421   5.708
 4579POPC   GL259870  23.983  38.341   5.703
 4579POPC   C1A59871  23.500  38.264   6.122
 4579POPC   D2A59872  23.699  38.307   6.539
 4579POPC   C3A59873  23.476  38.475   6.904
 4579POPC   C4A59874  23.227  38.255   7.237
 4579POPC   C1B59875  24.046  38.292   6.145
 4579POPC   C2B59876  24.208  38.396   6.575
 4579POPC   C3B59877  24.003  38.335   6.988
 4579POPC   C4B59878  24.006  38.407   7.445
 4580POPC   NC359879  44.736  35.510   5.138
 4580POPC   PO459880  44.138  35.430   5.275
 4580POPC   GL159881  44.544  35.544   5.750
 4580POPC   GL259882  44.864  35.651   5.641
 4580POPC   C1A59883  44.571  35.315   6.196
 4580POPC   D2A59884  44.574  35.123   6.601
 4580POPC   C3A59885  44.488  35.342   7.003
 4580POPC   C4A59886  44.665  35.225   7.404
 4580POPC   C1B59887  44.813  35.746   6.122
 4580POPC   C2B59888   0.032  35.616   6.540
 4580POPC   C3B59889  44.968  35.449   6.972
 4580POPC   C4B59890  44.988  35.618   7.388
 4581POPC   NC359891  21.976  32.108   5.464
 4581POPC   PO459892  22.428  32.598   5.288
 4581POPC   GL159893  22.310  32.382   5.720
 4581POPC   GL259894  21.915  32.381   5.891
 4581POPC   C1A59895  22.334  32.289   6.159
 4581POPC   D2A59896  22.126  32.036   6.483
 4581POPC   C3A59897  22.286  32.175   6.879
 4581POPC   C4A59898  22.401  31.929   7.246
 4581POPC   C1B59899  21.671  32.212   6.297
 4581POPC   C2B59900  21.734  32.175   6.791
 4581POPC   C3B59901  21.925  32.156   7.241
 4581POPC   C4B59902  21.927  32.425   7.620
 4582POPC   NC359903  34.323  17.012   5.098
 4582POPC   PO459904  34.793  16.755   5.538
 4582POPC   GL159905  34.738  16.673   5.925
 4582POPC   GL259906  34.431  16.603   5.906
 4582POPC   C1A59907  34.839  16.733   6.322
 4582POPC   D2A59908  34.627  16.668   6.677
 4582POPC   C3A59909  34.900  16.864   6.954
 4582POPC   C4A59910  34.915  16.820   7.386
 4582POPC   C1B59911  34.414  16.376   6.276
 4582POPC   C2B59912  34.114  16.360   6.591
 4582POPC   C3B59913  34.284  16.369   6.955
 4582POPC   C4B59914  34.525  16.583   7.190
 4583POPC   NC359915  24.019  23.861   5.226
 4583POPC   PO459916  24.690  23.856   5.388
 4583POPC   GL159917  24.590  23.626   5.769
 4583POPC   GL259918  24.308  23.774   5.794
 4583POPC   C1A59919  24.513  23.438   6.220
 4583POPC   D2A59920  24.377  23.289   6.637
 4583POPC   C3A59921  24.677  23.290   6.992
 4583POPC   C4A59922  24.628  23.534   7.377
 4583POPC   C1B59923  24.393  23.933   6.198
 4583POPC   C2B59924  24.195  23.794   6.561
 4583POPC   C3B59925  24.342  23.726   6.960
 4583POPC   C4B59926  24.446  24.014   7.269
 4584POPC   NC359927  18.037  17.837   5.235
 4584POPC   PO459928  18.185  17.237   5.533
 4584POPC   GL159929  18.398  17.404   5.879
 4584POPC   GL259930  18.251  17.739   5.860
 4584POPC   C1A59931  18.503  17.613   6.286
 4584POPC   D2A59932  18.291  17.822   6.640
 4584POPC   C3A59933  18.411  17.658   7.069
 4584POPC   C4A59934  18.626  17.249   7.218
 4584POPC   C1B59935  17.965  17.450   6.132
 4584POPC   C2B59936  17.847  17.290   6.542
 4584POPC   C3B59937  17.864  17.581   6.871
 4584POPC   C4B59938  17.972  17.666   7.293
 4585POPC   NC359939  27.817  24.543   4.775
 4585POPC   PO459940  27.662  24.729   5.431
 4585POPC   GL159941  27.547  24.575   5.777
 4585POPC   GL259942  27.756  24.293   5.723
 4585POPC   C1A59943  27.632  24.673   6.197
 4585POPC   D2A59944  27.713  24.891   6.542
 4585POPC   C3A59945  27.588  24.642   6.866
 4585POPC   C4A59946  27.502  24.802   7.246
 4585POPC   C1B59947  27.534  24.179   6.093
 4585POPC   C2B59948  27.656  24.226   6.511
 4585POPC   C3B59949  27.435  24.116   6.848
 4585POPC   C4B59950  27.263  23.999   7.215
 4586POPC   NC359951   3.181  19.897   5.313
 4586POPC   PO459952   2.540  20.054   5.343
 4586POPC   GL159953   2.556  19.806   5.718
 4586POPC   GL259954   2.907  19.801   5.748
 4586POPC   C1A59955   2.573  19.663   6.156
 4586POPC   D2A59956   2.452  19.890   6.513
 4586POPC   C3A59957   2.592  19.925   6.925
 4586POPC   C4A59958   2.453  19.600   7.256
 4586POPC   C1B59959   3.083  19.702   6.154
 4586POPC   C2B59960   2.921  19.633   6.573
 4586POPC   C3B59961   2.918  19.549   7.012
 4586POPC   C4B59962   2.841  19.885   7.372
 4587POPC   NC359963  38.182  14.406   5.275
 4587POPC   PO459964  38.430  14.688   5.816
 4587POPC   GL159965  38.344  14.295   5.900
 4587POPC   GL259966  38.559  14.166   5.658
 4587POPC   C1A59967  38.407  14.254   6.334
 4587POPC   D2A59968  38.484  14.322   6.749
 4587POPC   C3A59969  38.440  14.693   6.932
 4587POPC   C4A59970  38.349  14.617   7.319
 4587POPC   C1B59971  38.807  14.080   6.070
 4587POPC   C2B59972  38.793  13.969   6.523
 4587POPC   C3B59973  38.794  14.004   6.974
 4587POPC   C4B59974  38.695  14.286   7.235
 4588POPC   NC359975  33.966  39.600   5.466
 4588POPC   PO459976  34.606  39.920   5.349
 4588POPC   GL159977  34.677  40.104   5.751
 4588POPC   GL259978  34.861  40.406   5.699
 4588POPC   C1A59979  34.674  39.899   6.152
 4588POPC   D2A59980  34.604  40.028   6.572
 4588POPC   C3A59981  34.702  39.770   6.916
 4588POPC   C4A59982  34.630  39.953   7.272
 4588POPC   C1B59983  34.981  40.311   6.151
 4588POPC   C2B59984  34.873  40.444   6.561
 4588POPC   C3B59985  34.947  40.221   6.916
 4588POPC   C4B59986  34.896  40.386   7.282
 4589POPC   NC359987  15.590  38.502   5.357
 4589POPC   PO459988  15.010  38.472   5.076
 4589POPC   GL159989  15.064  38.438   5.590
 4589POPC   GL259990  15.398  38.438   5.814
 4589POPC   C1A59991  14.976  38.260   6.037
 4589POPC   D2A59992  15.062  38.455   6.434
 4589POPC   C3A59993  15.120  38.324   6.876
 4589POPC   C4A59994  14.918  38.527   7.250
 4589POPC   C1B59995  15.634  38.587   6.176
 4589POPC   C2B59996  15.558  38.535   6.607
 4589POPC   C3B59997  15.638  38.341   6.994
 4589POPC   C4B59998  15.358  38.264   7.334
 4590POPC   NC359999   0.374  19.508   5.458
 4590POPC   PO460000   0.738  20.027   5.333
 4590POPC   GL160001   0.513  19.946   5.740
 4590POPC   GL260002   0.585  19.618   5.890
 4590POPC   C1A60003   0.308  19.956   6.168
 4590POPC   D2A60004   0.536  19.940   6.557
 4590POPC   C3A60005   0.400  19.773   6.879
 4590POPC   C4A60006   0.185  19.794   7.253
 4590POPC   C1B60007   0.800  19.653   6.243
 4590POPC   C2B60008   0.748  19.444   6.608
 4590POPC   C3B60009   0.658  19.373   6.997
 4590POPC   C4B60010   0.705  19.748   7.288
 4591POPC   NC360011  36.550  17.560   5.241
 4591POPC   PO460012  37.218  17.794   5.237
 4591POPC   GL160013  36.992  17.735   5.718
 4591POPC   GL260014  37.117  17.847   6.030
 4591POPC   C1A60015  36.841  17.420   6.131
 4591POPC   D2A60016  36.875  17.247   6.584
 4591POPC   C3A60017  36.774  17.543   6.936
 4591POPC   C4A60018  36.503  17.608   7.302
 4591POPC   C1B60019  36.924  17.795   6.452
 4591POPC   C2B60020  37.043  18.039   6.771
 4591POPC   C3B60021  37.353  17.929   7.094
 4591POPC   C4B60022  37.254  17.699   7.478
 4592POPC   NC360023  11.886  42.397   5.360
 4592POPC   PO460024  12.410  42.487   5.636
 4592POPC   GL160025  12.025  42.482   5.887
 4592POPC   GL260026  11.653  42.522   5.891
 4592POPC   C1A60027  11.954  42.275   6.291
 4592POPC   D2A60028  11.891  41.927   6.584
 4592POPC   C3A60029  12.064  42.041   6.988
 4592POPC   C4A60030  12.029  42.174   7.422
 4592POPC   C1B60031  11.500  42.470   6.350
 4592POPC   C2B60032  11.717  42.367   6.768
 4592POPC   C3B60033  11.944  42.573   7.071
 4592POPC   C4B60034  11.811  42.962   7.221
 4593POPC   NC360035  18.889   5.919   5.021
 4593POPC   PO460036  18.876   5.608   5.623
 4593POPC   GL160037  19.041   5.956   5.843
 4593POPC   GL260038  19.396   5.967   5.931
 4593POPC   C1A60039  19.038   5.844   6.279
 4593POPC   D2A60040  19.135   5.797   6.700
 4593POPC   C3A60041  18.961   5.990   7.056
 4593POPC   C4A60042  18.804   5.777   7.410
 4593POPC   C1B60043  19.367   6.209   6.295
 4593POPC   C2B60044  19.537   6.116   6.698
 4593POPC   C3B60045  19.493   5.859   7.060
 4593POPC   C4B60046  19.292   5.903   7.454
 4594POPC   NC360047  22.290  29.354   5.509
 4594POPC   PO460048  22.143  29.999   5.439
 4594POPC   GL160049  22.387  29.884   5.797
 4594POPC   GL260050  22.727  30.019   5.753
 4594POPC   C1A60051  22.356  29.752   6.245
 4594POPC   D2A60052  22.038  29.688   6.579
 4594POPC   C3A60053  22.002  30.021   6.883
 4594POPC   C4A60054  22.128  29.789   7.231
 4594POPC   C1B60055  22.552  30.252   6.113
 4594POPC   C2B60056  22.324  30.212   6.497
 4594POPC   C3B60057  22.492  29.936   6.815
 4594POPC   C4B60058  22.522  30.093   7.226
 4595POPC   NC360059  23.397  11.430   5.379
 4595POPC   PO460060  22.867  11.731   5.453
 4595POPC   GL160061  22.954  11.524   5.865
 4595POPC   GL260062  23.325  11.528   5.930
 4595POPC   C1A60063  22.787  11.116   6.081
 4595POPC   D2A60064  22.587  10.998   6.506
 4595POPC   C3A60065  22.830  11.148   6.914
 4595POPC   C4A60066  23.066  11.298   7.301
 4595POPC   C1B60067  23.407  11.506   6.387
 4595POPC   C2B60068  23.291  11.445   6.815
 4595POPC   C3B60069  23.226  11.741   7.102
 4595POPC   C4B60070  23.420  12.030   7.341
 4596POPC   NC360071   7.157  11.473   5.434
 4596POPC   PO460072   7.570  10.948   5.358
 4596POPC   GL160073   7.497  11.226   5.723
 4596POPC   GL260074   7.227  11.039   5.870
 4596POPC   C1A60075   7.313  11.462   6.112
 4596POPC   D2A60076   7.466  11.282   6.508
 4596POPC   C3A60077   7.450  11.542   6.886
 4596POPC   C4A60078   7.216  11.588   7.259
 4596POPC   C1B60079   7.620  10.927   6.115
 4596POPC   C2B60080   7.914  11.022   6.454
 4596POPC   C3B60081   7.970  10.978   6.914
 4596POPC   C4B60082   7.832  10.977   7.361
 4597POPC   NC360083  27.193  26.665   5.386
 4597POPC   PO460084  26.603  26.916   5.374
 4597POPC   GL160085  26.761  26.789   5.807
 4597POPC   GL260086  27.077  26.604   5.877
 4597POPC   C1A60087  26.850  26.811   6.288
 4597POPC   D2A60088  27.052  26.540   6.601
 4597POPC   C3A60089  26.883  26.624   7.012
 4597POPC   C4A60090  26.757  27.002   7.217
 4597POPC   C1B60091  27.149  27.086   5.973
 4597POPC   C2B60092  27.142  27.336   6.389
 4597POPC   C3B60093  27.079  27.153   6.831
 4597POPC   C4B60094  27.265  26.976   7.229
 4598POPC   NC360095   4.214   6.965   5.313
 4598POPC   PO460096   4.667   7.445   5.369
 4598POPC   GL160097   4.562   7.333   5.807
 4598POPC   GL260098   4.202   7.254   5.737
 4598POPC   C1A60099   4.557   7.371   6.289
 4598POPC   D2A60100   4.314   7.272   6.674
 4598POPC   C3A60101   4.349   7.380   7.132
 4598POPC   C4A60102   4.038   7.417   7.521
 4598POPC   C1B60103   4.087   7.426   6.105
 4598POPC   C2B60104   4.158   7.733   6.404
 4598POPC   C3B60105   4.134   7.757   6.825
 4598POPC   C4B60106   4.089   7.822   7.225
 4599POPC   NC360107  14.555  31.247   5.220
 4599POPC   PO460108  14.123  31.655   5.455
 4599POPC   GL160109  14.477  31.464   5.688
 4599POPC   GL260110  14.365  31.150   5.779
 4599POPC   C1A60111  14.676  31.378   6.112
 4599POPC   D2A60112  14.613  31.563   6.526
 4599POPC   C3A60113  14.561  31.287   6.881
 4599POPC   C4A60114  14.732  31.418   7.278
 4599POPC   C1B60115  14.154  31.297   6.165
 4599POPC   C2B60116  14.057  31.200   6.613
 4599POPC   C3B60117  14.078  31.292   7.057
 4599POPC   C4B60118  14.090  31.662   7.290
 4600POPC   NC360119   7.787  37.846   5.453
 4600POPC   PO460120   7.355  37.364   5.587
 4600POPC   GL160121   7.543  37.631   5.831
 4600POPC   GL260122   7.323  37.896   5.652
 4600POPC   C1A60123   7.802  37.600   6.197
 4600POPC   D2A60124   7.616  37.681   6.581
 4600POPC   C3A60125   7.692  37.445   6.925
 4600POPC   C4A60126   7.429  37.627   7.196
 4600POPC   C1B60127   7.107  37.875   6.035
 4600POPC   C2B60128   7.206  37.983   6.446
 4600POPC   C3B60129   7.166  37.979   6.888
 4600POPC   C4B60130   6.977  37.826   7.283
 4601POPC   NC360131  25.980  19.300   5.413
 4601POPC   PO460132  26.566  19.526   5.656
 4601POPC   GL160133  26.327  19.162   5.864
 4601POPC   GL260134  25.958  19.075   5.868
 4601POPC   C1A60135  26.202  18.968   6.291
 4601POPC   D2A60136  26.393  18.842   6.665
 4601POPC   C3A60137  26.094  18.738   6.933
 4601POPC   C4A60138  25.927  19.000   7.242
 4601POPC   C1B60139  25.781  19.260   6.279
 4601POPC   C2B60140  25.874  19.163   6.705
 4601POPC   C3B60141  26.214  19.273   6.938
 4601POPC   C4B60142  26.264  19.401   7.351
 4602POPC   NC360143   4.609  17.483   5.416
 4602POPC   PO460144   3.967  17.785   5.470
 4602POPC   GL160145   4.255  17.664   5.765
 4602POPC   GL260146   4.510  17.901   5.717
 4602POPC   C1A60147   4.169  17.544   6.182
 4602POPC   D2A60148   3.988  17.656   6.592
 4602POPC   C3A60149   4.156  17.493   6.997
 4602POPC   C4A60150   4.326  17.108   7.205
 4602POPC   C1B60151   4.611  17.826   6.161
 4602POPC   C2B60152   4.500  17.650   6.561
 4602POPC   C3B60153   4.592  17.779   6.963
 4602POPC   C4B60154   4.560  17.557   7.332
 4603POPC   NC360155  31.667   6.904   5.422
 4603POPC   PO460156  31.122   6.434   5.430
 4603POPC   GL160157  31.370   6.656   5.770
 4603POPC   GL260158  31.713   6.514   5.766
 4603POPC   C1A60159  31.215   6.726   6.220
 4603POPC   D2A60160  31.196   6.520   6.665
 4603POPC   C3A60161  31.371   6.702   7.025
 4603POPC   C4A60162  31.797   6.924   7.072
 4603POPC   C1B60163  31.816   6.164   6.055
 4603POPC   C2B60164  31.829   6.105   6.514
 4603POPC   C3B60165  31.666   6.300   6.906
 4603POPC   C4B60166  31.792   6.478   7.314
 4604POPC   NC360167  39.370  44.788   5.399
 4604POPC   PO460168  38.933   0.195   5.690
 4604POPC   GL160169  39.049  44.785   5.817
 4604POPC   GL260170  39.376  44.694   5.888
 4604POPC   C1A60171  39.031  44.555   6.205
 4604POPC   D2A60172  39.461  44.546   6.411
 4604POPC   C3A60173  39.453  44.571   6.865
 4604POPC   C4A60174  39.082  44.508   7.138
 4604POPC   C1B60175  39.335  44.994   6.209
 4604POPC   C2B60176  39.486   0.059   6.628
 4604POPC   C3B60177  39.306   0.034   7.033
 4604POPC   C4B60178  39.433  44.781   7.375
 4605POPC   NC360179  42.225   7.348   5.518
 4605POPC   PO460180  42.038   7.858   5.497
 4605POPC   GL160181  42.236   7.862   5.906
 4605POPC   GL260182  42.579   7.789   5.795
 4605POPC   C1A60183  42.150   7.755   6.374
 4605POPC   D2A60184  42.329   7.424   6.657
 4605POPC   C3A60185  42.157   7.297   7.060
 4605POPC   C4A60186  41.796   7.372   7.318
 4605POPC   C1B60187  42.654   7.700   6.244
 4605POPC   C2B60188  42.569   7.876   6.659
 4605POPC   C3B60189  42.466   7.745   7.071
 4605POPC   C4B60190  42.792   7.700   7.410
 4606POPC   NC360191  28.518  26.432   5.391
 4606POPC   PO460192  28.416  25.870   5.549
 4606POPC   GL160193  28.326  26.157   5.875
 4606POPC   GL260194  28.082  25.934   5.977
 4606POPC   C1A60195  28.454  26.090   6.334
 4606POPC   D2A60196  28.677  26.042   6.741
 4606POPC   C3A60197  28.408  26.058   7.098
 4606POPC   C4A60198  28.147  26.384   7.299
 4606POPC   C1B60199  28.110  25.706   6.350
 4606POPC   C2B60200  28.249  25.677   6.759
 4606POPC   C3B60201  28.013  25.632   7.125
 4606POPC   C4B60202  28.065  25.910   7.456
 4607POPC   NC360203   7.665  40.449   5.513
 4607POPC   PO460204   7.309  40.896   5.422
 4607POPC   GL160205   7.443  40.962   5.832
 4607POPC   GL260206   7.768  40.803   5.895
 4607POPC   C1A60207   7.324  40.816   6.209
 4607POPC   D2A60208   7.486  40.797   6.597
 4607POPC   C3A60209   7.203  40.780   6.890
 4607POPC   C4A60210   7.214  40.862   7.291
 4607POPC   C1B60211   7.757  41.106   6.245
 4607POPC   C2B60212   7.901  41.064   6.676
 4607POPC   C3B60213   7.709  40.875   7.068
 4607POPC   C4B60214   7.600  41.149   7.428
 4608POPC   NC360215  29.517   5.284   5.582
 4608POPC   PO460216  30.167   5.217   5.383
 4608POPC   GL160217  29.954   5.104   5.787
 4608POPC   GL260218  29.903   5.443   5.912
 4608POPC   C1A60219  29.741   4.950   6.187
 4608POPC   D2A60220  29.636   5.016   6.625
 4608POPC   C3A60221  29.942   4.881   6.939
 4608POPC   C4A60222  29.824   4.929   7.368
 4608POPC   C1B60223  30.157   5.261   6.256
 4608POPC   C2B60224  30.095   5.334   6.704
 4608POPC   C3B60225  30.291   5.277   7.111
 4608POPC   C4B60226  30.146   5.320   7.522
 4609POPC   NC360227  15.877  29.349   5.440
 4609POPC   PO460228  15.966  28.735   5.583
 4609POPC   GL160229  15.780  29.015   5.885
 4609POPC   GL260230  15.621  29.372   5.877
 4609POPC   C1A60231  15.819  29.138   6.316
 4609POPC   D2A60232  16.177  29.082   6.550
 4609POPC   C3A60233  16.136  29.125   6.979
 4609POPC   C4A60234  16.507  29.093   7.227
 4609POPC   C1B60235  15.509  29.563   6.261
 4609POPC   C2B60236  15.550  29.470   6.683
 4609POPC   C3B60237  15.820  29.573   7.040
 4609POPC   C4B60238  16.120  29.457   7.378
 4610POPC   NC360239  37.681   5.105   5.215
 4610POPC   PO460240  37.623   5.583   5.660
 4610POPC   GL160241  37.571   5.220   5.915
 4610POPC   GL260242  37.762   4.995   5.728
 4610POPC   C1A60243  37.534   5.123   6.362
 4610POPC   D2A60244  37.656   5.430   6.648
 4610POPC   C3A60245  37.529   5.482   7.061
 4610POPC   C4A60246  37.238   5.255   7.292
 4610POPC   C1B60247  37.899   4.842   6.136
 4610POPC   C2B60248  37.768   4.667   6.536
 4610POPC   C3B60249  37.572   4.903   6.824
 4610POPC   C4B60250  37.670   5.013   7.191
 4611POPC   NC360251  34.290  21.142   5.457
 4611POPC   PO460252  34.865  21.462   5.381
 4611POPC   GL160253  34.695  21.290   5.772
 4611POPC   GL260254  34.380  21.448   5.882
 4611POPC   C1A60255  34.765  21.277   6.218
 4611POPC   D2A60256  34.701  21.505   6.594
 4611POPC   C3A60257  34.863  21.316   6.965
 4611POPC   C4A60258  34.759  21.510   7.339
 4611POPC   C1B60259  34.258  21.245   6.300
 4611POPC   C2B60260  34.456  21.086   6.690
 4611POPC   C3B60261  34.364  21.298   7.060
 4611POPC   C4B60262  34.100  21.135   7.325
 4612POPC   NC360263  33.868  42.753   5.425
 4612POPC   PO460264  33.628  42.184   5.230
 4612POPC   GL160265  33.659  42.278   5.707
 4612POPC   GL260266  33.710  42.599   5.894
 4612POPC   C1A60267  33.605  42.193   6.176
 4612POPC   D2A60268  33.824  42.112   6.559
 4612POPC   C3A60269  33.704  42.286   6.930
 4612POPC   C4A60270  33.752  42.096   7.330
 4612POPC   C1B60271  34.041  42.454   6.234
 4612POPC   C2B60272  34.153  42.499   6.631
 4612POPC   C3B60273  34.189  42.276   6.975
 4612POPC   C4B60274  34.147  42.421   7.371
 4613POPC   NC360275  38.388  27.837   5.386
 4613POPC   PO460276  38.341  27.234   5.600
 4613POPC   GL160277  38.344  27.578   5.838
 4613POPC   GL260278  38.097  27.452   6.056
 4613POPC   C1A60279  38.519  27.793   6.184
 4613POPC   D2A60280  38.636  27.636   6.601
 4613POPC   C3A60281  38.382  27.749   6.951
 4613POPC   C4A60282  38.488  27.732   7.378
 4613POPC   C1B60283  38.467  27.253   6.254
 4613POPC   C2B60284  38.679  27.116   6.639
 4613POPC   C3B60285  38.651  27.292   7.057
 4613POPC   C4B60286  38.252  27.294   7.250
 4614POPC   NC360287  30.206  26.755   5.122
 4614POPC   PO460288  29.651  26.468   5.451
 4614POPC   GL160289  29.797  26.873   5.702
 4614POPC   GL260290  30.155  26.857   5.646
 4614POPC   C1A60291  29.780  27.023   6.148
 4614POPC   D2A60292  29.852  26.770   6.508
 4614POPC   C3A60293  29.816  26.840   6.940
 4614POPC   C4A60294  30.021  26.518   7.160
 4614POPC   C1B60295  30.279  26.999   6.038
 4614POPC   C2B60296  30.289  27.054   6.484
 4614POPC   C3B60297  30.356  26.866   6.868
 4614POPC   C4B60298  30.214  26.978   7.259
 4615POPC   NC360299  32.869  25.105   5.386
 4615POPC   PO460300  32.715  25.647   5.683
 4615POPC   GL160301  33.024  25.328   5.838
 4615POPC   GL260302  33.171  24.957   5.763
 4615POPC   C1A60303  33.217  25.456   6.212
 4615POPC   D2A60304  32.952  25.542   6.576
 4615POPC   C3A60305  33.086  25.528   6.995
 4615POPC   C4A60306  32.972  25.286   7.355
 4615POPC   C1B60307  33.107  24.948   6.186
 4615POPC   C2B60308  33.256  25.087   6.582
 4615POPC   C3B60309  33.069  24.988   6.955
 4615POPC   C4B60310  33.212  24.828   7.338
 4616POPC   NC360311  28.787  34.047   5.487
 4616POPC   PO460312  29.289  33.616   5.436
 4616POPC   GL160313  29.295  33.747   5.839
 4616POPC   GL260314  28.934  33.709   5.844
 4616POPC   C1A60315  29.270  33.933   6.268
 4616POPC   D2A60316  29.462  34.086   6.673
 4616POPC   C3A60317  29.255  33.880   7.032
 4616POPC   C4A60318  29.302  33.823   7.483
 4616POPC   C1B60319  29.019  33.498   6.223
 4616POPC   C2B60320  28.920  33.666   6.625
 4616POPC   C3B60321  28.880  33.472   7.016
 4616POPC   C4B60322  28.942  33.488   7.434
 4617POPC   NC360323  31.496  27.267   5.714
 4617POPC   PO460324  31.411  26.670   5.403
 4617POPC   GL160325  31.531  26.758   5.817
 4617POPC   GL260326  31.853  26.885   5.740
 4617POPC   C1A60327  31.481  26.692   6.272
 4617POPC   D2A60328  31.195  26.545   6.597
 4617POPC   C3A60329  31.358  26.666   6.987
 4617POPC   C4A60330  31.602  26.942   7.194
 4617POPC   C1B60331  31.980  26.636   6.102
 4617POPC   C2B60332  31.962  26.749   6.539
 4617POPC   C3B60333  31.884  26.611   6.945
 4617POPC   C4B60334  31.746  26.364   7.260
 4618POPC   NC360335  15.174  27.817   5.591
 4618POPC   PO460336  15.379  27.231   5.532
 4618POPC   GL160337  15.280  27.389   5.928
 4618POPC   GL260338  14.952  27.426   5.865
 4618POPC   C1A60339  15.285  27.435   6.410
 4618POPC   D2A60340  15.410  27.249   6.837
 4618POPC   C3A60341  15.512  27.519   7.187
 4618POPC   C4A60342  15.358  27.909   7.277
 4618POPC   C1B60343  14.789  27.340   6.249
 4618POPC   C2B60344  14.857  27.364   6.694
 4618POPC   C3B60345  15.007  27.556   7.079
 4618POPC   C4B60346  14.825  27.571   7.486
 4619POPC   NC360347  21.362  10.855   5.528
 4619POPC   PO460348  21.665  10.389   5.468
 4619POPC   GL160349  21.363  10.433   5.868
 4619POPC   GL260350  21.096  10.702   5.950
 4619POPC   C1A60351  21.242  10.388   6.339
 4619POPC   D2A60352  21.248  10.650   6.690
 4619POPC   C3A60353  21.326  10.499   7.122
 4619POPC   C4A60354  21.601  10.565   7.519
 4619POPC   C1B60355  20.866  10.774   6.354
 4619POPC   C2B60356  20.728  10.634   6.771
 4619POPC   C3B60357  20.801  10.531   7.208
 4619POPC   C4B60358  20.744  10.671   7.653
 4620POPC   NC360359  10.743  14.495   5.467
 4620POPC   PO460360  10.079  14.273   5.447
 4620POPC   GL160361  10.356  14.424   5.762
 4620POPC   GL260362  10.552  14.099   5.715
 4620POPC   C1A60363  10.624  14.500   6.156
 4620POPC   D2A60364  10.720  14.711   6.576
 4620POPC   C3A60365  10.746  14.491   6.989
 4620POPC   C4A60366  10.521  14.374   7.381
 4620POPC   C1B60367  10.335  14.049   6.092
 4620POPC   C2B60368  10.297  14.261   6.493
 4620POPC   C3B60369  10.361  14.155   6.907
 4620POPC   C4B60370  10.129  14.074   7.254
 4621POPC   NC360371  29.624   7.954   5.463
 4621POPC   PO460372  30.245   8.170   5.312
 4621POPC   GL160373  30.014   8.209   5.694
 4621POPC   GL260374  29.879   8.545   5.756
 4621POPC   C1A60375  29.939   7.920   6.035
 4621POPC   D2A60376  30.024   7.959   6.442
 4621POPC   C3A60377  29.795   7.904   6.810
 4621POPC   C4A60378  29.849   8.038   7.224
 4621POPC   C1B60379  29.900   8.418   6.193
 4621POPC   C2B60380  29.685   8.349   6.569
 4621POPC   C3B60381  29.853   8.470   6.938
 4621POPC   C4B60382  30.007   8.491   7.359
 4622POPC   NC360383  11.203  35.008   5.466
 4622POPC   PO460384  11.463  34.415   5.330
 4622POPC   GL160385  11.495  34.625   5.722
 4622POPC   GL260386  11.738  34.878   5.726
 4622POPC   C1A60387  11.369  34.589   6.154
 4622POPC   D2A60388  11.269  34.366   6.524
 4622POPC   C3A60389  11.273  34.591   6.900
 4622POPC   C4A60390  11.162  34.528   7.312
 4622POPC   C1B60391  11.747  34.948   6.172
 4622POPC   C2B60392  11.530  34.900   6.558
 4622POPC   C3B60393  11.579  35.010   6.993
 4622POPC   C4B60394  11.209  35.041   7.221
 4623POPC   NC360395  40.578  33.653   5.209
 4623POPC   PO460396  41.179  33.562   5.284
 4623POPC   GL160397  40.817  33.563   5.658
 4623POPC   GL260398  40.418  33.578   5.705
 4623POPC   C1A60399  40.905  33.742   6.095
 4623POPC   D2A60400  41.065  33.998   6.471
 4623POPC   C3A60401  40.932  33.869   6.897
 4623POPC   C4A60402  41.065  33.977   7.310
 4623POPC   C1B60403  40.467  33.453   6.141
 4623POPC   C2B60404  40.729  33.521   6.529
 4623POPC   C3B60405  40.884  33.362   6.920
 4623POPC   C4B60406  40.763  33.527   7.316
 4624POPC   NC360407  26.899  33.270   5.448
 4624POPC   PO460408  26.805  33.984   5.331
 4624POPC   GL160409  26.840  33.791   5.736
 4624POPC   GL260410  27.111  33.599   5.801
 4624POPC   C1A60411  26.763  33.632   6.188
 4624POPC   D2A60412  26.712  33.520   6.644
 4624POPC   C3A60413  26.576  33.763   7.018
 4624POPC   C4A60414  26.788  33.814   7.440
 4624POPC   C1B60415  27.142  33.944   6.132
 4624POPC   C2B60416  27.178  33.794   6.567
 4624POPC   C3B60417  27.106  33.646   6.998
 4624POPC   C4B60418  26.852  33.282   7.098
 4625POPC   NC360419  30.902  13.347   5.201
 4625POPC   PO460420  30.481  13.884   5.089
 4625POPC   GL160421  30.536  13.515   5.500
 4625POPC   GL260422  30.866  13.532   5.751
 4625POPC   C1A60423  30.404  13.435   5.957
 4625POPC   D2A60424  30.392  13.434   6.423
 4625POPC   C3A60425  30.538  13.576   6.853
 4625POPC   C4A60426  30.522  13.731   7.301
 4625POPC   C1B60427  30.932  13.826   6.195
 4625POPC   C2B60428  31.014  14.011   6.642
 4625POPC   C3B60429  30.987  13.806   7.061
 4625POPC   C4B60430  31.150  13.366   7.203
 4626POPC   NC360431  28.797  31.782   5.424
 4626POPC   PO460432  29.052  32.397   5.218
 4626POPC   GL160433  28.977  32.311   5.702
 4626POPC   GL260434  29.021  31.960   5.853
 4626POPC   C1A60435  29.168  32.428   6.142
 4626POPC   D2A60436  29.348  32.342   6.580
 4626POPC   C3A60437  29.096  32.452   6.982
 4626POPC   C4A60438  28.990  32.597   7.434
 4626POPC   C1B60439  29.362  31.918   6.156
 4626POPC   C2B60440  29.580  31.793   6.547
 4626POPC   C3B60441  29.386  31.963   6.930
 4626POPC   C4B60442  29.492  32.274   7.263
 4627POPC   NC360443  27.551  44.727   5.153
 4627POPC   PO460444  27.850  44.317   5.600
 4627POPC   GL160445  27.677  44.643   5.843
 4627POPC   GL260446  27.324  44.663   5.839
 4627POPC   C1A60447  27.596  44.697   6.284
 4627POPC   D2A60448  27.672  44.732   6.706
 4627POPC   C3A60449  27.374  44.586   7.020
 4627POPC   C4A60450  27.543  44.584   7.435
 4627POPC   C1B60451  27.241   0.021   6.144
 4627POPC   C2B60452  27.422   0.210   6.495
 4627POPC   C3B60453  27.357   0.079   6.896
 4627POPC   C4B60454  27.323   0.010   7.304
 4628POPC   NC360455  27.826   1.076   5.427
 4628POPC   PO460456  27.795   1.726   5.286
 4628POPC   GL160457  27.690   1.495   5.742
 4628POPC   GL260458  27.396   1.594   5.916
 4628POPC   C1A60459  27.589   1.184   6.154
 4628POPC   D2A60460  27.388   1.192   6.606
 4628POPC   C3A60461  27.530   1.035   6.990
 4628POPC   C4A60462  27.655   0.956   7.426
 4628POPC   C1B60463  27.199   1.536   6.290
 4628POPC   C2B60464  27.162   1.660   6.695
 4628POPC   C3B60465  27.367   1.513   7.031
 4628POPC   C4B60466  27.353   1.353   7.419
 4629POPC   NC360467  37.296  14.839   5.439
 4629POPC   PO460468  36.746  15.331   5.411
 4629POPC   GL160469  36.903  15.135   5.786
 4629POPC   GL260470  37.221  15.246   5.889
 4629POPC   C1A60471  36.932  15.062   6.257
 4629POPC   D2A60472  36.737  15.318   6.582
 4629POPC   C3A60473  36.723  15.087   6.919
 4629POPC   C4A60474  36.905  14.990   7.258
 4629POPC   C1B60475  37.156  15.525   6.241
 4629POPC   C2B60476  37.074  15.684   6.665
 4629POPC   C3B60477  37.020  15.495   7.075
 4629POPC   C4B60478  37.020  15.413   7.529
 4630POPC   NC360479   2.698  30.041   5.271
 4630POPC   PO460480   1.975  29.999   5.296
 4630POPC   GL160481   2.172  29.919   5.704
 4630POPC   GL260482   2.431  30.175   5.732
 4630POPC   C1A60483   2.024  29.732   6.130
 4630POPC   D2A60484   2.010  29.579   6.574
 4630POPC   C3A60485   2.030  29.761   6.972
 4630POPC   C4A60486   1.900  29.735   7.422
 4630POPC   C1B60487   2.108  30.230   6.110
 4630POPC   C2B60488   1.897  30.111   6.527
 4630POPC   C3B60489   1.867  30.234   6.975
 4630POPC   C4B60490   2.074  30.203   7.372
 4631POPC   NC360491  20.423  35.272   5.420
 4631POPC   PO460492  21.087  35.366   5.383
 4631POPC   GL160493  20.972  35.260   5.767
 4631POPC   GL260494  20.693  35.013   5.837
 4631POPC   C1A60495  20.797  35.432   6.151
 4631POPC   D2A60496  20.567  35.335   6.520
 4631POPC   C3A60497  20.575  35.599   6.881
 4631POPC   C4A60498  20.249  35.547   7.231
 4631POPC   C1B60499  21.039  34.969   6.159
 4631POPC   C2B60500  21.078  35.152   6.550
 4631POPC   C3B60501  20.877  35.078   6.923
 4631POPC   C4B60502  20.699  35.285   7.266
 4632POPC   NC360503   0.432  41.721   5.216
 4632POPC   PO460504   0.149  42.109   5.708
 4632POPC   GL160505   0.539  41.822   5.831
 4632POPC   GL260506   0.617  41.438   5.762
 4632POPC   C1A60507   0.641  41.658   6.260
 4632POPC   D2A60508   0.402  41.475   6.611
 4632POPC   C3A60509   0.384  41.656   7.026
 4632POPC   C4A60510   0.236  41.681   7.437
 4632POPC   C1B60511   0.578  41.156   6.148
 4632POPC   C2B60512   0.755  41.101   6.548
 4632POPC   C3B60513   0.594  41.113   6.969
 4632POPC   C4B60514   0.658  41.358   7.338
 4633POPC   NC360515  13.817  36.125   5.198
 4633POPC   PO460516  13.161  36.068   5.398
 4633POPC   GL160517  13.402  36.066   5.761
 4633POPC   GL260518  13.277  35.789   5.966
 4633POPC   C1A60519  13.326  36.267   6.172
 4633POPC   D2A60520  13.459  36.510   6.519
 4633POPC   C3A60521  13.516  36.246   6.883
 4633POPC   C4A60522  13.579  36.187   7.343
 4633POPC   C1B60523  13.695  35.912   6.179
 4633POPC   C2B60524  13.890  36.175   6.534
 4633POPC   C3B60525  13.983  36.072   6.991
 4633POPC   C4B60526  13.776  35.737   7.225
 4634POPC   NC360527  12.470  27.006   5.485
 4634POPC   PO460528  13.088  26.756   5.515
 4634POPC   GL160529  12.833  26.827   5.832
 4634POPC   GL260530  12.595  26.566   5.789
 4634POPC   C1A60531  13.027  26.899   6.219
 4634POPC   D2A60532  13.185  26.748   6.594
 4634POPC   C3A60533  13.030  27.004   6.937
 4634POPC   C4A60534  12.882  26.762   7.264
 4634POPC   C1B60535  12.666  26.490   6.191
 4634POPC   C2B60536  12.446  26.477   6.551
 4634POPC   C3B60537  12.564  26.675   6.884
 4634POPC   C4B60538  12.580  26.365   7.174
 4635POPC   NC360539  39.614  41.681   5.598
 4635POPC   PO460540  39.111  41.462   5.298
 4635POPC   GL160541  39.170  41.503   5.747
 4635POPC   GL260542  39.355  41.200   5.750
 4635POPC   C1A60543  39.184  41.732   6.149
 4635POPC   D2A60544  39.288  41.893   6.554
 4635POPC   C3A60545  39.430  41.729   6.953
 4635POPC   C4A60546  39.484  41.828   7.401
 4635POPC   C1B60547  39.428  41.275   6.175
 4635POPC   C2B60548  39.486  41.388   6.573
 4635POPC   C3B60549  39.482  41.160   6.928
 4635POPC   C4B60550  39.306  41.341   7.292
 4636POPC   NC360551   1.266  44.959   5.573
 4636POPC   PO460552   0.865  44.486   5.452
 4636POPC   GL160553   1.126  44.473   5.848
 4636POPC   GL260554   1.474  44.284   5.910
 4636POPC   C1A60555   1.043  44.645   6.234
 4636POPC   D2A60556   0.998  44.430   6.602
 4636POPC   C3A60557   1.049  44.675   6.959
 4636POPC   C4A60558   0.900  44.615   7.345
 4636POPC   C1B60559   1.531  44.509   6.259
 4636POPC   C2B60560   1.449  44.712   6.636
 4636POPC   C3B60561   1.505  44.931   7.032
 4636POPC   C4B60562   1.396  44.681   7.388
 4637POPC   NC360563   3.620  22.002   5.349
 4637POPC   PO460564   3.578  22.693   5.339
 4637POPC   GL160565   3.697  22.400   5.744
 4637POPC   GL260566   3.739  22.044   5.844
 4637POPC   C1A60567   3.874  22.436   6.165
 4637POPC   D2A60568   3.781  22.290   6.596
 4637POPC   C3A60569   3.332  22.288   6.721
 4637POPC   C4A60570   3.151  22.241   7.112
 4637POPC   C1B60571   3.487  22.068   6.223
 4637POPC   C2B60572   3.376  21.798   6.555
 4637POPC   C3B60573   3.448  21.854   6.978
 4637POPC   C4B60574   3.196  21.768   7.305
 4638POPC   NC360575  26.068  37.263   5.567
 4638POPC   PO460576  26.305  37.892   5.376
 4638POPC   GL160577  26.091  37.752   5.742
 4638POPC   GL260578  26.395  37.573   5.781
 4638POPC   C1A60579  25.909  37.777   6.167
 4638POPC   D2A60580  25.829  37.755   6.610
 4638POPC   C3A60581  26.183  37.796   6.890
 4638POPC   C4A60582  25.895  37.769   7.195
 4638POPC   C1B60583  26.421  37.799   6.138
 4638POPC   C2B60584  26.286  37.513   6.461
 4638POPC   C3B60585  26.140  37.284   6.823
 4638POPC   C4B60586  26.443  37.170   7.161
 4639POPC   NC360587  42.780  40.589   5.554
 4639POPC   PO460588  43.308  41.008   5.456
 4639POPC   GL160589  43.253  40.789   5.883
 4639POPC   GL260590  42.954  40.652   6.040
 4639POPC   C1A60591  43.302  40.986   6.318
 4639POPC   D2A60592  43.038  41.158   6.680
 4639POPC   C3A60593  43.111  41.111   7.094
 4639POPC   C4A60594  43.055  40.721   7.277
 4639POPC   C1B60595  42.966  40.667   6.514
 4639POPC   C2B60596  43.354  40.718   6.841
 4639POPC   C3B60597  43.497  40.494   7.270
 4639POPC   C4B60598  43.279  40.573   7.722
 4640POPC   NC360599   3.842  23.496   5.490
 4640POPC   PO460600   3.223  23.626   5.272
 4640POPC   GL160601   3.399  23.670   5.690
 4640POPC   GL260602   3.442  24.008   5.750
 4640POPC   C1A60603   3.591  23.699   6.139
 4640POPC   D2A60604   3.764  23.935   6.520
 4640POPC   C3A60605   3.782  23.664   6.884
 4640POPC   C4A60606   3.645  23.576   7.280
 4640POPC   C1B60607   3.152  24.007   6.105
 4640POPC   C2B60608   3.243  23.852   6.529
 4640POPC   C3B60609   3.361  23.960   6.972
 4640POPC   C4B60610   3.223  24.069   7.395
 4641POPC   NC360611  22.838  35.282   5.421
 4641POPC   PO460612  22.713  35.885   5.632
 4641POPC   GL160613  22.849  35.534   5.891
 4641POPC   GL260614  23.157  35.662   6.020
 4641POPC   C1A60615  22.793  35.176   6.206
 4641POPC   D2A60616  22.946  35.091   6.633
 4641POPC   C3A60617  22.807  35.262   7.037
 4641POPC   C4A60618  22.766  35.315   7.476
 4641POPC   C1B60619  23.306  35.264   6.199
 4641POPC   C2B60620  23.464  35.097   6.590
 4641POPC   C3B60621  23.365  35.227   6.993
 4641POPC   C4B60622  23.238  35.169   7.395
 4642POPC   NC360623  34.702  27.098   5.246
 4642POPC   PO460624  34.146  26.636   5.345
 4642POPC   GL160625  34.358  26.694   5.740
 4642POPC   GL260626  34.717  26.753   5.824
 4642POPC   C1A60627  34.347  26.823   6.178
 4642POPC   D2A60628  34.613  26.864   6.525
 4642POPC   C3A60629  34.447  26.810   6.930
 4642POPC   C4A60630  34.572  26.845   7.370
 4642POPC   C1B60631  35.005  26.826   6.190
 4642POPC   C2B60632  35.125  26.865   6.630
 4642POPC   C3B60633  34.936  26.904   7.015
 4642POPC   C4B60634  35.017  27.067   7.427
 4643POPC   NC360635  20.842  33.405   5.438
 4643POPC   PO460636  20.571  32.803   5.240
 4643POPC   GL160637  20.455  32.927   5.741
 4643POPC   GL260638  20.711  33.122   5.856
 4643POPC   C1A60639  20.427  33.081   6.257
 4643POPC   D2A60640  20.685  33.250   6.634
 4643POPC   C3A60641  20.590  33.101   7.086
 4643POPC   C4A60642  20.524  32.793   7.463
 4643POPC   C1B60643  20.759  32.723   6.103
 4643POPC   C2B60644  20.787  32.748   6.553
 4643POPC   C3B60645  21.049  32.907   6.875
 4643POPC   C4B60646  20.976  32.708   7.257
 4644POPC   NC360647   8.710  36.721   5.007
 4644POPC   PO460648   9.284  36.818   5.361
 4644POPC   GL160649   9.070  36.999   5.692
 4644POPC   GL260650   9.048  36.701   5.881
 4644POPC   C1A60651   8.964  37.162   6.113
 4644POPC   D2A60652   8.980  37.203   6.573
 4644POPC   C3A60653   8.625  37.052   6.819
 4644POPC   C4A60654   8.612  37.082   7.262
 4644POPC   C1B60655   9.213  36.729   6.292
 4644POPC   C2B60656   9.253  36.744   6.713
 4644POPC   C3B60657   9.007  36.796   7.054
 4644POPC   C4B60658   9.054  36.710   7.467
 4645POPC   NC360659  27.001  39.384   5.412
 4645POPC   PO460660  26.476  38.989   5.441
 4645POPC   GL160661  26.600  39.283   5.760
 4645POPC   GL260662  26.866  39.106   5.867
 4645POPC   C1A60663  26.484  39.226   6.198
 4645POPC   D2A60664  26.607  39.324   6.608
 4645POPC   C3A60665  26.625  39.144   7.031
 4645POPC   C4A60666  26.848  39.220   7.422
 4645POPC   C1B60667  27.027  39.102   6.298
 4645POPC   C2B60668  26.920  38.928   6.690
 4645POPC   C3B60669  26.963  38.756   7.093
 4645POPC   C4B60670  27.087  38.769   7.506
 4646POPC   NC360671  30.609   5.089   5.307
 4646POPC   PO460672  31.141   5.284   5.566
 4646POPC   GL160673  30.808   5.057   5.806
 4646POPC   GL260674  30.471   5.221   5.811
 4646POPC   C1A60675  30.590   4.884   6.182
 4646POPC   D2A60676  30.356   4.893   6.579
 4646POPC   C3A60677  30.608   4.892   6.953
 4646POPC   C4A60678  30.781   5.027   7.346
 4646POPC   C1B60679  30.668   5.381   6.222
 4646POPC   C2B60680  30.607   5.324   6.675
 4646POPC   C3B60681  30.805   5.432   7.053
 4646POPC   C4B60682  30.701   5.501   7.525
 4647POPC   NC360683  42.924  15.261   5.485
 4647POPC   PO460684  43.461  14.920   5.228
 4647POPC   GL160685  43.424  15.039   5.681
 4647POPC   GL260686  43.096  14.933   5.843
 4647POPC   C1A60687  43.452  15.169   6.134
 4647POPC   D2A60688  43.281  15.108   6.556
 4647POPC   C3A60689  43.073  15.320   6.873
 4647POPC   C4A60690  43.411  15.163   7.114
 4647POPC   C1B60691  43.076  14.751   6.264
 4647POPC   C2B60692  42.925  14.768   6.719
 4647POPC   C3B60693  42.959  14.861   7.182
 4647POPC   C4B60694  42.994  14.611   7.582
 4648POPC   NC360695  27.343  40.972   5.338
 4648POPC   PO460696  27.987  41.017   5.342
 4648POPC   GL160697  27.729  40.884   5.726
 4648POPC   GL260698  27.412  41.056   5.853
 4648POPC   C1A60699  27.669  40.748   6.194
 4648POPC   D2A60700  27.607  40.884   6.644
 4648POPC   C3A60701  27.832  40.780   7.073
 4648POPC   C4A60702  27.708  40.684   7.514
 4648POPC   C1B60703  27.220  41.106   6.298
 4648POPC   C2B60704  27.126  41.077   6.760
 4648POPC   C3B60705  27.339  40.852   7.094
 4648POPC   C4B60706  27.533  41.139   7.412
 4649POPC   NC360707  12.268   0.652   5.483
 4649POPC   PO460708  11.872   0.058   5.479
 4649POPC   GL160709  11.756   0.444   5.785
 4649POPC   GL260710  11.999   0.758   5.897
 4649POPC   C1A60711  11.690   0.609   6.230
 4649POPC   D2A60712  11.981   0.679   6.576
 4649POPC   C3A60713  11.933   0.454   6.938
 4649POPC   C4A60714  12.217   0.259   7.217
 4649POPC   C1B60715  12.299   0.833   6.204
 4649POPC   C2B60716  12.554   0.849   6.579
 4649POPC   C3B60717  12.421   0.705   6.972
 4649POPC   C4B60718  12.060   0.923   7.104
 4650POPC   NC360719  41.795  32.797   5.607
 4650POPC   PO460720  42.288  33.133   5.274
 4650POPC   GL160721  42.305  32.912   5.682
 4650POPC   GL260722  42.080  33.141   5.855
 4650POPC   C1A60723  42.209  32.707   6.104
 4650POPC   D2A60724  42.327  32.711   6.515
 4650POPC   C3A60725  42.068  32.814   6.864
 4650POPC   C4A60726  42.311  32.734   7.228
 4650POPC   C1B60727  42.284  33.219   6.264
 4650POPC   C2B60728  42.239  33.264   6.716
 4650POPC   C3B60729  42.324  33.236   7.149
 4650POPC   C4B60730  42.107  33.088   7.548
 4651POPC   NC360731  43.000  34.756   5.464
 4651POPC   PO460732  43.260  34.223   5.603
 4651POPC   GL160733  43.006  34.396   5.865
 4651POPC   GL260734  42.666  34.422   5.680
 4651POPC   C1A60735  43.172  34.688   6.181
 4651POPC   D2A60736  43.307  34.563   6.597
 4651POPC   C3A60737  43.333  34.912   6.861
 4651POPC   C4A60738  43.117  34.961   7.196
 4651POPC   C1B60739  42.642  34.657   6.060
 4651POPC   C2B60740  42.782  34.523   6.463
 4651POPC   C3B60741  42.887  34.619   6.886
 4651POPC   C4B60742  42.663  34.706   7.252
 4652POPC   NC360743  14.944  20.597   5.499
 4652POPC   PO460744  15.619  20.661   5.546
 4652POPC   GL160745  15.333  20.584   5.844
 4652POPC   GL260746  15.170  20.910   5.850
 4652POPC   C1A60747  15.122  20.489   6.211
 4652POPC   D2A60748  15.006  20.591   6.624
 4652POPC   C3A60749  15.235  20.433   6.976
 4652POPC   C4A60750  15.101  20.466   7.362
 4652POPC   C1B60751  14.841  20.974   6.163
 4652POPC   C2B60752  14.855  21.099   6.596
 4652POPC   C3B60753  15.084  20.961   6.981
 4652POPC   C4B60754  14.842  20.908   7.329
 4653POPC   NC360755   3.327   4.123   5.472
 4653POPC   PO460756   3.760   4.615   5.380
 4653POPC   GL160757   3.687   4.392   5.760
 4653POPC   GL260758   3.990   4.250   5.840
 4653POPC   C1A60759   3.619   4.481   6.213
 4653POPC   D2A60760   3.886   4.349   6.586
 4653POPC   C3A60761   3.658   4.353   6.996
 4653POPC   C4A60762   3.640   4.235   7.463
 4653POPC   C1B60763   3.798   4.010   6.152
 4653POPC   C2B60764   3.644   3.900   6.545
 4653POPC   C3B60765   3.448   3.896   6.912
 4653POPC   C4B60766   3.656   3.808   7.221
 4654POPC   NC360767  41.938  40.684   5.446
 4654POPC   PO460768  42.541  41.029   5.524
 4654POPC   GL160769  42.354  40.723   5.868
 4654POPC   GL260770  42.013  40.491   5.917
 4654POPC   C1A60771  42.219  40.775   6.296
 4654POPC   D2A60772  42.156  41.023   6.661
 4654POPC   C3A60773  42.284  40.907   7.086
 4654POPC   C4A60774  42.647  41.004   7.327
 4654POPC   C1B60775  42.072  40.257   6.311
 4654POPC   C2B60776  42.173  40.464   6.708
 4654POPC   C3B60777  41.985  40.470   7.102
 4654POPC   C4B60778  42.250  40.469   7.443
 4655POPC   NC360779  12.418  35.394   5.387
 4655POPC   PO460780  12.953  35.091   5.376
 4655POPC   GL160781  12.920  35.322   5.784
 4655POPC   GL260782  12.676  35.623   5.836
 4655POPC   C1A60783  13.026  35.414   6.213
 4655POPC   D2A60784  12.906  35.572   6.613
 4655POPC   C3A60785  12.967  35.397   7.005
 4655POPC   C4A60786  12.929  35.563   7.399
 4655POPC   C1B60787  12.517  35.487   6.276
 4655POPC   C2B60788  12.446  35.386   6.731
 4655POPC   C3B60789  12.471  35.493   7.162
 4655POPC   C4B60790  12.520  35.883   7.426
 4656POPC   NC360791  38.124   5.394   5.507
 4656POPC   PO460792  38.548   4.819   5.391
 4656POPC   GL160793  38.564   5.011   5.811
 4656POPC   GL260794  38.243   5.104   5.884
 4656POPC   C1A60795  38.535   5.131   6.285
 4656POPC   D2A60796  38.749   5.081   6.692
 4656POPC   C3A60797  38.448   5.057   6.995
 4656POPC   C4A60798  38.464   5.424   7.202
 4656POPC   C1B60799  38.033   5.323   6.228
 4656POPC   C2B60800  38.046   5.098   6.614
 4656POPC   C3B60801  38.017   5.309   6.992
 4656POPC   C4B60802  38.103   5.148   7.421
 4657POPC   NC360803  19.402   5.694   5.525
 4657POPC   PO460804  20.054   5.656   5.217
 4657POPC   GL160805  19.899   5.809   5.690
 4657POPC   GL260806  19.747   5.547   5.858
 4657POPC   C1A60807  19.818   5.960   6.201
 4657POPC   D2A60808  20.036   6.089   6.617
 4657POPC   C3A60809  19.921   6.142   7.077
 4657POPC   C4A60810  19.802   5.943   7.476
 4657POPC   C1B60811  20.043   5.521   6.151
 4657POPC   C2B60812  20.164   5.589   6.559
 4657POPC   C3B60813  19.937   5.640   6.919
 4657POPC   C4B60814  20.087   5.529   7.279
 4658POPC   NC360815  12.693  37.976   5.375
 4658POPC   PO460816  13.272  37.665   5.116
 4658POPC   GL160817  13.049  37.709   5.587
 4658POPC   GL260818  12.698  37.574   5.696
 4658POPC   C1A60819  12.984  37.776   6.058
 4658POPC   D2A60820  12.838  37.959   6.468
 4658POPC   C3A60821  12.918  37.800   6.869
 4658POPC   C4A60822  13.249  37.737   7.142
 4658POPC   C1B60823  12.492  37.578   6.114
 4658POPC   C2B60824  12.397  37.713   6.540
 4658POPC   C3B60825  12.431  37.589   6.968
 4658POPC   C4B60826  12.495  37.791   7.346
 4659POPC   NC360827   5.922   7.777   5.212
 4659POPC   PO460828   5.623   7.162   5.297
 4659POPC   GL160829   5.789   7.314   5.699
 4659POPC   GL260830   5.558   7.108   5.862
 4659POPC   C1A60831   5.735   7.482   6.163
 4659POPC   D2A60832   5.891   7.330   6.579
 4659POPC   C3A60833   5.836   7.523   6.995
 4659POPC   C4A60834   5.666   7.865   7.293
 4659POPC   C1B60835   5.886   6.991   6.143
 4659POPC   C2B60836   6.000   6.829   6.535
 4659POPC   C3B60837   6.026   6.943   6.930
 4659POPC   C4B60838   5.665   7.061   7.133
 4660POPC   NC360839  12.559   8.695   5.304
 4660POPC   PO460840  13.224   8.755   5.354
 4660POPC   GL160841  13.040   8.922   5.746
 4660POPC   GL260842  12.690   8.762   5.785
 4660POPC   C1A60843  12.885   9.017   6.175
 4660POPC   D2A60844  12.622   9.137   6.519
 4660POPC   C3A60845  12.846   8.995   6.898
 4660POPC   C4A60846  13.229   8.801   7.046
 4660POPC   C1B60847  12.533   8.650   6.204
 4660POPC   C2B60848  12.532   8.653   6.654
 4660POPC   C3B60849  12.539   8.644   7.099
 4660POPC   C4B60850  12.456   8.896   7.447
 4661POPC   NC360851   8.676  29.393   4.968
 4661POPC   PO460852   8.917  29.036   5.415
 4661POPC   GL160853   8.867  29.208   5.811
 4661POPC   GL260854   8.522  29.220   5.730
 4661POPC   C1A60855   9.105  29.226   6.213
 4661POPC   D2A60856   9.248  29.029   6.596
 4661POPC   C3A60857   9.137  29.092   7.048
 4661POPC   C4A60858   9.210  29.082   7.559
 4661POPC   C1B60859   8.498  29.176   6.176
 4661POPC   C2B60860   8.734  29.041   6.528
 4661POPC   C3B60861   8.643  29.131   6.942
 4661POPC   C4B60862   8.729  29.056   7.387
 4662POPC   NC360863  30.936   1.483   5.534
 4662POPC   PO460864  30.470   1.224   5.159
 4662POPC   GL160865  30.595   1.123   5.656
 4662POPC   GL260866  30.505   1.473   5.791
 4662POPC   C1A60867  30.695   0.988   6.136
 4662POPC   D2A60868  30.423   0.993   6.535
 4662POPC   C3A60869  30.531   1.058   6.963
 4662POPC   C4A60870  30.910   1.057   7.180
 4662POPC   C1B60871  30.614   1.485   6.230
 4662POPC   C2B60872  30.611   1.495   6.645
 4662POPC   C3B60873  30.745   1.519   7.045
 4662POPC   C4B60874  30.342   1.519   7.164
 4663POPC   NC360875  42.542  25.832   5.484
 4663POPC   PO460876  42.125  26.407   5.507
 4663POPC   GL160877  42.439  26.189   5.852
 4663POPC   GL260878  42.463  25.808   5.970
 4663POPC   C1A60879  42.664  26.164   6.280
 4663POPC   D2A60880  42.547  26.304   6.718
 4663POPC   C3A60881  42.158  26.200   6.977
 4663POPC   C4A60882  42.084  25.889   7.328
 4663POPC   C1B60883  42.334  25.609   6.348
 4663POPC   C2B60884  42.260  25.758   6.739
 4663POPC   C3B60885  42.523  25.861   7.058
 4663POPC   C4B60886  42.603  25.899   7.507
 4664POPC   NC360887  15.356  31.693   5.483
 4664POPC   PO460888  14.992  31.125   5.353
 4664POPC   GL160889  15.090  31.374   5.787
 4664POPC   GL260890  15.394  31.562   5.955
 4664POPC   C1A60891  15.155  31.237   6.239
 4664POPC   D2A60892  15.004  31.220   6.641
 4664POPC   C3A60893  15.233  31.355   7.017
 4664POPC   C4A60894  15.209  31.398   7.460
 4664POPC   C1B60895  15.061  31.722   6.228
 4664POPC   C2B60896  15.090  31.726   6.671
 4664POPC   C3B60897  15.027  31.827   7.101
 4664POPC   C4B60898  15.030  31.869   7.534
 4665POPC   NC360899   8.862   3.935   5.586
 4665POPC   PO460900   9.144   3.200   5.601
 4665POPC   GL160901   9.094   3.546   5.876
 4665POPC   GL260902   8.755   3.563   5.926
 4665POPC   C1A60903   9.082   3.612   6.321
 4665POPC   D2A60904   9.100   3.351   6.624
 4665POPC   C3A60905   8.868   3.476   6.954
 4665POPC   C4A60906   9.032   3.560   7.330
 4665POPC   C1B60907   8.691   3.917   6.220
 4665POPC   C2B60908   8.811   3.978   6.655
 4665POPC   C3B60909   8.601   3.898   7.049
 4665POPC   C4B60910   8.492   3.621   7.393
 4666POPC   NC360911   8.028  41.951   5.419
 4666POPC   PO460912   8.209  41.331   5.418
 4666POPC   GL160913   8.332  41.435   5.802
 4666POPC   GL260914   8.144  41.731   5.859
 4666POPC   C1A60915   8.460  41.457   6.188
 4666POPC   D2A60916   8.223  41.617   6.499
 4666POPC   C3A60917   8.267  41.390   6.837
 4666POPC   C4A60918   8.306  41.557   7.207
 4666POPC   C1B60919   8.337  41.985   6.162
 4666POPC   C2B60920   8.515  42.105   6.516
 4666POPC   C3B60921   8.453  41.931   6.898
 4666POPC   C4B60922   8.799  41.735   7.088
 4667POPC   NC360923  41.136  12.061   5.121
 4667POPC   PO460924  41.722  11.988   5.482
 4667POPC   GL160925  41.499  12.159   5.877
 4667POPC   GL260926  41.241  12.446   5.844
 4667POPC   C1A60927  41.617  12.125   6.350
 4667POPC   D2A60928  41.690  12.170   6.808
 4667POPC   C3A60929  41.644  11.855   7.165
 4667POPC   C4A60930  41.762  11.752   7.602
 4667POPC   C1B60931  41.154  12.307   6.251
 4667POPC   C2B60932  41.290  12.500   6.639
 4667POPC   C3B60933  41.348  12.425   7.088
 4667POPC   C4B60934  41.146  12.030   7.103
 4668POPC   NC360935  39.260  39.369   5.440
 4668POPC   PO460936  39.613  38.759   5.322
 4668POPC   GL160937  39.348  39.026   5.784
 4668POPC   GL260938  39.564  39.298   5.886
 4668POPC   C1A60939  39.105  39.366   6.131
 4668POPC   D2A60940  38.862  39.491   6.547
 4668POPC   C3A60941  39.084  39.367   6.952
 4668POPC   C4A60942  39.441  39.083   7.113
 4668POPC   C1B60943  39.540  39.205   6.348
 4668POPC   C2B60944  39.588  39.417   6.765
 4668POPC   C3B60945  39.462  39.589   7.207
 4668POPC   C4B60946  39.502  39.433   7.631
 4669POPC   NC360947   4.702  12.305   5.562
 4669POPC   PO460948   5.245  11.876   5.311
 4669POPC   GL160949   5.120  11.880   5.749
 4669POPC   GL260950   5.384  12.109   5.851
 4669POPC   C1A60951   4.975  12.125   6.149
 4669POPC   D2A60952   5.131  12.247   6.550
 4669POPC   C3A60953   4.974  11.952   6.837
 4669POPC   C4A60954   4.823  11.926   7.251
 4669POPC   C1B60955   5.605  12.245   6.246
 4669POPC   C2B60956   5.629  12.337   6.691
 4669POPC   C3B60957   5.358  12.246   7.032
 4669POPC   C4B60958   5.336  12.561   7.289
 4670POPC   NC360959   3.022   7.973   5.509
 4670POPC   PO460960   2.554   8.423   5.399
 4670POPC   GL160961   2.725   8.323   5.794
 4670POPC   GL260962   2.681   8.689   5.866
 4670POPC   C1A60963   2.967   8.089   6.137
 4670POPC   D2A60964   3.251   8.211   6.491
 4670POPC   C3A60965   3.150   7.966   6.873
 4670POPC   C4A60966   3.167   7.909   7.327
 4670POPC   C1B60967   2.875   8.563   6.252
 4670POPC   C2B60968   2.761   8.284   6.593
 4670POPC   C3B60969   2.620   8.095   6.970
 4670POPC   C4B60970   2.317   7.861   7.188
 4671POPC   NC360971   3.086  24.072   5.378
 4671POPC   PO460972   2.639  23.451   5.382
 4671POPC   GL160973   2.876  23.647   5.684
 4671POPC   GL260974   2.587  23.758   5.837
 4671POPC   C1A60975   3.096  23.494   6.066
 4671POPC   D2A60976   3.063  23.303   6.483
 4671POPC   C3A60977   3.117  23.510   6.899
 4671POPC   C4A60978   2.890  23.763   7.190
 4671POPC   C1B60979   2.659  23.682   6.275
 4671POPC   C2B60980   2.746  23.870   6.683
 4671POPC   C3B60981   2.471  24.004   7.012
 4671POPC   C4B60982   2.411  23.776   7.393
 4672POPC   NC360983  24.163  33.927   5.590
 4672POPC   PO460984  24.299  34.482   5.300
 4672POPC   GL160985  24.504  34.363   5.699
 4672POPC   GL260986  24.207  34.314   5.913
 4672POPC   C1A60987  24.590  34.499   6.151
 4672POPC   D2A60988  24.350  34.575   6.550
 4672POPC   C3A60989  24.650  34.671   6.893
 4672POPC   C4A60990  24.641  34.725   7.354
 4672POPC   C1B60991  24.251  34.100   6.307
 4672POPC   C2B60992  23.937  33.974   6.601
 4672POPC   C3B60993  23.961  34.320   6.862
 4672POPC   C4B60994  24.316  34.382   7.152
 4673POPC   NC360995  19.530  10.374   5.546
 4673POPC   PO460996  18.970  10.647   5.309
 4673POPC   GL160997  19.060  10.531   5.728
 4673POPC   GL260998  18.986  10.157   5.726
 4673POPC   C1A60999  19.349  10.651   6.105
 4673POPC   D2A61000  19.376  10.474   6.531
 4673POPC   C3A61001  19.374  10.578   6.988
 4673POPC   C4A61002  19.103  10.692   7.359
 4673POPC   C1B61003  18.912  10.312   6.168
 4673POPC   C2B61004  18.855  10.522   6.558
 4673POPC   C3B61005  18.870  10.449   6.986
 4673POPC   C4B61006  18.795  10.256   7.394
 4674POPC   NC361007   7.619   8.511   5.446
 4674POPC   PO461008   7.152   7.874   5.532
 4674POPC   GL161009   7.518   8.036   5.634
 4674POPC   GL261010   7.310   8.320   5.789
 4674POPC   C1A61011   7.702   8.040   6.018
 4674POPC   D2A61012   7.399   7.949   6.342
 4674POPC   C3A61013   7.478   7.995   6.760
 4674POPC   C4A61014   7.464   8.009   7.204
 4674POPC   C1B61015   7.419   8.444   6.196
 4674POPC   C2B61016   7.566   8.497   6.588
 4674POPC   C3B61017   7.372   8.459   6.957
 4674POPC   C4B61018   7.266   8.589   7.336
 4675POPC   NC361019  33.185   6.156   5.482
 4675POPC   PO461020  33.675   5.647   5.405
 4675POPC   GL161021  33.680   5.992   5.693
 4675POPC   GL261022  34.003   6.097   5.809
 4675POPC   C1A61023  33.622   5.988   6.157
 4675POPC   D2A61024  33.512   5.680   6.493
 4675POPC   C3A61025  33.559   5.831   6.927
 4675POPC   C4A61026  33.733   5.754   7.338
 4675POPC   C1B61027  34.120   5.852   6.201
 4675POPC   C2B61028  33.954   5.927   6.592
 4675POPC   C3B61029  34.097   5.900   6.989
 4675POPC   C4B61030  34.230   6.000   7.378
 4676POPC   NC361031   1.503  37.450   5.377
 4676POPC   PO461032   0.828  37.466   5.406
 4676POPC   GL161033   1.173  37.553   5.764
 4676POPC   GL261034   1.299  37.901   5.717
 4676POPC   C1A61035   1.261  37.495   6.234
 4676POPC   D2A61036   0.966  37.511   6.627
 4676POPC   C3A61037   1.026  37.485   7.078
 4676POPC   C4A61038   0.922  37.763   7.404
 4676POPC   C1B61039   1.105  37.982   6.113
 4676POPC   C2B61040   1.245  37.940   6.532
 4676POPC   C3B61041   1.428  37.717   6.846
 4676POPC   C4B61042   1.418  37.747   7.269
 4677POPC   NC361043  44.917  40.946   5.310
 4677POPC   PO461044  44.253  40.769   5.379
 4677POPC   GL161045  44.560  40.814   5.725
 4677POPC   GL261046  44.794  40.550   5.720
 4677POPC   C1A61047  44.771  40.833   6.161
 4677POPC   D2A61048  44.788  40.754   6.627
 4677POPC   C3A61049  44.769  41.104   6.955
 4677POPC   C4A61050  44.672  41.118   7.428
 4677POPC   C1B61051  44.967  40.340   6.085
 4677POPC   C2B61052   0.089  40.298   6.530
 4677POPC   C3B61053  44.904  40.315   6.950
 4677POPC   C4B61054  44.767  40.661   7.191
 4678POPC   NC361055  10.267  37.681   5.383
 4678POPC   PO461056  10.879  37.621   5.180
 4678POPC   GL161057  10.682  37.805   5.666
 4678POPC   GL261058  10.688  37.500   5.950
 4678POPC   C1A61059  10.566  37.919   6.154
 4678POPC   D2A61060  10.781  37.661   6.507
 4678POPC   C3A61061  10.736  37.819   6.934
 4678POPC   C4A61062  10.380  37.861   7.259
 4678POPC   C1B61063  10.349  37.352   6.134
 4678POPC   C2B61064  10.267  37.587   6.435
 4678POPC   C3B61065  10.300  37.574   6.841
 4678POPC   C4B61066  10.367  37.349   7.212
 4679POPC   NC361067  37.964  27.189   5.333
 4679POPC   PO461068  37.522  26.740   5.326
 4679POPC   GL161069  37.835  26.756   5.646
 4679POPC   GL261070  37.840  27.087   5.819
 4679POPC   C1A61071  37.850  26.673   6.111
 4679POPC   D2A61072  37.830  26.824   6.543
 4679POPC   C3A61073  37.484  26.705   6.819
 4679POPC   C4A61074  37.517  26.561   7.251
 4679POPC   C1B61075  37.615  27.205   6.238
 4679POPC   C2B61076  37.534  27.242   6.725
 4679POPC   C3B61077  37.419  27.087   7.160
 4679POPC   C4B61078  37.469  27.223   7.603
 4680POPC   NC361079   1.216  17.400   5.316
 4680POPC   PO461080   1.488  17.969   5.137
 4680POPC   GL161081   1.110  17.854   5.569
 4680POPC   GL261082   1.151  17.552   5.786
 4680POPC   C1A61083   1.033  17.935   6.094
 4680POPC   D2A61084   0.976  17.853   6.603
 4680POPC   C3A61085   1.234  17.638   6.979
 4680POPC   C4A61086   1.304  17.719   7.486
 4680POPC   C1B61087   1.193  17.410   6.205
 4680POPC   C2B61088   1.428  17.346   6.570
 4680POPC   C3B61089   1.323  17.115   6.937
 4680POPC   C4B61090   1.467  17.268   7.307
 4681POPC   NC361091  18.157   3.069   5.307
 4681POPC   PO461092  18.340   2.466   5.351
 4681POPC   GL161093  18.174   2.673   5.693
 4681POPC   GL261094  18.431   2.749   5.885
 4681POPC   C1A61095  17.975   2.602   6.102
 4681POPC   D2A61096  17.830   2.844   6.440
 4681POPC   C3A61097  18.023   2.851   6.823
 4681POPC   C4A61098  18.055   2.922   7.246
 4681POPC   C1B61099  18.622   2.818   6.253
 4681POPC   C2B61100  18.560   2.660   6.646
 4681POPC   C3B61101  18.508   2.869   6.990
 4681POPC   C4B61102  18.503   2.722   7.402
 4682POPC   NC361103  28.119  35.558   5.609
 4682POPC   PO461104  28.193  35.026   5.229
 4682POPC   GL161105  28.348  35.114   5.771
 4682POPC   GL261106  28.137  35.276   6.058
 4682POPC   C1A61107  28.584  35.126   6.213
 4682POPC   D2A61108  28.536  35.015   6.652
 4682POPC   C3A61109  28.330  35.148   7.034
 4682POPC   C4A61110  28.490  35.537   7.192
 4682POPC   C1B61111  28.355  35.582   6.335
 4682POPC   C2B61112  28.228  35.756   6.730
 4682POPC   C3B61113  28.010  35.571   7.066
 4682POPC   C4B61114  28.019  35.563   7.539
 4683POPC   NC361115   3.232  22.505   5.575
 4683POPC   PO461116   3.571  23.145   5.625
 4683POPC   GL161117   3.768  22.887   5.878
 4683POPC   GL261118   3.429  22.782   5.949
 4683POPC   C1A61119   3.775  22.976   6.305
 4683POPC   D2A61120   3.574  23.325   6.537
 4683POPC   C3A61121   3.521  23.203   6.961
 4683POPC   C4A61122   3.591  23.063   7.385
 4683POPC   C1B61123   3.411  22.588   6.308
 4683POPC   C2B61124   3.539  22.756   6.692
 4683POPC   C3B61125   3.326  22.734   7.027
 4683POPC   C4B61126   3.279  22.641   7.433
 4684POPC   NC361127  24.063  40.510   5.464
 4684POPC   PO461128  23.556  40.932   5.551
 4684POPC   GL161129  23.860  40.792   5.842
 4684POPC   GL261130  23.722  40.471   5.832
 4684POPC   C1A61131  23.880  40.780   6.279
 4684POPC   D2A61132  23.564  40.863   6.594
 4684POPC   C3A61133  23.707  40.992   6.987
 4684POPC   C4A61134  23.958  41.226   7.219
 4684POPC   C1B61135  23.563  40.398   6.217
 4684POPC   C2B61136  23.678  40.349   6.629
 4684POPC   C3B61137  23.611  40.483   7.031
 4684POPC   C4B61138  23.966  40.590   7.205
 4685POPC   NC361139  32.255  33.270   5.464
 4685POPC   PO461140  31.573  33.221   5.298
 4685POPC   GL161141  31.898  33.011   5.659
 4685POPC   GL261142  31.996  33.311   5.897
 4685POPC   C1A61143  32.021  32.847   6.099
 4685POPC   D2A61144  31.937  32.928   6.553
 4685POPC   C3A61145  32.193  32.772   6.890
 4685POPC   C4A61146  32.304  32.994   7.247
 4685POPC   C1B61147  32.248  33.415   6.283
 4685POPC   C2B61148  32.294  33.305   6.724
 4685POPC   C3B61149  31.952  33.225   6.991
 4685POPC   C4B61150  31.966  33.394   7.426
 4686POPC   NC361151   3.981  41.339   5.367
 4686POPC   PO461152   3.520  41.808   5.377
 4686POPC   GL161153   3.629  41.530   5.681
 4686POPC   GL261154   3.923  41.721   5.697
 4686POPC   C1A61155   3.548  41.314   6.065
 4686POPC   D2A61156   3.471  41.566   6.430
 4686POPC   C3A61157   3.325  41.409   6.811
 4686POPC   C4A61158   3.428  41.499   7.223
 4686POPC   C1B61159   3.900  41.691   6.109
 4686POPC   C2B61160   3.940  41.799   6.515
 4686POPC   C3B61161   3.786  41.632   6.864
 4686POPC   C4B61162   3.935  41.534   7.235
 4687POPC   NC361163  36.279   8.450   5.422
 4687POPC   PO461164  36.041   7.863   5.502
 4687POPC   GL161165  36.010   8.222   5.820
 4687POPC   GL261166  36.270   8.507   5.911
 4687POPC   C1A61167  36.001   8.299   6.278
 4687POPC   D2A61168  36.251   8.265   6.633
 4687POPC   C3A61169  36.021   8.226   6.985
 4687POPC   C4A61170  36.141   7.987   7.300
 4687POPC   C1B61171  36.512   8.524   6.258
 4687POPC   C2B61172  36.569   8.665   6.665
 4687POPC   C3B61173  36.275   8.683   6.972
 4687POPC   C4B61174  36.448   8.440   7.228
 4688POPC   NC361175  19.465   1.935   5.352
 4688POPC   PO461176  18.760   1.817   5.350
 4688POPC   GL161177  18.954   2.002   5.770
 4688POPC   GL261178  19.268   2.220   5.742
 4688POPC   C1A61179  18.791   1.972   6.228
 4688POPC   D2A61180  18.656   2.113   6.655
 4688POPC   C3A61181  18.713   1.773   6.956
 4688POPC   C4A61182  18.833   1.848   7.397
 4688POPC   C1B61183  19.303   2.045   6.184
 4688POPC   C2B61184  19.179   1.962   6.625
 4688POPC   C3B61185  19.071   2.119   7.032
 4688POPC   C4B61186  19.235   2.197   7.428
 4689POPC   NC361187  27.410  13.369   5.553
 4689POPC   PO461188  26.768  13.542   5.384
 4689POPC   GL161189  26.763  13.661   5.825
 4689POPC   GL261190  26.969  13.401   5.864
 4689POPC   C1A61191  26.945  13.698   6.289
 4689POPC   D2A61192  26.911  13.891   6.719
 4689POPC   C3A61193  26.762  13.567   7.013
 4689POPC   C4A61194  26.675  13.527   7.437
 4689POPC   C1B61195  27.257  13.281   6.166
 4689POPC   C2B61196  27.435  13.385   6.535
 4689POPC   C3B61197  27.263  13.526   6.895
 4689POPC   C4B61198  27.164  13.380   7.295
 4690POPC   NC361199  43.326  26.452   5.435
 4690POPC   PO461200  42.919  26.968   5.272
 4690POPC   GL161201  42.891  26.907   5.694
 4690POPC   GL261202  43.205  26.769   5.812
 4690POPC   C1A61203  42.799  26.897   6.140
 4690POPC   D2A61204  42.899  26.625   6.505
 4690POPC   C3A61205  42.873  26.783   6.953
 4690POPC   C4A61206  43.100  26.656   7.359
 4690POPC   C1B61207  43.470  26.788   6.181
 4690POPC   C2B61208  43.378  26.787   6.621
 4690POPC   C3B61209  43.460  26.881   7.019
 4690POPC   C4B61210  43.650  26.704   7.347
 4691POPC   NC361211  26.241  39.388   5.392
 4691POPC   PO461212  25.515  39.257   5.377
 4691POPC   GL161213  25.885  39.194   5.702
 4691POPC   GL261214  26.119  39.441   5.877
 4691POPC   C1A61215  26.009  39.020   6.116
 4691POPC   D2A61216  26.092  39.240   6.541
 4691POPC   C3A61217  26.095  39.019   6.947
 4691POPC   C4A61218  26.242  39.118   7.348
 4691POPC   C1B61219  26.337  39.715   6.190
 4691POPC   C2B61220  26.413  39.789   6.622
 4691POPC   C3B61221  26.290  39.523   6.976
 4691POPC   C4B61222  26.436  39.579   7.408
 4692POPC   NC361223  40.697   9.500   5.592
 4692POPC   PO461224  40.648   8.948   5.300
 4692POPC   GL161225  40.814   8.899   5.739
 4692POPC   GL261226  40.967   9.184   5.855
 4692POPC   C1A61227  40.710   8.963   6.207
 4692POPC   D2A61228  40.773   9.229   6.562
 4692POPC   C3A61229  40.732   8.938   6.897
 4692POPC   C4A61230  40.991   8.779   7.210
 4692POPC   C1B61231  41.098   9.418   6.190
 4692POPC   C2B61232  41.300   9.428   6.566
 4692POPC   C3B61233  41.191   9.197   6.913
 4692POPC   C4B61234  40.904   9.295   7.213
 4693POPC   NC361235  39.237  43.084   5.167
 4693POPC   PO461236  39.417  43.660   5.493
 4693POPC   GL161237  39.225  43.289   5.727
 4693POPC   GL261238  39.500  43.091   5.874
 4693POPC   C1A61239  39.148  43.292   6.202
 4693POPC   D2A61240  39.294  43.619   6.567
 4693POPC   C3A61241  39.375  43.485   7.012
 4693POPC   C4A61242  39.629  43.211   7.299
 4693POPC   C1B61243  39.538  42.899   6.304
 4693POPC   C2B61244  39.465  42.678   6.710
 4693POPC   C3B61245  39.288  42.881   7.076
 4693POPC   C4B61246  39.117  43.185   7.356
 4694POPC   NC361247   2.627  28.394   5.538
 4694POPC   PO461248   1.877  28.299   5.541
 4694POPC   GL161249   2.083  28.435   5.852
 4694POPC   GL261250   2.243  28.141   5.883
 4694POPC   C1A61251   1.917  28.431   6.261
 4694POPC   D2A61252   1.641  28.373   6.606
 4694POPC   C3A61253   1.867  28.461   6.982
 4694POPC   C4A61254   1.798  28.569   7.417
 4694POPC   C1B61255   2.086  27.961   6.218
 4694POPC   C2B61256   2.142  28.128   6.606
 4694POPC   C3B61257   2.120  28.011   6.993
 4694POPC   C4B61258   2.000  28.092   7.382
 4695POPC   NC361259  24.561  27.045   5.433
 4695POPC   PO461260  24.278  26.411   5.334
 4695POPC   GL161261  24.467  26.631   5.705
 4695POPC   GL261262  24.236  26.868   5.813
 4695POPC   C1A61263  24.668  26.734   6.129
 4695POPC   D2A61264  24.759  26.972   6.523
 4695POPC   C3A61265  24.756  26.690   6.872
 4695POPC   C4A61266  24.699  26.620   7.298
 4695POPC   C1B61267  24.193  26.940   6.243
 4695POPC   C2B61268  24.251  26.921   6.669
 4695POPC   C3B61269  24.435  26.999   7.073
 4695POPC   C4B61270  24.504  27.086   7.488
 4696POPC   NC361271  23.099  22.404   5.151
 4696POPC   PO461272  22.885  21.912   5.514
 4696POPC   GL161273  22.999  22.134   5.881
 4696POPC   GL261274  23.238  22.403   5.778
 4696POPC   C1A61275  22.871  22.078   6.339
 4696POPC   D2A61276  22.919  21.858   6.735
 4696POPC   C3A61277  22.671  21.971   7.100
 4696POPC   C4A61278  22.583  22.404   7.198
 4696POPC   C1B61279  23.350  22.248   6.220
 4696POPC   C2B61280  23.272  22.295   6.630
 4696POPC   C3B61281  23.181  22.197   7.041
 4696POPC   C4B61282  23.419  22.374   7.378
 4697POPC   NC361283  20.955  15.224   5.047
 4697POPC   PO461284  21.352  15.503   5.614
 4697POPC   GL161285  21.331  15.281   5.982
 4697POPC   GL261286  21.671  15.152   5.944
 4697POPC   C1A61287  21.315  15.256   6.464
 4697POPC   D2A61288  21.653  15.040   6.721
 4697POPC   C3A61289  21.723  15.293   7.080
 4697POPC   C4A61290  21.348  15.318   7.257
 4697POPC   C1B61291  21.478  14.848   6.225
 4697POPC   C2B61292  21.121  14.742   6.491
 4697POPC   C3B61293  21.095  14.859   6.914
 4697POPC   C4B61294  21.463  14.841   7.172
 4698POPC   NC361295  34.114  10.942   5.512
 4698POPC   PO461296  33.780  11.548   5.441
 4698POPC   GL161297  33.685  11.287   5.799
 4698POPC   GL261298  33.410  11.025   5.727
 4698POPC   C1A61299  33.877  11.283   6.209
 4698POPC   D2A61300  33.964  11.583   6.536
 4698POPC   C3A61301  33.995  11.353   6.897
 4698POPC   C4A61302  33.921  11.245   7.318
 4698POPC   C1B61303  33.420  11.051   6.195
 4698POPC   C2B61304  33.487  11.297   6.605
 4698POPC   C3B61305  33.469  11.439   7.067
 4698POPC   C4B61306  33.442  11.375   7.551
 4699POPC   NC361307  31.669  36.475   5.642
 4699POPC   PO461308  31.161  36.282   5.270
 4699POPC   GL161309  31.338  36.088   5.692
 4699POPC   GL261310  31.287  36.333   5.964
 4699POPC   C1A61311  31.439  35.861   6.098
 4699POPC   D2A61312  31.327  35.997   6.536
 4699POPC   C3A61313  31.538  35.800   6.876
 4699POPC   C4A61314  31.543  35.861   7.300
 4699POPC   C1B61315  31.661  36.275   6.262
 4699POPC   C2B61316  31.861  36.417   6.647
 4699POPC   C3B61317  31.638  36.329   7.039
 4699POPC   C4B61318  31.798  36.294   7.463
 4700POPC   NC361319   5.460  25.479   5.143
 4700POPC   PO461320   5.109  25.141   5.642
 4700POPC   GL161321   5.294  25.155   5.972
 4700POPC   GL261322   5.123  24.894   6.107
 4700POPC   C1A61323   5.386  25.307   6.343
 4700POPC   D2A61324   5.340  25.044   6.645
 4700POPC   C3A61325   5.290  25.193   7.011
 4700POPC   C4A61326   5.208  25.525   7.251
 4700POPC   C1B61327   4.820  25.245   6.230
 4700POPC   C2B61328   4.690  25.503   6.571
 4700POPC   C3B61329   4.808  25.384   6.955
 4700POPC   C4B61330   4.899  25.078   7.301
 4701POPC   NC361331  34.943  24.389   5.411
 4701POPC   PO461332  35.653  24.613   5.453
 4701POPC   GL161333  35.575  24.472   5.869
 4701POPC   GL261334  35.255  24.575   5.824
 4701POPC   C1A61335  35.410  24.317   6.291
 4701POPC   D2A61336  35.194  24.491   6.688
 4701POPC   C3A61337  35.353  24.356   7.112
 4701POPC   C4A61338  35.610  24.287   7.514
 4701POPC   C1B61339  35.059  24.690   6.205
 4701POPC   C2B61340  35.085  25.005   6.472
 4701POPC   C3B61341  34.915  24.984   6.860
 4701POPC   C4B61342  35.002  24.735   7.205
 4702POPC   NC361343  26.509  19.916   5.403
 4702POPC   PO461344  27.057  20.409   5.360
 4702POPC   GL161345  26.872  20.154   5.708
 4702POPC   GL261346  26.520  20.164   5.845
 4702POPC   C1A61347  27.000  20.165   6.154
 4702POPC   D2A61348  27.203  20.241   6.565
 4702POPC   C3A61349  26.921  20.049   6.879
 4702POPC   C4A61350  26.930  19.679   7.156
 4702POPC   C1B61351  26.417  20.213   6.281
 4702POPC   C2B61352  26.387  20.098   6.719
 4702POPC   C3B61353  26.426  19.778   7.035
 4702POPC   C4B61354  26.565  19.833   7.473
 4703POPC   NC361355   8.494  41.121   5.114
 4703POPC   PO461356   8.040  40.677   5.435
 4703POPC   GL161357   8.264  40.907   5.742
 4703POPC   GL261358   8.260  40.606   5.909
 4703POPC   C1A61359   8.263  41.005   6.214
 4703POPC   D2A61360   8.411  40.788   6.590
 4703POPC   C3A61361   8.257  40.846   6.975
 4703POPC   C4A61362   8.111  41.107   7.273
 4703POPC   C1B61363   8.071  40.545   6.308
 4703POPC   C2B61364   7.938  40.497   6.729
 4703POPC   C3B61365   7.961  40.456   7.178
 4703POPC   C4B61366   8.261  40.613   7.429
 4704POPC   NC361367   3.708  14.002   5.306
 4704POPC   PO461368   3.644  14.615   5.370
 4704POPC   GL161369   3.530  14.422   5.783
 4704POPC   GL261370   3.741  14.149   5.793
 4704POPC   C1A61371   3.347  14.354   6.232
 4704POPC   D2A61372   3.250  14.539   6.645
 4704POPC   C3A61373   3.466  14.363   6.987
 4704POPC   C4A61374   3.464  14.540   7.428
 4704POPC   C1B61375   3.848  14.264   6.197
 4704POPC   C2B61376   3.893  14.097   6.572
 4704POPC   C3B61377   3.954  14.283   6.920
 4704POPC   C4B61378   3.811  14.208   7.310
 4705POPC   NC361379  15.664  30.152   5.500
 4705POPC   PO461380  16.183  29.697   5.414
 4705POPC   GL161381  16.007  29.844   5.766
 4705POPC   GL261382  16.311  29.990   5.919
 4705POPC   C1A61383  16.009  29.580   6.114
 4705POPC   D2A61384  16.025  29.561   6.543
 4705POPC   C3A61385  16.158  29.899   6.775
 4705POPC   C4A61386  16.152  29.968   7.168
 4705POPC   C1B61387  16.077  30.039   6.288
 4705POPC   C2B61388  15.705  29.964   6.536
 4705POPC   C3B61389  15.661  30.077   6.958
 4705POPC   C4B61390  15.711  30.327   7.318
 4706POPC   NC361391   5.432   8.386   5.270
 4706POPC   PO461392   5.046   7.935   5.702
 4706POPC   GL161393   4.907   8.368   5.783
 4706POPC   GL261394   5.167   8.519   6.001
 4706POPC   C1A61395   4.753   8.359   6.214
 4706POPC   D2A61396   5.042   8.147   6.499
 4706POPC   C3A61397   5.002   8.134   6.951
 4706POPC   C4A61398   5.155   7.906   7.325
 4706POPC   C1B61399   5.416   8.504   6.349
 4706POPC   C2B61400   5.308   8.524   6.772
 4706POPC   C3B61401   5.136   8.588   7.162
 4706POPC   C4B61402   5.103   8.384   7.520
 4707POPC   NC361403  14.724  23.709   5.552
 4707POPC   PO461404  14.072  23.811   5.277
 4707POPC   GL161405  14.241  23.832   5.743
 4707POPC   GL261406  14.322  23.526   5.895
 4707POPC   C1A61407  14.411  23.967   6.173
 4707POPC   D2A61408  14.680  23.929   6.542
 4707POPC   C3A61409  14.520  24.019   6.964
 4707POPC   C4A61410  14.478  23.946   7.399
 4707POPC   C1B61411  14.278  23.488   6.338
 4707POPC   C2B61412  14.118  23.428   6.742
 4707POPC   C3B61413  14.316  23.524   7.134
 4707POPC   C4B61414  14.218  23.514   7.558
 4708POPC   NC361415  17.560  40.829   5.148
 4708POPC   PO461416  17.230  40.290   5.421
 4708POPC   GL161417  17.443  40.515   5.799
 4708POPC   GL261418  17.713  40.329   5.912
 4708POPC   C1A61419  17.604  40.747   6.240
 4708POPC   D2A61420  17.727  41.097   6.593
 4708POPC   C3A61421  17.642  40.996   7.047
 4708POPC   C4A61422  17.346  41.001   7.398
 4708POPC   C1B61423  17.377  40.276   6.257
 4708POPC   C2B61424  17.343  40.473   6.671
 4708POPC   C3B61425  17.428  40.513   7.114
 4708POPC   C4B61426  17.723  40.240   7.243
 4709POPC   NC361427  32.106  35.636   5.318
 4709POPC   PO461428  32.667  35.749   5.648
 4709POPC   GL161429  32.294  35.444   5.767
 4709POPC   GL261430  31.932  35.548   5.809
 4709POPC   C1A61431  32.258  35.188   6.159
 4709POPC   D2A61432  32.515  35.060   6.546
 4709POPC   C3A61433  32.343  35.189   6.958
 4709POPC   C4A61434  32.519  35.092   7.355
 4709POPC   C1B61435  31.768  35.426   6.204
 4709POPC   C2B61436  31.906  35.461   6.633
 4709POPC   C3B61437  31.940  35.505   7.064
 4709POPC   C4B61438  32.029  35.259   7.446
 4710POPC   NC361439  19.464  41.360   5.254
 4710POPC   PO461440  19.979  41.944   5.381
 4710POPC   GL161441  19.885  41.651   5.738
 4710POPC   GL261442  19.796  41.283   5.731
 4710POPC   C1A61443  19.917  41.661   6.194
 4710POPC   D2A61444  19.971  41.762   6.622
 4710POPC   C3A61445  20.063  41.527   6.972
 4710POPC   C4A61446  19.874  41.586   7.389
 4710POPC   C1B61447  19.821  41.165   6.162
 4710POPC   C2B61448  19.719  41.331   6.572
 4710POPC   C3B61449  19.585  41.392   7.010
 4710POPC   C4B61450  19.744  41.090   7.329
 4711POPC   NC361451   2.991  39.072   5.462
 4711POPC   PO461452   2.651  38.760   5.853
 4711POPC   GL161453   2.654  39.198   5.890
 4711POPC   GL261454   2.401  39.367   5.703
 4711POPC   C1A61455   2.748  39.272   6.322
 4711POPC   D2A61456   3.023  39.021   6.567
 4711POPC   C3A61457   2.863  39.084   6.938
 4711POPC   C4A61458   2.938  39.362   7.251
 4711POPC   C1B61459   2.389  39.678   6.062
 4711POPC   C2B61460   2.472  39.658   6.505
 4711POPC   C3B61461   2.757  39.594   6.820
 4711POPC   C4B61462   2.493  39.599   7.198
 4712POPC   NC361463   0.159  40.259   5.359
 4712POPC   PO461464   0.734  39.889   5.200
 4712POPC   GL161465   0.703  39.950   5.662
 4712POPC   GL261466   0.405  40.135   5.798
 4712POPC   C1A61467   0.766  39.977   6.126
 4712POPC   D2A61468   0.595  39.855   6.549
 4712POPC   C3A61469   0.687  40.058   6.942
 4712POPC   C4A61470   0.358  40.249   7.159
 4712POPC   C1B61471   0.235  39.843   6.139
 4712POPC   C2B61472   0.126  39.633   6.562
 4712POPC   C3B61473   0.291  39.708   6.991
 4712POPC   C4B61474   0.279  39.530   7.428
 4713POPC   NC361475  44.979  22.809   5.216
 4713POPC   PO461476  44.390  23.182   5.372
 4713POPC   GL161477  44.509  23.023   5.745
 4713POPC   GL261478  44.724  22.731   5.666
 4713POPC   C1A61479  44.607  23.024   6.189
 4713POPC   D2A61480  44.651  22.760   6.582
 4713POPC   C3A61481  44.608  23.014   6.965
 4713POPC   C4A61482  44.924  23.191   7.227
 4713POPC   C1B61483  44.860  22.554   6.086
 4713POPC   C2B61484   0.101  22.471   6.489
 4713POPC   C3B61485   0.010  22.601   6.940
 4713POPC   C4B61486  44.627  22.548   7.198
 4714POPC   NC361487  20.030  23.933   5.495
 4714POPC   PO461488  19.697  23.442   5.427
 4714POPC   GL161489  19.801  23.645   5.867
 4714POPC   GL261490  19.683  23.995   5.950
 4714POPC   C1A61491  19.882  23.683   6.341
 4714POPC   D2A61492  20.086  23.738   6.748
 4714POPC   C3A61493  19.833  23.771   7.137
 4714POPC   C4A61494  19.656  24.063   7.443
 4714POPC   C1B61495  19.398  23.832   6.312
 4714POPC   C2B61496  19.417  23.751   6.777
 4714POPC   C3B61497  19.298  23.735   7.208
 4714POPC   C4B61498  19.181  23.906   7.632
 4715POPC   NC361499   1.708  40.480   5.451
 4715POPC   PO461500   2.042  40.969   5.138
 4715POPC   GL161501   2.148  40.913   5.599
 4715POPC   GL261502   1.824  40.918   5.789
 4715POPC   C1A61503   2.249  40.678   6.012
 4715POPC   D2A61504   2.436  40.588   6.442
 4715POPC   C3A61505   2.232  40.487   6.854
 4715POPC   C4A61506   2.151  40.557   7.300
 4715POPC   C1B61507   1.753  40.667   6.186
 4715POPC   C2B61508   1.765  40.548   6.639
 4715POPC   C3B61509   1.780  40.780   7.039
 4715POPC   C4B61510   1.683  40.660   7.498
 4716POPC   NC361511  40.349  41.208   5.699
 4716POPC   PO461512  40.822  41.603   5.491
 4716POPC   GL161513  40.845  41.448   5.905
 4716POPC   GL261514  40.953  41.782   5.995
 4716POPC   C1A61515  40.664  41.466   6.323
 4716POPC   D2A61516  40.387  41.726   6.561
 4716POPC   C3A61517  40.537  41.896   6.943
 4716POPC   C4A61518  40.773  41.675   7.262
 4716POPC   C1B61519  40.997  41.851   6.419
 4716POPC   C2B61520  41.000  41.618   6.783
 4716POPC   C3B61521  41.086  41.310   7.083
 4716POPC   C4B61522  41.056  41.327   7.537
 4717POPC   NC361523  34.000  43.276   5.455
 4717POPC   PO461524  33.386  43.107   5.529
 4717POPC   GL161525  33.695  43.125   5.848
 4717POPC   GL261526  33.794  43.474   5.872
 4717POPC   C1A61527  33.810  42.938   6.258
 4717POPC   D2A61528  33.665  42.632   6.514
 4717POPC   C3A61529  33.748  42.791   6.887
 4717POPC   C4A61530  33.710  42.651   7.287
 4717POPC   C1B61531  33.675  43.422   6.288
 4717POPC   C2B61532  33.648  43.293   6.726
 4717POPC   C3B61533  33.711  43.332   7.161
 4717POPC   C4B61534  33.470  43.481   7.576
 4718POPC   NC361535  44.090  32.110   5.058
 4718POPC   PO461536  44.045  32.664   5.424
 4718POPC   GL161537  44.017  32.373   5.760
 4718POPC   GL261538  44.106  32.622   5.993
 4718POPC   C1A61539  44.149  32.123   6.152
 4718POPC   D2A61540  43.940  31.990   6.518
 4718POPC   C3A61541  44.005  32.143   6.902
 4718POPC   C4A61542  43.949  31.934   7.297
 4718POPC   C1B61543  44.049  32.568   6.445
 4718POPC   C2B61544  44.141  32.793   6.820
 4718POPC   C3B61545  44.214  32.574   7.190
 4718POPC   C4B61546  43.844  32.429   7.279
 4719POPC   NC361547  38.088   1.860   5.407
 4719POPC   PO461548  37.485   2.035   5.405
 4719POPC   GL161549  37.684   1.996   5.773
 4719POPC   GL261550  37.774   2.345   5.785
 4719POPC   C1A61551  37.817   1.919   6.201
 4719POPC   D2A61552  37.905   2.112   6.576
 4719POPC   C3A61553  37.737   1.933   6.930
 4719POPC   C4A61554  38.049   1.888   7.215
 4719POPC   C1B61555  37.468   2.297   6.145
 4719POPC   C2B61556  37.376   2.089   6.539
 4719POPC   C3B61557  37.348   2.286   6.934
 4719POPC   C4B61558  37.497   2.196   7.325
 4720POPC   NC361559  25.378  13.831   5.379
 4720POPC   PO461560  24.823  13.410   5.274
 4720POPC   GL161561  25.062  13.537   5.646
 4720POPC   GL261562  25.105  13.853   5.821
 4720POPC   C1A61563  25.354  13.435   5.997
 4720POPC   D2A61564  25.307  13.514   6.433
 4720POPC   C3A61565  25.395  13.285   6.788
 4720POPC   C4A61566  25.350  13.583   7.071
 4720POPC   C1B61567  25.467  13.922   6.146
 4720POPC   C2B61568  25.595  13.933   6.590
 4720POPC   C3B61569  25.436  14.076   6.983
 4720POPC   C4B61570  25.405  13.955   7.412
 4721POPC   NC361571   0.286  36.111   5.548
 4721POPC   PO461572   0.678  35.502   5.538
 4721POPC   GL161573   0.625  35.855   5.822
 4721POPC   GL261574   0.288  35.780   5.934
 4721POPC   C1A61575   0.600  36.222   6.111
 4721POPC   D2A61576   0.740  36.186   6.521
 4721POPC   C3A61577   0.639  36.090   6.942
 4721POPC   C4A61578   0.699  36.281   7.321
 4721POPC   C1B61579   0.175  36.042   6.283
 4721POPC   C2B61580   0.019  36.160   6.675
 4721POPC   C3B61581   0.158  35.920   6.997
 4721POPC   C4B61582   0.445  35.564   7.110
 4722POPC   NC361583   8.461   5.335   5.401
 4722POPC   PO461584   7.913   4.987   5.549
 4722POPC   GL161585   8.236   5.209   5.839
 4722POPC   GL261586   8.007   5.475   5.918
 4722POPC   C1A61587   8.532   5.145   6.243
 4722POPC   D2A61588   8.502   4.938   6.684
 4722POPC   C3A61589   8.268   5.117   7.052
 4722POPC   C4A61590   8.435   5.207   7.483
 4722POPC   C1B61591   8.015   5.170   6.284
 4722POPC   C2B61592   7.960   4.997   6.666
 4722POPC   C3B61593   7.915   4.738   7.032
 4722POPC   C4B61594   8.041   4.874   7.451
 4723POPC   NC361595  32.984  28.943   5.458
 4723POPC   PO461596  33.548  28.550   5.545
 4723POPC   GL161597  33.233  28.801   5.860
 4723POPC   GL261598  33.183  29.183   5.868
 4723POPC   C1A61599  32.933  28.908   6.219
 4723POPC   D2A61600  32.926  29.055   6.697
 4723POPC   C3A61601  32.788  28.877   7.131
 4723POPC   C4A61602  33.002  28.889   7.556
 4723POPC   C1B61603  32.917  29.443   6.129
 4723POPC   C2B61604  32.767  29.532   6.539
 4723POPC   C3B61605  32.958  29.543   6.920
 4723POPC   C4B61606  32.820  29.466   7.348
 4724POPC   NC361607  16.356  21.017   5.184
 4724POPC   PO461608  15.896  21.519   5.392
 4724POPC   GL161609  15.955  21.519   5.819
 4724POPC   GL261610  16.104  21.840   5.862
 4724POPC   C1A61611  15.741  21.326   6.201
 4724POPC   D2A61612  15.834  21.358   6.631
 4724POPC   C3A61613  15.587  21.228   6.998
 4724POPC   C4A61614  15.812  21.142   7.371
 4724POPC   C1B61615  16.023  21.744   6.277
 4724POPC   C2B61616  16.179  21.732   6.682
 4724POPC   C3B61617  15.999  21.545   7.080
 4724POPC   C4B61618  16.114  21.509   7.504
 4725POPC   NC361619  44.388  29.033   5.488
 4725POPC   PO461620  44.872  29.367   5.250
 4725POPC   GL161621  44.798  29.403   5.693
 4725POPC   GL261622  44.446  29.357   5.858
 4725POPC   C1A61623  44.868  29.216   6.115
 4725POPC   D2A61624  44.575  29.150   6.452
 4725POPC   C3A61625  44.733  28.942   6.817
 4725POPC   C4A61626  44.860  29.170   7.185
 4725POPC   C1B61627  44.311  29.550   6.225
 4725POPC   C2B61628  44.411  29.635   6.662
 4725POPC   C3B61629  44.504  29.533   7.118
 4725POPC   C4B61630  44.641  29.472   7.561
 4726POPC   NC361631  16.930   7.511   5.282
 4726POPC   PO461632  17.577   7.667   5.323
 4726POPC   GL161633  17.459   7.434   5.741
 4726POPC   GL261634  17.207   7.156   5.828
 4726POPC   C1A61635  17.401   7.503   6.204
 4726POPC   D2A61636  17.204   7.526   6.615
 4726POPC   C3A61637  17.405   7.621   7.029
 4726POPC   C4A61638  17.403   7.518   7.474
 4726POPC   C1B61639  17.355   6.998   6.211
 4726POPC   C2B61640  17.535   7.090   6.616
 4726POPC   C3B61641  17.244   7.136   6.939
 4726POPC   C4B61642  17.191   7.072   7.378
 4727POPC   NC361643  20.389  14.444   5.337
 4727POPC   PO461644  20.999  14.594   5.390
 4727POPC   GL161645  20.714  14.559   5.751
 4727POPC   GL261646  20.774  14.210   5.846
 4727POPC   C1A61647  20.548  14.692   6.180
 4727POPC   D2A61648  20.652  14.499   6.579
 4727POPC   C3A61649  20.520  14.612   6.984
 4727POPC   C4A61650  20.786  14.769   7.323
 4727POPC   C1B61651  20.477  14.200   6.196
 4727POPC   C2B61652  20.330  14.098   6.623
 4727POPC   C3B61653  20.554  14.094   7.005
 4727POPC   C4B61654  20.851  14.082   7.329
 4728POPC   NC361655  40.092  36.348   5.328
 4728POPC   PO461656  40.120  35.633   5.538
 4728POPC   GL161657  40.156  36.035   5.747
 4728POPC   GL261658  39.834  36.160   5.757
 4728POPC   C1A61659  40.141  36.275   6.156
 4728POPC   D2A61660  40.106  36.039   6.550
 4728POPC   C3A61661  40.034  36.198   6.963
 4728POPC   C4A61662  40.232  35.948   7.267
 4728POPC   C1B61663  39.661  36.037   6.185
 4728POPC   C2B61664  39.605  36.181   6.604
 4728POPC   C3B61665  39.542  36.028   7.003
 4728POPC   C4B61666  39.755  35.953   7.411
 4729POPC   NC361667  42.274  38.139   5.449
 4729POPC   PO461668  41.864  37.531   5.421
 4729POPC   GL161669  42.057  37.775   5.755
 4729POPC   GL261670  42.421  37.819   5.858
 4729POPC   C1A61671  42.010  37.862   6.186
 4729POPC   D2A61672  42.315  37.815   6.487
 4729POPC   C3A61673  42.320  37.931   6.908
 4729POPC   C4A61674  42.130  37.805   7.271
 4729POPC   C1B61675  42.620  37.524   6.200
 4729POPC   C2B61676  42.593  37.402   6.663
 4729POPC   C3B61677  42.569  37.513   7.115
 4729POPC   C4B61678  42.751  37.846   7.356
 4730POPC   NC361679   3.861  17.323   5.557
 4730POPC   PO461680   3.198  17.153   5.373
 4730POPC   GL161681   3.405  17.370   5.791
 4730POPC   GL261682   3.615  17.138   5.989
 4730POPC   C1A61683   3.635  17.679   6.149
 4730POPC   D2A61684   3.629  18.017   6.532
 4730POPC   C3A61685   3.618  17.788   6.945
 4730POPC   C4A61686   3.360  17.432   7.146
 4730POPC   C1B61687   3.842  17.177   6.374
 4730POPC   C2B61688   3.735  17.255   6.817
 4730POPC   C3B61689   3.804  17.138   7.241
 4730POPC   C4B61690   3.648  17.232   7.648
 4731POPC   NC361691  32.636  21.674   5.572
 4731POPC   PO461692  32.730  21.134   5.199
 4731POPC   GL161693  32.828  21.201   5.665
 4731POPC   GL261694  33.104  21.366   5.804
 4731POPC   C1A61695  32.738  21.207   6.142
 4731POPC   D2A61696  32.936  21.168   6.580
 4731POPC   C3A61697  32.785  21.479   6.890
 4731POPC   C4A61698  32.572  21.526   7.285
 4731POPC   C1B61699  33.247  21.125   6.170
 4731POPC   C2B61700  33.372  20.803   6.470
 4731POPC   C3B61701  33.293  20.956   6.898
 4731POPC   C4B61702  33.056  21.207   7.242
 4732POPC   NC361703  25.063   1.498   5.593
 4732POPC   PO461704  25.501   1.062   5.754
 4732POPC   GL161705  25.438   1.361   6.059
 4732POPC   GL261706  25.103   1.342   6.110
 4732POPC   C1A61707  25.423   1.201   6.494
 4732POPC   D2A61708  25.174   0.988   6.825
 4732POPC   C3A61709  25.184   1.276   7.142
 4732POPC   C4A61710  25.503   1.520   7.347
 4732POPC   C1B61711  24.947   1.383   6.571
 4732POPC   C2B61712  24.690   1.172   6.905
 4732POPC   C3B61713  24.768   1.074   7.372
 4732POPC   C4B61714  25.137   1.252   7.645
 4733POPC   NC361715   3.836  44.961   5.549
 4733POPC   PO461716   3.745   0.599   5.380
 4733POPC   GL161717   3.538   0.629   5.776
 4733POPC   GL261718   3.574   0.287   5.823
 4733POPC   C1A61719   3.353   0.563   6.191
 4733POPC   D2A61720   3.285   0.278   6.527
 4733POPC   C3A61721   3.343   0.441   6.909
 4733POPC   C4A61722   3.217   0.475   7.310
 4733POPC   C1B61723   3.798   0.173   6.176
 4733POPC   C2B61724   3.809   0.316   6.555
 4733POPC   C3B61725   3.762   0.159   6.919
 4733POPC   C4B61726   3.693   0.346   7.272
 4734POPC   NC361727  21.892  26.711   5.416
 4734POPC   PO461728  22.579  26.597   5.510
 4734POPC   GL161729  22.468  26.590   5.908
 4734POPC   GL261730  22.116  26.711   5.895
 4734POPC   C1A61731  22.430  26.768   6.315
 4734POPC   D2A61732  22.219  26.736   6.676
 4734POPC   C3A61733  22.362  26.875   7.045
 4734POPC   C4A61734  22.079  27.216   7.258
 4734POPC   C1B61735  22.087  26.376   6.214
 4734POPC   C2B61736  21.934  26.330   6.675
 4734POPC   C3B61737  22.005  26.444   7.101
 4734POPC   C4B61738  21.765  26.406   7.472
 4735POPC   NC361739  11.827   4.690   5.644
 4735POPC   PO461740  12.278   4.248   5.569
 4735POPC   GL161741  12.031   4.331   5.927
 4735POPC   GL261742  11.866   4.021   5.972
 4735POPC   C1A61743  11.931   4.344   6.370
 4735POPC   D2A61744  12.216   4.305   6.699
 4735POPC   C3A61745  11.912   4.275   6.993
 4735POPC   C4A61746  11.796   4.508   7.307
 4735POPC   C1B61747  12.302   4.020   6.204
 4735POPC   C2B61748  12.427   3.840   6.580
 4735POPC   C3B61749  12.486   3.951   6.975
 4735POPC   C4B61750  12.370   4.252   7.234
 4736POPC   NC361751  10.740  16.289   5.158
 4736POPC   PO461752  10.904  15.645   5.438
 4736POPC   GL161753  10.732  15.940   5.726
 4736POPC   GL261754  10.357  15.959   5.763
 4736POPC   C1A61755  10.617  15.764   6.133
 4736POPC   D2A61756  10.467  15.905   6.498
 4736POPC   C3A61757  10.580  15.667   6.847
 4736POPC   C4A61758  10.492  15.558   7.257
 4736POPC   C1B61759  10.453  16.251   6.110
 4736POPC   C2B61760  10.615  16.392   6.514
 4736POPC   C3B61761  10.640  16.175   6.883
 4736POPC   C4B61762  10.646  16.031   7.260
 4737POPC   NC361763  38.521   8.616   5.399
 4737POPC   PO461764  38.113   8.105   5.397
 4737POPC   GL161765  38.303   8.328   5.795
 4737POPC   GL261766  38.587   8.580   5.892
 4737POPC   C1A61767  38.262   8.391   6.242
 4737POPC   D2A61768  38.426   8.196   6.610
 4737POPC   C3A61769  38.485   8.325   6.997
 4737POPC   C4A61770  38.519   8.026   7.345
 4737POPC   C1B61771  38.768   8.460   6.295
 4737POPC   C2B61772  38.915   8.352   6.687
 4737POPC   C3B61773  38.968   8.285   7.119
 4737POPC   C4B61774  38.779   8.639   7.296
 4738POPC   NC361775   1.080   8.974   5.150
 4738POPC   PO461776   1.632   8.902   5.479
 4738POPC   GL161777   1.259   8.817   5.708
 4738POPC   GL261778   1.032   9.118   5.740
 4738POPC   C1A61779   1.317   8.764   6.151
 4738POPC   D2A61780   1.381   9.021   6.489
 4738POPC   C3A61781   1.467   8.868   6.878
 4738POPC   C4A61782   1.418   9.009   7.270
 4738POPC   C1B61783   0.822   8.905   6.121
 4738POPC   C2B61784   0.860   8.759   6.564
 4738POPC   C3B61785   0.966   8.948   6.964
 4738POPC   C4B61786   0.955   8.832   7.385
 4739POPC   NC361787   0.589  17.104   5.509
 4739POPC   PO461788   0.253  16.497   5.408
 4739POPC   GL161789   0.202  16.602   5.835
 4739POPC   GL261790   0.484  16.816   5.942
 4739POPC   C1A61791   0.055  16.805   6.225
 4739POPC   D2A61792   0.334  17.064   6.465
 4739POPC   C3A61793   0.532  16.968   6.851
 4739POPC   C4A61794   0.413  16.696   7.174
 4739POPC   C1B61795   0.785  17.065   6.185
 4739POPC   C2B61796   1.097  16.935   6.473
 4739POPC   C3B61797   0.987  16.705   6.838
 4739POPC   C4B61798   0.885  16.880   7.239
 4740POPC   NC361799   4.607  37.785   4.941
 4740POPC   PO461800   4.272  37.688   5.531
 4740POPC   GL161801   4.452  37.730   5.920
 4740POPC   GL261802   4.659  38.005   5.887
 4740POPC   C1A61803   4.301  37.612   6.347
 4740POPC   D2A61804   4.393  37.388   6.729
 4740POPC   C3A61805   4.196  37.643   7.074
 4740POPC   C4A61806   4.330  37.606   7.530
 4740POPC   C1B61807   4.774  37.821   6.303
 4740POPC   C2B61808   4.651  37.838   6.723
 4740POPC   C3B61809   4.693  37.770   7.155
 4740POPC   C4B61810   4.748  37.942   7.558
 4741POPC   NC361811  13.367  39.431   5.620
 4741POPC   PO461812  13.695  39.032   5.229
 4741POPC   GL161813  13.481  38.958   5.790
 4741POPC   GL261814  13.410  39.233   6.072
 4741POPC   C1A61815  13.698  38.863   6.228
 4741POPC   D2A61816  13.788  39.071   6.616
 4741POPC   C3A61817  13.416  39.247   6.812
 4741POPC   C4A61818  13.166  39.037   7.120
 4741POPC   C1B61819  13.715  39.490   6.334
 4741POPC   C2B61820  14.001  39.526   6.693
 4741POPC   C3B61821  13.841  39.367   7.061
 4741POPC   C4B61822  13.759  38.952   7.123
 4742POPC   NC361823   4.702  19.436   5.458
 4742POPC   PO461824   4.781  18.777   5.365
 4742POPC   GL161825   5.055  19.067   5.716
 4742POPC   GL261826   4.898  19.349   5.920
 4742POPC   C1A61827   5.272  19.156   6.169
 4742POPC   D2A61828   5.234  18.879   6.504
 4742POPC   C3A61829   5.287  19.080   6.894
 4742POPC   C4A61830   5.389  18.862   7.255
 4742POPC   C1B61831   4.790  18.974   6.253
 4742POPC   C2B61832   4.787  18.894   6.739
 4742POPC   C3B61833   4.856  18.931   7.175
 4742POPC   C4B61834   4.692  19.219   7.518
 4743POPC   NC361835  37.714  36.618   5.302
 4743POPC   PO461836  37.494  35.943   5.303
 4743POPC   GL161837  37.547  36.181   5.704
 4743POPC   GL261838  37.859  36.227   5.810
 4743POPC   C1A61839  37.558  35.998   6.143
 4743POPC   D2A61840  37.515  36.160   6.556
 4743POPC   C3A61841  37.360  35.966   6.929
 4743POPC   C4A61842  37.678  35.890   7.259
 4743POPC   C1B61843  37.911  36.422   6.256
 4743POPC   C2B61844  37.667  36.643   6.590
 4743POPC   C3B61845  37.561  36.457   6.973
 4743POPC   C4B61846  37.807  36.388   7.321
 4744POPC   NC361847  18.701  37.030   5.567
 4744POPC   PO461848  19.323  36.973   5.359
 4744POPC   GL161849  19.227  37.108   5.778
 4744POPC   GL261850  19.051  36.811   5.846
 4744POPC   C1A61851  19.296  36.981   6.229
 4744POPC   D2A61852  19.392  36.798   6.580
 4744POPC   C3A61853  19.145  36.776   6.923
 4744POPC   C4A61854  19.204  36.546   7.283
 4744POPC   C1B61855  18.818  37.062   6.198
 4744POPC   C2B61856  18.969  37.188   6.609
 4744POPC   C3B61857  18.803  37.156   7.041
 4744POPC   C4B61858  18.620  37.050   7.475
 4745POPC   NC361859   0.213   0.510   5.415
 4745POPC   PO461860   0.845   0.119   5.427
 4745POPC   GL161861   0.521   0.204   5.773
 4745POPC   GL261862   0.600   0.542   5.877
 4745POPC   C1A61863   0.274   0.238   6.192
 4745POPC   D2A61864   0.410   0.234   6.666
 4745POPC   C3A61865   0.147   0.126   7.046
 4745POPC   C4A61866   0.148   0.246   7.511
 4745POPC   C1B61867   0.653   0.539   6.334
 4745POPC   C2B61868   0.448   0.791   6.662
 4745POPC   C3B61869   0.329   0.605   7.021
 4745POPC   C4B61870   0.736   0.552   7.171
 4746POPC   NC361871  42.819  44.738   5.431
 4746POPC   PO461872  43.421  44.915   5.396
 4746POPC   GL161873  43.185  44.868   5.788
 4746POPC   GL261874  42.843   0.091   5.801
 4746POPC   C1A61875  43.295  44.619   6.172
 4746POPC   D2A61876  43.187  44.637   6.615
 4746POPC   C3A61877  43.447  44.385   6.890
 4746POPC   C4A61878  43.459  44.320   7.334
 4746POPC   C1B61879  42.826  44.811   6.157
 4746POPC   C2B61880  42.676  44.802   6.562
 4746POPC   C3B61881  42.816  44.842   6.945
 4746POPC   C4B61882  43.038  44.533   7.149
 4747POPC   NC361883  10.320  21.139   5.286
 4747POPC   PO461884  10.821  21.642   5.246
 4747POPC   GL161885  10.738  21.461   5.644
 4747POPC   GL261886  10.700  21.127   5.703
 4747POPC   C1A61887  10.747  21.447   6.115
 4747POPC   D2A61888  10.451  21.685   6.422
 4747POPC   C3A61889  10.404  21.568   6.850
 4747POPC   C4A61890  10.732  21.391   7.064
 4747POPC   C1B61891  10.376  21.073   6.064
 4747POPC   C2B61892  10.344  20.943   6.528
 4747POPC   C3B61893  10.207  21.099   6.958
 4747POPC   C4B61894  10.388  21.152   7.366
 4748POPC   NC361895  30.804  44.994   5.334
 4748POPC   PO461896  30.369  44.508   5.302
 4748POPC   GL161897  30.551  44.733   5.686
 4748POPC   GL261898  30.303  44.849   5.866
 4748POPC   C1A61899  30.724  44.847   6.131
 4748POPC   D2A61900  30.545  44.770   6.548
 4748POPC   C3A61901  30.865  44.671   6.868
 4748POPC   C4A61902  30.925  44.397   7.223
 4748POPC   C1B61903  30.110  44.950   6.275
 4748POPC   C2B61904  30.197   0.139   6.698
 4748POPC   C3B61905  30.589   0.097   6.955
 4748POPC   C4B61906  30.683  44.861   7.304
 4749POPC   NC361907  16.159   9.540   5.504
 4749POPC   PO461908  15.737  10.088   5.290
 4749POPC   GL161909  15.726   9.824   5.694
 4749POPC   GL261910  15.983   9.690   5.930
 4749POPC   C1A61911  15.595   9.884   6.156
 4749POPC   D2A61912  15.738   9.584   6.439
 4749POPC   C3A61913  15.765   9.661   6.898
 4749POPC   C4A61914  15.986   9.881   7.306
 4749POPC   C1B61915  16.227   9.521   6.239
 4749POPC   C2B61916  16.231   9.655   6.653
 4749POPC   C3B61917  16.212   9.477   7.067
 4749POPC   C4B61918  16.525   9.488   7.359
 4750POPC   NC361919  34.336  44.112   5.501
 4750POPC   PO461920  34.947  43.677   5.493
 4750POPC   GL161921  34.507  43.693   5.765
 4750POPC   GL261922  34.521  44.006   5.970
 4750POPC   C1A61923  34.192  43.651   6.150
 4750POPC   D2A61924  34.308  43.472   6.554
 4750POPC   C3A61925  34.185  43.504   6.999
 4750POPC   C4A61926  34.527  43.642   7.272
 4750POPC   C1B61927  34.594  44.205   6.374
 4750POPC   C2B61928  34.873  44.224   6.713
 4750POPC   C3B61929  34.716  44.055   7.068
 4750POPC   C4B61930  34.225  44.016   7.130
 4751POPC   NC361931  28.735  22.096   5.486
 4751POPC   PO461932  28.104  21.986   5.530
 4751POPC   GL161933  28.386  22.110   5.859
 4751POPC   GL261934  28.536  21.772   5.872
 4751POPC   C1A61935  28.291  22.357   6.228
 4751POPC   D2A61936  28.295  22.119   6.614
 4751POPC   C3A61937  28.230  22.305   6.995
 4751POPC   C4A61938  28.518  22.255   7.306
 4751POPC   C1B61939  28.340  21.712   6.280
 4751POPC   C2B61940  28.272  21.593   6.729
 4751POPC   C3B61941  28.332  21.783   7.160
 4751POPC   C4B61942  28.410  21.863   7.621
 4752POPC   NC361943  10.216   8.303   5.161
 4752POPC   PO461944  10.705   7.812   5.362
 4752POPC   GL161945  10.749   8.000   5.748
 4752POPC   GL261946  10.727   8.341   5.817
 4752POPC   C1A61947  10.534   8.000   6.149
 4752POPC   D2A61948  10.617   7.823   6.507
 4752POPC   C3A61949  10.398   7.983   6.853
 4752POPC   C4A61950  10.511   7.954   7.277
 4752POPC   C1B61951  10.616   8.504   6.239
 4752POPC   C2B61952  10.466   8.469   6.670
 4752POPC   C3B61953  10.703   8.367   7.031
 4752POPC   C4B61954  11.071   8.541   7.212
 4753POPC   NC361955  24.785  31.090   5.734
 4753POPC   PO461956  24.504  31.674   5.435
 4753POPC   GL161957  24.648  31.672   5.839
 4753POPC   GL261958  24.419  31.440   5.898
 4753POPC   C1A61959  24.575  31.734   6.296
 4753POPC   D2A61960  24.330  31.832   6.652
 4753POPC   C3A61961  24.531  31.766   7.055
 4753POPC   C4A61962  24.686  31.497   7.435
 4753POPC   C1B61963  24.270  31.337   6.310
 4753POPC   C2B61964  24.522  31.336   6.681
 4753POPC   C3B61965  24.356  31.298   7.073
 4753POPC   C4B61966  23.961  31.260   7.211
 4754POPC   NC361967  14.183  22.477   5.238
 4754POPC   PO461968  14.487  23.112   5.503
 4754POPC   GL161969  14.259  23.010   5.848
 4754POPC   GL261970  14.500  22.807   5.992
 4754POPC   C1A61971  14.146  22.987   6.301
 4754POPC   D2A61972  14.358  22.904   6.694
 4754POPC   C3A61973  14.174  23.041   7.090
 4754POPC   C4A61974  14.077  23.010   7.545
 4754POPC   C1B61975  14.725  23.031   6.293
 4754POPC   C2B61976  14.894  22.958   6.691
 4754POPC   C3B61977  14.707  22.911   7.085
 4754POPC   C4B61978  14.558  23.131   7.441
 4755POPC   NC361979   8.003  36.560   5.355
 4755POPC   PO461980   8.442  37.002   5.270
 4755POPC   GL161981   8.275  37.023   5.743
 4755POPC   GL261982   8.035  36.815   5.850
 4755POPC   C1A61983   8.276  37.146   6.216
 4755POPC   D2A61984   8.091  37.353   6.602
 4755POPC   C3A61985   8.179  37.248   7.024
 4755POPC   C4A61986   7.972  37.027   7.350
 4755POPC   C1B61987   8.006  36.667   6.265
 4755POPC   C2B61988   8.164  36.822   6.632
 4755POPC   C3B61989   8.165  36.699   7.016
 4755POPC   C4B61990   8.402  36.622   7.336
 4756POPC   NC361991  39.193  17.062   5.470
 4756POPC   PO461992  39.026  16.447   5.609
 4756POPC   GL161993  39.181  16.500   5.983
 4756POPC   GL261994  39.301  16.823   5.907
 4756POPC   C1A61995  39.138  16.439   6.423
 4756POPC   D2A61996  39.211  16.622   6.772
 4756POPC   C3A61997  39.174  16.490   7.180
 4756POPC   C4A61998  39.337  16.692   7.563
 4756POPC   C1B61999  39.428  16.899   6.318
 4756POPC   C2B62000  39.560  17.015   6.726
 4756POPC   C3B62001  39.424  16.929   7.114
 4756POPC   C4B62002  39.214  17.176   7.415
 4757POPC   NC362003  44.736  23.913   5.109
 4757POPC   PO462004  44.679  24.590   5.338
 4757POPC   GL162005  44.639  24.618   5.793
 4757POPC   GL262006  44.940  24.564   5.965
 4757POPC   C1A62007  44.507  24.465   6.215
 4757POPC   D2A62008  44.800  24.482   6.552
 4757POPC   C3A62009  44.810  24.746   6.902
 4757POPC   C4A62010  44.493  24.766   7.219
 4757POPC   C1B62011  44.940  24.168   6.174
 4757POPC   C2B62012   0.161  24.109   6.580
 4757POPC   C3B62013   0.008  24.237   6.963
 4757POPC   C4B62014   0.097  24.293   7.382
 4758POPC   NC362015  24.785   8.072   5.369
 4758POPC   PO462016  24.480   8.589   5.585
 4758POPC   GL162017  24.574   8.195   5.891
 4758POPC   GL262018  24.873   7.972   5.878
 4758POPC   C1A62019  24.607   8.067   6.373
 4758POPC   D2A62020  24.554   8.190   6.830
 4758POPC   C3A62021  24.124   8.204   7.108
 4758POPC   C4A62022  23.944   8.144   7.550
 4758POPC   C1B62023  25.026   7.776   6.279
 4758POPC   C2B62024  24.981   7.857   6.767
 4758POPC   C3B62025  24.879   8.035   7.218
 4758POPC   C4B62026  24.573   8.379   7.300
 4759POPC   NC362027  39.902  44.223   5.078
 4759POPC   PO462028  39.809  44.809   5.268
 4759POPC   GL162029  39.860  44.779   5.733
 4759POPC   GL262030  39.802  44.443   5.930
 4759POPC   C1A62031  39.857  44.883   6.190
 4759POPC   D2A62032  39.887  44.731   6.615
 4759POPC   C3A62033  39.824  44.891   7.024
 4759POPC   C4A62034  39.942  44.676   7.421
 4759POPC   C1B62035  40.093  44.412   6.267
 4759POPC   C2B62036  40.254  44.407   6.685
 4759POPC   C3B62037  39.944  44.384   6.999
 4759POPC   C4B62038  39.883  44.182   7.350
 4760POPC   NC362039   5.999   6.897   5.471
 4760POPC   PO462040   5.363   6.754   5.561
 4760POPC   GL162041   5.631   6.572   5.847
 4760POPC   GL262042   5.919   6.435   5.702
 4760POPC   C1A62043   5.693   6.531   6.275
 4760POPC   D2A62044   5.444   6.533   6.616
 4760POPC   C3A62045   5.687   6.572   6.892
 4760POPC   C4A62046   5.600   6.559   7.276
 4760POPC   C1B62047   6.163   6.549   6.072
 4760POPC   C2B62048   6.211   6.375   6.469
 4760POPC   C3B62049   6.277   6.479   6.858
 4760POPC   C4B62050   6.087   6.444   7.192
 4761POPC   NC362051  41.031  39.398   5.388
 4761POPC   PO462052  40.538  38.953   5.084
 4761POPC   GL162053  40.649  39.061   5.583
 4761POPC   GL262054  40.588  39.376   5.713
 4761POPC   C1A62055  40.891  39.177   6.061
 4761POPC   D2A62056  40.884  38.938   6.500
 4761POPC   C3A62057  41.080  39.015   6.936
 4761POPC   C4A62058  40.902  39.246   7.297
 4761POPC   C1B62059  40.489  39.554   6.098
 4761POPC   C2B62060  40.778  39.617   6.440
 4761POPC   C3B62061  40.804  39.595   6.894
 4761POPC   C4B62062  40.485  39.547   7.218
 4762POPC   NC362063   5.698  43.720   5.498
 4762POPC   PO462064   6.343  43.880   5.575
 4762POPC   GL162065   6.088  43.742   5.913
 4762POPC   GL262066   5.894  43.442   5.858
 4762POPC   C1A62067   5.920  43.799   6.334
 4762POPC   D2A62068   5.939  44.043   6.739
 4762POPC   C3A62069   6.101  43.998   7.190
 4762POPC   C4A62070   6.238  44.256   7.592
 4762POPC   C1B62071   5.533  43.479   6.165
 4762POPC   C2B62072   5.505  43.652   6.616
 4762POPC   C3B62073   5.759  43.631   7.014
 4762POPC   C4B62074   5.667  43.822   7.429
 4763POPC   NC362075  44.017  23.389   5.566
 4763POPC   PO462076  43.882  22.763   5.426
 4763POPC   GL162077  43.993  22.953   5.838
 4763POPC   GL262078  43.738  23.204   5.941
 4763POPC   C1A62079  44.081  23.020   6.284
 4763POPC   D2A62080  44.144  22.680   6.573
 4763POPC   C3A62081  44.150  22.747   7.003
 4763POPC   C4A62082  43.767  22.868   7.149
 4763POPC   C1B62083  43.545  23.069   6.300
 4763POPC   C2B62084  43.602  23.093   6.725
 4763POPC   C3B62085  43.798  23.352   7.046
 4763POPC   C4B62086  44.189  23.222   7.237
 4764POPC   NC362087  28.907   5.197   5.614
 4764POPC   PO462088  29.450   4.833   5.565
 4764POPC   GL162089  29.270   5.040   5.952
 4764POPC   GL262090  28.920   5.205   6.099
 4764POPC   C1A62091  29.368   5.310   6.281
 4764POPC   D2A62092  29.102   5.178   6.607
 4764POPC   C3A62093  29.270   5.245   7.010
 4764POPC   C4A62094  29.585   5.385   7.305
 4764POPC   C1B62095  28.882   4.810   6.203
 4764POPC   C2B62096  28.713   4.704   6.550
 4764POPC   C3B62097  28.886   4.858   6.929
 4764POPC   C4B62098  28.860   5.105   7.286
 4765POPC   NC362099  31.794   1.157   5.458
 4765POPC   PO462100  31.087   1.036   5.497
 4765POPC   GL162101  31.227   1.253   5.890
 4765POPC   GL262102  31.531   1.465   5.951
 4765POPC   C1A62103  31.084   1.285   6.302
 4765POPC   D2A62104  30.990   1.144   6.685
 4765POPC   C3A62105  31.280   1.341   6.966
 4765POPC   C4A62106  31.414   1.159   7.317
 4765POPC   C1B62107  31.574   1.153   6.316
 4765POPC   C2B62108  31.548   0.934   6.745
 4765POPC   C3B62109  31.865   0.970   7.086
 4765POPC   C4B62110  31.895   1.215   7.458
 4766POPC   NC362111   0.500   2.075   5.224
 4766POPC   PO462112   0.354   1.381   5.396
 4766POPC   GL162113   0.339   1.803   5.663
 4766POPC   GL262114   0.481   2.153   5.724
 4766POPC   C1A62115   0.471   1.846   6.116
 4766POPC   D2A62116   0.609   1.765   6.565
 4766POPC   C3A62117   0.505   1.903   6.940
 4766POPC   C4A62118   0.577   2.029   7.322
 4766POPC   C1B62119   0.666   2.334   6.120
 4766POPC   C2B62120   0.732   2.275   6.595
 4766POPC   C3B62121   0.684   2.451   7.039
 4766POPC   C4B62122   0.526   2.486   7.491
 4767POPC   NC362123  43.245  10.692   5.343
 4767POPC   PO462124  42.619  10.403   5.446
 4767POPC   GL162125  42.765  10.394   5.867
 4767POPC   GL262126  43.107  10.464   5.797
 4767POPC   C1A62127  42.960  10.486   6.287
 4767POPC   D2A62128  43.153  10.817   6.536
 4767POPC   C3A62129  43.053  10.743   6.962
 4767POPC   C4A62130  42.901  10.360   7.176
 4767POPC   C1B62131  43.401  10.297   6.095
 4767POPC   C2B62132  43.477  10.410   6.514
 4767POPC   C3B62133  43.293  10.297   6.861
 4767POPC   C4B62134  43.400  10.415   7.274
 4768POPC   NC362135  38.803   1.480   5.597
 4768POPC   PO462136  38.220   1.461   5.200
 4768POPC   GL162137  38.325   1.257   5.652
 4768POPC   GL262138  38.629   1.035   5.789
 4768POPC   C1A62139  38.200   1.085   6.089
 4768POPC   D2A62140  38.288   1.242   6.511
 4768POPC   C3A62141  38.217   1.080   6.915
 4768POPC   C4A62142  38.444   1.225   7.285
 4768POPC   C1B62143  38.675   1.317   6.195
 4768POPC   C2B62144  38.880   1.319   6.608
 4768POPC   C3B62145  38.876   1.397   7.067
 4768POPC   C4B62146  38.901   0.996   7.298
 4769POPC   NC362147  33.220  42.036   5.085
 4769POPC   PO462148  32.811  42.375   5.452
 4769POPC   GL162149  33.153  42.395   5.804
 4769POPC   GL262150  33.133  42.086   6.005
 4769POPC   C1A62151  33.224  42.522   6.251
 4769POPC   D2A62152  33.305  42.285   6.624
 4769POPC   C3A62153  33.235  42.489   7.039
 4769POPC   C4A62154  33.211  42.669   7.453
 4769POPC   C1B62155  32.876  42.102   6.412
 4769POPC   C2B62156  32.862  42.134   6.862
 4769POPC   C3B62157  32.861  41.871   7.236
 4769POPC   C4B62158  32.680  42.007   7.646
 4770POPC   NC362159  42.159  42.910   5.385
 4770POPC   PO462160  42.605  43.322   5.285
 4770POPC   GL162161  42.564  43.038   5.696
 4770POPC   GL262162  42.264  43.069   5.863
 4770POPC   C1A62163  42.729  42.963   6.131
 4770POPC   D2A62164  42.560  42.914   6.555
 4770POPC   C3A62165  42.585  43.232   6.873
 4770POPC   C4A62166  42.416  43.118   7.247
 4770POPC   C1B62167  42.010  43.310   6.137
 4770POPC   C2B62168  41.998  43.019   6.456
 4770POPC   C3B62169  42.138  42.946   6.851
 4770POPC   C4B62170  41.937  42.995   7.210
 4771POPC   NC362171  39.949  13.349   5.219
 4771POPC   PO462172  40.050  12.911   5.711
 4771POPC   GL162173  40.153  12.991   6.089
 4771POPC   GL262174  39.817  13.071   6.219
 4771POPC   C1A62175  40.208  12.864   6.516
 4771POPC   D2A62176  39.905  12.704   6.807
 4771POPC   C3A62177  40.095  12.869   7.170
 4771POPC   C4A62178  39.897  13.095   7.476
 4771POPC   C1B62179  39.814  12.601   6.288
 4771POPC   C2B62180  39.629  12.293   6.562
 4771POPC   C3B62181  39.680  12.254   7.002
 4771POPC   C4B62182  39.807  12.513   7.385
 4772POPC   NC362183   1.977   2.988   5.285
 4772POPC   PO462184   2.406   2.533   5.335
 4772POPC   GL162185   2.160   2.600   5.755
 4772POPC   GL262186   1.938   2.886   5.793
 4772POPC   C1A62187   2.088   2.508   6.231
 4772POPC   D2A62188   2.404   2.383   6.563
 4772POPC   C3A62189   2.307   2.506   6.983
 4772POPC   C4A62190   2.029   2.861   7.072
 4772POPC   C1B62191   1.953   3.048   6.203
 4772POPC   C2B62192   1.812   2.988   6.606
 4772POPC   C3B62193   1.574   3.132   6.921
 4772POPC   C4B62194   1.534   2.880   7.249
 4773POPC   NC362195  44.655  20.313   5.482
 4773POPC   PO462196  44.920  19.672   5.494
 4773POPC   GL162197  44.871  19.969   5.815
 4773POPC   GL262198  44.509  19.909   5.818
 4773POPC   C1A62199  44.785  20.010   6.251
 4773POPC   D2A62200  44.805  20.208   6.630
 4773POPC   C3A62201  44.870  19.856   6.859
 4773POPC   C4A62202  44.698  19.666   7.199
 4773POPC   C1B62203  44.343  19.733   6.227
 4773POPC   C2B62204  44.400  19.721   6.689
 4773POPC   C3B62205  44.374  20.023   7.037
 4773POPC   C4B62206  44.043  20.010   7.387
 4774POPC   NC362207   5.588  40.891   5.416
 4774POPC   PO462208   4.897  40.894   5.341
 4774POPC   GL162209   5.119  40.903   5.707
 4774POPC   GL262210   4.976  40.631   5.843
 4774POPC   C1A62211   5.051  41.044   6.150
 4774POPC   D2A62212   5.162  40.819   6.525
 4774POPC   C3A62213   5.067  40.912   6.960
 4774POPC   C4A62214   5.314  40.937   7.313
 4774POPC   C1B62215   4.760  40.624   6.253
 4774POPC   C2B62216   4.804  40.539   6.738
 4774POPC   C3B62217   4.733  40.575   7.187
 4774POPC   C4B62218   4.947  40.702   7.565
 4775POPC   NC362219  12.525  38.558   5.025
 4775POPC   PO462220  13.045  38.298   5.378
 4775POPC   GL162221  12.757  38.292   5.799
 4775POPC   GL262222  12.621  38.626   6.016
 4775POPC   C1A62223  12.995  38.345   6.197
 4775POPC   D2A62224  13.005  38.473   6.623
 4775POPC   C3A62225  12.706  38.262   6.883
 4775POPC   C4A62226  12.855  38.115   7.289
 4775POPC   C1B62227  12.538  38.483   6.422
 4775POPC   C2B62228  12.258  38.214   6.616
 4775POPC   C3B62229  12.208  38.257   7.046
 4775POPC   C4B62230  12.373  38.594   7.231
 4776POPC   NC362231  41.067  13.058   5.116
 4776POPC   PO462232  40.382  13.178   5.279
 4776POPC   GL162233  40.573  12.956   5.699
 4776POPC   GL262234  40.904  12.820   5.650
 4776POPC   C1A62235  40.657  13.075   6.186
 4776POPC   D2A62236  40.931  12.962   6.574
 4776POPC   C3A62237  40.775  13.006   7.037
 4776POPC   C4A62238  40.911  12.897   7.491
 4776POPC   C1B62239  40.798  12.616   6.053
 4776POPC   C2B62240  40.735  12.483   6.506
 4776POPC   C3B62241  40.826  12.487   6.959
 4776POPC   C4B62242  40.545  12.621   7.308
 4777POPC   NC362243  26.157  34.933   5.220
 4777POPC   PO462244  26.268  34.291   5.249
 4777POPC   GL162245  26.101  34.469   5.660
 4777POPC   GL262246  25.956  34.815   5.721
 4777POPC   C1A62247  26.274  34.593   6.073
 4777POPC   D2A62248  26.434  34.474   6.470
 4777POPC   C3A62249  26.104  34.311   6.741
 4777POPC   C4A62250  26.027  34.425   7.157
 4777POPC   C1B62251  25.988  35.029   6.132
 4777POPC   C2B62252  26.317  35.001   6.441
 4777POPC   C3B62253  26.246  34.823   6.826
 4777POPC   C4B62254  25.985  34.948   7.168
 4778POPC   NC362255  34.106  19.578   5.494
 4778POPC   PO462256  34.750  19.703   5.527
 4778POPC   GL162257  34.695  19.863   5.915
 4778POPC   GL262258  34.309  19.933   5.863
 4778POPC   C1A62259  34.833  19.879   6.363
 4778POPC   D2A62260  34.562  20.043   6.652
 4778POPC   C3A62261  34.563  20.003   7.067
 4778POPC   C4A62262  34.242  20.100   7.380
 4778POPC   C1B62263  34.340  19.737   6.265
 4778POPC   C2B62264  34.152  19.704   6.662
 4778POPC   C3B62265  34.322  19.566   7.063
 4778POPC   C4B62266  34.784  19.515   7.171
 4779POPC   NC362267   5.655  16.163   5.630
 4779POPC   PO462268   5.939  15.628   5.277
 4779POPC   GL162269   5.984  15.774   5.740
 4779POPC   GL262270   5.758  15.706   6.032
 4779POPC   C1A62271   6.068  16.086   6.127
 4779POPC   D2A62272   6.063  15.956   6.543
 4779POPC   C3A62273   6.151  16.253   6.874
 4779POPC   C4A62274   6.043  16.156   7.295
 4779POPC   C1B62275   5.556  16.051   6.290
 4779POPC   C2B62276   5.644  16.223   6.688
 4779POPC   C3B62277   5.684  15.962   7.006
 4779POPC   C4B62278   5.499  15.736   7.310
 4780POPC   NC362279  19.739  22.383   5.446
 4780POPC   PO462280  20.195  21.871   5.397
 4780POPC   GL162281  19.990  22.081   5.773
 4780POPC   GL262282  20.164  22.383   5.934
 4780POPC   C1A62283  19.757  22.167   6.171
 4780POPC   D2A62284  19.895  21.979   6.543
 4780POPC   C3A62285  20.009  22.202   6.936
 4780POPC   C4A62286  19.922  22.070   7.373
 4780POPC   C1B62287  20.093  22.461   6.428
 4780POPC   C2B62288  19.699  22.522   6.685
 4780POPC   C3B62289  19.537  22.356   7.092
 4780POPC   C4B62290  19.617  22.491   7.516
 4781POPC   NC362291  23.406  21.898   5.507
 4781POPC   PO462292  23.528  22.581   5.254
 4781POPC   GL162293  23.752  22.426   5.662
 4781POPC   GL262294  23.674  22.119   5.868
 4781POPC   C1A62295  23.785  22.514   6.145
 4781POPC   D2A62296  23.760  22.576   6.611
 4781POPC   C3A62297  23.687  22.247   6.936
 4781POPC   C4A62298  23.912  22.183   7.350
 4781POPC   C1B62299  23.930  21.929   6.216
 4781POPC   C2B62300  23.982  21.908   6.666
 4781POPC   C3B62301  23.857  21.784   7.056
 4781POPC   C4B62302  23.504  21.876   7.300
 4782POPC   NC362303   2.892   6.121   5.338
 4782POPC   PO462304   2.471   5.578   5.390
 4782POPC   GL162305   2.648   5.826   5.697
 4782POPC   GL262306   2.473   6.110   5.688
 4782POPC   C1A62307   2.780   5.862   6.117
 4782POPC   D2A62308   2.742   6.042   6.524
 4782POPC   C3A62309   3.060   5.887   6.827
 4782POPC   C4A62310   2.892   5.868   7.241
 4782POPC   C1B62311   2.319   6.092   6.165
 4782POPC   C2B62312   2.179   6.070   6.613
 4782POPC   C3B62313   2.462   6.071   6.985
 4782POPC   C4B62314   2.540   6.242   7.424
 4783POPC   NC362315  25.771   2.061   5.355
 4783POPC   PO462316  26.276   1.601   5.424
 4783POPC   GL162317  26.139   1.591   5.835
 4783POPC   GL262318  25.789   1.646   5.816
 4783POPC   C1A62319  26.241   1.789   6.210
 4783POPC   D2A62320  26.287   1.939   6.612
 4783POPC   C3A62321  26.073   1.827   6.979
 4783POPC   C4A62322  25.955   2.219   7.235
 4783POPC   C1B62323  25.743   1.972   6.138
 4783POPC   C2B62324  25.737   1.973   6.600
 4783POPC   C3B62325  25.583   1.921   7.036
 4783POPC   C4B62326  25.564   2.020   7.492
 4784POPC   NC362327  24.099  36.400   5.477
 4784POPC   PO462328  23.474  36.303   5.498
 4784POPC   GL162329  23.734  36.123   5.812
 4784POPC   GL262330  23.998  35.904   5.659
 4784POPC   C1A62331  23.858  36.147   6.234
 4784POPC   D2A62332  23.748  35.976   6.590
 4784POPC   C3A62333  23.684  36.188   6.916
 4784POPC   C4A62334  23.875  36.257   7.279
 4784POPC   C1B62335  24.161  35.791   6.056
 4784POPC   C2B62336  24.239  35.903   6.503
 4784POPC   C3B62337  24.097  35.847   6.953
 4784POPC   C4B62338  24.072  35.541   7.294
 4785POPC   NC362339  26.848  27.339   5.318
 4785POPC   PO462340  27.191  27.976   5.377
 4785POPC   GL162341  26.896  27.778   5.676
 4785POPC   GL262342  26.568  27.881   5.772
 4785POPC   C1A62343  26.979  27.800   6.142
 4785POPC   D2A62344  26.805  27.756   6.563
 4785POPC   C3A62345  27.068  27.664   6.916
 4785POPC   C4A62346  27.062  27.451   7.338
 4785POPC   C1B62347  26.633  27.453   5.989
 4785POPC   C2B62348  26.610  27.302   6.417
 4785POPC   C3B62349  26.595  27.362   6.878
 4785POPC   C4B62350  26.590  27.708   7.185
 4786POPC   NC362351  18.859  18.382   5.400
 4786POPC   PO462352  19.587  18.658   5.409
 4786POPC   GL162353  19.220  18.584   5.736
 4786POPC   GL262354  19.126  18.266   5.827
 4786POPC   C1A62355  19.032  18.564   6.215
 4786POPC   D2A62356  19.108  18.287   6.590
 4786POPC   C3A62357  18.996  18.463   6.990
 4786POPC   C4A62358  18.919  18.605   7.435
 4786POPC   C1B62359  19.357  18.112   6.168
 4786POPC   C2B62360  19.469  17.872   6.550
 4786POPC   C3B62361  19.236  17.907   6.933
 4786POPC   C4B62362  19.187  18.122   7.318
 4787POPC   NC362363  30.171  23.436   5.380
 4787POPC   PO462364  29.615  23.884   5.250
 4787POPC   GL162365  29.769  23.609   5.660
 4787POPC   GL262366  30.042  23.803   5.791
 4787POPC   C1A62367  29.793  23.497   6.138
 4787POPC   D2A62368  29.982  23.532   6.576
 4787POPC   C3A62369  29.677  23.518   6.925
 4787POPC   C4A62370  29.555  23.293   7.293
 4787POPC   C1B62371  30.132  23.975   6.204
 4787POPC   C2B62372  30.273  23.959   6.651
 4787POPC   C3B62373  30.047  23.933   7.050
 4787POPC   C4B62374  30.159  23.928   7.488
 4788POPC   NC362375   3.973   2.656   5.308
 4788POPC   PO462376   4.625   2.659   5.184
 4788POPC   GL162377   4.439   2.667   5.602
 4788POPC   GL262378   4.350   3.011   5.739
 4788POPC   C1A62379   4.408   2.625   6.068
 4788POPC   D2A62380   4.217   2.435   6.434
 4788POPC   C3A62381   4.361   2.398   6.886
 4788POPC   C4A62382   4.133   2.500   7.269
 4788POPC   C1B62383   4.077   3.149   6.142
 4788POPC   C2B62384   4.075   3.183   6.635
 4788POPC   C3B62385   4.268   2.933   7.017
 4788POPC   C4B62386   4.420   3.003   7.489
 4789POPC   NC362387  20.083  17.075   5.129
 4789POPC   PO462388  19.848  17.692   5.417
 4789POPC   GL162389  19.862  17.520   5.796
 4789POPC   GL262390  19.783  17.163   5.736
 4789POPC   C1A62391  20.045  17.553   6.197
 4789POPC   D2A62392  20.035  17.833   6.558
 4789POPC   C3A62393  20.120  17.693   6.968
 4789POPC   C4A62394  19.892  17.641   7.343
 4789POPC   C1B62395  19.582  17.269   6.155
 4789POPC   C2B62396  19.749  17.344   6.574
 4789POPC   C3B62397  19.778  17.264   7.001
 4789POPC   C4B62398  19.592  17.206   7.429
 4790POPC   NC362399   2.412  25.440   5.439
 4790POPC   PO462400   3.004  25.144   5.348
 4790POPC   GL162401   3.016  25.259   5.784
 4790POPC   GL262402   2.724  25.409   5.857
 4790POPC   C1A62403   2.982  25.107   6.235
 4790POPC   D2A62404   3.000  24.867   6.638
 4790POPC   C3A62405   2.970  25.095   7.008
 4790POPC   C4A62406   2.922  25.071   7.421
 4790POPC   C1B62407   2.863  25.595   6.252
 4790POPC   C2B62408   2.745  25.358   6.630
 4790POPC   C3B62409   2.536  25.345   7.050
 4790POPC   C4B62410   2.844  25.612   7.193
 4791POPC   NC362411  33.058   6.935   5.516
 4791POPC   PO462412  32.841   6.352   5.226
 4791POPC   GL162413  32.963   6.449   5.800
 4791POPC   GL262414  33.117   6.711   5.985
 4791POPC   C1A62415  32.725   6.430   6.237
 4791POPC   D2A62416  32.775   6.273   6.692
 4791POPC   C3A62417  32.897   6.592   6.963
 4791POPC   C4A62418  32.808   6.798   7.331
 4791POPC   C1B62419  33.205   6.287   6.216
 4791POPC   C2B62420  33.401   6.190   6.599
 4791POPC   C3B62421  33.247   6.225   7.030
 4791POPC   C4B62422  33.327   6.629   7.273
 4792POPC   NC362423   8.163  11.939   5.372
 4792POPC   PO462424   8.045  12.571   5.365
 4792POPC   GL162425   8.191  12.284   5.764
 4792POPC   GL262426   8.375  11.951   5.848
 4792POPC   C1A62427   8.042  12.078   6.189
 4792POPC   D2A62428   7.891  12.220   6.583
 4792POPC   C3A62429   8.058  12.020   6.936
 4792POPC   C4A62430   8.094  12.136   7.353
 4792POPC   C1B62431   8.491  11.761   6.280
 4792POPC   C2B62432   8.438  11.716   6.775
 4792POPC   C3B62433   8.516  11.917   7.195
 4792POPC   C4B62434   8.425  11.885   7.659
 4793POPC   NC362435  19.409  30.666   5.241
 4793POPC   PO462436  18.856  30.562   5.674
 4793POPC   GL162437  19.186  30.742   5.847
 4793POPC   GL262438  19.105  31.089   5.808
 4793POPC   C1A62439  19.340  30.580   6.246
 4793POPC   D2A62440  19.317  30.726   6.690
 4793POPC   C3A62441  19.103  30.502   7.057
 4793POPC   C4A62442  18.964  30.222   7.416
 4793POPC   C1B62443  19.215  31.087   6.260
 4793POPC   C2B62444  19.166  31.216   6.704
 4793POPC   C3B62445  19.176  31.024   7.098
 4793POPC   C4B62446  19.478  30.920   7.361
 4794POPC   NC362447   8.558  32.480   5.425
 4794POPC   PO462448   8.531  31.765   5.425
 4794POPC   GL162449   8.203  32.093   5.611
 4794POPC   GL262450   7.832  31.950   5.682
 4794POPC   C1A62451   8.208  32.309   6.031
 4794POPC   D2A62452   8.341  32.195   6.474
 4794POPC   C3A62453   8.400  32.408   6.874
 4794POPC   C4A62454   8.452  32.388   7.328
 4794POPC   C1B62455   7.762  32.051   6.098
 4794POPC   C2B62456   7.774  32.022   6.522
 4794POPC   C3B62457   8.031  31.952   6.840
 4794POPC   C4B62458   8.011  32.189   7.193
 4795POPC   NC362459  10.118   8.988   5.529
 4795POPC   PO462460  10.593   8.503   5.345
 4795POPC   GL162461  10.566   8.811   5.721
 4795POPC   GL262462  10.274   8.787   5.971
 4795POPC   C1A62463  10.776   8.976   6.118
 4795POPC   D2A62464  10.730   9.131   6.566
 4795POPC   C3A62465  10.713   8.858   6.932
 4795POPC   C4A62466  10.360   8.693   7.180
 4795POPC   C1B62467  10.328   9.212   6.184
 4795POPC   C2B62468  10.289   9.437   6.591
 4795POPC   C3B62469  10.354   9.217   6.989
 4795POPC   C4B62470  10.757   9.298   7.206
 4796POPC   NC362471  43.415  33.814   5.484
 4796POPC   PO462472  42.881  33.322   5.516
 4796POPC   GL162473  43.010  33.710   5.800
 4796POPC   GL262474  43.334  33.873   5.968
 4796POPC   C1A62475  42.958  33.706   6.247
 4796POPC   D2A62476  43.068  33.406   6.557
 4796POPC   C3A62477  42.866  33.435   6.971
 4796POPC   C4A62478  42.941  33.805   7.220
 4796POPC   C1B62479  43.199  34.155   6.294
 4796POPC   C2B62480  42.991  34.105   6.683
 4796POPC   C3B62481  43.190  34.223   7.031
 4796POPC   C4B62482  43.539  34.014   7.166
 4797POPC   NC362483  36.553  26.002   5.514
 4797POPC   PO462484  37.135  26.247   5.270
 4797POPC   GL162485  37.078  26.053   5.711
 4797POPC   GL262486  37.041  25.687   5.782
 4797POPC   C1A62487  36.957  26.149   6.156
 4797POPC   D2A62488  36.910  26.428   6.511
 4797POPC   C3A62489  36.802  26.288   6.942
 4797POPC   C4A62490  37.123  26.242   7.273
 4797POPC   C1B62491  36.963  25.656   6.246
 4797POPC   C2B62492  37.067  25.894   6.644
 4797POPC   C3B62493  36.936  25.825   7.084
 4797POPC   C4B62494  36.744  25.636   7.426
 4798POPC   NC362495  14.371  20.149   5.391
 4798POPC   PO462496  14.505  19.484   5.332
 4798POPC   GL162497  14.387  19.614   5.776
 4798POPC   GL262498  14.484  19.968   5.859
 4798POPC   C1A62499  14.461  19.656   6.262
 4798POPC   D2A62500  14.673  19.807   6.650
 4798POPC   C3A62501  14.594  19.571   7.016
 4798POPC   C4A62502  14.187  19.570   7.169
 4798POPC   C1B62503  14.200  20.108   6.200
 4798POPC   C2B62504  13.886  20.194   6.532
 4798POPC   C3B62505  14.004  20.256   6.973
 4798POPC   C4B62506  14.374  20.033   7.115
 4799POPC   NC362507  41.530  43.974   5.405
 4799POPC   PO462508  41.045  43.423   5.409
 4799POPC   GL162509  41.183  43.625   5.855
 4799POPC   GL262510  41.529  43.778   5.880
 4799POPC   C1A62511  41.314  43.683   6.331
 4799POPC   D2A62512  41.672  43.633   6.651
 4799POPC   C3A62513  41.641  43.845   7.063
 4799POPC   C4A62514  41.375  43.933   7.413
 4799POPC   C1B62515  41.392  44.152   6.153
 4799POPC   C2B62516  41.223  44.192   6.600
 4799POPC   C3B62517  41.371  44.299   7.036
 4799POPC   C4B62518  41.742  44.277   7.348
 4800POPC   NC362519   9.098  38.895   5.310
 4800POPC   PO462520   8.792  38.319   5.553
 4800POPC   GL162521   9.189  38.389   5.805
 4800POPC   GL262522   9.160  38.747   5.809
 4800POPC   C1A62523   9.265  38.187   6.237
 4800POPC   D2A62524   8.990  37.937   6.542
 4800POPC   C3A62525   8.955  38.102   6.996
 4800POPC   C4A62526   9.175  38.465   7.235
 4800POPC   C1B62527   8.913  38.572   6.177
 4800POPC   C2B62528   8.964  38.445   6.598
 4800POPC   C3B62529   8.757  38.567   6.951
 4800POPC   C4B62530   8.839  38.869   7.241
 4801POPC   NC362531   3.786   5.898   5.369
 4801POPC   PO462532   3.150   5.736   5.436
 4801POPC   GL162533   3.417   5.879   5.793
 4801POPC   GL262534   3.667   5.650   5.823
 4801POPC   C1A62535   3.678   5.977   6.183
 4801POPC   D2A62536   3.491   6.067   6.573
 4801POPC   C3A62537   3.657   6.156   6.950
 4801POPC   C4A62538   3.394   6.047   7.264
 4801POPC   C1B62539   3.501   5.488   6.244
 4801POPC   C2B62540   3.463   5.561   6.721
 4801POPC   C3B62541   3.298   5.542   7.160
 4801POPC   C4B62542   3.458   5.476   7.592
 4802POPC   NC362543  28.452  23.042   5.329
 4802POPC   PO462544  28.958  23.337   5.661
 4802POPC   GL162545  28.626  23.042   5.816
 4802POPC   GL262546  28.579  22.679   5.749
 4802POPC   C1A62547  28.329  22.968   6.159
 4802POPC   D2A62548  28.325  23.201   6.535
 4802POPC   C3A62549  28.295  23.054   6.947
 4802POPC   C4A62550  28.350  23.376   7.258
 4802POPC   C1B62551  28.731  22.662   6.192
 4802POPC   C2B62552  28.509  22.670   6.589
 4802POPC   C3B62553  28.608  22.658   7.010
 4802POPC   C4B62554  28.579  22.912   7.367
 4803POPC   NC362555  16.934   9.728   5.419
 4803POPC   PO462556  16.293   9.976   5.605
 4803POPC   GL162557  16.555   9.701   5.830
 4803POPC   GL262558  16.834   9.902   5.898
 4803POPC   C1A62559  16.737   9.515   6.226
 4803POPC   D2A62560  16.977   9.338   6.563
 4803POPC   C3A62561  16.833   9.596   6.921
 4803POPC   C4A62562  16.976   9.846   7.283
 4803POPC   C1B62563  16.550   9.982   6.279
 4803POPC   C2B62564  16.559  10.031   6.728
 4803POPC   C3B62565  16.480   9.941   7.154
 4803POPC   C4B62566  16.420   9.919   7.625
 4804POPC   NC362567   5.272   3.797   5.466
 4804POPC   PO462568   4.774   3.333   5.543
 4804POPC   GL162569   4.926   3.440   5.930
 4804POPC   GL262570   4.910   3.794   5.872
 4804POPC   C1A62571   5.267   3.629   6.203
 4804POPC   D2A62572   5.483   3.674   6.607
 4804POPC   C3A62573   5.241   3.501   6.940
 4804POPC   C4A62574   5.096   3.635   7.312
 4804POPC   C1B62575   4.686   3.785   6.228
 4804POPC   C2B62576   4.885   3.644   6.567
 4804POPC   C3B62577   4.810   3.807   6.929
 4804POPC   C4B62578   4.586   3.684   7.255
 4805POPC   NC362579  19.533   9.392   5.537
 4805POPC   PO462580  19.748   8.774   5.386
 4805POPC   GL162581  19.658   8.880   5.813
 4805POPC   GL262582  19.398   8.662   5.824
 4805POPC   C1A62583  19.756   9.010   6.282
 4805POPC   D2A62584  19.994   8.922   6.708
 4805POPC   C3A62585  20.036   9.076   7.164
 4805POPC   C4A62586  20.451   9.133   7.407
 4805POPC   C1B62587  19.326   8.734   6.251
 4805POPC   C2B62588  19.402   8.947   6.652
 4805POPC   C3B62589  19.317   8.831   7.079
 4805POPC   C4B62590  19.624   8.867   7.386
 4806POPC   NC362591  31.159  33.170   5.518
 4806POPC   PO462592  30.503  33.058   5.452
 4806POPC   GL162593  30.724  33.211   5.795
 4806POPC   GL262594  30.394  33.342   5.869
 4806POPC   C1A62595  30.961  33.023   6.189
 4806POPC   D2A62596  30.828  32.764   6.558
 4806POPC   C3A62597  30.986  32.770   6.995
 4806POPC   C4A62598  30.760  32.877   7.376
 4806POPC   C1B62599  30.458  33.114   6.258
 4806POPC   C2B62600  30.306  32.865   6.594
 4806POPC   C3B62601  30.267  33.002   7.003
 4806POPC   C4B62602  30.168  33.437   7.103
 4807POPC   NC362603   8.380  28.790   5.416
 4807POPC   PO462604   8.329  29.478   5.259
 4807POPC   GL162605   8.054  29.376   5.646
 4807POPC   GL262606   8.010  29.012   5.748
 4807POPC   C1A62607   7.988  29.394   6.119
 4807POPC   D2A62608   7.945  29.583   6.557
 4807POPC   C3A62609   8.034  29.312   6.914
 4807POPC   C4A62610   8.266  29.221   7.259
 4807POPC   C1B62611   8.064  28.852   6.196
 4807POPC   C2B62612   8.237  28.968   6.597
 4807POPC   C3B62613   8.290  28.765   6.993
 4807POPC   C4B62614   8.005  28.759   7.331
 4808POPC   NC362615  12.583  26.245   5.379
 4808POPC   PO462616  12.025  25.861   5.245
 4808POPC   GL162617  12.104  26.146   5.626
 4808POPC   GL262618  12.346  25.938   5.798
 4808POPC   C1A62619  12.182  26.311   6.089
 4808POPC   D2A62620  12.001  26.215   6.524
 4808POPC   C3A62621  12.214  26.104   6.943
 4808POPC   C4A62622  12.100  26.170   7.403
 4808POPC   C1B62623  11.905  25.880   6.049
 4808POPC   C2B62624  11.722  25.761   6.468
 4808POPC   C3B62625  11.817  25.778   6.931
 4808POPC   C4B62626  12.067  25.665   7.295
 4809POPC   NC362627  28.927  18.192   5.187
 4809POPC   PO462628  29.472  18.372   5.564
 4809POPC   GL162629  29.323  18.321   5.898
 4809POPC   GL262630  29.077  18.048   5.799
 4809POPC   C1A62631  29.133  18.441   6.271
 4809POPC   D2A62632  28.981  18.204   6.612
 4809POPC   C3A62633  29.125  18.345   6.983
 4809POPC   C4A62634  28.836  18.263   7.274
 4809POPC   C1B62635  29.251  17.951   6.212
 4809POPC   C2B62636  29.233  17.759   6.579
 4809POPC   C3B62637  29.401  17.807   6.962
 4809POPC   C4B62638  29.302  17.997   7.329
 4810POPC   NC362639  35.869  22.454   5.098
 4810POPC   PO462640  36.195  21.898   5.314
 4810POPC   GL162641  36.128  21.929   5.760
 4810POPC   GL262642  35.871  22.115   5.941
 4810POPC   C1A62643  36.247  21.818   6.177
 4810POPC   D2A62644  36.457  21.866   6.572
 4810POPC   C3A62645  36.218  22.012   6.937
 4810POPC   C4A62646  36.451  22.261   7.192
 4810POPC   C1B62647  35.872  22.431   6.275
 4810POPC   C2B62648  35.756  22.358   6.699
 4810POPC   C3B62649  35.952  22.479   7.105
 4810POPC   C4B62650  35.898  22.602   7.572
 4811POPC   NC362651  26.452  42.740   5.334
 4811POPC   PO462652  26.115  43.365   5.462
 4811POPC   GL162653  26.092  43.048   5.773
 4811POPC   GL262654  26.411  42.923   5.808
 4811POPC   C1A62655  25.883  43.051   6.193
 4811POPC   D2A62656  25.630  42.978   6.596
 4811POPC   C3A62657  25.737  43.195   7.002
 4811POPC   C4A62658  25.759  43.198   7.476
 4811POPC   C1B62659  26.432  43.076   6.230
 4811POPC   C2B62660  26.204  43.180   6.608
 4811POPC   C3B62661  26.147  42.921   6.964
 4811POPC   C4B62662  26.366  42.842   7.307
 4812POPC   NC362663   1.324  16.426   5.518
 4812POPC   PO462664   1.044  17.058   5.584
 4812POPC   GL162665   1.115  16.765   5.865
 4812POPC   GL262666   0.861  16.516   5.753
 4812POPC   C1A62667   1.381  16.587   6.187
 4812POPC   D2A62668   1.420  16.380   6.580
 4812POPC   C3A62669   1.449  16.549   6.977
 4812POPC   C4A62670   1.364  16.773   7.347
 4812POPC   C1B62671   0.850  16.533   6.214
 4812POPC   C2B62672   0.911  16.262   6.522
 4812POPC   C3B62673   1.067  16.198   6.897
 4812POPC   C4B62674   1.057  16.380   7.266
 4813POPC   NC362675  19.105  15.446   5.097
 4813POPC   PO462676  19.318  16.093   5.313
 4813POPC   GL162677  19.077  16.039   5.752
 4813POPC   GL262678  18.943  15.679   5.910
 4813POPC   C1A62679  19.144  16.026   6.194
 4813POPC   D2A62680  18.864  15.887   6.477
 4813POPC   C3A62681  18.964  16.040   6.828
 4813POPC   C4A62682  19.277  15.978   7.097
 4813POPC   C1B62683  19.240  15.526   6.230
 4813POPC   C2B62684  19.276  15.649   6.663
 4813POPC   C3B62685  19.014  15.553   7.026
 4813POPC   C4B62686  19.242  15.257   7.264
 4814POPC   NC362687  23.105  29.506   5.371
 4814POPC   PO462688  23.049  30.145   5.279
 4814POPC   GL162689  23.223  30.177   5.678
 4814POPC   GL262690  23.188  29.809   5.822
 4814POPC   C1A62691  23.080  30.248   6.113
 4814POPC   D2A62692  22.846  30.193   6.533
 4814POPC   C3A62693  23.011  30.114   6.967
 4814POPC   C4A62694  22.974  29.942   7.420
 4814POPC   C1B62695  22.874  29.808   6.200
 4814POPC   C2B62696  22.927  29.663   6.649
 4814POPC   C3B62697  23.211  29.658   7.032
 4814POPC   C4B62698  23.296  29.514   7.462
 4815POPC   NC362699   0.764  25.414   5.299
 4815POPC   PO462700   0.164  25.385   5.073
 4815POPC   GL162701   0.342  25.365   5.564
 4815POPC   GL262702   0.669  25.215   5.761
 4815POPC   C1A62703   0.221  25.312   6.025
 4815POPC   D2A62704   0.309  25.363   6.456
 4815POPC   C3A62705   0.223  25.125   6.819
 4815POPC   C4A62706   0.247  25.395   7.173
 4815POPC   C1B62707   0.874  25.510   6.087
 4815POPC   C2B62708   0.753  25.603   6.521
 4815POPC   C3B62709   0.671  25.367   6.891
 4815POPC   C4B62710   0.751  25.562   7.278
 4816POPC   NC362711  23.136   3.709   5.442
 4816POPC   PO462712  22.543   3.412   5.652
 4816POPC   GL162713  22.672   3.713   5.955
 4816POPC   GL262714  23.025   3.600   5.938
 4816POPC   C1A62715  22.838   3.728   6.396
 4816POPC   D2A62716  23.231   3.795   6.637
 4816POPC   C3A62717  23.115   3.607   7.028
 4816POPC   C4A62718  22.656   3.541   7.037
 4816POPC   C1B62719  23.169   3.361   6.325
 4816POPC   C2B62720  22.907   3.226   6.712
 4816POPC   C3B62721  22.586   3.042   7.021
 4816POPC   C4B62722  22.516   3.197   7.471
 4817POPC   NC362723  34.800  19.239   5.465
 4817POPC   PO462724  34.296  18.826   5.511
 4817POPC   GL162725  34.418  19.023   5.897
 4817POPC   GL262726  34.437  19.391   5.836
 4817POPC   C1A62727  34.347  18.858   6.322
 4817POPC   D2A62728  34.389  18.673   6.744
 4817POPC   C3A62729  34.811  18.675   6.901
 4817POPC   C4A62730  35.001  18.575   7.294
 4817POPC   C1B62731  34.724  19.405   6.185
 4817POPC   C2B62732  34.627  19.466   6.643
 4817POPC   C3B62733  34.549  19.121   6.953
 4817POPC   C4B62734  34.526  18.829   7.308
 4818POPC   NC362735  20.112  40.491   5.111
 4818POPC   PO462736  19.701  40.949   5.355
 4818POPC   GL162737  19.909  40.688   5.704
 4818POPC   GL262738  19.653  40.747   5.917
 4818POPC   C1A62739  20.072  40.724   6.189
 4818POPC   D2A62740  19.827  40.846   6.591
 4818POPC   C3A62741  20.044  40.790   7.001
 4818POPC   C4A62742  20.192  40.837   7.441
 4818POPC   C1B62743  19.522  40.536   6.288
 4818POPC   C2B62744  19.433  40.529   6.716
 4818POPC   C3B62745  19.489  40.679   7.147
 4818POPC   C4B62746  19.292  40.818   7.566
 4819POPC   NC362747  12.345  27.774   5.323
 4819POPC   PO462748  12.988  27.748   5.444
 4819POPC   GL162749  12.974  27.595   5.869
 4819POPC   GL262750  13.150  27.259   5.867
 4819POPC   C1A62751  12.794  27.578   6.297
 4819POPC   D2A62752  12.756  27.195   6.552
 4819POPC   C3A62753  12.546  27.211   6.955
 4819POPC   C4A62754  12.423  27.567   7.205
 4819POPC   C1B62755  13.287  27.436   6.275
 4819POPC   C2B62756  13.154  27.525   6.705
 4819POPC   C3B62757  12.965  27.502   7.126
 4819POPC   C4B62758  12.829  27.832   7.420
 4820POPC   NC362759   1.517  38.316   5.465
 4820POPC   PO462760   0.855  38.352   5.397
 4820POPC   GL162761   1.071  38.391   5.787
 4820POPC   GL262762   1.405  38.489   5.921
 4820POPC   C1A62763   0.932  38.472   6.195
 4820POPC   D2A62764   1.015  38.377   6.619
 4820POPC   C3A62765   1.091  38.655   6.953
 4820POPC   C4A62766   1.462  38.860   7.164
 4820POPC   C1B62767   1.648  38.419   6.283
 4820POPC   C2B62768   1.507  38.372   6.700
 4820POPC   C3B62769   1.325  38.209   7.057
 4820POPC   C4B62770   1.594  38.384   7.344
 4821POPC   NC362771  21.328  21.793   5.074
 4821POPC   PO462772  21.521  21.168   5.198
 4821POPC   GL162773  21.430  21.195   5.657
 4821POPC   GL262774  21.374  21.523   5.824
 4821POPC   C1A62775  21.267  21.074   6.085
 4821POPC   D2A62776  20.996  21.156   6.455
 4821POPC   C3A62777  21.049  21.301   6.878
 4821POPC   C4A62778  21.133  21.110   7.287
 4821POPC   C1B62779  21.334  21.553   6.278
 4821POPC   C2B62780  21.554  21.224   6.516
 4821POPC   C3B62781  21.517  21.117   6.920
 4821POPC   C4B62782  21.443  21.501   7.168
 4822POPC   NC362783  11.163  39.855   5.350
 4822POPC   PO462784  11.593  40.392   5.532
 4822POPC   GL162785  11.393  39.995   5.807
 4822POPC   GL262786  11.003  39.914   5.825
 4822POPC   C1A62787  11.485  39.754   6.213
 4822POPC   D2A62788  11.367  39.904   6.649
 4822POPC   C3A62789  11.561  39.975   7.057
 4822POPC   C4A62790  11.418  39.893   7.472
 4822POPC   C1B62791  11.002  39.921   6.269
 4822POPC   C2B62792  10.879  40.045   6.679
 4822POPC   C3B62793  11.024  40.022   7.109
 4822POPC   C4B62794  10.948  40.001   7.579
 4823POPC   NC362795  43.790  29.540   5.661
 4823POPC   PO462796  43.633  30.051   5.222
 4823POPC   GL162797  43.789  30.176   5.687
 4823POPC   GL262798  43.647  29.952   5.948
 4823POPC   C1A62799  43.824  30.381   6.138
 4823POPC   D2A62800  43.655  30.253   6.574
 4823POPC   C3A62801  43.878  30.245   6.978
 4823POPC   C4A62802  44.047  30.219   7.425
 4823POPC   C1B62803  43.914  29.866   6.342
 4823POPC   C2B62804  43.929  29.771   6.819
 4823POPC   C3B62805  43.811  29.783   7.273
 4823POPC   C4B62806  43.799  29.576   7.709
 4824POPC   NC362807   3.872   8.500   5.480
 4824POPC   PO462808   3.469   8.025   5.466
 4824POPC   GL162809   3.401   8.197   5.863
 4824POPC   GL262810   3.201   8.495   5.775
 4824POPC   C1A62811   3.694   8.164   6.238
 4824POPC   D2A62812   3.676   7.954   6.664
 4824POPC   C3A62813   3.808   8.185   7.038
 4824POPC   C4A62814   3.630   8.143   7.473
 4824POPC   C1B62815   3.387   8.617   6.160
 4824POPC   C2B62816   3.256   8.752   6.556
 4824POPC   C3B62817   3.091   8.551   6.869
 4824POPC   C4B62818   3.352   8.363   7.127
 4825POPC   NC362819  38.521  26.362   5.311
 4825POPC   PO462820  38.597  25.669   5.222
 4825POPC   GL162821  38.650  25.945   5.635
 4825POPC   GL262822  38.520  26.287   5.810
 4825POPC   C1A62823  38.648  25.913   6.116
 4825POPC   D2A62824  38.531  26.102   6.510
 4825POPC   C3A62825  38.631  25.814   6.824
 4825POPC   C4A62826  38.397  25.639   7.163
 4825POPC   C1B62827  38.176  26.116   6.106
 4825POPC   C2B62828  37.989  26.101   6.555
 4825POPC   C3B62829  38.209  26.090   6.963
 4825POPC   C4B62830  38.374  26.434   7.191
 4826POPC   NC362831   0.185  27.746   5.118
 4826POPC   PO462832   0.740  27.505   5.421
 4826POPC   GL162833   0.634  27.738   5.768
 4826POPC   GL262834   0.836  28.070   5.734
 4826POPC   C1A62835   0.366  27.524   6.107
 4826POPC   D2A62836   0.271  27.482   6.546
 4826POPC   C3A62837   0.585  27.363   6.850
 4826POPC   C4A62838   0.437  27.475   7.274
 4826POPC   C1B62839   0.897  27.977   6.151
 4826POPC   C2B62840   0.731  27.737   6.497
 4826POPC   C3B62841   0.630  27.862   6.948
 4826POPC   C4B62842   0.446  27.997   7.354
 4827POPC   NC362843   2.965  14.729   5.446
 4827POPC   PO462844   2.751  14.164   5.372
 4827POPC   GL162845   3.010  14.193   5.782
 4827POPC   GL262846   3.042  14.557   5.906
 4827POPC   C1A62847   2.858  14.080   6.220
 4827POPC   D2A62848   2.492  14.265   6.497
 4827POPC   C3A62849   2.628  14.308   6.931
 4827POPC   C4A62850   3.010  14.426   7.146
 4827POPC   C1B62851   2.862  14.605   6.322
 4827POPC   C2B62852   2.832  14.881   6.676
 4827POPC   C3B62853   2.698  14.810   7.067
 4827POPC   C4B62854   2.592  14.557   7.404
 4828POPC   NC362855   5.610   9.896   5.167
 4828POPC   PO462856   5.071   9.692   5.382
 4828POPC   GL162857   5.193   9.796   5.740
 4828POPC   GL262858   5.469  10.038   5.648
 4828POPC   C1A62859   5.196   9.552   6.146
 4828POPC   D2A62860   5.294   9.413   6.579
 4828POPC   C3A62861   5.194   9.635   6.952
 4828POPC   C4A62862   5.290   9.626   7.379
 4828POPC   C1B62863   5.389  10.042   6.116
 4828POPC   C2B62864   5.220   9.943   6.504
 4828POPC   C3B62865   5.249  10.138   6.888
 4828POPC   C4B62866   5.173  10.120   7.303
 4829POPC   NC362867  42.045  34.484   5.348
 4829POPC   PO462868  42.565  34.847   5.355
 4829POPC   GL162869  42.257  34.788   5.746
 4829POPC   GL262870  42.182  34.453   5.842
 4829POPC   C1A62871  42.150  34.749   6.239
 4829POPC   D2A62872  41.978  34.869   6.664
 4829POPC   C3A62873  42.144  34.567   6.981
 4829POPC   C4A62874  41.974  34.199   7.153
 4829POPC   C1B62875  42.394  34.234   6.191
 4829POPC   C2B62876  42.476  34.111   6.622
 4829POPC   C3B62877  42.609  34.211   7.059
 4829POPC   C4B62878  42.370  34.331   7.436
 4830POPC   NC362879  25.439   3.118   5.320
 4830POPC   PO462880  25.628   2.502   5.330
 4830POPC   GL162881  25.467   2.754   5.686
 4830POPC   GL262882  25.113   2.890   5.638
 4830POPC   C1A62883  25.426   2.815   6.139
 4830POPC   D2A62884  25.157   2.709   6.490
 4830POPC   C3A62885  25.367   2.650   6.879
 4830POPC   C4A62886  25.253   2.711   7.271
 4830POPC   C1B62887  25.028   3.100   6.033
 4830POPC   C2B62888  24.986   3.202   6.486
 4830POPC   C3B62889  25.010   3.027   6.906
 4830POPC   C4B62890  25.070   3.201   7.320
 4831POPC   NC362891   3.387  24.993   5.131
 4831POPC   PO462892   3.685  24.444   5.615
 4831POPC   GL162893   3.402  24.510   5.870
 4831POPC   GL262894   3.306  24.837   5.709
 4831POPC   C1A62895   3.464  24.363   6.300
 4831POPC   D2A62896   3.242  24.381   6.655
 4831POPC   C3A62897   3.442  24.471   7.040
 4831POPC   C4A62898   3.777  24.246   7.243
 4831POPC   C1B62899   3.426  24.895   6.169
 4831POPC   C2B62900   3.517  24.822   6.576
 4831POPC   C3B62901   3.453  25.012   6.946
 4831POPC   C4B62902   3.408  24.889   7.374
 4832POPC   NC362903  29.101  35.734   5.679
 4832POPC   PO462904  28.853  35.113   5.608
 4832POPC   GL162905  28.975  35.311   5.940
 4832POPC   GL262906  29.295  35.302   5.863
 4832POPC   C1A62907  28.905  35.522   6.331
 4832POPC   D2A62908  28.734  35.581   6.736
 4832POPC   C3A62909  28.995  35.507   7.110
 4832POPC   C4A62910  28.871  35.334   7.498
 4832POPC   C1B62911  29.394  35.359   6.278
 4832POPC   C2B62912  29.233  35.240   6.710
 4832POPC   C3B62913  29.442  35.226   7.135
 4832POPC   C4B62914  29.361  35.439   7.539
 4833POPC   NC362915  20.440  32.424   5.483
 4833POPC   PO462916  20.332  31.700   5.456
 4833POPC   GL162917  20.357  32.024   5.808
 4833POPC   GL262918  20.314  32.415   5.966
 4833POPC   C1A62919  20.652  32.061   6.131
 4833POPC   D2A62920  20.741  32.250   6.469
 4833POPC   C3A62921  20.788  32.031   6.852
 4833POPC   C4A62922  21.034  32.205   7.170
 4833POPC   C1B62923  20.322  32.555   6.416
 4833POPC   C2B62924  20.387  32.345   6.830
 4833POPC   C3B62925  20.414  32.341   7.282
 4833POPC   C4B62926  20.343  32.416   7.786
 4834POPC   NC362927  35.782  10.881   5.484
 4834POPC   PO462928  36.052  11.454   5.248
 4834POPC   GL162929  35.946  11.376   5.664
 4834POPC   GL262930  36.263  11.444   5.795
 4834POPC   C1A62931  35.926  11.261   6.124
 4834POPC   D2A62932  36.182  11.313   6.502
 4834POPC   C3A62933  35.949  11.321   6.888
 4834POPC   C4A62934  35.933  11.221   7.305
 4834POPC   C1B62935  36.469  11.625   6.158
 4834POPC   C2B62936  36.365  11.789   6.562
 4834POPC   C3B62937  36.377  11.602   6.970
 4834POPC   C4B62938  36.365  11.643   7.415
 4835POPC   NC362939  15.165  39.763   5.387
 4835POPC   PO462940  15.049  40.409   5.450
 4835POPC   GL162941  15.245  40.087   5.788
 4835POPC   GL262942  15.363  39.726   5.848
 4835POPC   C1A62943  15.408  40.039   6.240
 4835POPC   D2A62944  15.560  39.875   6.637
 4835POPC   C3A62945  15.523  40.088   7.022
 4835POPC   C4A62946  15.182  40.161   7.304
 4835POPC   C1B62947  15.005  39.720   6.155
 4835POPC   C2B62948  15.033  39.792   6.615
 4835POPC   C3B62949  15.197  39.702   7.051
 4835POPC   C4B62950  15.320  39.543   7.466
 4836POPC   NC362951   7.877  20.213   5.466
 4836POPC   PO462952   8.268  20.601   5.039
 4836POPC   GL162953   8.276  20.671   5.591
 4836POPC   GL262954   8.541  20.715   5.812
 4836POPC   C1A62955   8.110  20.690   6.099
 4836POPC   D2A62956   7.821  20.494   6.447
 4836POPC   C3A62957   7.948  20.545   6.895
 4836POPC   C4A62958   7.932  20.739   7.318
 4836POPC   C1B62959   8.589  20.593   6.245
 4836POPC   C2B62960   8.430  20.574   6.683
 4836POPC   C3B62961   8.430  20.618   7.123
 4836POPC   C4B62962   8.373  20.462   7.538
 4837POPC   NC362963  11.084  41.807   5.456
 4837POPC   PO462964  11.096  41.163   5.420
 4837POPC   GL162965  11.261  41.251   5.839
 4837POPC   GL262966  11.333  41.621   5.882
 4837POPC   C1A62967  11.159  41.367   6.286
 4837POPC   D2A62968  10.969  41.516   6.684
 4837POPC   C3A62969  11.241  41.491   7.075
 4837POPC   C4A62970  11.630  41.514   7.339
 4837POPC   C1B62971  11.505  41.931   6.203
 4837POPC   C2B62972  11.392  42.007   6.634
 4837POPC   C3B62973  11.534  41.966   7.070
 4837POPC   C4B62974  11.285  41.877   7.447
 4838POPC   NC362975  25.306  34.977   5.395
 4838POPC   PO462976  25.138  34.336   5.309
 4838POPC   GL162977  25.058  34.602   5.664
 4838POPC   GL262978  25.417  34.612   5.772
 4838POPC   C1A62979  25.046  34.741   6.100
 4838POPC   D2A62980  25.285  34.659   6.471
 4838POPC   C3A62981  25.170  34.436   6.808
 4838POPC   C4A62982  25.104  34.637   7.154
 4838POPC   C1B62983  25.711  34.591   6.128
 4838POPC   C2B62984  25.828  34.740   6.537
 4838POPC   C3B62985  25.611  34.682   6.929
 4838POPC   C4B62986  25.571  34.554   7.364
 4839POPC   NC362987  11.076  18.811   5.638
 4839POPC   PO462988  11.430  19.392   5.560
 4839POPC   GL162989  11.291  19.310   5.937
 4839POPC   GL262990  10.945  19.223   5.932
 4839POPC   C1A62991  11.281  19.213   6.349
 4839POPC   D2A62992  11.336  18.970   6.713
 4839POPC   C3A62993  11.334  19.263   7.030
 4839POPC   C4A62994  11.209  19.385   7.414
 4839POPC   C1B62995  10.888  18.891   6.269
 4839POPC   C2B62996  10.874  18.744   6.703
 4839POPC   C3B62997  11.036  18.826   7.134
 4839POPC   C4B62998  11.494  18.811   7.205
 4840POPC   NC362999   8.825   7.535   5.381
 4840POPC   PO463000   9.268   7.101   5.446
 4840POPC   GL163001   9.054   7.310   5.792
 4840POPC   GL263002   8.747   7.201   5.750
 4840POPC   C1A63003   9.152   7.613   6.122
 4840POPC   D2A63004   9.169   7.800   6.528
 4840POPC   C3A63005   9.085   7.507   6.845
 4840POPC   C4A63006   8.900   7.617   7.204
 4840POPC   C1B63007   8.607   7.007   6.108
 4840POPC   C2B63008   8.670   6.958   6.537
 4840POPC   C3B63009   8.651   7.197   6.953
 4840POPC   C4B63010   8.572   7.325   7.424
 4841POPC   NC363011  18.129  13.456   5.391
 4841POPC   PO463012  18.180  12.757   5.524
 4841POPC   GL163013  18.413  13.077   5.821
 4841POPC   GL263014  18.412  13.469   5.867
 4841POPC   C1A63015  18.434  13.167   6.289
 4841POPC   D2A63016  18.258  13.358   6.684
 4841POPC   C3A63017  18.470  13.448   7.113
 4841POPC   C4A63018  18.445  13.664   7.513
 4841POPC   C1B63019  18.508  13.678   6.303
 4841POPC   C2B63020  18.437  13.827   6.723
 4841POPC   C3B63021  18.125  13.812   7.068
 4841POPC   C4B63022  17.708  13.962   7.148
 4842POPC   NC363023  13.077  40.289   5.197
 4842POPC   PO463024  12.977  39.641   5.303
 4842POPC   GL163025  12.861  39.541   5.765
 4842POPC   GL263026  13.115  39.650   6.015
 4842POPC   C1A63027  12.621  39.702   6.170
 4842POPC   D2A63028  12.395  39.858   6.563
 4842POPC   C3A63029  12.581  39.849   6.995
 4842POPC   C4A63030  12.813  40.163   7.260
 4842POPC   C1B63031  13.180  39.836   6.434
 4842POPC   C2B63032  13.086  39.851   6.898
 4842POPC   C3B63033  13.240  39.621   7.253
 4842POPC   C4B63034  13.283  39.667   7.726
 4843POPC   NC363035  30.480   2.433   5.536
 4843POPC   PO463036  30.950   2.929   5.417
 4843POPC   GL163037  30.757   2.842   5.779
 4843POPC   GL263038  30.914   2.536   5.799
 4843POPC   C1A63039  30.623   2.931   6.206
 4843POPC   D2A63040  30.846   3.028   6.570
 4843POPC   C3A63041  30.707   2.855   6.940
 4843POPC   C4A63042  30.699   2.972   7.325
 4843POPC   C1B63043  30.687   2.442   6.150
 4843POPC   C2B63044  30.810   2.538   6.535
 4843POPC   C3B63045  30.963   2.389   6.888
 4843POPC   C4B63046  30.704   2.377   7.238
 4844POPC   NC363047  37.012   8.421   5.364
 4844POPC   PO463048  36.786   7.802   5.374
 4844POPC   GL163049  36.939   8.034   5.703
 4844POPC   GL263050  36.596   8.157   5.710
 4844POPC   C1A63051  36.887   8.189   6.127
 4844POPC   D2A63052  36.979   8.429   6.471
 4844POPC   C3A63053  36.847   8.258   6.867
 4844POPC   C4A63054  37.127   8.176   7.238
 4844POPC   C1B63055  36.409   8.007   6.090
 4844POPC   C2B63056  36.600   7.913   6.483
 4844POPC   C3B63057  36.490   7.821   6.906
 4844POPC   C4B63058  36.653   7.998   7.273
 4845POPC   NC363059  36.391   6.827   5.369
 4845POPC   PO463060  35.903   6.403   5.464
 4845POPC   GL163061  36.144   6.627   5.816
 4845POPC   GL263062  36.531   6.578   5.851
 4845POPC   C1A63063  36.205   6.528   6.275
 4845POPC   D2A63064  36.395   6.395   6.700
 4845POPC   C3A63065  36.057   6.534   6.955
 4845POPC   C4A63066  35.887   6.938   6.913
 4845POPC   C1B63067  36.639   6.763   6.288
 4845POPC   C2B63068  36.381   6.936   6.685
 4845POPC   C3B63069  36.320   6.970   7.184
 4845POPC   C4B63070  36.432   6.786   7.622
 4846POPC   NC363071   1.209  21.968   5.400
 4846POPC   PO463072   1.002  22.561   5.464
 4846POPC   GL163073   1.148  22.312   5.793
 4846POPC   GL263074   1.426  22.488   5.805
 4846POPC   C1A63075   0.979  22.165   6.203
 4846POPC   D2A63076   1.102  22.076   6.638
 4846POPC   C3A63077   0.829  21.980   6.998
 4846POPC   C4A63078   0.858  22.141   7.432
 4846POPC   C1B63079   1.323  22.633   6.180
 4846POPC   C2B63080   1.527  22.781   6.547
 4846POPC   C3B63081   1.367  22.583   6.890
 4846POPC   C4B63082   1.275  22.199   7.120
 4847POPC   NC363083   8.103  33.434   5.070
 4847POPC   PO463084   8.525  32.954   5.360
 4847POPC   GL163085   8.384  32.904   5.782
 4847POPC   GL263086   8.011  33.023   5.800
 4847POPC   C1A63087   8.354  33.149   6.171
 4847POPC   D2A63088   8.196  33.077   6.570
 4847POPC   C3A63089   8.361  32.937   6.933
 4847POPC   C4A63090   8.087  32.701   7.151
 4847POPC   C1B63091   7.840  33.274   6.184
 4847POPC   C2B63092   7.767  33.334   6.650
 4847POPC   C3B63093   8.061  33.354   7.021
 4847POPC   C4B63094   8.383  33.402   7.379
 4848POPC   NC363095  17.701  40.148   5.424
 4848POPC   PO463096  17.349  39.529   5.405
 4848POPC   GL163097  17.587  39.755   5.741
 4848POPC   GL263098  17.323  39.986   5.820
 4848POPC   C1A63099  17.738  39.909   6.186
 4848POPC   D2A63100  17.759  40.110   6.632
 4848POPC   C3A63101  17.813  39.809   7.006
 4848POPC   C4A63102  17.848  39.815   7.517
 4848POPC   C1B63103  17.260  39.683   6.137
 4848POPC   C2B63104  17.367  39.813   6.539
 4848POPC   C3B63105  17.343  40.007   6.926
 4848POPC   C4B63106  17.390  39.777   7.281
 4849POPC   NC363107  28.810  29.449   5.252
 4849POPC   PO463108  29.255  28.978   5.522
 4849POPC   GL163109  29.264  29.075   5.930
 4849POPC   GL263110  29.018  29.362   5.842
 4849POPC   C1A63111  29.135  28.839   6.322
 4849POPC   D2A63112  28.866  28.902   6.684
 4849POPC   C3A63113  29.140  28.863   7.045
 4849POPC   C4A63114  29.409  29.195   7.123
 4849POPC   C1B63115  29.022  29.339   6.301
 4849POPC   C2B63116  29.177  29.459   6.684
 4849POPC   C3B63117  28.938  29.373   7.007
 4849POPC   C4B63118  28.663  29.033   7.134
 4850POPC   NC363119  22.460  28.885   5.072
 4850POPC   PO463120  21.917  29.024   5.423
 4850POPC   GL163121  22.105  28.833   5.803
 4850POPC   GL263122  22.443  28.712   5.724
 4850POPC   C1A63123  22.044  28.947   6.254
 4850POPC   D2A63124  21.869  29.075   6.659
 4850POPC   C3A63125  22.119  29.314   6.965
 4850POPC   C4A63126  22.345  29.359   7.381
 4850POPC   C1B63127  22.438  28.626   6.176
 4850POPC   C2B63128  22.448  28.804   6.594
 4850POPC   C3B63129  22.298  28.781   7.011
 4850POPC   C4B63130  22.592  28.917   7.301
 4851POPC   NC363131   7.026  16.321   5.656
 4851POPC   PO463132   6.739  15.940   5.203
 4851POPC   GL163133   6.761  15.833   5.653
 4851POPC   GL263134   6.463  15.923   5.790
 4851POPC   C1A63135   6.822  15.907   6.138
 4851POPC   D2A63136   6.577  16.035   6.501
 4851POPC   C3A63137   6.707  16.001   6.934
 4851POPC   C4A63138   6.533  16.262   7.279
 4851POPC   C1B63139   6.333  15.662   6.160
 4851POPC   C2B63140   6.405  15.549   6.601
 4851POPC   C3B63141   6.280  15.763   6.992
 4851POPC   C4B63142   6.361  15.797   7.428
 4852POPC   NC363143  17.158   2.104   5.556
 4852POPC   PO463144  17.756   1.725   5.493
 4852POPC   GL163145  17.478   1.804   5.858
 4852POPC   GL263146  17.113   1.729   5.895
 4852POPC   C1A63147  17.450   1.946   6.273
 4852POPC   D2A63148  17.291   1.967   6.689
 4852POPC   C3A63149  17.611   2.072   7.009
 4852POPC   C4A63150  17.633   1.916   7.434
 4852POPC   C1B63151  16.965   2.101   6.194
 4852POPC   C2B63152  17.019   2.404   6.555
 4852POPC   C3B63153  17.159   2.391   6.977
 4852POPC   C4B63154  17.294   2.268   7.365
 4853POPC   NC363155   2.315   9.781   5.253
 4853POPC   PO463156   1.681   9.466   5.202
 4853POPC   GL163157   1.981   9.536   5.602
 4853POPC   GL263158   2.161   9.865   5.728
 4853POPC   C1A63159   1.876   9.618   6.069
 4853POPC   D2A63160   1.821   9.801   6.493
 4853POPC   C3A63161   2.023   9.704   6.885
 4853POPC   C4A63162   1.802   9.678   7.272
 4853POPC   C1B63163   2.127  10.047   6.156
 4853POPC   C2B63164   2.173  10.159   6.589
 4853POPC   C3B63165   2.352  10.119   7.018
 4853POPC   C4B63166   2.276   9.844   7.369
 4854POPC   NC363167  22.644  12.009   5.734
 4854POPC   PO463168  23.079  12.302   5.249
 4854POPC   GL163169  23.138  12.334   5.702
 4854POPC   GL263170  23.157  12.008   5.830
 4854POPC   C1A63171  23.115  12.360   6.195
 4854POPC   D2A63172  23.291  12.424   6.579
 4854POPC   C3A63173  23.133  12.236   6.956
 4854POPC   C4A63174  22.905  12.097   7.301
 4854POPC   C1B63175  23.056  11.866   6.280
 4854POPC   C2B63176  22.897  11.841   6.729
 4854POPC   C3B63177  22.719  11.651   7.131
 4854POPC   C4B63178  22.582  11.724   7.580
 4855POPC   NC363179  17.525   3.624   5.092
 4855POPC   PO463180  17.901   3.330   5.596
 4855POPC   GL163181  17.671   3.592   5.820
 4855POPC   GL263182  17.350   3.649   5.688
 4855POPC   C1A63183  17.748   3.743   6.222
 4855POPC   D2A63184  17.601   3.816   6.623
 4855POPC   C3A63185  17.827   3.720   6.966
 4855POPC   C4A63186  17.683   3.866   7.340
 4855POPC   C1B63187  17.244   3.638   6.142
 4855POPC   C2B63188  17.243   3.459   6.580
 4855POPC   C3B63189  17.320   3.553   7.020
 4855POPC   C4B63190  17.164   3.783   7.374
 4856POPC   NC363191  13.153  24.728   5.289
 4856POPC   PO463192  12.814  24.200   5.485
 4856POPC   GL163193  12.958  24.546   5.765
 4856POPC   GL263194  13.214  24.440   5.955
 4856POPC   C1A63195  12.699  24.608   6.149
 4856POPC   D2A63196  12.408  24.300   6.357
 4856POPC   C3A63197  12.359  24.286   6.795
 4856POPC   C4A63198  12.557  24.543   7.088
 4856POPC   C1B63199  13.146  24.844   6.165
 4856POPC   C2B63200  13.052  24.994   6.592
 4856POPC   C3B63201  13.008  24.784   6.990
 4856POPC   C4B63202  13.011  24.380   7.247
 4857POPC   NC363203  18.616  12.831   5.403
 4857POPC   PO463204  19.221  12.557   5.272
 4857POPC   GL163205  19.030  12.716   5.696
 4857POPC   GL263206  18.690  12.597   5.845
 4857POPC   C1A63207  18.879  12.996   6.060
 4857POPC   D2A63208  18.753  12.789   6.454
 4857POPC   C3A63209  19.066  12.852   6.751
 4857POPC   C4A63210  19.064  13.059   7.118
 4857POPC   C1B63211  18.806  12.339   6.196
 4857POPC   C2B63212  18.670  12.291   6.620
 4857POPC   C3B63213  18.763  12.496   7.007
 4857POPC   C4B63214  18.751  12.747   7.380
 4858POPC   NC363215  38.758  13.618   5.408
 4858POPC   PO463216  38.029  13.901   5.348
 4858POPC   GL163217  38.278  13.592   5.660
 4858POPC   GL263218  38.552  13.698   5.861
 4858POPC   C1A63219  38.288  13.321   6.074
 4858POPC   D2A63220  38.082  13.381   6.500
 4858POPC   C3A63221  38.318  13.296   6.906
 4858POPC   C4A63222  38.577  13.574   7.190
 4858POPC   C1B63223  38.211  13.834   6.119
 4858POPC   C2B63224  38.085  13.915   6.534
 4858POPC   C3B63225  38.314  13.828   6.844
 4858POPC   C4B63226  38.277  14.027   7.220
 4859POPC   NC363227  11.468   4.647   4.765
 4859POPC   PO463228  11.380   4.686   5.524
 4859POPC   GL163229  11.246   4.498   5.932
 4859POPC   GL263230  11.137   4.146   5.915
 4859POPC   C1A63231  11.364   4.429   6.376
 4859POPC   D2A63232  11.574   4.614   6.753
 4859POPC   C3A63233  11.324   4.593   7.123
 4859POPC   C4A63234  10.990   4.739   7.438
 4859POPC   C1B63235  11.388   3.923   6.234
 4859POPC   C2B63236  11.667   3.926   6.596
 4859POPC   C3B63237  11.468   3.796   6.985
 4859POPC   C4B63238  11.199   4.053   7.258
 4860POPC   NC363239  36.603  21.775   5.081
 4860POPC   PO463240  36.515  22.249   5.583
 4860POPC   GL163241  36.837  22.296   5.882
 4860POPC   GL263242  36.705  22.023   6.025
 4860POPC   C1A63243  37.225  22.423   6.140
 4860POPC   D2A63244  37.375  22.441   6.579
 4860POPC   C3A63245  37.192  22.190   6.934
 4860POPC   C4A63246  37.235  22.301   7.360
 4860POPC   C1B63247  37.093  21.929   6.222
 4860POPC   C2B63248  36.972  21.814   6.599
 4860POPC   C3B63249  36.787  21.691   6.957
 4860POPC   C4B63250  36.879  21.933   7.283
 4861POPC   NC363251  43.105  36.601   5.363
 4861POPC   PO463252  42.801  37.186   5.490
 4861POPC   GL163253  43.136  36.971   5.751
 4861POPC   GL263254  42.880  36.723   5.808
 4861POPC   C1A63255  43.357  36.763   6.140
 4861POPC   D2A63256  43.527  36.709   6.592
 4861POPC   C3A63257  43.309  36.750   7.004
 4861POPC   C4A63258  43.158  37.009   7.370
 4861POPC   C1B63259  42.869  36.903   6.209
 4861POPC   C2B63260  42.989  36.685   6.570
 4861POPC   C3B63261  42.674  36.510   6.797
 4861POPC   C4B63262  42.813  36.705   7.132
 4862POPC   NC363263  39.980  15.903   5.196
 4862POPC   PO463264  40.216  15.383   5.287
 4862POPC   GL163265  40.106  15.729   5.699
 4862POPC   GL263266  39.781  15.926   5.880
 4862POPC   C1A63267  40.229  15.794   6.188
 4862POPC   D2A63268  40.405  15.902   6.636
 4862POPC   C3A63269  40.161  15.765   7.044
 4862POPC   C4A63270  40.293  15.715   7.513
 4862POPC   C1B63271  39.544  16.152   6.256
 4862POPC   C2B63272  39.532  16.255   6.763
 4862POPC   C3B63273  39.610  16.220   7.247
 4862POPC   C4B63274  39.689  16.361   7.700
 4863POPC   NC363275   2.626  26.826   5.004
 4863POPC   PO463276   2.744  26.642   5.623
 4863POPC   GL163277   2.779  26.606   6.027
 4863POPC   GL263278   2.725  26.935   6.061
 4863POPC   C1A63279   2.764  26.682   6.491
 4863POPC   D2A63280   2.744  26.373   6.801
 4863POPC   C3A63281   2.899  26.589   7.152
 4863POPC   C4A63282   2.668  26.624   7.551
 4863POPC   C1B63283   2.354  27.013   6.307
 4863POPC   C2B63284   2.362  27.116   6.717
 4863POPC   C3B63285   2.769  27.048   6.915
 4863POPC   C4B63286   2.870  27.058   7.358
 4864POPC   NC363287  40.576  35.680   5.477
 4864POPC   PO463288  41.001  35.107   5.391
 4864POPC   GL163289  40.752  35.089   5.758
 4864POPC   GL263290  40.445  35.238   5.738
 4864POPC   C1A63291  40.832  35.198   6.199
 4864POPC   D2A63292  41.055  35.364   6.562
 4864POPC   C3A63293  40.903  35.304   7.009
 4864POPC   C4A63294  40.951  35.282   7.476
 4864POPC   C1B63295  40.317  35.303   6.170
 4864POPC   C2B63296  40.227  35.534   6.555
 4864POPC   C3B63297  40.411  35.520   6.956
 4864POPC   C4B63298  40.661  35.669   7.288
 4865POPC   NC363299  16.915   8.893   5.603
 4865POPC   PO463300  16.536   9.356   5.323
 4865POPC   GL163301  16.591   9.199   5.844
 4865POPC   GL263302  16.954   9.109   6.038
 4865POPC   C1A63303  16.579   9.034   6.333
 4865POPC   D2A63304  16.502   9.208   6.729
 4865POPC   C3A63305  16.749   9.080   7.042
 4865POPC   C4A63306  16.983   9.311   7.321
 4865POPC   C1B63307  17.011   8.725   6.270
 4865POPC   C2B63308  16.842   8.673   6.678
 4865POPC   C3B63309  17.063   8.626   7.051
 4865POPC   C4B63310  16.927   8.795   7.434
 4866POPC   NC363311  29.698  37.072   5.438
 4866POPC   PO463312  29.833  36.465   5.576
 4866POPC   GL163313  29.742  36.774   5.875
 4866POPC   GL263314  30.082  36.862   5.843
 4866POPC   C1A63315  29.647  37.014   6.274
 4866POPC   D2A63316  29.744  36.894   6.682
 4866POPC   C3A63317  29.857  37.020   7.067
 4866POPC   C4A63318  29.847  36.709   7.359
 4866POPC   C1B63319  30.087  36.762   6.281
 4866POPC   C2B63320  30.245  37.005   6.628
 4866POPC   C3B63321  30.369  37.047   7.019
 4866POPC   C4B63322  30.201  37.210   7.405
 4867POPC   NC363323  41.250   8.917   5.458
 4867POPC   PO463324  41.905   8.757   5.468
 4867POPC   GL163325  41.699   8.935   5.853
 4867POPC   GL263326  41.354   8.888   5.963
 4867POPC   C1A63327  41.702   8.837   6.329
 4867POPC   D2A63328  41.641   9.014   6.755
 4867POPC   C3A63329  41.934   8.870   7.078
 4867POPC   C4A63330  41.912   8.809   7.540
 4867POPC   C1B63331  41.208   8.954   6.400
 4867POPC   C2B63332  41.229   8.669   6.753
 4867POPC   C3B63333  41.462   8.628   7.128
 4867POPC   C4B63334  41.492   9.038   7.305
 4868POPC   NC363335  16.495  23.386   5.569
 4868POPC   PO463336  16.919  23.818   5.530
 4868POPC   GL163337  16.682  23.712   5.927
 4868POPC   GL263338  16.323  23.600   6.007
 4868POPC   C1A63339  16.778  23.626   6.361
 4868POPC   D2A63340  17.065  23.742   6.686
 4868POPC   C3A63341  17.118  23.628   7.123
 4868POPC   C4A63342  17.450  23.876   7.329
 4868POPC   C1B63343  16.410  23.995   6.256
 4868POPC   C2B63344  16.637  24.068   6.622
 4868POPC   C3B63345  16.674  23.920   7.033
 4868POPC   C4B63346  16.434  23.915   7.423
 4869POPC   NC363347  20.806  30.408   5.370
 4869POPC   PO463348  20.488  31.026   5.315
 4869POPC   GL163349  20.548  30.751   5.667
 4869POPC   GL263350  20.196  30.763   5.696
 4869POPC   C1A63351  20.808  30.568   6.055
 4869POPC   D2A63352  20.740  30.648   6.500
 4869POPC   C3A63353  20.942  30.572   6.920
 4869POPC   C4A63354  20.780  30.660   7.314
 4869POPC   C1B63355  20.270  30.682   6.123
 4869POPC   C2B63356  20.252  30.478   6.508
 4869POPC   C3B63357  20.410  30.637   6.903
 4869POPC   C4B63358  20.375  30.363   7.249
 4870POPC   NC363359  42.830  11.588   5.500
 4870POPC   PO463360  43.260  11.136   5.218
 4870POPC   GL163361  43.292  11.225   5.704
 4870POPC   GL263362  43.165  11.540   5.891
 4870POPC   C1A63363  43.317  11.195   6.197
 4870POPC   D2A63364  43.202  11.432   6.580
 4870POPC   C3A63365  43.274  11.269   7.028
 4870POPC   C4A63366  43.294  11.393   7.488
 4870POPC   C1B63367  42.836  11.460   6.183
 4870POPC   C2B63368  42.730  11.630   6.588
 4870POPC   C3B63369  42.951  11.681   6.965
 4870POPC   C4B63370  42.838  11.629   7.357
 4871POPC   NC363371  40.228  12.739   5.311
 4871POPC   PO463372  40.086  12.050   5.423
 4871POPC   GL163373  40.228  12.144   5.816
 4871POPC   GL263374  40.336  12.485   5.757
 4871POPC   C1A63375  40.013  12.070   6.225
 4871POPC   D2A63376  39.914  11.853   6.631
 4871POPC   C3A63377  40.067  11.869   7.053
 4871POPC   C4A63378  39.814  12.002   7.421
 4871POPC   C1B63379  40.314  12.488   6.198
 4871POPC   C2B63380  40.199  12.331   6.619
 4871POPC   C3B63381  40.190  12.357   7.069
 4871POPC   C4B63382  40.240  12.277   7.523
 4872POPC   NC363383  26.820  10.424   5.175
 4872POPC   PO463384  26.881  11.061   5.289
 4872POPC   GL163385  26.869  10.887   5.777
 4872POPC   GL263386  27.177  10.920   5.960
 4872POPC   C1A63387  26.821  10.573   6.189
 4872POPC   D2A63388  26.605  10.324   6.572
 4872POPC   C3A63389  26.660  10.408   7.056
 4872POPC   C4A63390  26.836  10.525   7.508
 4872POPC   C1B63391  27.196  10.874   6.416
 4872POPC   C2B63392  27.070  10.574   6.720
 4872POPC   C3B63393  27.001  10.805   7.092
 4872POPC   C4B63394  27.239  10.860   7.504
 4873POPC   NC363395  20.918  44.878   5.325
 4873POPC   PO463396  20.393  44.980   5.371
 4873POPC   GL163397  20.545  44.747   5.710
 4873POPC   GL263398  20.771  44.954   5.893
 4873POPC   C1A63399  20.421  44.675   6.150
 4873POPC   D2A63400  20.549  44.871   6.546
 4873POPC   C3A63401  20.473  44.692   6.969
 4873POPC   C4A63402  20.461  44.872   7.393
 4873POPC   C1B63403  20.935  44.678   6.260
 4873POPC   C2B63404  20.953  44.592   6.739
 4873POPC   C3B63405  20.940  44.809   7.146
 4873POPC   C4B63406  21.203  44.889   7.473
 4874POPC   NC363407   8.228  40.251   5.483
 4874POPC   PO463408   8.377  39.679   5.608
 4874POPC   GL163409   8.123  39.854   5.898
 4874POPC   GL263410   8.338  40.114   5.956
 4874POPC   C1A63411   8.012  40.011   6.327
 4874POPC   D2A63412   7.833  39.961   6.709
 4874POPC   C3A63413   8.133  40.013   7.021
 4874POPC   C4A63414   8.134  40.060   7.475
 4874POPC   C1B63415   8.495  40.257   6.336
 4874POPC   C2B63416   8.466  40.303   6.770
 4874POPC   C3B63417   8.533  40.249   7.216
 4874POPC   C4B63418   8.551  40.255   7.690
 4875POPC   NC363419  26.929  19.271   5.512
 4875POPC   PO463420  26.885  18.598   5.463
 4875POPC   GL163421  26.912  18.840   5.869
 4875POPC   GL263422  26.925  19.199   5.992
 4875POPC   C1A63423  27.165  18.841   6.251
 4875POPC   D2A63424  27.159  18.822   6.683
 4875POPC   C3A63425  26.817  18.765   6.972
 4875POPC   C4A63426  26.988  18.929   7.350
 4875POPC   C1B63427  26.708  19.059   6.321
 4875POPC   C2B63428  26.652  19.297   6.680
 4875POPC   C3B63429  26.696  19.254   7.100
 4875POPC   C4B63430  26.744  19.341   7.555
 4876POPC   NC363431  31.552   5.412   5.385
 4876POPC   PO463432  31.582   4.824   5.236
 4876POPC   GL163433  31.659   5.014   5.710
 4876POPC   GL263434  31.554   5.330   5.882
 4876POPC   C1A63435  31.680   4.978   6.205
 4876POPC   D2A63436  31.485   5.136   6.589
 4876POPC   C3A63437  31.633   4.992   6.979
 4876POPC   C4A63438  31.707   5.210   7.372
 4876POPC   C1B63439  31.188   5.184   6.175
 4876POPC   C2B63440  30.968   5.021   6.519
 4876POPC   C3B63441  31.102   5.017   6.933
 4876POPC   C4B63442  31.269   4.867   7.309
 4877POPC   NC363443  44.421  24.214   5.557
 4877POPC   PO463444  44.178  24.796   5.681
 4877POPC   GL163445  43.949  24.548   5.970
 4877POPC   GL263446  44.018  24.204   5.939
 4877POPC   C1A63447  44.037  24.450   6.410
 4877POPC   D2A63448  44.322  24.565   6.736
 4877POPC   C3A63449  44.024  24.778   6.975
 4877POPC   C4A63450  43.678  24.574   7.177
 4877POPC   C1B63451  43.733  24.053   6.278
 4877POPC   C2B63452  43.692  24.183   6.678
 4877POPC   C3B63453  43.997  24.232   6.960
 4877POPC   C4B63454  44.159  24.381   7.321
 4878POPC   NC363455   7.581   6.793   5.361
 4878POPC   PO463456   7.007   6.564   5.169
 4878POPC   GL163457   7.173   6.707   5.656
 4878POPC   GL263458   7.547   6.691   5.848
 4878POPC   C1A63459   7.143   6.704   6.141
 4878POPC   D2A63460   7.458   6.651   6.484
 4878POPC   C3A63461   7.283   6.549   6.878
 4878POPC   C4A63462   7.160   6.446   7.313
 4878POPC   C1B63463   7.678   6.999   6.181
 4878POPC   C2B63464   7.815   7.034   6.610
 4878POPC   C3B63465   7.914   6.844   7.009
 4878POPC   C4B63466   7.634   6.581   7.232
 4879POPC   NC363467  33.947  34.433   5.491
 4879POPC   PO463468  33.468  34.939   5.334
 4879POPC   GL163469  33.578  34.751   5.739
 4879POPC   GL263470  33.928  34.856   5.793
 4879POPC   C1A63471  33.702  34.488   6.105
 4879POPC   D2A63472  33.814  34.538   6.552
 4879POPC   C3A63473  33.951  34.234   6.853
 4879POPC   C4A63474  33.967  34.387   7.285
 4879POPC   C1B63475  34.120  34.769   6.207
 4879POPC   C2B63476  34.333  34.514   6.540
 4879POPC   C3B63477  34.283  34.626   6.940
 4879POPC   C4B63478  33.979  34.881   7.090
 4880POPC   NC363479   1.719  26.179   5.268
 4880POPC   PO463480   1.988  25.591   5.470
 4880POPC   GL163481   1.969  25.982   5.689
 4880POPC   GL263482   1.625  25.934   5.718
 4880POPC   C1A63483   1.981  26.143   6.133
 4880POPC   D2A63484   2.163  26.094   6.579
 4880POPC   C3A63485   1.918  26.163   6.929
 4880POPC   C4A63486   2.147  26.184   7.306
 4880POPC   C1B63487   1.782  25.673   6.081
 4880POPC   C2B63488   1.807  25.741   6.517
 4880POPC   C3B63489   1.917  25.671   6.969
 4880POPC   C4B63490   1.710  25.829   7.322
 4881POPC   NC363491   6.732  44.136   5.577
 4881POPC   PO463492   6.361  44.680   5.318
 4881POPC   GL163493   6.585  44.672   5.708
 4881POPC   GL263494   6.337  44.417   5.803
 4881POPC   C1A63495   6.719  44.566   6.140
 4881POPC   D2A63496   6.738  44.404   6.542
 4881POPC   C3A63497   6.974  44.666   6.803
 4881POPC   C4A63498   6.971  44.608   7.226
 4881POPC   C1B63499   6.266  44.768   6.120
 4881POPC   C2B63500   6.488  44.892   6.523
 4881POPC   C3B63501   6.503  44.810   6.984
 4881POPC   C4B63502   6.532  44.715   7.456
 4882POPC   NC363503  34.312   8.718   5.546
 4882POPC   PO463504  34.672   9.217   5.301
 4882POPC   GL163505  34.552   9.130   5.740
 4882POPC   GL263506  34.255   9.316   5.700
 4882POPC   C1A63507  34.702   8.948   6.156
 4882POPC   D2A63508  34.900   9.098   6.568
 4882POPC   C3A63509  34.857   8.904   6.984
 4882POPC   C4A63510  34.778   9.094   7.383
 4882POPC   C1B63511  34.315   9.341   6.151
 4882POPC   C2B63512  34.371   9.112   6.518
 4882POPC   C3B63513  34.450   9.188   6.916
 4882POPC   C4B63514  34.262   9.119   7.281
 4883POPC   NC363515   6.865  38.401   5.536
 4883POPC   PO463516   6.370  38.861   5.315
 4883POPC   GL163517   6.371  38.550   5.736
 4883POPC   GL263518   6.402  38.180   5.678
 4883POPC   C1A63519   6.470  38.640   6.214
 4883POPC   D2A63520   6.807  38.809   6.505
 4883POPC   C3A63521   6.734  38.684   6.914
 4883POPC   C4A63522   6.420  38.492   7.156
 4883POPC   C1B63523   6.615  38.054   6.061
 4883POPC   C2B63524   6.730  38.209   6.458
 4883POPC   C3B63525   6.663  38.121   6.886
 4883POPC   C4B63526   6.908  38.310   7.195
 4884POPC   NC363527  42.926  41.364   5.442
 4884POPC   PO463528  43.280  41.991   5.531
 4884POPC   GL163529  43.129  41.664   5.863
 4884POPC   GL263530  43.122  41.272   5.895
 4884POPC   C1A63531  43.337  41.524   6.261
 4884POPC   D2A63532  43.478  41.380   6.637
 4884POPC   C3A63533  43.180  41.612   6.937
 4884POPC   C4A63534  43.275  41.997   7.182
 4884POPC   C1B63535  42.800  41.188   6.237
 4884POPC   C2B63536  42.620  41.432   6.609
 4884POPC   C3B63537  42.710  41.427   7.066
 4884POPC   C4B63538  42.805  41.459   7.539
 4885POPC   NC363539  24.600  13.823   5.384
 4885POPC   PO463540  24.030  13.399   5.416
 4885POPC   GL163541  24.233  13.653   5.764
 4885POPC   GL263542  24.600  13.569   5.860
 4885POPC   C1A63543  24.283  13.714   6.230
 4885POPC   D2A63544  24.511  13.785   6.623
 4885POPC   C3A63545  24.418  13.581   7.014
 4885POPC   C4A63546  24.353  13.319   7.398
 4885POPC   C1B63547  24.863  13.706   6.255
 4885POPC   C2B63548  25.028  13.889   6.686
 4885POPC   C3B63549  24.945  13.871   7.161
 4885POPC   C4B63550  24.636  13.716   7.478
 4886POPC   NC363551   2.501  23.914   5.343
 4886POPC   PO463552   1.791  23.978   5.331
 4886POPC   GL163553   2.070  23.752   5.614
 4886POPC   GL263554   2.187  24.095   5.694
 4886POPC   C1A63555   1.910  23.535   6.000
 4886POPC   D2A63556   1.747  23.721   6.411
 4886POPC   C3A63557   1.946  23.636   6.820
 4886POPC   C4A63558   1.734  23.528   7.209
 4886POPC   C1B63559   2.195  23.950   6.108
 4886POPC   C2B63560   2.242  23.996   6.530
 4886POPC   C3B63561   1.998  24.153   6.849
 4886POPC   C4B63562   1.976  23.974   7.220
 4887POPC   NC363563  38.261   2.556   5.530
 4887POPC   PO463564  38.685   3.079   5.519
 4887POPC   GL163565  38.688   2.746   5.841
 4887POPC   GL263566  38.634   2.366   5.870
 4887POPC   C1A63567  38.415   2.728   6.215
 4887POPC   D2A63568  38.160   2.625   6.587
 4887POPC   C3A63569  38.414   2.625   6.916
 4887POPC   C4A63570  38.528   2.856   7.255
 4887POPC   C1B63571  38.874   2.478   6.236
 4887POPC   C2B63572  38.819   2.751   6.591
 4887POPC   C3B63573  38.949   2.725   7.008
 4887POPC   C4B63574  38.790   2.395   7.185
 4888POPC   NC363575  13.423  27.841   5.355
 4888POPC   PO463576  13.791  27.347   5.437
 4888POPC   GL163577  13.676  27.382   5.869
 4888POPC   GL263578  13.479  27.668   5.829
 4888POPC   C1A63579  13.779  27.640   6.264
 4888POPC   D2A63580  13.963  27.775   6.684
 4888POPC   C3A63581  13.876  27.428   6.979
 4888POPC   C4A63582  13.495  27.301   7.176
 4888POPC   C1B63583  13.337  27.964   6.132
 4888POPC   C2B63584  13.477  27.989   6.551
 4888POPC   C3B63585  13.513  27.792   6.967
 4888POPC   C4B63586  13.350  27.749   7.382
 4889POPC   NC363587  31.655  16.019   5.212
 4889POPC   PO463588  31.178  16.289   5.618
 4889POPC   GL163589  31.518  16.171   5.876
 4889POPC   GL263590  31.748  15.909   5.705
 4889POPC   C1A63591  31.398  16.108   6.311
 4889POPC   D2A63592  31.052  16.191   6.636
 4889POPC   C3A63593  31.055  15.822   6.933
 4889POPC   C4A63594  31.438  15.881   7.158
 4889POPC   C1B63595  31.800  15.775   6.109
 4889POPC   C2B63596  31.924  16.063   6.446
 4889POPC   C3B63597  31.857  16.076   6.897
 4889POPC   C4B63598  31.899  15.651   7.142
 4890POPC   NC363599  35.693  30.570   5.465
 4890POPC   PO463600  36.278  30.755   5.389
 4890POPC   GL163601  36.098  30.721   5.801
 4890POPC   GL263602  35.793  30.918   5.866
 4890POPC   C1A63603  36.153  30.813   6.246
 4890POPC   D2A63604  35.911  30.798   6.651
 4890POPC   C3A63605  36.103  30.912   7.060
 4890POPC   C4A63606  36.014  30.920   7.500
 4890POPC   C1B63607  35.731  30.538   6.146
 4890POPC   C2B63608  35.812  30.284   6.501
 4890POPC   C3B63609  35.697  30.318   6.933
 4890POPC   C4B63610  35.899  30.477   7.293
 4891POPC   NC363611  34.426   8.099   5.330
 4891POPC   PO463612  34.803   8.587   5.538
 4891POPC   GL163613  34.624   8.278   5.812
 4891POPC   GL263614  34.305   8.073   5.828
 4891POPC   C1A63615  34.591   8.398   6.235
 4891POPC   D2A63616  34.610   8.670   6.593
 4891POPC   C3A63617  34.437   8.606   7.007
 4891POPC   C4A63618  34.706   8.428   7.317
 4891POPC   C1B63619  34.179   8.104   6.269
 4891POPC   C2B63620  34.414   8.170   6.664
 4891POPC   C3B63621  34.477   8.049   7.071
 4891POPC   C4B63622  34.243   7.839   7.369
 4892POPC   NC363623  11.005  27.011   5.519
 4892POPC   PO463624  11.279  26.403   5.451
 4892POPC   GL163625  11.636  26.532   5.696
 4892POPC   GL263626  11.415  26.802   5.783
 4892POPC   C1A63627  11.724  26.582   6.148
 4892POPC   D2A63628  11.424  26.619   6.503
 4892POPC   C3A63629  11.523  26.770   6.919
 4892POPC   C4A63630  11.314  26.753   7.338
 4892POPC   C1B63631  11.411  27.013   6.163
 4892POPC   C2B63632  11.173  27.089   6.531
 4892POPC   C3B63633  11.140  27.113   6.974
 4892POPC   C4B63634  11.511  27.200   7.212
 4893POPC   NC363635  25.815  37.995   5.375
 4893POPC   PO463636  26.059  38.598   5.363
 4893POPC   GL163637  26.198  38.612   5.775
 4893POPC   GL263638  26.309  38.249   5.794
 4893POPC   C1A63639  26.180  38.557   6.231
 4893POPC   D2A63640  25.899  38.730   6.557
 4893POPC   C3A63641  25.959  38.517   6.945
 4893POPC   C4A63642  26.100  38.576   7.368
 4893POPC   C1B63643  25.865  38.251   5.971
 4893POPC   C2B63644  25.694  38.248   6.400
 4893POPC   C3B63645  25.529  38.149   6.806
 4893POPC   C4B63646  25.644  38.230   7.237
 4894POPC   NC363647  32.007  22.450   5.517
 4894POPC   PO463648  32.633  22.172   5.406
 4894POPC   GL163649  32.401  22.033   5.833
 4894POPC   GL263650  32.090  22.118   5.893
 4894POPC   C1A63651  32.347  21.961   6.315
 4894POPC   D2A63652  32.439  22.167   6.732
 4894POPC   C3A63653  32.356  21.993   7.149
 4894POPC   C4A63654  32.605  21.983   7.539
 4894POPC   C1B63655  31.863  22.192   6.256
 4894POPC   C2B63656  31.933  22.086   6.654
 4894POPC   C3B63657  31.730  22.025   6.994
 4894POPC   C4B63658  31.884  22.067   7.357
 4895POPC   NC363659  15.335   9.399   5.448
 4895POPC   PO463660  15.081   8.774   5.386
 4895POPC   GL163661  15.040   9.009   5.770
 4895POPC   GL263662  15.381   8.918   5.868
 4895POPC   C1A63663  14.911   8.961   6.219
 4895POPC   D2A63664  15.195   8.859   6.558
 4895POPC   C3A63665  15.115   9.005   6.997
 4895POPC   C4A63666  14.987   8.793   7.381
 4895POPC   C1B63667  15.594   9.027   6.259
 4895POPC   C2B63668  15.524   9.199   6.693
 4895POPC   C3B63669  15.625   9.186   7.097
 4895POPC   C4B63670  15.669   9.488   7.376
 4896POPC   NC363671   9.271   6.640   5.451
 4896POPC   PO463672   8.608   6.523   5.446
 4896POPC   GL163673   8.832   6.683   5.773
 4896POPC   GL263674   8.835   6.358   5.883
 4896POPC   C1A63675   9.058   6.703   6.181
 4896POPC   D2A63676   9.149   6.508   6.597
 4896POPC   C3A63677   8.925   6.729   6.914
 4896POPC   C4A63678   8.951   6.960   7.284
 4896POPC   C1B63679   8.585   6.486   6.244
 4896POPC   C2B63680   8.653   6.351   6.647
 4896POPC   C3B63681   8.582   6.205   7.050
 4896POPC   C4B63682   8.649   6.532   7.327
 4897POPC   NC363683  36.514  44.617   5.606
 4897POPC   PO463684  35.903  44.585   5.388
 4897POPC   GL163685  36.048  44.488   5.799
 4897POPC   GL263686  36.268  44.198   5.826
 4897POPC   C1A63687  36.085  44.730   6.205
 4897POPC   D2A63688  36.206  44.982   6.565
 4897POPC   C3A63689  36.042  44.800   6.932
 4897POPC   C4A63690  36.335  44.631   7.215
 4897POPC   C1B63691  36.058  44.218   6.219
 4897POPC   C2B63692  36.088  44.359   6.661
 4897POPC   C3B63693  35.970  44.269   7.110
 4897POPC   C4B63694  36.172  44.311   7.564
 4898POPC   NC363695  19.376  16.544   5.171
 4898POPC   PO463696  19.103  17.086   5.501
 4898POPC   GL163697  18.915  16.762   5.736
 4898POPC   GL263698  19.192  16.531   5.664
 4898POPC   C1A63699  18.711  16.795   6.159
 4898POPC   D2A63700  18.841  16.900   6.600
 4898POPC   C3A63701  19.055  16.945   7.006
 4898POPC   C4A63702  19.363  16.772   7.308
 4898POPC   C1B63703  19.138  16.536   6.107
 4898POPC   C2B63704  19.096  16.434   6.505
 4898POPC   C3B63705  19.225  16.481   6.894
 4898POPC   C4B63706  19.002  16.397   7.237
 4899POPC   NC363707  20.171  10.131   5.315
 4899POPC   PO463708  19.858  10.708   5.478
 4899POPC   GL163709  19.855  10.637   5.907
 4899POPC   GL263710  20.092  10.366   5.867
 4899POPC   C1A63711  19.794  10.751   6.354
 4899POPC   D2A63712  19.843  10.482   6.743
 4899POPC   C3A63713  19.882  10.643   7.146
 4899POPC   C4A63714  19.597  10.641   7.463
 4899POPC   C1B63715  20.163  10.390   6.331
 4899POPC   C2B63716  20.261  10.180   6.737
 4899POPC   C3B63717  20.297  10.310   7.169
 4899POPC   C4B63718  20.137  10.452   7.582
 4900POPC   NC363719  19.254  20.052   5.408
 4900POPC   PO463720  18.609  19.759   5.406
 4900POPC   GL163721  18.737  19.815   5.844
 4900POPC   GL263722  19.076  19.901   5.859
 4900POPC   C1A63723  18.883  19.752   6.301
 4900POPC   D2A63724  19.152  19.834   6.655
 4900POPC   C3A63725  18.977  19.672   7.009
 4900POPC   C4A63726  18.665  19.864   7.294
 4900POPC   C1B63727  19.072  20.232   6.161
 4900POPC   C2B63728  19.118  20.346   6.598
 4900POPC   C3B63729  19.323  20.196   6.973
 4900POPC   C4B63730  19.156  20.040   7.319
 4901POPC   NC363731   9.313   4.899   5.479
 4901POPC   PO463732   8.659   4.828   5.462
 4901POPC   GL163733   8.967   5.077   5.808
 4901POPC   GL263734   9.208   5.394   5.820
 4901POPC   C1A63735   9.271   5.069   6.187
 4901POPC   D2A63736   9.019   4.889   6.503
 4901POPC   C3A63737   9.025   4.869   6.936
 4901POPC   C4A63738   8.662   4.852   7.200
 4901POPC   C1B63739   8.979   5.489   6.265
 4901POPC   C2B63740   8.853   5.353   6.721
 4901POPC   C3B63741   8.940   5.298   7.185
 4901POPC   C4B63742   9.345   5.183   7.434
 4902POPC   NC363743  10.411  27.547   5.159
 4902POPC   PO463744  10.647  27.227   5.725
 4902POPC   GL163745  10.321  27.473   5.912
 4902POPC   GL263746  10.360  27.817   5.852
 4902POPC   C1A63747  10.178  27.722   6.299
 4902POPC   D2A63748  10.339  27.699   6.689
 4902POPC   C3A63749  10.359  27.268   6.861
 4902POPC   C4A63750  10.665  27.134   7.178
 4902POPC   C1B63751  10.680  27.699   6.223
 4902POPC   C2B63752  10.767  27.444   6.569
 4902POPC   C3B63753  10.779  27.605   6.978
 4902POPC   C4B63754  11.106  27.561   7.247
 4903POPC   NC363755   1.181   0.395   5.229
 4903POPC   PO463756   1.362   0.972   5.467
 4903POPC   GL163757   1.353   0.655   5.787
 4903POPC   GL263758   1.087   0.439   5.741
 4903POPC   C1A63759   1.200   0.578   6.223
 4903POPC   D2A63760   1.407   0.476   6.614
 4903POPC   C3A63761   1.246   0.547   7.019
 4903POPC   C4A63762   1.522   0.430   7.304
 4903POPC   C1B63763   0.930   0.165   6.089
 4903POPC   C2B63764   1.044   0.100   6.505
 4903POPC   C3B63765   0.886   0.156   6.902
 4903POPC   C4B63766   1.086   0.104   7.281
 4904POPC   NC363767  32.263  21.021   5.182
 4904POPC   PO463768  32.433  20.325   5.423
 4904POPC   GL163769  32.256  20.469   5.807
 4904POPC   GL263770  32.014  20.228   5.883
 4904POPC   C1A63771  32.209  20.583   6.262
 4904POPC   D2A63772  32.422  20.445   6.650
 4904POPC   C3A63773  32.301  20.633   7.019
 4904POPC   C4A63774  32.476  20.790   7.389
 4904POPC   C1B63775  31.801  20.215   6.249
 4904POPC   C2B63776  31.954  20.218   6.660
 4904POPC   C3B63777  31.862  20.359   7.051
 4904POPC   C4B63778  31.856  20.734   7.290
 4905POPC   NC363779   5.613  12.237   5.209
 4905POPC   PO463780   5.932  11.805   5.590
 4905POPC   GL163781   5.796  11.813   5.960
 4905POPC   GL263782   5.516  11.603   5.966
 4905POPC   C1A63783   6.071  11.959   6.263
 4905POPC   D2A63784   6.108  12.009   6.684
 4905POPC   C3A63785   6.100  12.419   6.861
 4905POPC   C4A63786   5.824  12.429   7.216
 4905POPC   C1B63787   5.356  11.802   6.285
 4905POPC   C2B63788   5.493  11.854   6.685
 4905POPC   C3B63789   5.747  11.914   7.063
 4905POPC   C4B63790   5.587  11.991   7.474
 4906POPC   NC363791  44.294  13.600   5.331
 4906POPC   PO463792  44.814  14.024   5.452
 4906POPC   GL163793  44.844  13.804   5.828
 4906POPC   GL263794  44.574  13.593   5.785
 4906POPC   C1A63795  44.824  13.614   6.247
 4906POPC   D2A63796  44.527  13.493   6.581
 4906POPC   C3A63797  44.711  13.488   6.993
 4906POPC   C4A63798  44.548  13.486   7.414
 4906POPC   C1B63799  44.410  13.910   6.117
 4906POPC   C2B63800  44.232  13.909   6.552
 4906POPC   C3B63801  44.229  13.682   6.970
 4906POPC   C4B63802  44.106  13.807   7.418
 4907POPC   NC363803   0.216  15.206   5.426
 4907POPC   PO463804   0.633  14.712   5.418
 4907POPC   GL163805   0.553  14.993   5.840
 4907POPC   GL263806   0.299  15.287   5.927
 4907POPC   C1A63807   0.718  15.162   6.269
 4907POPC   D2A63808   0.552  15.452   6.605
 4907POPC   C3A63809   0.591  15.326   7.053
 4907POPC   C4A63810   0.665  15.074   7.443
 4907POPC   C1B63811   0.218  15.019   6.287
 4907POPC   C2B63812   0.376  14.955   6.704
 4907POPC   C3B63813   0.223  14.998   7.101
 4907POPC   C4B63814   0.147  15.405   7.306
 4908POPC   NC363815  24.338  41.298   5.463
 4908POPC   PO463816  24.496  40.647   5.380
 4908POPC   GL163817  24.526  40.841   5.755
 4908POPC   GL263818  24.823  40.653   5.796
 4908POPC   C1A63819  24.405  40.754   6.168
 4908POPC   D2A63820  24.263  40.943   6.562
 4908POPC   C3A63821  24.373  40.769   6.925
 4908POPC   C4A63822  24.353  40.909   7.304
 4908POPC   C1B63823  24.841  40.416   6.166
 4908POPC   C2B63824  24.688  40.586   6.553
 4908POPC   C3B63825  24.734  40.409   6.939
 4908POPC   C4B63826  24.942  40.521   7.291
 4909POPC   NC363827   2.600   3.445   5.378
 4909POPC   PO463828   3.190   3.762   5.209
 4909POPC   GL163829   3.042   3.510   5.679
 4909POPC   GL263830   2.661   3.620   5.852
 4909POPC   C1A63831   2.985   3.487   6.202
 4909POPC   D2A63832   2.622   3.587   6.557
 4909POPC   C3A63833   2.531   3.481   7.008
 4909POPC   C4A63834   2.765   3.373   7.405
 4909POPC   C1B63835   2.679   3.955   6.203
 4909POPC   C2B63836   2.629   4.143   6.587
 4909POPC   C3B63837   2.535   4.009   6.972
 4909POPC   C4B63838   2.707   3.860   7.336
 4910POPC   NC363839  21.728  11.738   5.297
 4910POPC   PO463840  21.275  11.310   5.465
 4910POPC   GL163841  21.201  11.466   5.857
 4910POPC   GL263842  20.939  11.211   5.917
 4910POPC   C1A63843  21.465  11.587   6.197
 4910POPC   D2A63844  21.679  11.333   6.496
 4910POPC   C3A63845  21.706  11.453   6.925
 4910POPC   C4A63846  21.409  11.284   7.206
 4910POPC   C1B63847  21.231  11.128   6.266
 4910POPC   C2B63848  21.236  11.183   6.713
 4910POPC   C3B63849  21.062  10.946   7.048
 4910POPC   C4B63850  21.208  10.888   7.478
 4911POPC   NC363851  42.706  43.745   5.446
 4911POPC   PO463852  41.959  43.820   5.493
 4911POPC   GL163853  42.259  43.797   5.827
 4911POPC   GL263854  42.509  43.527   5.891
 4911POPC   C1A63855  42.257  43.855   6.264
 4911POPC   D2A63856  42.449  43.946   6.654
 4911POPC   C3A63857  42.171  43.929   7.010
 4911POPC   C4A63858  42.078  43.915   7.482
 4911POPC   C1B63859  42.473  43.380   6.351
 4911POPC   C2B63860  42.173  43.476   6.697
 4911POPC   C3B63861  41.998  43.473   7.129
 4911POPC   C4B63862  42.116  43.366   7.585
 4912POPC   NC363863  44.951   5.400   5.447
 4912POPC   PO463864   0.655   5.235   5.442
 4912POPC   GL163865   0.540   5.307   5.879
 4912POPC   GL263866   0.266   5.569   5.852
 4912POPC   C1A63867   0.636   5.090   6.291
 4912POPC   D2A63868   0.413   4.794   6.580
 4912POPC   C3A63869   0.361   4.903   7.034
 4912POPC   C4A63870   0.735   5.091   7.183
 4912POPC   C1B63871   0.234   5.422   6.293
 4912POPC   C2B63872   0.404   5.301   6.707
 4912POPC   C3B63873   0.418   5.488   7.115
 4912POPC   C4B63874   0.397   5.579   7.541
 4913POPC   NC363875  10.668   4.681   5.099
 4913POPC   PO463876  10.527   5.202   5.443
 4913POPC   GL163877  10.482   5.048   5.829
 4913POPC   GL263878  10.200   5.250   5.861
 4913POPC   C1A63879  10.664   4.873   6.218
 4913POPC   D2A63880  10.981   4.757   6.545
 4913POPC   C3A63881  10.854   4.908   6.946
 4913POPC   C4A63882  10.567   4.961   7.290
 4913POPC   C1B63883  10.232   5.117   6.274
 4913POPC   C2B63884  10.421   5.084   6.673
 4913POPC   C3B63885  10.238   5.236   7.050
 4913POPC   C4B63886  10.242   5.291   7.510
 4914POPC   NC363887  38.769  27.310   5.442
 4914POPC   PO463888  38.500  26.784   5.123
 4914POPC   GL163889  38.602  26.784   5.611
 4914POPC   GL263890  38.312  26.786   5.849
 4914POPC   C1A63891  38.781  26.687   6.061
 4914POPC   D2A63892  38.978  26.721   6.478
 4914POPC   C3A63893  38.796  26.568   6.884
 4914POPC   C4A63894  38.663  26.822   7.260
 4914POPC   C1B63895  38.337  26.571   6.259
 4914POPC   C2B63896  38.277  26.521   6.683
 4914POPC   C3B63897  37.935  26.525   6.965
 4914POPC   C4B63898  37.901  26.895   7.240
 4915POPC   NC363899   6.429   9.804   5.139
 4915POPC   PO463900   5.769   9.594   5.474
 4915POPC   GL163901   5.656   9.623   5.886
 4915POPC   GL263902   5.869   9.900   5.945
 4915POPC   C1A63903   5.678   9.613   6.324
 4915POPC   D2A63904   5.838   9.357   6.649
 4915POPC   C3A63905   5.697   9.497   7.050
 4915POPC   C4A63906   5.633   9.940   7.169
 4915POPC   C1B63907   6.232  10.029   6.193
 4915POPC   C2B63908   6.374   9.976   6.588
 4915POPC   C3B63909   6.078   9.840   6.856
 4915POPC   C4B63910   6.106   9.791   7.263
 4916POPC   NC363911   3.366  15.822   5.405
 4916POPC   PO463912   3.859  16.258   5.236
 4916POPC   GL163913   3.803  16.013   5.673
 4916POPC   GL263914   3.526  15.800   5.865
 4916POPC   C1A63915   3.797  16.106   6.139
 4916POPC   D2A63916   3.634  16.243   6.529
 4916POPC   C3A63917   3.732  16.054   6.925
 4916POPC   C4A63918   3.624  16.285   7.314
 4916POPC   C1B63919   3.302  15.871   6.253
 4916POPC   C2B63920   3.300  15.861   6.681
 4916POPC   C3B63921   3.313  15.811   7.105
 4916POPC   C4B63922   3.368  15.905   7.510
 4917POPC   NC363923  24.666   3.161   5.327
 4917POPC   PO463924  24.644   2.507   5.374
 4917POPC   GL163925  24.429   2.645   5.749
 4917POPC   GL263926  24.618   2.931   5.786
 4917POPC   C1A63927  24.384   2.812   6.215
 4917POPC   D2A63928  24.605   2.865   6.624
 4917POPC   C3A63929  24.396   2.707   7.026
 4917POPC   C4A63930  24.000   2.627   7.271
 4917POPC   C1B63931  24.840   2.607   6.079
 4917POPC   C2B63932  24.773   2.379   6.496
 4917POPC   C3B63933  24.865   2.502   6.894
 4917POPC   C4B63934  24.790   2.523   7.320
 4918POPC   NC363935  28.905  25.885   5.529
 4918POPC   PO463936  28.953  26.579   5.444
 4918POPC   GL163937  29.217  26.346   5.759
 4918POPC   GL263938  29.318  25.968   5.801
 4918POPC   C1A63939  29.135  26.244   6.211
 4918POPC   D2A63940  29.150  26.369   6.652
 4918POPC   C3A63941  29.272  26.106   7.012
 4918POPC   C4A63942  28.926  25.949   7.248
 4918POPC   C1B63943  29.106  25.727   6.176
 4918POPC   C2B63944  29.131  25.818   6.626
 4918POPC   C3B63945  29.203  25.566   7.008
 4918POPC   C4B63946  29.013  25.454   7.418
 4919POPC   NC363947  35.906  13.471   5.342
 4919POPC   PO463948  36.174  14.034   5.522
 4919POPC   GL163949  36.116  13.637   5.769
 4919POPC   GL263950  36.392  13.496   5.888
 4919POPC   C1A63951  35.945  13.376   6.119
 4919POPC   D2A63952  36.056  13.406   6.555
 4919POPC   C3A63953  35.936  13.791   6.741
 4919POPC   C4A63954  35.855  13.805   7.156
 4919POPC   C1B63955  36.247  13.795   6.244
 4919POPC   C2B63956  36.435  13.904   6.653
 4919POPC   C3B63957  36.391  13.807   7.096
 4919POPC   C4B63958  36.607  13.689   7.464
 4920POPC   NC363959  43.426  42.437   5.465
 4920POPC   PO463960  42.757  42.607   5.434
 4920POPC   GL163961  42.969  42.407   5.744
 4920POPC   GL263962  43.141  42.717   5.803
 4920POPC   C1A63963  42.906  42.158   6.135
 4920POPC   D2A63964  42.955  41.935   6.552
 4920POPC   C3A63965  42.908  42.221   6.899
 4920POPC   C4A63966  42.996  42.414   7.281
 4920POPC   C1B63967  43.285  42.517   6.188
 4920POPC   C2B63968  43.194  42.547   6.638
 4920POPC   C3B63969  43.438  42.489   7.037
 4920POPC   C4B63970  43.436  42.482   7.531
 4921POPC   NC363971  14.951   3.485   5.397
 4921POPC   PO463972  15.678   3.391   5.525
 4921POPC   GL163973  15.342   3.622   5.724
 4921POPC   GL263974  15.203   3.302   5.796
 4921POPC   C1A63975  15.023   3.706   6.099
 4921POPC   D2A63976  14.846   3.738   6.556
 4921POPC   C3A63977  15.111   3.720   6.957
 4921POPC   C4A63978  14.950   3.769   7.394
 4921POPC   C1B63979  15.427   3.356   6.177
 4921POPC   C2B63980  15.286   3.343   6.587
 4921POPC   C3B63981  15.504   3.410   6.951
 4921POPC   C4B63982  15.330   3.433   7.347
 4922POPC   NC363983  32.050  23.792   5.443
 4922POPC   PO463984  32.711  23.683   5.365
 4922POPC   GL163985  32.445  23.698   5.759
 4922POPC   GL263986  32.225  23.368   5.766
 4922POPC   C1A63987  32.476  23.899   6.199
 4922POPC   D2A63988  32.379  24.100   6.596
 4922POPC   C3A63989  32.165  23.896   6.918
 4922POPC   C4A63990  32.404  23.721   7.209
 4922POPC   C1B63991  32.395  23.408   6.189
 4922POPC   C2B63992  32.415  23.529   6.627
 4922POPC   C3B63993  32.291  23.281   7.004
 4922POPC   C4B63994  32.245  23.311   7.487
 4923POPC   NC363995  33.544  30.974   5.624
 4923POPC   PO463996  33.655  31.655   5.454
 4923POPC   GL163997  33.691  31.421   5.864
 4923POPC   GL263998  33.956  31.214   5.874
 4923POPC   C1A63999  33.699  31.221   6.310
 4923POPC   D2A64000  33.468  31.313   6.683
 4923POPC   C3A64001  33.732  31.365   7.013
 4923POPC   C4A64002  33.763  31.514   7.410
 4923POPC   C1B64003  34.078  31.536   6.234
 4923POPC   C2B64004  34.102  31.555   6.703
 4923POPC   C3B64005  34.005  31.823   7.075
 4923POPC   C4B64006  34.157  31.794   7.529
 4924POPC   NC364007  11.717  34.041   5.111
 4924POPC   PO464008  11.157  33.861   5.407
 4924POPC   GL164009  11.206  33.677   5.818
 4924POPC   GL264010  11.560  33.599   5.885
 4924POPC   C1A64011  10.963  33.638   6.230
 4924POPC   D2A64012  10.971  33.924   6.585
 4924POPC   C3A64013  10.987  33.710   6.979
 4924POPC   C4A64014  10.964  33.911   7.397
 4924POPC   C1B64015  11.426  33.905   6.238
 4924POPC   C2B64016  11.625  34.029   6.629
 4924POPC   C3B64017  11.370  34.065   6.991
 4924POPC   C4B64018  11.425  33.743   7.285
 4925POPC   NC364019  38.466  25.402   5.586
 4925POPC   PO464020  38.241  24.794   5.383
 4925POPC   GL164021  38.478  24.895   5.722
 4925POPC   GL264022  38.148  25.022   5.835
 4925POPC   C1A64023  38.651  24.974   6.156
 4925POPC   D2A64024  38.662  25.377   6.435
 4925POPC   C3A64025  38.666  25.293   6.890
 4925POPC   C4A64026  38.657  25.242   7.337
 4925POPC   C1B64027  38.206  25.221   6.214
 4925POPC   C2B64028  38.281  25.064   6.616
 4925POPC   C3B64029  38.152  25.193   7.017
 4925POPC   C4B64030  38.149  25.118   7.459
 4926POPC   NC364031   0.506  30.960   5.151
 4926POPC   PO464032   0.256  30.528   5.573
 4926POPC   GL164033   0.481  30.709   5.896
 4926POPC   GL264034   0.623  31.054   5.781
 4926POPC   C1A64035   0.387  30.679   6.368
 4926POPC   D2A64036   0.547  30.459   6.745
 4926POPC   C3A64037   0.428  30.669   7.111
 4926POPC   C4A64038   0.167  30.900   7.393
 4926POPC   C1B64039   0.781  30.972   6.210
 4926POPC   C2B64040   0.799  30.888   6.653
 4926POPC   C3B64041   0.714  31.119   7.007
 4926POPC   C4B64042   0.793  31.364   7.350
 4927POPC   NC364043  17.432  11.550   5.413
 4927POPC   PO464044  17.827  10.958   5.439
 4927POPC   GL164045  17.700  11.180   5.881
 4927POPC   GL264046  17.362  11.257   5.998
 4927POPC   C1A64047  17.800  11.393   6.311
 4927POPC   D2A64048  17.884  11.555   6.697
 4927POPC   C3A64049  17.526  11.464   6.906
 4927POPC   C4A64050  17.461  11.507   7.282
 4927POPC   C1B64051  17.533  10.967   6.309
 4927POPC   C2B64052  17.657  11.010   6.726
 4927POPC   C3B64053  17.468  10.914   7.118
 4927POPC   C4B64054  17.160  11.130   7.385
 4928POPC   NC364055   4.037  19.765   5.167
 4928POPC   PO464056   3.387  19.471   5.341
 4928POPC   GL164057   3.594  19.762   5.653
 4928POPC   GL264058   3.372  20.041   5.765
 4928POPC   C1A64059   3.607  19.740   6.127
 4928POPC   D2A64060   3.572  19.471   6.521
 4928POPC   C3A64061   3.586  19.658   6.960
 4928POPC   C4A64062   3.309  19.675   7.340
 4928POPC   C1B64063   3.268  20.174   6.163
 4928POPC   C2B64064   3.346  19.949   6.550
 4928POPC   C3B64065   3.176  19.987   6.948
 4928POPC   C4B64066   3.231  20.207   7.333
 4929POPC   NC364067  38.711  35.687   5.735
 4929POPC   PO464068  38.140  35.575   5.428
 4929POPC   GL164069  38.273  35.388   5.849
 4929POPC   GL264070  38.604  35.213   5.861
 4929POPC   C1A64071  38.341  35.548   6.298
 4929POPC   D2A64072  38.587  35.594   6.672
 4929POPC   C3A64073  38.394  35.362   6.994
 4929POPC   C4A64074  38.546  35.405   7.388
 4929POPC   C1B64075  38.781  35.308   6.295
 4929POPC   C2B64076  38.701  35.069   6.713
 4929POPC   C3B64077  38.722  34.981   7.211
 4929POPC   C4B64078  38.608  35.047   7.726
 4930POPC   NC364079  36.809  22.578   5.416
 4930POPC   PO464080  36.793  23.210   5.583
 4930POPC   GL164081  36.846  23.119   5.946
 4930POPC   GL264082  36.971  22.799   5.861
 4930POPC   C1A64083  37.141  23.087   6.240
 4930POPC   D2A64084  37.144  22.907   6.628
 4930POPC   C3A64085  36.786  23.018   6.839
 4930POPC   C4A64086  36.873  23.119   7.241
 4930POPC   C1B64087  36.787  22.681   6.233
 4930POPC   C2B64088  36.808  22.305   6.448
 4930POPC   C3B64089  36.797  22.464   6.807
 4930POPC   C4B64090  36.837  22.611   7.181
 4931POPC   NC364091  17.601  32.118   5.313
 4931POPC   PO464092  17.131  32.384   5.444
 4931POPC   GL164093  17.365  32.144   5.779
 4931POPC   GL264094  17.578  32.402   5.804
 4931POPC   C1A64095  17.608  32.019   6.188
 4931POPC   D2A64096  17.444  31.937   6.617
 4931POPC   C3A64097  17.603  31.926   7.046
 4931POPC   C4A64098  17.530  32.118   7.468
 4931POPC   C1B64099  17.337  32.456   6.198
 4931POPC   C2B64100  17.410  32.444   6.635
 4931POPC   C3B64101  17.289  32.344   7.060
 4931POPC   C4B64102  17.217  32.606   7.424
 4932POPC   NC364103   4.958  24.713   5.544
 4932POPC   PO464104   5.407  24.298   5.358
 4932POPC   GL164105   5.193  24.218   5.750
 4932POPC   GL264106   4.834  24.290   5.794
 4932POPC   C1A64107   5.223  24.354   6.166
 4932POPC   D2A64108   5.315  24.551   6.551
 4932POPC   C3A64109   5.297  24.297   6.915
 4932POPC   C4A64110   5.109  24.325   7.330
 4932POPC   C1B64111   4.751  24.572   6.161
 4932POPC   C2B64112   4.861  24.825   6.536
 4932POPC   C3B64113   4.970  24.712   6.941
 4932POPC   C4B64114   4.694  24.618   7.296
 4933POPC   NC364115  43.234  28.767   5.356
 4933POPC   PO464116  42.958  29.314   5.277
 4933POPC   GL164117  43.006  29.101   5.675
 4933POPC   GL264118  42.727  28.972   5.805
 4933POPC   C1A64119  43.131  29.112   6.104
 4933POPC   D2A64120  43.084  29.337   6.493
 4933POPC   C3A64121  43.297  29.269   6.861
 4933POPC   C4A64122  43.110  29.367   7.220
 4933POPC   C1B64123  42.754  28.777   6.202
 4933POPC   C2B64124  42.567  28.761   6.608
 4933POPC   C3B64125  42.757  28.644   6.985
 4933POPC   C4B64126  42.904  28.897   7.309
 4934POPC   NC364127  21.937  42.211   5.242
 4934POPC   PO464128  21.567  41.843   5.578
 4934POPC   GL164129  21.506  42.233   5.837
 4934POPC   GL264130  21.172  42.427   5.866
 4934POPC   C1A64131  21.539  42.449   6.252
 4934POPC   D2A64132  21.318  42.341   6.644
 4934POPC   C3A64133  21.379  42.418   7.073
 4934POPC   C4A64134  21.704  42.381   7.363
 4934POPC   C1B64135  21.077  42.164   6.220
 4934POPC   C2B64136  20.864  42.106   6.627
 4934POPC   C3B64137  20.994  41.955   7.021
 4934POPC   C4B64138  21.174  42.087   7.419
 4935POPC   NC364139  44.361  20.975   5.554
 4935POPC   PO464140  44.977  20.663   5.461
 4935POPC   GL164141  44.688  20.685   5.841
 4935POPC   GL264142  44.561  20.391   5.984
 4935POPC   C1A64143  44.570  20.765   6.320
 4935POPC   D2A64144  44.403  20.533   6.687
 4935POPC   C3A64145  44.715  20.594   6.976
 4935POPC   C4A64146  44.737  20.778   7.411
 4935POPC   C1B64147  44.996  20.471   6.189
 4935POPC   C2B64148   0.293  20.390   6.533
 4935POPC   C3B64149   0.222  20.225   6.942
 4935POPC   C4B64150  44.867  20.198   7.247
 4936POPC   NC364151  42.457  33.528   5.443
 4936POPC   PO464152  42.270  34.112   5.477
 4936POPC   GL164153  42.220  33.919   5.822
 4936POPC   GL264154  42.056  33.635   5.735
 4936POPC   C1A64155  42.421  33.707   6.161
 4936POPC   D2A64156  42.586  33.591   6.564
 4936POPC   C3A64157  42.408  33.712   6.948
 4936POPC   C4A64158  42.436  33.824   7.351
 4936POPC   C1B64159  41.883  33.701   6.135
 4936POPC   C2B64160  42.061  33.726   6.540
 4936POPC   C3B64161  41.892  33.693   6.944
 4936POPC   C4B64162  42.012  33.565   7.358
 4937POPC   NC364163  13.291   3.986   5.335
 4937POPC   PO464164  13.989   3.973   5.404
 4937POPC   GL164165  13.853   4.144   5.868
 4937POPC   GL264166  13.506   4.164   5.791
 4937POPC   C1A64167  13.766   4.176   6.334
 4937POPC   D2A64168  13.871   4.125   6.782
 4937POPC   C3A64169  13.744   4.283   7.182
 4937POPC   C4A64170  13.948   4.476   7.562
 4937POPC   C1B64171  13.315   4.359   6.146
 4937POPC   C2B64172  13.348   4.333   6.590
 4937POPC   C3B64173  13.286   4.440   7.011
 4937POPC   C4B64174  13.301   4.339   7.396
 4938POPC   NC364175  35.847  31.296   5.466
 4938POPC   PO464176  36.282  31.754   5.346
 4938POPC   GL164177  36.303  31.602   5.752
 4938POPC   GL264178  36.275  31.224   5.773
 4938POPC   C1A64179  36.038  31.632   6.108
 4938POPC   D2A64180  35.845  31.322   6.405
 4938POPC   C3A64181  35.974  31.393   6.843
 4938POPC   C4A64182  35.827  31.312   7.260
 4938POPC   C1B64183  36.377  31.273   6.232
 4938POPC   C2B64184  36.566  31.257   6.658
 4938POPC   C3B64185  36.459  31.451   7.057
 4938POPC   C4B64186  36.330  31.316   7.458
 4939POPC   NC364187  11.733   6.041   5.389
 4939POPC   PO464188  12.392   5.831   5.487
 4939POPC   GL164189  12.101   5.894   5.789
 4939POPC   GL264190  11.797   5.674   5.803
 4939POPC   C1A64191  12.162   5.809   6.212
 4939POPC   D2A64192  12.064   5.698   6.620
 4939POPC   C3A64193  12.219   5.943   6.936
 4939POPC   C4A64194  11.884   6.088   7.205
 4939POPC   C1B64195  11.768   5.455   6.230
 4939POPC   C2B64196  11.810   5.263   6.654
 4939POPC   C3B64197  11.778   5.511   7.036
 4939POPC   C4B64198  12.099   5.625   7.312
 4940POPC   NC364199  27.610  25.151   5.273
 4940POPC   PO464200  27.709  25.674   5.755
 4940POPC   GL164201  27.583  25.251   5.768
 4940POPC   GL264202  27.843  25.016   5.832
 4940POPC   C1A64203  27.365  25.102   6.115
 4940POPC   D2A64204  27.333  25.345   6.505
 4940POPC   C3A64205  27.424  25.171   6.889
 4940POPC   C4A64206  27.608  25.328   7.259
 4940POPC   C1B64207  27.836  25.279   6.235
 4940POPC   C2B64208  27.841  25.367   6.681
 4940POPC   C3B64209  27.932  25.047   7.003
 4940POPC   C4B64210  28.091  25.181   7.420
 4941POPC   NC364211  31.692   9.868   5.473
 4941POPC   PO464212  31.203   9.539   5.250
 4941POPC   GL164213  31.294   9.778   5.753
 4941POPC   GL264214  31.653   9.661   5.923
 4941POPC   C1A64215  31.493  10.102   6.099
 4941POPC   D2A64216  31.764  10.166   6.478
 4941POPC   C3A64217  31.545  10.060   6.880
 4941POPC   C4A64218  31.272  10.045   7.248
 4941POPC   C1B64219  31.651   9.639   6.353
 4941POPC   C2B64220  31.564   9.433   6.719
 4941POPC   C3B64221  31.450   9.577   7.064
 4941POPC   C4B64222  31.811   9.703   7.266
 4942POPC   NC364223  31.285   2.500   5.384
 4942POPC   PO464224  31.732   3.043   5.278
 4942POPC   GL164225  31.673   2.806   5.629
 4942POPC   GL264226  31.340   2.924   5.745
 4942POPC   C1A64227  31.713   2.743   6.063
 4942POPC   D2A64228  31.700   2.983   6.380
 4942POPC   C3A64229  31.688   2.981   6.809
 4942POPC   C4A64230  31.613   2.817   7.225
 4942POPC   C1B64231  31.165   2.835   6.158
 4942POPC   C2B64232  31.299   2.703   6.557
 4942POPC   C3B64233  31.207   2.876   6.925
 4942POPC   C4B64234  31.123   2.681   7.283
 4943POPC   NC364235  19.372  37.425   5.252
 4943POPC   PO464236  18.945  37.929   5.370
 4943POPC   GL164237  19.164  37.639   5.686
 4943POPC   GL264238  19.066  37.891   5.885
 4943POPC   C1A64239  19.200  37.498   6.166
 4943POPC   D2A64240  18.957  37.738   6.525
 4943POPC   C3A64241  19.093  37.585   6.913
 4943POPC   C4A64242  19.296  37.580   7.284
 4943POPC   C1B64243  19.247  38.110   6.186
 4943POPC   C2B64244  19.172  38.214   6.598
 4943POPC   C3B64245  19.309  38.049   6.964
 4943POPC   C4B64246  19.250  38.082   7.374
 4944POPC   NC364247   6.022  36.856   5.590
 4944POPC   PO464248   5.485  36.388   5.371
 4944POPC   GL164249   5.487  36.709   5.754
 4944POPC   GL264250   5.601  37.078   5.805
 4944POPC   C1A64251   5.596  36.762   6.210
 4944POPC   D2A64252   5.701  36.539   6.603
 4944POPC   C3A64253   5.675  36.775   6.970
 4944POPC   C4A64254   6.105  36.721   7.101
 4944POPC   C1B64255   5.959  37.119   6.181
 4944POPC   C2B64256   5.985  37.062   6.651
 4944POPC   C3B64257   6.056  37.267   7.071
 4944POPC   C4B64258   6.138  37.301   7.539
 4945POPC   NC364259  10.237   8.033   5.581
 4945POPC   PO464260   9.738   8.388   5.148
 4945POPC   GL164261   9.716   8.098   5.555
 4945POPC   GL264262   9.603   8.316   5.820
 4945POPC   C1A64263   9.736   7.872   6.001
 4945POPC   D2A64264   9.664   7.898   6.474
 4945POPC   C3A64265   9.869   8.028   6.862
 4945POPC   C4A64266   9.739   8.112   7.273
 4945POPC   C1B64267   9.684   8.565   6.226
 4945POPC   C2B64268   9.892   8.500   6.638
 4945POPC   C3B64269   9.884   8.549   7.092
 4945POPC   C4B64270   9.749   8.558   7.546
 4946POPC   NC364271  30.244  37.808   5.039
 4946POPC   PO464272  29.754  37.533   5.333
 4946POPC   GL164273  29.831  37.602   5.802
 4946POPC   GL264274  29.814  37.291   5.895
 4946POPC   C1A64275  29.920  37.750   6.286
 4946POPC   D2A64276  30.113  37.973   6.697
 4946POPC   C3A64277  29.977  37.909   7.132
 4946POPC   C4A64278  29.819  37.510   7.243
 4946POPC   C1B64279  30.147  37.281   6.198
 4946POPC   C2B64280  30.328  37.527   6.544
 4946POPC   C3B64281  30.273  37.534   6.996
 4946POPC   C4B64282  30.340  37.707   7.448
 4947POPC   NC364283   3.453   4.956   5.380
 4947POPC   PO464284   3.963   5.453   5.463
 4947POPC   GL164285   3.859   5.187   5.860
 4947POPC   GL264286   3.622   4.901   5.861
 4947POPC   C1A64287   3.824   5.048   6.308
 4947POPC   D2A64288   3.629   4.795   6.635
 4947POPC   C3A64289   3.529   5.082   6.956
 4947POPC   C4A64290   3.816   5.220   7.272
 4947POPC   C1B64291   3.311   4.927   6.195
 4947POPC   C2B64292   3.125   4.772   6.574
 4947POPC   C3B64293   3.215   4.662   7.027
 4947POPC   C4B64294   3.561   4.731   7.335
 4948POPC   NC364295  24.745  34.094   5.209
 4948POPC   PO464296  24.449  33.552   5.573
 4948POPC   GL164297  24.295  33.588   5.952
 4948POPC   GL264298  24.527  33.881   5.951
 4948POPC   C1A64299  24.271  33.598   6.385
 4948POPC   D2A64300  24.595  33.769   6.621
 4948POPC   C3A64301  24.689  33.609   7.015
 4948POPC   C4A64302  24.573  33.739   7.428
 4948POPC   C1B64303  24.799  34.037   6.220
 4948POPC   C2B64304  24.767  34.259   6.580
 4948POPC   C3B64305  24.687  34.112   6.983
 4948POPC   C4B64306  24.252  33.881   7.029
 4949POPC   NC364307  18.614  43.963   5.455
 4949POPC   PO464308  19.236  44.043   5.308
 4949POPC   GL164309  19.065  43.989   5.726
 4949POPC   GL264310  18.953  43.657   5.694
 4949POPC   C1A64311  18.933  44.080   6.183
 4949POPC   D2A64312  19.033  44.210   6.638
 4949POPC   C3A64313  18.837  44.049   7.038
 4949POPC   C4A64314  18.989  44.147   7.488
 4949POPC   C1B64315  18.925  43.549   6.113
 4949POPC   C2B64316  18.897  43.698   6.537
 4949POPC   C3B64317  19.164  43.677   6.888
 4949POPC   C4B64318  19.073  43.644   7.319
 4950POPC   NC364319  43.979  38.860   5.283
 4950POPC   PO464320  43.641  39.416   5.344
 4950POPC   GL164321  43.791  39.368   5.745
 4950POPC   GL264322  43.871  39.014   5.769
 4950POPC   C1A64323  43.775  39.564   6.157
 4950POPC   D2A64324  43.968  39.664   6.550
 4950POPC   C3A64325  43.736  39.594   6.923
 4950POPC   C4A64326  43.773  39.238   7.156
 4950POPC   C1B64327  44.000  39.120   6.180
 4950POPC   C2B64328  43.881  39.160   6.620
 4950POPC   C3B64329  44.114  38.937   6.949
 4950POPC   C4B64330  43.750  38.703   7.070
 4951POPC   NC364331  40.021  17.482   5.098
 4951POPC   PO464332  39.589  17.238   5.369
 4951POPC   GL164333  39.638  17.245   5.878
 4951POPC   GL264334  39.746  17.589   5.980
 4951POPC   C1A64335  39.817  17.260   6.362
 4951POPC   D2A64336  39.797  17.479   6.809
 4951POPC   C3A64337  39.726  17.302   7.228
 4951POPC   C4A64338  39.821  16.864   7.446
 4951POPC   C1B64339  39.912  17.769   6.395
 4951POPC   C2B64340  39.755  17.993   6.774
 4951POPC   C3B64341  39.955  18.068   7.159
 4951POPC   C4B64342  39.826  18.262   7.572
 4952POPC   NC364343  32.866  16.969   4.900
 4952POPC   PO464344  33.173  17.262   5.434
 4952POPC   GL164345  32.996  17.470   5.835
 4952POPC   GL264346  32.630  17.568   5.798
 4952POPC   C1A64347  32.973  17.631   6.292
 4952POPC   D2A64348  32.923  17.799   6.708
 4952POPC   C3A64349  33.276  17.771   6.992
 4952POPC   C4A64350  33.245  17.674   7.438
 4952POPC   C1B64351  32.630  17.274   6.155
 4952POPC   C2B64352  32.788  17.188   6.560
 4952POPC   C3B64353  32.674  17.280   6.970
 4952POPC   C4B64354  32.814  17.617   7.205
 4953POPC   NC364355  35.031  21.033   5.451
 4953POPC   PO464356  35.243  20.428   5.224
 4953POPC   GL164357  35.283  20.474   5.682
 4953POPC   GL264358  35.605  20.434   5.839
 4953POPC   C1A64359  35.201  20.578   6.123
 4953POPC   D2A64360  35.431  20.686   6.508
 4953POPC   C3A64361  35.317  20.529   6.904
 4953POPC   C4A64362  35.096  20.652   7.295
 4953POPC   C1B64363  35.725  20.317   6.255
 4953POPC   C2B64364  35.933  20.578   6.570
 4953POPC   C3B64365  35.791  20.754   6.936
 4953POPC   C4B64366  35.773  20.451   7.222
 4954POPC   NC364367  40.714  38.055   5.158
 4954POPC   PO464368  41.114  37.462   5.352
 4954POPC   GL164369  40.863  37.551   5.700
 4954POPC   GL264370  40.485  37.563   5.647
 4954POPC   C1A64371  41.013  37.590   6.121
 4954POPC   D2A64372  41.037  37.444   6.552
 4954POPC   C3A64373  41.225  37.718   6.834
 4954POPC   C4A64374  41.109  37.783   7.261
 4954POPC   C1B64375  40.516  37.754   6.071
 4954POPC   C2B64376  40.722  37.863   6.465
 4954POPC   C3B64377  40.741  37.859   6.900
 4954POPC   C4B64378  40.594  37.713   7.279
 4955POPC   NC364379  11.527  34.053   5.616
 4955POPC   PO464380  12.008  33.708   5.312
 4955POPC   GL164381  12.092  33.812   5.799
 4955POPC   GL264382  11.859  34.003   5.992
 4955POPC   C1A64383  12.269  33.983   6.254
 4955POPC   D2A64384  12.193  34.064   6.712
 4955POPC   C3A64385  12.348  33.758   7.045
 4955POPC   C4A64386  12.333  33.684   7.504
 4955POPC   C1B64387  11.881  33.643   6.313
 4955POPC   C2B64388  11.901  33.613   6.772
 4955POPC   C3B64389  11.862  33.897   7.100
 4955POPC   C4B64390  11.886  33.999   7.531
 4956POPC   NC364391  37.649  37.049   5.619
 4956POPC   PO464392  38.157  36.574   5.426
 4956POPC   GL164393  37.944  36.726   5.849
 4956POPC   GL264394  37.605  36.657   5.932
 4956POPC   C1A64395  37.905  36.970   6.267
 4956POPC   D2A64396  37.829  37.133   6.719
 4956POPC   C3A64397  37.820  36.867   7.106
 4956POPC   C4A64398  37.900  36.904   7.571
 4956POPC   C1B64399  37.388  36.924   6.230
 4956POPC   C2B64400  37.334  37.076   6.614
 4956POPC   C3B64401  37.291  36.906   7.000
 4956POPC   C4B64402  37.398  36.690   7.418
 4957POPC   NC364403   6.937   7.445   5.543
 4957POPC   PO464404   6.389   7.702   5.267
 4957POPC   GL164405   6.349   7.649   5.761
 4957POPC   GL264406   6.673   7.820   5.797
 4957POPC   C1A64407   6.290   7.427   6.245
 4957POPC   D2A64408   6.365   7.381   6.756
 4957POPC   C3A64409   6.801   7.363   6.966
 4957POPC   C4A64410   7.129   7.369   7.315
 4957POPC   C1B64411   6.556   7.869   6.222
 4957POPC   C2B64412   6.623   7.838   6.656
 4957POPC   C3B64413   6.573   7.804   7.082
 4957POPC   C4B64414   6.719   7.665   7.451
 4958POPC   NC364415   1.521  36.639   5.249
 4958POPC   PO464416   2.093  36.948   5.465
 4958POPC   GL164417   2.018  37.157   5.884
 4958POPC   GL264418   2.166  36.906   6.084
 4958POPC   C1A64419   1.788  37.247   6.300
 4958POPC   D2A64420   1.619  37.256   6.742
 4958POPC   C3A64421   1.689  36.970   7.093
 4958POPC   C4A64422   2.001  36.680   7.338
 4958POPC   C1B64423   2.319  37.275   6.301
 4958POPC   C2B64424   2.129  37.332   6.711
 4958POPC   C3B64425   2.191  37.128   7.120
 4958POPC   C4B64426   2.349  37.023   7.539
 4959POPC   NC364427  22.336  39.115   5.411
 4959POPC   PO464428  21.766  39.335   5.454
 4959POPC   GL164429  22.013  39.037   5.817
 4959POPC   GL264430  22.377  38.844   5.837
 4959POPC   C1A64431  22.233  39.067   6.270
 4959POPC   D2A64432  22.363  39.328   6.651
 4959POPC   C3A64433  22.140  39.293   7.060
 4959POPC   C4A64434  21.950  39.654   7.280
 4959POPC   C1B64435  22.651  38.747   6.158
 4959POPC   C2B64436  22.745  38.981   6.534
 4959POPC   C3B64437  22.568  38.979   6.964
 4959POPC   C4B64438  22.382  38.913   7.386
 4960POPC   NC364439  25.572  35.578   5.472
 4960POPC   PO464440  24.929  35.218   5.533
 4960POPC   GL164441  25.274  35.330   5.797
 4960POPC   GL264442  25.538  35.107   5.836
 4960POPC   C1A64443  25.305  35.574   6.156
 4960POPC   D2A64444  25.141  35.482   6.549
 4960POPC   C3A64445  25.387  35.553   6.905
 4960POPC   C4A64446  25.125  35.480   7.261
 4960POPC   C1B64447  25.463  35.053   6.217
 4960POPC   C2B64448  25.464  35.100   6.637
 4960POPC   C3B64449  25.226  35.074   6.956
 4960POPC   C4B64450  25.497  35.077   7.278
 4961POPC   NC364451  16.261  28.370   5.589
 4961POPC   PO464452  16.866  28.401   5.561
 4961POPC   GL164453  16.651  28.482   5.963
 4961POPC   GL264454  16.338  28.681   6.016
 4961POPC   C1A64455  16.510  28.370   6.385
 4961POPC   D2A64456  16.379  28.557   6.778
 4961POPC   C3A64457  16.669  28.350   7.063
 4961POPC   C4A64458  17.132  28.316   7.074
 4961POPC   C1B64459  16.605  28.865   6.401
 4961POPC   C2B64460  16.885  28.694   6.727
 4961POPC   C3B64461  16.932  28.790   7.169
 4961POPC   C4B64462  16.982  28.861   7.609
 4962POPC   NC364463   8.042  25.983   5.244
 4962POPC   PO464464   8.612  25.639   5.532
 4962POPC   GL164465   8.259  25.913   5.721
 4962POPC   GL264466   7.881  25.814   5.744
 4962POPC   C1A64467   8.223  26.032   6.148
 4962POPC   D2A64468   8.326  25.875   6.580
 4962POPC   C3A64469   8.295  26.168   6.963
 4962POPC   C4A64470   8.580  26.358   7.248
 4962POPC   C1B64471   7.923  25.582   6.184
 4962POPC   C2B64472   7.869  25.606   6.676
 4962POPC   C3B64473   7.914  25.847   7.099
 4962POPC   C4B64474   7.880  25.803   7.576
 4963POPC   NC364475  18.632  17.110   5.524
 4963POPC   PO464476  18.263  16.580   5.306
 4963POPC   GL164477  18.326  16.753   5.759
 4963POPC   GL264478  18.063  16.974   5.930
 4963POPC   C1A64479  18.252  16.603   6.199
 4963POPC   D2A64480  18.024  16.774   6.563
 4963POPC   C3A64481  18.369  16.839   6.813
 4963POPC   C4A64482  18.613  16.731   7.150
 4963POPC   C1B64483  18.317  17.109   6.296
 4963POPC   C2B64484  18.344  17.319   6.693
 4963POPC   C3B64485  18.139  17.214   7.088
 4963POPC   C4B64486  18.009  16.918   7.369
 4964POPC   NC364487   2.178   8.223   5.243
 4964POPC   PO464488   1.708   7.907   5.536
 4964POPC   GL164489   1.898   8.149   5.849
 4964POPC   GL264490   2.237   8.177   5.774
 4964POPC   C1A64491   1.883   8.308   6.267
 4964POPC   D2A64492   1.616   8.489   6.556
 4964POPC   C3A64493   1.659   8.258   6.948
 4964POPC   C4A64494   1.862   8.046   7.321
 4964POPC   C1B64495   2.406   8.330   6.195
 4964POPC   C2B64496   2.269   8.392   6.627
 4964POPC   C3B64497   2.169   8.342   7.047
 4964POPC   C4B64498   2.391   8.355   7.430
 4965POPC   NC364499  15.827  36.964   5.422
 4965POPC   PO464500  16.218  36.518   5.464
 4965POPC   GL164501  16.123  36.898   5.836
 4965POPC   GL264502  15.773  37.093   5.922
 4965POPC   C1A64503  16.144  37.066   6.301
 4965POPC   D2A64504  15.968  37.090   6.746
 4965POPC   C3A64505  16.190  37.018   7.143
 4965POPC   C4A64506  16.308  36.729   7.472
 4965POPC   C1B64507  15.594  37.109   6.348
 4965POPC   C2B64508  15.332  37.063   6.739
 4965POPC   C3B64509  15.560  37.037   7.136
 4965POPC   C4B64510  15.847  37.045   7.500
 4966POPC   NC364511   1.203  18.307   5.372
 4966POPC   PO464512   1.577  17.888   5.748
 4966POPC   GL164513   1.373  18.284   5.927
 4966POPC   GL264514   1.114  18.555   5.863
 4966POPC   C1A64515   1.272  18.464   6.369
 4966POPC   D2A64516   1.323  18.502   6.828
 4966POPC   C3A64517   1.185  18.136   7.044
 4966POPC   C4A64518   1.217  18.221   7.496
 4966POPC   C1B64519   0.803  18.380   6.198
 4966POPC   C2B64520   0.854  18.373   6.678
 4966POPC   C3B64521   0.870  18.510   7.160
 4966POPC   C4B64522   0.771  18.385   7.645
 4967POPC   NC364523   6.096   8.948   5.387
 4967POPC   PO464524   5.624   8.615   5.632
 4967POPC   GL164525   5.726   9.033   5.798
 4967POPC   GL264526   5.999   9.266   5.785
 4967POPC   C1A64527   5.909   9.027   6.235
 4967POPC   D2A64528   6.200   8.966   6.599
 4967POPC   C3A64529   5.916   8.936   6.952
 4967POPC   C4A64530   5.527   8.902   7.144
 4967POPC   C1B64531   6.138   9.488   6.169
 4967POPC   C2B64532   6.344   9.450   6.563
 4967POPC   C3B64533   6.231   9.349   6.996
 4967POPC   C4B64534   6.029   9.290   7.382
 4968POPC   NC364535  34.838  34.456   5.037
 4968POPC   PO464536  35.251  34.807   5.437
 4968POPC   GL164537  35.227  34.593   5.806
 4968POPC   GL264538  35.519  34.451   5.829
 4968POPC   C1A64539  35.051  34.493   6.200
 4968POPC   D2A64540  35.261  34.532   6.563
 4968POPC   C3A64541  35.206  34.317   6.905
 4968POPC   C4A64542  35.260  34.491   7.272
 4968POPC   C1B64543  35.647  34.574   6.224
 4968POPC   C2B64544  35.735  34.348   6.626
 4968POPC   C3B64545  35.706  34.411   7.059
 4968POPC   C4B64546  35.685  34.333   7.542
 4969POPC   NC364547  18.159   1.468   5.519
 4969POPC   PO464548  18.093   0.797   5.336
 4969POPC   GL164549  18.228   0.921   5.787
 4969POPC   GL264550  18.077   1.217   5.965
 4969POPC   C1A64551  18.497   1.030   6.166
 4969POPC   D2A64552  18.470   1.450   6.377
 4969POPC   C3A64553  18.259   1.447   6.795
 4969POPC   C4A64554  18.364   1.539   7.224
 4969POPC   C1B64555  18.042   1.124   6.426
 4969POPC   C2B64556  18.250   0.931   6.781
 4969POPC   C3B64557  18.211   1.043   7.215
 4969POPC   C4B64558  17.841   1.067   7.480
 4970POPC   NC364559  30.520  26.496   5.553
 4970POPC   PO464560  30.928  25.972   5.458
 4970POPC   GL164561  30.597  26.022   5.781
 4970POPC   GL264562  30.809  25.901   5.982
 4970POPC   C1A64563  30.502  26.188   6.262
 4970POPC   D2A64564  30.715  26.320   6.658
 4970POPC   C3A64565  30.736  26.132   7.084
 4970POPC   C4A64566  30.688  26.170   7.549
 4970POPC   C1B64567  30.662  25.709   6.318
 4970POPC   C2B64568  30.626  25.790   6.728
 4970POPC   C3B64569  30.725  25.610   7.105
 4970POPC   C4B64570  31.000  25.816   7.413
 4971POPC   NC364571  33.567   4.026   5.598
 4971POPC   PO464572  33.411   3.353   5.464
 4971POPC   GL164573  33.755   3.478   5.735
 4971POPC   GL264574  33.519   3.624   5.906
 4971POPC   C1A64575  33.915   3.410   6.172
 4971POPC   D2A64576  33.787   3.433   6.631
 4971POPC   C3A64577  33.912   3.585   7.065
 4971POPC   C4A64578  34.039   3.265   7.366
 4971POPC   C1B64579  33.396   3.366   6.235
 4971POPC   C2B64580  33.335   3.177   6.606
 4971POPC   C3B64581  33.445   3.340   6.990
 4971POPC   C4B64582  33.260   3.466   7.314
 4972POPC   NC364583  42.428  38.958   5.734
 4972POPC   PO464584  42.134  38.600   5.318
 4972POPC   GL164585  42.244  38.508   5.799
 4972POPC   GL264586  42.579  38.424   5.780
 4972POPC   C1A64587  42.304  38.282   6.189
 4972POPC   D2A64588  42.522  38.328   6.580
 4972POPC   C3A64589  42.270  38.441   6.926
 4972POPC   C4A64590  41.895  38.241   7.066
 4972POPC   C1B64591  42.760  38.567   6.203
 4972POPC   C2B64592  42.947  38.768   6.614
 4972POPC   C3B64593  42.920  38.796   7.068
 4972POPC   C4B64594  42.547  38.697   7.274
 4973POPC   NC364595  29.097   1.890   5.176
 4973POPC   PO464596  29.660   2.176   5.398
 4973POPC   GL164597  29.425   2.319   5.765
 4973POPC   GL264598  29.197   2.045   5.725
 4973POPC   C1A64599  29.258   2.395   6.192
 4973POPC   D2A64600  29.203   2.064   6.513
 4973POPC   C3A64601  29.248   2.156   6.956
 4973POPC   C4A64602  29.255   1.948   7.357
 4973POPC   C1B64603  28.890   2.073   6.059
 4973POPC   C2B64604  28.692   2.023   6.468
 4973POPC   C3B64605  28.703   2.112   6.899
 4973POPC   C4B64606  28.531   2.319   7.267
 4974POPC   NC364607   2.619  12.837   5.111
 4974POPC   PO464608   2.978  13.211   5.572
 4974POPC   GL164609   2.930  13.137   5.980
 4974POPC   GL264610   2.863  12.784   6.006
 4974POPC   C1A64611   2.840  13.131   6.402
 4974POPC   D2A64612   2.602  12.879   6.650
 4974POPC   C3A64613   2.630  13.088   7.001
 4974POPC   C4A64614   2.789  13.193   7.373
 4974POPC   C1B64615   2.573  12.546   6.241
 4974POPC   C2B64616   2.425  12.400   6.652
 4974POPC   C3B64617   2.524  12.538   7.049
 4974POPC   C4B64618   2.880  12.687   7.268
 4975POPC   NC364619  20.548  28.767   5.639
 4975POPC   PO464620  20.354  29.343   5.334
 4975POPC   GL164621  20.524  29.355   5.723
 4975POPC   GL264622  20.260  29.160   5.893
 4975POPC   C1A64623  20.742  29.228   6.094
 4975POPC   D2A64624  20.606  29.105   6.501
 4975POPC   C3A64625  20.797  28.846   6.819
 4975POPC   C4A64626  21.033  28.982   7.187
 4975POPC   C1B64627  20.190  28.907   6.283
 4975POPC   C2B64628  20.254  28.809   6.737
 4975POPC   C3B64629  20.415  29.050   7.103
 4975POPC   C4B64630  20.162  29.007   7.486
 4976POPC   NC364631  17.747  31.129   5.314
 4976POPC   PO464632  17.945  31.819   5.318
 4976POPC   GL164633  17.679  31.732   5.717
 4976POPC   GL264634  17.733  31.372   5.772
 4976POPC   C1A64635  17.404  31.570   6.108
 4976POPC   D2A64636  17.399  31.289   6.485
 4976POPC   C3A64637  17.383  31.473   6.908
 4976POPC   C4A64638  17.514  31.383   7.334
 4976POPC   C1B64639  17.873  31.386   6.210
 4976POPC   C2B64640  17.807  31.573   6.615
 4976POPC   C3B64641  17.926  31.506   7.042
 4976POPC   C4B64642  17.877  31.730   7.443
 4977POPC   NC364643  13.918  38.819   5.625
 4977POPC   PO464644  14.507  38.519   5.505
 4977POPC   GL164645  14.514  38.431   5.919
 4977POPC   GL264646  14.674  38.692   6.103
 4977POPC   C1A64647  14.536  38.208   6.321
 4977POPC   D2A64648  14.631  38.300   6.744
 4977POPC   C3A64649  14.605  38.093   7.147
 4977POPC   C4A64650  14.506  38.336   7.523
 4977POPC   C1B64651  14.219  38.724   6.211
 4977POPC   C2B64652  14.018  38.623   6.569
 4977POPC   C3B64653  14.267  38.604   6.928
 4977POPC   C4B64654  14.258  38.839   7.292
 4978POPC   NC364655  14.133  22.508   5.757
 4978POPC   PO464656  14.629  22.132   5.422
 4978POPC   GL164657  14.440  22.005   5.823
 4978POPC   GL264658  14.590  22.301   5.960
 4978POPC   C1A64659  14.436  21.973   6.313
 4978POPC   D2A64660  14.565  22.101   6.735
 4978POPC   C3A64661  14.278  21.961   7.071
 4978POPC   C4A64662  14.092  21.666   7.373
 4978POPC   C1B64663  14.702  22.481   6.385
 4978POPC   C2B64664  14.928  22.459   6.809
 4978POPC   C3B64665  14.677  22.399   7.179
 4978POPC   C4B64666  14.251  22.535   7.147
 4979POPC   NC364667  32.018   2.736   5.083
 4979POPC   PO464668  32.479   2.582   5.561
 4979POPC   GL164669  32.150   2.612   5.822
 4979POPC   GL264670  32.201   2.911   5.946
 4979POPC   C1A64671  32.116   2.504   6.269
 4979POPC   D2A64672  31.813   2.513   6.602
 4979POPC   C3A64673  32.015   2.611   7.008
 4979POPC   C4A64674  31.965   2.547   7.502
 4979POPC   C1B64675  32.545   2.786   6.206
 4979POPC   C2B64676  32.519   2.634   6.619
 4979POPC   C3B64677  32.587   2.880   6.932
 4979POPC   C4B64678  32.374   2.817   7.307
 4980POPC   NC364679  38.261  43.406   5.486
 4980POPC   PO464680  38.868  42.945   5.446
 4980POPC   GL164681  38.792  43.017   5.886
 4980POPC   GL264682  38.697  43.378   5.846
 4980POPC   C1A64683  38.519  42.975   6.290
 4980POPC   D2A64684  38.134  43.005   6.581
 4980POPC   C3A64685  38.214  43.166   7.010
 4980POPC   C4A64686  38.624  43.011   7.173
 4980POPC   C1B64687  38.451  43.478   6.208
 4980POPC   C2B64688  38.532  43.438   6.648
 4980POPC   C3B64689  38.841  43.405   6.980
 4980POPC   C4B64690  38.730  43.466   7.465
 4981POPC   NC364691  40.135  26.919   5.464
 4981POPC   PO464692  39.630  26.414   5.489
 4981POPC   GL164693  39.801  26.738   5.800
 4981POPC   GL264694  40.188  26.679   5.907
 4981POPC   C1A64695  39.893  27.007   6.173
 4981POPC   D2A64696  39.896  26.850   6.590
 4981POPC   C3A64697  39.994  27.051   6.945
 4981POPC   C4A64698  39.700  26.942   7.234
 4981POPC   C1B64699  40.337  26.754   6.344
 4981POPC   C2B64700  40.355  26.700   6.810
 4981POPC   C3B64701  40.319  26.674   7.255
 4981POPC   C4B64702  40.495  26.784   7.680
 4982POPC   NC364703   2.721   8.863   5.375
 4982POPC   PO464704   3.380   9.117   5.353
 4982POPC   GL164705   3.085   9.013   5.707
 4982POPC   GL264706   2.776   9.225   5.786
 4982POPC   C1A64707   3.055   9.028   6.156
 4982POPC   D2A64708   3.148   9.231   6.541
 4982POPC   C3A64709   2.947   9.050   6.890
 4982POPC   C4A64710   2.643   9.162   7.173
 4982POPC   C1B64711   2.542   9.073   6.182
 4982POPC   C2B64712   2.587   8.822   6.573
 4982POPC   C3B64713   2.584   8.655   6.981
 4982POPC   C4B64714   2.269   8.822   7.226
 4983POPC   NC364715  38.585  37.397   5.560
 4983POPC   PO464716  38.450  38.042   5.249
 4983POPC   GL164717  38.171  37.952   5.702
 4983POPC   GL264718  38.157  37.555   5.813
 4983POPC   C1A64719  38.081  37.844   6.195
 4983POPC   D2A64720  38.099  37.518   6.517
 4983POPC   C3A64721  38.352  37.525   6.858
 4983POPC   C4A64722  38.278  37.737   7.207
 4983POPC   C1B64723  38.339  37.282   6.151
 4983POPC   C2B64724  38.662  37.241   6.487
 4983POPC   C3B64725  38.760  37.208   6.932
 4983POPC   C4B64726  38.640  37.407   7.341
 4984POPC   NC364727   9.887  31.379   5.336
 4984POPC   PO464728   9.787  31.975   5.499
 4984POPC   GL164729   9.679  31.611   5.757
 4984POPC   GL264730   9.480  31.287   5.634
 4984POPC   C1A64731   9.779  31.331   6.094
 4984POPC   D2A64732   9.980  31.310   6.515
 4984POPC   C3A64733   9.750  31.339   6.911
 4984POPC   C4A64734   9.789  31.455   7.341
 4984POPC   C1B64735   9.397  30.974   5.968
 4984POPC   C2B64736   9.241  30.913   6.400
 4984POPC   C3B64737   9.361  31.022   6.821
 4984POPC   C4B64738   9.487  31.022   7.225
 4985POPC   NC364739  38.241  11.072   5.346
 4985POPC   PO464740  38.652  11.607   5.462
 4985POPC   GL164741  38.486  11.300   5.742
 4985POPC   GL264742  38.121  11.333   5.784
 4985POPC   C1A64743  38.470  11.211   6.174
 4985POPC   D2A64744  38.628  11.432   6.525
 4985POPC   C3A64745  38.641  11.159   6.851
 4985POPC   C4A64746  38.656  11.264   7.261
 4985POPC   C1B64747  38.039  11.484   6.206
 4985POPC   C2B64748  38.138  11.278   6.638
 4985POPC   C3B64749  38.156  11.215   7.112
 4985POPC   C4B64750  38.220  11.080   7.585
 4986POPC   NC364751  25.023  11.425   5.481
 4986POPC   PO464752  25.622  11.071   5.449
 4986POPC   GL164753  25.494  11.305   5.838
 4986POPC   GL264754  25.228  11.533   5.940
 4986POPC   C1A64755  25.484  11.292   6.310
 4986POPC   D2A64756  25.256  11.038   6.595
 4986POPC   C3A64757  25.327  11.150   6.996
 4986POPC   C4A64758  25.082  11.361   7.238
 4986POPC   C1B64759  25.094  11.745   6.313
 4986POPC   C2B64760  25.031  11.622   6.733
 4986POPC   C3B64761  24.773  11.717   7.053
 4986POPC   C4B64762  24.650  11.543   7.449
 4987POPC   NC364763  43.653  13.734   5.499
 4987POPC   PO464764  43.981  13.258   5.231
 4987POPC   GL164765  44.089  13.358   5.712
 4987POPC   GL264766  44.071  13.698   5.783
 4987POPC   C1A64767  44.200  13.457   6.185
 4987POPC   D2A64768  43.842  13.499   6.484
 4987POPC   C3A64769  43.790  13.456   6.912
 4987POPC   C4A64770  43.990  13.340   7.273
 4987POPC   C1B64771  43.878  13.884   6.140
 4987POPC   C2B64772  43.732  14.031   6.534
 4987POPC   C3B64773  43.480  14.008   6.893
 4987POPC   C4B64774  43.581  13.775   7.253
 4988POPC   NC364775   8.482  25.180   5.341
 4988POPC   PO464776   9.095  24.910   5.491
 4988POPC   GL164777   8.908  25.223   5.768
 4988POPC   GL264778   8.610  25.132   5.840
 4988POPC   C1A64779   8.967  25.459   6.147
 4988POPC   D2A64780   9.303  25.534   6.480
 4988POPC   C3A64781   9.160  25.590   6.920
 4988POPC   C4A64782   9.296  25.649   7.367
 4988POPC   C1B64783   8.665  25.060   6.273
 4988POPC   C2B64784   8.837  25.271   6.645
 4988POPC   C3B64785   8.972  25.083   7.039
 4988POPC   C4B64786   8.882  25.056   7.501
 4989POPC   NC364787  19.481   7.433   5.240
 4989POPC   PO464788  19.962   7.030   5.398
 4989POPC   GL164789  19.804   7.290   5.755
 4989POPC   GL264790  19.778   7.653   5.684
 4989POPC   C1A64791  19.831   7.297   6.234
 4989POPC   D2A64792  20.155   7.089   6.539
 4989POPC   C3A64793  20.066   7.017   6.976
 4989POPC   C4A64794  19.651   7.140   7.160
 4989POPC   C1B64795  19.491   7.711   6.061
 4989POPC   C2B64796  19.392   7.638   6.537
 4989POPC   C3B64797  19.719   7.575   6.854
 4989POPC   C4B64798  20.047   7.492   7.162
 4990POPC   NC364799  42.879   9.142   5.300
 4990POPC   PO464800  43.339   8.637   5.439
 4990POPC   GL164801  43.053   8.787   5.738
 4990POPC   GL264802  43.176   9.103   5.723
 4990POPC   C1A64803  43.094   8.925   6.206
 4990POPC   D2A64804  43.260   8.819   6.645
 4990POPC   C3A64805  42.992   8.873   7.031
 4990POPC   C4A64806  42.804   8.833   7.447
 4990POPC   C1B64807  43.386   9.323   6.046
 4990POPC   C2B64808  43.293   9.389   6.461
 4990POPC   C3B64809  43.249   9.280   6.875
 4990POPC   C4B64810  43.519   9.396   7.189
 4991POPC   NC364811  35.758  29.719   5.471
 4991POPC   PO464812  36.424  29.762   5.494
 4991POPC   GL164813  36.120  29.845   5.827
 4991POPC   GL264814  35.843  30.115   5.835
 4991POPC   C1A64815  35.935  29.670   6.188
 4991POPC   D2A64816  35.811  29.784   6.594
 4991POPC   C3A64817  36.071  29.895   6.872
 4991POPC   C4A64818  36.030  29.987   7.257
 4991POPC   C1B64819  36.188  30.281   6.089
 4991POPC   C2B64820  36.320  30.401   6.491
 4991POPC   C3B64821  36.197  30.412   6.891
 4991POPC   C4B64822  36.399  30.385   7.275
 4992POPC   NC364823  28.951  33.306   5.379
 4992POPC   PO464824  29.527  32.882   5.319
 4992POPC   GL164825  29.239  32.961   5.630
 4992POPC   GL264826  29.445  33.240   5.757
 4992POPC   C1A64827  29.086  33.003   6.067
 4992POPC   D2A64828  29.286  33.092   6.485
 4992POPC   C3A64829  29.056  32.986   6.846
 4992POPC   C4A64830  28.721  32.973   7.143
 4992POPC   C1B64831  29.522  33.431   6.171
 4992POPC   C2B64832  29.445  33.564   6.623
 4992POPC   C3B64833  29.387  33.386   7.070
 4992POPC   C4B64834  29.195  33.060   7.332
 4993POPC   NC364835  27.903  26.119   5.527
 4993POPC   PO464836  27.543  25.602   5.260
 4993POPC   GL164837  27.400  26.051   5.663
 4993POPC   GL264838  27.641  26.314   5.891
 4993POPC   C1A64839  27.353  26.047   6.177
 4993POPC   D2A64840  27.650  25.882   6.516
 4993POPC   C3A64841  27.514  25.704   6.916
 4993POPC   C4A64842  27.541  25.825   7.362
 4993POPC   C1B64843  27.947  26.326   6.249
 4993POPC   C2B64844  28.054  26.171   6.676
 4993POPC   C3B64845  27.785  26.136   7.031
 4993POPC   C4B64846  27.667  26.348   7.425
 4994POPC   NC364847   8.053  21.742   5.530
 4994POPC   PO464848   8.541  22.151   5.572
 4994POPC   GL164849   8.320  22.367   5.871
 4994POPC   GL264850   7.962  22.207   5.872
 4994POPC   C1A64851   8.294  22.233   6.281
 4994POPC   D2A64852   7.955  22.219   6.523
 4994POPC   C3A64853   8.101  22.317   6.884
 4994POPC   C4A64854   8.307  22.143   7.215
 4994POPC   C1B64855   7.907  21.842   6.159
 4994POPC   C2B64856   7.685  21.765   6.548
 4994POPC   C3B64857   7.717  21.963   6.898
 4994POPC   C4B64858   7.670  21.782   7.242
 4995POPC   NC364859  24.233  41.947   5.107
 4995POPC   PO464860  24.661  41.632   5.440
 4995POPC   GL164861  24.651  41.482   5.843
 4995POPC   GL264862  24.308  41.624   5.855
 4995POPC   C1A64863  24.474  41.258   6.192
 4995POPC   D2A64864  24.379  41.426   6.573
 4995POPC   C3A64865  24.403  41.303   6.974
 4995POPC   C4A64866  24.385  41.502   7.368
 4995POPC   C1B64867  24.434  41.786   6.223
 4995POPC   C2B64868  24.247  41.892   6.601
 4995POPC   C3B64869  24.484  41.919   6.973
 4995POPC   C4B64870  24.355  42.025   7.358
 4996POPC   NC364871   1.033  35.795   5.476
 4996POPC   PO464872   1.443  36.192   5.308
 4996POPC   GL164873   1.339  36.109   5.749
 4996POPC   GL264874   1.001  36.236   5.801
 4996POPC   C1A64875   1.299  36.060   6.204
 4996POPC   D2A64876   1.237  36.225   6.628
 4996POPC   C3A64877   1.232  36.026   7.070
 4996POPC   C4A64878   1.562  36.025   7.397
 4996POPC   C1B64879   1.027  36.498   6.203
 4996POPC   C2B64880   0.924  36.648   6.596
 4996POPC   C3B64881   1.014  36.478   7.004
 4996POPC   C4B64882   1.159  36.351   7.490
 4997POPC   NC364883  33.819  38.666   5.387
 4997POPC   PO464884  34.029  37.990   5.566
 4997POPC   GL164885  33.884  38.331   5.773
 4997POPC   GL264886  34.197  38.511   5.720
 4997POPC   C1A64887  33.625  38.461   6.130
 4997POPC   D2A64888  33.752  38.606   6.547
 4997POPC   C3A64889  33.729  38.387   6.932
 4997POPC   C4A64890  34.020  38.243   7.233
 4997POPC   C1B64891  34.123  38.638   6.145
 4997POPC   C2B64892  34.276  38.611   6.581
 4997POPC   C3B64893  34.129  38.712   7.006
 4997POPC   C4B64894  34.059  38.719   7.470
 4998POPC   NC364895   6.676   5.469   5.536
 4998POPC   PO464896   6.474   4.861   5.553
 4998POPC   GL164897   6.604   5.095   5.894
 4998POPC   GL264898   6.951   5.160   5.819
 4998POPC   C1A64899   6.503   5.231   6.292
 4998POPC   D2A64900   6.418   5.405   6.676
 4998POPC   C3A64901   6.577   5.124   7.013
 4998POPC   C4A64902   6.826   4.966   7.300
 4998POPC   C1B64903   7.008   5.281   6.234
 4998POPC   C2B64904   6.923   5.172   6.662
 4998POPC   C3B64905   7.111   5.343   7.063
 4998POPC   C4B64906   7.031   5.371   7.532
 4999POPC   NC364907   2.082  20.267   4.981
 4999POPC   PO464908   1.939  20.841   5.351
 4999POPC   GL164909   2.066  20.781   5.774
 4999POPC   GL264910   2.369  20.998   5.792
 4999POPC   C1A64911   2.065  20.496   6.153
 4999POPC   D2A64912   2.381  20.394   6.469
 4999POPC   C3A64913   2.192  20.332   6.873
 4999POPC   C4A64914   1.891  20.416   7.254
 4999POPC   C1B64915   2.223  20.958   6.229
 4999POPC   C2B64916   2.077  20.806   6.632
 4999POPC   C3B64917   2.206  20.812   7.068
 4999POPC   C4B64918   1.977  20.895   7.426
 5000POPC   NC364919  24.777  18.069   5.497
 5000POPC   PO464920  24.354  18.611   5.334
 5000POPC   GL164921  24.408  18.361   5.756
 5000POPC   GL264922  24.744  18.305   5.936
 5000POPC   C1A64923  24.231  18.204   6.175
 5000POPC   D2A64924  23.946  18.209   6.561
 5000POPC   C3A64925  24.133  18.290   6.967
 5000POPC   C4A64926  24.369  18.001   7.205
 5000POPC   C1B64927  24.707  18.658   6.196
 5000POPC   C2B64928  24.648  18.701   6.639
 5000POPC   C3B64929  24.629  18.363   6.938
 5000POPC   C4B64930  24.847  18.229   7.321
 5001POPC   NC364931  43.649  43.412   5.441
 5001POPC   PO464932  44.286  43.151   5.173
 5001POPC   GL164933  44.119  43.163   5.658
 5001POPC   GL264934  43.839  43.180   5.846
 5001POPC   C1A64935  44.184  43.211   6.184
 5001POPC   D2A64936  43.982  43.139   6.612
 5001POPC   C3A64937  43.808  43.389   6.966
 5001POPC   C4A64938  43.575  43.381   7.370
 5001POPC   C1B64939  43.676  42.856   6.101
 5001POPC   C2B64940  43.606  42.799   6.510
 5001POPC   C3B64941  43.483  42.991   6.877
 5001POPC   C4B64942  43.731  42.875   7.233
 5002POPC   NC364943  10.363   6.381   5.130
 5002POPC   PO464944   9.736   6.598   5.434
 5002POPC   GL164945   9.855   6.753   5.793
 5002POPC   GL264946   9.527   6.676   5.924
 5002POPC   C1A64947   9.888   6.982   6.152
 5002POPC   D2A64948   9.689   6.924   6.554
 5002POPC   C3A64949   9.955   6.765   6.873
 5002POPC   C4A64950   9.839   6.811   7.293
 5002POPC   C1B64951   9.784   6.506   6.276
 5002POPC   C2B64952   9.659   6.356   6.633
 5002POPC   C3B64953   9.504   6.553   6.983
 5002POPC   C4B64954   9.536   6.402   7.367
 5003POPC   NC364955   3.087  16.701   5.440
 5003POPC   PO464956   2.401  16.629   5.402
 5003POPC   GL164957   2.654  16.770   5.758
 5003POPC   GL264958   2.763  16.426   5.790
 5003POPC   C1A64959   2.929  16.762   6.172
 5003POPC   D2A64960   3.188  16.973   6.537
 5003POPC   C3A64961   3.018  17.017   6.974
 5003POPC   C4A64962   2.586  16.962   7.148
 5003POPC   C1B64963   2.469  16.502   6.151
 5003POPC   C2B64964   2.613  16.560   6.564
 5003POPC   C3B64965   2.816  16.547   6.939
 5003POPC   C4B64966   2.624  16.479   7.319
 5004POPC   NC364967  38.384  21.006   5.551
 5004POPC   PO464968  38.001  20.428   5.542
 5004POPC   GL164969  38.362  20.563   5.828
 5004POPC   GL264970  38.668  20.408   5.796
 5004POPC   C1A64971  38.475  20.793   6.222
 5004POPC   D2A64972  38.324  20.802   6.641
 5004POPC   C3A64973  38.544  20.943   6.995
 5004POPC   C4A64974  38.404  20.717   7.347
 5004POPC   C1B64975  38.660  20.331   6.263
 5004POPC   C2B64976  38.786  20.597   6.647
 5004POPC   C3B64977  38.806  20.501   7.094
 5004POPC   C4B64978  38.976  20.205   7.394
 5005POPC   NC364979   8.226  43.673   5.559
 5005POPC   PO464980   8.295  42.966   5.366
 5005POPC   GL164981   8.124  42.815   5.766
 5005POPC   GL264982   8.024  43.172   5.868
 5005POPC   C1A64983   8.056  42.854   6.261
 5005POPC   D2A64984   8.141  43.063   6.680
 5005POPC   C3A64985   8.104  42.834   7.007
 5005POPC   C4A64986   8.319  42.811   7.394
 5005POPC   C1B64987   8.243  43.349   6.274
 5005POPC   C2B64988   8.076  43.577   6.629
 5005POPC   C3B64989   7.859  43.440   6.993
 5005POPC   C4B64990   8.174  43.282   7.263
 5006POPC   NC364991   8.597   1.995   5.409
 5006POPC   PO464992   8.081   2.199   5.154
 5006POPC   GL164993   8.227   2.153   5.695
 5006POPC   GL264994   8.399   1.808   5.834
 5006POPC   C1A64995   8.111   2.080   6.156
 5006POPC   D2A64996   8.029   2.110   6.610
 5006POPC   C3A64997   8.370   2.234   6.885
 5006POPC   C4A64998   8.498   2.302   7.275
 5006POPC   C1B64999   8.373   1.618   6.247
 5006POPC   C2B65000   8.423   1.761   6.675
 5006POPC   C3B65001   8.263   1.793   7.102
 5006POPC   C4B65002   8.481   1.816   7.503
 5007POPC   NC365003   8.665  35.815   5.428
 5007POPC   PO465004   9.023  35.192   5.402
 5007POPC   GL165005   9.025  35.326   5.802
 5007POPC   GL265006   8.833  35.021   5.875
 5007POPC   C1A65007   8.973  35.343   6.262
 5007POPC   D2A65008   8.904  35.507   6.669
 5007POPC   C3A65009   9.125  35.471   7.038
 5007POPC   C4A65010   9.002  35.396   7.463
 5007POPC   C1B65011   8.695  34.849   6.248
 5007POPC   C2B65012   8.652  35.065   6.631
 5007POPC   C3B65013   8.749  35.101   7.066
 5007POPC   C4B65014   8.506  35.239   7.423
 5008POPC   NC365015  22.649  20.842   5.546
 5008POPC   PO465016  22.816  20.255   5.189
 5008POPC   GL165017  23.026  20.255   5.666
 5008POPC   GL265018  22.924  20.551   5.861
 5008POPC   C1A65019  23.334  20.355   6.081
 5008POPC   D2A65020  23.339  20.252   6.537
 5008POPC   C3A65021  23.207  20.514   6.894
 5008POPC   C4A65022  23.130  20.530   7.349
 5008POPC   C1B65023  22.926  20.545   6.319
 5008POPC   C2B65024  22.655  20.594   6.642
 5008POPC   C3B65025  22.578  20.795   7.017
 5008POPC   C4B65026  22.966  20.969   7.141
 5009POPC   NC365027   8.611  29.712   5.557
 5009POPC   PO465028   9.164  30.002   5.335
 5009POPC   GL165029   8.951  30.069   5.752
 5009POPC   GL265030   8.975  29.749   5.903
 5009POPC   C1A65031   8.734  30.124   6.172
 5009POPC   D2A65032   8.616  30.007   6.620
 5009POPC   C3A65033   8.891  30.126   6.963
 5009POPC   C4A65034   8.975  30.000   7.383
 5009POPC   C1B65035   8.831  29.629   6.302
 5009POPC   C2B65036   8.964  29.476   6.712
 5009POPC   C3B65037   8.879  29.531   7.173
 5009POPC   C4B65038   8.596  29.512   7.559
 5010POPC   NC365039  14.088  30.447   5.353
 5010POPC   PO465040  13.551  30.836   5.510
 5010POPC   GL165041  13.598  30.753   5.935
 5010POPC   GL265042  13.924  30.877   5.862
 5010POPC   C1A65043  13.310  30.789   6.313
 5010POPC   D2A65044  13.247  30.615   6.726
 5010POPC   C3A65045  13.512  30.683   7.067
 5010POPC   C4A65046  13.466  30.785   7.524
 5010POPC   C1B65047  14.035  30.797   6.222
 5010POPC   C2B65048  13.836  30.707   6.562
 5010POPC   C3B65049  13.992  30.792   6.930
 5010POPC   C4B65050  13.934  30.804   7.338
 5011POPC   NC365051  16.246  37.848   5.629
 5011POPC   PO465052  15.860  37.407   5.533
 5011POPC   GL165053  15.741  37.650   5.910
 5011POPC   GL265054  15.443  37.513   6.040
 5011POPC   C1A65055  15.830  37.728   6.377
 5011POPC   D2A65056  16.014  37.781   6.820
 5011POPC   C3A65057  16.073  37.872   7.280
 5011POPC   C4A65058  16.145  37.988   7.741
 5011POPC   C1B65059  15.369  37.553   6.486
 5011POPC   C2B65060  15.633  37.461   6.799
 5011POPC   C3B65061  15.887  37.427   7.170
 5011POPC   C4B65062  15.980  37.526   7.624
 5012POPC   NC365063  19.548  11.828   5.651
 5012POPC   PO465064  19.905  12.397   5.423
 5012POPC   GL165065  19.904  12.201   5.855
 5012POPC   GL265066  19.687  12.031   6.084
 5012POPC   C1A65067  20.047  12.340   6.287
 5012POPC   D2A65068  20.216  12.095   6.640
 5012POPC   C3A65069  19.878  11.978   6.950
 5012POPC   C4A65070  19.746  12.353   7.185
 5012POPC   C1B65071  19.449  11.745   6.355
 5012POPC   C2B65072  19.387  11.866   6.783
 5012POPC   C3B65073  19.395  11.973   7.216
 5012POPC   C4B65074  19.761  11.952   7.488
 5013POPC   NC365075  21.815  43.041   5.143
 5013POPC   PO465076  21.265  43.253   5.232
 5013POPC   GL165077  21.304  43.165   5.716
 5013POPC   GL265078  21.234  43.416   5.968
 5013POPC   C1A65079  21.262  42.940   6.168
 5013POPC   D2A65080  21.482  42.841   6.583
 5013POPC   C3A65081  21.375  42.928   7.032
 5013POPC   C4A65082  21.586  42.914   7.404
 5013POPC   C1B65083  21.435  43.372   6.406
 5013POPC   C2B65084  21.674  43.279   6.804
 5013POPC   C3B65085  21.786  43.387   7.237
 5013POPC   C4B65086  21.967  43.756   7.472
 5014POPC   NC365087  44.723  32.889   5.092
 5014POPC   PO465088  44.805  33.488   5.527
 5014POPC   GL165089  44.799  33.073   5.665
 5014POPC   GL265090  44.540  33.123   5.898
 5014POPC   C1A65091  44.901  32.789   6.059
 5014POPC   D2A65092  44.844  32.802   6.510
 5014POPC   C3A65093  44.625  32.626   6.850
 5014POPC   C4A65094  44.712  32.623   7.295
 5014POPC   C1B65095  44.406  33.008   6.334
 5014POPC   C2B65096  44.528  33.135   6.778
 5014POPC   C3B65097  44.429  33.046   7.209
 5014POPC   C4B65098  44.300  32.886   7.617
 5015POPC   NC365099   4.819  20.868   5.533
 5015POPC   PO465100   5.272  20.349   5.398
 5015POPC   GL165101   5.209  20.567   5.776
 5015POPC   GL265102   4.844  20.491   5.865
 5015POPC   C1A65103   5.198  20.523   6.234
 5015POPC   D2A65104   4.942  20.280   6.552
 5015POPC   C3A65105   5.121  20.381   6.966
 5015POPC   C4A65106   5.204  20.733   7.257
 5015POPC   C1B65107   4.769  20.807   6.214
 5015POPC   C2B65108   4.874  20.783   6.651
 5015POPC   C3B65109   4.673  20.615   6.988
 5015POPC   C4B65110   4.705  20.846   7.327
 5016POPC   NC365111  24.130  25.902   5.402
 5016POPC   PO465112  23.597  26.343   5.464
 5016POPC   GL165113  23.875  26.185   5.755
 5016POPC   GL265114  23.869  26.486   5.887
 5016POPC   C1A65115  23.780  26.030   6.172
 5016POPC   D2A65116  23.762  26.190   6.597
 5016POPC   C3A65117  23.632  25.949   6.930
 5016POPC   C4A65118  23.339  25.677   7.129
 5016POPC   C1B65119  24.222  26.420   6.128
 5016POPC   C2B65120  24.413  26.457   6.533
 5016POPC   C3B65121  24.251  26.519   6.956
 5016POPC   C4B65122  23.904  26.350   7.151
 5017POPC   NC365123  36.404   2.644   5.537
 5017POPC   PO465124  37.083   2.929   5.511
 5017POPC   GL165125  36.850   2.913   5.907
 5017POPC   GL265126  36.606   3.206   5.987
 5017POPC   C1A65127  36.696   2.569   6.160
 5017POPC   D2A65128  36.438   2.497   6.531
 5017POPC   C3A65129  36.663   2.587   6.968
 5017POPC   C4A65130  37.003   2.747   7.212
 5017POPC   C1B65131  36.408   2.958   6.304
 5017POPC   C2B65132  36.772   2.899   6.568
 5017POPC   C3B65133  36.907   3.143   6.897
 5017POPC   C4B65134  36.686   3.170   7.258
 5018POPC   NC365135   3.604   6.806   5.184
 5018POPC   PO465136   3.356   6.247   5.437
 5018POPC   GL165137   3.703   6.323   5.770
 5018POPC   GL265138   3.830   6.685   5.812
 5018POPC   C1A65139   3.647   6.472   6.228
 5018POPC   D2A65140   3.601   6.579   6.645
 5018POPC   C3A65141   3.359   6.585   7.027
 5018POPC   C4A65142   3.212   6.835   7.391
 5018POPC   C1B65143   3.903   6.947   6.190
 5018POPC   C2B65144   4.035   6.838   6.616
 5018POPC   C3B65145   3.944   6.578   7.016
 5018POPC   C4B65146   3.731   6.633   7.418
 5019POPC   NC365147  35.664   6.886   5.333
 5019POPC   PO465148  35.122   6.500   5.276
 5019POPC   GL165149  35.184   6.731   5.692
 5019POPC   GL265150  35.529   6.832   5.804
 5019POPC   C1A65151  35.186   6.870   6.166
 5019POPC   D2A65152  34.996   6.895   6.580
 5019POPC   C3A65153  35.175   6.610   6.855
 5019POPC   C4A65154  35.472   6.730   7.160
 5019POPC   C1B65155  35.705   6.635   6.155
 5019POPC   C2B65156  35.635   6.612   6.600
 5019POPC   C3B65157  35.571   6.285   6.896
 5019POPC   C4B65158  35.688   6.282   7.282
 5020POPC   NC365159  33.014  24.080   5.431
 5020POPC   PO465160  32.788  24.661   5.328
 5020POPC   GL165161  32.938  24.487   5.777
 5020POPC   GL265162  32.783  24.160   5.890
 5020POPC   C1A65163  33.189  24.446   6.192
 5020POPC   D2A65164  33.430  24.358   6.601
 5020POPC   C3A65165  33.172  24.423   6.974
 5020POPC   C4A65166  32.956  24.402   7.357
 5020POPC   C1B65167  32.682  24.388   6.286
 5020POPC   C2B65168  32.614  24.536   6.750
 5020POPC   C3B65169  32.466  24.403   7.192
 5020POPC   C4B65170  32.594  24.521   7.689
 5021POPC   NC365171   7.358   9.475   5.298
 5021POPC   PO465172   7.299   8.856   5.416
 5021POPC   GL165173   7.587   9.090   5.688
 5021POPC   GL265174   7.670   8.782   5.887
 5021POPC   C1A65175   7.661   9.264   6.105
 5021POPC   D2A65176   7.592   9.031   6.518
 5021POPC   C3A65177   7.680   9.205   6.933
 5021POPC   C4A65178   7.590   8.984   7.298
 5021POPC   C1B65179   7.283   8.922   6.106
 5021POPC   C2B65180   7.144   8.798   6.528
 5021POPC   C3B65181   7.219   8.955   6.934
 5021POPC   C4B65182   6.959   8.991   7.288
 5022POPC   NC365183  39.414  24.265   5.377
 5022POPC   PO465184  38.971  24.717   5.440
 5022POPC   GL165185  38.870  24.575   5.835
 5022POPC   GL265186  39.004  24.264   5.751
 5022POPC   C1A65187  39.014  24.523   6.249
 5022POPC   D2A65188  39.338  24.491   6.573
 5022POPC   C3A65189  39.224  24.651   6.980
 5022POPC   C4A65190  38.924  24.758   7.301
 5022POPC   C1B65191  39.356  24.177   6.046
 5022POPC   C2B65192  39.402  23.974   6.443
 5022POPC   C3B65193  39.420  24.075   6.864
 5022POPC   C4B65194  39.303  24.224   7.264
 5023POPC   NC365195   7.162  10.758   5.448
 5023POPC   PO465196   7.559  10.218   5.464
 5023POPC   GL165197   7.432  10.205   5.881
 5023POPC   GL265198   7.304  10.531   5.889
 5023POPC   C1A65199   7.643  10.381   6.257
 5023POPC   D2A65200   7.849  10.524   6.632
 5023POPC   C3A65201   7.655  10.285   6.948
 5023POPC   C4A65202   7.559  10.128   7.364
 5023POPC   C1B65203   7.194  10.710   6.291
 5023POPC   C2B65204   7.055  10.522   6.678
 5023POPC   C3B65205   7.171  10.379   7.092
 5023POPC   C4B65206   7.441  10.637   7.325
 5024POPC   NC365207  32.678   9.851   5.256
 5024POPC   PO465208  32.140   9.934   5.438
 5024POPC   GL165209  32.195   9.810   5.860
 5024POPC   GL265210  32.486   9.608   5.857
 5024POPC   C1A65211  32.136   9.810   6.327
 5024POPC   D2A65212  31.984   9.793   6.756
 5024POPC   C3A65213  32.280   9.775   7.081
 5024POPC   C4A65214  32.319   9.474   7.340
 5024POPC   C1B65215  32.513   9.474   6.301
 5024POPC   C2B65216  32.465   9.438   6.756
 5024POPC   C3B65217  32.751   9.536   7.090
 5024POPC   C4B65218  32.773   9.420   7.583
 5025POPC   NC365219  28.817  43.282   5.330
 5025POPC   PO465220  29.455  43.262   5.403
 5025POPC   GL165221  29.147  43.362   5.745
 5025POPC   GL265222  29.238  43.098   5.974
 5025POPC   C1A65223  29.099  43.518   6.185
 5025POPC   D2A65224  29.064  43.270   6.540
 5025POPC   C3A65225  29.266  43.089   6.881
 5025POPC   C4A65226  29.147  43.141   7.318
 5025POPC   C1B65227  29.165  42.802   6.350
 5025POPC   C2B65228  28.900  42.729   6.710
 5025POPC   C3B65229  28.960  42.704   7.162
 5025POPC   C4B65230  29.140  42.743   7.611
 5026POPC   NC365231  14.354  39.377   5.326
 5026POPC   PO465232  13.829  39.286   5.688
 5026POPC   GL165233  14.233  39.156   5.915
 5026POPC   GL265234  14.545  39.031   5.714
 5026POPC   C1A65235  14.324  39.221   6.383
 5026POPC   D2A65236  14.265  39.102   6.833
 5026POPC   C3A65237  14.323  39.377   7.200
 5026POPC   C4A65238  14.287  39.603   7.632
 5026POPC   C1B65239  14.782  39.197   6.095
 5026POPC   C2B65240  14.854  39.309   6.526
 5026POPC   C3B65241  14.709  39.506   6.903
 5026POPC   C4B65242  14.791  39.521   7.349
 5027POPC   NC365243  32.221  25.684   5.521
 5027POPC   PO465244  32.255  26.338   5.240
 5027POPC   GL165245  32.190  26.339   5.702
 5027POPC   GL265246  32.568  26.385   5.714
 5027POPC   C1A65247  31.963  26.069   6.070
 5027POPC   D2A65248  32.060  25.819   6.489
 5027POPC   C3A65249  31.907  25.948   6.921
 5027POPC   C4A65250  32.005  25.926   7.376
 5027POPC   C1B65251  32.470  26.154   6.096
 5027POPC   C2B65252  32.218  26.315   6.436
 5027POPC   C3B65253  32.270  26.316   6.839
 5027POPC   C4B65254  32.403  25.982   7.072
 5028POPC   NC365255  18.520  10.563   5.335
 5028POPC   PO465256  18.008  10.170   5.262
 5028POPC   GL165257  18.170  10.343   5.688
 5028POPC   GL265258  18.542  10.436   5.819
 5028POPC   C1A65259  18.243  10.190   6.124
 5028POPC   D2A65260  18.105  10.296   6.510
 5028POPC   C3A65261  18.375  10.454   6.826
 5028POPC   C4A65262  18.322  10.404   7.255
 5028POPC   C1B65263  18.461  10.643   6.239
 5028POPC   C2B65264  18.580  10.935   6.593
 5028POPC   C3B65265  18.601  10.895   7.055
 5028POPC   C4B65266  18.616  10.764   7.495
 5029POPC   NC365267  38.538   0.209   5.434
 5029POPC   PO465268  38.223  44.628   5.515
 5029POPC   GL165269  38.333  44.757   5.899
 5029POPC   GL265270  38.575  44.923   5.904
 5029POPC   C1A65271  38.469  44.606   6.293
 5029POPC   D2A65272  38.455  44.860   6.677
 5029POPC   C3A65273  38.380  44.638   7.096
 5029POPC   C4A65274  38.369  44.769   7.503
 5029POPC   C1B65275  38.801   0.014   6.285
 5029POPC   C2B65276  38.999  44.851   6.646
 5029POPC   C3B65277  38.807  44.915   7.042
 5029POPC   C4B65278  38.891  44.946   7.458
 5030POPC   NC365279  42.152  44.558   5.502
 5030POPC   PO465280  42.800  44.280   5.494
 5030POPC   GL165281  42.559  44.531   5.827
 5030POPC   GL265282  42.319  44.303   5.962
 5030POPC   C1A65283  42.310  44.746   6.201
 5030POPC   D2A65284  42.225  44.557   6.635
 5030POPC   C3A65285  42.308  44.853   6.988
 5030POPC   C4A65286  42.196  44.983   7.428
 5030POPC   C1B65287  42.651  44.323   6.303
 5030POPC   C2B65288  42.862  44.245   6.704
 5030POPC   C3B65289  42.635  44.211   7.093
 5030POPC   C4B65290  42.216  44.397   7.172
 5031POPC   NC365291  24.879   3.880   5.482
 5031POPC   PO465292  24.337   3.455   5.452
 5031POPC   GL165293  24.510   3.664   5.796
 5031POPC   GL265294  24.756   3.434   5.761
 5031POPC   C1A65295  24.450   3.779   6.241
 5031POPC   D2A65296  24.256   3.893   6.639
 5031POPC   C3A65297  24.254   3.685   7.040
 5031POPC   C4A65298  24.639   3.675   7.287
 5031POPC   C1B65299  24.579   3.294   6.173
 5031POPC   C2B65300  24.518   3.394   6.623
 5031POPC   C3B65301  24.544   3.223   7.041
 5031POPC   C4B65302  24.191   3.123   7.308
 5032POPC   NC365303  44.390  11.250   5.308
 5032POPC   PO465304   0.004  11.577   5.487
 5032POPC   GL165305  44.652  11.460   5.765
 5032POPC   GL265306  44.530  11.116   5.794
 5032POPC   C1A65307  44.630  11.547   6.211
 5032POPC   D2A65308  44.603  11.776   6.607
 5032POPC   C3A65309  44.539  11.577   6.996
 5032POPC   C4A65310  44.916  11.409   7.187
 5032POPC   C1B65311  44.304  11.163   6.160
 5032POPC   C2B65312  44.419  11.251   6.578
 5032POPC   C3B65313  44.651  11.077   6.908
 5032POPC   C4B65314  44.529  11.136   7.341
 5033POPC   NC365315  20.213  37.939   5.083
 5033POPC   PO465316  19.821  37.447   5.327
 5033POPC   GL165317  19.735  37.471   5.729
 5033POPC   GL265318  20.063  37.272   5.782
 5033POPC   C1A65319  19.646  37.769   6.096
 5033POPC   D2A65320  19.457  37.780   6.527
 5033POPC   C3A65321  19.663  37.671   6.909
 5033POPC   C4A65322  19.787  37.622   7.322
 5033POPC   C1B65323  20.191  37.238   6.208
 5033POPC   C2B65324  19.973  37.390   6.583
 5033POPC   C3B65325  19.979  37.233   6.980
 5033POPC   C4B65326  20.262  37.474   7.161
 5034POPC   NC365327  28.077  13.002   5.360
 5034POPC   PO465328  28.514  12.567   5.190
 5034POPC   GL165329  28.253  12.538   5.707
 5034POPC   GL265330  28.140  12.865   5.868
 5034POPC   C1A65331  28.480  12.685   6.200
 5034POPC   D2A65332  28.632  12.553   6.660
 5034POPC   C3A65333  28.607  12.860   7.040
 5034POPC   C4A65334  28.359  12.938   7.417
 5034POPC   C1B65335  28.260  13.153   6.234
 5034POPC   C2B65336  28.303  13.128   6.705
 5034POPC   C3B65337  28.029  13.148   7.094
 5034POPC   C4B65338  28.007  13.311   7.523
 5035POPC   NC365339  29.315   0.760   5.520
 5035POPC   PO465340  29.236   1.465   5.342
 5035POPC   GL165341  29.128   1.334   5.748
 5035POPC   GL265342  28.919   1.614   5.767
 5035POPC   C1A65343  29.266   1.166   6.171
 5035POPC   D2A65344  29.447   1.083   6.601
 5035POPC   C3A65345  29.152   1.131   6.932
 5035POPC   C4A65346  28.906   1.159   7.319
 5035POPC   C1B65347  29.113   1.647   6.189
 5035POPC   C2B65348  29.029   1.558   6.623
 5035POPC   C3B65349  28.973   1.623   7.076
 5035POPC   C4B65350  28.950   1.593   7.574
 5036POPC   NC365351  10.977  31.760   5.434
 5036POPC   PO465352  10.377  31.401   5.324
 5036POPC   GL165353  10.543  31.593   5.705
 5036POPC   GL265354  10.335  31.884   5.749
 5036POPC   C1A65355  10.646  31.471   6.158
 5036POPC   D2A65356  10.500  31.262   6.552
 5036POPC   C3A65357  10.618  31.357   7.005
 5036POPC   C4A65358  10.272  31.226   7.289
 5036POPC   C1B65359  10.177  31.693   6.150
 5036POPC   C2B65360  10.278  31.747   6.592
 5036POPC   C3B65361  10.166  31.628   7.007
 5036POPC   C4B65362  10.209  31.753   7.453
 5037POPC   NC365363  13.282  22.480   5.483
 5037POPC   PO465364  13.964  22.152   5.504
 5037POPC   GL165365  13.768  22.160   5.887
 5037POPC   GL265366  13.619  22.483   5.866
 5037POPC   C1A65367  13.886  22.108   6.324
 5037POPC   D2A65368  14.084  22.277   6.709
 5037POPC   C3A65369  13.843  22.246   7.095
 5037POPC   C4A65370  13.497  22.018   7.141
 5037POPC   C1B65371  13.413  22.359   6.235
 5037POPC   C2B65372  13.499  22.276   6.677
 5037POPC   C3B65373  13.380  22.487   7.050
 5037POPC   C4B65374  13.497  22.416   7.484
 5038POPC   NC365375  28.158  10.966   5.340
 5038POPC   PO465376  28.482  11.570   5.256
 5038POPC   GL165377  28.411  11.345   5.692
 5038POPC   GL265378  28.514  10.973   5.714
 5038POPC   C1A65379  28.170  11.268   6.112
 5038POPC   D2A65380  28.033  11.449   6.526
 5038POPC   C3A65381  28.374  11.576   6.836
 5038POPC   C4A65382  28.642  11.824   7.135
 5038POPC   C1B65383  28.645  11.080   6.118
 5038POPC   C2B65384  28.520  11.187   6.521
 5038POPC   C3B65385  28.410  11.014   6.926
 5038POPC   C4B65386  28.202  11.077   7.314
 5039POPC   NC365387  33.476  40.470   5.425
 5039POPC   PO465388  33.536  39.772   5.398
 5039POPC   GL165389  33.735  40.073   5.696
 5039POPC   GL265390  34.091  40.111   5.833
 5039POPC   C1A65391  33.693  40.044   6.164
 5039POPC   D2A65392  33.732  39.767   6.556
 5039POPC   C3A65393  33.781  39.955   7.002
 5039POPC   C4A65394  33.997  40.131   7.383
 5039POPC   C1B65395  34.173  39.986   6.304
 5039POPC   C2B65396  34.200  39.793   6.738
 5039POPC   C3B65397  34.205  39.731   7.170
 5039POPC   C4B65398  34.071  39.454   7.484
 5040POPC   NC365399  31.950  30.219   5.456
 5040POPC   PO465400  32.279  30.848   5.521
 5040POPC   GL165401  32.165  30.517   5.841
 5040POPC   GL265402  31.791  30.393   5.898
 5040POPC   C1A65403  32.342  30.638   6.247
 5040POPC   D2A65404  32.373  30.992   6.515
 5040POPC   C3A65405  32.379  30.771   6.892
 5040POPC   C4A65406  32.547  30.646   7.252
 5040POPC   C1B65407  31.815  30.675   6.221
 5040POPC   C2B65408  31.924  30.728   6.647
 5040POPC   C3B65409  31.935  30.802   7.104
 5040POPC   C4B65410  32.063  30.445   7.361
 5041POPC   NC365411  38.921  30.902   5.523
 5041POPC   PO465412  38.289  30.770   5.375
 5041POPC   GL165413  38.535  30.584   5.730
 5041POPC   GL265414  38.691  30.245   5.662
 5041POPC   C1A65415  38.678  30.744   6.161
 5041POPC   D2A65416  38.603  30.897   6.589
 5041POPC   C3A65417  38.584  30.597   6.959
 5041POPC   C4A65418  38.647  30.626   7.413
 5041POPC   C1B65419  38.589  30.233   6.123
 5041POPC   C2B65420  38.392  30.446   6.497
 5041POPC   C3B65421  38.106  30.405   6.863
 5041POPC   C4B65422  38.177  30.253   7.292
 5042POPC   NC365423  16.724   1.030   5.348
 5042POPC   PO465424  16.884   1.710   5.427
 5042POPC   GL165425  16.741   1.364   5.749
 5042POPC   GL265426  16.804   0.977   5.836
 5042POPC   C1A65427  16.462   1.252   6.104
 5042POPC   D2A65428  16.488   1.052   6.530
 5042POPC   C3A65429  16.349   1.232   6.947
 5042POPC   C4A65430  16.527   1.206   7.383
 5042POPC   C1B65431  16.940   1.123   6.237
 5042POPC   C2B65432  17.107   1.155   6.649
 5042POPC   C3B65433  16.857   1.104   7.011
 5042POPC   C4B65434  16.944   0.840   7.398
 5043POPC   NC365435  42.840  39.162   5.284
 5043POPC   PO465436  42.244  39.583   5.468
 5043POPC   GL165437  42.506  39.567   5.834
 5043POPC   GL265438  42.767  39.320   5.826
 5043POPC   C1A65439  42.367  39.383   6.214
 5043POPC   D2A65440  42.210  39.085   6.501
 5043POPC   C3A65441  42.089  39.236   6.910
 5043POPC   C4A65442  42.064  38.865   7.158
 5043POPC   C1B65443  42.789  39.105   6.267
 5043POPC   C2B65444  42.653  39.236   6.698
 5043POPC   C3B65445  42.541  39.209   7.151
 5043POPC   C4B65446  42.529  39.524   7.475
 5044POPC   NC365447  11.373  43.157   5.416
 5044POPC   PO465448  10.731  43.085   5.408
 5044POPC   GL165449  11.007  43.145   5.773
 5044POPC   GL265450  11.272  42.889   5.847
 5044POPC   C1A65451  10.954  43.052   6.220
 5044POPC   D2A65452  11.149  42.958   6.642
 5044POPC   C3A65453  10.908  43.152   6.922
 5044POPC   C4A65454  10.816  43.223   7.315
 5044POPC   C1B65455  11.460  42.983   6.249
 5044POPC   C2B65456  11.645  42.849   6.666
 5044POPC   C3B65457  11.411  42.737   7.021
 5044POPC   C4B65458  11.324  43.099   7.227
 5045POPC   NC365459  20.166  37.704   5.531
 5045POPC   PO465460  20.732  37.724   5.121
 5045POPC   GL165461  20.694  37.755   5.679
 5045POPC   GL265462  20.418  37.904   5.917
 5045POPC   C1A65463  20.620  37.539   6.167
 5045POPC   D2A65464  20.457  37.548   6.625
 5045POPC   C3A65465  20.658  37.767   6.972
 5045POPC   C4A65466  20.905  37.715   7.366
 5045POPC   C1B65467  20.144  37.751   6.251
 5045POPC   C2B65468  20.057  37.901   6.680
 5045POPC   C3B65469  20.134  37.958   7.122
 5045POPC   C4B65470  20.190  37.810   7.575
 5046POPC   NC365471   7.827  12.893   5.623
 5046POPC   PO465472   7.208  12.635   5.363
 5046POPC   GL165473   7.117  12.710   5.818
 5046POPC   GL265474   7.200  13.062   5.881
 5046POPC   C1A65475   7.237  12.694   6.284
 5046POPC   D2A65476   7.677  12.683   6.483
 5046POPC   C3A65477   7.730  12.571   6.937
 5046POPC   C4A65478   7.426  12.559   7.272
 5046POPC   C1B65479   7.528  13.110   6.167
 5046POPC   C2B65480   7.429  13.133   6.574
 5046POPC   C3B65481   7.416  12.998   6.980
 5046POPC   C4B65482   7.706  13.061   7.268
 5047POPC   NC365483  24.176  16.176   5.636
 5047POPC   PO465484  24.586  15.702   5.316
 5047POPC   GL165485  24.437  15.748   5.791
 5047POPC   GL265486  24.281  16.016   6.086
 5047POPC   C1A65487  24.382  15.558   6.208
 5047POPC   D2A65488  24.336  15.830   6.578
 5047POPC   C3A65489  24.405  15.651   6.974
 5047POPC   C4A65490  24.650  15.748   7.314
 5047POPC   C1B65491  24.411  16.337   6.394
 5047POPC   C2B65492  24.726  16.518   6.657
 5047POPC   C3B65493  24.578  16.296   6.998
 5047POPC   C4B65494  24.180  16.132   7.025
 5048POPC   NC365495   2.276  19.483   5.416
 5048POPC   PO465496   1.608  19.856   5.427
 5048POPC   GL165497   2.031  19.880   5.646
 5048POPC   GL265498   2.072  19.589   5.868
 5048POPC   C1A65499   2.210  20.018   6.075
 5048POPC   D2A65500   1.960  20.028   6.484
 5048POPC   C3A65501   2.089  19.820   6.879
 5048POPC   C4A65502   2.210  20.024   7.273
 5048POPC   C1B65503   2.084  19.539   6.310
 5048POPC   C2B65504   1.749  19.424   6.570
 5048POPC   C3B65505   1.576  19.704   6.881
 5048POPC   C4B65506   1.717  19.873   7.291
 5049POPC   NC365507   4.031  11.601   5.332
 5049POPC   PO465508   4.327  12.170   5.333
 5049POPC   GL165509   4.383  11.856   5.680
 5049POPC   GL265510   4.037  11.759   5.814
 5049POPC   C1A65511   4.442  12.003   6.126
 5049POPC   D2A65512   4.606  12.206   6.515
 5049POPC   C3A65513   4.455  12.045   6.888
 5049POPC   C4A65514   4.371  12.254   7.211
 5049POPC   C1B65515   3.923  11.759   6.244
 5049POPC   C2B65516   4.026  11.831   6.676
 5049POPC   C3B65517   4.023  11.785   7.142
 5049POPC   C4B65518   3.904  11.851   7.601
 5050POPC   NC365519  41.849  32.046   5.381
 5050POPC   PO465520  41.550  32.636   5.218
 5050POPC   GL165521  41.634  32.340   5.710
 5050POPC   GL265522  41.509  32.023   5.782
 5050POPC   C1A65523  41.771  32.359   6.138
 5050POPC   D2A65524  41.615  32.581   6.511
 5050POPC   C3A65525  41.664  32.346   6.875
 5050POPC   C4A65526  41.574  32.250   7.259
 5050POPC   C1B65527  41.592  31.860   6.182
 5050POPC   C2B65528  41.523  31.960   6.594
 5050POPC   C3B65529  41.718  31.834   6.963
 5050POPC   C4B65530  41.423  31.780   7.262
 5051POPC   NC365531  16.755  22.577   5.547
 5051POPC   PO465532  16.804  21.910   5.540
 5051POPC   GL165533  16.701  22.187   5.878
 5051POPC   GL265534  17.023  22.227   5.938
 5051POPC   C1A65535  16.774  22.318   6.353
 5051POPC   D2A65536  16.912  22.227   6.784
 5051POPC   C3A65537  16.621  22.162   7.132
 5051POPC   C4A65538  16.609  22.393   7.547
 5051POPC   C1B65539  16.871  21.824   6.180
 5051POPC   C2B65540  16.690  21.786   6.579
 5051POPC   C3B65541  16.912  21.741   6.951
 5051POPC   C4B65542  17.081  21.997   7.288
 5052POPC   NC365543  12.319  30.525   5.457
 5052POPC   PO465544  11.848  31.040   5.383
 5052POPC   GL165545  11.976  30.969   5.784
 5052POPC   GL265546  12.085  30.633   5.898
 5052POPC   C1A65547  11.851  30.965   6.198
 5052POPC   D2A65548  11.981  30.678   6.470
 5052POPC   C3A65549  11.865  30.819   6.834
 5052POPC   C4A65550  12.106  30.909   7.179
 5052POPC   C1B65551  12.381  30.463   6.220
 5052POPC   C2B65552  12.385  30.366   6.677
 5052POPC   C3B65553  12.305  30.423   7.136
 5052POPC   C4B65554  12.431  30.290   7.573
 5053POPC   NC365555   9.286   1.434   5.386
 5053POPC   PO465556   8.804   0.830   5.376
 5053POPC   GL165557   8.900   0.996   5.807
 5053POPC   GL265558   9.086   1.326   5.858
 5053POPC   C1A65559   8.910   0.944   6.265
 5053POPC   D2A65560   9.147   0.894   6.658
 5053POPC   C3A65561   8.834   1.029   6.944
 5053POPC   C4A65562   8.598   1.400   7.116
 5053POPC   C1B65563   8.885   1.541   6.217
 5053POPC   C2B65564   8.903   1.548   6.683
 5053POPC   C3B65565   9.179   1.406   7.011
 5053POPC   C4B65566   9.377   1.042   7.143
 5054POPC   NC365567  35.552  43.460   5.400
 5054POPC   PO465568  35.137  42.893   5.489
 5054POPC   GL165569  35.414  42.990   5.877
 5054POPC   GL265570  35.638  43.294   5.886
 5054POPC   C1A65571  35.665  42.801   6.213
 5054POPC   D2A65572  35.738  42.990   6.615
 5054POPC   C3A65573  35.352  42.937   6.881
 5054POPC   C4A65574  35.377  42.738   7.248
 5054POPC   C1B65575  35.316  43.411   6.166
 5054POPC   C2B65576  35.227  43.359   6.597
 5054POPC   C3B65577  35.455  43.419   6.958
 5054POPC   C4B65578  35.376  43.255   7.348
 5055POPC   NC365579  21.617  40.784   5.310
 5055POPC   PO465580  21.065  40.444   5.622
 5055POPC   GL165581  21.375  40.780   5.787
 5055POPC   GL265582  21.685  41.008   5.750
 5055POPC   C1A65583  21.321  40.864   6.231
 5055POPC   D2A65584  21.261  40.586   6.606
 5055POPC   C3A65585  21.242  40.723   7.024
 5055POPC   C4A65586  21.437  40.527   7.382
 5055POPC   C1B65587  21.792  41.043   6.142
 5055POPC   C2B65588  21.668  41.225   6.516
 5055POPC   C3B65589  21.644  41.011   6.885
 5055POPC   C4B65590  21.639  41.013   7.287
 5056POPC   NC365591  26.500  30.595   5.505
 5056POPC   PO465592  26.888  31.030   5.181
 5056POPC   GL165593  26.661  31.003   5.735
 5056POPC   GL265594  26.630  30.647   5.967
 5056POPC   C1A65595  26.837  30.993   6.232
 5056POPC   D2A65596  26.860  30.641   6.525
 5056POPC   C3A65597  26.934  30.745   6.961
 5056POPC   C4A65598  27.113  30.480   7.260
 5056POPC   C1B65599  26.381  30.769   6.338
 5056POPC   C2B65600  26.508  30.952   6.743
 5056POPC   C3B65601  26.424  30.891   7.182
 5056POPC   C4B65602  26.664  30.656   7.448
 5057POPC   NC365603   5.336   5.533   5.370
 5057POPC   PO465604   4.850   5.083   5.450
 5057POPC   GL165605   5.099   5.255   5.752
 5057POPC   GL265606   5.316   4.959   5.726
 5057POPC   C1A65607   5.014   5.311   6.193
 5057POPC   D2A65608   5.053   5.084   6.561
 5057POPC   C3A65609   4.908   5.172   6.954
 5057POPC   C4A65610   5.230   5.229   7.245
 5057POPC   C1B65611   5.221   4.810   6.163
 5057POPC   C2B65612   5.190   4.607   6.587
 5057POPC   C3B65613   5.258   4.775   6.993
 5057POPC   C4B65614   4.968   4.763   7.340
 5058POPC   NC365615  18.530  15.296   5.292
 5058POPC   PO465616  18.415  14.740   5.558
 5058POPC   GL165617  18.423  15.021   5.898
 5058POPC   GL265618  18.477  15.393   5.790
 5058POPC   C1A65619  18.389  15.150   6.350
 5058POPC   D2A65620  18.085  15.406   6.612
 5058POPC   C3A65621  18.080  15.414   7.067
 5058POPC   C4A65622  18.262  15.075   7.329
 5058POPC   C1B65623  18.513  15.630   6.176
 5058POPC   C2B65624  18.374  15.819   6.537
 5058POPC   C3B65625  18.523  15.721   6.912
 5058POPC   C4B65626  18.541  15.496   7.272
 5059POPC   NC365627   5.637   2.526   5.609
 5059POPC   PO465628   6.172   2.699   5.249
 5059POPC   GL165629   6.147   2.790   5.717
 5059POPC   GL265630   6.073   2.517   5.908
 5059POPC   C1A65631   6.220   2.971   6.148
 5059POPC   D2A65632   6.207   2.941   6.622
 5059POPC   C3A65633   5.810   2.765   6.825
 5059POPC   C4A65634   5.674   2.825   7.268
 5059POPC   C1B65635   5.862   2.501   6.334
 5059POPC   C2B65636   5.779   2.256   6.719
 5059POPC   C3B65637   5.532   2.345   7.101
 5059POPC   C4B65638   5.634   2.393   7.560
 5060POPC   NC365639   5.964   1.583   5.548
 5060POPC   PO465640   5.555   1.097   5.472
 5060POPC   GL165641   5.861   1.158   5.834
 5060POPC   GL265642   6.240   1.184   5.733
 5060POPC   C1A65643   5.772   1.306   6.272
 5060POPC   D2A65644   5.573   1.184   6.675
 5060POPC   C3A65645   5.760   0.963   7.053
 5060POPC   C4A65646   5.914   0.905   7.482
 5060POPC   C1B65647   6.283   1.192   6.193
 5060POPC   C2B65648   6.105   1.123   6.639
 5060POPC   C3B65649   5.967   1.402   6.952
 5060POPC   C4B65650   6.112   1.606   7.279
 5061POPC   NC365651  31.044  28.743   5.417
 5061POPC   PO465652  31.605  29.195   5.322
 5061POPC   GL165653  31.614  29.237   5.761
 5061POPC   GL265654  31.734  28.881   5.754
 5061POPC   C1A65655  31.446  29.436   6.153
 5061POPC   D2A65656  31.196  29.387   6.554
 5061POPC   C3A65657  31.413  29.374   6.957
 5061POPC   C4A65658  31.454  29.335   7.443
 5061POPC   C1B65659  31.558  28.933   6.170
 5061POPC   C2B65660  31.297  28.878   6.521
 5061POPC   C3B65661  31.471  28.879   6.917
 5061POPC   C4B65662  31.290  28.868   7.338
 5062POPC   NC365663  19.271  23.281   5.466
 5062POPC   PO465664  18.936  22.824   5.485
 5062POPC   GL165665  18.696  22.792   5.895
 5062POPC   GL265666  18.583  23.158   5.913
 5062POPC   C1A65667  18.789  22.563   6.306
 5062POPC   D2A65668  19.154  22.530   6.639
 5062POPC   C3A65669  19.224  22.785   7.006
 5062POPC   C4A65670  18.776  22.879   7.136
 5062POPC   C1B65671  18.833  23.115   6.317
 5062POPC   C2B65672  18.988  23.162   6.757
 5062POPC   C3B65673  19.117  23.252   7.209
 5062POPC   C4B65674  19.137  23.377   7.657
 5063POPC   NC365675  15.006  18.665   5.330
 5063POPC   PO465676  15.353  19.222   5.264
 5063POPC   GL165677  15.345  18.955   5.655
 5063POPC   GL265678  14.990  18.949   5.789
 5063POPC   C1A65679  15.369  19.106   6.108
 5063POPC   D2A65680  15.101  19.187   6.486
 5063POPC   C3A65681  15.252  19.116   6.938
 5063POPC   C4A65682  14.960  19.133   7.311
 5063POPC   C1B65683  15.005  18.730   6.208
 5063POPC   C2B65684  15.108  18.709   6.656
 5063POPC   C3B65685  14.924  18.675   7.054
 5063POPC   C4B65686  15.062  18.671   7.484
 5064POPC   NC365687  14.943  23.051   5.541
 5064POPC   PO465688  15.464  22.604   5.500
 5064POPC   GL165689  15.312  22.785   5.852
 5064POPC   GL265690  14.990  22.633   5.899
 5064POPC   C1A65691  15.212  23.141   6.145
 5064POPC   D2A65692  15.156  23.377   6.527
 5064POPC   C3A65693  15.256  23.246   6.942
 5064POPC   C4A65694  15.061  23.231   7.332
 5064POPC   C1B65695  15.169  22.676   6.329
 5064POPC   C2B65696  15.359  22.733   6.727
 5064POPC   C3B65697  15.231  22.758   7.167
 5064POPC   C4B65698  14.934  22.782   7.528
 5065POPC   NC365699  14.315  32.130   5.524
 5065POPC   PO465700  14.609  32.701   5.783
 5065POPC   GL165701  14.371  32.372   5.965
 5065POPC   GL265702  14.689  32.177   6.014
 5065POPC   C1A65703  14.176  32.186   6.348
 5065POPC   D2A65704  13.936  32.290   6.749
 5065POPC   C3A65705  14.195  32.113   7.049
 5065POPC   C4A65706  14.509  31.788   7.027
 5065POPC   C1B65707  14.617  32.477   6.386
 5065POPC   C2B65708  14.397  32.496   6.755
 5065POPC   C3B65709  14.432  32.721   7.111
 5065POPC   C4B65710  14.744  32.727   7.434
 5066POPC   NC365711  18.648  19.336   5.611
 5066POPC   PO465712  17.977  19.186   5.378
 5066POPC   GL165713  17.921  19.185   5.786
 5066POPC   GL265714  18.269  19.074   5.851
 5066POPC   C1A65715  17.984  19.348   6.198
 5066POPC   D2A65716  18.188  19.134   6.547
 5066POPC   C3A65717  18.314  19.031   6.966
 5066POPC   C4A65718  18.178  19.154   7.400
 5066POPC   C1B65719  18.300  18.769   6.168
 5066POPC   C2B65720  18.494  18.708   6.549
 5066POPC   C3B65721  18.482  18.527   6.926
 5066POPC   C4B65722  18.416  18.663   7.307
 5067POPC   NC365723  15.015   5.313   5.241
 5067POPC   PO465724  15.452   4.952   5.581
 5067POPC   GL165725  15.216   5.311   5.783
 5067POPC   GL265726  14.958   5.598   5.717
 5067POPC   C1A65727  15.308   5.327   6.225
 5067POPC   D2A65728  15.522   5.159   6.596
 5067POPC   C3A65729  15.296   5.088   6.986
 5067POPC   C4A65730  15.373   4.894   7.382
 5067POPC   C1B65731  14.893   5.616   6.193
 5067POPC   C2B65732  14.951   5.332   6.595
 5067POPC   C3B65733  14.876   5.369   7.033
 5067POPC   C4B65734  15.171   5.373   7.407
 5068POPC   NC365735  31.612  10.921   5.401
 5068POPC   PO465736  31.410  10.245   5.437
 5068POPC   GL165737  31.486  10.564   5.766
 5068POPC   GL265738  31.245  10.855   5.832
 5068POPC   C1A65739  31.669  10.612   6.159
 5068POPC   D2A65740  31.508  10.597   6.563
 5068POPC   C3A65741  31.752  10.538   6.901
 5068POPC   C4A65742  31.548  10.467   7.308
 5068POPC   C1B65743  31.286  10.950   6.279
 5068POPC   C2B65744  31.167  10.977   6.731
 5068POPC   C3B65745  31.243  10.954   7.191
 5068POPC   C4B65746  31.396  10.864   7.623
 5069POPC   NC365747  32.940  26.610   5.182
 5069POPC   PO465748  32.583  27.076   5.408
 5069POPC   GL165749  32.854  26.926   5.827
 5069POPC   GL265750  33.025  26.614   5.823
 5069POPC   C1A65751  32.856  26.999   6.326
 5069POPC   D2A65752  32.982  26.644   6.633
 5069POPC   C3A65753  33.147  26.667   7.057
 5069POPC   C4A65754  32.896  26.567   7.437
 5069POPC   C1B65755  33.262  26.717   6.208
 5069POPC   C2B65756  33.448  26.844   6.642
 5069POPC   C3B65757  33.474  27.073   7.053
 5069POPC   C4B65758  33.466  26.993   7.497
 5070POPC   NC365759  22.551  20.591   4.977
 5070POPC   PO465760  22.217  20.659   5.499
 5070POPC   GL165761  22.337  20.605   5.872
 5070POPC   GL265762  22.496  20.263   5.789
 5070POPC   C1A65763  22.219  20.880   6.202
 5070POPC   D2A65764  22.184  20.722   6.601
 5070POPC   C3A65765  21.959  20.840   6.942
 5070POPC   C4A65766  22.149  20.770   7.340
 5070POPC   C1B65767  22.478  20.298   6.236
 5070POPC   C2B65768  22.279  20.171   6.585
 5070POPC   C3B65769  22.285  20.372   6.960
 5070POPC   C4B65770  22.301  20.278   7.387
 5071POPC   NC365771  17.626   9.011   5.337
 5071POPC   PO465772  17.055   9.328   5.595
 5071POPC   GL165773  17.400   9.145   5.782
 5071POPC   GL265774  17.360   8.773   5.817
 5071POPC   C1A65775  17.428   9.058   6.229
 5071POPC   D2A65776  17.516   8.784   6.544
 5071POPC   C3A65777  17.597   8.996   6.909
 5071POPC   C4A65778  17.376   9.011   7.266
 5071POPC   C1B65779  17.652   8.530   6.085
 5071POPC   C2B65780  17.745   8.326   6.484
 5071POPC   C3B65781  17.807   8.514   6.899
 5071POPC   C4B65782  17.790   8.692   7.322
 5072POPC   NC365783  12.708  29.032   5.235
 5072POPC   PO465784  13.001  29.592   5.314
 5072POPC   GL165785  12.972  29.212   5.656
 5072POPC   GL265786  12.654  29.116   5.806
 5072POPC   C1A65787  13.055  29.012   6.104
 5072POPC   D2A65788  12.857  28.906   6.502
 5072POPC   C3A65789  13.108  28.904   6.870
 5072POPC   C4A65790  13.406  28.742   7.180
 5072POPC   C1B65791  12.474  29.163   6.219
 5072POPC   C2B65792  12.540  29.316   6.623
 5072POPC   C3B65793  12.734  29.259   6.996
 5072POPC   C4B65794  12.714  28.904   7.206
 5073POPC   NC365795  23.444   5.863   5.561
 5073POPC   PO465796  23.970   5.577   5.236
 5073POPC   GL165797  23.831   5.508   5.726
 5073POPC   GL265798  23.609   5.701   6.010
 5073POPC   C1A65799  24.044   5.521   6.154
 5073POPC   D2A65800  24.207   5.633   6.551
 5073POPC   C3A65801  24.028   5.834   6.893
 5073POPC   C4A65802  23.741   5.835   7.251
 5073POPC   C1B65803  23.689   5.807   6.479
 5073POPC   C2B65804  23.573   6.097   6.846
 5073POPC   C3B65805  23.565   6.368   7.253
 5073POPC   C4B65806  23.560   6.648   7.632
 5074POPC   NC365807   7.136  20.878   5.377
 5074POPC   PO465808   7.784  20.686   5.485
 5074POPC   GL165809   7.630  20.669   5.885
 5074POPC   GL265810   7.292  20.820   5.897
 5074POPC   C1A65811   7.435  20.333   6.125
 5074POPC   D2A65812   7.215  20.332   6.505
 5074POPC   C3A65813   7.466  20.320   6.833
 5074POPC   C4A65814   7.533  20.463   7.210
 5074POPC   C1B65815   7.405  20.795   6.352
 5074POPC   C2B65816   7.461  20.827   6.817
 5074POPC   C3B65817   7.422  20.940   7.263
 5074POPC   C4B65818   7.611  21.052   7.674
 5075POPC   NC365819   6.279  17.508   5.285
 5075POPC   PO465820   5.731  17.923   5.384
 5075POPC   GL165821   5.722  17.527   5.696
 5075POPC   GL265822   6.069  17.356   5.736
 5075POPC   C1A65823   5.729  17.270   6.114
 5075POPC   D2A65824   5.849  17.433   6.547
 5075POPC   C3A65825   5.787  17.293   6.987
 5075POPC   C4A65826   5.624  17.497   7.366
 5075POPC   C1B65827   6.230  17.407   6.167
 5075POPC   C2B65828   6.293  17.666   6.546
 5075POPC   C3B65829   6.152  17.678   6.960
 5075POPC   C4B65830   6.233  17.397   7.276
 5076POPC   NC365831  40.151  38.921   5.364
 5076POPC   PO465832  39.767  39.510   5.434
 5076POPC   GL165833  40.013  39.557   5.832
 5076POPC   GL265834  40.112  39.244   5.781
 5076POPC   C1A65835  40.020  39.409   6.282
 5076POPC   D2A65836  39.977  39.099   6.641
 5076POPC   C3A65837  40.082  39.282   6.986
 5076POPC   C4A65838  39.887  39.292   7.350
 5076POPC   C1B65839  40.398  39.058   6.074
 5076POPC   C2B65840  40.456  39.219   6.499
 5076POPC   C3B65841  40.578  39.127   6.904
 5076POPC   C4B65842  40.402  39.024   7.290
 5077POPC   NC365843   0.650  11.872   5.563
 5077POPC   PO465844   0.193  12.389   5.382
 5077POPC   GL165845   0.306  12.321   5.810
 5077POPC   GL265846   0.544  12.513   6.024
 5077POPC   C1A65847   0.383  12.055   6.168
 5077POPC   D2A65848   0.525  12.000   6.577
 5077POPC   C3A65849   0.252  11.765   6.834
 5077POPC   C4A65850   0.362  11.623   7.211
 5077POPC   C1B65851   0.902  12.396   6.320
 5077POPC   C2B65852   0.956  12.355   6.784
 5077POPC   C3B65853   0.711  12.039   7.046
 5077POPC   C4B65854   0.716  11.836   7.470
 5078POPC   NC365855   0.476   8.186   5.262
 5078POPC   PO465856  44.937   8.229   5.338
 5078POPC   GL165857   0.210   8.139   5.705
 5078POPC   GL265858   0.512   8.354   5.739
 5078POPC   C1A65859   0.388   7.960   6.096
 5078POPC   D2A65860   0.329   7.767   6.502
 5078POPC   C3A65861   0.309   7.997   6.911
 5078POPC   C4A65862   0.513   8.084   7.277
 5078POPC   C1B65863   0.515   8.476   6.168
 5078POPC   C2B65864   0.578   8.278   6.558
 5078POPC   C3B65865   0.671   8.455   6.958
 5078POPC   C4B65866   0.507   8.588   7.344
 5079POPC   NC365867  33.756  41.089   5.530
 5079POPC   PO465868  33.967  40.466   5.435
 5079POPC   GL165869  33.807  40.571   5.832
 5079POPC   GL265870  33.970  40.865   5.920
 5079POPC   C1A65871  33.971  40.478   6.250
 5079POPC   D2A65872  33.858  40.281   6.628
 5079POPC   C3A65873  33.856  40.490   7.036
 5079POPC   C4A65874  34.056  40.635   7.406
 5079POPC   C1B65875  33.639  40.866   6.235
 5079POPC   C2B65876  33.613  41.223   6.522
 5079POPC   C3B65877  33.639  41.247   6.940
 5079POPC   C4B65878  33.650  40.958   7.277
 5080POPC   NC365879  38.485   6.966   5.489
 5080POPC   PO465880  38.221   6.481   5.170
 5080POPC   GL165881  38.156   6.502   5.691
 5080POPC   GL265882  38.488   6.560   5.875
 5080POPC   C1A65883  38.107   6.594   6.202
 5080POPC   D2A65884  38.318   6.857   6.569
 5080POPC   C3A65885  38.395   6.655   6.979
 5080POPC   C4A65886  38.108   6.497   7.232
 5080POPC   C1B65887  38.617   6.497   6.348
 5080POPC   C2B65888  38.846   6.566   6.775
 5080POPC   C3B65889  38.811   6.411   7.229
 5080POPC   C4B65890  38.826   6.639   7.665
 5081POPC   NC365891   1.147  40.108   5.315
 5081POPC   PO465892   1.117  39.506   5.664
 5081POPC   GL165893   1.194  39.971   5.806
 5081POPC   GL265894   1.260  39.818   6.097
 5081POPC   C1A65895   1.208  40.305   6.169
 5081POPC   D2A65896   1.041  40.154   6.577
 5081POPC   C3A65897   1.231  40.324   6.969
 5081POPC   C4A65898   1.267  40.350   7.425
 5081POPC   C1B65899   1.018  39.622   6.398
 5081POPC   C2B65900   1.015  39.663   6.866
 5081POPC   C3B65901   1.196  39.873   7.224
 5081POPC   C4B65902   1.130  39.871   7.655
 5082POPC   NC365903  29.224  24.124   5.433
 5082POPC   PO465904  29.296  24.824   5.365
 5082POPC   GL165905  29.088  24.685   5.770
 5082POPC   GL265906  29.163  24.346   5.884
 5082POPC   C1A65907  29.028  24.669   6.235
 5082POPC   D2A65908  28.977  24.500   6.626
 5082POPC   C3A65909  29.294  24.636   6.891
 5082POPC   C4A65910  29.397  24.465   7.282
 5082POPC   C1B65911  29.313  24.211   6.329
 5082POPC   C2B65912  29.437  24.143   6.762
 5082POPC   C3B65913  29.534  23.979   7.167
 5082POPC   C4B65914  29.325  24.044   7.571
 5083POPC   NC365915  41.484  37.170   5.399
 5083POPC   PO465916  41.972  36.766   5.403
 5083POPC   GL165917  41.874  37.011   5.765
 5083POPC   GL265918  41.514  36.963   5.852
 5083POPC   C1A65919  41.831  36.995   6.220
 5083POPC   D2A65920  41.789  36.760   6.554
 5083POPC   C3A65921  41.858  36.961   6.920
 5083POPC   C4A65922  41.661  36.923   7.297
 5083POPC   C1B65923  41.329  36.835   6.242
 5083POPC   C2B65924  41.267  36.695   6.641
 5083POPC   C3B65925  41.196  36.849   7.039
 5083POPC   C4B65926  41.197  36.941   7.484
 5084POPC   NC365927  20.473  22.197   5.196
 5084POPC   PO465928  21.028  22.384   5.532
 5084POPC   GL165929  20.650  22.263   5.778
 5084POPC   GL265930  20.482  21.942   5.853
 5084POPC   C1A65931  20.549  22.263   6.251
 5084POPC   D2A65932  20.757  22.306   6.640
 5084POPC   C3A65933  20.771  22.089   7.025
 5084POPC   C4A65934  20.603  22.459   7.176
 5084POPC   C1B65935  20.372  21.762   6.258
 5084POPC   C2B65936  20.368  21.912   6.686
 5084POPC   C3B65937  20.161  21.727   7.073
 5084POPC   C4B65938  20.397  21.674   7.454
 5085POPC   NC365939  20.973  40.061   5.382
 5085POPC   PO465940  21.665  40.310   5.304
 5085POPC   GL165941  21.526  40.151   5.741
 5085POPC   GL265942  21.209  40.004   5.828
 5085POPC   C1A65943  21.573  39.954   6.171
 5085POPC   D2A65944  21.623  40.211   6.546
 5085POPC   C3A65945  21.511  40.123   6.977
 5085POPC   C4A65946  21.461  39.746   7.215
 5085POPC   C1B65947  21.159  40.232   6.238
 5085POPC   C2B65948  21.190  39.942   6.589
 5085POPC   C3B65949  21.033  39.884   6.979
 5085POPC   C4B65950  21.132  40.137   7.308
 5086POPC   NC365951  19.204   8.622   5.332
 5086POPC   PO465952  19.054   9.293   5.445
 5086POPC   GL165953  19.070   9.049   5.817
 5086POPC   GL265954  19.309   9.204   5.998
 5086POPC   C1A65955  18.841   8.874   6.180
 5086POPC   D2A65956  18.944   8.698   6.603
 5086POPC   C3A65957  18.741   8.830   6.997
 5086POPC   C4A65958  18.908   8.919   7.416
 5086POPC   C1B65959  19.081   9.280   6.377
 5086POPC   C2B65960  19.014   9.210   6.840
 5086POPC   C3B65961  19.187   9.330   7.243
 5086POPC   C4B65962  19.517   9.339   7.561
 5087POPC   NC365963  36.002  39.724   5.305
 5087POPC   PO465964  36.332  40.255   5.433
 5087POPC   GL165965  36.145  40.005   5.766
 5087POPC   GL265966  35.980  39.652   5.817
 5087POPC   C1A65967  36.144  39.984   6.177
 5087POPC   D2A65968  36.263  40.145   6.544
 5087POPC   C3A65969  35.919  40.218   6.799
 5087POPC   C4A65970  36.021  39.977   7.161
 5087POPC   C1B65971  35.776  39.643   6.257
 5087POPC   C2B65972  35.756  39.702   6.730
 5087POPC   C3B65973  35.982  39.477   7.074
 5087POPC   C4B65974  35.989  39.513   7.542
 5088POPC   NC365975   7.611  12.521   5.185
 5088POPC   PO465976   7.329  11.916   5.433
 5088POPC   GL165977   7.302  11.996   5.875
 5088POPC   GL265978   7.051  12.228   6.030
 5088POPC   C1A65979   7.510  12.124   6.252
 5088POPC   D2A65980   7.362  12.306   6.628
 5088POPC   C3A65981   7.544  12.074   6.946
 5088POPC   C4A65982   7.683  11.848   7.260
 5088POPC   C1B65983   7.064  11.879   6.341
 5088POPC   C2B65984   7.077  11.896   6.777
 5088POPC   C3B65985   7.077  12.229   7.056
 5088POPC   C4B65986   7.249  12.096   7.398
 5089POPC   NC365987  32.518   8.380   5.382
 5089POPC   PO465988  32.141   7.854   5.447
 5089POPC   GL165989  32.054   8.072   5.816
 5089POPC   GL265990  32.109   8.447   5.753
 5089POPC   C1A65991  32.088   7.922   6.250
 5089POPC   D2A65992  31.896   7.838   6.639
 5089POPC   C3A65993  32.164   7.954   6.940
 5089POPC   C4A65994  32.088   8.186   7.283
 5089POPC   C1B65995  32.286   8.380   6.165
 5089POPC   C2B65996  32.115   8.350   6.606
 5089POPC   C3B65997  32.372   8.460   6.984
 5089POPC   C4B65998  32.421   8.655   7.411
 5090POPC   NC365999   0.624  20.462   5.284
 5090POPC   PO466000   0.604  21.040   5.449
 5090POPC   GL166001   0.567  20.687   5.755
 5090POPC   GL266002   0.833  20.379   5.742
 5090POPC   C1A66003   0.432  20.748   6.183
 5090POPC   D2A66004   0.653  20.810   6.551
 5090POPC   C3A66005   0.556  20.631   6.939
 5090POPC   C4A66006   0.173  20.653   7.169
 5090POPC   C1B66007   0.681  20.309   6.163
 5090POPC   C2B66008   0.817  20.339   6.596
 5090POPC   C3B66009   0.745  20.179   7.033
 5090POPC   C4B66010   0.449  20.182   7.425
 5091POPC   NC366011   6.572  34.103   5.508
 5091POPC   PO466012   6.953  33.548   5.338
 5091POPC   GL166013   6.707  33.578   5.725
 5091POPC   GL266014   6.777  33.853   5.942
 5091POPC   C1A66015   6.438  33.487   6.082
 5091POPC   D2A66016   6.520  33.670   6.475
 5091POPC   C3A66017   6.724  33.602   6.846
 5091POPC   C4A66018   6.775  33.913   7.169
 5091POPC   C1B66019   6.348  33.993   6.109
 5091POPC   C2B66020   6.244  34.104   6.529
 5091POPC   C3B66021   6.301  33.884   6.914
 5091POPC   C4B66022   6.285  33.886   7.327
 5092POPC   NC366023  10.539  41.261   5.444
 5092POPC   PO466024  10.646  41.953   5.455
 5092POPC   GL166025  10.490  41.678   5.776
 5092POPC   GL266026  10.805  41.491   5.824
 5092POPC   C1A66027  10.281  41.655   6.207
 5092POPC   D2A66028  10.350  41.448   6.635
 5092POPC   C3A66029  10.516  41.710   6.985
 5092POPC   C4A66030  10.825  41.652   7.329
 5092POPC   C1B66031  10.650  41.276   6.204
 5092POPC   C2B66032  10.717  41.064   6.609
 5092POPC   C3B66033  10.779  41.206   7.038
 5092POPC   C4B66034  10.432  41.323   7.298
 5093POPC   NC366035  24.262  11.579   4.900
 5093POPC   PO466036  24.535  11.188   5.469
 5093POPC   GL166037  24.740  11.242   5.871
 5093POPC   GL266038  24.720  11.568   5.883
 5093POPC   C1A66039  24.867  11.284   6.326
 5093POPC   D2A66040  24.585  11.370   6.705
 5093POPC   C3A66041  24.599  11.162   7.128
 5093POPC   C4A66042  24.368  11.052   7.544
 5093POPC   C1B66043  24.542  11.679   6.253
 5093POPC   C2B66044  24.467  11.864   6.642
 5093POPC   C3B66045  24.262  11.678   7.013
 5093POPC   C4B66046  24.127  11.458   7.360
 5094POPC   NC366047  44.337  41.235   5.376
 5094POPC   PO466048  44.990  41.438   5.240
 5094POPC   GL166049  44.837  41.295   5.680
 5094POPC   GL266050  44.534  41.304   5.914
 5094POPC   C1A66051   0.005  41.278   6.123
 5094POPC   D2A66052  44.689  41.250   6.464
 5094POPC   C3A66053  44.707  41.587   6.785
 5094POPC   C4A66054  44.784  41.564   7.226
 5094POPC   C1B66055  44.375  41.618   6.230
 5094POPC   C2B66056  44.271  41.827   6.631
 5094POPC   C3B66057  44.306  41.774   7.075
 5094POPC   C4B66058  44.543  41.974   7.407
 5095POPC   NC366059  38.851   0.604   5.498
 5095POPC   PO466060  38.178   0.503   5.525
 5095POPC   GL166061  38.209   0.268   5.880
 5095POPC   GL266062  38.531   0.447   5.908
 5095POPC   C1A66063  38.278   0.266   6.328
 5095POPC   D2A66064  38.283   0.671   6.578
 5095POPC   C3A66065  38.159   0.547   6.990
 5095POPC   C4A66066  38.211   0.129   7.158
 5095POPC   C1B66067  38.716   0.550   6.288
 5095POPC   C2B66068  38.703   0.318   6.686
 5095POPC   C3B66069  38.664   0.396   7.112
 5095POPC   C4B66070  38.487   0.715   7.330
 5096POPC   NC366071  25.189   5.756   5.391
 5096POPC   PO466072  25.857   5.749   5.275
 5096POPC   GL166073  25.614   5.930   5.744
 5096POPC   GL266074  25.257   5.936   5.845
 5096POPC   C1A66075  25.529   6.129   6.207
 5096POPC   D2A66076  25.503   5.933   6.638
 5096POPC   C3A66077  25.456   6.105   7.060
 5096POPC   C4A66078  25.534   5.973   7.505
 5096POPC   C1B66079  25.054   5.863   6.231
 5096POPC   C2B66080  24.995   6.073   6.623
 5096POPC   C3B66081  24.974   5.920   7.001
 5096POPC   C4B66082  24.964   6.075   7.394
 5097POPC   NC366083   6.418  14.058   5.369
 5097POPC   PO466084   6.792  13.475   5.375
 5097POPC   GL166085   6.757  13.772   5.666
 5097POPC   GL266086   6.476  13.641   5.825
 5097POPC   C1A66087   6.871  13.858   6.094
 5097POPC   D2A66088   6.704  13.923   6.509
 5097POPC   C3A66089   6.843  13.740   6.875
 5097POPC   C4A66090   6.901  14.058   7.170
 5097POPC   C1B66091   6.502  13.507   6.269
 5097POPC   C2B66092   6.481  13.383   6.721
 5097POPC   C3B66093   6.505  13.472   7.180
 5097POPC   C4B66094   6.410  13.430   7.652
 5098POPC   NC366095  28.945  18.522   5.643
 5098POPC   PO466096  28.579  17.964   5.374
 5098POPC   GL166097  28.577  18.160   5.781
 5098POPC   GL266098  28.250  18.266   5.950
 5098POPC   C1A66099  28.690  18.171   6.192
 5098POPC   D2A66100  28.380  18.116   6.479
 5098POPC   C3A66101  28.527  18.122   6.881
 5098POPC   C4A66102  28.369  18.026   7.298
 5098POPC   C1B66103  28.379  18.590   6.241
 5098POPC   C2B66104  28.513  18.593   6.680
 5098POPC   C3B66105  28.330  18.519   7.107
 5098POPC   C4B66106  28.592  18.669   7.439
 5099POPC   NC366107  37.720   4.085   5.355
 5099POPC   PO466108  37.898   4.678   5.337
 5099POPC   GL166109  37.803   4.472   5.737
 5099POPC   GL266110  38.001   4.181   5.769
 5099POPC   C1A66111  37.497   4.535   6.094
 5099POPC   D2A66112  37.248   4.624   6.465
 5099POPC   C3A66113  37.326   4.428   6.836
 5099POPC   C4A66114  37.583   4.492   7.184
 5099POPC   C1B66115  37.675   4.055   6.047
 5099POPC   C2B66116  37.600   4.172   6.464
 5099POPC   C3B66117  37.725   4.096   6.885
 5099POPC   C4B66118  37.464   3.990   7.174
 5100POPC   NC366119  35.560   0.780   5.562
 5100POPC   PO466120  35.178   0.273   5.351
 5100POPC   GL166121  35.377   0.266   5.757
 5100POPC   GL266122  35.181  44.956   5.808
 5100POPC   C1A66123  35.560   0.445   6.166
 5100POPC   D2A66124  35.415   0.495   6.599
 5100POPC   C3A66125  35.646   0.634   6.974
 5100POPC   C4A66126  35.379   0.541   7.293
 5100POPC   C1B66127  35.136   0.137   6.234
 5100POPC   C2B66128  35.191   0.027   6.666
 5100POPC   C3B66129  35.062   0.187   7.048
 5100POPC   C4B66130  34.907   0.340   7.425
 5101POPC   NC366131  30.142  32.773   5.335
 5101POPC   PO466132  30.116  33.397   5.178
 5101POPC   GL166133  29.967  33.162   5.614
 5101POPC   GL266134  29.800  32.823   5.733
 5101POPC   C1A66135  29.965  33.156   6.094
 5101POPC   D2A66136  29.926  33.390   6.486
 5101POPC   C3A66137  29.790  33.179   6.837
 5101POPC   C4A66138  29.804  33.084   7.271
 5101POPC   C1B66139  29.571  32.817   6.131
 5101POPC   C2B66140  29.679  32.740   6.583
 5101POPC   C3B66141  29.506  32.753   7.022
 5101POPC   C4B66142  29.513  32.715   7.507
 5102POPC   NC366143  28.705  42.391   5.313
 5102POPC   PO466144  28.214  41.947   5.312
 5102POPC   GL166145  28.196  42.236   5.705
 5102POPC   GL266146  28.282  42.570   5.611
 5102POPC   C1A66147  28.288  42.235   6.183
 5102POPC   D2A66148  28.070  42.264   6.603
 5102POPC   C3A66149  28.262  42.156   6.995
 5102POPC   C4A66150  28.380  42.423   7.338
 5102POPC   C1B66151  28.323  42.729   6.049
 5102POPC   C2B66152  28.384  42.695   6.518
 5102POPC   C3B66153  28.457  42.772   6.981
 5102POPC   C4B66154  28.593  42.937   7.396
 5103POPC   NC366155   4.796   2.221   5.322
 5103POPC   PO466156   4.173   2.117   5.431
 5103POPC   GL166157   4.341   2.136   5.814
 5103POPC   GL266158   4.611   1.905   5.820
 5103POPC   C1A66159   4.251   1.907   6.183
 5103POPC   D2A66160   4.370   1.962   6.576
 5103POPC   C3A66161   4.128   1.919   6.937
 5103POPC   C4A66162   4.310   2.023   7.319
 5103POPC   C1B66163   4.732   1.698   6.197
 5103POPC   C2B66164   4.822   1.736   6.622
 5103POPC   C3B66165   4.678   1.915   6.982
 5103POPC   C4B66166   4.814   1.821   7.374
 5104POPC   NC366167  30.782   0.840   5.189
 5104POPC   PO466168  30.435   0.277   5.479
 5104POPC   GL166169  30.726   0.238   5.795
 5104POPC   GL266170  30.650   0.558   5.880
 5104POPC   C1A66171  30.990   0.311   6.178
 5104POPC   D2A66172  30.943   0.108   6.573
 5104POPC   C3A66173  31.127   0.173   6.988
 5104POPC   C4A66174  30.958   0.312   7.402
 5104POPC   C1B66175  30.505   0.315   6.281
 5104POPC   C2B66176  30.564   0.514   6.661
 5104POPC   C3B66177  30.721   0.589   7.050
 5104POPC   C4B66178  30.617   0.719   7.459
 5105POPC   NC366179  16.379   1.685   5.393
 5105POPC   PO466180  16.716   2.229   5.501
 5105POPC   GL166181  16.555   2.162   5.864
 5105POPC   GL266182  16.613   1.839   5.888
 5105POPC   C1A66183  16.428   2.152   6.268
 5105POPC   D2A66184  16.469   2.335   6.647
 5105POPC   C3A66185  16.728   2.088   6.919
 5105POPC   C4A66186  16.796   2.088   7.358
 5105POPC   C1B66187  16.768   1.630   6.281
 5105POPC   C2B66188  16.749   1.545   6.739
 5105POPC   C3B66189  16.878   1.611   7.180
 5105POPC   C4B66190  16.626   1.675   7.609
 5106POPC   NC366191  21.774  20.112   5.452
 5106POPC   PO466192  21.206  19.702   5.380
 5106POPC   GL166193  21.389  19.880   5.733
 5106POPC   GL266194  21.254  20.173   5.767
 5106POPC   C1A66195  21.178  19.832   6.170
 5106POPC   D2A66196  21.277  19.698   6.561
 5106POPC   C3A66197  21.084  19.736   6.943
 5106POPC   C4A66198  21.319  19.732   7.319
 5106POPC   C1B66199  21.538  20.176   6.128
 5106POPC   C2B66200  21.359  20.208   6.542
 5106POPC   C3B66201  21.475  20.066   6.943
 5106POPC   C4B66202  21.391  20.261   7.323
 5107POPC   NC366203   6.557  31.662   5.440
 5107POPC   PO466204   6.843  30.985   5.423
 5107POPC   GL166205   6.907  31.212   5.812
 5107POPC   GL266206   6.563  31.335   5.866
 5107POPC   C1A66207   6.915  31.456   6.220
 5107POPC   D2A66208   6.648  31.438   6.552
 5107POPC   C3A66209   6.811  31.377   6.935
 5107POPC   C4A66210   7.037  31.641   7.188
 5107POPC   C1B66211   6.273  31.409   6.221
 5107POPC   C2B66212   6.160  31.390   6.677
 5107POPC   C3B66213   6.247  31.356   7.134
 5107POPC   C4B66214   6.571  31.471   7.406
 5108POPC   NC366215  34.073   7.586   5.363
 5108POPC   PO466216  33.542   7.346   5.077
 5108POPC   GL166217  33.614   7.518   5.612
 5108POPC   GL266218  33.926   7.693   5.818
 5108POPC   C1A66219  33.678   7.393   6.125
 5108POPC   D2A66220  33.805   7.532   6.571
 5108POPC   C3A66221  33.785   7.330   7.004
 5108POPC   C4A66222  33.787   7.600   7.385
 5108POPC   C1B66223  34.182   7.599   6.195
 5108POPC   C2B66224  34.305   7.643   6.641
 5108POPC   C3B66225  34.291   7.453   7.058
 5108POPC   C4B66226  34.096   7.224   7.438
 5109POPC   NC366227  14.505  38.038   5.481
 5109POPC   PO466228  14.137  37.416   5.618
 5109POPC   GL166229  14.383  37.687   5.843
 5109POPC   GL266230  14.218  38.014   5.903
 5109POPC   C1A66231  14.486  37.701   6.273
 5109POPC   D2A66232  14.508  37.794   6.693
 5109POPC   C3A66233  14.436  37.442   6.957
 5109POPC   C4A66234  14.704  37.539   7.282
 5109POPC   C1B66235  14.018  38.193   6.285
 5109POPC   C2B66236  14.092  38.137   6.734
 5109POPC   C3B66237  14.155  37.855   7.057
 5109POPC   C4B66238  14.206  37.903   7.461
 5110POPC   NC366239  39.588  35.686   5.631
 5110POPC   PO466240  39.509  36.310   5.367
 5110POPC   GL166241  39.338  36.218   5.808
 5110POPC   GL266242  39.042  36.099   5.835
 5110POPC   C1A66243  39.186  36.328   6.253
 5110POPC   D2A66244  38.929  36.275   6.628
 5110POPC   C3A66245  39.137  36.337   7.021
 5110POPC   C4A66246  39.271  36.085   7.428
 5110POPC   C1B66247  39.050  35.850   6.243
 5110POPC   C2B66248  39.215  35.843   6.621
 5110POPC   C3B66249  38.973  35.849   6.947
 5110POPC   C4B66250  38.911  35.743   7.352
 5111POPC   NC366251   6.817  40.958   5.362
 5111POPC   PO466252   6.407  40.538   5.595
 5111POPC   GL166253   6.590  40.893   5.811
 5111POPC   GL266254   6.948  40.775   5.808
 5111POPC   C1A66255   6.457  41.079   6.200
 5111POPC   D2A66256   6.339  40.799   6.544
 5111POPC   C3A66257   6.545  40.817   6.930
 5111POPC   C4A66258   6.417  40.711   7.354
 5111POPC   C1B66259   6.792  40.633   6.195
 5111POPC   C2B66260   7.047  40.491   6.495
 5111POPC   C3B66261   6.976  40.298   6.848
 5111POPC   C4B66262   6.863  40.516   7.184
 5112POPC   NC366263  13.060   3.357   5.142
 5112POPC   PO466264  12.789   3.971   5.282
 5112POPC   GL166265  12.793   3.770   5.717
 5112POPC   GL266266  13.084   3.595   5.865
 5112POPC   C1A66267  12.645   3.644   6.144
 5112POPC   D2A66268  12.930   3.757   6.494
 5112POPC   C3A66269  12.907   3.634   6.891
 5112POPC   C4A66270  13.046   3.574   7.277
 5112POPC   C1B66271  13.007   3.316   6.269
 5112POPC   C2B66272  13.057   3.166   6.652
 5112POPC   C3B66273  12.855   3.126   6.997
 5112POPC   C4B66274  13.026   3.058   7.336
 5113POPC   NC366275  25.364  39.575   5.687
 5113POPC   PO466276  25.204  38.888   5.595
 5113POPC   GL166277  25.396  39.143   5.932
 5113POPC   GL266278  25.643  39.442   6.071
 5113POPC   C1A66279  25.149  39.358   6.270
 5113POPC   D2A66280  24.937  39.047   6.522
 5113POPC   C3A66281  25.006  38.995   6.963
 5113POPC   C4A66282  25.105  39.423   7.097
 5113POPC   C1B66283  25.604  39.154   6.390
 5113POPC   C2B66284  25.383  39.225   6.708
 5113POPC   C3B66285  25.525  39.132   7.034
 5113POPC   C4B66286  25.815  39.375   7.157
 5114POPC   NC366287   7.894  10.291   5.139
 5114POPC   PO466288   8.373  10.685   5.297
 5114POPC   GL166289   8.158  10.566   5.704
 5114POPC   GL266290   8.432  10.415   5.842
 5114POPC   C1A66291   8.107  10.613   6.181
 5114POPC   D2A66292   8.332  10.741   6.570
 5114POPC   C3A66293   8.267  10.565   6.979
 5114POPC   C4A66294   7.947  10.509   7.276
 5114POPC   C1B66295   8.576  10.386   6.291
 5114POPC   C2B66296   8.683  10.347   6.735
 5114POPC   C3B66297   8.535  10.135   7.106
 5114POPC   C4B66298   8.397  10.351   7.452
 5115POPC   NC366299   6.958  12.271   5.527
 5115POPC   PO466300   6.382  11.959   5.339
 5115POPC   GL166301   6.531  11.905   5.797
 5115POPC   GL266302   6.847  11.747   5.883
 5115POPC   C1A66303   6.593  12.107   6.221
 5115POPC   D2A66304   6.834  12.307   6.571
 5115POPC   C3A66305   6.587  12.282   6.958
 5115POPC   C4A66306   6.249  12.028   7.170
 5115POPC   C1B66307   6.623  11.607   6.299
 5115POPC   C2B66308   6.578  11.776   6.749
 5115POPC   C3B66309   6.756  11.847   7.187
 5115POPC   C4B66310   6.896  11.754   7.613
 5116POPC   NC366311  24.036  29.374   5.033
 5116POPC   PO466312  23.689  28.919   5.442
 5116POPC   GL166313  23.658  29.120   5.804
 5116POPC   GL266314  23.349  29.299   5.827
 5116POPC   C1A66315  23.928  29.132   6.137
 5116POPC   D2A66316  23.967  29.352   6.517
 5116POPC   C3A66317  24.214  29.174   6.829
 5116POPC   C4A66318  23.996  29.072   7.194
 5116POPC   C1B66319  23.432  29.107   6.257
 5116POPC   C2B66320  23.377  28.819   6.571
 5116POPC   C3B66321  23.502  28.876   6.967
 5116POPC   C4B66322  23.503  29.040   7.371
 5117POPC   NC366323   0.201  17.764   5.520
 5117POPC   PO466324   0.760  17.496   5.325
 5117POPC   GL166325   0.631  17.577   5.772
 5117POPC   GL266326   0.398  17.329   5.928
 5117POPC   C1A66327   0.699  17.589   6.231
 5117POPC   D2A66328   0.725  17.377   6.603
 5117POPC   C3A66329   0.696  17.574   6.989
 5117POPC   C4A66330   0.915  17.443   7.342
 5117POPC   C1B66331   0.196  17.519   6.300
 5117POPC   C2B66332   0.281  17.714   6.671
 5117POPC   C3B66333   0.207  17.705   7.101
 5117POPC   C4B66334   0.283  17.272   7.174
 5118POPC   NC366335   9.526  42.321   5.332
 5118POPC   PO466336   9.836  41.776   5.215
 5118POPC   GL166337   9.732  41.961   5.686
 5118POPC   GL266338   9.434  42.167   5.800
 5118POPC   C1A66339   9.819  41.962   6.142
 5118POPC   D2A66340   9.855  42.276   6.448
 5118POPC   C3A66341   9.906  42.217   6.899
 5118POPC   C4A66342   9.902  41.932   7.283
 5118POPC   C1B66343   9.398  42.271   6.210
 5118POPC   C2B66344   9.400  42.437   6.599
 5118POPC   C3B66345   9.403  42.315   6.989
 5118POPC   C4B66346   9.652  42.376   7.349
 5119POPC   NC366347   5.987  13.157   5.322
 5119POPC   PO466348   6.023  13.823   5.288
 5119POPC   GL166349   5.958  13.697   5.705
 5119POPC   GL266350   6.127  14.003   5.783
 5119POPC   C1A66351   6.001  13.553   6.131
 5119POPC   D2A66352   6.000  13.313   6.524
 5119POPC   C3A66353   6.014  13.514   6.928
 5119POPC   C4A66354   6.033  13.308   7.314
 5119POPC   C1B66355   6.335  14.012   6.152
 5119POPC   C2B66356   6.208  13.833   6.539
 5119POPC   C3B66357   6.349  13.927   6.937
 5119POPC   C4B66358   5.986  14.019   7.168
 5120POPC   NC366359  42.167  36.392   5.266
 5120POPC   PO466360  42.411  35.828   5.240
 5120POPC   GL166361  42.323  36.228   5.713
 5120POPC   GL266362  42.059  36.317   5.837
 5120POPC   C1A66363  42.510  36.263   6.168
 5120POPC   D2A66364  42.456  35.991   6.544
 5120POPC   C3A66365  42.465  36.063   6.966
 5120POPC   C4A66366  42.756  36.218   7.259
 5120POPC   C1B66367  42.025  36.169   6.266
 5120POPC   C2B66368  42.109  36.361   6.663
 5120POPC   C3B66369  41.958  36.133   6.983
 5120POPC   C4B66370  42.090  35.924   7.305
 5121POPC   NC366371  28.042  15.746   5.010
 5121POPC   PO466372  28.418  15.282   5.450
 5121POPC   GL166373  28.386  15.085   5.856
 5121POPC   GL266374  28.398  15.390   6.037
 5121POPC   C1A66375  28.307  14.931   6.289
 5121POPC   D2A66376  28.534  15.090   6.654
 5121POPC   C3A66377  28.400  14.935   7.057
 5121POPC   C4A66378  28.367  15.021   7.504
 5121POPC   C1B66379  28.085  15.398   6.370
 5121POPC   C2B66380  28.087  15.315   6.815
 5121POPC   C3B66381  28.318  15.424   7.192
 5121POPC   C4B66382  28.553  15.550   7.571
 5122POPC   NC366383   0.770  43.332   5.355
 5122POPC   PO466384   0.197  42.958   5.298
 5122POPC   GL166385   0.383  43.057   5.734
 5122POPC   GL266386   0.731  43.067   5.768
 5122POPC   C1A66387   0.514  43.349   6.120
 5122POPC   D2A66388   0.450  43.504   6.551
 5122POPC   C3A66389   0.492  43.319   6.935
 5122POPC   C4A66390   0.268  43.209   7.269
 5122POPC   C1B66391   0.579  42.850   6.146
 5122POPC   C2B66392   0.484  42.963   6.559
 5122POPC   C3B66393   0.638  42.845   6.983
 5122POPC   C4B66394   0.457  42.751   7.372
 5123POPC   NC366395   8.508   8.482   5.417
 5123POPC   PO466396   7.881   8.057   5.264
 5123POPC   GL166397   8.073   8.244   5.674
 5123POPC   GL266398   8.432   8.195   5.817
 5123POPC   C1A66399   8.039   8.410   6.128
 5123POPC   D2A66400   7.903   8.122   6.489
 5123POPC   C3A66401   7.899   8.237   6.937
 5123POPC   C4A66402   7.761   8.439   7.311
 5123POPC   C1B66403   8.265   7.936   6.157
 5123POPC   C2B66404   8.408   8.038   6.563
 5123POPC   C3B66405   8.431   8.289   6.921
 5123POPC   C4B66406   8.261   8.310   7.301
 5124POPC   NC366407  11.509  14.635   5.369
 5124POPC   PO466408  11.032  14.139   5.506
 5124POPC   GL166409  11.068  14.397   5.873
 5124POPC   GL266410  11.429  14.456   5.864
 5124POPC   C1A66411  11.135  14.445   6.333
 5124POPC   D2A66412  11.435  14.514   6.666
 5124POPC   C3A66413  11.266  14.351   7.041
 5124POPC   C4A66414  11.010  14.341   7.426
 5124POPC   C1B66415  11.574  14.724   6.209
 5124POPC   C2B66416  11.670  15.013   6.576
 5124POPC   C3B66417  11.686  14.828   6.999
 5124POPC   C4B66418  11.926  14.835   7.367
 5125POPC   NC366419  31.583   1.836   5.057
 5125POPC   PO466420  31.794   2.401   5.320
 5125POPC   GL166421  31.703   2.290   5.760
 5125POPC   GL266422  31.393   2.416   5.871
 5125POPC   C1A66423  31.528   1.980   6.091
 5125POPC   D2A66424  31.529   1.674   6.438
 5125POPC   C3A66425  31.536   1.798   6.897
 5125POPC   C4A66426  31.480   1.701   7.333
 5125POPC   C1B66427  31.166   2.304   6.231
 5125POPC   C2B66428  31.338   2.168   6.603
 5125POPC   C3B66429  31.475   2.355   6.993
 5125POPC   C4B66430  31.364   2.235   7.405
 5126POPC   NC366431  14.732  37.065   5.437
 5126POPC   PO466432  15.385  37.072   5.444
 5126POPC   GL166433  15.166  37.147   5.822
 5126POPC   GL266434  15.308  36.864   5.968
 5126POPC   C1A66435  15.089  37.198   6.292
 5126POPC   D2A66436  14.890  37.439   6.621
 5126POPC   C3A66437  14.854  37.160   6.944
 5126POPC   C4A66438  15.066  36.871   7.180
 5126POPC   C1B66439  15.203  36.713   6.382
 5126POPC   C2B66440  14.894  36.692   6.714
 5126POPC   C3B66441  14.858  36.415   7.092
 5126POPC   C4B66442  14.959  36.499   7.545
 5127POPC   NC366443  19.600  43.798   5.468
 5127POPC   PO466444  20.081  44.093   5.713
 5127POPC   GL166445  19.661  44.012   5.943
 5127POPC   GL266446  19.425  43.697   5.950
 5127POPC   C1A66447  19.836  44.022   6.354
 5127POPC   D2A66448  20.112  43.729   6.619
 5127POPC   C3A66449  20.193  43.834   7.052
 5127POPC   C4A66450  20.031  43.897   7.488
 5127POPC   C1B66451  19.367  43.825   6.391
 5127POPC   C2B66452  19.618  43.884   6.771
 5127POPC   C3B66453  19.708  43.703   7.125
 5127POPC   C4B66454  19.551  43.342   7.197
 5128POPC   NC366455  42.676   1.883   5.407
 5128POPC   PO466456  42.177   2.333   5.340
 5128POPC   GL166457  42.421   2.196   5.722
 5128POPC   GL266458  42.304   1.844   5.774
 5128POPC   C1A66459  42.645   2.039   6.111
 5128POPC   D2A66460  42.528   2.192   6.519
 5128POPC   C3A66461  42.654   2.126   6.929
 5128POPC   C4A66462  42.645   1.924   7.319
 5128POPC   C1B66463  42.166   1.936   6.197
 5128POPC   C2B66464  42.250   1.796   6.610
 5128POPC   C3B66465  42.182   1.927   7.072
 5128POPC   C4B66466  42.157   1.789   7.541
 5129POPC   NC366467  36.917   4.009   5.336
 5129POPC   PO466468  36.627   4.542   5.487
 5129POPC   GL166469  36.769   4.175   5.821
 5129POPC   GL266470  37.095   3.965   5.845
 5129POPC   C1A66471  36.944   4.196   6.275
 5129POPC   D2A66472  36.734   4.477   6.568
 5129POPC   C3A66473  36.722   4.552   7.008
 5129POPC   C4A66474  37.043   4.470   7.268
 5129POPC   C1B66475  37.272   3.758   6.221
 5129POPC   C2B66476  37.207   3.878   6.655
 5129POPC   C3B66477  36.983   4.068   6.978
 5129POPC   C4B66478  37.045   3.974   7.427
 5130POPC   NC366479  42.578  28.041   5.093
 5130POPC   PO466480  42.791  28.614   5.409
 5130POPC   GL166481  42.562  28.474   5.800
 5130POPC   GL266482  42.372  28.154   5.712
 5130POPC   C1A66483  42.306  28.508   6.187
 5130POPC   D2A66484  42.301  28.291   6.568
 5130POPC   C3A66485  42.245  28.505   6.961
 5130POPC   C4A66486  42.374  28.851   7.216
 5130POPC   C1B66487  42.535  28.009   6.125
 5130POPC   C2B66488  42.652  27.900   6.539
 5130POPC   C3B66489  42.644  28.133   6.904
 5130POPC   C4B66490  42.705  28.041   7.261
 5131POPC   NC366491  11.698   2.368   5.445
 5131POPC   PO466492  12.005   1.765   5.243
 5131POPC   GL166493  12.055   2.042   5.635
 5131POPC   GL266494  12.372   2.095   5.762
 5131POPC   C1A66495  11.812   2.143   6.041
 5131POPC   D2A66496  11.793   2.212   6.495
 5131POPC   C3A66497  12.033   2.077   6.855
 5131POPC   C4A66498  11.770   1.929   7.209
 5131POPC   C1B66499  12.297   2.189   6.219
 5131POPC   C2B66500  12.526   2.206   6.614
 5131POPC   C3B66501  12.517   2.300   7.041
 5131POPC   C4B66502  12.249   2.125   7.327
 5132POPC   NC366503  42.232   9.057   5.332
 5132POPC   PO466504  42.689   8.689   5.322
 5132POPC   GL166505  42.533   8.864   5.727
 5132POPC   GL266506  42.395   9.199   5.790
 5132POPC   C1A66507  42.579   8.969   6.195
 5132POPC   D2A66508  42.764   9.056   6.592
 5132POPC   C3A66509  42.498   8.943   6.974
 5132POPC   C4A66510  42.329   9.046   7.379
 5132POPC   C1B66511  42.096   9.131   6.143
 5132POPC   C2B66512  42.137   9.000   6.591
 5132POPC   C3B66513  42.142   9.307   6.948
 5132POPC   C4B66514  41.903   9.330   7.340
 5133POPC   NC366515  31.965  20.230   5.381
 5133POPC   PO466516  32.246  19.651   5.251
 5133POPC   GL166517  32.208  19.807   5.654
 5133POPC   GL266518  32.471  19.983   5.806
 5133POPC   C1A66519  32.120  19.654   6.080
 5133POPC   D2A66520  31.916  19.732   6.482
 5133POPC   C3A66521  32.048  19.634   6.927
 5133POPC   C4A66522  32.160  19.649   7.376
 5133POPC   C1B66523  32.342  20.087   6.249
 5133POPC   C2B66524  32.372  19.907   6.656
 5133POPC   C3B66525  32.343  20.080   7.063
 5133POPC   C4B66526  32.680  20.337   7.229
 5134POPC   NC366527  12.601  19.363   5.436
 5134POPC   PO466528  13.025  18.915   5.422
 5134POPC   GL166529  12.815  19.060   5.786
 5134POPC   GL266530  13.036  19.333   5.862
 5134POPC   C1A66531  12.707  18.897   6.189
 5134POPC   D2A66532  12.593  19.052   6.582
 5134POPC   C3A66533  12.598  18.801   6.922
 5134POPC   C4A66534  12.522  18.918   7.310
 5134POPC   C1B66535  13.224  19.040   6.155
 5134POPC   C2B66536  13.093  18.876   6.557
 5134POPC   C3B66537  12.995  19.095   6.920
 5134POPC   C4B66538  13.026  18.945   7.298
 5135POPC   NC366539   0.799  28.533   5.069
 5135POPC   PO466540   0.181  28.195   5.260
 5135POPC   GL166541   0.442  28.372   5.592
 5135POPC   GL266542   0.296  28.115   5.779
 5135POPC   C1A66543   0.615  28.426   6.070
 5135POPC   D2A66544   0.694  28.249   6.536
 5135POPC   C3A66545   0.544  28.377   6.967
 5135POPC   C4A66546   0.653  28.715   7.253
 5135POPC   C1B66547   0.327  28.016   6.216
 5135POPC   C2B66548   0.034  27.945   6.547
 5135POPC   C3B66549   0.121  28.018   6.963
 5135POPC   C4B66550  44.993  28.213   7.327
 5136POPC   NC366551  34.092  20.428   5.409
 5136POPC   PO466552  34.617  20.813   5.530
 5136POPC   GL166553  34.376  20.593   5.830
 5136POPC   GL266554  34.273  20.930   5.913
 5136POPC   C1A66555  34.549  20.300   6.177
 5136POPC   D2A66556  34.908  20.382   6.493
 5136POPC   C3A66557  34.790  20.504   6.916
 5136POPC   C4A66558  34.651  20.425   7.331
 5136POPC   C1B66559  34.539  20.802   6.266
 5136POPC   C2B66560  34.385  20.568   6.622
 5136POPC   C3B66561  34.331  20.718   7.042
 5136POPC   C4B66562  34.650  20.943   7.292
 5137POPC   NC366563  25.435  33.986   5.408
 5137POPC   PO466564  24.851  33.648   5.148
 5137POPC   GL166565  24.965  33.725   5.654
 5137POPC   GL266566  25.017  34.087   5.759
 5137POPC   C1A66567  25.213  33.747   6.103
 5137POPC   D2A66568  25.181  33.941   6.552
 5137POPC   C3A66569  25.191  33.721   6.938
 5137POPC   C4A66570  25.502  33.576   7.194
 5137POPC   C1B66571  25.290  34.259   6.144
 5137POPC   C2B66572  25.592  34.276   6.550
 5137POPC   C3B66573  25.555  34.143   7.008
 5137POPC   C4B66574  25.136  34.140   7.228
 5138POPC   NC366575  16.929   2.533   5.244
 5138POPC   PO466576  16.377   2.828   5.355
 5138POPC   GL166577  16.637   2.680   5.728
 5138POPC   GL266578  16.969   2.822   5.755
 5138POPC   C1A66579  16.741   2.577   6.157
 5138POPC   D2A66580  16.676   2.802   6.559
 5138POPC   C3A66581  16.715   2.639   6.990
 5138POPC   C4A66582  16.608   2.548   7.429
 5138POPC   C1B66583  16.999   3.026   6.197
 5138POPC   C2B66584  17.158   2.954   6.633
 5138POPC   C3B66585  16.927   3.110   7.000
 5138POPC   C4B66586  16.660   3.033   7.365
 5139POPC   NC366587  11.735  39.085   5.338
 5139POPC   PO466588  11.035  39.359   5.386
 5139POPC   GL166589  11.362  39.370   5.733
 5139POPC   GL266590  11.196  39.074   5.798
 5139POPC   C1A66591  11.403  39.248   6.227
 5139POPC   D2A66592  11.501  39.407   6.657
 5139POPC   C3A66593  11.298  39.537   7.062
 5139POPC   C4A66594  11.525  39.414   7.437
 5139POPC   C1B66595  10.967  39.436   6.053
 5139POPC   C2B66596  10.993  39.462   6.523
 5139POPC   C3B66597  11.098  39.124   6.844
 5139POPC   C4B66598  11.099  39.084   7.317
 5140POPC   NC366599  34.854   6.104   5.375
 5140POPC   PO466600  34.424   6.696   5.314
 5140POPC   GL166601  34.657   6.576   5.679
 5140POPC   GL266602  34.344   6.519   5.839
 5140POPC   C1A66603  34.716   6.658   6.156
 5140POPC   D2A66604  34.735   6.448   6.566
 5140POPC   C3A66605  34.663   6.682   6.937
 5140POPC   C4A66606  34.940   6.740   7.277
 5140POPC   C1B66607  34.237   6.841   6.167
 5140POPC   C2B66608  34.390   6.976   6.586
 5140POPC   C3B66609  34.238   6.937   7.030
 5140POPC   C4B66610  34.404   6.828   7.474
 5141POPC   NC366611  24.278  11.581   5.587
 5141POPC   PO466612  23.725  11.676   5.144
 5141POPC   GL166613  23.776  11.502   5.679
 5141POPC   GL266614  23.960  11.209   5.794
 5141POPC   C1A66615  23.850  11.618   6.161
 5141POPC   D2A66616  23.976  11.446   6.610
 5141POPC   C3A66617  23.753  11.291   7.013
 5141POPC   C4A66618  23.584  11.504   7.372
 5141POPC   C1B66619  23.642  11.150   6.122
 5141POPC   C2B66620  23.588  11.062   6.576
 5141POPC   C3B66621  23.339  10.953   6.945
 5141POPC   C4B66622  23.418  10.941   7.372
 5142POPC   NC366623  19.027   4.006   5.476
 5142POPC   PO466624  19.203   4.669   5.513
 5142POPC   GL166625  18.992   4.398   5.829
 5142POPC   GL266626  19.201   4.103   5.947
 5142POPC   C1A66627  18.869   4.390   6.267
 5142POPC   D2A66628  19.119   4.269   6.646
 5142POPC   C3A66629  18.916   4.169   7.040
 5142POPC   C4A66630  18.811   4.563   7.208
 5142POPC   C1B66631  18.921   3.877   6.234
 5142POPC   C2B66632  19.039   3.770   6.675
 5142POPC   C3B66633  19.379   3.904   6.967
 5142POPC   C4B66634  19.352   4.043   7.398
 5143POPC   NC366635  38.578  33.236   5.428
 5143POPC   PO466636  38.145  32.630   5.416
 5143POPC   GL166637  38.204  32.971   5.757
 5143POPC   GL266638  38.138  33.340   5.699
 5143POPC   C1A66639  38.560  33.067   6.083
 5143POPC   D2A66640  38.825  33.143   6.473
 5143POPC   C3A66641  38.726  32.859   6.831
 5143POPC   C4A66642  38.594  32.837   7.255
 5143POPC   C1B66643  38.125  33.324   6.156
 5143POPC   C2B66644  38.297  33.136   6.580
 5143POPC   C3B66645  38.417  33.251   7.024
 5143POPC   C4B66646  38.506  33.286   7.504
 5144POPC   NC366647  35.626  41.716   5.633
 5144POPC   PO466648  35.156  41.305   5.588
 5144POPC   GL166649  35.248  41.553   5.917
 5144POPC   GL266650  35.553  41.293   5.931
 5144POPC   C1A66651  35.446  41.754   6.270
 5144POPC   D2A66652  35.603  41.816   6.684
 5144POPC   C3A66653  35.322  41.685   6.999
 5144POPC   C4A66654  35.244  41.800   7.401
 5144POPC   C1B66655  35.249  41.180   6.236
 5144POPC   C2B66656  35.310  41.362   6.593
 5144POPC   C3B66657  35.643  41.310   6.864
 5144POPC   C4B66658  35.591  41.359   7.293
 5145POPC   NC366659  37.569  14.032   5.427
 5145POPC   PO466660  37.751  14.646   5.378
 5145POPC   GL166661  37.848  14.378   5.728
 5145POPC   GL266662  37.496  14.342   5.821
 5145POPC   C1A66663  37.882  14.251   6.179
 5145POPC   D2A66664  38.008  14.432   6.596
 5145POPC   C3A66665  37.966  14.421   7.034
 5145POPC   C4A66666  37.679  14.705   7.269
 5145POPC   C1B66667  37.371  14.132   6.190
 5145POPC   C2B66668  37.562  14.155   6.605
 5145POPC   C3B66669  37.485  14.264   7.034
 5145POPC   C4B66670  37.338  14.120   7.433
 5146POPC   NC366671  32.424  27.531   5.451
 5146POPC   PO466672  32.072  28.124   5.306
 5146POPC   GL166673  32.114  27.865   5.718
 5146POPC   GL266674  32.455  27.771   5.898
 5146POPC   C1A66675  32.019  27.712   6.164
 5146POPC   D2A66676  32.281  27.750   6.547
 5146POPC   C3A66677  32.165  27.602   6.953
 5146POPC   C4A66678  32.041  27.791   7.325
 5146POPC   C1B66679  32.636  27.502   6.259
 5146POPC   C2B66680  32.543  27.277   6.652
 5146POPC   C3B66681  32.586  27.323   7.070
 5146POPC   C4B66682  32.542  27.643   7.339
 5147POPC   NC366683  36.475  29.150   5.101
 5147POPC   PO466684  35.909  29.291   5.352
 5147POPC   GL166685  36.004  29.021   5.695
 5147POPC   GL266686  36.145  29.325   5.831
 5147POPC   C1A66687  35.852  28.999   6.137
 5147POPC   D2A66688  36.081  28.861   6.537
 5147POPC   C3A66689  35.927  28.977   6.952
 5147POPC   C4A66690  36.172  29.081   7.325
 5147POPC   C1B66691  36.274  29.276   6.263
 5147POPC   C2B66692  36.147  29.389   6.680
 5147POPC   C3B66693  36.353  29.488   7.051
 5147POPC   C4B66694  36.403  29.525   7.499
 5148POPC   NC366695  40.305  31.107   5.293
 5148POPC   PO466696  40.741  30.658   5.271
 5148POPC   GL166697  40.851  30.753   5.734
 5148POPC   GL266698  41.063  31.096   5.757
 5148POPC   C1A66699  40.710  30.647   6.200
 5148POPC   D2A66700  40.885  30.737   6.644
 5148POPC   C3A66701  40.667  30.662   7.059
 5148POPC   C4A66702  40.398  31.019   7.206
 5148POPC   C1B66703  41.106  30.982   6.213
 5148POPC   C2B66704  41.188  31.155   6.645
 5148POPC   C3B66705  41.110  30.949   7.068
 5148POPC   C4B66706  41.340  30.910   7.486
 5149POPC   NC366707  28.529  37.299   5.407
 5149POPC   PO466708  29.250  37.190   5.339
 5149POPC   GL166709  29.244  36.933   5.754
 5149POPC   GL266710  28.876  36.978   5.796
 5149POPC   C1A66711  29.328  36.639   6.152
 5149POPC   D2A66712  29.265  36.768   6.610
 5149POPC   C3A66713  29.443  36.625   7.021
 5149POPC   C4A66714  29.357  36.821   7.447
 5149POPC   C1B66715  28.954  36.963   6.241
 5149POPC   C2B66716  28.843  37.073   6.672
 5149POPC   C3B66717  29.043  36.952   7.064
 5149POPC   C4B66718  28.916  37.109   7.467
 5150POPC   NC366719  20.812  34.187   5.052
 5150POPC   PO466720  20.458  33.792   5.490
 5150POPC   GL166721  20.606  33.625   5.826
 5150POPC   GL266722  20.308  33.457   5.881
 5150POPC   C1A66723  20.852  33.560   6.200
 5150POPC   D2A66724  21.045  33.902   6.467
 5150POPC   C3A66725  20.921  33.863   6.888
 5150POPC   C4A66726  20.882  34.098   7.218
 5150POPC   C1B66727  20.298  33.793   6.180
 5150POPC   C2B66728  20.508  33.744   6.559
 5150POPC   C3B66729  20.481  33.612   6.971
 5150POPC   C4B66730  20.277  33.816   7.283
 5151POPC   NC366731  30.833  34.497   5.390
 5151POPC   PO466732  30.322  34.968   5.452
 5151POPC   GL166733  30.555  34.755   5.780
 5151POPC   GL266734  30.483  34.400   5.788
 5151POPC   C1A66735  30.809  34.570   6.147
 5151POPC   D2A66736  30.852  34.378   6.573
 5151POPC   C3A66737  30.885  34.636   6.960
 5151POPC   C4A66738  30.632  34.833   7.274
 5151POPC   C1B66739  30.438  34.161   6.173
 5151POPC   C2B66740  30.364  34.244   6.597
 5151POPC   C3B66741  30.525  34.282   7.009
 5151POPC   C4B66742  30.270  34.473   7.318
 5152POPC   NC366743   1.432  22.756   5.376
 5152POPC   PO466744   1.048  23.311   5.384
 5152POPC   GL166745   1.165  22.994   5.751
 5152POPC   GL266746   1.491  23.004   5.868
 5152POPC   C1A66747   0.980  23.014   6.177
 5152POPC   D2A66748   1.137  23.089   6.590
 5152POPC   C3A66749   0.988  22.952   6.978
 5152POPC   C4A66750   1.136  22.661   7.326
 5152POPC   C1B66751   1.555  23.228   6.272
 5152POPC   C2B66752   1.566  23.307   6.736
 5152POPC   C3B66753   1.503  23.034   7.109
 5152POPC   C4B66754   1.248  23.107   7.522
 5153POPC   NC366755   4.509   0.676   5.363
 5153POPC   PO466756   4.535   0.013   5.561
 5153POPC   GL166757   4.232   0.147   5.896
 5153POPC   GL266758   4.060   0.490   5.832
 5153POPC   C1A66759   4.275   0.353   6.319
 5153POPC   D2A66760   4.511   0.622   6.626
 5153POPC   C3A66761   4.425   0.540   7.041
 5153POPC   C4A66762   4.184   0.220   7.177
 5153POPC   C1B66763   3.850   0.711   6.193
 5153POPC   C2B66764   3.645   0.796   6.611
 5153POPC   C3B66765   3.930   0.653   6.948
 5153POPC   C4B66766   4.059   0.698   7.394
 5154POPC   NC366767   5.460  23.912   5.085
 5154POPC   PO466768   5.853  23.515   5.554
 5154POPC   GL166769   6.081  23.868   5.723
 5154POPC   GL266770   5.836  23.791   5.994
 5154POPC   C1A66771   6.249  24.047   6.119
 5154POPC   D2A66772   6.005  23.853   6.478
 5154POPC   C3A66773   6.002  23.980   6.903
 5154POPC   C4A66774   6.171  23.759   7.237
 5154POPC   C1B66775   5.463  23.830   6.251
 5154POPC   C2B66776   5.519  23.743   6.677
 5154POPC   C3B66777   5.797  23.512   6.911
 5154POPC   C4B66778   5.691  23.508   7.318
 5155POPC   NC366779  21.750  41.437   5.454
 5155POPC   PO466780  22.295  41.915   5.313
 5155POPC   GL166781  22.096  41.734   5.713
 5155POPC   GL266782  22.125  41.361   5.778
 5155POPC   C1A66783  22.135  41.700   6.184
 5155POPC   D2A66784  22.449  41.691   6.558
 5155POPC   C3A66785  22.297  41.667   6.991
 5155POPC   C4A66786  21.996  41.973   7.138
 5155POPC   C1B66787  22.275  41.154   6.092
 5155POPC   C2B66788  22.165  41.291   6.486
 5155POPC   C3B66789  22.108  41.202   6.912
 5155POPC   C4B66790  21.818  41.462   7.144
 5156POPC   NC366791  40.715  38.514   5.492
 5156POPC   PO466792  40.283  38.014   5.316
 5156POPC   GL166793  40.660  38.032   5.654
 5156POPC   GL266794  40.506  38.211   5.865
 5156POPC   C1A66795  40.948  38.108   6.065
 5156POPC   D2A66796  40.878  38.395   6.454
 5156POPC   C3A66797  40.916  38.341   6.923
 5156POPC   C4A66798  40.858  38.219   7.373
 5156POPC   C1B66799  40.404  38.250   6.264
 5156POPC   C2B66800  40.430  38.243   6.691
 5156POPC   C3B66801  40.448  38.233   7.098
 5156POPC   C4B66802  40.335  38.518   7.377
 5157POPC   NC366803  11.489  16.671   5.510
 5157POPC   PO466804  10.963  17.095   5.367
 5157POPC   GL166805  11.144  16.949   5.754
 5157POPC   GL266806  11.504  17.090   5.802
 5157POPC   C1A66807  11.228  16.731   6.146
 5157POPC   D2A66808  11.007  16.717   6.538
 5157POPC   C3A66809  11.107  16.363   6.836
 5157POPC   C4A66810  11.060  16.301   7.311
 5157POPC   C1B66811  11.628  17.034   6.211
 5157POPC   C2B66812  11.418  17.046   6.623
 5157POPC   C3B66813  11.255  16.829   6.981
 5157POPC   C4B66814  11.488  16.520   7.192
 5158POPC   NC366815  37.035  28.506   5.438
 5158POPC   PO466816  36.693  28.006   5.658
 5158POPC   GL166817  37.073  28.167   5.856
 5158POPC   GL266818  37.089  28.510   5.945
 5158POPC   C1A66819  37.136  28.128   6.288
 5158POPC   D2A66820  37.308  28.374   6.590
 5158POPC   C3A66821  37.174  28.222   6.948
 5158POPC   C4A66822  37.057  28.391   7.351
 5158POPC   C1B66823  36.723  28.433   6.202
 5158POPC   C2B66824  36.780  28.346   6.629
 5158POPC   C3B66825  36.863  28.622   6.952
 5158POPC   C4B66826  36.628  28.729   7.269
 5159POPC   NC366827  15.162   6.210   5.493
 5159POPC   PO466828  15.363   5.630   5.384
 5159POPC   GL166829  15.401   5.848   5.847
 5159POPC   GL266830  15.454   6.224   5.894
 5159POPC   C1A66831  15.249   5.975   6.311
 5159POPC   D2A66832  15.021   5.855   6.716
 5159POPC   C3A66833  15.320   5.653   7.006
 5159POPC   C4A66834  15.503   5.764   7.426
 5159POPC   C1B66835  15.050   6.415   6.118
 5159POPC   C2B66836  15.085   6.517   6.542
 5159POPC   C3B66837  15.312   6.331   6.855
 5159POPC   C4B66838  15.207   6.104   7.216
 5160POPC   NC366839  43.819  28.031   5.537
 5160POPC   PO466840  43.791  27.457   5.304
 5160POPC   GL166841  43.945  27.552   5.742
 5160POPC   GL266842  44.074  27.218   5.832
 5160POPC   C1A66843  44.069  27.629   6.193
 5160POPC   D2A66844  44.086  27.450   6.608
 5160POPC   C3A66845  44.224  27.622   6.982
 5160POPC   C4A66846  43.932  27.660   7.268
 5160POPC   C1B66847  43.685  27.272   6.099
 5160POPC   C2B66848  43.568  27.470   6.514
 5160POPC   C3B66849  43.673  27.352   6.950
 5160POPC   C4B66850  43.595  27.240   7.407
 5161POPC   NC366851   5.100  44.056   5.332
 5161POPC   PO466852   5.013  44.638   5.348
 5161POPC   GL166853   4.958  44.588   5.763
 5161POPC   GL266854   5.135  44.276   5.806
 5161POPC   C1A66855   5.141  44.740   6.143
 5161POPC   D2A66856   5.350  44.831   6.530
 5161POPC   C3A66857   5.082  44.896   6.857
 5161POPC   C4A66858   5.073  44.790   7.259
 5161POPC   C1B66859   4.842  44.288   6.158
 5161POPC   C2B66860   4.831  44.539   6.537
 5161POPC   C3B66861   4.966  44.394   6.934
 5161POPC   C4B66862   4.894  44.082   7.209
 5162POPC   NC366863  18.297  34.322   5.535
 5162POPC   PO466864  18.022  34.862   5.712
 5162POPC   GL166865  18.409  34.676   5.921
 5162POPC   GL266866  18.392  34.320   6.037
 5162POPC   C1A66867  18.454  34.740   6.357
 5162POPC   D2A66868  18.139  34.779   6.671
 5162POPC   C3A66869  17.961  34.453   6.949
 5162POPC   C4A66870  18.067  34.424   7.396
 5162POPC   C1B66871  18.317  34.268   6.469
 5162POPC   C2B66872  18.579  34.422   6.733
 5162POPC   C3B66873  18.445  34.603   7.078
 5162POPC   C4B66874  18.557  34.442   7.445
 5163POPC   NC366875  36.339  28.238   5.487
 5163POPC   PO466876  35.859  28.539   5.286
 5163POPC   GL166877  35.897  28.462   5.708
 5163POPC   GL266878  35.905  28.102   5.748
 5163POPC   C1A66879  36.102  28.541   6.116
 5163POPC   D2A66880  36.282  28.352   6.485
 5163POPC   C3A66881  36.341  28.525   6.869
 5163POPC   C4A66882  36.139  28.568   7.217
 5163POPC   C1B66883  36.191  28.022   6.086
 5163POPC   C2B66884  36.194  27.845   6.471
 5163POPC   C3B66885  36.037  28.038   6.842
 5163POPC   C4B66886  36.117  28.070   7.244
 5164POPC   NC366887  38.441  42.736   5.466
 5164POPC   PO466888  38.343  42.101   5.337
 5164POPC   GL166889  38.446  42.182   5.763
 5164POPC   GL266890  38.669  42.487   5.852
 5164POPC   C1A66891  38.402  42.055   6.190
 5164POPC   D2A66892  38.616  41.961   6.571
 5164POPC   C3A66893  38.437  42.130   6.931
 5164POPC   C4A66894  38.542  42.265   7.309
 5164POPC   C1B66895  38.287  42.550   6.103
 5164POPC   C2B66896  38.289  42.446   6.539
 5164POPC   C3B66897  38.329  42.650   6.938
 5164POPC   C4B66898  38.287  42.705   7.387
 5165POPC   NC366899  33.011  22.393   5.547
 5165POPC   PO466900  33.153  21.734   5.458
 5165POPC   GL166901  33.007  21.931   5.850
 5165POPC   GL266902  32.833  22.256   5.995
 5165POPC   C1A66903  32.863  21.838   6.271
 5165POPC   D2A66904  32.984  22.113   6.601
 5165POPC   C3A66905  32.848  22.017   7.004
 5165POPC   C4A66906  33.022  21.761   7.277
 5165POPC   C1B66907  33.158  22.467   6.248
 5165POPC   C2B66908  33.349  22.489   6.680
 5165POPC   C3B66909  33.301  22.494   7.141
 5165POPC   C4B66910  33.024  22.274   7.425
 5166POPC   NC366911  29.705  20.360   5.345
 5166POPC   PO466912  29.976  20.905   5.115
 5166POPC   GL166913  29.973  20.835   5.654
 5166POPC   GL266914  30.065  20.482   5.758
 5166POPC   C1A66915  29.817  20.729   6.108
 5166POPC   D2A66916  30.004  20.568   6.500
 5166POPC   C3A66917  29.997  20.855   6.846
 5166POPC   C4A66918  29.663  20.830   7.165
 5166POPC   C1B66919  30.206  20.237   6.130
 5166POPC   C2B66920  30.390  20.235   6.556
 5166POPC   C3B66921  30.250  20.406   6.969
 5166POPC   C4B66922  30.402  20.289   7.375
 5167POPC   NC366923  22.629  13.023   5.574
 5167POPC   PO466924  21.956  13.034   5.737
 5167POPC   GL166925  22.307  13.014   5.999
 5167POPC   GL266926  22.301  12.714   5.888
 5167POPC   C1A66927  22.238  13.032   6.442
 5167POPC   D2A66928  21.884  13.147   6.699
 5167POPC   C3A66929  22.034  13.031   7.052
 5167POPC   C4A66930  22.439  12.867   7.173
 5167POPC   C1B66931  22.080  12.595   6.252
 5167POPC   C2B66932  22.206  12.576   6.712
 5167POPC   C3B66933  21.969  12.537   7.130
 5167POPC   C4B66934  21.835  12.494   7.582
 5168POPC   NC366935  23.283  28.797   5.632
 5168POPC   PO466936  22.734  29.198   5.341
 5168POPC   GL166937  22.825  29.319   5.765
 5168POPC   GL266938  22.870  28.961   5.893
 5168POPC   C1A66939  22.987  29.335   6.191
 5168POPC   D2A66940  22.906  29.086   6.503
 5168POPC   C3A66941  23.143  29.211   6.822
 5168POPC   C4A66942  23.027  29.167   7.220
 5168POPC   C1B66943  22.508  29.134   6.126
 5168POPC   C2B66944  22.397  29.301   6.521
 5168POPC   C3B66945  22.620  29.259   6.904
 5168POPC   C4B66946  22.720  29.608   7.146
 5169POPC   NC366947  11.443  10.058   5.626
 5169POPC   PO466948  11.578  10.671   5.353
 5169POPC   GL166949  11.427  10.572   5.779
 5169POPC   GL266950  11.079  10.695   5.782
 5169POPC   C1A66951  11.433  10.422   6.239
 5169POPC   D2A66952  11.315  10.444   6.698
 5169POPC   C3A66953  11.412  10.304   7.128
 5169POPC   C4A66954  11.340  10.445   7.580
 5169POPC   C1B66955  10.927  10.471   6.160
 5169POPC   C2B66956  10.815  10.275   6.568
 5169POPC   C3B66957  10.843  10.313   7.019
 5169POPC   C4B66958  11.013  10.658   7.256
 5170POPC   NC366959  22.706  16.992   5.494
 5170POPC   PO466960  23.224  16.613   5.395
 5170POPC   GL166961  23.026  16.721   5.831
 5170POPC   GL266962  22.731  16.937   5.994
 5170POPC   C1A66963  23.207  16.550   6.212
 5170POPC   D2A66964  23.390  16.401   6.586
 5170POPC   C3A66965  23.040  16.367   6.854
 5170POPC   C4A66966  22.785  16.346   7.209
 5170POPC   C1B66967  23.063  17.048   6.301
 5170POPC   C2B66968  23.170  16.861   6.717
 5170POPC   C3B66969  22.984  16.836   7.131
 5170POPC   C4B66970  22.627  17.085   7.276
 5171POPC   NC366971   2.074  18.795   5.332
 5171POPC   PO466972   1.844  19.350   5.479
 5171POPC   GL166973   1.961  19.060   5.795
 5171POPC   GL266974   1.698  18.826   5.732
 5171POPC   C1A66975   1.964  19.027   6.261
 5171POPC   D2A66976   2.081  18.987   6.699
 5171POPC   C3A66977   2.018  19.332   7.000
 5171POPC   C4A66978   2.040  19.355   7.445
 5171POPC   C1B66979   1.690  18.620   6.135
 5171POPC   C2B66980   1.777  18.539   6.586
 5171POPC   C3B66981   1.789  18.678   7.014
 5171POPC   C4B66982   2.117  18.890   7.218
 5172POPC   NC366983  36.685   3.172   5.490
 5172POPC   PO466984  36.568   3.733   5.214
 5172POPC   GL166985  36.695   3.656   5.685
 5172POPC   GL266986  37.016   3.452   5.776
 5172POPC   C1A66987  36.723   3.712   6.155
 5172POPC   D2A66988  36.652   3.904   6.585
 5172POPC   C3A66989  36.760   3.625   6.941
 5172POPC   C4A66990  36.625   3.667   7.385
 5172POPC   C1B66991  37.044   3.270   6.228
 5172POPC   C2B66992  37.287   3.334   6.597
 5172POPC   C3B66993  37.374   3.504   6.996
 5172POPC   C4B66994  37.081   3.475   7.306
 5173POPC   NC366995  10.961  30.064   5.451
 5173POPC   PO466996  11.401  29.580   5.398
 5173POPC   GL166997  11.161  29.660   5.761
 5173POPC   GL266998  11.307  29.988   5.826
 5173POPC   C1A66999  11.132  29.764   6.242
 5173POPC   D2A67000  11.339  29.714   6.610
 5173POPC   C3A67001  11.174  29.687   6.996
 5173POPC   C4A67002  10.877  29.669   7.271
 5173POPC   C1B67003  11.244  30.246   6.194
 5173POPC   C2B67004  11.152  30.194   6.634
 5173POPC   C3B67005  11.302  30.185   7.044
 5173POPC   C4B67006  11.115  30.084   7.440
 5174POPC   NC367007   7.459  32.763   5.445
 5174POPC   PO467008   7.744  33.378   5.382
 5174POPC   GL167009   7.498  33.154   5.796
 5174POPC   GL267010   7.358  32.823   5.929
 5174POPC   C1A67011   7.290  33.240   6.234
 5174POPC   D2A67012   7.154  33.322   6.687
 5174POPC   C3A67013   7.394  33.138   7.056
 5174POPC   C4A67014   7.665  33.385   7.336
 5174POPC   C1B67015   7.023  32.745   6.239
 5174POPC   C2B67016   7.197  32.686   6.661
 5174POPC   C3B67017   7.130  32.621   7.102
 5174POPC   C4B67018   6.964  32.836   7.461
 5175POPC   NC367019  11.662  26.145   5.311
 5175POPC   PO467020  11.011  25.921   5.165
 5175POPC   GL167021  11.317  25.764   5.553
 5175POPC   GL267022  11.446  26.046   5.773
 5175POPC   C1A67023  11.401  25.622   6.034
 5175POPC   D2A67024  11.170  25.691   6.439
 5175POPC   C3A67025  11.321  25.681   6.861
 5175POPC   C4A67026  11.375  25.893   7.254
 5175POPC   C1B67027  11.245  26.268   6.134
 5175POPC   C2B67028  11.115  26.201   6.580
 5175POPC   C3B67029  11.239  26.332   7.000
 5175POPC   C4B67030  11.096  26.295   7.435
 5176POPC   NC367031   1.458   9.898   5.216
 5176POPC   PO467032   1.150  10.566   5.229
 5176POPC   GL167033   1.122  10.644   5.688
 5176POPC   GL267034   1.362  10.355   5.750
 5176POPC   C1A67035   0.816  10.667   6.083
 5176POPC   D2A67036   0.899  10.635   6.545
 5176POPC   C3A67037   0.926  10.270   6.802
 5176POPC   C4A67038   0.847  10.309   7.227
 5176POPC   C1B67039   1.307  10.522   6.180
 5176POPC   C2B67040   1.414  10.531   6.619
 5176POPC   C3B67041   1.292  10.572   7.032
 5176POPC   C4B67042   1.619  10.647   7.301
 5177POPC   NC367043   5.074  28.696   5.173
 5177POPC   PO467044   4.614  28.181   5.212
 5177POPC   GL167045   4.806  28.285   5.743
 5177POPC   GL267046   5.143  28.198   5.850
 5177POPC   C1A67047   4.858  28.490   6.176
 5177POPC   D2A67048   5.104  28.412   6.588
 5177POPC   C3A67049   4.953  28.391   7.000
 5177POPC   C4A67050   4.984  28.109   7.353
 5177POPC   C1B67051   5.371  28.460   6.169
 5177POPC   C2B67052   5.448  28.783   6.481
 5177POPC   C3B67053   5.429  28.680   6.916
 5177POPC   C4B67054   5.375  28.439   7.294
 5178POPC   NC367055  12.023  21.561   5.334
 5178POPC   PO467056  12.287  21.080   5.732
 5178POPC   GL167057  12.013  21.415   5.866
 5178POPC   GL267058  12.033  21.748   5.800
 5178POPC   C1A67059  11.802  21.377   6.250
 5178POPC   D2A67060  12.085  21.415   6.609
 5178POPC   C3A67061  12.096  21.286   7.032
 5178POPC   C4A67062  11.894  21.539   7.346
 5178POPC   C1B67063  12.181  21.756   6.209
 5178POPC   C2B67064  12.130  21.941   6.612
 5178POPC   C3B67065  12.229  21.761   7.009
 5178POPC   C4B67066  12.309  21.789   7.498
 5179POPC   NC367067  39.156  38.824   5.343
 5179POPC   PO467068  39.312  38.164   5.502
 5179POPC   GL167069  39.360  38.521   5.736
 5179POPC   GL267070  38.999  38.628   5.784
 5179POPC   C1A67071  39.480  38.677   6.146
 5179POPC   D2A67072  39.334  38.524   6.535
 5179POPC   C3A67073  39.425  38.361   6.959
 5179POPC   C4A67074  38.999  38.259   7.164
 5179POPC   C1B67075  39.002  38.864   6.167
 5179POPC   C2B67076  39.081  39.006   6.569
 5179POPC   C3B67077  39.065  38.749   6.927
 5179POPC   C4B67078  39.220  38.690   7.335
 5180POPC   NC367079   5.311  17.737   5.391
 5180POPC   PO467080   5.006  17.235   5.406
 5180POPC   GL167081   5.197  17.402   5.762
 5180POPC   GL267082   4.974  17.682   5.793
 5180POPC   C1A67083   5.310  17.548   6.164
 5180POPC   D2A67084   5.390  17.738   6.555
 5180POPC   C3A67085   5.316  17.473   6.894
 5180POPC   C4A67086   5.105  17.508   7.265
 5180POPC   C1B67087   4.808  17.364   6.094
 5180POPC   C2B67088   4.944  17.411   6.527
 5180POPC   C3B67089   4.761  17.290   6.918
 5180POPC   C4B67090   4.841  17.082   7.312
 5181POPC   NC367091   5.818  16.879   5.504
 5181POPC   PO467092   6.233  16.314   5.538
 5181POPC   GL167093   5.954  16.541   5.873
 5181POPC   GL267094   6.100  16.879   5.940
 5181POPC   C1A67095   5.644  16.764   6.187
 5181POPC   D2A67096   5.574  17.027   6.560
 5181POPC   C3A67097   5.800  16.800   6.820
 5181POPC   C4A67098   5.767  16.534   7.135
 5181POPC   C1B67099   6.080  16.969   6.383
 5181POPC   C2B67100   6.226  17.136   6.760
 5181POPC   C3B67101   6.186  16.904   7.143
 5181POPC   C4B67102   6.281  16.968   7.569
 5182POPC   NC367103  44.162  12.025   4.992
 5182POPC   PO467104  43.633  12.409   5.147
 5182POPC   GL167105  43.903  12.202   5.520
 5182POPC   GL267106  44.018  11.853   5.541
 5182POPC   C1A67107  43.986  12.120   6.015
 5182POPC   D2A67108  43.760  12.086   6.421
 5182POPC   C3A67109  43.736  12.294   6.829
 5182POPC   C4A67110  43.700  12.024   7.222
 5182POPC   C1B67111  44.170  11.637   5.947
 5182POPC   C2B67112  44.138  11.694   6.415
 5182POPC   C3B67113  44.105  11.900   6.877
 5182POPC   C4B67114  44.139  11.716   7.312
 5183POPC   NC367115   2.908  38.077   5.523
 5183POPC   PO467116   2.471  38.541   5.328
 5183POPC   GL167117   2.498  38.283   5.821
 5183POPC   GL267118   2.867  38.249   5.978
 5183POPC   C1A67119   2.559  38.385   6.331
 5183POPC   D2A67120   2.563  38.783   6.559
 5183POPC   C3A67121   2.497  38.694   6.971
 5183POPC   C4A67122   2.758  38.404   7.161
 5183POPC   C1B67123   3.067  38.212   6.387
 5183POPC   C2B67124   2.978  38.504   6.696
 5183POPC   C3B67125   3.152  38.691   7.018
 5183POPC   C4B67126   3.207  38.544   7.445
 5184POPC   NC367127  13.448  37.976   5.403
 5184POPC   PO467128  13.876  37.544   5.069
 5184POPC   GL167129  13.829  37.775   5.608
 5184POPC   GL267130  13.503  37.640   5.794
 5184POPC   C1A67131  13.867  37.733   6.111
 5184POPC   D2A67132  14.036  37.663   6.524
 5184POPC   C3A67133  13.732  37.654   6.838
 5184POPC   C4A67134  13.677  38.001   7.132
 5184POPC   C1B67135  13.386  37.474   6.227
 5184POPC   C2B67136  13.284  37.438   6.675
 5184POPC   C3B67137  13.445  37.263   7.063
 5184POPC   C4B67138  13.325  37.333   7.475
 5185POPC   NC367139  35.476   6.177   5.398
 5185POPC   PO467140  35.005   5.852   5.727
 5185POPC   GL167141  35.424   5.644   5.829
 5185POPC   GL267142  35.290   5.690   6.126
 5185POPC   C1A67143  35.762   5.607   6.231
 5185POPC   D2A67144  35.700   5.526   6.715
 5185POPC   C3A67145  35.424   5.797   7.015
 5185POPC   C4A67146  35.072   5.652   7.298
 5185POPC   C1B67147  35.207   5.641   6.561
 5185POPC   C2B67148  34.951   5.879   6.830
 5185POPC   C3B67149  35.043   6.169   7.186
 5185POPC   C4B67150  34.909   6.060   7.608
 5186POPC   NC367151  11.188  13.699   5.507
 5186POPC   PO467152  11.691  13.281   5.525
 5186POPC   GL167153  11.513  13.559   5.873
 5186POPC   GL267154  11.558  13.941   5.764
 5186POPC   C1A67155  11.165  13.547   6.179
 5186POPC   D2A67156  10.904  13.637   6.525
 5186POPC   C3A67157  11.022  13.472   6.901
 5186POPC   C4A67158  11.030  13.558   7.310
 5186POPC   C1B67159  11.372  14.028   6.161
 5186POPC   C2B67160  11.285  14.011   6.608
 5186POPC   C3B67161  11.408  13.784   6.967
 5186POPC   C4B67162  11.513  13.350   7.159
 5187POPC   NC367163  25.789  41.603   5.405
 5187POPC   PO467164  26.465  41.612   5.335
 5187POPC   GL167165  26.207  41.503   5.706
 5187POPC   GL267166  26.096  41.152   5.640
 5187POPC   C1A67167  25.943  41.555   6.112
 5187POPC   D2A67168  25.975  41.778   6.496
 5187POPC   C3A67169  25.819  41.621   6.902
 5187POPC   C4A67170  26.033  41.612   7.306
 5187POPC   C1B67171  26.235  41.129   6.066
 5187POPC   C2B67172  26.203  41.280   6.501
 5187POPC   C3B67173  26.256  41.347   6.950
 5187POPC   C4B67174  26.316  41.211   7.426
 5188POPC   NC367175  16.067  20.197   5.368
 5188POPC   PO467176  15.697  19.670   5.436
 5188POPC   GL167177  15.806  19.798   5.867
 5188POPC   GL267178  16.151  19.899   5.821
 5188POPC   C1A67179  15.833  19.621   6.317
 5188POPC   D2A67180  15.729  19.978   6.599
 5188POPC   C3A67181  15.525  19.941   6.979
 5188POPC   C4A67182  15.698  19.807   7.349
 5188POPC   C1B67183  16.111  20.040   6.249
 5188POPC   C2B67184  16.214  19.819   6.640
 5188POPC   C3B67185  16.062  19.962   7.037
 5188POPC   C4B67186  16.123  20.128   7.457
 5189POPC   NC367187  30.164  34.466   5.403
 5189POPC   PO467188  29.722  34.888   5.307
 5189POPC   GL167189  29.764  34.621   5.680
 5189POPC   GL267190  30.029  34.784   5.843
 5189POPC   C1A67191  29.801  34.411   6.121
 5189POPC   D2A67192  29.940  34.556   6.563
 5189POPC   C3A67193  29.954  34.298   6.940
 5189POPC   C4A67194  29.640  34.195   7.238
 5189POPC   C1B67195  30.285  34.639   6.194
 5189POPC   C2B67196  30.537  34.770   6.537
 5189POPC   C3B67197  30.320  34.710   6.882
 5189POPC   C4B67198  29.927  34.824   7.088
 5190POPC   NC367199  32.168  19.252   5.452
 5190POPC   PO467200  32.406  18.658   5.447
 5190POPC   GL167201  32.289  18.870   5.810
 5190POPC   GL267202  32.565  19.134   5.823
 5190POPC   C1A67203  32.147  19.109   6.176
 5190POPC   D2A67204  32.304  19.388   6.513
 5190POPC   C3A67205  32.339  19.204   6.923
 5190POPC   C4A67206  32.448  19.231   7.353
 5190POPC   C1B67207  32.651  18.832   6.178
 5190POPC   C2B67208  32.515  18.677   6.598
 5190POPC   C3B67209  32.552  18.734   7.034
 5190POPC   C4B67210  32.176  18.805   7.216
 5191POPC   NC367211  19.068  32.312   5.168
 5191POPC   PO467212  19.753  32.477   5.208
 5191POPC   GL167213  19.499  32.177   5.546
 5191POPC   GL267214  19.247  32.341   5.707
 5191POPC   C1A67215  19.408  32.022   6.049
 5191POPC   D2A67216  19.307  32.119   6.525
 5191POPC   C3A67217  18.955  31.890   6.771
 5191POPC   C4A67218  18.815  31.951   7.215
 5191POPC   C1B67219  19.137  32.460   6.148
 5191POPC   C2B67220  18.994  32.534   6.591
 5191POPC   C3B67221  19.039  32.381   7.031
 5191POPC   C4B67222  18.716  32.411   7.398
 5192POPC   NC367223  41.330  35.463   5.385
 5192POPC   PO467224  41.854  35.020   5.433
 5192POPC   GL167225  41.590  35.197   5.739
 5192POPC   GL267226  41.676  35.573   5.764
 5192POPC   C1A67227  41.405  35.325   6.140
 5192POPC   D2A67228  41.574  35.494   6.530
 5192POPC   C3A67229  41.425  35.338   6.915
 5192POPC   C4A67230  41.425  35.225   7.320
 5192POPC   C1B67231  41.906  35.661   6.167
 5192POPC   C2B67232  41.990  35.774   6.620
 5192POPC   C3B67233  41.879  35.558   7.010
 5192POPC   C4B67234  41.731  35.610   7.442
 5193POPC   NC367235   5.568  14.578   5.458
 5193POPC   PO467236   5.088  14.166   5.376
 5193POPC   GL167237   5.132  14.253   5.782
 5193POPC   GL267238   5.207  13.901   5.845
 5193POPC   C1A67239   5.005  14.526   6.143
 5193POPC   D2A67240   5.247  14.641   6.521
 5193POPC   C3A67241   4.980  14.688   6.882
 5193POPC   C4A67242   4.771  14.466   7.200
 5193POPC   C1B67243   4.909  14.007   6.180
 5193POPC   C2B67244   4.887  14.237   6.579
 5193POPC   C3B67245   4.950  14.030   6.974
 5193POPC   C4B67246   5.180  13.909   7.333
 5194POPC   NC367247   2.583   0.869   5.455
 5194POPC   PO467248   3.132   1.119   5.465
 5194POPC   GL167249   2.919   1.019   5.841
 5194POPC   GL267250   2.538   1.074   5.923
 5194POPC   C1A67251   3.033   1.105   6.256
 5194POPC   D2A67252   2.809   1.225   6.629
 5194POPC   C3A67253   2.976   1.185   7.057
 5194POPC   C4A67254   2.702   1.018   7.371
 5194POPC   C1B67255   2.292   1.474   6.043
 5194POPC   C2B67256   2.168   1.563   6.486
 5194POPC   C3B67257   2.442   1.502   6.871
 5194POPC   C4B67258   2.601   1.514   7.276
 5195POPC   NC367259   3.126  29.497   5.520
 5195POPC   PO467260   3.052  28.787   5.390
 5195POPC   GL167261   2.804  28.954   5.775
 5195POPC   GL267262   2.531  29.237   5.804
 5195POPC   C1A67263   2.672  28.952   6.223
 5195POPC   D2A67264   2.700  29.212   6.583
 5195POPC   C3A67265   2.596  28.946   6.926
 5195POPC   C4A67266   2.622  28.923   7.385
 5195POPC   C1B67267   2.475  29.492   6.199
 5195POPC   C2B67268   2.507  29.690   6.628
 5195POPC   C3B67269   2.446  29.428   6.979
 5195POPC   C4B67270   2.136  29.328   7.259
 5196POPC   NC367271  11.166  35.961   5.028
 5196POPC   PO467272  11.350  35.439   5.525
 5196POPC   GL167273  11.544  35.311   5.876
 5196POPC   GL267274  11.299  35.065   5.956
 5196POPC   C1A67275  11.538  35.399   6.314
 5196POPC   D2A67276  11.326  35.690   6.547
 5196POPC   C3A67277  11.316  35.477   6.925
 5196POPC   C4A67278  11.431  35.583   7.310
 5196POPC   C1B67279  11.064  35.301   6.217
 5196POPC   C2B67280  11.049  35.147   6.628
 5196POPC   C3B67281  10.820  35.299   6.962
 5196POPC   C4B67282  10.934  35.507   7.310
 5197POPC   NC367283  36.994   0.937   5.359
 5197POPC   PO467284  36.644   1.536   5.461
 5197POPC   GL167285  36.687   1.254   5.758
 5197POPC   GL267286  37.060   1.255   5.773
 5197POPC   C1A67287  36.756   1.165   6.191
 5197POPC   D2A67288  37.120   1.173   6.481
 5197POPC   C3A67289  37.021   1.213   6.922
 5197POPC   C4A67290  36.679   1.253   7.228
 5197POPC   C1B67291  37.284   1.511   6.107
 5197POPC   C2B67292  37.441   1.585   6.540
 5197POPC   C3B67293  37.260   1.705   6.952
 5197POPC   C4B67294  37.205   1.457   7.334
 5198POPC   NC367295  34.244  44.841   5.317
 5198POPC   PO467296  33.873  44.345   5.375
 5198POPC   GL167297  33.815  44.488   5.789
 5198POPC   GL267298  33.929  44.830   5.735
 5198POPC   C1A67299  33.841  44.672   6.220
 5198POPC   D2A67300  33.553  44.925   6.444
 5198POPC   C3A67301  33.587  44.850   6.883
 5198POPC   C4A67302  33.731  44.742   7.286
 5198POPC   C1B67303  34.145   0.061   6.055
 5198POPC   C2B67304  34.054   0.063   6.528
 5198POPC   C3B67305  34.113  44.924   6.994
 5198POPC   C4B67306  34.146  44.950   7.475
 5199POPC   NC367307  13.738  16.516   5.122
 5199POPC   PO467308  13.473  17.122   5.248
 5199POPC   GL167309  13.538  17.002   5.764
 5199POPC   GL267310  13.695  16.734   5.992
 5199POPC   C1A67311  13.516  17.084   6.265
 5199POPC   D2A67312  13.674  16.798   6.635
 5199POPC   C3A67313  13.698  17.008   7.068
 5199POPC   C4A67314  13.549  17.014   7.510
 5199POPC   C1B67315  13.329  16.608   6.284
 5199POPC   C2B67316  13.193  16.550   6.731
 5199POPC   C3B67317  13.330  16.653   7.169
 5199POPC   C4B67318  13.639  16.529   7.505
 5200POPC   NC367319  10.476  16.907   5.418
 5200POPC   PO467320  10.335  16.186   5.327
 5200POPC   GL167321  10.569  16.451   5.646
 5200POPC   GL267322  10.289  16.653   5.834
 5200POPC   C1A67323  10.729  16.683   6.049
 5200POPC   D2A67324  10.404  16.833   6.365
 5200POPC   C3A67325  10.565  16.872   6.771
 5200POPC   C4A67326  10.720  16.629   7.082
 5200POPC   C1B67327  10.031  16.522   6.181
 5200POPC   C2B67328  10.098  16.293   6.541
 5200POPC   C3B67329  10.237  16.476   6.897
 5200POPC   C4B67330  10.226  16.554   7.296
 5201POPC   NC367331   5.848  24.709   5.337
 5201POPC   PO467332   5.884  24.044   5.235
 5201POPC   GL167333   5.859  24.336   5.678
 5201POPC   GL267334   5.566  24.597   5.766
 5201POPC   C1A67335   5.955  24.452   6.127
 5201POPC   D2A67336   6.172  24.400   6.548
 5201POPC   C3A67337   5.876  24.464   6.929
 5201POPC   C4A67338   5.690  24.288   7.299
 5201POPC   C1B67339   5.615  24.824   6.164
 5201POPC   C2B67340   5.768  24.775   6.547
 5201POPC   C3B67341   5.747  24.963   6.966
 5201POPC   C4B67342   5.433  24.729   7.175
 5202POPC   NC367343  19.292  14.666   5.445
 5202POPC   PO467344  18.847  15.049   5.084
 5202POPC   GL167345  18.854  15.072   5.605
 5202POPC   GL267346  18.934  14.794   5.813
 5202POPC   C1A67347  18.838  15.222   6.086
 5202POPC   D2A67348  18.835  15.371   6.534
 5202POPC   C3A67349  18.977  15.073   6.865
 5202POPC   C4A67350  18.779  15.033   7.297
 5202POPC   C1B67351  19.249  14.956   6.138
 5202POPC   C2B67352  19.337  14.828   6.575
 5202POPC   C3B67353  19.483  14.851   7.012
 5202POPC   C4B67354  19.391  14.835   7.495
 5203POPC   NC367355  12.571  38.793   5.552
 5203POPC   PO467356  13.126  39.074   5.421
 5203POPC   GL167357  12.968  39.029   5.809
 5203POPC   GL267358  13.065  38.684   5.783
 5203POPC   C1A67359  12.812  39.226   6.198
 5203POPC   D2A67360  12.828  39.499   6.607
 5203POPC   C3A67361  12.783  39.359   7.050
 5203POPC   C4A67362  12.643  39.009   7.341
 5203POPC   C1B67363  13.173  38.818   6.221
 5203POPC   C2B67364  13.012  38.995   6.605
 5203POPC   C3B67365  12.704  38.832   6.865
 5203POPC   C4B67366  12.907  38.604   7.178
 5204POPC   NC367367  17.979   6.374   5.451
 5204POPC   PO467368  18.557   6.062   5.301
 5204POPC   GL167369  18.538   6.111   5.772
 5204POPC   GL267370  18.195   6.046   5.856
 5204POPC   C1A67371  18.547   5.880   6.180
 5204POPC   D2A67372  18.662   5.988   6.605
 5204POPC   C3A67373  18.589   5.664   6.910
 5204POPC   C4A67374  18.328   5.905   7.158
 5204POPC   C1B67375  18.041   5.861   6.246
 5204POPC   C2B67376  18.086   5.629   6.642
 5204POPC   C3B67377  17.844   5.670   7.028
 5204POPC   C4B67378  17.921   5.806   7.444
 5205POPC   NC367379  38.170  31.298   5.465
 5205POPC   PO467380  38.866  31.333   5.686
 5205POPC   GL167381  38.481  31.518   5.814
 5205POPC   GL267382  38.310  31.261   5.979
 5205POPC   C1A67383  38.383  31.792   6.145
 5205POPC   D2A67384  38.502  31.975   6.547
 5205POPC   C3A67385  38.494  31.782   6.949
 5205POPC   C4A67386  38.503  31.503   7.286
 5205POPC   C1B67387  38.577  31.376   6.353
 5205POPC   C2B67388  38.753  31.366   6.769
 5205POPC   C3B67389  38.622  31.083   7.066
 5205POPC   C4B67390  38.309  31.018   7.345
 5206POPC   NC367391  10.098  40.840   5.630
 5206POPC   PO467392   9.492  40.842   5.310
 5206POPC   GL167393   9.549  40.839   5.762
 5206POPC   GL267394   9.722  40.549   5.848
 5206POPC   C1A67395   9.742  40.924   6.201
 5206POPC   D2A67396   9.964  41.033   6.598
 5206POPC   C3A67397   9.692  40.912   6.920
 5206POPC   C4A67398   9.580  41.041   7.302
 5206POPC   C1B67399   9.813  40.376   6.206
 5206POPC   C2B67400   9.828  40.511   6.589
 5206POPC   C3B67401  10.012  40.517   6.941
 5206POPC   C4B67402   9.803  40.512   7.284
 5207POPC   NC367403  31.201   4.808   5.531
 5207POPC   PO467404  31.769   4.521   5.720
 5207POPC   GL167405  31.552   4.515   6.024
 5207POPC   GL267406  31.271   4.387   5.849
 5207POPC   C1A67407  31.478   4.212   6.318
 5207POPC   D2A67408  31.764   3.975   6.571
 5207POPC   C3A67409  31.647   4.095   6.984
 5207POPC   C4A67410  31.580   4.469   7.273
 5207POPC   C1B67411  31.104   4.639   6.199
 5207POPC   C2B67412  31.315   4.649   6.597
 5207POPC   C3B67413  31.163   4.489   6.977
 5207POPC   C4B67414  31.171   4.156   7.263
 5208POPC   NC367415  14.235  20.799   5.244
 5208POPC   PO467416  14.544  20.467   5.704
 5208POPC   GL167417  14.126  20.600   5.752
 5208POPC   GL267418  14.242  20.943   5.740
 5208POPC   C1A67419  14.170  20.623   6.187
 5208POPC   D2A67420  14.581  20.503   6.326
 5208POPC   C3A67421  14.569  20.327   6.732
 5208POPC   C4A67422  14.597  20.501   7.153
 5208POPC   C1B67423  14.334  21.111   6.153
 5208POPC   C2B67424  14.358  20.954   6.587
 5208POPC   C3B67425  14.221  20.858   7.016
 5208POPC   C4B67426  14.291  20.854   7.480
 5209POPC   NC367427  33.768   3.061   5.431
 5209POPC   PO467428  33.587   2.369   5.462
 5209POPC   GL167429  33.673   2.681   5.796
 5209POPC   GL267430  33.507   3.030   5.876
 5209POPC   C1A67431  34.007   2.822   6.061
 5209POPC   D2A67432  34.040   3.011   6.482
 5209POPC   C3A67433  34.197   2.784   6.813
 5209POPC   C4A67434  34.111   2.773   7.242
 5209POPC   C1B67435  33.552   2.831   6.287
 5209POPC   C2B67436  33.830   2.525   6.523
 5209POPC   C3B67437  33.725   2.569   6.963
 5209POPC   C4B67438  33.621   2.921   7.255
 5210POPC   NC367439  18.764  41.472   5.481
 5210POPC   PO467440  19.251  41.806   5.216
 5210POPC   GL167441  19.347  41.537   5.695
 5210POPC   GL267442  19.023  41.485   5.901
 5210POPC   C1A67443  19.432  41.525   6.175
 5210POPC   D2A67444  19.389  41.701   6.621
 5210POPC   C3A67445  19.092  41.555   6.947
 5210POPC   C4A67446  18.888  41.816   7.246
 5210POPC   C1B67447  18.859  41.169   6.169
 5210POPC   C2B67448  18.827  41.231   6.604
 5210POPC   C3B67449  18.711  41.095   6.992
 5210POPC   C4B67450  18.806  41.324   7.348
 5211POPC   NC367451  11.153  21.807   5.547
 5211POPC   PO467452  11.320  22.480   5.413
 5211POPC   GL167453  11.349  22.246   5.785
 5211POPC   GL267454  11.598  22.020   5.843
 5211POPC   C1A67455  11.270  22.205   6.216
 5211POPC   D2A67456  11.272  21.959   6.572
 5211POPC   C3A67457  11.242  22.128   6.949
 5211POPC   C4A67458  11.113  22.221   7.349
 5211POPC   C1B67459  11.697  21.901   6.250
 5211POPC   C2B67460  11.659  21.667   6.627
 5211POPC   C3B67461  11.712  21.834   6.969
 5211POPC   C4B67462  11.523  21.906   7.314
 5212POPC   NC367463   7.263  14.572   5.224
 5212POPC   PO467464   7.631  13.977   5.353
 5212POPC   GL167465   7.628  14.294   5.692
 5212POPC   GL267466   7.261  14.385   5.711
 5212POPC   C1A67467   7.717  14.465   6.144
 5212POPC   D2A67468   7.708  14.729   6.557
 5212POPC   C3A67469   7.824  14.520   6.955
 5212POPC   C4A67470   7.604  14.449   7.331
 5212POPC   C1B67471   7.223  14.237   6.146
 5212POPC   C2B67472   7.088  14.258   6.585
 5212POPC   C3B67473   7.262  14.554   6.877
 5212POPC   C4B67474   7.120  14.546   7.290
 5213POPC   NC367475  38.523  36.762   5.226
 5213POPC   PO467476  38.060  37.204   5.451
 5213POPC   GL167477  38.375  36.955   5.753
 5213POPC   GL267478  38.700  36.802   5.695
 5213POPC   C1A67479  38.372  36.770   6.216
 5213POPC   D2A67480  38.174  36.736   6.651
 5213POPC   C3A67481  38.289  37.027   6.972
 5213POPC   C4A67482  38.383  36.966   7.405
 5213POPC   C1B67483  38.864  36.704   6.098
 5213POPC   C2B67484  38.853  36.769   6.557
 5213POPC   C3B67485  38.667  36.648   6.956
 5213POPC   C4B67486  38.264  36.536   7.138
 5214POPC   NC367487   0.225  33.339   5.441
 5214POPC   PO467488   0.089  32.746   5.315
 5214POPC   GL167489   0.282  32.902   5.730
 5214POPC   GL267490   0.186  33.233   5.935
 5214POPC   C1A67491   0.433  32.849   6.159
 5214POPC   D2A67492   0.335  32.824   6.578
 5214POPC   C3A67493   0.477  33.110   6.901
 5214POPC   C4A67494   0.434  32.988   7.314
 5214POPC   C1B67495  44.881  33.278   6.263
 5214POPC   C2B67496   0.014  33.242   6.688
 5214POPC   C3B67497   0.003  32.946   7.026
 5214POPC   C4B67498  44.951  33.048   7.483
 5215POPC   NC367499  13.424  27.068   5.463
 5215POPC   PO467500  13.812  26.501   5.448
 5215POPC   GL167501  13.757  26.847   5.788
 5215POPC   GL267502  14.065  27.031   5.774
 5215POPC   C1A67503  13.562  27.008   6.218
 5215POPC   D2A67504  13.501  27.132   6.693
 5215POPC   C3A67505  13.455  26.804   7.091
 5215POPC   C4A67506  13.578  26.890   7.524
 5215POPC   C1B67507  14.054  26.854   6.214
 5215POPC   C2B67508  14.012  27.061   6.619
 5215POPC   C3B67509  13.967  26.910   7.052
 5215POPC   C4B67510  14.035  26.662   7.490
 5216POPC   NC367511  28.134  18.321   5.464
 5216POPC   PO467512  27.608  17.926   5.570
 5216POPC   GL167513  27.646  18.286   5.880
 5216POPC   GL267514  27.338  18.512   5.903
 5216POPC   C1A67515  27.858  18.256   6.312
 5216POPC   D2A67516  27.955  18.127   6.770
 5216POPC   C3A67517  27.719  18.398   7.071
 5216POPC   C4A67518  27.287  18.547   7.093
 5216POPC   C1B67519  27.305  18.360   6.321
 5216POPC   C2B67520  27.441  18.151   6.660
 5216POPC   C3B67521  27.316  18.039   7.029
 5216POPC   C4B67522  27.381  18.149   7.430
 5217POPC   NC367523  14.042  24.250   5.464
 5217POPC   PO467524  13.445  24.274   5.195
 5217POPC   GL167525  13.591  24.515   5.608
 5217POPC   GL267526  13.704  24.259   5.832
 5217POPC   C1A67527  13.654  24.698   6.079
 5217POPC   D2A67528  13.455  24.633   6.511
 5217POPC   C3A67529  13.601  24.778   6.923
 5217POPC   C4A67530  13.380  24.762   7.345
 5217POPC   C1B67531  13.537  24.160   6.220
 5217POPC   C2B67532  13.649  24.169   6.628
 5217POPC   C3B67533  13.469  24.305   7.008
 5217POPC   C4B67534  13.707  24.163   7.317
 5218POPC   NC367535   1.681   4.666   5.420
 5218POPC   PO467536   1.632   5.345   5.441
 5218POPC   GL167537   1.952   5.204   5.758
 5218POPC   GL267538   1.785   4.903   5.849
 5218POPC   C1A67539   2.217   4.988   6.125
 5218POPC   D2A67540   2.159   5.163   6.543
 5218POPC   C3A67541   2.359   5.067   6.930
 5218POPC   C4A67542   2.228   5.204   7.335
 5218POPC   C1B67543   1.732   5.038   6.248
 5218POPC   C2B67544   1.784   4.803   6.617
 5218POPC   C3B67545   1.821   5.047   6.959
 5218POPC   C4B67546   1.788   4.898   7.333
 5219POPC   NC367547  13.906  31.218   5.501
 5219POPC   PO467548  13.308  31.482   5.288
 5219POPC   GL167549  13.504  31.559   5.691
 5219POPC   GL267550  13.506  31.241   5.840
 5219POPC   C1A67551  13.681  31.647   6.110
 5219POPC   D2A67552  13.532  31.575   6.539
 5219POPC   C3A67553  13.700  31.618   6.937
 5219POPC   C4A67554  13.582  31.666   7.375
 5219POPC   C1B67555  13.663  31.149   6.272
 5219POPC   C2B67556  13.547  31.094   6.732
 5219POPC   C3B67557  13.600  31.166   7.181
 5219POPC   C4B67558  13.858  31.264   7.536
 5220POPC   NC367559   0.192  32.308   5.299
 5220POPC   PO467560   0.388  31.787   5.474
 5220POPC   GL167561   0.254  32.054   5.810
 5220POPC   GL267562   0.514  31.988   6.015
 5220POPC   C1A67563   0.226  32.373   6.183
 5220POPC   D2A67564   0.459  32.311   6.592
 5220POPC   C3A67565   0.402  32.550   7.000
 5220POPC   C4A67566   0.665  32.525   7.368
 5220POPC   C1B67567   0.261  31.882   6.361
 5220POPC   C2B67568   0.240  31.876   6.817
 5220POPC   C3B67569   0.406  32.054   7.221
 5220POPC   C4B67570   0.379  32.217   7.663
 5221POPC   NC367571  32.309  34.978   5.471
 5221POPC   PO467572  31.970  34.378   5.415
 5221POPC   GL167573  32.109  34.578   5.805
 5221POPC   GL267574  32.215  34.276   5.967
 5221POPC   C1A67575  32.294  34.679   6.238
 5221POPC   D2A67576  32.250  34.453   6.600
 5221POPC   C3A67577  32.303  34.680   6.964
 5221POPC   C4A67578  32.610  34.603   7.255
 5221POPC   C1B67579  31.856  34.385   6.205
 5221POPC   C2B67580  31.732  34.545   6.594
 5221POPC   C3B67581  31.842  34.462   7.026
 5221POPC   C4B67582  32.181  34.261   7.251
 5222POPC   NC367583  19.986  19.785   5.416
 5222POPC   PO467584  19.312  19.606   5.519
 5222POPC   GL167585  19.633  19.814   5.779
 5222POPC   GL267586  19.539  20.142   5.941
 5222POPC   C1A67587  19.998  19.723   6.089
 5222POPC   D2A67588  20.133  19.525   6.494
 5222POPC   C3A67589  20.047  19.775   6.882
 5222POPC   C4A67590  20.062  19.623   7.291
 5222POPC   C1B67591  19.426  19.806   6.229
 5222POPC   C2B67592  19.623  19.636   6.579
 5222POPC   C3B67593  19.546  19.711   6.993
 5222POPC   C4B67594  19.694  19.985   7.296
 5223POPC   NC367595  22.192  24.835   5.492
 5223POPC   PO467596  22.160  24.179   5.435
 5223POPC   GL167597  22.274  24.401   5.803
 5223POPC   GL267598  22.307  24.740   5.997
 5223POPC   C1A67599  22.454  24.284   6.173
 5223POPC   D2A67600  22.220  24.474   6.504
 5223POPC   C3A67601  22.201  24.230   6.877
 5223POPC   C4A67602  22.178  24.397   7.264
 5223POPC   C1B67603  21.877  24.652   6.139
 5223POPC   C2B67604  21.658  24.716   6.499
 5223POPC   C3B67605  21.892  24.633   6.876
 5223POPC   C4B67606  21.804  24.766   7.263
 5224POPC   NC367607  10.976  37.415   5.576
 5224POPC   PO467608  11.469  37.791   5.294
 5224POPC   GL167609  11.564  37.788   5.734
 5224POPC   GL267610  11.569  37.437   5.859
 5224POPC   C1A67611  11.410  37.827   6.172
 5224POPC   D2A67612  11.331  37.600   6.578
 5224POPC   C3A67613  11.503  37.704   6.982
 5224POPC   C4A67614  11.296  37.880   7.343
 5224POPC   C1B67615  11.332  37.254   6.208
 5224POPC   C2B67616  11.126  37.133   6.623
 5224POPC   C3B67617  11.032  37.386   6.960
 5224POPC   C4B67618  11.239  37.394   7.346
 5225POPC   NC367619  14.151  19.175   5.428
 5225POPC   PO467620  14.608  18.639   5.588
 5225POPC   GL167621  14.467  18.973   5.812
 5225POPC   GL267622  14.127  18.864   5.864
 5225POPC   C1A67623  14.582  19.039   6.252
 5225POPC   D2A67624  14.448  18.819   6.625
 5225POPC   C3A67625  14.532  19.027   7.004
 5225POPC   C4A67626  14.491  18.789   7.361
 5225POPC   C1B67627  14.154  19.269   6.089
 5225POPC   C2B67628  14.205  19.294   6.542
 5225POPC   C3B67629  14.034  19.092   6.897
 5225POPC   C4B67630  14.066  19.110   7.299
 5226POPC   NC367631   0.024   1.072   5.297
 5226POPC   PO467632  44.496   1.505   5.405
 5226POPC   GL167633  44.632   1.197   5.729
 5226POPC   GL267634  44.981   1.272   5.797
 5226POPC   C1A67635  44.608   1.167   6.227
 5226POPC   D2A67636  44.771   1.404   6.639
 5226POPC   C3A67637  44.673   1.365   7.116
 5226POPC   C4A67638  44.372   1.071   7.301
 5226POPC   C1B67639  44.964   0.865   6.005
 5226POPC   C2B67640  44.961   0.790   6.472
 5226POPC   C3B67641  44.999   0.988   6.900
 5226POPC   C4B67642  44.832   0.837   7.297
 5227POPC   NC367643  34.848  13.919   5.443
 5227POPC   PO467644  35.529  13.766   5.353
 5227POPC   GL167645  35.667  13.874   5.798
 5227POPC   GL267646  35.452  13.595   5.941
 5227POPC   C1A67647  35.728  13.845   6.266
 5227POPC   D2A67648  35.541  13.474   6.466
 5227POPC   C3A67649  35.593  13.422   6.909
 5227POPC   C4A67650  35.344  13.685   7.185
 5227POPC   C1B67651  35.063  13.416   6.181
 5227POPC   C2B67652  34.906  13.329   6.591
 5227POPC   C3B67653  35.102  13.280   6.985
 5227POPC   C4B67654  35.140  13.290   7.448
 5228POPC   NC367655   9.970   3.075   5.461
 5228POPC   PO467656   9.759   2.451   5.355
 5228POPC   GL167657   9.745   2.663   5.792
 5228POPC   GL267658   9.540   2.958   5.810
 5228POPC   C1A67659   9.932   2.941   6.140
 5228POPC   D2A67660   9.844   3.104   6.552
 5228POPC   C3A67661   9.825   2.732   6.793
 5228POPC   C4A67662  10.070   2.659   7.161
 5228POPC   C1B67663   9.427   3.150   6.233
 5228POPC   C2B67664   9.325   2.886   6.622
 5228POPC   C3B67665   9.400   2.717   7.053
 5228POPC   C4B67666   9.733   3.027   7.207
 5229POPC   NC367667  29.412  22.082   5.133
 5229POPC   PO467668  28.955  22.503   5.438
 5229POPC   GL167669  28.999  22.368   5.866
 5229POPC   GL267670  28.984  22.019   5.928
 5229POPC   C1A67671  29.154  22.382   6.302
 5229POPC   D2A67672  29.028  22.606   6.682
 5229POPC   C3A67673  29.020  22.355   7.085
 5229POPC   C4A67674  29.294  22.350   7.421
 5229POPC   C1B67675  28.725  22.105   6.268
 5229POPC   C2B67676  28.811  22.110   6.693
 5229POPC   C3B67677  28.830  21.897   7.094
 5229POPC   C4B67678  28.919  22.031   7.522
 5230POPC   NC367679   7.753  41.130   5.449
 5230POPC   PO467680   7.588  41.850   5.316
 5230POPC   GL167681   7.600  41.904   5.751
 5230POPC   GL267682   7.241  41.841   5.815
 5230POPC   C1A67683   7.761  41.862   6.163
 5230POPC   D2A67684   7.706  41.592   6.509
 5230POPC   C3A67685   7.531  41.772   6.867
 5230POPC   C4A67686   7.773  41.614   7.185
 5230POPC   C1B67687   7.377  41.472   6.082
 5230POPC   C2B67688   7.310  41.266   6.486
 5230POPC   C3B67689   7.445  41.260   6.892
 5230POPC   C4B67690   7.267  41.468   7.217
 5231POPC   NC367691  37.840   0.007   5.578
 5231POPC   PO467692  37.532  44.357   5.568
 5231POPC   GL167693  37.515  44.592   5.910
 5231POPC   GL267694  37.861  44.592   5.907
 5231POPC   C1A67695  37.565  44.481   6.343
 5231POPC   D2A67696  37.554  44.746   6.672
 5231POPC   C3A67697  37.340  44.695   7.022
 5231POPC   C4A67698  37.472  44.805   7.421
 5231POPC   C1B67699  37.985  44.790   6.292
 5231POPC   C2B67700  38.035  44.575   6.694
 5231POPC   C3B67701  37.867  44.681   7.099
 5231POPC   C4B67702  37.899  44.526   7.502
 5232POPC   NC367703  12.950  13.773   5.503
 5232POPC   PO467704  12.503  14.227   5.251
 5232POPC   GL167705  12.801  14.255   5.651
 5232POPC   GL267706  12.680  14.518   5.884
 5232POPC   C1A67707  12.861  14.117   6.131
 5232POPC   D2A67708  12.744  13.915   6.555
 5232POPC   C3A67709  12.781  14.022   6.999
 5232POPC   C4A67710  12.673  14.239   7.368
 5232POPC   C1B67711  12.817  14.613   6.300
 5232POPC   C2B67712  12.831  14.440   6.699
 5232POPC   C3B67713  12.753  14.656   7.086
 5232POPC   C4B67714  12.868  15.065   7.268
 5233POPC   NC367715  33.370  10.544   5.460
 5233POPC   PO467716  32.793  10.294   5.253
 5233POPC   GL167717  32.915  10.494   5.733
 5233POPC   GL267718  33.233  10.316   5.875
 5233POPC   C1A67719  33.055  10.665   6.208
 5233POPC   D2A67720  33.315  10.770   6.621
 5233POPC   C3A67721  33.128  10.631   7.002
 5233POPC   C4A67722  32.688  10.548   7.067
 5233POPC   C1B67723  33.114  10.157   6.249
 5233POPC   C2B67724  33.002  10.252   6.695
 5233POPC   C3B67725  33.256  10.141   7.082
 5233POPC   C4B67726  33.418  10.124   7.527
 5234POPC   NC367727  11.179   7.733   5.429
 5234POPC   PO467728  11.457   8.408   5.360
 5234POPC   GL167729  11.213   8.231   5.712
 5234POPC   GL267730  11.274   7.956   5.865
 5234POPC   C1A67731  11.123   8.400   6.160
 5234POPC   D2A67732  11.022   8.429   6.637
 5234POPC   C3A67733  11.343   8.203   6.946
 5234POPC   C4A67734  11.489   8.214   7.382
 5234POPC   C1B67735  11.026   7.888   6.166
 5234POPC   C2B67736  11.169   7.944   6.536
 5234POPC   C3B67737  10.921   7.951   6.879
 5234POPC   C4B67738  11.005   8.031   7.284
 5235POPC   NC367739   6.267  11.512   5.423
 5235POPC   PO467740   6.815  11.065   5.460
 5235POPC   GL167741   6.760  11.244   5.841
 5235POPC   GL267742   6.440  11.396   5.875
 5235POPC   C1A67743   6.895  11.165   6.259
 5235POPC   D2A67744   6.989  11.413   6.634
 5235POPC   C3A67745   6.769  11.353   7.030
 5235POPC   C4A67746   6.368  11.515   7.184
 5235POPC   C1B67747   6.370  11.037   6.108
 5235POPC   C2B67748   6.273  10.918   6.530
 5235POPC   C3B67749   6.285  11.029   6.980
 5235POPC   C4B67750   6.524  11.059   7.382
 5236POPC   NC367751  13.148  31.033   5.326
 5236POPC   PO467752  12.680  30.528   5.168
 5236POPC   GL167753  12.817  30.591   5.661
 5236POPC   GL267754  13.091  30.851   5.805
 5236POPC   C1A67755  12.894  30.505   6.140
 5236POPC   D2A67756  12.779  30.702   6.518
 5236POPC   C3A67757  12.769  30.610   6.969
 5236POPC   C4A67758  13.117  30.387   7.178
 5236POPC   C1B67759  12.829  31.031   6.128
 5236POPC   C2B67760  12.763  31.213   6.531
 5236POPC   C3B67761  13.034  31.078   6.828
 5236POPC   C4B67762  13.082  30.913   7.224
 5237POPC   NC367763  35.614  25.073   5.422
 5237POPC   PO467764  35.018  25.022   5.640
 5237POPC   GL167765  35.297  25.313   5.796
 5237POPC   GL267766  35.489  25.043   5.906
 5237POPC   C1A67767  35.474  25.495   6.167
 5237POPC   D2A67768  35.608  25.510   6.590
 5237POPC   C3A67769  35.305  25.320   6.820
 5237POPC   C4A67770  35.207  25.229   7.243
 5237POPC   C1B67771  35.558  24.821   6.239
 5237POPC   C2B67772  35.633  24.936   6.620
 5237POPC   C3B67773  35.450  24.850   6.979
 5237POPC   C4B67774  35.473  24.777   7.391
 5238POPC   NC367775  27.777  34.840   5.349
 5238POPC   PO467776  27.658  34.184   5.294
 5238POPC   GL167777  27.826  34.367   5.632
 5238POPC   GL267778  27.489  34.500   5.687
 5238POPC   C1A67779  27.841  34.589   6.033
 5238POPC   D2A67780  27.896  34.383   6.448
 5238POPC   C3A67781  27.657  34.532   6.800
 5238POPC   C4A67782  27.735  34.674   7.181
 5238POPC   C1B67783  27.335  34.626   6.104
 5238POPC   C2B67784  27.467  34.877   6.472
 5238POPC   C3B67785  27.297  34.903   6.891
 5238POPC   C4B67786  27.208  34.523   7.087
 5239POPC   NC367787  34.899  26.136   5.437
 5239POPC   PO467788  35.517  26.037   5.579
 5239POPC   GL167789  35.364  25.930   5.944
 5239POPC   GL267790  35.003  25.838   5.847
 5239POPC   C1A67791  35.547  25.976   6.376
 5239POPC   D2A67792  35.776  26.218   6.721
 5239POPC   C3A67793  35.546  26.106   7.092
 5239POPC   C4A67794  35.358  25.708   7.146
 5239POPC   C1B67795  34.997  25.948   6.280
 5239POPC   C2B67796  35.148  25.803   6.662
 5239POPC   C3B67797  34.986  26.013   7.012
 5239POPC   C4B67798  35.094  26.079   7.422
 5240POPC   NC367799  37.543  38.608   5.468
 5240POPC   PO467800  37.551  37.964   5.469
 5240POPC   GL167801  37.719  38.224   5.782
 5240POPC   GL267802  37.385  38.282   5.914
 5240POPC   C1A67803  37.757  38.566   6.094
 5240POPC   D2A67804  37.957  38.534   6.477
 5240POPC   C3A67805  37.836  38.638   6.874
 5240POPC   C4A67806  37.967  38.571   7.304
 5240POPC   C1B67807  37.649  38.104   6.282
 5240POPC   C2B67808  37.893  38.028   6.645
 5240POPC   C3B67809  37.784  38.128   7.053
 5240POPC   C4B67810  37.470  38.449   7.167
 5241POPC   NC367811   7.069  35.494   5.454
 5241POPC   PO467812   6.639  35.008   5.532
 5241POPC   GL167813   6.506  35.306   5.858
 5241POPC   GL267814   6.377  35.658   5.741
 5241POPC   C1A67815   6.651  35.204   6.298
 5241POPC   D2A67816   6.753  35.073   6.733
 5241POPC   C3A67817   6.568  35.307   7.082
 5241POPC   C4A67818   6.771  35.379   7.467
 5241POPC   C1B67819   6.538  35.691   6.197
 5241POPC   C2B67820   6.707  35.631   6.625
 5241POPC   C3B67821   6.609  35.795   7.035
 5241POPC   C4B67822   6.400  35.695   7.446
 5242POPC   NC367823  39.987  28.522   5.361
 5242POPC   PO467824  39.823  27.906   5.299
 5242POPC   GL167825  39.832  28.114   5.708
 5242POPC   GL267826  40.169  28.222   5.809
 5242POPC   C1A67827  39.720  28.163   6.173
 5242POPC   D2A67828  39.502  28.181   6.623
 5242POPC   C3A67829  39.739  28.362   7.007
 5242POPC   C4A67830  39.982  28.760   7.086
 5242POPC   C1B67831  40.346  28.152   6.246
 5242POPC   C2B67832  40.377  28.403   6.652
 5242POPC   C3B67833  40.277  28.325   7.093
 5242POPC   C4B67834  40.031  28.078   7.381
 5243POPC   NC367835  32.014   4.752   5.410
 5243POPC   PO467836  32.014   5.413   5.545
 5243POPC   GL167837  32.091   5.222   5.935
 5243POPC   GL267838  32.276   4.945   5.828
 5243POPC   C1A67839  32.257   5.192   6.364
 5243POPC   D2A67840  32.304   4.854   6.671
 5243POPC   C3A67841  32.155   5.046   7.023
 5243POPC   C4A67842  32.281   5.179   7.422
 5243POPC   C1B67843  32.136   4.726   6.204
 5243POPC   C2B67844  31.844   4.565   6.503
 5243POPC   C3B67845  31.936   4.577   6.929
 5243POPC   C4B67846  31.981   4.756   7.390
 5244POPC   NC367847  16.176  43.181   5.425
 5244POPC   PO467848  15.679  43.429   5.419
 5244POPC   GL167849  15.840  43.244   5.821
 5244POPC   GL267850  16.195  43.289   5.922
 5244POPC   C1A67851  15.819  43.260   6.287
 5244POPC   D2A67852  15.949  43.151   6.725
 5244POPC   C3A67853  15.820  42.853   7.102
 5244POPC   C4A67854  15.712  42.895   7.566
 5244POPC   C1B67855  16.326  43.143   6.353
 5244POPC   C2B67856  16.333  42.804   6.678
 5244POPC   C3B67857  16.318  42.750   7.127
 5244POPC   C4B67858  16.225  42.934   7.548
 5245POPC   NC367859   6.331  14.903   5.260
 5245POPC   PO467860   6.849  14.380   5.369
 5245POPC   GL167861   6.690  14.270   5.768
 5245POPC   GL267862   6.400  14.472   5.758
 5245POPC   C1A67863   6.728  14.350   6.204
 5245POPC   D2A67864   6.790  14.671   6.517
 5245POPC   C3A67865   6.737  14.494   6.925
 5245POPC   C4A67866   6.629  14.577   7.348
 5245POPC   C1B67867   6.306  14.621   6.186
 5245POPC   C2B67868   6.356  14.368   6.593
 5245POPC   C3B67869   6.229  14.453   7.050
 5245POPC   C4B67870   6.199  14.313   7.536
 5246POPC   NC367871  17.364  11.786   5.903
 5246POPC   PO467872  17.662  11.941   5.317
 5246POPC   GL167873  17.717  12.165   5.798
 5246POPC   GL267874  17.425  12.294   6.002
 5246POPC   C1A67875  17.776  12.068   6.305
 5246POPC   D2A67876  17.505  11.930   6.677
 5246POPC   C3A67877  17.714  11.908   7.097
 5246POPC   C4A67878  17.574  11.934   7.551
 5246POPC   C1B67879  17.123  12.201   6.369
 5246POPC   C2B67880  16.993  11.988   6.776
 5246POPC   C3B67881  17.195  11.952   7.178
 5246POPC   C4B67882  17.053  12.036   7.620
 5247POPC   NC367883  31.498  32.619   5.409
 5247POPC   PO467884  31.797  32.007   5.461
 5247POPC   GL167885  31.554  32.216   5.721
 5247POPC   GL267886  31.737  32.488   5.844
 5247POPC   C1A67887  31.391  32.141   6.111
 5247POPC   D2A67888  31.469  32.057   6.523
 5247POPC   C3A67889  31.209  32.300   6.810
 5247POPC   C4A67890  31.214  32.033   7.145
 5247POPC   C1B67891  31.597  32.586   6.271
 5247POPC   C2B67892  31.628  32.544   6.655
 5247POPC   C3B67893  31.776  32.489   7.018
 5247POPC   C4B67894  31.442  32.482   7.241
 5248POPC   NC367895   9.944  20.058   5.229
 5248POPC   PO467896   9.343  19.732   5.402
 5248POPC   GL167897   9.575  19.737   5.816
 5248POPC   GL267898   9.934  19.879   5.780
 5248POPC   C1A67899   9.726  19.641   6.262
 5248POPC   D2A67900   9.740  19.760   6.730
 5248POPC   C3A67901   9.571  19.513   7.072
 5248POPC   C4A67902   9.590  19.406   7.527
 5248POPC   C1B67903  10.037  20.077   6.206
 5248POPC   C2B67904  10.204  19.922   6.632
 5248POPC   C3B67905  10.040  20.101   7.040
 5248POPC   C4B67906  10.097  20.211   7.487
 5249POPC   NC367907  38.280   7.645   5.390
 5249POPC   PO467908  38.071   7.037   5.652
 5249POPC   GL167909  38.374   7.320   5.844
 5249POPC   GL267910  38.360   7.694   5.869
 5249POPC   C1A67911  38.347   7.369   6.271
 5249POPC   D2A67912  38.067   7.612   6.499
 5249POPC   C3A67913  38.091   7.459   6.898
 5249POPC   C4A67914  38.227   7.538   7.315
 5249POPC   C1B67915  38.431   7.881   6.220
 5249POPC   C2B67916  38.591   7.714   6.580
 5249POPC   C3B67917  38.602   7.692   6.983
 5249POPC   C4B67918  38.738   7.531   7.364
 5250POPC   NC367919  10.280  10.832   5.442
 5250POPC   PO467920  10.137  10.167   5.403
 5250POPC   GL167921  10.356  10.401   5.769
 5250POPC   GL267922  10.563  10.697   5.842
 5250POPC   C1A67923  10.196  10.558   6.186
 5250POPC   D2A67924  10.160  10.382   6.602
 5250POPC   C3A67925  10.172  10.608   6.986
 5250POPC   C4A67926  10.495  10.569   7.310
 5250POPC   C1B67927  10.607  10.870   6.256
 5250POPC   C2B67928  10.591  10.752   6.701
 5250POPC   C3B67929  10.655  10.990   7.076
 5250POPC   C4B67930  10.700  10.959   7.559
 5251POPC   NC367931  20.876  19.362   5.458
 5251POPC   PO467932  20.471  18.834   5.169
 5251POPC   GL167933  20.587  18.863   5.645
 5251POPC   GL267934  20.825  19.086   5.880
 5251POPC   C1A67935  20.395  18.967   6.081
 5251POPC   D2A67936  20.487  19.107   6.521
 5251POPC   C3A67937  20.405  18.863   6.914
 5251POPC   C4A67938  20.672  18.704   7.255
 5251POPC   C1B67939  20.880  19.407   6.207
 5251POPC   C2B67940  20.732  19.565   6.612
 5251POPC   C3B67941  20.543  19.387   7.021
 5251POPC   C4B67942  20.228  19.146   7.298
 5252POPC   NC367943  38.156  28.747   5.467
 5252POPC   PO467944  37.488  28.486   5.393
 5252POPC   GL167945  37.590  28.490   5.823
 5252POPC   GL267946  37.954  28.422   5.847
 5252POPC   C1A67947  37.615  28.251   6.197
 5252POPC   D2A67948  37.896  28.196   6.526
 5252POPC   C3A67949  37.692  28.203   6.911
 5252POPC   C4A67950  37.508  28.148   7.319
 5252POPC   C1B67951  37.919  28.649   6.256
 5252POPC   C2B67952  37.698  28.693   6.653
 5252POPC   C3B67953  37.487  28.646   7.054
 5252POPC   C4B67954  37.834  28.532   7.311
 5253POPC   NC367955  40.219   0.984   5.535
 5253POPC   PO467956  39.910   1.555   5.547
 5253POPC   GL167957  39.883   1.346   5.894
 5253POPC   GL267958  39.642   1.598   6.007
 5253POPC   C1A67959  40.024   1.390   6.330
 5253POPC   D2A67960  39.905   1.569   6.736
 5253POPC   C3A67961  40.178   1.468   7.090
 5253POPC   C4A67962  40.181   1.094   7.313
 5253POPC   C1B67963  39.550   1.205   6.241
 5253POPC   C2B67964  39.707   1.110   6.662
 5253POPC   C3B67965  39.725   1.221   7.124
 5253POPC   C4B67966  39.678   1.107   7.607
 5254POPC   NC367967  35.742  34.729   5.466
 5254POPC   PO467968  36.361  34.490   5.204
 5254POPC   GL167969  36.390  34.664   5.716
 5254POPC   GL267970  36.066  34.530   5.827
 5254POPC   C1A67971  36.272  34.819   6.184
 5254POPC   D2A67972  35.932  34.857   6.552
 5254POPC   C3A67973  36.094  34.793   6.975
 5254POPC   C4A67974  36.137  34.542   7.319
 5254POPC   C1B67975  36.097  34.344   6.254
 5254POPC   C2B67976  36.260  34.481   6.598
 5254POPC   C3B67977  36.189  34.256   6.915
 5254POPC   C4B67978  35.977  34.024   7.218
 5255POPC   NC367979   1.400  44.404   5.435
 5255POPC   PO467980   1.051  43.751   5.345
 5255POPC   GL167981   1.184  43.880   5.757
 5255POPC   GL267982   0.973  43.714   6.030
 5255POPC   C1A67983   1.521  43.800   6.086
 5255POPC   D2A67984   1.704  43.704   6.514
 5255POPC   C3A67985   1.392  43.716   6.870
 5255POPC   C4A67986   1.441  43.747   7.300
 5255POPC   C1B67987   1.093  44.098   6.212
 5255POPC   C2B67988   1.385  44.108   6.523
 5255POPC   C3B67989   1.362  44.259   6.926
 5255POPC   C4B67990   1.088  44.096   7.195
 5256POPC   NC367991  43.782  24.946   5.514
 5256POPC   PO467992  44.168  25.323   5.140
 5256POPC   GL167993  44.095  25.346   5.602
 5256POPC   GL267994  44.271  25.603   5.778
 5256POPC   C1A67995  43.913  25.327   6.049
 5256POPC   D2A67996  43.970  25.066   6.443
 5256POPC   C3A67997  43.685  25.146   6.781
 5256POPC   C4A67998  43.733  25.165   7.221
 5256POPC   C1B67999  44.311  25.592   6.255
 5256POPC   C2B68000  44.233  25.514   6.693
 5256POPC   C3B68001  43.899  25.583   6.968
 5256POPC   C4B68002  43.940  25.607   7.394
 5257POPC   NC368003  42.155  23.841   5.122
 5257POPC   PO468004  42.264  24.565   5.307
 5257POPC   GL168005  42.266  24.500   5.710
 5257POPC   GL268006  42.044  24.741   5.821
 5257POPC   C1A68007  42.401  24.611   6.139
 5257POPC   D2A68008  42.272  24.462   6.506
 5257POPC   C3A68009  42.396  24.581   6.890
 5257POPC   C4A68010  42.438  24.378   7.261
 5257POPC   C1B68011  41.791  24.706   6.172
 5257POPC   C2B68012  41.889  24.904   6.562
 5257POPC   C3B68013  41.925  24.836   6.999
 5257POPC   C4B68014  41.952  24.439   7.173
 5258POPC   NC368015  10.701   0.298   5.405
 5258POPC   PO468016  10.377   0.869   5.195
 5258POPC   GL168017  10.567   0.681   5.696
 5258POPC   GL268018  10.562   0.334   5.871
 5258POPC   C1A68019  10.423   0.655   6.204
 5258POPC   D2A68020  10.729   0.514   6.522
 5258POPC   C3A68021  10.549   0.503   6.936
 5258POPC   C4A68022  10.388   0.187   7.216
 5258POPC   C1B68023  10.890   0.136   6.113
 5258POPC   C2B68024  11.081   0.122   6.532
 5258POPC   C3B68025  10.912   0.109   6.943
 5258POPC   C4B68026  10.896  44.882   7.328
 5259POPC   NC368027   0.077   2.675   5.428
 5259POPC   PO468028   0.727   2.453   5.381
 5259POPC   GL168029   0.522   2.691   5.761
 5259POPC   GL268030   0.198   2.547   5.894
 5259POPC   C1A68031   0.549   2.899   6.193
 5259POPC   D2A68032   0.553   3.227   6.565
 5259POPC   C3A68033   0.501   3.021   6.985
 5259POPC   C4A68034   0.211   2.725   7.156
 5259POPC   C1B68035   0.217   2.482   6.306
 5259POPC   C2B68036   0.343   2.628   6.663
 5259POPC   C3B68037   0.197   2.298   6.890
 5259POPC   C4B68038   0.100   2.232   7.293
 5260POPC   NC368039   7.769   2.136   5.499
 5260POPC   PO468040   7.221   1.801   5.205
 5260POPC   GL168041   7.330   1.806   5.672
 5260POPC   GL268042   7.636   1.848   5.892
 5260POPC   C1A68043   7.129   1.804   6.087
 5260POPC   D2A68044   7.251   1.707   6.499
 5260POPC   C3A68045   7.237   1.985   6.849
 5260POPC   C4A68046   7.406   1.865   7.224
 5260POPC   C1B68047   7.563   2.148   6.276
 5260POPC   C2B68048   7.579   2.339   6.719
 5260POPC   C3B68049   7.797   2.197   7.100
 5260POPC   C4B68050   8.060   2.093   7.471
 5261POPC   NC368051  32.644  22.574   5.136
 5261POPC   PO468052  32.093  22.897   5.387
 5261POPC   GL168053  32.285  22.814   5.766
 5261POPC   GL268054  32.491  22.544   5.728
 5261POPC   C1A68055  32.222  22.936   6.174
 5261POPC   D2A68056  32.498  23.016   6.511
 5261POPC   C3A68057  32.434  22.813   6.881
 5261POPC   C4A68058  32.296  22.844   7.301
 5261POPC   C1B68059  32.319  22.450   6.163
 5261POPC   C2B68060  32.144  22.558   6.565
 5261POPC   C3B68061  32.097  22.437   7.032
 5261POPC   C4B68062  32.231  22.380   7.490
 5262POPC   NC368063   5.868  31.787   5.292
 5262POPC   PO468064   6.205  31.345   5.493
 5262POPC   GL168065   5.899  31.455   5.800
 5262POPC   GL268066   5.899  31.825   5.788
 5262POPC   C1A68067   5.768  31.298   6.228
 5262POPC   D2A68068   5.676  31.546   6.609
 5262POPC   C3A68069   5.745  31.298   6.985
 5262POPC   C4A68070   5.764  31.264   7.396
 5262POPC   C1B68071   5.976  31.822   6.234
 5262POPC   C2B68072   6.040  31.905   6.676
 5262POPC   C3B68073   5.940  31.746   7.039
 5262POPC   C4B68074   5.666  31.765   7.397
 5263POPC   NC368075   1.486   9.339   5.598
 5263POPC   PO468076   1.035   9.715   5.391
 5263POPC   GL168077   1.250   9.726   5.833
 5263POPC   GL268078   1.587   9.854   5.716
 5263POPC   C1A68079   1.395   9.546   6.295
 5263POPC   D2A68080   1.588   9.413   6.752
 5263POPC   C3A68081   1.339   9.492   7.136
 5263POPC   C4A68082   1.070   9.848   7.223
 5263POPC   C1B68083   1.574  10.051   6.114
 5263POPC   C2B68084   1.359  10.036   6.508
 5263POPC   C3B68085   1.501   9.940   6.918
 5263POPC   C4B68086   1.502  10.143   7.315
 5264POPC   NC368087  33.907  18.608   5.639
 5264POPC   PO468088  33.915  19.197   5.309
 5264POPC   GL168089  33.937  19.143   5.753
 5264POPC   GL268090  33.618  19.043   5.871
 5264POPC   C1A68091  34.040  19.309   6.179
 5264POPC   D2A68092  34.118  19.191   6.632
 5264POPC   C3A68093  34.042  18.987   7.030
 5264POPC   C4A68094  34.201  19.207   7.396
 5264POPC   C1B68095  33.821  18.846   6.239
 5264POPC   C2B68096  33.730  18.734   6.654
 5264POPC   C3B68097  33.527  18.972   6.979
 5264POPC   C4B68098  33.645  18.973   7.436
 5265POPC   NC368099   2.569  40.850   5.264
 5265POPC   PO468100   2.505  40.174   5.450
 5265POPC   GL168101   2.676  40.528   5.741
 5265POPC   GL268102   2.656  40.916   5.757
 5265POPC   C1A68103   2.858  40.619   6.149
 5265POPC   D2A68104   3.041  40.536   6.545
 5265POPC   C3A68105   2.742  40.581   6.863
 5265POPC   C4A68106   2.672  40.464   7.249
 5265POPC   C1B68107   2.569  41.044   6.179
 5265POPC   C2B68108   2.792  41.007   6.548
 5265POPC   C3B68109   3.101  40.947   6.868
 5265POPC   C4B68110   2.840  40.974   7.225
 5266POPC   NC368111  13.594   2.511   5.121
 5266POPC   PO468112  13.103   2.677   5.574
 5266POPC   GL168113  13.518   2.762   5.771
 5266POPC   GL268114  13.619   2.464   5.906
 5266POPC   C1A68115  13.607   2.841   6.236
 5266POPC   D2A68116  13.348   2.738   6.607
 5266POPC   C3A68117  13.416   2.913   7.030
 5266POPC   C4A68118  13.770   3.097   7.286
 5266POPC   C1B68119  13.339   2.363   6.203
 5266POPC   C2B68120  13.380   2.183   6.593
 5266POPC   C3B68121  13.436   2.382   6.962
 5266POPC   C4B68122  13.608   2.386   7.359
 5267POPC   NC368123  37.434  22.259   5.354
 5267POPC   PO468124  38.132  22.411   5.435
 5267POPC   GL168125  37.862  22.462   5.764
 5267POPC   GL268126  37.657  22.156   5.800
 5267POPC   C1A68127  37.755  22.435   6.200
 5267POPC   D2A68128  37.928  22.266   6.568
 5267POPC   C3A68129  37.711  22.194   6.962
 5267POPC   C4A68130  37.934  22.168   7.324
 5267POPC   C1B68131  37.650  21.942   6.195
 5267POPC   C2B68132  37.475  21.940   6.581
 5267POPC   C3B68133  37.331  21.696   6.930
 5267POPC   C4B68134  37.384  21.803   7.349
 5268POPC   NC368135   1.610   1.365   5.484
 5268POPC   PO468136   2.145   0.947   5.440
 5268POPC   GL168137   2.006   1.102   5.815
 5268POPC   GL268138   1.677   1.069   5.885
 5268POPC   C1A68139   2.080   1.043   6.243
 5268POPC   D2A68140   2.254   1.064   6.643
 5268POPC   C3A68141   1.996   1.274   6.943
 5268POPC   C4A68142   2.205   1.175   7.317
 5268POPC   C1B68143   1.747   1.440   6.177
 5268POPC   C2B68144   1.671   1.602   6.629
 5268POPC   C3B68145   1.625   1.587   7.095
 5268POPC   C4B68146   1.735   1.316   7.475
 5269POPC   NC368147  20.125  11.929   5.471
 5269POPC   PO468148  20.710  12.301   5.457
 5269POPC   GL168149  20.683  12.198   5.884
 5269POPC   GL268150  20.374  12.377   5.895
 5269POPC   C1A68151  20.612  11.950   6.313
 5269POPC   D2A68152  20.514  11.678   6.705
 5269POPC   C3A68153  20.699  11.893   7.064
 5269POPC   C4A68154  21.051  12.197   7.053
 5269POPC   C1B68155  20.561  12.458   6.292
 5269POPC   C2B68156  20.845  12.376   6.573
 5269POPC   C3B68157  20.597  12.359   6.899
 5269POPC   C4B68158  20.270  12.223   7.149
 5270POPC   NC368159  17.382  23.829   5.519
 5270POPC   PO468160  17.801  24.286   5.490
 5270POPC   GL168161  17.766  24.279   5.947
 5270POPC   GL268162  17.514  24.554   5.980
 5270POPC   C1A68163  17.702  24.178   6.426
 5270POPC   D2A68164  17.445  24.071   6.831
 5270POPC   C3A68165  17.404  24.386   7.181
 5270POPC   C4A68166  17.459  24.766   7.485
 5270POPC   C1B68167  17.141  24.445   6.230
 5270POPC   C2B68168  17.039  24.376   6.672
 5270POPC   C3B68169  16.876  24.408   7.091
 5270POPC   C4B68170  16.995  24.559   7.515
 5271POPC   NC368171  43.555  20.650   5.393
 5271POPC   PO468172  44.234  20.514   5.528
 5271POPC   GL168173  43.931  20.782   5.745
 5271POPC   GL268174  44.184  20.764   5.992
 5271POPC   C1A68175  43.697  20.987   6.111
 5271POPC   D2A68176  43.574  20.937   6.574
 5271POPC   C3A68177  43.725  20.520   6.724
 5271POPC   C4A68178  43.969  20.401   7.060
 5271POPC   C1B68179  44.051  20.786   6.404
 5271POPC   C2B68180  44.059  20.951   6.801
 5271POPC   C3B68181  44.274  20.793   7.126
 5271POPC   C4B68182  44.391  20.423   7.341
 5272POPC   NC368183  21.859  12.606   5.567
 5272POPC   PO468184  21.387  12.059   5.342
 5272POPC   GL168185  21.184  12.073   5.776
 5272POPC   GL268186  21.167  12.434   5.824
 5272POPC   C1A68187  21.185  12.010   6.265
 5272POPC   D2A68188  21.500  11.848   6.643
 5272POPC   C3A68189  21.358  11.793   7.101
 5272POPC   C4A68190  21.089  11.883   7.454
 5272POPC   C1B68191  21.456  12.437   6.179
 5272POPC   C2B68192  21.354  12.336   6.613
 5272POPC   C3B68193  21.557  12.272   6.976
 5272POPC   C4B68194  21.409  12.480   7.313
 5273POPC   NC368195  15.340  10.352   5.145
 5273POPC   PO468196  15.145   9.820   5.533
 5273POPC   GL168197  15.235   9.667   5.885
 5273POPC   GL268198  15.527   9.417   5.930
 5273POPC   C1A68199  15.106   9.853   6.267
 5273POPC   D2A68200  15.323   9.837   6.641
 5273POPC   C3A68201  14.961   9.893   6.877
 5273POPC   C4A68202  14.979  10.064   7.272
 5273POPC   C1B68203  15.223   9.357   6.273
 5273POPC   C2B68204  15.060   9.399   6.670
 5273POPC   C3B68205  15.241   9.530   7.075
 5273POPC   C4B68206  15.458   9.931   7.201
 5274POPC   NC368207   4.874  11.565   5.250
 5274POPC   PO468208   5.344  11.034   5.344
 5274POPC   GL168209   5.140  11.314   5.685
 5274POPC   GL268210   4.786  11.421   5.728
 5274POPC   C1A68211   5.054  11.153   6.113
 5274POPC   D2A68212   5.075  10.873   6.475
 5274POPC   C3A68213   4.929  10.943   6.874
 5274POPC   C4A68214   5.224  11.125   7.146
 5274POPC   C1B68215   4.874  11.626   6.117
 5274POPC   C2B68216   5.017  11.517   6.515
 5274POPC   C3B68217   4.871  11.443   6.896
 5274POPC   C4B68218   4.807  11.433   7.308
 5275POPC   NC368219  10.865  34.091   5.678
 5275POPC   PO468220  10.496  34.618   5.412
 5275POPC   GL168221  10.588  34.580   5.816
 5275POPC   GL268222  10.966  34.582   5.825
 5275POPC   C1A68223  10.311  34.600   6.173
 5275POPC   D2A68224  10.072  34.712   6.538
 5275POPC   C3A68225  10.300  34.623   6.922
 5275POPC   C4A68226  10.312  35.034   7.105
 5275POPC   C1B68227  10.825  34.378   6.234
 5275POPC   C2B68228  10.769  34.434   6.639
 5275POPC   C3B68229  10.868  34.251   7.007
 5275POPC   C4B68230  10.653  34.442   7.332
 5276POPC   NC368231  17.668   0.631   5.276
 5276POPC   PO468232  17.353   0.073   5.359
 5276POPC   GL168233  17.526   0.288   5.746
 5276POPC   GL268234  17.526   0.687   5.772
 5276POPC   C1A68235  17.565   0.355   6.186
 5276POPC   D2A68236  17.504   0.135   6.553
 5276POPC   C3A68237  17.551   0.343   6.901
 5276POPC   C4A68238  17.674   0.216   7.282
 5276POPC   C1B68239  17.209   0.712   6.099
 5276POPC   C2B68240  17.210   0.584   6.530
 5276POPC   C3B68241  17.185   0.699   6.959
 5276POPC   C4B68242  17.534   0.725   7.252
 5277POPC   NC368243   1.923  17.780   5.146
 5277POPC   PO468244   2.238  18.376   5.331
 5277POPC   GL168245   2.044  18.457   5.757
 5277POPC   GL268246   1.933  18.178   5.988
 5277POPC   C1A68247   2.194  18.535   6.208
 5277POPC   D2A68248   2.145  18.220   6.547
 5277POPC   C3A68249   2.233  18.487   6.862
 5277POPC   C4A68250   2.573  18.655   7.042
 5277POPC   C1B68251   1.654  18.106   6.338
 5277POPC   C2B68252   1.664  17.889   6.693
 5277POPC   C3B68253   1.898  18.105   6.975
 5277POPC   C4B68254   1.635  18.252   7.223
 5278POPC   NC368255  10.838  24.484   5.446
 5278POPC   PO468256  10.209  24.730   5.511
 5278POPC   GL168257  10.431  24.413   5.774
 5278POPC   GL268258  10.687  24.627   5.899
 5278POPC   C1A68259  10.544  24.258   6.209
 5278POPC   D2A68260  10.820  24.408   6.561
 5278POPC   C3A68261  10.613  24.449   6.966
 5278POPC   C4A68262  10.663  24.323   7.374
 5278POPC   C1B68263  10.255  24.680   6.163
 5278POPC   C2B68264  10.311  24.581   6.579
 5278POPC   C3B68265  10.181  24.703   7.001
 5278POPC   C4B68266  10.265  24.632   7.434
 5279POPC   NC368267  23.757  21.375   5.309
 5279POPC   PO468268  23.135  20.944   5.503
 5279POPC   GL168269  23.568  21.105   5.701
 5279POPC   GL268270  23.960  21.168   5.732
 5279POPC   C1A68271  23.681  21.392   6.068
 5279POPC   D2A68272  23.519  21.291   6.450
 5279POPC   C3A68273  23.737  21.380   6.804
 5279POPC   C4A68274  23.626  21.373   7.255
 5279POPC   C1B68275  24.120  21.004   6.140
 5279POPC   C2B68276  23.933  20.944   6.566
 5279POPC   C3B68277  23.931  20.967   7.031
 5279POPC   C4B68278  24.092  21.223   7.376
 5280POPC   NC368279  44.777  37.450   5.351
 5280POPC   PO468280  44.292  37.849   5.379
 5280POPC   GL168281  44.306  37.677   5.813
 5280POPC   GL268282  44.409  37.342   5.908
 5280POPC   C1A68283  44.301  37.775   6.270
 5280POPC   D2A68284  44.600  37.632   6.601
 5280POPC   C3A68285  44.567  37.725   7.038
 5280POPC   C4A68286  44.875  37.809   7.342
 5280POPC   C1B68287  44.237  37.278   6.350
 5280POPC   C2B68288  44.309  37.256   6.815
 5280POPC   C3B68289  44.681  37.187   7.051
 5280POPC   C4B68290   0.040  37.321   7.300
 5281POPC   NC368291   0.293  14.403   5.340
 5281POPC   PO468292   0.406  13.750   5.267
 5281POPC   GL168293   0.469  14.002   5.667
 5281POPC   GL268294   0.158  14.209   5.786
 5281POPC   C1A68295   0.592  14.330   6.007
 5281POPC   D2A68296   0.485  14.585   6.371
 5281POPC   C3A68297   0.502  14.464   6.823
 5281POPC   C4A68298   0.426  14.575   7.283
 5281POPC   C1B68299   0.063  14.556   6.088
 5281POPC   C2B68300   0.007  14.534   6.569
 5281POPC   C3B68301   0.032  14.291   6.976
 5281POPC   C4B68302   0.381  14.082   7.174
 5282POPC   NC368303   8.592  37.349   5.533
 5282POPC   PO468304   8.976  37.777   5.335
 5282POPC   GL168305   9.074  37.623   5.773
 5282POPC   GL268306   8.983  37.921   5.917
 5282POPC   C1A68307   9.314  37.635   6.212
 5282POPC   D2A68308   9.480  37.885   6.601
 5282POPC   C3A68309   9.242  37.691   6.916
 5282POPC   C4A68310   8.968  37.405   7.117
 5282POPC   C1B68311   8.772  37.614   6.223
 5282POPC   C2B68312   8.621  37.569   6.684
 5282POPC   C3B68313   8.556  37.702   7.120
 5282POPC   C4B68314   8.702  37.621   7.570
 5283POPC   NC368315  32.649  37.142   5.712
 5283POPC   PO468316  33.288  37.539   5.490
 5283POPC   GL168317  33.261  37.592   5.893
 5283POPC   GL268318  32.891  37.587   5.854
 5283POPC   C1A68319  33.490  37.628   6.293
 5283POPC   D2A68320  33.275  37.817   6.635
 5283POPC   C3A68321  33.139  37.724   7.057
 5283POPC   C4A68322  32.763  37.919   7.217
 5283POPC   C1B68323  32.951  37.615   6.296
 5283POPC   C2B68324  32.956  37.409   6.674
 5283POPC   C3B68325  32.732  37.339   7.024
 5283POPC   C4B68326  32.630  36.931   7.052
 5284POPC   NC368327  12.998  10.091   5.414
 5284POPC   PO468328  12.771   9.456   5.211
 5284POPC   GL168329  12.720   9.631   5.635
 5284POPC   GL268330  13.070   9.663   5.763
 5284POPC   C1A68331  12.703   9.486   6.078
 5284POPC   D2A68332  12.950   9.545   6.452
 5284POPC   C3A68333  12.705   9.546   6.824
 5284POPC   C4A68334  12.859   9.521   7.227
 5284POPC   C1B68335  12.907   9.961   6.097
 5284POPC   C2B68336  13.000  10.050   6.551
 5284POPC   C3B68337  12.883  10.003   6.982
 5284POPC   C4B68338  13.194   9.906   7.282
 5285POPC   NC368339  39.131  34.934   5.432
 5285POPC   PO468340  39.123  35.707   5.554
 5285POPC   GL168341  39.195  35.496   5.913
 5285POPC   GL268342  39.116  35.168   5.905
 5285POPC   C1A68343  39.312  35.406   6.320
 5285POPC   D2A68344  39.158  35.325   6.720
 5285POPC   C3A68345  39.364  35.544   7.060
 5285POPC   C4A68346  39.307  35.449   7.479
 5285POPC   C1B68347  39.084  34.924   6.316
 5285POPC   C2B68348  39.114  34.784   6.741
 5285POPC   C3B68349  39.222  34.999   7.142
 5285POPC   C4B68350  39.128  34.993   7.605
 5286POPC   NC368351   6.651   0.114   5.389
 5286POPC   PO468352   6.341   0.766   5.413
 5286POPC   GL168353   6.503   0.437   5.753
 5286POPC   GL268354   6.259   0.132   5.745
 5286POPC   C1A68355   6.685   0.108   6.061
 5286POPC   D2A68356   6.984  44.995   6.403
 5286POPC   C3A68357   6.976   0.202   6.817
 5286POPC   C4A68358   6.810   0.123   7.259
 5286POPC   C1B68359   6.226   0.289   6.191
 5286POPC   C2B68360   6.561   0.394   6.476
 5286POPC   C3B68361   6.508   0.348   6.909
 5286POPC   C4B68362   6.691   0.666   7.180
 5287POPC   NC368363   7.384  31.978   5.330
 5287POPC   PO468364   7.790  32.434   5.478
 5287POPC   GL168365   7.430  32.327   5.754
 5287POPC   GL268366   7.322  31.991   5.854
 5287POPC   C1A68367   7.360  32.366   6.207
 5287POPC   D2A68368   7.301  32.179   6.593
 5287POPC   C3A68369   7.531  32.251   6.955
 5287POPC   C4A68370   7.625  32.539   7.269
 5287POPC   C1B68371   7.016  31.963   6.227
 5287POPC   C2B68372   6.944  31.837   6.671
 5287POPC   C3B68373   7.022  32.117   7.010
 5287POPC   C4B68374   7.244  32.069   7.378
 5288POPC   NC368375  25.495  25.010   5.525
 5288POPC   PO468376  25.244  24.421   5.264
 5288POPC   GL168377  25.268  24.325   5.674
 5288POPC   GL268378  25.084  24.002   5.691
 5288POPC   C1A68379  25.399  24.549   6.076
 5288POPC   D2A68380  25.429  24.428   6.522
 5288POPC   C3A68381  25.426  24.657   6.922
 5288POPC   C4A68382  25.250  24.683   7.338
 5288POPC   C1B68383  25.324  24.026   6.082
 5288POPC   C2B68384  25.246  23.936   6.531
 5288POPC   C3B68385  25.283  24.135   6.933
 5288POPC   C4B68386  25.366  24.196   7.358
 5289POPC   NC368387  24.351  20.862   5.346
 5289POPC   PO468388  24.498  20.220   5.479
 5289POPC   GL168389  24.517  20.563   5.747
 5289POPC   GL268390  24.725  20.373   5.963
 5289POPC   C1A68391  24.655  20.873   6.077
 5289POPC   D2A68392  24.758  20.933   6.535
 5289POPC   C3A68393  24.409  20.942   6.838
 5289POPC   C4A68394  24.303  20.665   7.201
 5289POPC   C1B68395  24.319  20.489   6.204
 5289POPC   C2B68396  24.223  20.490   6.615
 5289POPC   C3B68397  24.606  20.474   6.815
 5289POPC   C4B68398  24.764  20.256   7.139
 5290POPC   NC368399   9.433  35.543   5.499
 5290POPC   PO468400   9.820  34.917   5.499
 5290POPC   GL168401   9.841  35.154   5.872
 5290POPC   GL268402   9.496  35.285   5.988
 5290POPC   C1A68403   9.871  35.198   6.324
 5290POPC   D2A68404   9.490  35.328   6.547
 5290POPC   C3A68405   9.592  35.287   6.976
 5290POPC   C4A68406   9.976  35.436   7.110
 5290POPC   C1B68407   9.338  35.690   6.202
 5290POPC   C2B68408   9.325  35.835   6.652
 5290POPC   C3B68409   9.537  35.815   7.074
 5290POPC   C4B68410   9.503  35.524   7.439
 5291POPC   NC368411   4.441  42.901   5.198
 5291POPC   PO468412   4.168  43.404   5.612
 5291POPC   GL168413   4.367  43.150   5.880
 5291POPC   GL268414   4.308  42.846   5.702
 5291POPC   C1A68415   4.445  43.169   6.338
 5291POPC   D2A68416   4.198  43.229   6.738
 5291POPC   C3A68417   4.398  43.269   7.140
 5291POPC   C4A68418   4.277  43.279   7.557
 5291POPC   C1B68419   4.157  42.740   6.124
 5291POPC   C2B68420   4.321  42.709   6.536
 5291POPC   C3B68421   4.526  42.835   6.908
 5291POPC   C4B68422   4.345  42.809   7.351
 5292POPC   NC368423   9.209  43.831   5.318
 5292POPC   PO468424   8.545  43.822   5.252
 5292POPC   GL168425   8.656  43.915   5.751
 5292POPC   GL268426   8.954  43.713   5.770
 5292POPC   C1A68427   8.740  43.915   6.277
 5292POPC   D2A68428   9.006  44.127   6.696
 5292POPC   C3A68429   9.072  43.962   7.102
 5292POPC   C4A68430   8.883  43.585   7.299
 5292POPC   C1B68431   9.195  43.706   6.149
 5292POPC   C2B68432   9.054  43.632   6.573
 5292POPC   C3B68433   9.245  43.520   6.936
 5292POPC   C4B68434   9.505  43.642   7.277
 5293POPC   NC368435   7.053  21.733   5.559
 5293POPC   PO468436   7.682  21.540   5.331
 5293POPC   GL168437   7.618  21.354   5.729
 5293POPC   GL268438   7.274  21.312   5.755
 5293POPC   C1A68439   7.532  21.486   6.160
 5293POPC   D2A68440   7.487  21.261   6.548
 5293POPC   C3A68441   7.607  21.342   6.968
 5293POPC   C4A68442   7.374  21.421   7.378
 5293POPC   C1B68443   7.085  21.232   6.159
 5293POPC   C2B68444   7.003  21.034   6.557
 5293POPC   C3B68445   7.105  21.215   6.944
 5293POPC   C4B68446   6.857  21.399   7.272
 5294POPC   NC368447  20.109  39.576   5.515
 5294POPC   PO468448  19.822  40.186   5.346
 5294POPC   GL168449  19.760  39.966   5.733
 5294POPC   GL268450  19.592  40.247   5.846
 5294POPC   C1A68451  19.650  39.810   6.168
 5294POPC   D2A68452  19.589  39.976   6.608
 5294POPC   C3A68453  19.897  39.807   6.951
 5294POPC   C4A68454  19.779  39.937   7.375
 5294POPC   C1B68455  19.928  40.233   6.167
 5294POPC   C2B68456  19.922  40.358   6.578
 5294POPC   C3B68457  19.792  40.302   7.003
 5294POPC   C4B68458  20.093  40.362   7.318
 5295POPC   NC368459  22.564  32.899   5.637
 5295POPC   PO468460  22.814  33.478   5.391
 5295POPC   GL168461  22.986  33.227   5.769
 5295POPC   GL268462  23.072  32.870   5.688
 5295POPC   C1A68463  22.964  33.162   6.261
 5295POPC   D2A68464  23.054  33.142   6.738
 5295POPC   C3A68465  22.705  33.167   7.057
 5295POPC   C4A68466  22.643  33.221   7.520
 5295POPC   C1B68467  23.153  32.711   6.130
 5295POPC   C2B68468  23.245  32.651   6.600
 5295POPC   C3B68469  22.965  32.694   7.008
 5295POPC   C4B68470  22.766  32.733   7.455
 5296POPC   NC368471  28.005  31.714   5.432
 5296POPC   PO468472  28.587  31.388   5.286
 5296POPC   GL168473  28.516  31.477   5.729
 5296POPC   GL268474  28.186  31.336   5.742
 5296POPC   C1A68475  28.515  31.556   6.199
 5296POPC   D2A68476  28.620  31.725   6.584
 5296POPC   C3A68477  28.454  31.478   6.904
 5296POPC   C4A68478  28.395  31.361   7.328
 5296POPC   C1B68479  28.184  31.187   6.137
 5296POPC   C2B68480  28.180  31.161   6.579
 5296POPC   C3B68481  27.972  31.317   6.934
 5296POPC   C4B68482  27.891  31.273   7.367
 5297POPC   NC368483  29.999  22.783   5.220
 5297POPC   PO468484  30.418  22.422   5.616
 5297POPC   GL168485  30.175  22.791   5.698
 5297POPC   GL268486  29.833  22.815   5.743
 5297POPC   C1A68487  30.150  23.147   5.986
 5297POPC   D2A68488  30.193  23.073   6.432
 5297POPC   C3A68489  29.874  23.027   6.772
 5297POPC   C4A68490  29.994  22.977   7.217
 5297POPC   C1B68491  29.740  22.919   6.197
 5297POPC   C2B68492  29.541  22.659   6.526
 5297POPC   C3B68493  29.496  22.513   6.945
 5297POPC   C4B68494  29.534  22.778   7.296
 5298POPC   NC368495  15.436  25.293   5.321
 5298POPC   PO468496  15.089  24.880   5.571
 5298POPC   GL168497  15.217  25.189   5.867
 5298POPC   GL268498  15.175  25.540   5.726
 5298POPC   C1A68499  15.289  25.090   6.321
 5298POPC   D2A68500  15.128  25.268   6.707
 5298POPC   C3A68501  15.337  25.123   7.069
 5298POPC   C4A68502  15.150  24.933   7.455
 5298POPC   C1B68503  14.880  25.607   6.076
 5298POPC   C2B68504  14.723  25.521   6.496
 5298POPC   C3B68505  14.706  25.493   6.944
 5298POPC   C4B68506  14.980  25.429   7.292
 5299POPC   NC368507   4.565  43.557   5.429
 5299POPC   PO468508   5.244  43.620   5.480
 5299POPC   GL168509   5.129  43.746   5.877
 5299POPC   GL268510   4.795  43.866   5.844
 5299POPC   C1A68511   5.062  43.766   6.330
 5299POPC   D2A68512   5.042  43.885   6.765
 5299POPC   C3A68513   5.250  43.705   7.138
 5299POPC   C4A68514   5.166  43.750   7.600
 5299POPC   C1B68515   4.569  43.671   6.202
 5299POPC   C2B68516   4.654  43.533   6.657
 5299POPC   C3B68517   4.728  43.635   7.114
 5299POPC   C4B68518   4.655  43.618   7.584
 5300POPC   NC368519   1.372  19.457   5.491
 5300POPC   PO468520   1.307  18.775   5.375
 5300POPC   GL168521   1.246  19.056   5.779
 5300POPC   GL268522   0.968  19.209   5.967
 5300POPC   C1A68523   1.457  19.109   6.161
 5300POPC   D2A68524   1.464  18.914   6.551
 5300POPC   C3A68525   1.539  19.113   6.945
 5300POPC   C4A68526   1.567  19.383   7.279
 5300POPC   C1B68527   0.972  18.910   6.306
 5300POPC   C2B68528   0.932  18.914   6.755
 5300POPC   C3B68529   1.063  19.005   7.182
 5300POPC   C4B68530   1.159  18.746   7.551
 5301POPC   NC368531  28.890  15.141   5.253
 5301POPC   PO468532  29.250  15.673   5.134
 5301POPC   GL168533  29.209  15.451   5.619
 5301POPC   GL268534  28.871  15.292   5.757
 5301POPC   C1A68535  29.273  15.190   6.054
 5301POPC   D2A68536  29.379  15.362   6.473
 5301POPC   C3A68537  29.405  15.132   6.872
 5301POPC   C4A68538  29.333  15.117   7.339
 5301POPC   C1B68539  28.808  15.028   6.158
 5301POPC   C2B68540  29.043  14.921   6.555
 5301POPC   C3B68541  28.932  14.962   7.013
 5301POPC   C4B68542  28.747  14.662   7.321
 5302POPC   NC368543  37.061   6.666   5.405
 5302POPC   PO468544  36.620   7.069   5.669
 5302POPC   GL168545  36.991   6.851   5.877
 5302POPC   GL268546  37.107   6.464   5.867
 5302POPC   C1A68547  37.169   6.792   6.280
 5302POPC   D2A68548  36.936   6.929   6.657
 5302POPC   C3A68549  36.731   6.737   6.992
 5302POPC   C4A68550  36.817   7.021   7.326
 5302POPC   C1B68551  37.150   6.260   6.274
 5302POPC   C2B68552  37.165   6.452   6.674
 5302POPC   C3B68553  37.211   6.617   7.081
 5302POPC   C4B68554  37.316   6.375   7.434
 5303POPC   NC368555  13.243  20.853   5.361
 5303POPC   PO468556  13.674  20.398   5.380
 5303POPC   GL168557  13.528  20.541   5.774
 5303POPC   GL268558  13.253  20.355   5.890
 5303POPC   C1A68559  13.663  20.521   6.213
 5303POPC   D2A68560  13.899  20.702   6.589
 5303POPC   C3A68561  13.728  20.690   6.948
 5303POPC   C4A68562  13.846  20.667   7.338
 5303POPC   C1B68563  13.165  20.422   6.324
 5303POPC   C2B68564  13.418  20.358   6.705
 5303POPC   C3B68565  13.442  20.349   7.182
 5303POPC   C4B68566  13.155  20.296   7.588
 5304POPC   NC368567   4.441  28.498   5.501
 5304POPC   PO468568   4.528  27.821   5.680
 5304POPC   GL168569   4.291  28.155   5.865
 5304POPC   GL268570   3.964  28.129   5.700
 5304POPC   C1A68571   4.337  28.457   6.230
 5304POPC   D2A68572   4.585  28.559   6.603
 5304POPC   C3A68573   4.488  28.610   7.021
 5304POPC   C4A68574   4.510  28.238   7.263
 5304POPC   C1B68575   3.861  28.329   6.112
 5304POPC   C2B68576   3.843  28.453   6.537
 5304POPC   C3B68577   4.038  28.376   6.921
 5304POPC   C4B68578   4.086  28.497   7.351
 5305POPC   NC368579  27.352  16.819   5.045
 5305POPC   PO468580  27.866  16.316   5.293
 5305POPC   GL168581  27.854  16.337   5.740
 5305POPC   GL268582  27.580  16.568   5.802
 5305POPC   C1A68583  27.848  16.303   6.209
 5305POPC   D2A68584  28.014  16.614   6.513
 5305POPC   C3A68585  27.816  16.786   6.886
 5305POPC   C4A68586  27.960  16.751   7.292
 5305POPC   C1B68587  27.446  16.598   6.248
 5305POPC   C2B68588  27.513  16.405   6.671
 5305POPC   C3B68589  27.332  16.592   7.040
 5305POPC   C4B68590  27.444  16.861   7.401
 5306POPC   NC368591  36.490  11.320   5.134
 5306POPC   PO468592  37.052  11.082   5.420
 5306POPC   GL168593  37.046  11.273   5.831
 5306POPC   GL268594  36.754  11.349   5.798
 5306POPC   C1A68595  37.028  11.479   6.225
 5306POPC   D2A68596  37.221  11.278   6.600
 5306POPC   C3A68597  37.141  11.358   7.012
 5306POPC   C4A68598  37.220  11.152   7.423
 5306POPC   C1B68599  36.640  11.134   6.169
 5306POPC   C2B68600  36.692  11.282   6.549
 5306POPC   C3B68601  36.647  11.144   6.904
 5306POPC   C4B68602  36.434  11.162   7.261
 5307POPC   NC368603  41.825  33.020   5.159
 5307POPC   PO468604  41.339  32.725   5.658
 5307POPC   GL168605  41.473  32.781   6.025
 5307POPC   GL268606  41.541  33.121   5.936
 5307POPC   C1A68607  41.319  32.996   6.368
 5307POPC   D2A68608  41.277  33.056   6.758
 5307POPC   C3A68609  41.524  32.802   6.998
 5307POPC   C4A68610  41.816  32.699   7.311
 5307POPC   C1B68611  41.782  33.209   6.272
 5307POPC   C2B68612  41.726  33.284   6.680
 5307POPC   C3B68613  41.815  33.191   7.099
 5307POPC   C4B68614  41.594  33.144   7.477
 5308POPC   NC368615   0.646  37.044   5.517
 5308POPC   PO468616   0.476  36.449   5.307
 5308POPC   GL168617   0.412  36.569   5.772
 5308POPC   GL268618   0.060  36.466   5.874
 5308POPC   C1A68619   0.579  36.758   6.188
 5308POPC   D2A68620   0.676  37.090   6.506
 5308POPC   C3A68621   0.488  37.043   6.913
 5308POPC   C4A68622   0.636  36.769   7.224
 5308POPC   C1B68623   0.148  36.533   6.323
 5308POPC   C2B68624   0.415  36.552   6.691
 5308POPC   C3B68625   0.259  36.417   7.095
 5308POPC   C4B68626   0.272  36.476   7.536
 5309POPC   NC368627  18.469   8.574   5.164
 5309POPC   PO468628  17.960   8.127   5.044
 5309POPC   GL168629  18.116   8.150   5.537
 5309POPC   GL268630  18.477   8.094   5.686
 5309POPC   C1A68631  18.114   8.216   6.046
 5309POPC   D2A68632  18.132   7.977   6.469
 5309POPC   C3A68633  18.227   8.219   6.841
 5309POPC   C4A68634  18.075   8.232   7.248
 5309POPC   C1B68635  18.538   7.920   6.146
 5309POPC   C2B68636  18.687   7.867   6.626
 5309POPC   C3B68637  18.565   7.879   7.076
 5309POPC   C4B68638  18.163   7.723   7.157
 5310POPC   NC368639  19.614  12.781   5.356
 5310POPC   PO468640  20.141  13.061   5.541
 5310POPC   GL168641  19.965  12.736   5.810
 5310POPC   GL268642  19.616  12.608   5.825
 5310POPC   C1A68643  19.870  12.825   6.225
 5310POPC   D2A68644  20.148  12.832   6.546
 5310POPC   C3A68645  20.074  12.563   6.832
 5310POPC   C4A68646  20.039  12.789   7.193
 5310POPC   C1B68647  19.365  12.837   6.083
 5310POPC   C2B68648  19.447  13.048   6.454
 5310POPC   C3B68649  19.651  12.886   6.797
 5310POPC   C4B68650  19.572  13.015   7.187
 5311POPC   NC368651  35.678  20.531   5.323
 5311POPC   PO468652  36.275  20.544   5.242
 5311POPC   GL168653  36.088  20.506   5.681
 5311POPC   GL268654  36.053  20.171   5.878
 5311POPC   C1A68655  36.062  20.721   6.092
 5311POPC   D2A68656  36.361  20.838   6.442
 5311POPC   C3A68657  36.237  20.986   6.846
 5311POPC   C4A68658  36.359  20.810   7.267
 5311POPC   C1B68659  36.430  20.302   6.078
 5311POPC   C2B68660  36.594  20.377   6.489
 5311POPC   C3B68661  36.349  20.444   6.863
 5311POPC   C4B68662  36.203  20.157   7.155
 5312POPC   NC368663  15.452  10.237   5.621
 5312POPC   PO468664  15.028  10.681   5.161
 5312POPC   GL168665  15.037  10.562   5.620
 5312POPC   GL268666  15.252  10.771   5.838
 5312POPC   C1A68667  15.011  10.345   6.054
 5312POPC   D2A68668  15.339  10.312   6.404
 5312POPC   C3A68669  15.258  10.307   6.857
 5312POPC   C4A68670  15.248  10.489   7.258
 5312POPC   C1B68671  15.125  10.786   6.293
 5312POPC   C2B68672  15.239  10.801   6.721
 5312POPC   C3B68673  15.453  10.930   7.066
 5312POPC   C4B68674  15.346  11.240   7.349
 5313POPC   NC368675  21.702  17.782   5.148
 5313POPC   PO468676  22.346  17.796   5.411
 5313POPC   GL168677  22.327  17.612   5.805
 5313POPC   GL268678  22.319  17.245   5.744
 5313POPC   C1A68679  22.139  17.763   6.186
 5313POPC   D2A68680  21.837  17.642   6.490
 5313POPC   C3A68681  21.974  17.651   6.915
 5313POPC   C4A68682  22.334  17.721   7.141
 5313POPC   C1B68683  22.144  17.200   6.173
 5313POPC   C2B68684  22.275  17.018   6.579
 5313POPC   C3B68685  22.214  17.186   7.007
 5313POPC   C4B68686  22.131  17.062   7.442
 5314POPC   NC368687   2.829  22.266   5.173
 5314POPC   PO468688   3.254  21.925   5.624
 5314POPC   GL168689   2.854  22.195   5.716
 5314POPC   GL268690   2.486  22.100   5.628
 5314POPC   C1A68691   2.742  22.320   6.132
 5314POPC   D2A68692   2.866  22.117   6.526
 5314POPC   C3A68693   2.728  22.347   6.864
 5314POPC   C4A68694   2.855  22.632   7.159
 5314POPC   C1B68695   2.518  21.858   6.034
 5314POPC   C2B68696   2.598  21.667   6.473
 5314POPC   C3B68697   2.559  21.838   6.892
 5314POPC   C4B68698   2.725  22.005   7.256
 5315POPC   NC368699  41.205  43.060   5.648
 5315POPC   PO468700  41.817  42.847   5.677
 5315POPC   GL168701  41.565  42.993   6.001
 5315POPC   GL268702  41.225  42.813   6.082
 5315POPC   C1A68703  41.521  43.219   6.362
 5315POPC   D2A68704  41.251  43.308   6.701
 5315POPC   C3A68705  41.498  43.348   7.057
 5315POPC   C4A68706  41.280  43.323   7.387
 5315POPC   C1B68707  41.523  42.711   6.412
 5315POPC   C2B68708  41.606  42.911   6.788
 5315POPC   C3B68709  41.467  42.846   7.194
 5315POPC   C4B68710  41.744  42.618   7.462
 5316POPC   NC368711  24.933  33.205   5.018
 5316POPC   PO468712  25.278  32.993   5.578
 5316POPC   GL168713  25.324  33.295   5.856
 5316POPC   GL268714  25.018  33.301   5.973
 5316POPC   C1A68715  25.412  33.134   6.265
 5316POPC   D2A68716  25.259  32.922   6.627
 5316POPC   C3A68717  25.442  33.025   6.986
 5316POPC   C4A68718  25.643  32.891   7.305
 5316POPC   C1B68719  24.775  33.503   6.225
 5316POPC   C2B68720  24.987  33.402   6.597
 5316POPC   C3B68721  24.989  33.216   7.008
 5316POPC   C4B68722  24.769  33.274   7.412
 5317POPC   NC368723  23.132  40.867   5.393
 5317POPC   PO468724  22.713  40.403   5.441
 5317POPC   GL168725  22.840  40.672   5.824
 5317POPC   GL268726  23.224  40.661   5.871
 5317POPC   C1A68727  22.677  40.785   6.253
 5317POPC   D2A68728  22.684  40.582   6.658
 5317POPC   C3A68729  22.837  40.806   7.019
 5317POPC   C4A68730  22.831  40.727   7.466
 5317POPC   C1B68731  23.138  41.015   6.150
 5317POPC   C2B68732  23.085  41.088   6.590
 5317POPC   C3B68733  23.219  41.181   6.999
 5317POPC   C4B68734  23.304  40.826   7.260
 5318POPC   NC368735  25.670  40.840   5.654
 5318POPC   PO468736  26.325  40.635   5.497
 5318POPC   GL168737  26.103  40.651   5.907
 5318POPC   GL268738  25.779  40.594   6.075
 5318POPC   C1A68739  26.198  40.708   6.349
 5318POPC   D2A68740  26.474  40.861   6.670
 5318POPC   C3A68741  26.223  40.855   7.031
 5318POPC   C4A68742  25.874  40.633   7.166
 5318POPC   C1B68743  25.767  40.987   6.330
 5318POPC   C2B68744  25.807  41.082   6.791
 5318POPC   C3B68745  25.834  41.135   7.248
 5318POPC   C4B68746  25.711  40.938   7.642
 5319POPC   NC368747  12.693  10.723   5.363
 5319POPC   PO468748  13.283  10.497   5.404
 5319POPC   GL168749  12.964  10.472   5.769
 5319POPC   GL268750  12.707  10.697   5.883
 5319POPC   C1A68751  12.976  10.463   6.241
 5319POPC   D2A68752  12.655  10.435   6.594
 5319POPC   C3A68753  12.858  10.519   6.975
 5319POPC   C4A68754  13.246  10.397   7.113
 5319POPC   C1B68755  12.620  10.858   6.303
 5319POPC   C2B68756  12.393  11.052   6.616
 5319POPC   C3B68757  12.414  10.775   6.909
 5319POPC   C4B68758  12.553  10.764   7.331
 5320POPC   NC368759  33.308  27.997   5.480
 5320POPC   PO468760  32.949  28.530   5.205
 5320POPC   GL168761  33.025  28.372   5.659
 5320POPC   GL268762  32.760  28.192   5.855
 5320POPC   C1A68763  33.170  28.378   6.129
 5320POPC   D2A68764  33.115  28.576   6.547
 5320POPC   C3A68765  32.954  28.429   6.921
 5320POPC   C4A68766  33.033  28.433   7.353
 5320POPC   C1B68767  32.707  28.217   6.329
 5320POPC   C2B68768  32.589  28.108   6.768
 5320POPC   C3B68769  32.649  28.123   7.241
 5320POPC   C4B68770  32.847  28.118   7.703
 5321POPC   NC368771  35.003  10.666   5.430
 5321POPC   PO468772  35.184  10.073   5.373
 5321POPC   GL168773  35.263  10.325   5.748
 5321POPC   GL268774  35.372  10.682   5.800
 5321POPC   C1A68775  35.429  10.318   6.175
 5321POPC   D2A68776  35.506  10.648   6.486
 5321POPC   C3A68777  35.582  10.470   6.867
 5321POPC   C4A68778  35.326  10.252   7.161
 5321POPC   C1B68779  35.068  10.682   6.174
 5321POPC   C2B68780  35.058  10.854   6.629
 5321POPC   C3B68781  35.113  10.750   7.093
 5321POPC   C4B68782  35.205  10.615   7.521
 5322POPC   NC368783  18.100  12.293   5.460
 5322POPC   PO468784  17.792  11.669   5.748
 5322POPC   GL168785  18.144  11.905   5.974
 5322POPC   GL268786  18.382  12.183   5.887
 5322POPC   C1A68787  18.476  11.907   6.310
 5322POPC   D2A68788  18.503  11.791   6.746
 5322POPC   C3A68789  18.322  12.098   7.030
 5322POPC   C4A68790  18.041  12.121   7.429
 5322POPC   C1B68791  18.328  12.487   6.248
 5322POPC   C2B68792  18.298  12.642   6.705
 5322POPC   C3B68793  18.288  12.585   7.177
 5322POPC   C4B68794  18.511  12.305   7.455
 5323POPC   NC368795   2.984  30.375   5.580
 5323POPC   PO468796   2.630  29.682   5.537
 5323POPC   GL168797   2.868  29.669   5.915
 5323POPC   GL268798   2.915  30.018   5.932
 5323POPC   C1A68799   2.956  29.707   6.365
 5323POPC   D2A68800   2.905  30.079   6.665
 5323POPC   C3A68801   2.876  29.939   7.115
 5323POPC   C4A68802   2.896  29.509   7.324
 5323POPC   C1B68803   2.565  30.005   6.193
 5323POPC   C2B68804   2.402  30.188   6.536
 5323POPC   C3B68805   2.402  30.108   6.957
 5323POPC   C4B68806   2.418  29.812   7.289
 5324POPC   NC368807   2.260  38.832   5.625
 5324POPC   PO468808   1.963  39.396   5.435
 5324POPC   GL168809   1.903  39.149   5.793
 5324POPC   GL268810   1.954  39.401   5.979
 5324POPC   C1A68811   1.771  38.975   6.220
 5324POPC   D2A68812   1.670  39.156   6.631
 5324POPC   C3A68813   1.893  39.090   6.994
 5324POPC   C4A68814   1.894  39.279   7.341
 5324POPC   C1B68815   2.241  39.193   6.196
 5324POPC   C2B68816   2.187  39.114   6.568
 5324POPC   C3B68817   2.387  39.205   6.894
 5324POPC   C4B68818   2.366  39.084   7.311
 5325POPC   NC368819  33.493   8.415   5.161
 5325POPC   PO468820  33.972   8.044   5.414
 5325POPC   GL168821  33.800   8.181   5.816
 5325POPC   GL268822  33.970   8.485   5.880
 5325POPC   C1A68823  33.702   7.928   6.208
 5325POPC   D2A68824  33.625   8.025   6.652
 5325POPC   C3A68825  33.975   7.985   6.937
 5325POPC   C4A68826  34.072   8.323   7.244
 5325POPC   C1B68827  33.727   8.451   6.264
 5325POPC   C2B68828  33.424   8.511   6.586
 5325POPC   C3B68829  33.627   8.468   6.989
 5325POPC   C4B68830  33.572   8.401   7.438
 5326POPC   NC368831  28.112  32.396   5.751
 5326POPC   PO468832  27.578  31.976   5.523
 5326POPC   GL168833  27.547  32.288   5.843
 5326POPC   GL268834  27.796  32.098   6.012
 5326POPC   C1A68835  27.622  32.493   6.255
 5326POPC   D2A68836  27.892  32.314   6.596
 5326POPC   C3A68837  27.760  32.425   7.000
 5326POPC   C4A68838  27.611  32.805   7.155
 5326POPC   C1B68839  27.474  31.951   6.249
 5326POPC   C2B68840  27.396  32.185   6.603
 5326POPC   C3B68841  27.542  31.969   6.922
 5326POPC   C4B68842  27.433  31.897   7.295
 5327POPC   NC368843  14.902  27.172   5.405
 5327POPC   PO468844  14.802  26.484   5.312
 5327POPC   GL168845  15.127  26.585   5.628
 5327POPC   GL268846  15.044  26.899   5.803
 5327POPC   C1A68847  15.230  26.467   6.052
 5327POPC   D2A68848  15.125  26.281   6.466
 5327POPC   C3A68849  15.271  26.484   6.833
 5327POPC   C4A68850  15.259  26.622   7.251
 5327POPC   C1B68851  15.149  26.967   6.229
 5327POPC   C2B68852  15.009  26.882   6.655
 5327POPC   C3B68853  15.002  27.037   7.089
 5327POPC   C4B68854  15.269  27.148   7.438
 5328POPC   NC368855  23.849  35.265   5.350
 5328POPC   PO468856  23.265  35.490   5.466
 5328POPC   GL168857  23.604  35.581   5.755
 5328POPC   GL268858  23.752  35.260   5.861
 5328POPC   C1A68859  23.649  35.666   6.194
 5328POPC   D2A68860  23.381  35.626   6.580
 5328POPC   C3A68861  23.591  35.686   6.981
 5328POPC   C4A68862  23.575  35.526   7.400
 5328POPC   C1B68863  24.026  35.312   6.202
 5328POPC   C2B68864  23.958  35.483   6.586
 5328POPC   C3B68865  23.876  35.274   6.924
 5328POPC   C4B68866  23.774  35.091   7.331
 5329POPC   NC368867   4.360  13.242   5.511
 5329POPC   PO468868   4.501  13.831   5.347
 5329POPC   GL168869   4.480  13.711   5.778
 5329POPC   GL268870   4.168  13.568   5.844
 5329POPC   C1A68871   4.523  13.613   6.222
 5329POPC   D2A68872   4.737  13.731   6.584
 5329POPC   C3A68873   4.565  13.639   6.936
 5329POPC   C4A68874   4.513  13.537   7.321
 5329POPC   C1B68875   4.023  13.754   6.202
 5329POPC   C2B68876   4.157  13.662   6.629
 5329POPC   C3B68877   4.098  13.401   7.010
 5329POPC   C4B68878   3.770  13.208   7.259
 5330POPC   NC368879  42.899  28.173   5.560
 5330POPC   PO468880  43.531  28.410   5.461
 5330POPC   GL168881  43.334  28.322   5.838
 5330POPC   GL268882  43.089  28.590   5.834
 5330POPC   C1A68883  43.032  28.196   6.171
 5330POPC   D2A68884  42.851  28.364   6.495
 5330POPC   C3A68885  43.108  28.335   6.827
 5330POPC   C4A68886  43.100  28.353   7.264
 5330POPC   C1B68887  43.258  28.648   6.249
 5330POPC   C2B68888  43.101  28.824   6.624
 5330POPC   C3B68889  43.297  28.766   7.023
 5330POPC   C4B68890  43.398  28.736   7.464
 5331POPC   NC368891  12.648  11.455   5.127
 5331POPC   PO468892  12.610  11.964   5.629
 5331POPC   GL168893  12.773  11.736   6.003
 5331POPC   GL268894  13.093  11.540   5.973
 5331POPC   C1A68895  12.591  11.794   6.388
 5331POPC   D2A68896  12.379  12.069   6.670
 5331POPC   C3A68897  12.670  12.370   6.863
 5331POPC   C4A68898  12.955  12.308   7.207
 5331POPC   C1B68899  13.105  11.784   6.390
 5331POPC   C2B68900  12.907  11.897   6.802
 5331POPC   C3B68901  13.134  11.818   7.167
 5331POPC   C4B68902  13.548  11.947   7.287
 5332POPC   NC368903  26.556   7.901   5.479
 5332POPC   PO468904  26.949   8.427   5.375
 5332POPC   GL168905  26.825   8.305   5.769
 5332POPC   GL268906  26.849   8.657   5.885
 5332POPC   C1A68907  26.869   7.970   6.139
 5332POPC   D2A68908  26.838   7.743   6.567
 5332POPC   C3A68909  26.785   7.961   6.973
 5332POPC   C4A68910  27.009   8.182   7.281
 5332POPC   C1B68911  26.662   8.423   6.224
 5332POPC   C2B68912  26.769   8.296   6.599
 5332POPC   C3B68913  26.740   8.512   6.994
 5332POPC   C4B68914  26.422   8.427   7.268
 5333POPC   NC368915  30.688   8.243   5.426
 5333POPC   PO468916  31.163   7.803   5.471
 5333POPC   GL168917  30.826   7.913   5.802
 5333POPC   GL268918  30.445   7.841   5.713
 5333POPC   C1A68919  30.868   8.269   6.134
 5333POPC   D2A68920  30.802   8.530   6.524
 5333POPC   C3A68921  30.733   8.326   6.918
 5333POPC   C4A68922  30.841   8.360   7.350
 5333POPC   C1B68923  30.381   8.170   6.054
 5333POPC   C2B68924  30.502   8.107   6.489
 5333POPC   C3B68925  30.256   8.133   6.864
 5333POPC   C4B68926  30.377   8.175   7.259
 5334POPC   NC368927  30.116   5.729   5.343
 5334POPC   PO468928  29.552   5.993   5.239
 5334POPC   GL168929  29.708   6.102   5.679
 5334POPC   GL268930  29.557   5.860   5.928
 5334POPC   C1A68931  30.017   6.064   6.017
 5334POPC   D2A68932  30.021   5.762   6.376
 5334POPC   C3A68933  29.933   5.931   6.794
 5334POPC   C4A68934  29.866   5.808   7.234
 5334POPC   C1B68935  29.588   6.111   6.337
 5334POPC   C2B68936  29.480   6.208   6.786
 5334POPC   C3B68937  29.562   6.244   7.235
 5334POPC   C4B68938  29.502   6.410   7.686
 5335POPC   NC368939  14.889  29.961   5.587
 5335POPC   PO468940  15.545  29.693   5.493
 5335POPC   GL168941  15.398  29.884   5.845
 5335POPC   GL268942  15.160  29.650   5.903
 5335POPC   C1A68943  15.292  30.064   6.246
 5335POPC   D2A68944  15.205  29.832   6.633
 5335POPC   C3A68945  15.299  29.743   7.069
 5335POPC   C4A68946  15.108  30.096   7.241
 5335POPC   C1B68947  14.872  29.763   6.221
 5335POPC   C2B68948  14.711  29.764   6.653
 5335POPC   C3B68949  14.786  29.689   7.079
 5335POPC   C4B68950  14.966  29.649   7.494
 5336POPC   NC368951  34.679  25.163   5.361
 5336POPC   PO468952  34.020  25.012   5.575
 5336POPC   GL168953  34.411  25.157   5.823
 5336POPC   GL268954  34.679  25.427   5.799
 5336POPC   C1A68955  34.569  25.082   6.244
 5336POPC   D2A68956  34.295  25.005   6.608
 5336POPC   C3A68957  34.438  25.198   6.975
 5336POPC   C4A68958  34.700  25.127   7.304
 5336POPC   C1B68959  34.935  25.442   6.178
 5336POPC   C2B68960  34.778  25.417   6.584
 5336POPC   C3B68961  34.849  25.512   6.974
 5336POPC   C4B68962  34.782  25.666   7.336
 5337POPC   NC368963  30.448  33.612   5.420
 5337POPC   PO468964  30.506  34.285   5.160
 5337POPC   GL168965  30.761  34.032   5.581
 5337POPC   GL268966  30.620  33.802   5.847
 5337POPC   C1A68967  30.948  34.086   6.070
 5337POPC   D2A68968  30.768  33.900   6.470
 5337POPC   C3A68969  30.991  33.850   6.831
 5337POPC   C4A68970  30.996  34.152   7.152
 5337POPC   C1B68971  30.780  33.511   6.177
 5337POPC   C2B68972  30.882  33.323   6.596
 5337POPC   C3B68973  30.682  33.357   6.984
 5337POPC   C4B68974  30.750  33.712   7.281
 5338POPC   NC368975  11.774  34.763   5.242
 5338POPC   PO468976  12.254  34.362   5.201
 5338POPC   GL168977  12.325  34.383   5.661
 5338POPC   GL268978  12.234  34.731   5.715
 5338POPC   C1A68979  12.462  34.506   6.119
 5338POPC   D2A68980  12.643  34.510   6.548
 5338POPC   C3A68981  12.423  34.537   6.966
 5338POPC   C4A68982  12.167  34.287   7.215
 5338POPC   C1B68983  11.954  34.507   6.000
 5338POPC   C2B68984  11.818  34.473   6.424
 5338POPC   C3B68985  11.867  34.568   6.859
 5338POPC   C4B68986  11.666  34.406   7.229
 5339POPC   NC368987  16.058   3.159   5.378
 5339POPC   PO468988  15.770   2.551   5.522
 5339POPC   GL168989  15.908   2.556   5.890
 5339POPC   GL268990  16.137   2.831   5.816
 5339POPC   C1A68991  15.745   2.718   6.271
 5339POPC   D2A68992  15.596   2.923   6.640
 5339POPC   C3A68993  15.713   2.711   7.016
 5339POPC   C4A68994  15.716   2.389   7.318
 5339POPC   C1B68995  16.249   2.655   6.245
 5339POPC   C2B68996  16.100   2.700   6.674
 5339POPC   C3B68997  16.207   2.566   7.048
 5339POPC   C4B68998  16.175   2.858   7.325
 5340POPC   NC368999   9.552  32.165   5.112
 5340POPC   PO469000   9.892  32.493   5.632
 5340POPC   GL169001   9.874  32.410   6.043
 5340POPC   GL269002   9.892  32.074   5.978
 5340POPC   C1A69003   9.553  32.326   6.370
 5340POPC   D2A69004   9.386  32.403   6.801
 5340POPC   C3A69005   9.753  32.421   7.096
 5340POPC   C4A69006   9.831  32.456   7.554
 5340POPC   C1B69007   9.667  31.824   6.244
 5340POPC   C2B69008   9.754  31.790   6.669
 5340POPC   C3B69009   9.619  31.867   7.072
 5340POPC   C4B69010   9.740  31.973   7.483
 5341POPC   NC369011  18.029  21.491   5.418
 5341POPC   PO469012  18.652  21.366   5.401
 5341POPC   GL169013  18.422  21.387   5.784
 5341POPC   GL269014  18.156  21.121   5.757
 5341POPC   C1A69015  18.492  21.541   6.212
 5341POPC   D2A69016  18.367  21.702   6.624
 5341POPC   C3A69017  18.549  21.553   7.000
 5341POPC   C4A69018  18.230  21.531   7.312
 5341POPC   C1B69019  18.176  21.136   6.208
 5341POPC   C2B69020  18.414  21.179   6.592
 5341POPC   C3B69021  18.210  21.156   6.971
 5341POPC   C4B69022  18.090  21.021   7.430
 5342POPC   NC369023  20.083  11.123   5.463
 5342POPC   PO469024  19.939  11.670   5.812
 5342POPC   GL169025  19.949  11.256   5.960
 5342POPC   GL269026  19.651  11.102   5.794
 5342POPC   C1A69027  20.011  11.225   6.421
 5342POPC   D2A69028  20.042  11.451   6.837
 5342POPC   C3A69029  19.952  11.153   7.175
 5342POPC   C4A69030  19.982  10.934   7.588
 5342POPC   C1B69031  19.509  11.185   6.233
 5342POPC   C2B69032  19.491  11.322   6.690
 5342POPC   C3B69033  19.597  11.524   7.100
 5342POPC   C4B69034  19.326  11.495   7.459
 5343POPC   NC369035  33.467   1.168   5.427
 5343POPC   PO469036  34.195   1.122   5.284
 5343POPC   GL169037  33.932   1.172   5.695
 5343POPC   GL269038  33.657   1.442   5.811
 5343POPC   C1A69039  33.780   0.886   6.037
 5343POPC   D2A69040  33.860   0.844   6.494
 5343POPC   C3A69041  34.030   1.193   6.730
 5343POPC   C4A69042  34.047   1.210   7.160
 5343POPC   C1B69043  33.771   1.347   6.261
 5343POPC   C2B69044  33.755   1.603   6.617
 5343POPC   C3B69045  33.874   1.652   7.034
 5343POPC   C4B69046  33.910   1.614   7.512
 5344POPC   NC369047  27.872  30.025   5.430
 5344POPC   PO469048  27.331  29.664   5.180
 5344POPC   GL169049  27.340  29.887   5.695
 5344POPC   GL269050  27.698  29.951   5.896
 5344POPC   C1A69051  27.349  30.059   6.213
 5344POPC   D2A69052  27.647  30.056   6.608
 5344POPC   C3A69053  27.491  29.920   7.044
 5344POPC   C4A69054  27.170  29.982   7.382
 5344POPC   C1B69055  27.984  29.812   6.230
 5344POPC   C2B69056  28.146  29.876   6.659
 5344POPC   C3B69057  28.001  30.041   7.054
 5344POPC   C4B69058  27.922  30.047   7.507
 5345POPC   NC369059  34.234  16.230   5.583
 5345POPC   PO469060  33.716  15.843   5.318
 5345POPC   GL169061  33.685  15.694   5.733
 5345POPC   GL269062  34.062  15.771   5.801
 5345POPC   C1A69063  33.567  15.891   6.154
 5345POPC   D2A69064  33.791  15.921   6.555
 5345POPC   C3A69065  33.648  15.987   6.951
 5345POPC   C4A69066  33.480  15.760   7.280
 5345POPC   C1B69067  34.182  15.906   6.242
 5345POPC   C2B69068  34.288  15.895   6.732
 5345POPC   C3B69069  34.102  15.924   7.189
 5345POPC   C4B69070  34.161  15.803   7.659
 5346POPC   NC369071   8.572   6.062   5.483
 5346POPC   PO469072   9.102   5.725   5.447
 5346POPC   GL169073   9.105   5.922   5.851
 5346POPC   GL269074   9.319   6.210   5.739
 5346POPC   C1A69075   8.856   6.011   6.262
 5346POPC   D2A69076   8.677   5.841   6.661
 5346POPC   C3A69077   8.934   5.803   7.037
 5346POPC   C4A69078   9.330   5.608   7.149
 5346POPC   C1B69079   9.328   6.257   6.184
 5346POPC   C2B69080   9.304   5.956   6.526
 5346POPC   C3B69081   9.336   6.080   6.928
 5346POPC   C4B69082   9.067   6.306   7.133
 5347POPC   NC369083  19.116  13.692   5.306
 5347POPC   PO469084  18.588  13.327   5.381
 5347POPC   GL169085  18.928  13.416   5.735
 5347POPC   GL269086  19.099  13.768   5.797
 5347POPC   C1A69087  19.296  13.342   6.049
 5347POPC   D2A69088  19.421  13.566   6.499
 5347POPC   C3A69089  19.358  13.441   6.964
 5347POPC   C4A69090  19.314  13.351   7.462
 5347POPC   C1B69091  18.996  13.689   6.209
 5347POPC   C2B69092  18.957  13.892   6.563
 5347POPC   C3B69093  19.121  13.899   6.950
 5347POPC   C4B69094  18.936  13.633   7.228
 5348POPC   NC369095   4.107  31.730   5.376
 5348POPC   PO469096   4.160  31.096   5.362
 5348POPC   GL169097   4.124  31.151   5.802
 5348POPC   GL269098   4.114  31.510   5.892
 5348POPC   C1A69099   4.164  31.120   6.259
 5348POPC   D2A69100   3.957  31.255   6.647
 5348POPC   C3A69101   4.205  31.274   7.036
 5348POPC   C4A69102   4.081  31.241   7.482
 5348POPC   C1B69103   4.350  31.607   6.314
 5348POPC   C2B69104   4.596  31.759   6.701
 5348POPC   C3B69105   4.673  31.787   7.179
 5348POPC   C4B69106   4.794  31.680   7.636
 5349POPC   NC369107  10.336  29.290   5.357
 5349POPC   PO469108  10.808  28.884   5.458
 5349POPC   GL169109  10.729  29.222   5.716
 5349POPC   GL269110  10.493  29.058   5.907
 5349POPC   C1A69111  10.804  29.436   6.069
 5349POPC   D2A69112  10.985  29.346   6.489
 5349POPC   C3A69113  10.742  29.467   6.791
 5349POPC   C4A69114  10.569  29.309   7.129
 5349POPC   C1B69115  10.493  29.160   6.371
 5349POPC   C2B69116  10.274  29.142   6.761
 5349POPC   C3B69117  10.008  28.963   7.079
 5349POPC   C4B69118  10.071  28.716   7.488
 5350POPC   NC369119  20.573  16.659   5.316
 5350POPC   PO469120  21.201  16.490   5.559
 5350POPC   GL169121  20.879  16.697   5.844
 5350POPC   GL269122  20.496  16.615   5.806
 5350POPC   C1A69123  20.665  16.858   6.238
 5350POPC   D2A69124  20.407  16.688   6.596
 5350POPC   C3A69125  20.282  16.889   6.998
 5350POPC   C4A69126  20.540  16.990   7.407
 5350POPC   C1B69127  20.555  16.355   6.141
 5350POPC   C2B69128  20.445  16.185   6.505
 5350POPC   C3B69129  20.679  16.268   6.849
 5350POPC   C4B69130  20.612  16.549   7.158
 5351POPC   NC369131  41.930  14.350   5.292
 5351POPC   PO469132  42.524  14.204   5.147
 5351POPC   GL169133  42.387  14.334   5.644
 5351POPC   GL269134  42.100  14.482   5.786
 5351POPC   C1A69135  42.299  14.198   6.137
 5351POPC   D2A69136  42.206  14.392   6.551
 5351POPC   C3A69137  42.236  14.201   6.941
 5351POPC   C4A69138  42.511  14.139   7.245
 5351POPC   C1B69139  42.037  14.704   6.181
 5351POPC   C2B69140  41.863  14.772   6.614
 5351POPC   C3B69141  42.073  14.699   7.007
 5351POPC   C4B69142  42.527  14.613   7.032
 5352POPC   NC369143  17.868  30.470   5.300
 5352POPC   PO469144  17.312  30.919   5.235
 5352POPC   GL169145  17.438  30.605   5.570
 5352POPC   GL269146  17.710  30.769   5.705
 5352POPC   C1A69147  17.437  30.481   6.050
 5352POPC   D2A69148  17.293  30.687   6.457
 5352POPC   C3A69149  17.457  30.590   6.886
 5352POPC   C4A69150  17.552  30.672   7.315
 5352POPC   C1B69151  17.623  30.957   6.107
 5352POPC   C2B69152  17.748  30.896   6.535
 5352POPC   C3B69153  17.690  31.060   6.940
 5352POPC   C4B69154  17.905  31.063   7.332
 5353POPC   NC369155  12.127  12.308   5.174
 5353POPC   PO469156  12.220  11.638   5.297
 5353POPC   GL169157  12.054  11.700   5.757
 5353POPC   GL269158  11.743  11.908   5.844
 5353POPC   C1A69159  12.034  11.814   6.239
 5353POPC   D2A69160  11.814  11.884   6.674
 5353POPC   C3A69161  12.057  12.025   7.058
 5353POPC   C4A69162  12.507  12.010   7.189
 5353POPC   C1B69163  11.706  12.222   6.232
 5353POPC   C2B69164  11.919  12.386   6.642
 5353POPC   C3B69165  11.801  12.459   7.081
 5353POPC   C4B69166  11.763  12.458   7.541
 5354POPC   NC369167  17.063  38.297   5.490
 5354POPC   PO469168  16.660  38.809   5.320
 5354POPC   GL169169  16.805  38.682   5.785
 5354POPC   GL269170  16.901  38.345   5.948
 5354POPC   C1A69171  16.575  38.579   6.230
 5354POPC   D2A69172  16.439  38.383   6.583
 5354POPC   C3A69173  16.621  38.391   6.994
 5354POPC   C4A69174  16.508  38.130   7.350
 5354POPC   C1B69175  17.083  38.640   6.234
 5354POPC   C2B69176  17.010  38.546   6.683
 5354POPC   C3B69177  17.105  38.361   7.110
 5354POPC   C4B69178  17.289  38.431   7.495
 5355POPC   NC369179  27.995  33.898   5.390
 5355POPC   PO469180  28.578  33.579   5.457
 5355POPC   GL169181  28.384  33.724   5.822
 5355POPC   GL269182  28.047  33.918   5.899
 5355POPC   C1A69183  28.483  33.899   6.216
 5355POPC   D2A69184  28.254  34.039   6.574
 5355POPC   C3A69185  28.534  34.032   6.916
 5355POPC   C4A69186  28.542  33.764   7.280
 5355POPC   C1B69187  28.060  33.562   6.198
 5355POPC   C2B69188  28.146  33.539   6.649
 5355POPC   C3B69189  28.070  33.747   7.076
 5355POPC   C4B69190  28.120  33.635   7.553
 5356POPC   NC369191  13.174  23.888   5.396
 5356POPC   PO469192  12.970  23.222   5.342
 5356POPC   GL169193  12.896  23.514   5.644
 5356POPC   GL269194  13.177  23.410   5.776
 5356POPC   C1A69195  12.926  23.792   6.042
 5356POPC   D2A69196  12.955  23.696   6.509
 5356POPC   C3A69197  12.939  23.970   6.887
 5356POPC   C4A69198  12.599  24.021   7.200
 5356POPC   C1B69199  12.991  23.295   6.142
 5356POPC   C2B69200  13.134  23.213   6.521
 5356POPC   C3B69201  13.173  23.408   6.886
 5356POPC   C4B69202  12.901  23.558   7.208
 5357POPC   NC369203   8.531  22.617   5.456
 5357POPC   PO469204   7.919  22.872   5.526
 5357POPC   GL169205   8.247  22.952   5.811
 5357POPC   GL269206   7.983  23.165   5.972
 5357POPC   C1A69207   8.389  22.784   6.214
 5357POPC   D2A69208   8.028  22.745   6.502
 5357POPC   C3A69209   8.058  22.827   6.946
 5357POPC   C4A69210   8.045  22.571   7.314
 5357POPC   C1B69211   8.310  23.301   6.231
 5357POPC   C2B69212   8.373  23.155   6.644
 5357POPC   C3B69213   8.533  23.125   7.041
 5357POPC   C4B69214   8.454  22.834   7.327
 5358POPC   NC369215  24.818  33.209   5.534
 5358POPC   PO469216  24.247  32.874   5.339
 5358POPC   GL169217  24.394  33.042   5.763
 5358POPC   GL269218  24.742  32.883   5.894
 5358POPC   C1A69219  24.445  33.108   6.215
 5358POPC   D2A69220  24.403  32.823   6.558
 5358POPC   C3A69221  24.483  33.108   6.903
 5358POPC   C4A69222  24.291  33.360   7.211
 5358POPC   C1B69223  24.871  32.765   6.318
 5358POPC   C2B69224  24.828  32.676   6.792
 5358POPC   C3B69225  24.773  32.805   7.209
 5358POPC   C4B69226  24.909  32.822   7.624
 5359POPC   NC369227  11.624  44.715   5.676
 5359POPC   PO469228  11.016  44.929   5.393
 5359POPC   GL169229  11.027  44.738   5.780
 5359POPC   GL269230  11.086  44.393   5.713
 5359POPC   C1A69231  11.150  44.695   6.209
 5359POPC   D2A69232  11.476  44.773   6.505
 5359POPC   C3A69233  11.334  44.788   6.923
 5359POPC   C4A69234  11.552  44.587   7.263
 5359POPC   C1B69235  10.792  44.340   6.064
 5359POPC   C2B69236  10.800  44.451   6.524
 5359POPC   C3B69237  10.911  44.488   6.965
 5359POPC   C4B69238  11.105  44.407   7.373
 5360POPC   NC369239   4.940   2.879   5.438
 5360POPC   PO469240   5.618   2.983   5.613
 5360POPC   GL169241   5.220   2.772   5.857
 5360POPC   GL269242   4.851   2.906   5.931
 5360POPC   C1A69243   5.132   2.503   6.224
 5360POPC   D2A69244   5.339   2.527   6.638
 5360POPC   C3A69245   5.211   2.777   6.990
 5360POPC   C4A69246   5.218   2.652   7.413
 5360POPC   C1B69247   4.866   2.921   6.390
 5360POPC   C2B69248   4.719   2.791   6.802
 5360POPC   C3B69249   4.701   2.670   7.238
 5360POPC   C4B69250   4.818   2.758   7.694
 5361POPC   NC369251  38.693  44.513   5.564
 5361POPC   PO469252  38.435  43.842   5.540
 5361POPC   GL169253  38.479  43.936   5.946
 5361POPC   GL269254  38.296  44.247   5.905
 5361POPC   C1A69255  38.502  44.046   6.378
 5361POPC   D2A69256  38.542  44.346   6.718
 5361POPC   C3A69257  38.645  44.175   7.095
 5361POPC   C4A69258  38.488  43.757   7.091
 5361POPC   C1B69259  38.039  44.258   6.274
 5361POPC   C2B69260  38.095  44.057   6.691
 5361POPC   C3B69261  38.096  44.191   7.113
 5361POPC   C4B69262  38.321  44.254   7.496
 5362POPC   NC369263  23.488  30.208   5.170
 5362POPC   PO469264  23.989  29.826   5.154
 5362POPC   GL169265  23.744  30.012   5.576
 5362POPC   GL269266  23.705  29.687   5.732
 5362POPC   C1A69267  23.552  30.086   6.045
 5362POPC   D2A69268  23.366  30.035   6.485
 5362POPC   C3A69269  23.606  29.971   6.874
 5362POPC   C4A69270  23.524  29.940   7.317
 5362POPC   C1B69271  23.654  29.588   6.164
 5362POPC   C2B69272  23.477  29.531   6.581
 5362POPC   C3B69273  23.639  29.385   6.980
 5362POPC   C4B69274  23.794  29.495   7.396
 5363POPC   NC369275   2.454  20.457   5.563
 5363POPC   PO469276   2.924  21.012   5.385
 5363POPC   GL169277   2.873  20.740   5.757
 5363POPC   GL269278   2.937  20.348   5.725
 5363POPC   C1A69279   2.720  20.674   6.184
 5363POPC   D2A69280   2.887  20.837   6.575
 5363POPC   C3A69281   2.714  20.917   6.995
 5363POPC   C4A69282   2.900  20.796   7.381
 5363POPC   C1B69283   2.746  20.151   6.112
 5363POPC   C2B69284   2.877  20.180   6.547
 5363POPC   C3B69285   2.904  20.420   6.942
 5363POPC   C4B69286   2.575  20.394   7.217
 5364POPC   NC369287  10.219  13.825   5.324
 5364POPC   PO469288  10.789  13.439   5.428
 5364POPC   GL169289  10.442  13.575   5.718
 5364POPC   GL269290  10.726  13.653   5.927
 5364POPC   C1A69291  10.320  13.464   6.156
 5364POPC   D2A69292  10.415  13.758   6.486
 5364POPC   C3A69293  10.500  13.654   6.875
 5364POPC   C4A69294  10.227  13.568   7.210
 5364POPC   C1B69295  10.846  14.016   6.168
 5364POPC   C2B69296  10.790  14.155   6.585
 5364POPC   C3B69297  10.901  13.986   6.983
 5364POPC   C4B69298  10.629  13.901   7.297
 5365POPC   NC369299  10.248  18.605   5.399
 5365POPC   PO469300  10.671  18.051   5.388
 5365POPC   GL169301  10.761  18.392   5.684
 5365POPC   GL269302  10.460  18.502   5.836
 5365POPC   C1A69303  10.812  18.389   6.167
 5365POPC   D2A69304  10.603  18.338   6.586
 5365POPC   C3A69305  10.773  18.367   7.021
 5365POPC   C4A69306  10.798  18.079   7.307
 5365POPC   C1B69307  10.289  18.232   6.175
 5365POPC   C2B69308  10.092  18.320   6.589
 5365POPC   C3B69309  10.246  18.287   7.021
 5365POPC   C4B69310  10.338  18.132   7.458
 5366POPC   NC369311  33.415  19.492   5.418
 5366POPC   PO469312  33.924  20.009   5.488
 5366POPC   GL169313  33.696  19.876   5.806
 5366POPC   GL269314  33.646  19.557   5.865
 5366POPC   C1A69315  33.847  19.863   6.234
 5366POPC   D2A69316  34.111  20.181   6.422
 5366POPC   C3A69317  34.121  20.192   6.874
 5366POPC   C4A69318  33.903  19.855   7.079
 5366POPC   C1B69319  33.537  19.410   6.291
 5366POPC   C2B69320  33.669  19.465   6.751
 5366POPC   C3B69321  33.653  19.436   7.226
 5366POPC   C4B69322  33.450  19.440   7.658
 5367POPC   NC369323  27.765  27.010   5.093
 5367POPC   PO469324  27.589  26.437   5.367
 5367POPC   GL169325  27.574  26.781   5.714
 5367POPC   GL269326  27.879  26.978   5.658
 5367POPC   C1A69327  27.465  26.712   6.195
 5367POPC   D2A69328  27.565  26.419   6.566
 5367POPC   C3A69329  27.424  26.525   6.976
 5367POPC   C4A69330  27.204  26.224   7.192
 5367POPC   C1B69331  27.941  26.840   6.081
 5367POPC   C2B69332  27.927  26.803   6.501
 5367POPC   C3B69333  27.941  26.642   6.911
 5367POPC   C4B69334  27.758  26.825   7.279
 5368POPC   NC369335  12.259  44.814   5.359
 5368POPC   PO469336  11.768  44.414   5.355
 5368POPC   GL169337  12.078  44.500   5.766
 5368POPC   GL269338  12.104  44.848   5.864
 5368POPC   C1A69339  12.232  44.555   6.258
 5368POPC   D2A69340  12.470  44.790   6.637
 5368POPC   C3A69341  12.289  44.762   7.063
 5368POPC   C4A69342  12.036  44.423   7.262
 5368POPC   C1B69343  11.897  44.942   6.247
 5368POPC   C2B69344  12.018   0.027   6.647
 5368POPC   C3B69345  11.819  44.963   7.019
 5368POPC   C4B69346  11.921  44.897   7.448
 5369POPC   NC369347  11.758  22.982   5.455
 5369POPC   PO469348  11.160  23.168   5.631
 5369POPC   GL169349  11.455  23.061   5.860
 5369POPC   GL269350  11.480  22.747   5.825
 5369POPC   C1A69351  11.495  23.213   6.225
 5369POPC   D2A69352  11.190  23.289   6.540
 5369POPC   C3A69353  11.336  23.165   6.938
 5369POPC   C4A69354  11.146  23.130   7.322
 5369POPC   C1B69355  11.271  22.727   6.221
 5369POPC   C2B69356  11.234  22.534   6.633
 5369POPC   C3B69357  11.196  22.660   7.065
 5369POPC   C4B69358  11.508  22.795   7.380
 5370POPC   NC369359  12.368  16.931   5.511
 5370POPC   PO469360  11.880  16.469   5.620
 5370POPC   GL169361  12.209  16.608   5.863
 5370POPC   GL269362  11.999  16.891   5.895
 5370POPC   C1A69363  12.378  16.838   6.235
 5370POPC   D2A69364  12.337  16.564   6.598
 5370POPC   C3A69365  12.335  16.699   7.019
 5370POPC   C4A69366  11.991  16.474   7.158
 5370POPC   C1B69367  11.910  16.622   6.287
 5370POPC   C2B69368  11.799  16.699   6.729
 5370POPC   C3B69369  11.757  16.969   7.099
 5370POPC   C4B69370  12.034  16.910   7.449
 5371POPC   NC369371   5.802  32.415   5.556
 5371POPC   PO469372   6.266  32.049   5.476
 5371POPC   GL169373   6.205  32.332   5.870
 5371POPC   GL269374   5.997  32.674   5.953
 5371POPC   C1A69375   6.160  32.298   6.315
 5371POPC   D2A69376   6.009  32.430   6.715
 5371POPC   C3A69377   6.102  32.219   7.113
 5371POPC   C4A69378   5.891  32.203   7.527
 5371POPC   C1B69379   5.672  32.487   6.248
 5371POPC   C2B69380   5.632  32.145   6.530
 5371POPC   C3B69381   5.561  32.061   6.966
 5371POPC   C4B69382   5.423  32.235   7.356
 5372POPC   NC369383  40.834   8.532   5.228
 5372POPC   PO469384  40.465   7.974   5.432
 5372POPC   GL169385  40.659   7.963   5.878
 5372POPC   GL269386  41.010   8.025   5.960
 5372POPC   C1A69387  40.658   8.142   6.330
 5372POPC   D2A69388  40.750   8.455   6.683
 5372POPC   C3A69389  40.630   8.375   7.120
 5372POPC   C4A69390  40.720   7.951   7.273
 5372POPC   C1B69391  41.003   7.776   6.357
 5372POPC   C2B69392  40.855   7.916   6.779
 5372POPC   C3B69393  41.112   8.203   7.080
 5372POPC   C4B69394  41.025   8.367   7.500
 5373POPC   NC369395   5.155   7.284   5.428
 5373POPC   PO469396   5.498   7.909   5.368
 5373POPC   GL169397   5.387   7.602   5.801
 5373POPC   GL269398   5.093   7.333   5.928
 5373POPC   C1A69399   5.220   7.679   6.271
 5373POPC   D2A69400   4.959   7.630   6.663
 5373POPC   C3A69401   5.232   7.398   6.963
 5373POPC   C4A69402   5.296   7.296   7.404
 5373POPC   C1B69403   5.020   7.197   6.388
 5373POPC   C2B69404   4.798   7.119   6.785
 5373POPC   C3B69405   4.839   7.190   7.233
 5373POPC   C4B69406   4.950   7.080   7.726
 5374POPC   NC369407  41.278  41.571   5.625
 5374POPC   PO469408  41.693  41.125   5.381
 5374POPC   GL169409  41.769  41.235   5.786
 5374POPC   GL269410  41.430  41.191   5.908
 5374POPC   C1A69411  41.766  41.451   6.188
 5374POPC   D2A69412  41.687  41.222   6.570
 5374POPC   C3A69413  41.588  41.408   6.964
 5374POPC   C4A69414  41.817  41.683   7.219
 5374POPC   C1B69415  41.249  41.396   6.292
 5374POPC   C2B69416  41.477  41.720   6.537
 5374POPC   C3B69417  41.451  41.908   6.918
 5374POPC   C4B69418  41.269  41.761   7.248
 5375POPC   NC369419  35.838  16.547   5.326
 5375POPC   PO469420  36.367  16.923   5.294
 5375POPC   GL169421  36.140  16.786   5.673
 5375POPC   GL269422  36.137  16.414   5.713
 5375POPC   C1A69423  36.302  16.751   6.079
 5375POPC   D2A69424  36.434  16.979   6.445
 5375POPC   C3A69425  36.343  16.816   6.847
 5375POPC   C4A69426  36.213  16.841   7.256
 5375POPC   C1B69427  35.968  16.349   6.114
 5375POPC   C2B69428  36.030  16.583   6.479
 5375POPC   C3B69429  35.876  16.601   6.860
 5375POPC   C4B69430  35.825  16.524   7.248
 5376POPC   NC369431  22.079  16.220   5.594
 5376POPC   PO469432  22.298  16.811   5.336
 5376POPC   GL169433  22.300  16.708   5.768
 5376POPC   GL269434  22.559  16.504   5.720
 5376POPC   C1A69435  22.144  16.649   6.208
 5376POPC   D2A69436  22.153  16.523   6.648
 5376POPC   C3A69437  21.946  16.712   7.010
 5376POPC   C4A69438  21.859  16.635   7.475
 5376POPC   C1B69439  22.688  16.461   6.133
 5376POPC   C2B69440  22.711  16.706   6.511
 5376POPC   C3B69441  22.531  16.720   6.926
 5376POPC   C4B69442  22.355  16.621   7.318
 5377POPC   NC369443  13.495  10.927   5.071
 5377POPC   PO469444  13.713  11.319   5.573
 5377POPC   GL169445  13.541  11.207   5.979
 5377POPC   GL269446  13.829  10.960   5.959
 5377POPC   C1A69447  13.355  11.331   6.365
 5377POPC   D2A69448  13.192  11.419   6.775
 5377POPC   C3A69449  13.518  11.459   7.083
 5377POPC   C4A69450  13.645  11.213   7.430
 5377POPC   C1B69451  13.881  11.236   6.338
 5377POPC   C2B69452  13.916  11.437   6.746
 5377POPC   C3B69453  14.025  11.479   7.195
 5377POPC   C4B69454  13.859  11.665   7.580
 5378POPC   NC369455  10.201  19.336   5.334
 5378POPC   PO469456  10.641  18.880   5.489
 5378POPC   GL169457  10.341  19.034   5.762
 5378POPC   GL269458  10.040  18.822   5.819
 5378POPC   C1A69459  10.496  19.200   6.136
 5378POPC   D2A69460  10.511  19.081   6.556
 5378POPC   C3A69461  10.846  19.232   6.802
 5378POPC   C4A69462  10.755  19.251   7.221
 5378POPC   C1B69463  10.252  18.746   6.227
 5378POPC   C2B69464  10.091  18.823   6.637
 5378POPC   C3B69465  10.324  18.930   7.023
 5378POPC   C4B69466  10.444  18.675   7.390
 5379POPC   NC369467  22.443  36.978   5.562
 5379POPC   PO469468  21.815  36.773   5.438
 5379POPC   GL169469  21.844  36.972   5.852
 5379POPC   GL269470  22.042  37.166   5.842
 5379POPC   C1A69471  21.988  36.969   6.306
 5379POPC   D2A69472  22.218  36.824   6.665
 5379POPC   C3A69473  22.090  36.850   7.109
 5379POPC   C4A69474  22.364  36.623   7.414
 5379POPC   C1B69475  22.363  37.250   6.127
 5379POPC   C2B69476  22.369  37.305   6.558
 5379POPC   C3B69477  22.455  37.218   6.985
 5379POPC   C4B69478  22.298  37.224   7.401
 5380POPC   NC369479  11.076  32.594   5.413
 5380POPC   PO469480  11.444  31.954   5.392
 5380POPC   GL169481  11.235  32.134   5.760
 5380POPC   GL269482  11.453  32.414   5.757
 5380POPC   C1A69483  11.308  32.028   6.230
 5380POPC   D2A69484  11.508  32.008   6.682
 5380POPC   C3A69485  11.236  32.087   7.075
 5380POPC   C4A69486  11.200  32.366   7.483
 5380POPC   C1B69487  11.405  32.518   6.203
 5380POPC   C2B69488  11.169  32.431   6.614
 5380POPC   C3B69489  11.163  32.609   7.030
 5380POPC   C4B69490  11.452  32.784   7.266
 5381POPC   NC369491   1.192  20.059   5.385
 5381POPC   PO469492   0.884  19.409   5.511
 5381POPC   GL169493   1.084  19.705   5.828
 5381POPC   GL269494   1.346  19.943   5.861
 5381POPC   C1A69495   1.308  19.594   6.240
 5381POPC   D2A69496   1.235  19.352   6.609
 5381POPC   C3A69497   1.134  19.500   7.021
 5381POPC   C4A69498   1.216  19.738   7.372
 5381POPC   C1B69499   1.116  20.065   6.255
 5381POPC   C2B69500   1.085  19.915   6.706
 5381POPC   C3B69501   1.270  20.154   7.090
 5381POPC   C4B69502   1.455  20.258   7.522
 5382POPC   NC369503   7.595  17.999   5.379
 5382POPC   PO469504   7.433  17.352   5.420
 5382POPC   GL169505   7.422  17.640   5.765
 5382POPC   GL269506   7.108  17.761   5.667
 5382POPC   C1A69507   7.613  17.705   6.190
 5382POPC   D2A69508   7.655  17.406   6.552
 5382POPC   C3A69509   7.621  17.500   6.998
 5382POPC   C4A69510   7.654  17.322   7.408
 5382POPC   C1B69511   7.106  17.873   6.107
 5382POPC   C2B69512   7.270  17.877   6.522
 5382POPC   C3B69513   7.127  17.674   6.881
 5382POPC   C4B69514   7.188  17.782   7.303
 5383POPC   NC369515  23.529  25.207   5.007
 5383POPC   PO469516  24.021  25.445   5.353
 5383POPC   GL169517  24.048  25.292   5.803
 5383POPC   GL269518  24.070  24.938   5.909
 5383POPC   C1A69519  23.851  25.362   6.218
 5383POPC   D2A69520  23.664  25.594   6.568
 5383POPC   C3A69521  23.812  25.446   6.985
 5383POPC   C4A69522  23.622  25.305   7.403
 5383POPC   C1B69523  23.755  24.849   6.271
 5383POPC   C2B69524  23.672  24.880   6.745
 5383POPC   C3B69525  23.893  24.961   7.157
 5383POPC   C4B69526  23.866  24.946   7.678
 5384POPC   NC369527  26.184  20.976   5.580
 5384POPC   PO469528  26.329  20.355   5.365
 5384POPC   GL169529  26.100  20.460   5.743
 5384POPC   GL269530  25.785  20.646   5.704
 5384POPC   C1A69531  26.151  20.651   6.156
 5384POPC   D2A69532  26.349  20.827   6.518
 5384POPC   C3A69533  26.197  20.578   6.848
 5384POPC   C4A69534  26.163  20.671   7.273
 5384POPC   C1B69535  25.663  20.810   6.121
 5384POPC   C2B69536  25.804  20.786   6.545
 5384POPC   C3B69537  25.984  21.047   6.847
 5384POPC   C4B69538  25.827  21.067   7.223
 5385POPC   NC369539  19.285   0.446   5.524
 5385POPC   PO469540  18.697   0.436   5.862
 5385POPC   GL169541  19.125   0.365   5.987
 5385POPC   GL269542  19.350   0.674   5.977
 5385POPC   C1A69543  19.069   0.115   6.307
 5385POPC   D2A69544  18.781   0.141   6.639
 5385POPC   C3A69545  18.876   0.345   7.016
 5385POPC   C4A69546  19.076   0.741   7.133
 5385POPC   C1B69547  19.259   0.596   6.419
 5385POPC   C2B69548  19.289   0.266   6.736
 5385POPC   C3B69549  19.406   0.355   7.121
 5385POPC   C4B69550  19.618   0.794   7.138
 5386POPC   NC369551  22.271  34.838   5.407
 5386POPC   PO469552  22.066  34.158   5.354
 5386POPC   GL169553  22.193  34.430   5.747
 5386POPC   GL269554  22.348  34.751   5.902
 5386POPC   C1A69555  22.136  34.382   6.193
 5386POPC   D2A69556  22.002  34.582   6.544
 5386POPC   C3A69557  21.952  34.315   6.881
 5386POPC   C4A69558  22.198  34.547   7.156
 5386POPC   C1B69559  22.012  34.903   6.131
 5386POPC   C2B69560  21.998  35.100   6.507
 5386POPC   C3B69561  22.083  34.979   6.888
 5386POPC   C4B69562  21.835  34.923   7.220
 5387POPC   NC369563   3.884  37.975   5.594
 5387POPC   PO469564   3.365  37.837   5.162
 5387POPC   GL169565   3.525  37.616   5.653
 5387POPC   GL269566   3.288  37.406   5.869
 5387POPC   C1A69567   3.634  37.738   6.147
 5387POPC   D2A69568   3.594  37.928   6.584
 5387POPC   C3A69569   3.618  37.757   7.033
 5387POPC   C4A69570   3.839  37.732   7.445
 5387POPC   C1B69571   3.460  37.296   6.308
 5387POPC   C2B69572   3.373  37.394   6.764
 5387POPC   C3B69573   3.468  37.259   7.218
 5387POPC   C4B69574   3.496  37.265   7.702
 5388POPC   NC369575  20.097  29.751   5.217
 5388POPC   PO469576  19.687  30.291   5.188
 5388POPC   GL169577  19.883  30.008   5.638
 5388POPC   GL269578  20.168  29.732   5.717
 5388POPC   C1A69579  19.870  29.847   6.114
 5388POPC   D2A69580  19.828  29.693   6.577
 5388POPC   C3A69581  19.811  29.968   6.936
 5388POPC   C4A69582  19.423  29.999   7.205
 5388POPC   C1B69583  20.359  29.626   6.153
 5388POPC   C2B69584  20.342  29.771   6.601
 5388POPC   C3B69585  20.207  29.649   7.037
 5388POPC   C4B69586  19.906  29.731   7.383
 5389POPC   NC369587  41.776   0.485   5.471
 5389POPC   PO469588  41.261   0.140   5.599
 5389POPC   GL169589  41.428   0.440   5.890
 5389POPC   GL269590  41.756   0.356   5.962
 5389POPC   C1A69591  41.480   0.639   6.298
 5389POPC   D2A69592  41.733   0.499   6.662
 5389POPC   C3A69593  41.532   0.507   7.075
 5389POPC   C4A69594  41.141   0.300   7.172
 5389POPC   C1B69595  41.952   0.735   6.143
 5389POPC   C2B69596  41.934   0.947   6.541
 5389POPC   C3B69597  41.848   0.923   7.017
 5389POPC   C4B69598  41.795   0.827   7.519
 5390POPC   NC369599  22.569  38.474   5.461
 5390POPC   PO469600  23.080  37.990   5.295
 5390POPC   GL169601  23.103  38.297   5.655
 5390POPC   GL269602  22.802  38.296   5.878
 5390POPC   C1A69603  23.147  38.626   6.013
 5390POPC   D2A69604  22.992  38.445   6.427
 5390POPC   C3A69605  22.966  38.625   6.849
 5390POPC   C4A69606  22.778  38.568   7.236
 5390POPC   C1B69607  22.557  38.220   6.241
 5390POPC   C2B69608  22.375  38.072   6.616
 5390POPC   C3B69609  22.658  38.160   6.945
 5390POPC   C4B69610  22.694  38.077   7.383
 5391POPC   NC369611   5.526  19.971   5.507
 5391POPC   PO469612   5.955  19.504   5.458
 5391POPC   GL169613   5.815  19.683   5.851
 5391POPC   GL269614   5.932  20.048   5.824
 5391POPC   C1A69615   6.012  19.822   6.255
 5391POPC   D2A69616   5.845  19.937   6.627
 5391POPC   C3A69617   5.958  19.766   7.004
 5391POPC   C4A69618   6.311  19.873   7.219
 5391POPC   C1B69619   5.603  20.134   6.158
 5391POPC   C2B69620   5.449  20.234   6.595
 5391POPC   C3B69621   5.517  20.061   7.027
 5391POPC   C4B69622   5.485  19.720   7.349
 5392POPC   NC369623  24.333  22.218   5.311
 5392POPC   PO469624  23.878  21.795   5.538
 5392POPC   GL169625  24.177  22.116   5.788
 5392POPC   GL269626  24.546  22.212   5.779
 5392POPC   C1A69627  24.269  22.376   6.168
 5392POPC   D2A69628  24.447  22.339   6.570
 5392POPC   C3A69629  24.192  22.358   6.920
 5392POPC   C4A69630  24.398  22.375   7.297
 5392POPC   C1B69631  24.786  22.281   6.191
 5392POPC   C2B69632  24.948  22.265   6.652
 5392POPC   C3B69633  24.906  22.299   7.137
 5392POPC   C4B69634  24.737  22.060   7.518
 5393POPC   NC369635  17.010  39.106   5.420
 5393POPC   PO469636  16.506  39.606   5.517
 5393POPC   GL169637  16.635  39.279   5.736
 5393POPC   GL269638  16.962  39.393   5.846
 5393POPC   C1A69639  16.636  39.053   6.088
 5393POPC   D2A69640  16.790  38.989   6.484
 5393POPC   C3A69641  16.566  38.871   6.830
 5393POPC   C4A69642  16.922  38.875   7.091
 5393POPC   C1B69643  16.693  39.540   6.202
 5393POPC   C2B69644  16.468  39.640   6.552
 5393POPC   C3B69645  16.635  39.413   6.880
 5393POPC   C4B69646  16.433  39.497   7.244
 5394POPC   NC369647   9.509  36.467   5.124
 5394POPC   PO469648   9.778  35.912   5.410
 5394POPC   GL169649   9.553  35.989   5.826
 5394POPC   GL269650   9.327  36.275   5.785
 5394POPC   C1A69651   9.662  36.092   6.290
 5394POPC   D2A69652   9.592  36.343   6.686
 5394POPC   C3A69653   9.842  36.253   7.079
 5394POPC   C4A69654  10.143  35.914   7.223
 5394POPC   C1B69655   9.185  36.226   6.205
 5394POPC   C2B69656   9.076  36.274   6.631
 5394POPC   C3B69657   9.241  36.318   7.049
 5394POPC   C4B69658   9.485  36.626   7.197
 5395POPC   NC369659  24.941   6.413   5.478
 5395POPC   PO469660  25.212   7.016   5.618
 5395POPC   GL169661  24.888   6.778   5.919
 5395POPC   GL269662  24.549   6.600   5.940
 5395POPC   C1A69663  24.778   6.715   6.365
 5395POPC   D2A69664  24.721   6.513   6.707
 5395POPC   C3A69665  24.345   6.596   6.896
 5395POPC   C4A69666  24.262   6.746   7.302
 5395POPC   C1B69667  24.272   6.552   6.358
 5395POPC   C2B69668  24.001   6.311   6.674
 5395POPC   C3B69669  24.047   6.262   7.159
 5395POPC   C4B69670  24.007   6.406   7.604
 5396POPC   NC369671  10.432  36.842   5.045
 5396POPC   PO469672  10.529  37.316   5.499
 5396POPC   GL169673  10.544  36.969   5.811
 5396POPC   GL269674  10.708  36.634   5.725
 5396POPC   C1A69675  10.385  36.848   6.239
 5396POPC   D2A69676  10.090  37.091   6.509
 5396POPC   C3A69677  10.213  36.982   6.906
 5396POPC   C4A69678  10.281  36.794   7.289
 5396POPC   C1B69679  10.839  36.579   6.175
 5396POPC   C2B69680  10.673  36.586   6.618
 5396POPC   C3B69681  10.871  36.474   7.032
 5396POPC   C4B69682  10.723  36.606   7.429
 5397POPC   NC369683  32.485  11.871   5.555
 5397POPC   PO469684  31.904  12.097   5.451
 5397POPC   GL169685  32.024  11.851   5.772
 5397POPC   GL269686  32.166  12.170   5.895
 5397POPC   C1A69687  32.186  11.755   6.180
 5397POPC   D2A69688  32.188  12.098   6.468
 5397POPC   C3A69689  32.107  11.963   6.903
 5397POPC   C4A69690  31.973  12.264   7.211
 5397POPC   C1B69691  32.510  12.402   6.071
 5397POPC   C2B69692  32.628  12.370   6.507
 5397POPC   C3B69693  32.407  12.355   6.897
 5397POPC   C4B69694  32.467  12.336   7.334
 5398POPC   NC369695   8.956  16.212   5.325
 5398POPC   PO469696   8.813  15.576   5.507
 5398POPC   GL169697   9.073  15.688   5.849
 5398POPC   GL269698   9.108  16.063   5.813
 5398POPC   C1A69699   9.006  15.760   6.311
 5398POPC   D2A69700   8.674  16.038   6.526
 5398POPC   C3A69701   8.742  15.962   6.974
 5398POPC   C4A69702   9.131  15.696   7.059
 5398POPC   C1B69703   9.110  16.246   6.257
 5398POPC   C2B69704   9.148  16.169   6.719
 5398POPC   C3B69705   9.251  16.192   7.181
 5398POPC   C4B69706   9.379  16.120   7.643
 5399POPC   NC369707  28.629   5.038   5.196
 5399POPC   PO469708  28.119   5.471   5.493
 5399POPC   GL169709  28.099   5.241   5.857
 5399POPC   GL269710  28.432   5.117   5.760
 5399POPC   C1A69711  28.147   5.278   6.323
 5399POPC   D2A69712  28.576   5.194   6.483
 5399POPC   C3A69713  28.659   5.330   6.875
 5399POPC   C4A69714  28.374   5.232   7.228
 5399POPC   C1B69715  28.380   4.869   6.116
 5399POPC   C2B69716  28.190   4.785   6.500
 5399POPC   C3B69717  28.377   4.874   6.887
 5399POPC   C4B69718  28.562   4.685   7.284
 5400POPC   NC369719  13.156  17.758   5.512
 5400POPC   PO469720  12.577  17.331   5.397
 5400POPC   GL169721  12.629  17.262   5.892
 5400POPC   GL269722  12.881  17.498   6.054
 5400POPC   C1A69723  12.578  17.324   6.396
 5400POPC   D2A69724  12.870  17.370   6.737
 5400POPC   C3A69725  12.684  17.276   7.109
 5400POPC   C4A69726  12.451  17.628   7.128
 5400POPC   C1B69727  13.031  17.742   6.381
 5400POPC   C2B69728  12.966  17.872   6.790
 5400POPC   C3B69729  13.034  17.656   7.158
 5400POPC   C4B69730  13.118  17.896   7.516
 5401POPC   NC369731  16.958  30.610   5.157
 5401POPC   PO469732  16.356  30.612   5.482
 5401POPC   GL169733  16.533  30.456   5.879
 5401POPC   GL269734  16.355  30.738   6.006
 5401POPC   C1A69735  16.807  30.496   6.298
 5401POPC   D2A69736  17.004  30.344   6.719
 5401POPC   C3A69737  16.983  30.634   7.101
 5401POPC   C4A69738  16.796  30.861   7.467
 5401POPC   C1B69739  16.296  30.487   6.372
 5401POPC   C2B69740  16.533  30.555   6.749
 5401POPC   C3B69741  16.522  30.890   7.040
 5401POPC   C4B69742  16.471  31.251   7.310
 5402POPC   NC369743  41.161  44.696   5.507
 5402POPC   PO469744  41.739  44.390   5.356
 5402POPC   GL169745  41.582  44.431   5.756
 5402POPC   GL269746  41.835  44.188   5.842
 5402POPC   C1A69747  41.590  44.798   6.063
 5402POPC   D2A69748  41.478   0.127   6.365
 5402POPC   C3A69749  41.455   0.050   6.809
 5402POPC   C4A69750  41.267  44.808   7.121
 5402POPC   C1B69751  41.875  44.411   6.227
 5402POPC   C2B69752  41.612  44.588   6.558
 5402POPC   C3B69753  41.778  44.646   6.972
 5402POPC   C4B69754  41.735  44.797   7.373
 5403POPC   NC369755  23.776  24.792   5.499
 5403POPC   PO469756  23.499  24.179   5.375
 5403POPC   GL169757  23.689  24.193   5.755
 5403POPC   GL269758  24.052  24.220   5.685
 5403POPC   C1A69759  23.532  24.218   6.171
 5403POPC   D2A69760  23.636  24.401   6.538
 5403POPC   C3A69761  23.567  24.151   6.879
 5403POPC   C4A69762  23.505  24.273   7.294
 5403POPC   C1B69763  24.018  24.417   6.119
 5403POPC   C2B69764  24.102  24.589   6.562
 5403POPC   C3B69765  23.955  24.464   6.964
 5403POPC   C4B69766  23.970  24.527   7.391
 5404POPC   NC369767  39.862  34.252   5.304
 5404POPC   PO469768  40.280  34.793   5.451
 5404POPC   GL169769  40.144  34.493   5.805
 5404POPC   GL269770  39.802  34.532   5.932
 5404POPC   C1A69771  40.154  34.342   6.263
 5404POPC   D2A69772  40.084  34.522   6.713
 5404POPC   C3A69773  40.406  34.386   7.010
 5404POPC   C4A69774  40.542  33.994   7.229
 5404POPC   C1B69775  39.963  34.805   6.302
 5404POPC   C2B69776  40.088  35.051   6.641
 5404POPC   C3B69777  40.130  34.915   7.064
 5404POPC   C4B69778  39.956  34.518   7.228
 5405POPC   NC369779  14.698   7.776   5.584
 5405POPC   PO469780  14.376   7.263   5.453
 5405POPC   GL169781  14.495   7.171   5.873
 5405POPC   GL269782  14.170   7.293   5.917
 5405POPC   C1A69783  14.674   7.401   6.258
 5405POPC   D2A69784  14.604   7.733   6.604
 5405POPC   C3A69785  14.709   7.473   6.985
 5405POPC   C4A69786  14.595   7.101   7.192
 5405POPC   C1B69787  14.178   7.465   6.285
 5405POPC   C2B69788  14.308   7.312   6.681
 5405POPC   C3B69789  14.193   7.472   7.063
 5405POPC   C4B69790  14.039   7.428   7.468
 5406POPC   NC369791  20.487  24.513   5.218
 5406POPC   PO469792  20.954  24.830   5.433
 5406POPC   GL169793  20.767  24.437   5.655
 5406POPC   GL269794  20.398  24.425   5.752
 5406POPC   C1A69795  20.741  24.260   6.091
 5406POPC   D2A69796  20.530  24.323   6.475
 5406POPC   C3A69797  20.739  24.375   6.875
 5406POPC   C4A69798  20.665  24.123   7.257
 5406POPC   C1B69799  20.529  24.723   6.121
 5406POPC   C2B69800  20.660  24.851   6.587
 5406POPC   C3B69801  20.596  24.965   7.068
 5406POPC   C4B69802  20.522  24.646   7.393
 5407POPC   NC369803   6.236  26.232   5.363
 5407POPC   PO469804   5.614  25.997   5.594
 5407POPC   GL169805   5.722  25.796   5.970
 5407POPC   GL269806   6.054  25.681   5.828
 5407POPC   C1A69807   5.632  25.855   6.418
 5407POPC   D2A69808   5.834  26.190   6.680
 5407POPC   C3A69809   5.716  26.228   7.102
 5407POPC   C4A69810   5.750  25.922   7.450
 5407POPC   C1B69811   6.147  25.908   6.213
 5407POPC   C2B69812   6.098  25.742   6.625
 5407POPC   C3B69813   6.038  25.821   7.044
 5407POPC   C4B69814   6.254  25.895   7.425
 5408POPC   NC369815  18.578   7.165   5.577
 5408POPC   PO469816  17.978   6.854   5.497
 5408POPC   GL169817  18.168   6.905   5.879
 5408POPC   GL269818  18.135   6.551   5.939
 5408POPC   C1A69819  18.380   6.874   6.294
 5408POPC   D2A69820  18.596   6.598   6.600
 5408POPC   C3A69821  18.370   6.500   6.965
 5408POPC   C4A69822  18.339   6.713   7.330
 5408POPC   C1B69823  18.298   6.323   6.286
 5408POPC   C2B69824  18.170   6.141   6.670
 5408POPC   C3B69825  17.942   6.235   7.044
 5408POPC   C4B69826  18.102   6.266   7.457
 5409POPC   NC369827  19.932  42.893   5.307
 5409POPC   PO469828  19.486  43.342   5.429
 5409POPC   GL169829  19.740  43.293   5.824
 5409POPC   GL269830  19.958  42.962   5.822
 5409POPC   C1A69831  19.806  43.508   6.254
 5409POPC   D2A69832  19.737  43.391   6.719
 5409POPC   C3A69833  19.716  42.952   6.918
 5409POPC   C4A69834  19.350  42.695   7.003
 5409POPC   C1B69835  19.819  43.004   6.255
 5409POPC   C2B69836  20.085  43.058   6.587
 5409POPC   C3B69837  20.196  43.217   6.978
 5409POPC   C4B69838  20.060  42.998   7.340
 5410POPC   NC369839   3.207  31.944   5.343
 5410POPC   PO469840   3.754  32.006   5.441
 5410POPC   GL169841   3.565  32.168   5.856
 5410POPC   GL269842   3.202  32.083   5.853
 5410POPC   C1A69843   3.626  32.316   6.334
 5410POPC   D2A69844   3.610  32.556   6.760
 5410POPC   C3A69845   3.855  32.464   7.126
 5410POPC   C4A69846   3.960  32.160   7.492
 5410POPC   C1B69847   3.206  32.021   6.317
 5410POPC   C2B69848   3.394  32.082   6.742
 5410POPC   C3B69849   3.573  32.023   7.167
 5410POPC   C4B69850   3.323  31.986   7.540
 5411POPC   NC369851  40.721  34.693   5.400
 5411POPC   PO469852  41.236  34.328   5.501
 5411POPC   GL169853  41.055  34.652   5.809
 5411POPC   GL269854  40.675  34.601   5.904
 5411POPC   C1A69855  41.078  34.745   6.259
 5411POPC   D2A69856  40.807  34.569   6.582
 5411POPC   C3A69857  41.001  34.389   6.925
 5411POPC   C4A69858  40.822  34.414   7.314
 5411POPC   C1B69859  40.480  34.822   6.256
 5411POPC   C2B69860  40.603  35.040   6.662
 5411POPC   C3B69861  40.674  34.841   7.082
 5411POPC   C4B69862  40.800  34.821   7.602
 5412POPC   NC369863  32.248  15.216   5.154
 5412POPC   PO469864  31.907  14.792   5.547
 5412POPC   GL169865  32.232  15.073   5.738
 5412POPC   GL269866  32.589  15.021   5.730
 5412POPC   C1A69867  32.206  15.343   6.113
 5412POPC   D2A69868  32.044  15.527   6.499
 5412POPC   C3A69869  32.271  15.397   6.858
 5412POPC   C4A69870  32.259  15.288   7.277
 5412POPC   C1B69871  32.724  15.082   6.183
 5412POPC   C2B69872  32.631  15.101   6.619
 5412POPC   C3B69873  32.721  15.096   7.047
 5412POPC   C4B69874  32.706  15.160   7.496
 5413POPC   NC369875   3.095  37.554   5.393
 5413POPC   PO469876   2.495  37.837   5.502
 5413POPC   GL169877   2.513  37.663   5.928
 5413POPC   GL269878   2.806  37.456   6.064
 5413POPC   C1A69879   2.653  37.879   6.311
 5413POPC   D2A69880   2.659  38.105   6.728
 5413POPC   C3A69881   2.697  37.900   7.090
 5413POPC   C4A69882   3.092  38.047   7.266
 5413POPC   C1B69883   3.131  37.693   6.330
 5413POPC   C2B69884   3.111  37.833   6.772
 5413POPC   C3B69885   3.036  37.530   7.119
 5413POPC   C4B69886   3.009  37.271   7.492
 5414POPC   NC369887  41.543  10.704   5.475
 5414POPC   PO469888  41.700  10.143   5.150
 5414POPC   GL169889  41.413  10.264   5.668
 5414POPC   GL269890  41.657  10.538   5.923
 5414POPC   C1A69891  41.357  10.248   6.175
 5414POPC   D2A69892  41.569  10.605   6.441
 5414POPC   C3A69893  41.745  10.676   6.855
 5414POPC   C4A69894  41.640  10.557   7.276
 5414POPC   C1B69895  41.254  10.747   6.055
 5414POPC   C2B69896  41.118  10.866   6.453
 5414POPC   C3B69897  41.231  10.701   6.840
 5414POPC   C4B69898  41.410  10.982   7.101
 5415POPC   NC369899  20.069   1.852   5.417
 5415POPC   PO469900  19.373   1.607   5.649
 5415POPC   GL169901  19.662   1.896   5.839
 5415POPC   GL269902  19.955   1.794   5.900
 5415POPC   C1A69903  19.797   2.131   6.235
 5415POPC   D2A69904  19.591   2.299   6.607
 5415POPC   C3A69905  19.914   2.424   6.882
 5415POPC   C4A69906  20.213   2.378   7.192
 5415POPC   C1B69907  20.111   1.740   6.286
 5415POPC   C2B69908  20.161   1.980   6.655
 5415POPC   C3B69909  19.980   1.926   7.048
 5415POPC   C4B69910  19.562   2.011   7.079
 5416POPC   NC369911  26.704  34.471   5.339
 5416POPC   PO469912  27.313  34.786   5.298
 5416POPC   GL169913  27.009  34.710   5.677
 5416POPC   GL269914  26.993  34.318   5.751
 5416POPC   C1A69915  26.820  34.680   6.132
 5416POPC   D2A69916  26.980  34.548   6.567
 5416POPC   C3A69917  26.697  34.584   6.928
 5416POPC   C4A69918  26.466  34.778   7.277
 5416POPC   C1B69919  26.666  34.165   6.074
 5416POPC   C2B69920  26.711  34.035   6.523
 5416POPC   C3B69921  26.921  34.125   6.923
 5416POPC   C4B69922  26.808  34.311   7.352
 5417POPC   NC369923  44.517  15.895   5.358
 5417POPC   PO469924  44.555  16.516   5.428
 5417POPC   GL169925  44.594  16.191   5.764
 5417POPC   GL269926  44.878  15.932   5.733
 5417POPC   C1A69927  44.732  16.120   6.180
 5417POPC   D2A69928  44.666  15.839   6.499
 5417POPC   C3A69929  44.609  16.049   6.869
 5417POPC   C4A69930  44.309  16.074   7.169
 5417POPC   C1B69931  44.884  15.620   6.072
 5417POPC   C2B69932   0.011  15.454   6.480
 5417POPC   C3B69933  44.875  15.552   6.889
 5417POPC   C4B69934  44.758  15.779   7.260
 5418POPC   NC369935  40.834  43.036   5.240
 5418POPC   PO469936  40.365  43.341   5.491
 5418POPC   GL169937  40.584  43.046   5.730
 5418POPC   GL269938  40.796  43.286   5.845
 5418POPC   C1A69939  40.715  42.877   6.151
 5418POPC   D2A69940  40.981  42.779   6.526
 5418POPC   C3A69941  40.784  42.882   6.918
 5418POPC   C4A69942  40.971  42.906   7.301
 5418POPC   C1B69943  41.019  43.270   6.237
 5418POPC   C2B69944  40.733  43.242   6.555
 5418POPC   C3B69945  40.521  43.484   6.842
 5418POPC   C4B69946  40.607  43.301   7.237
 5419POPC   NC369947   7.907  29.707   5.264
 5419POPC   PO469948   8.402  30.125   5.459
 5419POPC   GL169949   8.199  29.875   5.814
 5419POPC   GL269950   7.828  29.812   5.798
 5419POPC   C1A69951   8.329  29.764   6.246
 5419POPC   D2A69952   8.449  29.481   6.609
 5419POPC   C3A69953   8.393  29.675   7.014
 5419POPC   C4A69954   7.981  29.744   7.218
 5419POPC   C1B69955   7.861  30.074   6.190
 5419POPC   C2B69956   7.924  30.315   6.565
 5419POPC   C3B69957   8.179  30.172   6.907
 5419POPC   C4B69958   8.018  30.265   7.274
 5420POPC   NC369959   5.119  36.684   5.366
 5420POPC   PO469960   5.165  37.326   5.500
 5420POPC   GL169961   5.031  37.014   5.798
 5420POPC   GL269962   4.929  36.665   5.839
 5420POPC   C1A69963   5.094  36.973   6.235
 5420POPC   D2A69964   5.242  36.753   6.583
 5420POPC   C3A69965   5.115  36.855   6.977
 5420POPC   C4A69966   5.308  37.080   7.323
 5420POPC   C1B69967   5.198  36.465   6.124
 5420POPC   C2B69968   5.294  36.240   6.494
 5420POPC   C3B69969   5.326  36.368   6.942
 5420POPC   C4B69970   5.228  36.559   7.363
 5421POPC   NC369971  16.491   3.279   5.095
 5421POPC   PO469972  17.106   3.473   5.266
 5421POPC   GL169973  16.915   3.352   5.692
 5421POPC   GL269974  16.599   3.184   5.666
 5421POPC   C1A69975  16.755   3.503   6.108
 5421POPC   D2A69976  16.743   3.338   6.538
 5421POPC   C3A69977  16.815   3.594   6.902
 5421POPC   C4A69978  16.707   3.545   7.332
 5421POPC   C1B69979  16.489   3.074   6.090
 5421POPC   C2B69980  16.294   3.113   6.493
 5421POPC   C3B69981  16.427   3.091   6.920
 5421POPC   C4B69982  16.250   3.350   7.278
 5422POPC   NC369983  24.288   5.332   5.487
 5422POPC   PO469984  24.855   5.008   5.415
 5422POPC   GL169985  24.681   4.947   5.820
 5422POPC   GL269986  24.598   5.282   5.876
 5422POPC   C1A69987  24.793   4.843   6.255
 5422POPC   D2A69988  24.667   4.738   6.671
 5422POPC   C3A69989  24.639   4.950   7.075
 5422POPC   C4A69990  24.435   4.978   7.482
 5422POPC   C1B69991  24.428   5.209   6.279
 5422POPC   C2B69992  24.415   5.201   6.701
 5422POPC   C3B69993  24.174   5.265   7.062
 5422POPC   C4B69994  24.132   5.427   7.465
 5423POPC   NC369995  25.827  11.590   5.488
 5423POPC   PO469996  26.235  11.126   5.775
 5423POPC   GL169997  25.948  11.191   6.051
 5423POPC   GL269998  25.916  11.564   5.998
 5423POPC   C1A69999  25.971  11.071   6.463
 5423POPC   D2A70000  25.770  11.282   6.782
 5423POPC   C3A70001  26.067  11.489   7.033
 5423POPC   C4A70002  26.193  11.152   7.255
 5423POPC   C1B70003  25.597  11.783   6.233
 5423POPC   C2B70004  25.520  11.722   6.687
 5423POPC   C3B70005  25.547  11.603   7.130
 5423POPC   C4B70006  25.744  11.310   7.428
 5424POPC   NC370007   9.539   5.683   5.340
 5424POPC   PO470008  10.161   5.986   5.349
 5424POPC   GL170009   9.805   5.976   5.660
 5424POPC   GL270010   9.811   6.216   5.894
 5424POPC   C1A70011   9.563   5.830   6.065
 5424POPC   D2A70012   9.806   5.890   6.435
 5424POPC   C3A70013   9.707   5.747   6.834
 5424POPC   C4A70014   9.715   5.933   7.236
 5424POPC   C1B70015  10.180   6.149   6.199
 5424POPC   C2B70016  10.265   6.056   6.635
 5424POPC   C3B70017  10.032   6.238   6.970
 5424POPC   C4B70018  10.074   6.340   7.385
 5425POPC   NC370019  22.866  26.943   5.390
 5425POPC   PO470020  23.300  27.462   5.438
 5425POPC   GL170021  23.221  27.188   5.881
 5425POPC   GL270022  22.914  26.921   5.891
 5425POPC   C1A70023  23.094  27.038   6.339
 5425POPC   D2A70024  22.774  26.972   6.650
 5425POPC   C3A70025  22.986  27.056   7.005
 5425POPC   C4A70026  23.024  26.979   7.419
 5425POPC   C1B70027  22.892  26.579   6.222
 5425POPC   C2B70028  22.869  26.465   6.664
 5425POPC   C3B70029  22.906  26.560   7.097
 5425POPC   C4B70030  22.613  26.574   7.419
 5426POPC   NC370031   6.419  39.338   5.322
 5426POPC   PO470032   6.752  38.852   5.680
 5426POPC   GL170033   6.788  39.088   6.027
 5426POPC   GL270034   6.657  39.382   5.892
 5426POPC   C1A70035   6.587  39.238   6.378
 5426POPC   D2A70036   6.375  39.367   6.715
 5426POPC   C3A70037   6.625  39.193   7.025
 5426POPC   C4A70038   6.650  38.956   7.385
 5426POPC   C1B70039   6.973  39.549   6.217
 5426POPC   C2B70040   7.032  39.376   6.634
 5426POPC   C3B70041   7.015  39.528   7.043
 5426POPC   C4B70042   6.804  39.498   7.432
 5427POPC   NC370043  23.118  36.584   5.541
 5427POPC   PO470044  23.129  37.240   5.550
 5427POPC   GL170045  22.881  36.957   5.812
 5427POPC   GL270046  23.108  36.810   5.990
 5427POPC   C1A70047  22.654  36.844   6.211
 5427POPC   D2A70048  22.775  36.969   6.626
 5427POPC   C3A70049  22.616  36.746   6.983
 5427POPC   C4A70050  22.741  36.953   7.390
 5427POPC   C1B70051  23.095  36.586   6.347
 5427POPC   C2B70052  23.306  36.732   6.685
 5427POPC   C3B70053  23.113  36.829   7.063
 5427POPC   C4B70054  22.909  36.484   7.294
 5428POPC   NC370055  10.811   1.022   5.267
 5428POPC   PO470056  10.231   1.026   5.706
 5428POPC   GL170057  10.615   1.233   5.807
 5428POPC   GL270058  10.951   1.047   5.749
 5428POPC   C1A70059  10.521   1.355   6.259
 5428POPC   D2A70060  10.223   1.185   6.620
 5428POPC   C3A70061  10.347   1.406   6.979
 5428POPC   C4A70062  10.819   1.537   7.014
 5428POPC   C1B70063  10.833   0.927   6.151
 5428POPC   C2B70064  10.734   1.020   6.594
 5428POPC   C3B70065  10.652   1.013   7.022
 5428POPC   C4B70066  10.648   0.764   7.368
 5429POPC   NC370067  34.733  23.566   5.351
 5429POPC   PO470068  34.533  24.155   5.532
 5429POPC   GL170069  34.507  23.984   5.931
 5429POPC   GL270070  34.654  23.676   5.853
 5429POPC   C1A70071  34.437  24.049   6.371
 5429POPC   D2A70072  34.389  24.166   6.796
 5429POPC   C3A70073  34.533  23.873   7.090
 5429POPC   C4A70074  34.641  23.921   7.544
 5429POPC   C1B70075  34.502  23.548   6.247
 5429POPC   C2B70076  34.661  23.565   6.640
 5429POPC   C3B70077  34.455  23.350   6.973
 5429POPC   C4B70078  34.367  23.495   7.376
 5430POPC   NC370079  21.889  20.992   5.458
 5430POPC   PO470080  21.424  20.464   5.396
 5430POPC   GL170081  21.460  20.648   5.782
 5430POPC   GL270082  21.806  20.529   5.814
 5430POPC   C1A70083  21.216  20.565   6.176
 5430POPC   D2A70084  21.297  20.761   6.561
 5430POPC   C3A70085  21.402  20.596   6.940
 5430POPC   C4A70086  21.536  20.787   7.324
 5430POPC   C1B70087  21.960  20.432   6.243
 5430POPC   C2B70088  21.817  20.382   6.691
 5430POPC   C3B70089  21.833  20.397   7.146
 5430POPC   C4B70090  21.795  20.435   7.590
 5431POPC   NC370091  43.544  32.211   5.413
 5431POPC   PO470092  42.892  32.368   5.495
 5431POPC   GL170093  43.228  32.266   5.834
 5431POPC   GL270094  43.503  32.502   5.825
 5431POPC   C1A70095  43.177  32.293   6.296
 5431POPC   D2A70096  42.883  32.025   6.511
 5431POPC   C3A70097  42.919  31.857   6.922
 5431POPC   C4A70098  42.964  32.050   7.292
 5431POPC   C1B70099  43.673  32.288   6.183
 5431POPC   C2B70100  43.593  32.352   6.629
 5431POPC   C3B70101  43.216  32.294   6.879
 5431POPC   C4B70102  43.018  32.584   7.178
 5432POPC   NC370103  40.110  31.880   5.139
 5432POPC   PO470104  40.163  31.390   5.631
 5432POPC   GL170105  39.865  31.572   5.851
 5432POPC   GL270106  39.925  31.933   5.813
 5432POPC   C1A70107  39.763  31.386   6.256
 5432POPC   D2A70108  39.688  31.158   6.654
 5432POPC   C3A70109  39.771  31.426   6.988
 5432POPC   C4A70110  39.994  31.328   7.315
 5432POPC   C1B70111  40.117  31.746   6.230
 5432POPC   C2B70112  40.138  31.543   6.624
 5432POPC   C3B70113  40.283  31.631   7.034
 5432POPC   C4B70114  39.938  31.856   7.256
 5433POPC   NC370115   5.627  38.653   5.380
 5433POPC   PO470116   4.929  38.733   5.494
 5433POPC   GL170117   5.113  38.387   5.732
 5433POPC   GL270118   5.433  38.433   5.840
 5433POPC   C1A70119   5.048  38.215   6.129
 5433POPC   D2A70120   4.771  38.295   6.490
 5433POPC   C3A70121   4.942  38.264   6.912
 5433POPC   C4A70122   5.126  38.121   7.275
 5433POPC   C1B70123   5.302  38.638   6.232
 5433POPC   C2B70124   5.405  38.484   6.629
 5433POPC   C3B70125   5.475  38.416   7.037
 5433POPC   C4B70126   5.213  38.635   7.309
 5434POPC   NC370127  18.677  14.552   5.232
 5434POPC   PO470128  19.257  14.166   5.317
 5434POPC   GL170129  19.149  14.274   5.724
 5434POPC   GL270130  18.865  14.315   5.650
 5434POPC   C1A70131  19.258  14.451   6.108
 5434POPC   D2A70132  19.075  14.379   6.488
 5434POPC   C3A70133  19.257  14.398   6.869
 5434POPC   C4A70134  19.043  14.631   7.140
 5434POPC   C1B70135  18.810  14.135   6.087
 5434POPC   C2B70136  18.585  14.254   6.470
 5434POPC   C3B70137  18.750  14.235   6.889
 5434POPC   C4B70138  18.580  13.998   7.173
 5435POPC   NC370139   6.358   8.146   5.379
 5435POPC   PO470140   6.501   8.720   5.391
 5435POPC   GL170141   6.460   8.546   5.763
 5435POPC   GL270142   6.752   8.327   5.735
 5435POPC   C1A70143   6.449   8.367   6.164
 5435POPC   D2A70144   6.289   8.211   6.534
 5435POPC   C3A70145   6.468   8.292   6.925
 5435POPC   C4A70146   6.166   8.438   7.198
 5435POPC   C1B70147   6.946   8.206   6.134
 5435POPC   C2B70148   7.047   8.287   6.558
 5435POPC   C3B70149   6.993   8.086   6.937
 5435POPC   C4B70150   6.978   8.158   7.341
 5436POPC   NC370151  32.757  32.548   5.703
 5436POPC   PO470152  33.357  32.505   5.365
 5436POPC   GL170153  33.295  32.312   5.752
 5436POPC   GL270154  33.045  32.034   5.753
 5436POPC   C1A70155  33.268  32.433   6.162
 5436POPC   D2A70156  33.389  32.214   6.516
 5436POPC   C3A70157  33.275  32.406   6.886
 5436POPC   C4A70158  33.196  32.261   7.281
 5436POPC   C1B70159  32.893  32.098   6.175
 5436POPC   C2B70160  32.875  32.338   6.563
 5436POPC   C3B70161  32.746  32.405   7.007
 5436POPC   C4B70162  32.645  32.143   7.385
 5437POPC   NC370163   6.535  41.818   5.510
 5437POPC   PO470164   6.417  41.205   5.417
 5437POPC   GL170165   6.692  41.394   5.763
 5437POPC   GL270166   7.043  41.291   5.717
 5437POPC   C1A70167   6.779  41.612   6.181
 5437POPC   D2A70168   6.577  41.435   6.580
 5437POPC   C3A70169   6.659  41.660   6.959
 5437POPC   C4A70170   7.039  41.887   7.032
 5437POPC   C1B70171   6.954  41.144   6.135
 5437POPC   C2B70172   6.874  40.995   6.543
 5437POPC   C3B70173   6.924  41.207   6.917
 5437POPC   C4B70174   6.759  41.128   7.291
 5438POPC   NC370175  12.907  33.088   5.432
 5438POPC   PO470176  13.062  32.477   5.244
 5438POPC   GL170177  13.000  32.693   5.723
 5438POPC   GL270178  12.681  32.613   5.854
 5438POPC   C1A70179  13.017  32.993   6.169
 5438POPC   D2A70180  12.707  33.148   6.536
 5438POPC   C3A70181  12.759  33.161   7.014
 5438POPC   C4A70182  12.439  32.992   7.323
 5438POPC   C1B70183  12.652  32.691   6.299
 5438POPC   C2B70184  12.684  32.597   6.701
 5438POPC   C3B70185  12.809  32.674   7.117
 5438POPC   C4B70186  13.098  32.694   7.473
 5439POPC   NC370187  38.265  30.319   5.336
 5439POPC   PO470188  38.672  29.793   5.259
 5439POPC   GL170189  38.420  29.795   5.679
 5439POPC   GL270190  38.199  30.071   5.774
 5439POPC   C1A70191  38.389  29.758   6.148
 5439POPC   D2A70192  38.632  29.821   6.547
 5439POPC   C3A70193  38.509  30.081   6.876
 5439POPC   C4A70194  38.682  30.150   7.232
 5439POPC   C1B70195  38.072  30.238   6.163
 5439POPC   C2B70196  38.143  29.997   6.533
 5439POPC   C3B70197  38.272  29.626   6.853
 5439POPC   C4B70198  38.345  29.763   7.292
 5440POPC   NC370199  12.530  20.740   5.545
 5440POPC   PO470200  12.989  20.322   5.460
 5440POPC   GL170201  12.735  20.362   5.832
 5440POPC   GL270202  12.849  20.705   5.954
 5440POPC   C1A70203  12.610  20.333   6.245
 5440POPC   D2A70204  12.618  20.713   6.481
 5440POPC   C3A70205  12.690  20.669   6.927
 5440POPC   C4A70206  12.943  20.353   7.124
 5440POPC   C1B70207  13.284  20.868   6.090
 5440POPC   C2B70208  13.421  20.850   6.523
 5440POPC   C3B70209  13.223  20.779   6.926
 5440POPC   C4B70210  13.430  21.019   7.235
 5441POPC   NC370211  20.365   3.266   5.497
 5441POPC   PO470212  20.849   2.879   5.256
 5441POPC   GL170213  20.654   2.838   5.691
 5441POPC   GL270214  20.795   3.133   5.790
 5441POPC   C1A70215  20.379   2.622   6.061
 5441POPC   D2A70216  20.264   2.459   6.500
 5441POPC   C3A70217  20.575   2.494   6.841
 5441POPC   C4A70218  20.674   2.630   7.261
 5441POPC   C1B70219  20.624   3.047   6.224
 5441POPC   C2B70220  20.768   2.949   6.660
 5441POPC   C3B70221  20.780   3.104   7.083
 5441POPC   C4B70222  20.956   3.022   7.480
 5442POPC   NC370223   7.652   1.658   5.243
 5442POPC   PO470224   7.211   1.149   5.439
 5442POPC   GL170225   7.461   1.290   5.749
 5442POPC   GL270226   7.381   0.980   5.939
 5442POPC   C1A70227   7.530   1.424   6.154
 5442POPC   D2A70228   7.552   1.216   6.551
 5442POPC   C3A70229   7.543   1.486   6.881
 5442POPC   C4A70230   7.406   1.297   7.227
 5442POPC   C1B70231   7.692   0.812   6.213
 5442POPC   C2B70232   7.933   0.839   6.587
 5442POPC   C3B70233   7.807   0.903   6.968
 5442POPC   C4B70234   7.632   0.843   7.334
 5443POPC   NC370235  41.977  26.840   5.598
 5443POPC   PO470236  41.370  27.009   5.402
 5443POPC   GL170237  41.508  26.811   5.807
 5443POPC   GL270238  41.457  26.463   5.834
 5443POPC   C1A70239  41.388  26.836   6.261
 5443POPC   D2A70240  41.317  26.764   6.706
 5443POPC   C3A70241  41.514  27.073   6.970
 5443POPC   C4A70242  41.910  26.945   7.131
 5443POPC   C1B70243  41.806  26.535   6.149
 5443POPC   C2B70244  41.710  26.451   6.573
 5443POPC   C3B70245  41.714  26.475   7.028
 5443POPC   C4B70246  41.346  26.673   7.220
 5444POPC   NC370247  10.973  35.741   5.526
 5444POPC   PO470248  11.467  36.121   5.366
 5444POPC   GL170249  11.402  36.043   5.784
 5444POPC   GL270250  11.290  35.740   5.946
 5444POPC   C1A70251  11.296  36.214   6.201
 5444POPC   D2A70252  11.023  36.147   6.511
 5444POPC   C3A70253  11.279  36.202   6.871
 5444POPC   C4A70254  11.225  36.058   7.278
 5444POPC   C1B70255  11.679  35.870   6.171
 5444POPC   C2B70256  11.688  36.053   6.553
 5444POPC   C3B70257  11.658  35.874   6.950
 5444POPC   C4B70258  11.736  35.985   7.367
 5445POPC   NC370259   7.867  21.106   5.319
 5445POPC   PO470260   8.425  21.453   5.478
 5445POPC   GL170261   8.393  21.204   5.828
 5445POPC   GL270262   8.058  21.091   5.792
 5445POPC   C1A70263   8.245  21.322   6.244
 5445POPC   D2A70264   8.225  21.691   6.534
 5445POPC   C3A70265   8.068  21.574   6.926
 5445POPC   C4A70266   8.148  21.691   7.327
 5445POPC   C1B70267   7.799  21.069   6.162
 5445POPC   C2B70268   7.940  20.981   6.585
 5445POPC   C3B70269   8.155  21.054   6.976
 5445POPC   C4B70270   7.945  21.239   7.337
 5446POPC   NC370271  40.079  35.199   5.392
 5446POPC   PO470272  39.419  35.287   5.482
 5446POPC   GL170273  39.792  35.281   5.816
 5446POPC   GL270274  39.986  35.004   5.851
 5446POPC   C1A70275  39.822  35.354   6.270
 5446POPC   D2A70276  39.687  35.654   6.594
 5446POPC   C3A70277  39.906  35.675   6.961
 5446POPC   C4A70278  40.018  35.393   7.259
 5446POPC   C1B70279  39.544  34.952   6.082
 5446POPC   C2B70280  39.542  34.997   6.539
 5446POPC   C3B70281  39.677  35.177   6.918
 5446POPC   C4B70282  39.693  35.012   7.338
 5447POPC   NC370283  15.062  22.332   5.434
 5447POPC   PO470284  15.187  21.763   5.204
 5447POPC   GL170285  15.188  21.890   5.633
 5447POPC   GL270286  15.481  22.087   5.628
 5447POPC   C1A70287  14.969  21.917   6.051
 5447POPC   D2A70288  14.930  21.759   6.487
 5447POPC   C3A70289  15.049  21.961   6.881
 5447POPC   C4A70290  15.162  22.230   7.242
 5447POPC   C1B70291  15.342  22.252   6.038
 5447POPC   C2B70292  15.246  22.195   6.470
 5447POPC   C3B70293  15.471  22.251   6.853
 5447POPC   C4B70294  15.682  22.444   7.202
 5448POPC   NC370295  15.417  37.528   5.501
 5448POPC   PO470296  14.739  37.556   5.373
 5448POPC   GL170297  14.987  37.666   5.755
 5448POPC   GL270298  15.271  37.931   5.788
 5448POPC   C1A70299  14.995  37.725   6.185
 5448POPC   D2A70300  14.969  37.966   6.535
 5448POPC   C3A70301  15.029  37.813   6.956
 5448POPC   C4A70302  15.227  37.443   7.101
 5448POPC   C1B70303  15.418  38.052   6.235
 5448POPC   C2B70304  15.477  37.986   6.693
 5448POPC   C3B70305  15.562  37.840   7.130
 5448POPC   C4B70306  15.648  37.910   7.570
 5449POPC   NC370307  31.969  17.361   5.108
 5449POPC   PO470308  31.670  17.891   5.285
 5449POPC   GL170309  31.945  17.739   5.692
 5449POPC   GL270310  31.940  17.373   5.725
 5449POPC   C1A70311  32.199  17.597   6.108
 5449POPC   D2A70312  32.401  17.558   6.549
 5449POPC   C3A70313  32.448  17.819   6.924
 5449POPC   C4A70314  32.399  17.844   7.392
 5449POPC   C1B70315  31.940  17.132   6.130
 5449POPC   C2B70316  31.757  17.005   6.547
 5449POPC   C3B70317  31.803  17.197   6.951
 5449POPC   C4B70318  32.175  17.426   7.092
 5450POPC   NC370319  11.739  38.273   5.360
 5450POPC   PO470320  12.404  38.380   5.426
 5450POPC   GL170321  12.158  38.556   5.778
 5450POPC   GL270322  11.910  38.298   5.852
 5450POPC   C1A70323  12.080  38.651   6.249
 5450POPC   D2A70324  12.179  38.766   6.712
 5450POPC   C3A70325  11.880  38.652   7.050
 5450POPC   C4A70326  11.905  38.506   7.466
 5450POPC   C1B70327  11.706  38.273   6.268
 5450POPC   C2B70328  11.759  38.291   6.717
 5450POPC   C3B70329  11.667  38.185   7.149
 5450POPC   C4B70330  11.693  38.064   7.608
 5451POPC   NC370331   4.850  26.248   5.335
 5451POPC   PO470332   5.046  25.562   5.335
 5451POPC   GL170333   4.911  25.637   5.790
 5451POPC   GL270334   4.981  26.010   5.826
 5451POPC   C1A70335   5.060  25.703   6.244
 5451POPC   D2A70336   5.181  25.628   6.685
 5451POPC   C3A70337   5.042  25.923   6.986
 5451POPC   C4A70338   5.296  26.022   7.290
 5451POPC   C1B70339   5.258  26.179   6.187
 5451POPC   C2B70340   5.314  26.256   6.657
 5451POPC   C3B70341   5.225  26.477   7.071
 5451POPC   C4B70342   4.926  26.351   7.411
 5452POPC   NC370343  31.795   8.876   5.398
 5452POPC   PO470344  31.418   9.289   5.687
 5452POPC   GL170345  31.701   9.089   5.904
 5452POPC   GL270346  31.724   8.765   5.898
 5452POPC   C1A70347  31.605   9.113   6.320
 5452POPC   D2A70348  31.189   9.276   6.411
 5452POPC   C3A70349  31.083   9.268   6.846
 5452POPC   C4A70350  31.191   9.119   7.248
 5452POPC   C1B70351  31.942   8.736   6.292
 5452POPC   C2B70352  31.946   8.834   6.737
 5452POPC   C3B70353  31.615   8.852   7.061
 5452POPC   C4B70354  31.254   8.591   7.183
 5453POPC   NC370355  29.847   3.878   5.302
 5453POPC   PO470356  30.429   3.618   5.438
 5453POPC   GL170357  30.132   3.730   5.794
 5453POPC   GL270358  29.738   3.728   5.882
 5453POPC   C1A70359  30.106   3.797   6.241
 5453POPC   D2A70360  29.734   3.810   6.468
 5453POPC   C3A70361  29.691   3.751   6.906
 5453POPC   C4A70362  29.911   3.454   7.156
 5453POPC   C1B70363  29.780   3.363   6.216
 5453POPC   C2B70364  29.846   3.217   6.673
 5453POPC   C3B70365  29.704   3.011   7.078
 5453POPC   C4B70366  29.619   3.178   7.534
 5454POPC   NC370367  41.216  16.298   5.493
 5454POPC   PO470368  41.587  15.744   5.532
 5454POPC   GL170369  41.678  15.901   5.929
 5454POPC   GL270370  41.568  16.220   5.938
 5454POPC   C1A70371  41.792  15.833   6.375
 5454POPC   D2A70372  41.926  15.745   6.758
 5454POPC   C3A70373  41.729  15.967   7.043
 5454POPC   C4A70374  41.677  15.829   7.439
 5454POPC   C1B70375  41.319  16.029   6.310
 5454POPC   C2B70376  41.294  16.072   6.780
 5454POPC   C3B70377  41.238  15.985   7.221
 5454POPC   C4B70378  41.162  15.901   7.677
 5455POPC   NC370379  38.815  41.124   5.232
 5455POPC   PO470380  39.207  40.616   5.426
 5455POPC   GL170381  39.351  40.672   5.852
 5455POPC   GL270382  39.602  40.462   5.804
 5455POPC   C1A70383  39.394  40.768   6.285
 5455POPC   D2A70384  39.111  41.032   6.549
 5455POPC   C3A70385  39.015  40.941   6.980
 5455POPC   C4A70386  39.232  40.805   7.329
 5455POPC   C1B70387  39.617  40.271   6.202
 5455POPC   C2B70388  39.701  40.426   6.621
 5455POPC   C3B70389  39.565  40.495   7.063
 5455POPC   C4B70390  39.621  40.537   7.526
 5456POPC   NC370391  37.537  26.296   5.477
 5456POPC   PO470392  38.081  25.928   5.421
 5456POPC   GL170393  37.795  25.968   5.765
 5456POPC   GL270394  37.519  25.789   5.617
 5456POPC   C1A70395  37.675  26.185   6.151
 5456POPC   D2A70396  37.400  26.303   6.474
 5456POPC   C3A70397  37.477  26.184   6.887
 5456POPC   C4A70398  37.744  26.039   7.210
 5456POPC   C1B70399  37.440  25.749   6.083
 5456POPC   C2B70400  37.572  25.774   6.536
 5456POPC   C3B70401  37.425  25.683   6.983
 5456POPC   C4B70402  37.328  25.781   7.433
 5457POPC   NC370403  27.102   3.339   5.090
 5457POPC   PO470404  26.869   3.816   5.506
 5457POPC   GL170405  26.959   3.838   5.899
 5457POPC   GL270406  26.737   3.578   5.945
 5457POPC   C1A70407  27.051   3.748   6.340
 5457POPC   D2A70408  27.167   3.381   6.526
 5457POPC   C3A70409  26.953   3.406   6.888
 5457POPC   C4A70410  27.157   3.268   7.222
 5457POPC   C1B70411  26.712   3.316   6.291
 5457POPC   C2B70412  26.451   3.324   6.669
 5457POPC   C3B70413  26.468   3.497   7.078
 5457POPC   C4B70414  26.781   3.803   7.198
 5458POPC   NC370415   1.633   8.379   5.425
 5458POPC   PO470416   0.937   8.214   5.331
 5458POPC   GL170417   1.037   8.311   5.789
 5458POPC   GL270418   1.395   8.325   5.880
 5458POPC   C1A70419   1.013   8.378   6.261
 5458POPC   D2A70420   1.182   8.243   6.667
 5458POPC   C3A70421   1.170   8.454   7.075
 5458POPC   C4A70422   0.928   8.300   7.458
 5458POPC   C1B70423   1.426   8.054   6.238
 5458POPC   C2B70424   1.558   7.864   6.621
 5458POPC   C3B70425   1.415   7.829   7.053
 5458POPC   C4B70426   1.381   8.111   7.407
 5459POPC   NC370427  37.089  43.748   5.617
 5459POPC   PO470428  36.646  44.213   5.462
 5459POPC   GL170429  36.698  43.918   5.869
 5459POPC   GL270430  36.697  43.503   5.876
 5459POPC   C1A70431  36.825  44.047   6.302
 5459POPC   D2A70432  37.164  44.226   6.558
 5459POPC   C3A70433  37.202  43.978   6.881
 5459POPC   C4A70434  37.080  43.945   7.267
 5459POPC   C1B70435  36.784  43.525   6.312
 5459POPC   C2B70436  36.767  43.705   6.724
 5459POPC   C3B70437  36.679  43.674   7.159
 5459POPC   C4B70438  36.861  43.624   7.602
 5460POPC   NC370439  17.910  18.697   5.393
 5460POPC   PO470440  18.334  18.197   5.297
 5460POPC   GL170441  18.378  18.272   5.766
 5460POPC   GL270442  18.655  18.518   5.857
 5460POPC   C1A70443  18.208  18.155   6.206
 5460POPC   D2A70444  18.108  18.332   6.620
 5460POPC   C3A70445  18.140  18.113   7.027
 5460POPC   C4A70446  18.102  18.266   7.433
 5460POPC   C1B70447  18.727  18.154   6.131
 5460POPC   C2B70448  18.612  18.201   6.532
 5460POPC   C3B70449  18.711  18.042   6.899
 5460POPC   C4B70450  18.631  18.184   7.272
 5461POPC   NC370451  20.925  40.881   5.545
 5461POPC   PO470452  20.515  40.371   5.305
 5461POPC   GL170453  20.524  40.557   5.753
 5461POPC   GL270454  20.382  40.899   5.784
 5461POPC   C1A70455  20.495  40.390   6.209
 5461POPC   D2A70456  20.741  40.558   6.584
 5461POPC   C3A70457  20.655  40.723   7.023
 5461POPC   C4A70458  20.900  40.573   7.384
 5461POPC   C1B70459  20.578  40.907   6.197
 5461POPC   C2B70460  20.739  41.250   6.433
 5461POPC   C3B70461  20.879  41.482   6.791
 5461POPC   C4B70462  20.908  41.178   7.123
 5462POPC   NC370463  13.398  10.996   5.561
 5462POPC   PO470464  13.912  10.655   5.237
 5462POPC   GL170465  13.718  10.518   5.703
 5462POPC   GL270466  13.423  10.638   5.910
 5462POPC   C1A70467  13.683  10.307   6.179
 5462POPC   D2A70468  13.463  10.317   6.610
 5462POPC   C3A70469  13.710  10.201   7.016
 5462POPC   C4A70470  13.806  10.328   7.472
 5462POPC   C1B70471  13.534  10.799   6.333
 5462POPC   C2B70472  13.562  11.033   6.714
 5462POPC   C3B70473  13.378  10.908   7.069
 5462POPC   C4B70474  13.493  10.714   7.431
 5463POPC   NC370475  33.176  29.575   5.378
 5463POPC   PO470476  32.771  30.087   5.096
 5463POPC   GL170477  32.922  30.073   5.551
 5463POPC   GL270478  33.283  30.014   5.663
 5463POPC   C1A70479  32.895  29.944   5.995
 5463POPC   D2A70480  33.096  29.904   6.401
 5463POPC   C3A70481  32.879  30.055   6.762
 5463POPC   C4A70482  32.951  29.975   7.186
 5463POPC   C1B70483  33.420  29.747   6.025
 5463POPC   C2B70484  33.562  29.703   6.480
 5463POPC   C3B70485  33.405  29.837   6.925
 5463POPC   C4B70486  33.318  29.633   7.356
 5464POPC   NC370487  13.264   0.347   5.569
 5464POPC   PO470488  12.722   0.578   5.398
 5464POPC   GL170489  12.848   0.561   5.815
 5464POPC   GL270490  13.115   0.799   5.809
 5464POPC   C1A70491  12.667   0.475   6.233
 5464POPC   D2A70492  12.422   0.341   6.603
 5464POPC   C3A70493  12.666   0.229   6.977
 5464POPC   C4A70494  12.707   0.395   7.414
 5464POPC   C1B70495  13.166   0.594   6.226
 5464POPC   C2B70496  12.964   0.551   6.654
 5464POPC   C3B70497  13.101   0.503   7.077
 5464POPC   C4B70498  13.136   0.089   7.291
 5465POPC   NC370499  11.844  20.969   5.729
 5465POPC   PO470500  12.215  20.375   5.522
 5465POPC   GL170501  11.975  20.483   5.874
 5465POPC   GL270502  12.279  20.646   6.017
 5465POPC   C1A70503  11.877  20.494   6.330
 5465POPC   D2A70504  12.165  20.557   6.646
 5465POPC   C3A70505  12.370  20.253   6.803
 5465POPC   C4A70506  12.411  20.315   7.217
 5465POPC   C1B70507  12.131  20.963   6.338
 5465POPC   C2B70508  11.850  20.950   6.678
 5465POPC   C3B70509  12.000  20.801   7.075
 5465POPC   C4B70510  12.282  20.773   7.430
 5466POPC   NC370511  33.097  31.661   5.392
 5466POPC   PO470512  33.135  30.968   5.400
 5466POPC   GL170513  33.173  31.289   5.755
 5466POPC   GL270514  32.855  31.445   5.793
 5466POPC   C1A70515  33.225  31.364   6.203
 5466POPC   D2A70516  32.968  31.236   6.573
 5466POPC   C3A70517  33.022  31.452   6.944
 5466POPC   C4A70518  33.280  31.384   7.284
 5466POPC   C1B70519  32.782  31.603   6.186
 5466POPC   C2B70520  32.997  31.772   6.544
 5466POPC   C3B70521  32.996  31.964   6.923
 5466POPC   C4B70522  33.019  31.800   7.340
 5467POPC   NC370523  40.573  23.594   5.441
 5467POPC   PO470524  40.768  24.257   5.308
 5467POPC   GL170525  40.833  23.961   5.655
 5467POPC   GL270526  40.587  24.062   5.827
 5467POPC   C1A70527  40.869  23.672   6.045
 5467POPC   D2A70528  40.606  23.478   6.351
 5467POPC   C3A70529  40.683  23.517   6.797
 5467POPC   C4A70530  40.758  23.474   7.240
 5467POPC   C1B70531  40.462  23.973   6.205
 5467POPC   C2B70532  40.378  23.899   6.619
 5467POPC   C3B70533  40.274  24.201   6.904
 5467POPC   C4B70534  40.512  24.289   7.264
 5468POPC   NC370535   1.459  21.009   5.226
 5468POPC   PO470536   1.078  20.522   5.284
 5468POPC   GL170537   1.053  20.851   5.628
 5468POPC   GL270538   1.366  21.028   5.743
 5468POPC   C1A70539   0.959  20.779   6.088
 5468POPC   D2A70540   1.217  20.635   6.448
 5468POPC   C3A70541   1.099  20.630   6.889
 5468POPC   C4A70542   1.025  20.593   7.327
 5468POPC   C1B70543   1.534  21.003   6.190
 5468POPC   C2B70544   1.500  21.029   6.663
 5468POPC   C3B70545   1.627  20.789   7.020
 5468POPC   C4B70546   1.485  20.767   7.447
 5469POPC   NC370547  42.614  42.150   5.368
 5469POPC   PO470548  42.045  42.496   5.222
 5469POPC   GL170549  42.250  42.515   5.694
 5469POPC   GL270550  42.473  42.234   5.843
 5469POPC   C1A70551  42.367  42.618   6.150
 5469POPC   D2A70552  42.622  42.414   6.506
 5469POPC   C3A70553  42.416  42.371   6.934
 5469POPC   C4A70554  42.268  42.607   7.283
 5469POPC   C1B70555  42.179  41.936   6.031
 5469POPC   C2B70556  41.921  41.943   6.393
 5469POPC   C3B70557  42.017  41.987   6.841
 5469POPC   C4B70558  42.230  41.993   7.272
 5470POPC   NC370559  44.948   1.598   5.402
 5470POPC   PO470560  44.913   2.263   5.252
 5470POPC   GL170561  44.860   2.166   5.715
 5470POPC   GL270562  44.689   1.824   5.786
 5470POPC   C1A70563  44.768   2.220   6.175
 5470POPC   D2A70564  44.645   1.936   6.525
 5470POPC   C3A70565  44.679   2.139   6.962
 5470POPC   C4A70566  44.516   1.888   7.287
 5470POPC   C1B70567  44.976   1.742   6.110
 5470POPC   C2B70568   0.146   1.978   6.470
 5470POPC   C3B70569   0.031   1.804   6.825
 5470POPC   C4B70570   0.082   1.725   7.207
 5471POPC   NC370571   3.909  39.815   5.472
 5471POPC   PO470572   4.495  40.158   5.432
 5471POPC   GL170573   4.391  39.869   5.780
 5471POPC   GL270574   4.122  39.670   5.914
 5471POPC   C1A70575   4.503  39.937   6.204
 5471POPC   D2A70576   4.499  40.255   6.474
 5471POPC   C3A70577   4.414  40.266   6.931
 5471POPC   C4A70578   4.411  40.210   7.367
 5471POPC   C1B70579   4.159  39.607   6.348
 5471POPC   C2B70580   4.283  39.826   6.692
 5471POPC   C3B70581   4.499  39.768   7.074
 5471POPC   C4B70582   4.177  39.751   7.378
 5472POPC   NC370583  38.213  22.011   5.154
 5472POPC   PO470584  38.154  21.416   5.513
 5472POPC   GL170585  38.403  21.577   5.870
 5472POPC   GL270586  38.499  21.242   5.981
 5472POPC   C1A70587  38.538  21.600   6.322
 5472POPC   D2A70588  38.328  21.399   6.685
 5472POPC   C3A70589  38.606  21.475   7.011
 5472POPC   C4A70590  38.692  21.283   7.368
 5472POPC   C1B70591  38.095  21.142   6.184
 5472POPC   C2B70592  37.906  21.072   6.597
 5472POPC   C3B70593  38.031  21.028   7.032
 5472POPC   C4B70594  38.153  21.338   7.301
 5473POPC   NC370595  28.163   1.852   5.515
 5473POPC   PO470596  28.696   2.106   5.079
 5473POPC   GL170597  28.645   2.029   5.595
 5473POPC   GL270598  28.434   2.309   5.709
 5473POPC   C1A70599  28.520   1.752   6.049
 5473POPC   D2A70600  28.487   1.533   6.466
 5473POPC   C3A70601  28.332   1.664   6.886
 5473POPC   C4A70602  28.556   1.810   7.272
 5473POPC   C1B70603  28.341   2.207   6.131
 5473POPC   C2B70604  28.160   1.980   6.501
 5473POPC   C3B70605  28.147   2.136   6.949
 5473POPC   C4B70606  28.073   2.493   7.212
 5474POPC   NC370607   4.942   4.614   5.345
 5474POPC   PO470608   5.599   4.433   5.325
 5474POPC   GL170609   5.372   4.435   5.759
 5474POPC   GL270610   5.006   4.500   5.828
 5474POPC   C1A70611   5.356   4.283   6.207
 5474POPC   D2A70612   5.527   4.189   6.640
 5474POPC   C3A70613   5.273   4.034   6.983
 5474POPC   C4A70614   5.318   4.373   7.314
 5474POPC   C1B70615   4.846   4.257   6.163
 5474POPC   C2B70616   4.956   4.157   6.571
 5474POPC   C3B70617   4.900   4.370   6.968
 5474POPC   C4B70618   4.881   4.118   7.335
 5475POPC   NC370619  11.305  15.879   5.582
 5475POPC   PO470620  11.111  16.499   5.319
 5475POPC   GL170621  11.093  16.380   5.763
 5475POPC   GL270622  11.441  16.300   5.885
 5475POPC   C1A70623  10.970  16.196   6.184
 5475POPC   D2A70624  10.978  15.826   6.494
 5475POPC   C3A70625  11.041  15.853   6.940
 5475POPC   C4A70626  11.091  15.784   7.363
 5475POPC   C1B70627  11.448  15.975   6.223
 5475POPC   C2B70628  11.466  15.957   6.665
 5475POPC   C3B70629  11.526  15.741   7.053
 5475POPC   C4B70630  11.656  16.036   7.342
 5476POPC   NC370631  44.663  36.472   5.402
 5476POPC   PO470632  44.382  37.108   5.445
 5476POPC   GL170633  44.563  36.845   5.782
 5476POPC   GL270634  44.418  36.549   5.919
 5476POPC   C1A70635  44.882  36.915   6.107
 5476POPC   D2A70636   0.160  37.016   6.481
 5476POPC   C3A70637  44.984  36.790   6.836
 5476POPC   C4A70638  44.965  36.804   7.275
 5476POPC   C1B70639  44.430  36.697   6.364
 5476POPC   C2B70640  44.451  36.735   6.847
 5476POPC   C3B70641  44.453  36.705   7.316
 5476POPC   C4B70642  44.371  36.740   7.791
 5477POPC   NC370643   2.097   0.494   5.424
 5477POPC   PO470644   1.588   0.133   5.211
 5477POPC   GL170645   1.693   0.257   5.710
 5477POPC   GL270646   1.854   0.590   5.843
 5477POPC   C1A70647   1.874   0.215   6.185
 5477POPC   D2A70648   2.047   0.449   6.605
 5477POPC   C3A70649   1.965   0.261   7.066
 5477POPC   C4A70650   1.965   0.330   7.540
 5477POPC   C1B70651   1.693   0.702   6.240
 5477POPC   C2B70652   1.748   0.901   6.630
 5477POPC   C3B70653   1.966   0.774   7.015
 5477POPC   C4B70654   1.841   0.812   7.417
 5478POPC   NC370655   7.037  25.776   5.721
 5478POPC   PO470656   7.574  26.048   5.304
 5478POPC   GL170657   7.421  26.106   5.750
 5478POPC   GL270658   7.081  26.291   5.805
 5478POPC   C1A70659   7.510  25.883   6.159
 5478POPC   D2A70660   7.274  25.604   6.433
 5478POPC   C3A70661   7.371  25.711   6.841
 5478POPC   C4A70662   7.438  25.787   7.276
 5478POPC   C1B70663   7.118  26.197   6.223
 5478POPC   C2B70664   7.342  26.258   6.588
 5478POPC   C3B70665   7.330  26.226   7.021
 5478POPC   C4B70666   7.148  26.186   7.433
 5479POPC   NC370667  17.334   4.502   5.528
 5479POPC   PO470668  17.658   3.950   5.398
 5479POPC   GL170669  17.657   4.118   5.824
 5479POPC   GL270670  17.778   4.460   5.826
 5479POPC   C1A70671  17.423   4.132   6.226
 5479POPC   D2A70672  17.127   3.976   6.553
 5479POPC   C3A70673  17.295   4.080   6.975
 5479POPC   C4A70674  17.101   4.292   7.343
 5479POPC   C1B70675  17.945   4.315   6.229
 5479POPC   C2B70676  17.802   4.281   6.628
 5479POPC   C3B70677  17.861   4.222   7.039
 5479POPC   C4B70678  17.604   4.356   7.383
 5480POPC   NC370679  37.120  41.716   5.168
 5480POPC   PO470680  36.760  41.158   5.395
 5480POPC   GL170681  36.832  41.450   5.766
 5480POPC   GL270682  36.555  41.677   5.837
 5480POPC   C1A70683  36.907  41.609   6.216
 5480POPC   D2A70684  37.195  41.615   6.572
 5480POPC   C3A70685  37.052  41.467   6.962
 5480POPC   C4A70686  37.258  41.246   7.285
 5480POPC   C1B70687  36.408  41.583   6.286
 5480POPC   C2B70688  36.639  41.634   6.692
 5480POPC   C3B70689  36.691  41.919   7.075
 5480POPC   C4B70690  36.738  41.962   7.563
 5481POPC   NC370691  20.127  23.295   5.313
 5481POPC   PO470692  20.250  22.620   5.290
 5481POPC   GL170693  20.233  22.865   5.682
 5481POPC   GL270694  20.008  23.162   5.771
 5481POPC   C1A70695  20.193  22.874   6.136
 5481POPC   D2A70696  20.038  23.027   6.529
 5481POPC   C3A70697  20.075  22.797   6.890
 5481POPC   C4A70698  19.745  22.822   7.148
 5481POPC   C1B70699  19.749  23.215   6.146
 5481POPC   C2B70700  19.556  23.299   6.567
 5481POPC   C3B70701  19.601  23.315   7.027
 5481POPC   C4B70702  19.942  23.297   7.324
 5482POPC   NC370703  18.057  14.578   5.782
 5482POPC   PO470704  18.283  14.276   5.212
 5482POPC   GL170705  18.385  14.211   5.705
 5482POPC   GL270706  18.514  14.502   5.983
 5482POPC   C1A70707  18.243  14.064   6.129
 5482POPC   D2A70708  18.042  14.102   6.538
 5482POPC   C3A70709  18.241  14.293   6.885
 5482POPC   C4A70710  18.157  14.249   7.310
 5482POPC   C1B70711  18.737  14.740   6.315
 5482POPC   C2B70712  18.641  14.703   6.776
 5482POPC   C3B70713  18.532  14.583   7.229
 5482POPC   C4B70714  18.440  14.726   7.659
 5483POPC   NC370715  36.491  19.013   5.435
 5483POPC   PO470716  37.125  19.302   5.421
 5483POPC   GL170717  36.859  19.126   5.785
 5483POPC   GL270718  36.589  19.394   5.756
 5483POPC   C1A70719  36.739  18.815   6.167
 5483POPC   D2A70720  36.962  18.686   6.578
 5483POPC   C3A70721  36.882  18.895   6.967
 5483POPC   C4A70722  37.185  19.123   7.200
 5483POPC   C1B70723  36.518  19.277   6.163
 5483POPC   C2B70724  36.514  19.330   6.586
 5483POPC   C3B70725  36.492  19.237   6.995
 5483POPC   C4B70726  36.402  18.899   7.239
 5484POPC   NC370727   0.638  38.770   5.609
 5484POPC   PO470728   0.216  38.252   5.329
 5484POPC   GL170729   0.263  38.449   5.751
 5484POPC   GL270730   0.567  38.273   5.817
 5484POPC   C1A70731   0.419  38.576   6.199
 5484POPC   D2A70732   0.526  38.411   6.591
 5484POPC   C3A70733   0.332  38.339   6.956
 5484POPC   C4A70734   0.401  38.577   7.324
 5484POPC   C1B70735   0.617  38.070   6.216
 5484POPC   C2B70736   0.719  37.950   6.628
 5484POPC   C3B70737   0.812  38.125   7.031
 5484POPC   C4B70738   0.757  38.232   7.473
 5485POPC   NC370739  40.586  28.968   5.393
 5485POPC   PO470740  40.428  29.715   5.388
 5485POPC   GL170741  40.549  29.341   5.750
 5485POPC   GL270742  40.721  29.015   5.883
 5485POPC   C1A70743  40.762  29.394   6.200
 5485POPC   D2A70744  40.973  29.254   6.590
 5485POPC   C3A70745  41.039  29.382   6.997
 5485POPC   C4A70746  40.767  29.544   7.334
 5485POPC   C1B70747  41.049  28.907   6.222
 5485POPC   C2B70748  41.244  28.829   6.657
 5485POPC   C3B70749  40.936  28.872   7.003
 5485POPC   C4B70750  40.496  28.797   7.106
 5486POPC   NC370751  22.009  38.006   5.506
 5486POPC   PO470752  22.119  38.694   5.426
 5486POPC   GL170753  22.012  38.498   5.804
 5486POPC   GL270754  22.271  38.306   5.849
 5486POPC   C1A70755  22.150  38.549   6.276
 5486POPC   D2A70756  22.485  38.560   6.623
 5486POPC   C3A70757  22.316  38.556   7.022
 5486POPC   C4A70758  21.951  38.790   7.087
 5486POPC   C1B70759  22.067  38.053   6.160
 5486POPC   C2B70760  21.841  38.096   6.506
 5486POPC   C3B70761  21.953  38.244   6.881
 5486POPC   C4B70762  22.207  38.125   7.248
 5487POPC   NC370763  37.295  28.985   5.294
 5487POPC   PO470764  37.947  29.230   5.393
 5487POPC   GL170765  37.764  29.258   5.794
 5487POPC   GL270766  37.844  28.942   5.863
 5487POPC   C1A70767  37.528  29.344   6.184
 5487POPC   D2A70768  37.548  29.186   6.622
 5487POPC   C3A70769  37.678  29.387   7.009
 5487POPC   C4A70770  37.360  29.555   7.290
 5487POPC   C1B70771  38.007  29.175   6.233
 5487POPC   C2B70772  38.040  29.098   6.653
 5487POPC   C3B70773  37.956  28.957   7.045
 5487POPC   C4B70774  38.193  29.273   7.239
 5488POPC   NC370775  33.217  10.071   5.133
 5488POPC   PO470776  32.908   9.449   5.267
 5488POPC   GL170777  33.007   9.640   5.681
 5488POPC   GL270778  32.854   9.970   5.752
 5488POPC   C1A70779  33.014   9.593   6.156
 5488POPC   D2A70780  33.157   9.779   6.570
 5488POPC   C3A70781  33.245   9.629   6.969
 5488POPC   C4A70782  33.110   9.749   7.380
 5488POPC   C1B70783  32.631   9.979   6.179
 5488POPC   C2B70784  32.637   9.896   6.654
 5488POPC   C3B70785  32.727  10.035   7.103
 5488POPC   C4B70786  32.654   9.902   7.556
 5489POPC   NC370787  41.770  13.364   5.330
 5489POPC   PO470788  41.557  14.003   5.304
 5489POPC   GL170789  41.582  13.717   5.730
 5489POPC   GL270790  41.737  13.397   5.819
 5489POPC   C1A70791  41.393  13.739   6.158
 5489POPC   D2A70792  41.441  13.929   6.556
 5489POPC   C3A70793  41.470  13.751   6.942
 5489POPC   C4A70794  41.248  13.729   7.334
 5489POPC   C1B70795  41.631  13.305   6.210
 5489POPC   C2B70796  41.737  13.459   6.594
 5489POPC   C3B70797  41.668  13.278   6.974
 5489POPC   C4B70798  41.684  13.464   7.378
 5490POPC   NC370799   2.189  38.177   5.415
 5490POPC   PO470800   1.783  38.671   5.588
 5490POPC   GL170801   1.992  38.505   5.895
 5490POPC   GL270802   1.867  38.193   5.843
 5490POPC   C1A70803   2.137  38.657   6.297
 5490POPC   D2A70804   1.886  38.704   6.661
 5490POPC   C3A70805   1.984  38.599   7.087
 5490POPC   C4A70806   1.896  38.796   7.481
 5490POPC   C1B70807   2.122  38.158   6.230
 5490POPC   C2B70808   2.182  38.302   6.678
 5490POPC   C3B70809   2.288  38.201   7.102
 5490POPC   C4B70810   2.382  38.033   7.506
 5491POPC   NC370811   7.882  13.465   5.373
 5491POPC   PO470812   8.396  13.802   5.202
 5491POPC   GL170813   8.236  13.684   5.682
 5491POPC   GL270814   7.899  13.807   5.757
 5491POPC   C1A70815   8.384  13.582   6.138
 5491POPC   D2A70816   8.313  13.395   6.589
 5491POPC   C3A70817   8.333  13.657   6.962
 5491POPC   C4A70818   8.393  13.536   7.381
 5491POPC   C1B70819   7.877  13.515   6.112
 5491POPC   C2B70820   7.765  13.512   6.560
 5491POPC   C3B70821   7.822  13.482   7.023
 5491POPC   C4B70822   7.883  13.588   7.454
 5492POPC   NC370823  15.612   8.655   5.465
 5492POPC   PO470824  16.234   8.403   5.323
 5492POPC   GL170825  16.049   8.247   5.746
 5492POPC   GL270826  15.698   8.173   5.762
 5492POPC   C1A70827  15.982   8.068   6.169
 5492POPC   D2A70828  15.905   8.223   6.569
 5492POPC   C3A70829  16.032   8.404   6.956
 5492POPC   C4A70830  16.241   8.196   7.286
 5492POPC   C1B70831  15.456   8.271   6.135
 5492POPC   C2B70832  15.418   8.375   6.554
 5492POPC   C3B70833  15.538   8.194   6.947
 5492POPC   C4B70834  15.698   8.277   7.365
 5493POPC   NC370835  35.888  40.371   5.497
 5493POPC   PO470836  35.821  41.110   5.346
 5493POPC   GL170837  35.931  40.912   5.749
 5493POPC   GL270838  36.239  40.694   5.751
 5493POPC   C1A70839  36.009  40.924   6.207
 5493POPC   D2A70840  35.756  40.871   6.596
 5493POPC   C3A70841  35.995  40.948   6.970
 5493POPC   C4A70842  36.315  40.833   7.221
 5493POPC   C1B70843  36.347  40.523   6.170
 5493POPC   C2B70844  36.312  40.650   6.618
 5493POPC   C3B70845  36.359  40.384   7.000
 5493POPC   C4B70846  36.277  40.339   7.444
 5494POPC   NC370847  20.284  42.407   5.364
 5494POPC   PO470848  20.741  41.984   5.424
 5494POPC   GL170849  20.706  42.144   5.849
 5494POPC   GL270850  20.393  42.267   5.823
 5494POPC   C1A70851  20.478  42.138   6.293
 5494POPC   D2A70852  20.259  42.167   6.698
 5494POPC   C3A70853  20.550  42.274   6.990
 5494POPC   C4A70854  20.651  42.093   7.365
 5494POPC   C1B70855  20.209  42.559   6.110
 5494POPC   C2B70856  20.391  42.619   6.532
 5494POPC   C3B70857  20.243  42.694   6.950
 5494POPC   C4B70858  20.406  42.584   7.361
 5495POPC   NC370859  44.287  27.398   5.388
 5495POPC   PO470860  44.968  27.678   5.520
 5495POPC   GL170861  44.770  27.729   5.869
 5495POPC   GL270862  44.455  27.592   5.864
 5495POPC   C1A70863  44.837  27.581   6.251
 5495POPC   D2A70864  44.599  27.556   6.600
 5495POPC   C3A70865  44.884  27.565   6.907
 5495POPC   C4A70866  44.929  27.657   7.323
 5495POPC   C1B70867  44.433  27.256   6.196
 5495POPC   C2B70868  44.397  27.058   6.600
 5495POPC   C3B70869  44.519  27.218   7.011
 5495POPC   C4B70870  44.483  27.248   7.478
 5496POPC   NC370871  40.017  38.120   5.675
 5496POPC   PO470872  39.596  37.781   5.281
 5496POPC   GL170873  39.692  37.704   5.716
 5496POPC   GL270874  39.971  37.492   5.671
 5496POPC   C1A70875  39.860  37.736   6.173
 5496POPC   D2A70876  40.197  37.829   6.486
 5496POPC   C3A70877  40.215  37.801   6.943
 5496POPC   C4A70878  40.068  37.662   7.384
 5496POPC   C1B70879  40.184  37.368   6.032
 5496POPC   C2B70880  40.099  37.322   6.461
 5496POPC   C3B70881  40.059  37.314   6.911
 5496POPC   C4B70882  40.346  37.258   7.247
 5497POPC   NC370883  14.673  24.707   5.594
 5497POPC   PO470884  14.481  24.106   5.395
 5497POPC   GL170885  14.442  24.303   5.797
 5497POPC   GL270886  14.161  24.532   5.862
 5497POPC   C1A70887  14.552  24.471   6.191
 5497POPC   D2A70888  14.423  24.363   6.588
 5497POPC   C3A70889  14.462  24.628   6.900
 5497POPC   C4A70890  14.632  24.596   7.290
 5497POPC   C1B70891  14.034  24.353   6.228
 5497POPC   C2B70892  13.962  24.587   6.576
 5497POPC   C3B70893  13.974  24.415   6.943
 5497POPC   C4B70894  14.194  24.338   7.269
 5498POPC   NC370895   0.827   1.329   5.533
 5498POPC   PO470896   0.437   0.896   5.207
 5498POPC   GL170897   0.437   1.004   5.723
 5498POPC   GL270898   0.481   1.374   5.884
 5498POPC   C1A70899   0.377   1.044   6.221
 5498POPC   D2A70900   0.252   1.425   6.448
 5498POPC   C3A70901   0.327   1.393   6.892
 5498POPC   C4A70902   0.502   1.072   7.144
 5498POPC   C1B70903   0.777   1.444   6.203
 5498POPC   C2B70904   0.773   1.285   6.631
 5498POPC   C3B70905   0.824   1.488   7.016
 5498POPC   C4B70906   0.548   1.536   7.373
 5499POPC   NC370907  17.253  43.866   5.059
 5499POPC   PO470908  17.179  43.500   5.621
 5499POPC   GL170909  16.807  43.757   5.814
 5499POPC   GL270910  16.450  43.716   5.776
 5499POPC   C1A70911  16.778  43.971   6.226
 5499POPC   D2A70912  16.796  43.756   6.654
 5499POPC   C3A70913  16.929  43.940   7.058
 5499POPC   C4A70914  16.667  44.100   7.399
 5499POPC   C1B70915  16.352  43.658   6.245
 5499POPC   C2B70916  16.322  43.544   6.710
 5499POPC   C3B70917  16.527  43.616   7.129
 5499POPC   C4B70918  16.603  43.253   7.448
 5500POPC   NC370919  20.890  39.304   5.349
 5500POPC   PO470920  20.258  38.955   5.369
 5500POPC   GL170921  20.494  39.154   5.742
 5500POPC   GL270922  20.861  39.098   5.815
 5500POPC   C1A70923  20.602  39.387   6.141
 5500POPC   D2A70924  20.565  39.303   6.566
 5500POPC   C3A70925  20.742  39.279   6.963
 5500POPC   C4A70926  20.583  39.359   7.359
 5500POPC   C1B70927  20.895  38.975   6.274
 5500POPC   C2B70928  21.027  38.933   6.715
 5500POPC   C3B70929  21.082  38.950   7.179
 5500POPC   C4B70930  20.859  39.042   7.618
 5501POPC   NC370931   4.916  27.078   5.395
 5501POPC   PO470932   5.235  26.535   5.198
 5501POPC   GL170933   5.223  26.764   5.713
 5501POPC   GL270934   4.981  27.011   5.886
 5501POPC   C1A70935   5.240  26.722   6.220
 5501POPC   D2A70936   5.068  26.759   6.653
 5501POPC   C3A70937   5.320  26.980   6.968
 5501POPC   C4A70938   5.312  26.907   7.428
 5501POPC   C1B70939   4.742  26.943   6.262
 5501POPC   C2B70940   4.620  27.108   6.659
 5501POPC   C3B70941   4.818  27.146   7.050
 5501POPC   C4B70942   4.778  26.836   7.329
 5502POPC   NC370943  17.962   9.711   5.195
 5502POPC   PO470944  18.508   9.781   5.497
 5502POPC   GL170945  18.150   9.836   5.773
 5502POPC   GL270946  17.858   9.635   5.767
 5502POPC   C1A70947  18.143   9.626   6.201
 5502POPC   D2A70948  18.341   9.663   6.594
 5502POPC   C3A70949  18.493   9.336   6.868
 5502POPC   C4A70950  18.351   9.610   7.178
 5502POPC   C1B70951  17.796   9.968   6.149
 5502POPC   C2B70952  17.847   9.851   6.585
 5502POPC   C3B70953  18.073  10.007   6.954
 5502POPC   C4B70954  18.041   9.972   7.402
 5503POPC   NC370955  43.478  22.506   5.420
 5503POPC   PO470956  43.990  21.968   5.376
 5503POPC   GL170957  43.822  22.017   5.788
 5503POPC   GL270958  43.794  22.366   5.798
 5503POPC   C1A70959  43.838  22.080   6.236
 5503POPC   D2A70960  44.049  22.181   6.609
 5503POPC   C3A70961  43.814  22.134   6.986
 5503POPC   C4A70962  43.709  21.760   7.186
 5503POPC   C1B70963  43.748  22.599   6.175
 5503POPC   C2B70964  43.633  22.509   6.590
 5503POPC   C3B70965  43.452  22.507   6.979
 5503POPC   C4B70966  43.646  22.463   7.398
 5504POPC   NC370967  23.658  39.610   5.626
 5504POPC   PO470968  24.054  40.066   5.559
 5504POPC   GL170969  23.811  39.984   5.937
 5504POPC   GL270970  23.444  39.968   5.965
 5504POPC   C1A70971  23.847  39.712   6.266
 5504POPC   D2A70972  24.153  39.788   6.557
 5504POPC   C3A70973  23.902  39.806   6.901
 5504POPC   C4A70974  23.838  40.078   7.244
 5504POPC   C1B70975  23.388  39.970   6.442
 5504POPC   C2B70976  23.398  40.033   6.913
 5504POPC   C3B70977  23.367  39.969   7.359
 5504POPC   C4B70978  23.641  39.898   7.737
 5505POPC   NC370979  42.735  15.899   5.436
 5505POPC   PO470980  43.304  15.535   5.488
 5505POPC   GL170981  43.268  15.821   5.839
 5505POPC   GL270982  42.947  15.978   5.902
 5505POPC   C1A70983  43.153  15.687   6.287
 5505POPC   D2A70984  42.867  15.914   6.603
 5505POPC   C3A70985  42.963  15.825   7.039
 5505POPC   C4A70986  43.380  15.687   7.124
 5505POPC   C1B70987  43.217  16.183   6.235
 5505POPC   C2B70988  43.177  16.355   6.673
 5505POPC   C3B70989  43.048  16.326   7.135
 5505POPC   C4B70990  42.926  16.266   7.581
 5506POPC   NC370991  33.324  11.506   5.499
 5506POPC   PO470992  33.053  10.863   5.385
 5506POPC   GL170993  32.895  11.141   5.697
 5506POPC   GL270994  33.091  11.384   5.928
 5506POPC   C1A70995  32.748  11.059   6.101
 5506POPC   D2A70996  32.981  11.150   6.472
 5506POPC   C3A70997  32.869  11.047   6.886
 5506POPC   C4A70998  33.105  11.073   7.261
 5506POPC   C1B70999  33.101  11.623   6.296
 5506POPC   C2B71000  33.044  11.607   6.717
 5506POPC   C3B71001  32.946  11.535   7.111
 5506POPC   C4B71002  33.177  11.761   7.381
 5507POPC   NC371003  25.331  20.942   5.530
 5507POPC   PO471004  25.347  20.236   5.453
 5507POPC   GL171005  25.341  20.435   5.862
 5507POPC   GL271006  25.104  20.696   5.896
 5507POPC   C1A71007  25.306  20.468   6.317
 5507POPC   D2A71008  25.055  20.280   6.649
 5507POPC   C3A71009  25.246  20.457   7.002
 5507POPC   C4A71010  25.698  20.588   7.040
 5507POPC   C1B71011  25.188  20.979   6.225
 5507POPC   C2B71012  25.301  20.906   6.652
 5507POPC   C3B71013  25.043  21.084   6.965
 5507POPC   C4B71014  24.805  20.776   7.185
 5508POPC   NC371015   4.820  16.824   5.486
 5508POPC   PO471016   5.471  16.587   5.590
 5508POPC   GL171017   5.233  16.881   5.832
 5508POPC   GL271018   4.908  16.740   5.976
 5508POPC   C1A71019   5.184  17.044   6.245
 5508POPC   D2A71020   4.828  16.892   6.496
 5508POPC   C3A71021   4.943  16.798   6.904
 5508POPC   C4A71022   5.356  16.957   7.086
 5508POPC   C1B71023   5.203  16.505   6.229
 5508POPC   C2B71024   5.323  16.603   6.632
 5508POPC   C3B71025   5.282  16.427   7.038
 5508POPC   C4B71026   4.981  16.550   7.351
 5509POPC   NC371027   1.054  26.043   5.207
 5509POPC   PO471028   1.481  26.448   5.570
 5509POPC   GL171029   1.165  26.169   5.717
 5509POPC   GL271030   0.938  26.326   5.924
 5509POPC   C1A71031   1.275  25.902   6.084
 5509POPC   D2A71032   1.224  25.773   6.518
 5509POPC   C3A71033   1.454  25.883   6.868
 5509POPC   C4A71034   1.355  26.160   7.183
 5509POPC   C1B71035   0.819  26.055   6.232
 5509POPC   C2B71036   0.844  26.138   6.646
 5509POPC   C3B71037   0.931  25.939   6.998
 5509POPC   C4B71038   0.860  26.053   7.430
 5510POPC   NC371039  36.637  20.812   5.349
 5510POPC   PO471040  37.333  20.866   5.362
 5510POPC   GL171041  37.041  20.609   5.671
 5510POPC   GL271042  37.168  20.230   5.742
 5510POPC   C1A71043  36.719  20.728   6.031
 5510POPC   D2A71044  36.872  20.878   6.445
 5510POPC   C3A71045  36.726  20.783   6.854
 5510POPC   C4A71046  36.919  20.858   7.250
 5510POPC   C1B71047  37.063  20.378   6.166
 5510POPC   C2B71048  37.090  20.301   6.599
 5510POPC   C3B71049  37.081  20.419   7.029
 5510POPC   C4B71050  36.683  20.407   7.271
 5511POPC   NC371051   0.130   6.485   5.535
 5511POPC   PO471052   0.603   6.783   5.252
 5511POPC   GL171053   0.657   6.692   5.737
 5511POPC   GL271054   0.896   6.967   5.860
 5511POPC   C1A71055   0.479   6.450   6.150
 5511POPC   D2A71056   0.370   6.284   6.585
 5511POPC   C3A71057   0.380   6.483   7.012
 5511POPC   C4A71058   0.215   6.520   7.452
 5511POPC   C1B71059   0.945   6.660   6.209
 5511POPC   C2B71060   0.789   6.601   6.636
 5511POPC   C3B71061   0.671   6.913   6.947
 5511POPC   C4B71062   0.851   7.162   7.292
 5512POPC   NC371063   4.811  20.190   5.394
 5512POPC   PO471064   5.198  19.622   5.555
 5512POPC   GL171065   5.294  19.776   5.921
 5512POPC   GL271066   4.989  19.990   5.903
 5512POPC   C1A71067   5.521  19.624   6.290
 5512POPC   D2A71068   5.456  19.585   6.727
 5512POPC   C3A71069   5.112  19.846   6.790
 5512POPC   C4A71070   5.026  19.920   7.186
 5512POPC   C1B71071   4.966  19.721   6.293
 5512POPC   C2B71072   4.971  19.371   6.577
 5512POPC   C3B71073   4.879  19.438   7.015
 5512POPC   C4B71074   4.573  19.692   7.293
 5513POPC   NC371075  33.639   4.272   5.107
 5513POPC   PO471076  33.918   4.346   5.713
 5513POPC   GL171077  33.775   4.205   6.033
 5513POPC   GL271078  33.916   3.903   6.006
 5513POPC   C1A71079  33.817   4.323   6.416
 5513POPC   D2A71080  33.646   4.526   6.743
 5513POPC   C3A71081  33.885   4.548   7.108
 5513POPC   C4A71082  33.578   4.588   7.433
 5513POPC   C1B71083  33.651   3.831   6.354
 5513POPC   C2B71084  33.737   3.966   6.768
 5513POPC   C3B71085  33.639   4.065   7.167
 5513POPC   C4B71086  33.560   3.807   7.551
 5514POPC   NC371087  16.386   7.142   5.536
 5514POPC   PO471088  16.541   7.778   5.366
 5514POPC   GL171089  16.680   7.520   5.744
 5514POPC   GL271090  17.000   7.643   5.835
 5514POPC   C1A71091  16.774   7.252   6.122
 5514POPC   D2A71092  16.836   7.162   6.561
 5514POPC   C3A71093  16.492   7.364   6.792
 5514POPC   C4A71094  16.329   7.210   7.172
 5514POPC   C1B71095  16.836   7.749   6.256
 5514POPC   C2B71096  16.790   7.795   6.713
 5514POPC   C3B71097  16.888   7.564   7.087
 5514POPC   C4B71098  16.945   7.752   7.484
 5515POPC   NC371099  33.624  32.117   5.399
 5515POPC   PO471100  34.096  32.581   5.382
 5515POPC   GL171101  33.987  32.280   5.727
 5515POPC   GL271102  33.940  31.898   5.808
 5515POPC   C1A71103  33.772  32.324   6.121
 5515POPC   D2A71104  33.859  32.489   6.522
 5515POPC   C3A71105  33.766  32.254   6.888
 5515POPC   C4A71106  33.663  32.460   7.243
 5515POPC   C1B71107  33.653  31.831   6.195
 5515POPC   C2B71108  33.637  31.789   6.659
 5515POPC   C3B71109  33.479  31.840   7.081
 5515POPC   C4B71110  33.640  32.014   7.468
 5516POPC   NC371111  28.544   6.780   5.148
 5516POPC   PO471112  28.310   7.298   5.517
 5516POPC   GL171113  28.439   7.537   5.800
 5516POPC   GL271114  28.174   7.427   6.023
 5516POPC   C1A71115  28.620   7.542   6.178
 5516POPC   D2A71116  28.364   7.473   6.513
 5516POPC   C3A71117  28.428   7.718   6.851
 5516POPC   C4A71118  28.549   7.501   7.190
 5516POPC   C1B71119  28.205   7.046   6.235
 5516POPC   C2B71120  28.251   7.012   6.664
 5516POPC   C3B71121  28.139   7.303   6.961
 5516POPC   C4B71122  27.881   7.163   7.239
 5517POPC   NC371123   5.581  30.296   5.394
 5517POPC   PO471124   6.104  29.893   5.217
 5517POPC   GL171125   5.954  29.854   5.671
 5517POPC   GL271126   5.656  29.958   5.761
 5517POPC   C1A71127   5.957  29.921   6.162
 5517POPC   D2A71128   6.054  29.796   6.586
 5517POPC   C3A71129   5.845  29.892   6.981
 5517POPC   C4A71130   5.897  29.780   7.428
 5517POPC   C1B71131   5.511  30.179   6.146
 5517POPC   C2B71132   5.627  30.087   6.549
 5517POPC   C3B71133   5.403  30.171   6.909
 5517POPC   C4B71134   5.531  30.134   7.309
 5518POPC   NC371135  28.014  29.294   5.336
 5518POPC   PO471136  28.604  29.008   5.254
 5518POPC   GL171137  28.421  29.221   5.643
 5518POPC   GL271138  28.237  28.926   5.722
 5518POPC   C1A71139  28.105  29.297   6.031
 5518POPC   D2A71140  28.165  29.389   6.474
 5518POPC   C3A71141  28.003  29.166   6.843
 5518POPC   C4A71142  28.187  29.139   7.232
 5518POPC   C1B71143  28.173  28.768   6.127
 5518POPC   C2B71144  28.318  28.895   6.539
 5518POPC   C3B71145  28.285  28.719   6.945
 5518POPC   C4B71146  28.391  28.679   7.401
 5519POPC   NC371147  37.746   1.431   4.895
 5519POPC   PO471148  37.459   1.049   5.410
 5519POPC   GL171149  37.606   1.237   5.795
 5519POPC   GL271150  37.888   1.509   5.799
 5519POPC   C1A71151  37.556   1.026   6.186
 5519POPC   D2A71152  37.811   0.989   6.554
 5519POPC   C3A71153  37.538   1.156   6.842
 5519POPC   C4A71154  37.443   1.023   7.225
 5519POPC   C1B71155  37.842   1.422   6.265
 5519POPC   C2B71156  37.906   1.499   6.716
 5519POPC   C3B71157  37.871   1.423   7.151
 5519POPC   C4B71158  38.108   1.488   7.546
 5520POPC   NC371159  11.732   8.125   5.125
 5520POPC   PO471160  12.244   8.362   5.406
 5520POPC   GL171161  12.085   8.285   5.841
 5520POPC   GL271162  11.728   8.183   5.801
 5520POPC   C1A71163  12.066   8.040   6.220
 5520POPC   D2A71164  12.139   7.744   6.580
 5520POPC   C3A71165  12.216   8.003   6.934
 5520POPC   C4A71166  12.004   8.343   7.137
 5520POPC   C1B71167  11.566   8.152   6.247
 5520POPC   C2B71168  11.754   8.080   6.671
 5520POPC   C3B71169  11.731   7.884   7.101
 5520POPC   C4B71170  11.796   7.703   7.556
 5521POPC   NC371171  37.256  17.388   5.458
 5521POPC   PO471172  37.513  17.966   5.716
 5521POPC   GL171173  37.557  17.567   5.940
 5521POPC   GL271174  37.292  17.309   5.945
 5521POPC   C1A71175  37.837  17.537   6.327
 5521POPC   D2A71176  38.104  17.829   6.622
 5521POPC   C3A71177  37.907  17.857   7.056
 5521POPC   C4A71178  37.663  17.512   7.235
 5521POPC   C1B71179  37.319  17.423   6.372
 5521POPC   C2B71180  37.270  17.537   6.778
 5521POPC   C3B71181  37.201  17.323   7.139
 5521POPC   C4B71182  37.376  17.215   7.554
 5522POPC   NC371183  38.284  10.145   5.584
 5522POPC   PO471184  38.674  10.775   5.397
 5522POPC   GL171185  38.556  10.575   5.775
 5522POPC   GL271186  38.686  10.258   5.900
 5522POPC   C1A71187  38.337  10.702   6.151
 5522POPC   D2A71188  38.050  10.608   6.515
 5522POPC   C3A71189  38.216  10.602   6.953
 5522POPC   C4A71190  38.335  10.610   7.406
 5522POPC   C1B71191  38.430  10.229   6.297
 5522POPC   C2B71192  38.504  10.147   6.745
 5522POPC   C3B71193  38.491  10.200   7.182
 5522POPC   C4B71194  38.721  10.152   7.602
 5523POPC   NC371195  26.113  14.160   5.477
 5523POPC   PO471196  25.773  13.571   5.479
 5523POPC   GL171197  25.888  13.859   5.828
 5523POPC   GL271198  26.279  13.919   5.880
 5523POPC   C1A71199  25.955  13.735   6.257
 5523POPC   D2A71200  25.822  13.450   6.584
 5523POPC   C3A71201  25.901  13.459   7.036
 5523POPC   C4A71202  26.317  13.299   7.160
 5523POPC   C1B71203  26.472  13.888   6.281
 5523POPC   C2B71204  26.378  13.644   6.665
 5523POPC   C3B71205  26.276  13.807   7.065
 5523POPC   C4B71206  26.216  14.090   7.396
 5524POPC   NC371207  29.525  17.921   5.573
 5524POPC   PO471208  30.051  18.254   5.241
 5524POPC   GL171209  30.100  18.361   5.695
 5524POPC   GL271210  29.862  18.149   5.852
 5524POPC   C1A71211  30.212  18.280   6.168
 5524POPC   D2A71212  30.026  18.108   6.582
 5524POPC   C3A71213  30.131  18.264   7.015
 5524POPC   C4A71214  29.966  18.064   7.401
 5524POPC   C1B71215  29.691  18.303   6.238
 5524POPC   C2B71216  29.513  18.183   6.611
 5524POPC   C3B71217  29.633  18.265   7.017
 5524POPC   C4B71218  29.603  18.440   7.413
 5525POPC   NC371219  21.444  29.183   5.484
 5525POPC   PO471220  21.014  28.637   5.607
 5525POPC   GL171221  21.233  28.954   5.898
 5525POPC   GL271222  21.629  29.010   5.919
 5525POPC   C1A71223  21.227  29.215   6.265
 5525POPC   D2A71224  21.114  29.216   6.685
 5525POPC   C3A71225  21.454  29.167   6.953
 5525POPC   C4A71226  21.336  29.412   7.239
 5525POPC   C1B71227  21.723  29.358   6.212
 5525POPC   C2B71228  21.530  29.526   6.585
 5525POPC   C3B71229  21.690  29.640   6.981
 5525POPC   C4B71230  21.815  29.397   7.355
 5526POPC   NC371231   4.527   8.795   5.386
 5526POPC   PO471232   4.388   9.450   5.372
 5526POPC   GL171233   4.471   9.151   5.800
 5526POPC   GL271234   4.445   8.758   5.906
 5526POPC   C1A71235   4.479   9.145   6.265
 5526POPC   D2A71236   4.489   9.115   6.730
 5526POPC   C3A71237   4.102   9.158   7.027
 5526POPC   C4A71238   4.141   9.101   7.522
 5526POPC   C1B71239   4.383   8.665   6.369
 5526POPC   C2B71240   4.173   8.711   6.754
 5526POPC   C3B71241   4.192   8.702   7.209
 5526POPC   C4B71242   4.482   8.704   7.547
 5527POPC   NC371243  15.713   5.360   5.545
 5527POPC   PO471244  16.416   5.112   5.368
 5527POPC   GL171245  16.208   5.214   5.769
 5527POPC   GL271246  16.028   4.900   5.734
 5527POPC   C1A71247  16.096   5.426   6.211
 5527POPC   D2A71248  16.062   5.250   6.665
 5527POPC   C3A71249  15.758   5.378   6.987
 5527POPC   C4A71250  15.683   5.300   7.387
 5527POPC   C1B71251  16.063   4.920   6.190
 5527POPC   C2B71252  15.888   4.738   6.578
 5527POPC   C3B71253  15.749   4.843   6.977
 5527POPC   C4B71254  16.055   5.013   7.202
 5528POPC   NC371255   5.469  37.668   5.420
 5528POPC   PO471256   4.800  37.847   5.359
 5528POPC   GL171257   5.081  37.775   5.751
 5528POPC   GL271258   4.953  37.502   5.949
 5528POPC   C1A71259   5.285  37.773   6.192
 5528POPC   D2A71260   5.246  38.004   6.566
 5528POPC   C3A71261   5.148  37.768   6.903
 5528POPC   C4A71262   5.217  37.611   7.292
 5528POPC   C1B71263   4.702  37.309   6.244
 5528POPC   C2B71264   4.908  37.405   6.620
 5528POPC   C3B71265   4.897  37.308   7.048
 5528POPC   C4B71266   4.814  37.418   7.495
 5529POPC   NC371267  26.715  28.156   5.359
 5529POPC   PO471268  27.030  28.764   5.495
 5529POPC   GL171269  26.723  28.495   5.757
 5529POPC   GL271270  27.001  28.277   5.789
 5529POPC   C1A71271  26.680  28.238   6.175
 5529POPC   D2A71272  26.507  28.177   6.597
 5529POPC   C3A71273  26.729  28.163   6.973
 5529POPC   C4A71274  26.992  27.990   7.315
 5529POPC   C1B71275  27.015  28.625   6.138
 5529POPC   C2B71276  27.283  28.681   6.474
 5529POPC   C3B71277  27.135  28.641   6.887
 5529POPC   C4B71278  26.981  28.497   7.253
 5530POPC   NC371279  27.756  22.290   5.421
 5530POPC   PO471280  27.165  21.895   5.199
 5530POPC   GL171281  27.157  21.995   5.652
 5530POPC   GL271282  27.006  22.329   5.657
 5530POPC   C1A71283  27.393  22.036   6.065
 5530POPC   D2A71284  27.313  21.977   6.526
 5530POPC   C3A71285  27.620  22.051   6.867
 5530POPC   C4A71286  27.307  21.995   7.193
 5530POPC   C1B71287  27.187  22.511   6.049
 5530POPC   C2B71288  27.379  22.523   6.476
 5530POPC   C3B71289  27.350  22.472   6.927
 5530POPC   C4B71290  27.770  22.516   7.131
 5531POPC   NC371291   9.814   4.092   5.325
 5531POPC   PO471292   9.691   4.677   5.603
 5531POPC   GL171293   9.658   4.284   5.783
 5531POPC   GL271294  10.034   4.286   5.740
 5531POPC   C1A71295   9.742   4.198   6.215
 5531POPC   D2A71296   9.919   4.481   6.542
 5531POPC   C3A71297   9.624   4.507   6.904
 5531POPC   C4A71298   9.471   4.225   7.240
 5531POPC   C1B71299  10.204   4.020   6.039
 5531POPC   C2B71300  10.161   4.000   6.472
 5531POPC   C3B71301   9.894   4.048   6.833
 5531POPC   C4B71302   9.969   4.312   7.211
 5532POPC   NC371303  23.744  14.698   5.417
 5532POPC   PO471304  23.441  14.077   5.414
 5532POPC   GL171305  23.457  14.385   5.674
 5532POPC   GL271306  23.816  14.390   5.803
 5532POPC   C1A71307  23.389  14.403   6.107
 5532POPC   D2A71308  23.553  14.246   6.483
 5532POPC   C3A71309  23.489  14.433   6.881
 5532POPC   C4A71310  23.702  14.391   7.242
 5532POPC   C1B71311  23.945  14.137   6.164
 5532POPC   C2B71312  23.963  13.930   6.575
 5532POPC   C3B71313  24.037  14.081   6.993
 5532POPC   C4B71314  24.206  14.427   7.267
 5533POPC   NC371315  10.320  33.546   5.426
 5533POPC   PO471316  10.734  32.956   5.355
 5533POPC   GL171317  10.592  33.167   5.705
 5533POPC   GL271318  10.390  32.897   5.758
 5533POPC   C1A71319  10.621  33.145   6.162
 5533POPC   D2A71320  10.566  32.727   6.392
 5533POPC   C3A71321  10.731  32.696   6.791
 5533POPC   C4A71322  10.681  32.789   7.236
 5533POPC   C1B71323  10.165  32.899   6.139
 5533POPC   C2B71324  10.256  33.120   6.531
 5533POPC   C3B71325  10.466  33.118   6.910
 5533POPC   C4B71326  10.259  33.180   7.300
 5534POPC   NC371327  26.070   5.336   5.172
 5534POPC   PO471328  25.622   4.803   5.163
 5534POPC   GL171329  25.821   4.973   5.629
 5534POPC   GL271330  26.194   5.114   5.758
 5534POPC   C1A71331  25.862   4.949   6.126
 5534POPC   D2A71332  25.832   4.990   6.604
 5534POPC   C3A71333  25.851   5.391   6.832
 5534POPC   C4A71334  26.045   5.271   7.185
 5534POPC   C1B71335  26.378   5.185   6.223
 5534POPC   C2B71336  26.319   5.168   6.705
 5534POPC   C3B71337  26.389   4.885   7.047
 5534POPC   C4B71338  26.272   4.863   7.481
 5535POPC   NC371339  26.846   2.657   5.520
 5535POPC   PO471340  26.766   3.291   5.402
 5535POPC   GL171341  26.734   3.072   5.812
 5535POPC   GL271342  27.059   2.985   5.906
 5535POPC   C1A71343  26.717   2.802   6.226
 5535POPC   D2A71344  26.831   2.957   6.646
 5535POPC   C3A71345  26.706   2.686   6.949
 5535POPC   C4A71346  26.820   2.370   7.205
 5535POPC   C1B71347  27.239   2.858   6.313
 5535POPC   C2B71348  27.223   2.623   6.719
 5535POPC   C3B71349  27.149   2.753   7.145
 5535POPC   C4B71350  27.186   2.865   7.581
 5536POPC   NC371351  26.743  44.350   5.275
 5536POPC   PO471352  27.043  43.736   5.496
 5536POPC   GL171353  27.030  43.809   5.917
 5536POPC   GL271354  26.695  43.872   5.871
 5536POPC   C1A71355  27.185  43.814   6.361
 5536POPC   D2A71356  27.025  43.611   6.761
 5536POPC   C3A71357  27.004  43.785   7.163
 5536POPC   C4A71358  27.204  43.744   7.574
 5536POPC   C1B71359  26.693  43.964   6.273
 5536POPC   C2B71360  26.842  44.070   6.643
 5536POPC   C3B71361  26.927  44.284   6.973
 5536POPC   C4B71362  26.725  44.173   7.364
 5537POPC   NC371363  44.287   6.714   5.281
 5537POPC   PO471364  44.971   6.898   5.702
 5537POPC   GL171365  44.869   6.592   5.954
 5537POPC   GL271366  44.541   6.567   6.045
 5537POPC   C1A71367  44.966   6.458   6.328
 5537POPC   D2A71368  44.794   6.633   6.690
 5537POPC   C3A71369  44.838   6.584   7.107
 5537POPC   C4A71370  44.856   6.898   7.431
 5537POPC   C1B71371  44.349   6.703   6.417
 5537POPC   C2B71372  44.308   6.707   6.852
 5537POPC   C3B71373  44.381   6.736   7.274
 5537POPC   C4B71374  44.350   6.420   7.552
 5538POPC   NC371375  38.840  18.350   5.249
 5538POPC   PO471376  38.357  18.142   5.377
 5538POPC   GL171377  38.473  18.167   5.848
 5538POPC   GL271378  38.826  18.077   5.874
 5538POPC   C1A71379  38.396  18.258   6.332
 5538POPC   D2A71380  38.270  18.470   6.742
 5538POPC   C3A71381  38.437  18.299   7.133
 5538POPC   C4A71382  38.430  17.857   7.258
 5538POPC   C1B71383  38.909  18.303   6.272
 5538POPC   C2B71384  38.794  18.432   6.714
 5538POPC   C3B71385  38.964  18.341   7.135
 5538POPC   C4B71386  38.931  18.006   7.435
 5539POPC   NC371387  26.593   4.165   5.394
 5539POPC   PO471388  27.141   4.533   5.399
 5539POPC   GL171389  26.962   4.343   5.760
 5539POPC   GL271390  26.619   4.263   5.882
 5539POPC   C1A71391  27.065   4.257   6.182
 5539POPC   D2A71392  26.874   4.277   6.575
 5539POPC   C3A71393  27.092   4.005   6.832
 5539POPC   C4A71394  27.259   4.288   7.103
 5539POPC   C1B71395  26.616   3.991   6.239
 5539POPC   C2B71396  26.626   3.815   6.664
 5539POPC   C3B71397  26.400   4.045   6.995
 5539POPC   C4B71398  26.412   4.413   7.247
 5540POPC   NC371399  40.250  40.719   5.206
 5540POPC   PO471400  40.859  40.628   5.368
 5540POPC   GL171401  40.708  40.721   5.790
 5540POPC   GL271402  40.748  40.359   5.808
 5540POPC   C1A71403  40.655  40.927   6.231
 5540POPC   D2A71404  40.883  41.123   6.610
 5540POPC   C3A71405  40.764  40.939   6.986
 5540POPC   C4A71406  40.639  41.099   7.374
 5540POPC   C1B71407  40.915  40.429   6.201
 5540POPC   C2B71408  40.845  40.611   6.590
 5540POPC   C3B71409  40.943  40.450   6.985
 5540POPC   C4B71410  40.821  40.603   7.358
 5541POPC   NC371411  27.741   2.612   5.366
 5541POPC   PO471412  27.220   3.010   5.407
 5541POPC   GL171413  27.529   2.908   5.720
 5541POPC   GL271414  27.463   2.551   5.823
 5541POPC   C1A71415  27.736   2.952   6.111
 5541POPC   D2A71416  27.645   3.160   6.487
 5541POPC   C3A71417  27.476   3.063   6.866
 5541POPC   C4A71418  27.573   2.960   7.277
 5541POPC   C1B71419  27.588   2.464   6.268
 5541POPC   C2B71420  27.746   2.624   6.679
 5541POPC   C3B71421  27.585   2.480   7.104
 5541POPC   C4B71422  27.276   2.364   7.456
 5542POPC   NC371423  20.814  37.160   4.956
 5542POPC   PO471424  20.316  36.851   5.376
 5542POPC   GL171425  20.568  36.743   5.812
 5542POPC   GL271426  20.950  36.598   5.861
 5542POPC   C1A71427  20.530  36.825   6.262
 5542POPC   D2A71428  20.379  37.044   6.639
 5542POPC   C3A71429  20.533  37.049   7.036
 5542POPC   C4A71430  20.274  36.934   7.362
 5542POPC   C1B71431  21.050  36.829   6.289
 5542POPC   C2B71432  21.015  37.064   6.729
 5542POPC   C3B71433  21.014  37.073   7.221
 5542POPC   C4B71434  20.736  36.826   7.498
 5543POPC   NC371435  34.171  13.345   5.438
 5543POPC   PO471436  33.646  13.714   5.231
 5543POPC   GL171437  33.738  13.727   5.736
 5543POPC   GL271438  34.024  13.547   5.898
 5543POPC   C1A71439  33.561  13.525   6.146
 5543POPC   D2A71440  33.676  13.307   6.557
 5543POPC   C3A71441  33.668  13.596   6.929
 5543POPC   C4A71442  33.528  13.727   7.342
 5543POPC   C1B71443  33.915  13.934   6.173
 5543POPC   C2B71444  33.726  14.128   6.564
 5543POPC   C3B71445  33.729  14.121   7.033
 5543POPC   C4B71446  34.004  13.924   7.331
 5544POPC   NC371447   9.193  40.514   5.494
 5544POPC   PO471448   8.911  41.162   5.361
 5544POPC   GL171449   8.932  40.875   5.747
 5544POPC   GL271450   8.738  40.524   5.747
 5544POPC   C1A71451   9.199  40.812   6.156
 5544POPC   D2A71452   9.350  41.053   6.538
 5544POPC   C3A71453   9.179  40.908   6.935
 5544POPC   C4A71454   9.267  40.579   7.239
 5544POPC   C1B71455   8.701  40.698   6.171
 5544POPC   C2B71456   8.891  40.587   6.577
 5544POPC   C3B71457   8.738  40.675   6.992
 5544POPC   C4B71458   8.767  40.668   7.421
 5545POPC   NC371459  26.779  17.555   5.407
 5545POPC   PO471460  27.129  17.100   5.803
 5545POPC   GL171461  26.799  17.360   5.918
 5545POPC   GL271462  26.462  17.274   5.807
 5545POPC   C1A71463  26.859  17.639   6.286
 5545POPC   D2A71464  27.001  17.793   6.689
 5545POPC   C3A71465  27.024  17.457   6.992
 5545POPC   C4A71466  27.214  17.331   7.389
 5545POPC   C1B71467  26.381  17.457   6.207
 5545POPC   C2B71468  26.521  17.415   6.608
 5545POPC   C3B71469  26.356  17.418   6.974
 5545POPC   C4B71470  26.599  17.412   7.305
 5546POPC   NC371471   9.828  26.196   5.414
 5546POPC   PO471472   9.702  25.578   5.613
 5546POPC   GL171473   9.731  25.982   5.872
 5546POPC   GL271474   9.973  26.274   5.889
 5546POPC   C1A71475   9.706  26.110   6.313
 5546POPC   D2A71476   9.828  25.835   6.657
 5546POPC   C3A71477   9.844  25.939   7.103
 5546POPC   C4A71478   9.586  26.062   7.429
 5546POPC   C1B71479  10.167  26.343   6.280
 5546POPC   C2B71480  10.076  26.320   6.697
 5546POPC   C3B71481  10.202  26.321   7.097
 5546POPC   C4B71482  10.057  26.332   7.530
 5547POPC   NC371483  28.998   8.618   5.402
 5547POPC   PO471484  28.872   9.343   5.377
 5547POPC   GL171485  29.198   9.114   5.673
 5547POPC   GL271486  29.419   8.796   5.610
 5547POPC   C1A71487  29.259   9.190   6.145
 5547POPC   D2A71488  29.089   9.130   6.586
 5547POPC   C3A71489  29.317   9.243   6.966
 5547POPC   C4A71490  29.139   9.007   7.293
 5547POPC   C1B71491  29.517   8.746   6.044
 5547POPC   C2B71492  29.484   8.817   6.477
 5547POPC   C3B71493  29.359   8.731   6.891
 5547POPC   C4B71494  29.568   8.736   7.286
 5548POPC   NC371495  37.282  35.534   5.404
 5548POPC   PO471496  36.636  35.450   5.159
 5548POPC   GL171497  36.556  35.316   5.647
 5548POPC   GL271498  36.640  35.652   5.803
 5548POPC   C1A71499  36.649  35.199   6.127
 5548POPC   D2A71500  37.044  35.155   6.437
 5548POPC   C3A71501  36.966  35.128   6.883
 5548POPC   C4A71502  37.110  35.185   7.289
 5548POPC   C1B71503  36.927  35.630   6.187
 5548POPC   C2B71504  36.844  35.595   6.634
 5548POPC   C3B71505  36.914  35.608   7.077
 5548POPC   C4B71506  36.784  35.605   7.521
 5549POPC   NC371507  31.659  27.955   5.448
 5549POPC   PO471508  31.145  27.476   5.458
 5549POPC   GL171509  31.189  27.634   5.911
 5549POPC   GL271510  31.478  27.880   5.923
 5549POPC   C1A71511  31.458  27.515   6.302
 5549POPC   D2A71512  31.726  27.682   6.618
 5549POPC   C3A71513  31.685  27.405   6.970
 5549POPC   C4A71514  31.901  27.308   7.361
 5549POPC   C1B71515  31.266  27.975   6.324
 5549POPC   C2B71516  31.339  28.007   6.755
 5549POPC   C3B71517  31.622  27.923   7.065
 5549POPC   C4B71518  31.509  27.643   7.392
 5550POPC   NC371519  21.115  12.453   5.310
 5550POPC   PO471520  21.525  12.874   5.373
 5550POPC   GL171521  21.469  12.889   5.824
 5550POPC   GL271522  21.166  13.001   5.798
 5550POPC   C1A71523  21.611  12.913   6.278
 5550POPC   D2A71524  21.716  12.679   6.627
 5550POPC   C3A71525  21.528  12.828   6.959
 5550POPC   C4A71526  21.630  12.929   7.346
 5550POPC   C1B71527  21.075  12.778   6.199
 5550POPC   C2B71528  21.139  12.799   6.627
 5550POPC   C3B71529  21.007  12.704   7.051
 5550POPC   C4B71530  21.133  12.886   7.448
 5551POPC   NC371531  17.509   5.519   5.624
 5551POPC   PO471532  17.631   4.847   5.517
 5551POPC   GL171533  17.676   5.040   5.903
 5551POPC   GL271534  17.904   4.869   6.126
 5551POPC   C1A71535  17.377   5.129   6.246
 5551POPC   D2A71536  17.376   4.974   6.665
 5551POPC   C3A71537  17.571   5.226   6.999
 5551POPC   C4A71538  17.773   5.314   7.414
 5551POPC   C1B71539  17.543   4.638   6.264
 5551POPC   C2B71540  17.313   4.463   6.610
 5551POPC   C3B71541  17.343   4.596   7.010
 5551POPC   C4B71542  17.533   4.842   7.305
 5552POPC   NC371543  20.660  31.468   5.161
 5552POPC   PO471544  20.807  32.147   5.512
 5552POPC   GL171545  20.752  31.704   5.747
 5552POPC   GL271546  20.608  31.346   5.691
 5552POPC   C1A71547  20.520  31.570   6.142
 5552POPC   D2A71548  20.461  31.789   6.525
 5552POPC   C3A71549  20.402  31.610   6.904
 5552POPC   C4A71550  20.277  31.558   7.300
 5552POPC   C1B71551  20.669  31.081   6.066
 5552POPC   C2B71552  20.885  31.153   6.461
 5552POPC   C3B71553  20.732  31.039   6.864
 5552POPC   C4B71554  20.597  31.168   7.250
 5553POPC   NC371555  13.661  26.108   5.267
 5553POPC   PO471556  14.068  25.659   5.556
 5553POPC   GL171557  13.807  25.991   5.796
 5553POPC   GL271558  13.870  26.344   5.926
 5553POPC   C1A71559  13.605  25.995   6.228
 5553POPC   D2A71560  13.707  26.153   6.655
 5553POPC   C3A71561  13.469  26.062   7.034
 5553POPC   C4A71562  13.313  25.690   7.104
 5553POPC   C1B71563  13.643  26.512   6.279
 5553POPC   C2B71564  13.698  26.656   6.675
 5553POPC   C3B71565  13.810  26.432   7.071
 5553POPC   C4B71566  13.565  26.387   7.442
 5554POPC   NC371567  35.133  44.121   5.424
 5554POPC   PO471568  35.723  43.874   5.285
 5554POPC   GL171569  35.603  44.057   5.695
 5554POPC   GL271570  35.326  43.840   5.849
 5554POPC   C1A71571  35.549  44.207   6.132
 5554POPC   D2A71572  35.658  44.110   6.544
 5554POPC   C3A71573  35.341  43.937   6.790
 5554POPC   C4A71574  35.416  43.876   7.193
 5554POPC   C1B71575  35.135  43.882   6.313
 5554POPC   C2B71576  34.873  43.703   6.706
 5554POPC   C3B71577  35.003  43.565   7.145
 5554POPC   C4B71578  34.921  43.453   7.608
 5555POPC   NC371579  32.711   9.211   5.617
 5555POPC   PO471580  32.261   8.785   5.383
 5555POPC   GL171581  32.192   8.991   5.749
 5555POPC   GL271582  32.087   9.326   5.639
 5555POPC   C1A71583  32.349   8.987   6.152
 5555POPC   D2A71584  32.446   8.736   6.489
 5555POPC   C3A71585  32.450   8.944   6.847
 5555POPC   C4A71586  32.620   9.073   7.198
 5555POPC   C1B71587  32.046   9.381   6.085
 5555POPC   C2B71588  32.042   9.307   6.514
 5555POPC   C3B71589  32.001   9.309   6.963
 5555POPC   C4B71590  32.092   8.989   7.232
 5556POPC   NC371591  19.272  34.540   5.479
 5556POPC   PO471592  18.720  34.236   5.363
 5556POPC   GL171593  18.846  34.415   5.801
 5556POPC   GL271594  18.985  34.749   5.849
 5556POPC   C1A71595  18.884  34.436   6.281
 5556POPC   D2A71596  19.248  34.335   6.602
 5556POPC   C3A71597  19.293  34.332   7.060
 5556POPC   C4A71598  19.103  34.438   7.489
 5556POPC   C1B71599  18.884  34.967   6.240
 5556POPC   C2B71600  18.934  34.786   6.667
 5556POPC   C3B71601  18.936  34.717   7.104
 5556POPC   C4B71602  18.651  34.935   7.412
 5557POPC   NC371603  26.743   5.990   5.519
 5557POPC   PO471604  27.137   5.454   5.676
 5557POPC   GL171605  26.824   5.694   5.941
 5557POPC   GL271606  26.484   5.590   5.789
 5557POPC   C1A71607  26.800   5.975   6.351
 5557POPC   D2A71608  26.595   6.128   6.762
 5557POPC   C3A71609  26.791   5.922   7.153
 5557POPC   C4A71610  27.080   6.069   7.518
 5557POPC   C1B71611  26.395   5.707   6.204
 5557POPC   C2B71612  26.489   5.650   6.617
 5557POPC   C3B71613  26.373   5.640   7.024
 5557POPC   C4B71614  26.544   5.313   7.258
 5558POPC   NC371615  14.769  23.922   5.080
 5558POPC   PO471616  15.127  23.478   5.514
 5558POPC   GL171617  15.157  23.755   5.873
 5558POPC   GL271618  14.857  23.964   5.962
 5558POPC   C1A71619  15.173  23.843   6.333
 5558POPC   D2A71620  15.120  23.863   6.787
 5558POPC   C3A71621  15.399  23.717   7.114
 5558POPC   C4A71622  15.590  23.931   7.486
 5558POPC   C1B71623  14.770  23.547   6.207
 5558POPC   C2B71624  14.662  23.422   6.674
 5558POPC   C3B71625  14.814  23.586   7.075
 5558POPC   C4B71626  14.984  23.958   7.282
 5559POPC   NC371627   1.940   9.025   5.151
 5559POPC   PO471628   2.569   9.293   5.318
 5559POPC   GL171629   2.291   9.064   5.608
 5559POPC   GL271630   2.161   8.724   5.509
 5559POPC   C1A71631   2.065   9.153   5.995
 5559POPC   D2A71632   2.014   9.304   6.443
 5559POPC   C3A71633   2.221   9.210   6.835
 5559POPC   C4A71634   1.888   9.174   7.147
 5559POPC   C1B71635   2.099   8.647   5.935
 5559POPC   C2B71636   2.090   8.791   6.373
 5559POPC   C3B71637   1.967   8.766   6.815
 5559POPC   C4B71638   1.784   8.653   7.225
 5560POPC   NC371639  36.701  31.951   5.404
 5560POPC   PO471640  36.934  31.340   5.193
 5560POPC   GL171641  36.813  31.429   5.636
 5560POPC   GL271642  37.086  31.666   5.748
 5560POPC   C1A71643  36.871  31.334   6.106
 5560POPC   D2A71644  37.102  31.338   6.525
 5560POPC   C3A71645  36.986  31.449   6.956
 5560POPC   C4A71646  36.841  31.311   7.363
 5560POPC   C1B71647  36.950  31.840   6.168
 5560POPC   C2B71648  36.737  31.750   6.594
 5560POPC   C3B71649  36.739  31.915   7.049
 5560POPC   C4B71650  36.603  31.775   7.499
 5561POPC   NC371651   4.691  37.429   5.545
 5561POPC   PO471652   4.624  36.760   5.403
 5561POPC   GL171653   4.504  36.947   5.815
 5561POPC   GL271654   4.178  36.850   5.974
 5561POPC   C1A71655   4.605  36.793   6.243
 5561POPC   D2A71656   4.736  36.935   6.634
 5561POPC   C3A71657   4.592  36.886   7.040
 5561POPC   C4A71658   4.431  37.219   7.211
 5561POPC   C1B71659   4.176  36.983   6.455
 5561POPC   C2B71660   4.099  36.971   6.920
 5561POPC   C3B71661   3.750  36.810   7.203
 5561POPC   C4B71662   3.770  36.833   7.683
 5562POPC   NC371663  44.819  39.337   5.542
 5562POPC   PO471664  44.445  38.829   5.246
 5562POPC   GL171665  44.382  38.969   5.705
 5562POPC   GL271666  44.321  39.308   5.780
 5562POPC   C1A71667  44.503  39.004   6.192
 5562POPC   D2A71668  44.810  39.140   6.567
 5562POPC   C3A71669  44.674  39.121   7.022
 5562POPC   C4A71670  44.820  39.348   7.411
 5562POPC   C1B71671  44.360  39.497   6.229
 5562POPC   C2B71672  44.350  39.330   6.675
 5562POPC   C3B71673  44.263  39.439   7.130
 5562POPC   C4B71674  44.444  39.666   7.511
 5563POPC   NC371675  26.234  14.933   5.394
 5563POPC   PO471676  25.767  14.461   5.345
 5563POPC   GL171677  25.922  14.509   5.787
 5563POPC   GL271678  26.226  14.678   5.842
 5563POPC   C1A71679  25.933  14.257   6.191
 5563POPC   D2A71680  26.110  14.075   6.595
 5563POPC   C3A71681  25.940  14.208   6.959
 5563POPC   C4A71682  25.745  14.306   7.319
 5563POPC   C1B71683  26.010  14.783   6.214
 5563POPC   C2B71684  26.066  14.585   6.608
 5563POPC   C3B71685  26.012  14.720   7.012
 5563POPC   C4B71686  26.158  14.589   7.349
 5564POPC   NC371687  25.173  37.380   5.373
 5564POPC   PO471688  25.513  36.732   5.252
 5564POPC   GL171689  25.488  36.992   5.654
 5564POPC   GL271690  25.148  36.975   5.754
 5564POPC   C1A71691  25.438  36.991   6.160
 5564POPC   D2A71692  25.153  36.932   6.512
 5564POPC   C3A71693  25.272  36.942   6.937
 5564POPC   C4A71694  25.203  37.234   7.223
 5564POPC   C1B71695  25.082  36.617   6.061
 5564POPC   C2B71696  25.150  36.431   6.474
 5564POPC   C3B71697  25.040  36.477   6.898
 5564POPC   C4B71698  24.835  36.581   7.279
 5565POPC   NC371699  13.222   4.978   5.439
 5565POPC   PO471700  12.564   4.902   5.364
 5565POPC   GL171701  12.793   4.976   5.749
 5565POPC   GL271702  13.062   4.737   5.851
 5565POPC   C1A71703  12.788   5.172   6.152
 5565POPC   D2A71704  12.963   5.375   6.509
 5565POPC   C3A71705  12.841   5.212   6.900
 5565POPC   C4A71706  12.618   4.979   7.234
 5565POPC   C1B71707  13.149   4.827   6.280
 5565POPC   C2B71708  13.041   4.742   6.688
 5565POPC   C3B71709  13.146   4.902   7.120
 5565POPC   C4B71710  13.125   4.910   7.537
 5566POPC   NC371711  17.496   3.193   5.412
 5566POPC   PO471712  17.345   2.516   5.429
 5566POPC   GL171713  17.487   2.810   5.786
 5566POPC   GL271714  17.358   3.156   5.883
 5566POPC   C1A71715  17.388   2.682   6.205
 5566POPC   D2A71716  17.556   2.396   6.503
 5566POPC   C3A71717  17.556   2.649   6.818
 5566POPC   C4A71718  17.669   2.598   7.187
 5566POPC   C1B71719  17.578   3.240   6.239
 5566POPC   C2B71720  17.843   3.351   6.583
 5566POPC   C3B71721  17.726   3.228   6.993
 5566POPC   C4B71722  17.403   3.040   7.115
 5567POPC   NC371723  23.302  42.914   5.278
 5567POPC   PO471724  23.601  43.413   5.392
 5567POPC   GL171725  23.837  43.300   5.849
 5567POPC   GL271726  24.072  43.002   6.004
 5567POPC   C1A71727  23.768  43.201   6.339
 5567POPC   D2A71728  23.508  42.951   6.663
 5567POPC   C3A71729  23.470  43.120   7.128
 5567POPC   C4A71730  23.383  43.111   7.596
 5567POPC   C1B71731  24.294  43.210   6.377
 5567POPC   C2B71732  24.496  43.075   6.774
 5567POPC   C3B71733  24.278  43.087   7.167
 5567POPC   C4B71734  23.962  43.452   7.286
 5568POPC   NC371735  18.982  11.107   5.247
 5568POPC   PO471736  19.300  11.657   5.308
 5568POPC   GL171737  19.224  11.415   5.726
 5568POPC   GL271738  19.098  11.052   5.742
 5568POPC   C1A71739  19.040  11.389   6.169
 5568POPC   D2A71740  18.844  11.368   6.584
 5568POPC   C3A71741  19.055  11.507   6.960
 5568POPC   C4A71742  18.693  11.591   7.178
 5568POPC   C1B71743  18.907  10.866   6.109
 5568POPC   C2B71744  19.118  10.945   6.486
 5568POPC   C3B71745  19.091  10.995   6.909
 5568POPC   C4B71746  19.433  11.057   7.206
 5569POPC   NC371747   0.760  39.459   5.379
 5569POPC   PO471748   0.232  39.051   5.559
 5569POPC   GL171749   0.403  39.143   5.945
 5569POPC   GL271750   0.635  39.467   5.914
 5569POPC   C1A71751   0.367  39.156   6.400
 5569POPC   D2A71752   0.679  39.340   6.668
 5569POPC   C3A71753   0.604  39.322   7.088
 5569POPC   C4A71754   0.186  39.171   7.077
 5569POPC   C1B71755   0.852  39.160   6.183
 5569POPC   C2B71756   0.776  38.850   6.514
 5569POPC   C3B71757   0.589  38.832   6.916
 5569POPC   C4B71758   0.797  38.911   7.326
 5570POPC   NC371759  40.826  42.079   5.576
 5570POPC   PO471760  41.080  42.687   5.404
 5570POPC   GL171761  40.836  42.579   5.764
 5570POPC   GL271762  40.464  42.530   5.685
 5570POPC   C1A71763  40.868  42.386   6.195
 5570POPC   D2A71764  40.698  42.221   6.573
 5570POPC   C3A71765  40.977  42.134   6.929
 5570POPC   C4A71766  40.812  42.168   7.350
 5570POPC   C1B71767  40.367  42.466   6.133
 5570POPC   C2B71768  40.451  42.663   6.542
 5570POPC   C3B71769  40.455  42.486   6.955
 5570POPC   C4B71770  40.561  42.612   7.353
 5571POPC   NC371771  29.380  44.896   5.630
 5571POPC   PO471772  28.744  44.722   5.407
 5571POPC   GL171773  28.934  44.707   5.799
 5571POPC   GL271774  28.937   0.065   5.809
 5571POPC   C1A71775  29.136  44.548   6.192
 5571POPC   D2A71776  29.387  44.517   6.579
 5571POPC   C3A71777  29.214  44.592   6.984
 5571POPC   C4A71778  29.345  44.503   7.386
 5571POPC   C1B71779  28.969   0.096   6.256
 5571POPC   C2B71780  28.931  44.814   6.604
 5571POPC   C3B71781  28.751  44.815   7.003
 5571POPC   C4B71782  29.002  44.891   7.374
 5572POPC   NC371783  24.119  33.324   5.340
 5572POPC   PO471784  23.385  33.109   5.357
 5572POPC   GL171785  23.753  33.083   5.665
 5572POPC   GL271786  23.550  32.889   5.856
 5572POPC   C1A71787  23.978  32.963   6.102
 5572POPC   D2A71788  24.034  33.173   6.537
 5572POPC   C3A71789  23.962  33.020   6.995
 5572POPC   C4A71790  23.854  33.079   7.451
 5572POPC   C1B71791  23.482  33.087   6.257
 5572POPC   C2B71792  23.561  33.059   6.681
 5572POPC   C3B71793  23.458  33.269   7.058
 5572POPC   C4B71794  23.137  33.068   7.308
 5573POPC   NC371795   0.674  30.275   5.567
 5573POPC   PO471796   0.210  29.762   5.533
 5573POPC   GL171797   0.485  29.827   5.847
 5573POPC   GL271798   0.306  30.140   5.900
 5573POPC   C1A71799   0.392  29.671   6.257
 5573POPC   D2A71800   0.630  29.576   6.637
 5573POPC   C3A71801   0.564  29.852   6.983
 5573POPC   C4A71802   0.400  29.862   7.365
 5573POPC   C1B71803   0.478  30.186   6.265
 5573POPC   C2B71804   0.273  30.036   6.613
 5573POPC   C3B71805   0.192  30.203   7.018
 5573POPC   C4B71806   0.062  30.393   7.376
 5574POPC   NC371807  37.248  23.156   5.582
 5574POPC   PO471808  36.898  23.719   5.295
 5574POPC   GL171809  36.937  23.853   5.722
 5574POPC   GL271810  37.117  23.591   5.789
 5574POPC   C1A71811  36.688  23.765   6.113
 5574POPC   D2A71812  36.448  23.587   6.477
 5574POPC   C3A71813  36.615  23.613   6.902
 5574POPC   C4A71814  36.970  23.867   7.073
 5574POPC   C1B71815  37.170  23.601   6.185
 5574POPC   C2B71816  36.959  23.491   6.527
 5574POPC   C3B71817  37.111  23.411   6.896
 5574POPC   C4B71818  37.236  23.490   7.275
 5575POPC   NC371819  31.421  29.632   5.453
 5575POPC   PO471820  31.512  30.370   5.419
 5575POPC   GL171821  31.381  30.104   5.767
 5575POPC   GL271822  31.605  29.863   5.902
 5575POPC   C1A71823  31.187  30.050   6.186
 5575POPC   D2A71824  31.077  30.165   6.613
 5575POPC   C3A71825  31.428  30.031   6.891
 5575POPC   C4A71826  31.376  29.793   7.254
 5575POPC   C1B71827  31.859  29.750   6.301
 5575POPC   C2B71828  31.909  29.708   6.768
 5575POPC   C3B71829  31.817  29.565   7.179
 5575POPC   C4B71830  31.818  29.640   7.620
 5576POPC   NC371831  17.667  23.002   5.488
 5576POPC   PO471832  17.421  22.438   5.716
 5576POPC   GL171833  17.683  22.698   5.933
 5576POPC   GL271834  17.475  23.014   5.967
 5576POPC   C1A71835  17.809  22.908   6.309
 5576POPC   D2A71836  17.550  22.956   6.677
 5576POPC   C3A71837  17.799  22.940   7.034
 5576POPC   C4A71838  17.846  23.129   7.433
 5576POPC   C1B71839  17.199  23.207   6.312
 5576POPC   C2B71840  17.109  23.223   6.757
 5576POPC   C3B71841  17.297  23.133   7.167
 5576POPC   C4B71842  17.440  23.405   7.518
 5577POPC   NC371843  22.438  33.853   5.367
 5577POPC   PO471844  22.012  33.336   5.288
 5577POPC   GL171845  22.184  33.538   5.730
 5577POPC   GL271846  22.264  33.927   5.846
 5577POPC   C1A71847  22.286  33.590   6.210
 5577POPC   D2A71848  22.112  33.929   6.509
 5577POPC   C3A71849  22.055  33.783   6.931
 5577POPC   C4A71850  22.422  33.588   7.213
 5577POPC   C1B71851  22.527  34.056   6.249
 5577POPC   C2B71852  22.431  34.295   6.687
 5577POPC   C3B71853  22.386  34.093   7.131
 5577POPC   C4B71854  22.271  34.111   7.601
 5578POPC   NC371855  20.719   9.829   4.962
 5578POPC   PO471856  20.560   9.997   5.513
 5578POPC   GL171857  20.608   9.803   5.931
 5578POPC   GL271858  20.424  10.027   6.110
 5578POPC   C1A71859  20.613   9.653   6.392
 5578POPC   D2A71860  20.787   9.681   6.804
 5578POPC   C3A71861  20.466   9.830   7.060
 5578POPC   C4A71862  20.034   9.736   7.093
 5578POPC   C1B71863  20.691  10.200   6.454
 5578POPC   C2B71864  20.997  10.167   6.783
 5578POPC   C3B71865  20.923  10.018   7.207
 5578POPC   C4B71866  20.638  10.161   7.541
 5579POPC   NC371867  39.013  10.453   5.495
 5579POPC   PO471868  39.671  10.381   5.484
 5579POPC   GL171869  39.446  10.707   5.784
 5579POPC   GL271870  39.074  10.854   5.797
 5579POPC   C1A71871  39.390  10.836   6.240
 5579POPC   D2A71872  39.128  10.739   6.634
 5579POPC   C3A71873  39.361  10.563   6.973
 5579POPC   C4A71874  39.545  10.299   7.290
 5579POPC   C1B71875  38.869  10.655   6.185
 5579POPC   C2B71876  38.616  10.631   6.594
 5579POPC   C3B71877  38.729  10.683   7.039
 5579POPC   C4B71878  39.063  10.968   7.127
 5580POPC   NC371879  13.758  23.987   4.996
 5580POPC   PO471880  13.584  23.563   5.440
 5580POPC   GL171881  13.478  23.798   5.804
 5580POPC   GL271882  13.773  23.751   5.885
 5580POPC   C1A71883  13.398  23.651   6.238
 5580POPC   D2A71884  13.661  23.653   6.623
 5580POPC   C3A71885  13.477  23.802   6.965
 5580POPC   C4A71886  13.252  23.927   7.301
 5580POPC   C1B71887  13.931  23.849   6.232
 5580POPC   C2B71888  14.126  23.948   6.601
 5580POPC   C3B71889  14.008  23.910   6.994
 5580POPC   C4B71890  13.834  23.669   7.289
 5581POPC   NC371891  42.052  35.852   5.542
 5581POPC   PO471892  41.430  35.925   5.405
 5581POPC   GL171893  41.600  36.119   5.738
 5581POPC   GL271894  41.614  36.491   5.671
 5581POPC   C1A71895  41.503  35.983   6.162
 5581POPC   D2A71896  41.239  35.886   6.525
 5581POPC   C3A71897  41.502  35.873   6.885
 5581POPC   C4A71898  41.537  36.057   7.280
 5581POPC   C1B71899  41.654  36.478   6.127
 5581POPC   C2B71900  41.588  36.294   6.571
 5581POPC   C3B71901  41.620  36.503   6.991
 5581POPC   C4B71902  41.871  36.450   7.379
 5582POPC   NC371903  41.371  14.375   5.490
 5582POPC   PO471904  41.981  14.021   5.599
 5582POPC   GL171905  41.704  14.186   5.901
 5582POPC   GL271906  41.612  14.549   5.898
 5582POPC   C1A71907  41.712  14.310   6.327
 5582POPC   D2A71908  41.476  14.436   6.669
 5582POPC   C3A71909  41.731  14.294   6.982
 5582POPC   C4A71910  41.663  14.032   7.311
 5582POPC   C1B71911  41.279  14.676   6.155
 5582POPC   C2B71912  41.074  14.732   6.559
 5582POPC   C3B71913  41.155  14.705   6.996
 5582POPC   C4B71914  41.465  14.592   7.314
 5583POPC   NC371915  35.291   8.599   5.380
 5583POPC   PO471916  35.311   7.938   5.193
 5583POPC   GL171917  35.462   8.101   5.606
 5583POPC   GL271918  35.129   8.188   5.694
 5583POPC   C1A71919  35.559   8.112   6.093
 5583POPC   D2A71920  35.483   8.300   6.544
 5583POPC   C3A71921  35.513   8.144   7.012
 5583POPC   C4A71922  35.647   8.061   7.471
 5583POPC   C1B71923  35.054   8.201   6.145
 5583POPC   C2B71924  34.948   8.269   6.603
 5583POPC   C3B71925  35.000   8.125   7.029
 5583POPC   C4B71926  35.162   8.215   7.426
 5584POPC   NC371927   6.302  44.199   5.229
 5584POPC   PO471928   6.802  43.783   5.273
 5584POPC   GL171929   6.794  43.616   5.704
 5584POPC   GL271930   7.034  43.791   5.850
 5584POPC   C1A71931   6.606  43.633   6.154
 5584POPC   D2A71932   6.407  43.993   6.368
 5584POPC   C3A71933   6.458  44.012   6.818
 5584POPC   C4A71934   6.531  44.311   7.120
 5584POPC   C1B71935   6.944  44.043   6.184
 5584POPC   C2B71936   6.881  43.899   6.564
 5584POPC   C3B71937   6.994  44.149   6.904
 5584POPC   C4B71938   6.864  43.895   7.161
 5585POPC   NC371939  39.614  22.881   5.653
 5585POPC   PO471940  38.938  22.951   5.461
 5585POPC   GL171941  38.985  23.121   5.835
 5585POPC   GL271942  39.174  22.870   5.929
 5585POPC   C1A71943  39.170  23.293   6.186
 5585POPC   D2A71944  39.279  23.158   6.586
 5585POPC   C3A71945  39.030  23.241   6.893
 5585POPC   C4A71946  39.058  23.039   7.251
 5585POPC   C1B71947  39.406  22.791   6.268
 5585POPC   C2B71948  39.522  22.550   6.618
 5585POPC   C3B71949  39.241  22.517   6.916
 5585POPC   C4B71950  39.199  22.543   7.329
 5586POPC   NC371951   6.769  24.326   5.267
 5586POPC   PO471952   6.294  24.755   5.431
 5586POPC   GL171953   6.365  24.502   5.801
 5586POPC   GL271954   6.632  24.241   5.782
 5586POPC   C1A71955   6.571  24.584   6.191
 5586POPC   D2A71956   6.660  24.900   6.502
 5586POPC   C3A71957   6.621  24.623   6.853
 5586POPC   C4A71958   6.664  24.616   7.281
 5586POPC   C1B71959   6.757  24.015   6.174
 5586POPC   C2B71960   6.686  24.196   6.561
 5586POPC   C3B71961   6.797  24.150   6.986
 5586POPC   C4B71962   6.658  23.895   7.296
 5587POPC   NC371963  42.731  36.042   5.546
 5587POPC   PO471964  43.333  36.176   5.410
 5587POPC   GL171965  43.125  36.279   5.762
 5587POPC   GL271966  43.113  35.953   5.883
 5587POPC   C1A71967  43.007  36.361   6.182
 5587POPC   D2A71968  42.947  36.150   6.578
 5587POPC   C3A71969  43.142  36.272   6.932
 5587POPC   C4A71970  43.251  35.966   7.221
 5587POPC   C1B71971  42.851  35.817   6.222
 5587POPC   C2B71972  42.810  35.615   6.618
 5587POPC   C3B71973  42.837  35.738   7.057
 5587POPC   C4B71974  42.567  35.789   7.444
 5588POPC   NC371975  16.261  38.609   5.216
 5588POPC   PO471976  15.862  38.146   5.486
 5588POPC   GL171977  15.953  38.510   5.748
 5588POPC   GL271978  16.289  38.683   5.723
 5588POPC   C1A71979  16.100  38.345   6.158
 5588POPC   D2A71980  15.936  38.208   6.558
 5588POPC   C3A71981  16.134  38.251   6.967
 5588POPC   C4A71982  15.989  38.348   7.383
 5588POPC   C1B71983  16.155  38.836   6.113
 5588POPC   C2B71984  16.047  38.719   6.520
 5588POPC   C3B71985  16.041  38.729   6.951
 5588POPC   C4B71986  16.332  38.693   7.277
 5589POPC   NC371987  11.290   3.448   5.384
 5589POPC   PO471988  10.869   3.950   5.477
 5589POPC   GL171989  11.083   3.652   5.794
 5589POPC   GL271990  11.455   3.751   5.760
 5589POPC   C1A71991  11.037   3.499   6.230
 5589POPC   D2A71992  11.072   3.736   6.620
 5589POPC   C3A71993  10.988   3.547   7.008
 5589POPC   C4A71994  11.265   3.327   7.209
 5589POPC   C1B71995  11.530   3.447   6.071
 5589POPC   C2B71996  11.504   3.447   6.514
 5589POPC   C3B71997  11.660   3.275   6.898
 5589POPC   C4B71998  11.742   3.495   7.295
 5590POPC   NC371999  13.582   6.497   5.246
 5590POPC   PO472000  13.486   7.099   5.531
 5590POPC   GL172001  13.502   6.701   5.739
 5590POPC   GL272002  13.790   6.450   5.765
 5590POPC   C1A72003  13.545   6.622   6.163
 5590POPC   D2A72004  13.598   6.849   6.515
 5590POPC   C3A72005  13.512   6.617   6.856
 5590POPC   C4A72006  13.607   6.754   7.211
 5590POPC   C1B72007  14.002   6.383   6.214
 5590POPC   C2B72008  14.122   6.399   6.659
 5590POPC   C3B72009  13.928   6.343   7.081
 5590POPC   C4B72010  13.502   6.227   7.230
 5591POPC   NC372011  22.311  14.019   5.211
 5591POPC   PO472012  22.505  13.388   5.311
 5591POPC   GL172013  22.535  13.610   5.727
 5591POPC   GL272014  22.206  13.500   5.812
 5591POPC   C1A72015  22.455  13.943   6.088
 5591POPC   D2A72016  22.084  13.923   6.360
 5591POPC   C3A72017  22.111  13.937   6.826
 5591POPC   C4A72018  21.809  13.825   7.117
 5591POPC   C1B72019  22.384  13.469   6.223
 5591POPC   C2B72020  22.240  13.501   6.641
 5591POPC   C3B72021  22.336  13.443   7.069
 5591POPC   C4B72022  22.402  13.321   7.494
 5592POPC   NC372023   5.763  23.056   5.505
 5592POPC   PO472024   6.169  22.572   5.452
 5592POPC   GL172025   6.031  22.764   5.879
 5592POPC   GL272026   5.912  23.154   5.961
 5592POPC   C1A72027   5.995  22.845   6.334
 5592POPC   D2A72028   5.993  23.262   6.488
 5592POPC   C3A72029   6.206  23.196   6.853
 5592POPC   C4A72030   6.289  22.944   7.209
 5592POPC   C1B72031   5.565  22.809   6.084
 5592POPC   C2B72032   5.513  22.666   6.495
 5592POPC   C3B72033   5.805  22.857   6.794
 5592POPC   C4B72034   5.789  23.050   7.156
 5593POPC   NC372035  35.205  17.309   5.465
 5593POPC   PO472036  35.803  17.665   5.454
 5593POPC   GL172037  35.495  17.602   5.809
 5593POPC   GL272038  35.486  17.244   5.904
 5593POPC   C1A72039  35.392  17.679   6.270
 5593POPC   D2A72040  35.679  17.633   6.654
 5593POPC   C3A72041  35.594  17.559   7.101
 5593POPC   C4A72042  35.278  17.646   7.417
 5593POPC   C1B72043  35.364  17.166   6.338
 5593POPC   C2B72044  35.206  17.344   6.730
 5593POPC   C3B72045  35.225  17.197   7.163
 5593POPC   C4B72046  35.492  17.215   7.540
 5594POPC   NC372047  30.467  25.806   5.295
 5594POPC   PO472048  30.896  25.251   5.169
 5594POPC   GL172049  30.854  25.367   5.664
 5594POPC   GL272050  30.521  25.497   5.819
 5594POPC   C1A72051  30.892  25.264   6.144
 5594POPC   D2A72052  30.937  25.387   6.613
 5594POPC   C3A72053  30.789  25.104   6.942
 5594POPC   C4A72054  30.933  24.983   7.340
 5594POPC   C1B72055  30.336  25.337   6.246
 5594POPC   C2B72056  30.376  25.353   6.722
 5594POPC   C3B72057  30.223  25.613   7.106
 5594POPC   C4B72058  30.481  25.703   7.531
 5595POPC   NC372059  36.328   9.271   5.190
 5595POPC   PO472060  35.923   9.735   5.294
 5595POPC   GL172061  35.970   9.707   5.732
 5595POPC   GL272062  36.191   9.436   5.767
 5595POPC   C1A72063  36.215   9.775   6.132
 5595POPC   D2A72064  36.304   9.499   6.478
 5595POPC   C3A72065  36.122   9.677   6.852
 5595POPC   C4A72066  36.307   9.892   7.190
 5595POPC   C1B72067  35.919   9.330   6.152
 5595POPC   C2B72068  35.800   9.186   6.585
 5595POPC   C3B72069  35.741   9.381   7.001
 5595POPC   C4B72070  35.863   9.683   7.326
 5596POPC   NC372071  25.742  33.127   5.600
 5596POPC   PO472072  26.433  33.310   5.457
 5596POPC   GL172073  26.178  33.233   5.851
 5596POPC   GL272074  26.286  32.881   5.927
 5596POPC   C1A72075  25.881  33.413   6.240
 5596POPC   D2A72076  25.592  33.422   6.648
 5596POPC   C3A72077  25.858  33.288   6.980
 5596POPC   C4A72078  25.922  33.344   7.397
 5596POPC   C1B72079  25.964  32.916   6.213
 5596POPC   C2B72080  25.782  32.946   6.587
 5596POPC   C3B72081  25.956  32.783   6.921
 5596POPC   C4B72082  26.131  32.872   7.271
 5597POPC   NC372083  12.524  23.128   5.419
 5597POPC   PO472084  12.060  22.622   5.393
 5597POPC   GL172085  12.166  22.870   5.776
 5597POPC   GL272086  11.958  23.169   5.900
 5597POPC   C1A72087  12.102  22.788   6.230
 5597POPC   D2A72088  12.282  22.944   6.608
 5597POPC   C3A72089  12.285  22.859   7.051
 5597POPC   C4A72090  12.027  22.636   7.329
 5597POPC   C1B72091  12.022  23.314   6.316
 5597POPC   C2B72092  11.791  23.121   6.621
 5597POPC   C3B72093  11.780  22.905   6.963
 5597POPC   C4B72094  11.875  23.136   7.328
 5598POPC   NC372095  35.580  18.791   5.334
 5598POPC   PO472096  35.333  19.391   5.084
 5598POPC   GL172097  35.309  19.190   5.556
 5598POPC   GL272098  35.626  19.175   5.715
 5598POPC   C1A72099  35.154  19.082   6.050
 5598POPC   D2A72100  34.953  19.086   6.517
 5598POPC   C3A72101  35.107  19.086   6.960
 5598POPC   C4A72102  35.441  18.810   7.105
 5598POPC   C1B72103  35.628  19.252   6.166
 5598POPC   C2B72104  35.498  19.178   6.609
 5598POPC   C3B72105  35.565  19.313   7.035
 5598POPC   C4B72106  35.563  19.138   7.474
 5599POPC   NC372107   3.782  10.947   5.131
 5599POPC   PO472108   4.464  11.255   5.292
 5599POPC   GL172109   4.290  11.322   5.683
 5599POPC   GL272110   4.235  10.985   5.706
 5599POPC   C1A72111   4.380  11.501   6.109
 5599POPC   D2A72112   4.530  11.684   6.517
 5599POPC   C3A72113   4.377  11.530   6.898
 5599POPC   C4A72114   4.299  11.316   7.263
 5599POPC   C1B72115   4.568  11.035   6.033
 5599POPC   C2B72116   4.636  11.176   6.471
 5599POPC   C3B72117   4.436  11.030   6.853
 5599POPC   C4B72118   4.033  10.950   6.993
 5600POPC   NC372119  21.675  30.133   5.381
 5600POPC   PO472120  21.225  29.603   5.457
 5600POPC   GL172121  21.438  29.900   5.803
 5600POPC   GL272122  21.818  29.907   5.823
 5600POPC   C1A72123  21.250  30.174   6.160
 5600POPC   D2A72124  21.110  30.206   6.593
 5600POPC   C3A72125  21.112  29.811   6.852
 5600POPC   C4A72126  21.176  29.876   7.296
 5600POPC   C1B72127  21.891  30.026   6.228
 5600POPC   C2B72128  21.594  30.030   6.569
 5600POPC   C3B72129  21.501  30.134   6.983
 5600POPC   C4B72130  21.684  30.003   7.370
 5601POPC   NC372131  38.271   3.267   5.450
 5601POPC   PO472132  38.141   3.905   5.373
 5601POPC   GL172133  38.144   3.697   5.801
 5601POPC   GL272134  38.314   3.394   5.954
 5601POPC   C1A72135  38.248   3.899   6.237
 5601POPC   D2A72136  38.533   3.961   6.634
 5601POPC   C3A72137  38.500   3.800   7.068
 5601POPC   C4A72138  38.819   3.729   7.385
 5601POPC   C1B72139  38.587   3.521   6.327
 5601POPC   C2B72140  38.793   3.512   6.730
 5601POPC   C3B72141  38.719   3.305   7.110
 5601POPC   C4B72142  38.744   3.240   7.563
 5602POPC   NC372143  24.601  34.853   5.463
 5602POPC   PO472144  24.257  35.476   5.395
 5602POPC   GL172145  24.368  35.383   5.807
 5602POPC   GL272146  24.232  35.061   5.763
 5602POPC   C1A72147  24.530  35.499   6.245
 5602POPC   D2A72148  24.674  35.695   6.636
 5602POPC   C3A72149  24.486  35.503   6.990
 5602POPC   C4A72150  24.622  35.263   7.346
 5602POPC   C1B72151  24.425  34.989   6.190
 5602POPC   C2B72152  24.363  35.125   6.638
 5602POPC   C3B72153  24.260  34.976   7.075
 5602POPC   C4B72154  24.243  35.001   7.540
 5603POPC   NC372155  42.553   0.629   5.531
 5603POPC   PO472156  42.422  44.957   5.518
 5603POPC   GL172157  42.262   0.214   5.880
 5603POPC   GL272158  42.391   0.530   5.991
 5603POPC   C1A72159  42.089   0.258   6.323
 5603POPC   D2A72160  41.938  44.991   6.623
 5603POPC   C3A72161  41.928   0.181   7.025
 5603POPC   C4A72162  42.180   0.549   7.133
 5603POPC   C1B72163  42.591   0.248   6.283
 5603POPC   C2B72164  42.505   0.263   6.726
 5603POPC   C3B72165  42.681   0.621   6.932
 5603POPC   C4B72166  42.627   0.789   7.292
 5604POPC   NC372167  28.186   8.495   5.602
 5604POPC   PO472168  28.445   7.959   5.411
 5604POPC   GL172169  28.373   8.064   5.804
 5604POPC   GL272170  28.065   7.887   5.817
 5604POPC   C1A72171  28.507   8.347   6.163
 5604POPC   D2A72172  28.753   8.523   6.510
 5604POPC   C3A72173  28.655   8.341   6.916
 5604POPC   C4A72174  28.403   8.493   7.245
 5604POPC   C1B72175  28.262   7.884   6.243
 5604POPC   C2B72176  28.280   8.139   6.569
 5604POPC   C3B72177  28.151   8.146   6.938
 5604POPC   C4B72178  28.266   7.971   7.303
 5605POPC   NC372179  31.096   0.486   5.517
 5605POPC   PO472180  31.814   0.457   5.596
 5605POPC   GL172181  31.425   0.448   5.919
 5605POPC   GL272182  31.152   0.745   5.933
 5605POPC   C1A72183  31.455   0.301   6.378
 5605POPC   D2A72184  31.801   0.366   6.670
 5605POPC   C3A72185  31.673   0.484   7.072
 5605POPC   C4A72186  31.463   0.276   7.447
 5605POPC   C1B72187  31.198   0.780   6.347
 5605POPC   C2B72188  31.123   0.610   6.724
 5605POPC   C3B72189  31.229   0.677   7.151
 5605POPC   C4B72190  31.118   0.797   7.557
 5606POPC   NC372191  15.747  27.024   5.386
 5606POPC   PO472192  16.314  26.768   5.427
 5606POPC   GL172193  16.004  26.805   5.774
 5606POPC   GL272194  15.972  27.179   5.830
 5606POPC   C1A72195  15.780  26.853   6.189
 5606POPC   D2A72196  15.524  26.832   6.560
 5606POPC   C3A72197  15.672  26.794   6.998
 5606POPC   C4A72198  15.819  26.454   7.274
 5606POPC   C1B72199  16.126  27.222   6.284
 5606POPC   C2B72200  15.931  27.142   6.699
 5606POPC   C3B72201  15.927  27.218   7.145
 5606POPC   C4B72202  16.176  27.471   7.456
 5607POPC   NC372203  10.995  33.336   5.430
 5607POPC   PO472204  11.490  32.920   5.469
 5607POPC   GL172205  11.170  32.868   5.834
 5607POPC   GL272206  11.064  33.196   5.913
 5607POPC   C1A72207  11.046  32.865   6.297
 5607POPC   D2A72208  10.943  33.195   6.595
 5607POPC   C3A72209  10.996  33.139   7.044
 5607POPC   C4A72210  11.093  33.357   7.420
 5607POPC   C1B72211  11.356  33.306   6.238
 5607POPC   C2B72212  11.370  33.557   6.595
 5607POPC   C3B72213  11.447  33.372   6.930
 5607POPC   C4B72214  11.571  33.261   7.284
 5608POPC   NC372215  29.691  36.063   5.413
 5608POPC   PO472216  28.904  36.105   5.495
 5608POPC   GL172217  29.035  36.332   5.833
 5608POPC   GL272218  29.380  36.218   5.842
 5608POPC   C1A72219  29.049  36.221   6.261
 5608POPC   D2A72220  29.265  36.252   6.648
 5608POPC   C3A72221  29.004  36.005   6.915
 5608POPC   C4A72222  28.830  36.012   7.295
 5608POPC   C1B72223  29.465  35.924   6.217
 5608POPC   C2B72224  29.289  35.739   6.597
 5608POPC   C3B72225  29.446  35.730   7.020
 5608POPC   C4B72226  29.517  35.908   7.406
 5609POPC   NC372227   8.359  44.496   5.408
 5609POPC   PO472228   7.888  44.983   5.516
 5609POPC   GL172229   8.057  44.666   5.806
 5609POPC   GL272230   8.387  44.748   5.864
 5609POPC   C1A72231   8.131  44.549   6.260
 5609POPC   D2A72232   8.047  44.457   6.702
 5609POPC   C3A72233   8.276  44.538   7.057
 5609POPC   C4A72234   8.139  44.603   7.483
 5609POPC   C1B72235   8.477  44.945   6.250
 5609POPC   C2B72236   8.429  44.801   6.634
 5609POPC   C3B72237   8.513  44.989   6.985
 5609POPC   C4B72238   8.649  44.751   7.337
 5610POPC   NC372239  10.104   4.873   5.503
 5610POPC   PO472240   9.559   5.223   5.278
 5610POPC   GL172241   9.685   5.158   5.747
 5610POPC   GL272242   9.758   5.479   5.781
 5610POPC   C1A72243   9.766   4.895   6.192
 5610POPC   D2A72244   9.885   5.027   6.631
 5610POPC   C3A72245  10.076   4.763   6.951
 5610POPC   C4A72246   9.751   4.856   7.249
 5610POPC   C1B72247   9.761   5.398   6.235
 5610POPC   C2B72248   9.435   5.390   6.556
 5610POPC   C3B72249   9.480   5.176   6.937
 5610POPC   C4B72250   9.790   5.382   7.224
 5611POPC   NC372251  29.606   1.715   5.575
 5611POPC   PO472252  30.217   1.779   5.198
 5611POPC   GL172253  30.202   1.905   5.647
 5611POPC   GL272254  29.917   2.093   5.820
 5611POPC   C1A72255  30.145   1.732   6.088
 5611POPC   D2A72256  30.255   1.886   6.515
 5611POPC   C3A72257  29.978   1.724   6.854
 5611POPC   C4A72258  29.856   1.505   7.251
 5611POPC   C1B72259  29.669   2.033   6.220
 5611POPC   C2B72260  29.699   2.133   6.692
 5611POPC   C3B72261  29.729   2.041   7.171
 5611POPC   C4B72262  29.658   2.113   7.625
 5612POPC   NC372263  38.044  19.981   5.442
 5612POPC   PO472264  37.872  19.446   5.685
 5612POPC   GL172265  38.165  19.777   5.914
 5612POPC   GL272266  38.452  19.951   5.756
 5612POPC   C1A72267  38.317  19.895   6.368
 5612POPC   D2A72268  38.369  19.651   6.776
 5612POPC   C3A72269  38.564  19.820   7.152
 5612POPC   C4A72270  38.449  20.198   7.297
 5612POPC   C1B72271  38.752  19.857   6.092
 5612POPC   C2B72272  38.827  19.739   6.531
 5612POPC   C3B72273  38.860  19.477   6.937
 5612POPC   C4B72274  38.961  19.563   7.402
 5613POPC   NC372275  30.735  24.848   5.395
 5613POPC   PO472276  31.105  24.273   5.139
 5613POPC   GL172277  30.865  24.399   5.618
 5613POPC   GL272278  30.510  24.299   5.782
 5613POPC   C1A72279  30.785  24.663   6.057
 5613POPC   D2A72280  31.095  24.809   6.410
 5613POPC   C3A72281  31.025  24.643   6.840
 5613POPC   C4A72282  30.689  24.567   7.132
 5613POPC   C1B72283  30.590  24.227   6.257
 5613POPC   C2B72284  30.681  24.265   6.711
 5613POPC   C3B72285  30.554  24.036   7.120
 5613POPC   C4B72286  30.642  24.133   7.571
 5614POPC   NC372287  18.208  19.575   5.273
 5614POPC   PO472288  17.989  20.184   5.433
 5614POPC   GL172289  18.236  19.949   5.743
 5614POPC   GL272290  18.251  19.594   5.818
 5614POPC   C1A72291  18.380  19.918   6.194
 5614POPC   D2A72292  18.159  19.712   6.527
 5614POPC   C3A72293  18.216  19.546   6.926
 5614POPC   C4A72294  18.200  19.666   7.344
 5614POPC   C1B72295  18.487  19.427   6.237
 5614POPC   C2B72296  18.664  19.334   6.703
 5614POPC   C3B72297  18.615  19.365   7.208
 5614POPC   C4B72298  18.558  19.497   7.659
 5615POPC   NC372299  41.915   8.293   5.412
 5615POPC   PO472300  41.280   8.483   5.309
 5615POPC   GL172301  41.533   8.452   5.738
 5615POPC   GL272302  41.917   8.466   5.891
 5615POPC   C1A72303  41.534   8.316   6.185
 5615POPC   D2A72304  41.713   8.025   6.509
 5615POPC   C3A72305  41.597   8.075   6.966
 5615POPC   C4A72306  41.439   7.732   7.238
 5615POPC   C1B72307  42.011   8.432   6.355
 5615POPC   C2B72308  41.774   8.495   6.743
 5615POPC   C3B72309  41.917   8.385   7.201
 5615POPC   C4B72310  42.036   8.321   7.639
 5616POPC   NC372311   5.303  18.632   5.375
 5616POPC   PO472312   4.936  18.023   5.412
 5616POPC   GL172313   5.097  18.315   5.716
 5616POPC   GL272314   4.882  18.196   5.915
 5616POPC   C1A72315   5.235  18.477   6.153
 5616POPC   D2A72316   5.334  18.286   6.574
 5616POPC   C3A72317   5.224  18.542   6.891
 5616POPC   C4A72318   5.094  18.432   7.285
 5616POPC   C1B72319   5.084  17.997   6.215
 5616POPC   C2B72320   4.922  17.954   6.603
 5616POPC   C3B72321   5.108  17.988   6.987
 5616POPC   C4B72322   4.907  17.945   7.373
 5617POPC   NC372323  29.451   7.035   5.473
 5617POPC   PO472324  28.791   7.194   5.256
 5617POPC   GL172325  29.052   7.284   5.745
 5617POPC   GL272326  29.429   7.265   5.925
 5617POPC   C1A72327  29.080   7.402   6.240
 5617POPC   D2A72328  28.868   7.482   6.624
 5617POPC   C3A72329  29.022   7.395   6.997
 5617POPC   C4A72330  28.992   7.572   7.412
 5617POPC   C1B72331  29.488   7.690   6.160
 5617POPC   C2B72332  29.314   7.795   6.590
 5617POPC   C3B72333  29.383   7.739   7.058
 5617POPC   C4B72334  29.427   7.860   7.479
 5618POPC   NC372335  35.779  18.084   5.224
 5618POPC   PO472336  35.208  18.468   5.439
 5618POPC   GL172337  35.222  18.211   5.815
 5618POPC   GL272338  35.050  17.868   5.753
 5618POPC   C1A72339  35.162  18.425   6.234
 5618POPC   D2A72340  35.256  18.646   6.630
 5618POPC   C3A72341  35.293  18.332   6.954
 5618POPC   C4A72342  35.513  18.056   7.241
 5618POPC   C1B72343  34.915  17.982   6.159
 5618POPC   C2B72344  35.109  18.011   6.553
 5618POPC   C3B72345  35.152  17.833   6.949
 5618POPC   C4B72346  35.011  18.064   7.325
 5619POPC   NC372347  33.215   7.715   5.185
 5619POPC   PO472348  32.750   7.269   5.334
 5619POPC   GL172349  32.913   7.349   5.787
 5619POPC   GL272350  33.251   7.236   5.866
 5619POPC   C1A72351  32.922   7.350   6.276
 5619POPC   D2A72352  32.834   7.646   6.660
 5619POPC   C3A72353  32.840   7.545   7.135
 5619POPC   C4A72354  32.576   7.270   7.420
 5619POPC   C1B72355  33.254   7.660   6.033
 5619POPC   C2B72356  33.315   7.674   6.461
 5619POPC   C3B72357  33.321   7.624   6.917
 5619POPC   C4B72358  33.282   7.571   7.393
 5620POPC   NC372359  39.560   1.283   5.474
 5620POPC   PO472360  38.935   1.093   5.329
 5620POPC   GL172361  39.152   1.018   5.702
 5620POPC   GL272362  39.225   1.339   5.847
 5620POPC   C1A72363  39.044   0.993   6.154
 5620POPC   D2A72364  39.241   0.917   6.518
 5620POPC   C3A72365  39.257   1.098   6.909
 5620POPC   C4A72366  39.382   0.880   7.258
 5620POPC   C1B72367  39.146   1.546   6.215
 5620POPC   C2B72368  39.369   1.546   6.600
 5620POPC   C3B72369  39.366   1.587   7.044
 5620POPC   C4B72370  39.313   1.402   7.434
 5621POPC   NC372371  30.885  27.990   5.388
 5621POPC   PO472372  30.606  28.590   5.310
 5621POPC   GL172373  30.692  28.368   5.724
 5621POPC   GL272374  31.027  28.148   5.836
 5621POPC   C1A72375  30.467  28.442   6.141
 5621POPC   D2A72376  30.499  28.266   6.566
 5621POPC   C3A72377  30.613  28.536   6.945
 5621POPC   C4A72378  30.482  28.626   7.383
 5621POPC   C1B72379  30.949  28.332   6.174
 5621POPC   C2B72380  30.998  28.398   6.566
 5621POPC   C3B72381  30.864  28.097   6.885
 5621POPC   C4B72382  30.722  28.145   7.307
 5622POPC   NC372383   9.659  19.472   5.183
 5622POPC   PO472384   9.916  18.924   5.266
 5622POPC   GL172385   9.675  19.119   5.595
 5622POPC   GL272386   9.912  19.339   5.792
 5622POPC   C1A72387   9.585  19.035   6.044
 5622POPC   D2A72388   9.558  19.184   6.480
 5622POPC   C3A72389   9.717  19.051   6.875
 5622POPC   C4A72390   9.533  18.965   7.248
 5622POPC   C1B72391  10.011  19.198   6.243
 5622POPC   C2B72392  10.085  19.371   6.660
 5622POPC   C3B72393  10.052  19.359   7.125
 5622POPC   C4B72394   9.976  19.083   7.508
 5623POPC   NC372395  37.382  34.545   5.399
 5623POPC   PO472396  38.008  34.584   5.430
 5623POPC   GL172397  37.726  34.484   5.756
 5623POPC   GL272398  37.687  34.830   5.775
 5623POPC   C1A72399  37.729  34.525   6.205
 5623POPC   D2A72400  38.057  34.545   6.509
 5623POPC   C3A72401  37.829  34.599   6.871
 5623POPC   C4A72402  37.558  34.358   7.145
 5623POPC   C1B72403  37.861  35.038   6.152
 5623POPC   C2B72404  37.612  35.028   6.549
 5623POPC   C3B72405  37.454  34.937   6.960
 5623POPC   C4B72406  37.678  34.818   7.334
 5624POPC   NC372407  35.202  21.776   5.404
 5624POPC   PO472408  35.536  21.193   5.420
 5624POPC   GL172409  35.369  21.255   5.781
 5624POPC   GL272410  35.483  20.929   5.884
 5624POPC   C1A72411  35.154  21.561   6.034
 5624POPC   D2A72412  35.114  21.745   6.435
 5624POPC   C3A72413  35.388  21.741   6.790
 5624POPC   C4A72414  35.289  21.533   7.151
 5624POPC   C1B72415  35.261  21.098   6.248
 5624POPC   C2B72416  35.265  21.257   6.651
 5624POPC   C3B72417  35.320  21.030   7.018
 5624POPC   C4B72418  35.527  20.877   7.372
 5625POPC   NC372419  35.327  40.975   5.318
 5625POPC   PO472420  35.452  40.316   5.355
 5625POPC   GL172421  35.471  40.651   5.681
 5625POPC   GL272422  35.141  40.825   5.778
 5625POPC   C1A72423  35.536  40.777   6.098
 5625POPC   D2A72424  35.319  40.613   6.426
 5625POPC   C3A72425  35.292  40.622   6.885
 5625POPC   C4A72426  35.533  40.862   7.175
 5625POPC   C1B72427  34.896  40.813   6.163
 5625POPC   C2B72428  34.954  40.962   6.586
 5625POPC   C3B72429  35.112  41.098   6.981
 5625POPC   C4B72430  35.045  40.857   7.344
 5626POPC   NC372431   7.377  27.410   5.338
 5626POPC   PO472432   7.678  26.909   5.635
 5626POPC   GL172433   7.613  27.342   5.835
 5626POPC   GL272434   7.370  27.656   5.802
 5626POPC   C1A72435   7.399  27.444   6.242
 5626POPC   D2A72436   7.545  27.628   6.591
 5626POPC   C3A72437   7.349  27.527   6.948
 5626POPC   C4A72438   7.611  27.411   7.247
 5626POPC   C1B72439   7.656  27.878   6.139
 5626POPC   C2B72440   7.681  28.110   6.562
 5626POPC   C3B72441   7.678  27.939   6.993
 5626POPC   C4B72442   7.513  27.870   7.397
 5627POPC   NC372443   8.417  23.592   5.381
 5627POPC   PO472444   9.000  23.930   5.319
 5627POPC   GL172445   8.999  23.826   5.783
 5627POPC   GL272446   8.652  23.880   5.755
 5627POPC   C1A72447   9.160  23.700   6.230
 5627POPC   D2A72448   9.215  23.578   6.674
 5627POPC   C3A72449   9.182  23.920   6.998
 5627POPC   C4A72450   9.345  24.057   7.433
 5627POPC   C1B72451   8.625  23.706   6.153
 5627POPC   C2B72452   8.733  23.787   6.560
 5627POPC   C3B72453   8.777  23.594   6.945
 5627POPC   C4B72454   8.798  23.806   7.350
 5628POPC   NC372455   6.815  26.813   5.457
 5628POPC   PO472456   6.228  26.650   5.150
 5628POPC   GL172457   6.246  26.821   5.604
 5628POPC   GL272458   6.446  26.604   5.766
 5628POPC   C1A72459   6.288  26.945   6.092
 5628POPC   D2A72460   6.573  26.992   6.451
 5628POPC   C3A72461   6.577  26.756   6.842
 5628POPC   C4A72462   6.510  26.895   7.243
 5628POPC   C1B72463   6.775  26.660   6.083
 5628POPC   C2B72464   6.890  26.562   6.493
 5628POPC   C3B72465   7.112  26.697   6.803
 5628POPC   C4B72466   7.156  26.671   7.233
 5629POPC   NC372467  10.256   1.322   5.363
 5629POPC   PO472468   9.616   1.076   5.397
 5629POPC   GL172469   9.614   1.157   5.861
 5629POPC   GL272470   9.390   0.927   6.069
 5629POPC   C1A72471   9.817   1.207   6.284
 5629POPC   D2A72472   9.659   1.027   6.680
 5629POPC   C3A72473   9.903   0.991   7.064
 5629POPC   C4A72474   9.731   1.021   7.518
 5629POPC   C1B72475   9.315   1.296   6.352
 5629POPC   C2B72476   9.588   1.546   6.618
 5629POPC   C3B72477   9.700   1.459   7.012
 5629POPC   C4B72478   9.538   1.489   7.432
 5630POPC   NC372479  32.174   3.090   5.472
 5630POPC   PO472480  32.471   3.694   5.453
 5630POPC   GL172481  32.201   3.659   5.780
 5630POPC   GL272482  32.423   3.371   5.862
 5630POPC   C1A72483  32.252   3.739   6.233
 5630POPC   D2A72484  32.532   3.674   6.592
 5630POPC   C3A72485  32.394   3.606   7.016
 5630POPC   C4A72486  32.069   3.750   7.271
 5630POPC   C1B72487  32.366   3.250   6.298
 5630POPC   C2B72488  32.165   2.995   6.580
 5630POPC   C3B72489  32.139   3.134   6.991
 5630POPC   C4B72490  32.185   3.272   7.410
 5631POPC   NC372491  26.859   9.614   5.440
 5631POPC   PO472492  26.207   9.477   5.434
 5631POPC   GL172493  26.512   9.568   5.808
 5631POPC   GL272494  26.685   9.907   5.817
 5631POPC   C1A72495  26.554   9.430   6.252
 5631POPC   D2A72496  26.435   9.571   6.672
 5631POPC   C3A72497  26.766   9.588   7.001
 5631POPC   C4A72498  26.915   9.994   7.196
 5631POPC   C1B72499  26.976   9.702   6.124
 5631POPC   C2B72500  27.082   9.623   6.585
 5631POPC   C3B72501  27.266   9.615   7.036
 5631POPC   C4B72502  27.144   9.686   7.512
 5632POPC   NC372503  19.359  19.157   5.375
 5632POPC   PO472504  18.729  18.897   5.510
 5632POPC   GL172505  19.062  19.061   5.792
 5632POPC   GL272506  19.008  19.382   5.967
 5632POPC   C1A72507  19.284  19.025   6.192
 5632POPC   D2A72508  19.182  19.346   6.504
 5632POPC   C3A72509  19.288  19.242   6.934
 5632POPC   C4A72510  19.346  18.840   7.131
 5632POPC   C1B72511  18.790  19.031   6.242
 5632POPC   C2B72512  18.965  18.876   6.639
 5632POPC   C3B72513  18.830  18.938   7.053
 5632POPC   C4B72514  19.019  19.125   7.425
 5633POPC   NC372515  30.371  28.933   5.113
 5633POPC   PO472516  30.886  29.173   5.440
 5633POPC   GL172517  30.703  28.930   5.777
 5633POPC   GL272518  30.659  29.239   6.003
 5633POPC   C1A72519  30.854  28.821   6.212
 5633POPC   D2A72520  30.727  28.934   6.627
 5633POPC   C3A72521  30.995  29.057   6.955
 5633POPC   C4A72522  30.996  29.407   7.257
 5633POPC   C1B72523  30.347  28.949   6.163
 5633POPC   C2B72524  30.253  28.753   6.542
 5633POPC   C3B72525  30.225  28.872   6.990
 5633POPC   C4B72526  30.533  29.142   7.154
 5634POPC   NC372527  43.210  25.659   5.458
 5634POPC   PO472528  42.836  26.192   5.444
 5634POPC   GL172529  42.971  26.013   5.807
 5634POPC   GL272530  43.340  26.061   5.779
 5634POPC   C1A72531  43.116  25.865   6.235
 5634POPC   D2A72532  43.033  25.781   6.687
 5634POPC   C3A72533  43.016  25.978   7.097
 5634POPC   C4A72534  42.731  26.315   7.193
 5634POPC   C1B72535  43.176  26.359   6.110
 5634POPC   C2B72536  43.285  26.273   6.529
 5634POPC   C3B72537  43.224  26.403   6.923
 5634POPC   C4B72538  43.404  26.250   7.280
 5635POPC   NC372539  24.063  31.757   5.549
 5635POPC   PO472540  23.594  31.273   5.328
 5635POPC   GL172541  23.635  31.189   5.762
 5635POPC   GL272542  23.964  31.225   5.802
 5635POPC   C1A72543  23.610  31.461   6.137
 5635POPC   D2A72544  23.497  31.671   6.528
 5635POPC   C3A72545  23.576  31.392   6.890
 5635POPC   C4A72546  23.539  31.565   7.296
 5635POPC   C1B72547  23.879  31.016   6.234
 5635POPC   C2B72548  23.990  31.024   6.694
 5635POPC   C3B72549  23.741  30.848   7.024
 5635POPC   C4B72550  23.591  31.002   7.424
 5636POPC   NC372551  43.694  15.330   5.316
 5636POPC   PO472552  44.162  14.776   5.349
 5636POPC   GL172553  43.986  15.038   5.668
 5636POPC   GL272554  44.309  15.063   5.818
 5636POPC   C1A72555  43.907  15.392   5.970
 5636POPC   D2A72556  43.763  15.509   6.396
 5636POPC   C3A72557  43.931  15.337   6.768
 5636POPC   C4A72558  43.868  15.351   7.222
 5636POPC   C1B72559  44.187  15.041   6.242
 5636POPC   C2B72560  44.277  14.876   6.623
 5636POPC   C3B72561  44.272  15.043   6.993
 5636POPC   C4B72562  44.291  15.145   7.395
 5637POPC   NC372563  19.523  20.639   5.651
 5637POPC   PO472564  18.925  20.524   5.437
 5637POPC   GL172565  18.938  20.668   5.874
 5637POPC   GL272566  18.696  20.946   5.807
 5637POPC   C1A72567  19.258  20.726   6.269
 5637POPC   D2A72568  19.475  20.694   6.720
 5637POPC   C3A72569  19.118  20.650   7.019
 5637POPC   C4A72570  18.784  20.331   7.074
 5637POPC   C1B72571  18.859  21.073   6.193
 5637POPC   C2B72572  18.869  20.881   6.599
 5637POPC   C3B72573  18.810  21.083   6.977
 5637POPC   C4B72574  18.560  21.149   7.326
 5638POPC   NC372575  28.073  14.938   5.478
 5638POPC   PO472576  28.262  14.283   5.457
 5638POPC   GL172577  28.366  14.351   5.839
 5638POPC   GL272578  28.123  14.615   5.890
 5638POPC   C1A72579  28.347  14.199   6.245
 5638POPC   D2A72580  28.214  14.428   6.584
 5638POPC   C3A72581  28.495  14.393   6.928
 5638POPC   C4A72582  28.408  14.280   7.330
 5638POPC   C1B72583  27.862  14.659   6.254
 5638POPC   C2B72584  27.907  14.843   6.672
 5638POPC   C3B72585  28.026  14.599   7.036
 5638POPC   C4B72586  28.056  14.628   7.462
 5639POPC   NC372587  37.693  32.770   5.426
 5639POPC   PO472588  37.592  33.463   5.412
 5639POPC   GL172589  37.653  33.148   5.774
 5639POPC   GL272590  37.394  32.870   5.860
 5639POPC   C1A72591  37.750  32.986   6.190
 5639POPC   D2A72592  37.578  33.088   6.574
 5639POPC   C3A72593  37.650  32.876   6.957
 5639POPC   C4A72594  38.104  32.840   7.069
 5639POPC   C1B72595  37.260  33.226   6.114
 5639POPC   C2B72596  37.183  33.411   6.525
 5639POPC   C3B72597  37.293  33.316   6.934
 5639POPC   C4B72598  37.513  33.260   7.294
 5640POPC   NC372599  18.476  37.870   5.260
 5640POPC   PO472600  18.348  37.260   5.416
 5640POPC   GL172601  18.647  37.547   5.669
 5640POPC   GL272602  18.569  37.899   5.770
 5640POPC   C1A72603  18.704  37.563   6.121
 5640POPC   D2A72604  18.521  37.457   6.536
 5640POPC   C3A72605  18.575  37.603   6.971
 5640POPC   C4A72606  18.335  37.459   7.350
 5640POPC   C1B72607  18.391  37.958   6.230
 5640POPC   C2B72608  18.324  37.946   6.697
 5640POPC   C3B72609  18.041  37.743   7.009
 5640POPC   C4B72610  17.883  37.688   7.425
 5641POPC   NC372611  37.839   6.828   5.309
 5641POPC   PO472612  37.399   6.336   5.414
 5641POPC   GL172613  37.620   6.568   5.731
 5641POPC   GL272614  37.485   6.885   5.723
 5641POPC   C1A72615  37.612   6.435   6.167
 5641POPC   D2A72616  37.632   6.240   6.570
 5641POPC   C3A72617  37.673   6.417   6.983
 5641POPC   C4A72618  37.662   6.716   7.323
 5641POPC   C1B72619  37.666   6.930   6.159
 5641POPC   C2B72620  37.620   6.775   6.585
 5641POPC   C3B72621  37.923   6.873   6.909
 5641POPC   C4B72622  37.993   7.098   7.282
 5642POPC   NC372623   0.841  42.593   5.155
 5642POPC   PO472624   1.459  42.360   5.382
 5642POPC   GL172625   1.341  42.503   5.801
 5642POPC   GL272626   1.244  42.169   5.931
 5642POPC   C1A72627   1.409  42.583   6.239
 5642POPC   D2A72628   1.261  42.330   6.567
 5642POPC   C3A72629   1.414  42.287   6.996
 5642POPC   C4A72630   1.367  42.479   7.401
 5642POPC   C1B72631   1.082  41.933   6.293
 5642POPC   C2B72632   1.012  41.928   6.759
 5642POPC   C3B72633   1.035  42.005   7.214
 5642POPC   C4B72634   1.091  42.123   7.659
 5643POPC   NC372635   1.133  27.775   5.433
 5643POPC   PO472636   1.730  27.408   5.520
 5643POPC   GL172637   1.473  27.660   5.795
 5643POPC   GL272638   1.448  28.027   5.761
 5643POPC   C1A72639   1.205  27.578   6.114
 5643POPC   D2A72640   1.325  27.529   6.500
 5643POPC   C3A72641   1.062  27.590   6.853
 5643POPC   C4A72642   0.951  27.414   7.253
 5643POPC   C1B72643   1.572  28.010   6.186
 5643POPC   C2B72644   1.716  27.864   6.585
 5643POPC   C3B72645   1.598  27.974   6.976
 5643POPC   C4B72646   1.319  27.770   7.253
 5644POPC   NC372647  14.335  10.651   5.494
 5644POPC   PO472648  14.563  10.994   5.989
 5644POPC   GL172649  14.513  10.524   6.011
 5644POPC   GL272650  14.152  10.468   5.960
 5644POPC   C1A72651  14.658  10.317   6.415
 5644POPC   D2A72652  14.802  10.545   6.759
 5644POPC   C3A72653  14.690  10.503   7.182
 5644POPC   C4A72654  14.480  10.750   7.541
 5644POPC   C1B72655  14.182  10.181   6.289
 5644POPC   C2B72656  14.247  10.219   6.734
 5644POPC   C3B72657  14.189  10.401   7.131
 5644POPC   C4B72658  14.344  10.262   7.513
 5645POPC   NC372659   1.733  28.709   5.380
 5645POPC   PO472660   1.182  28.227   5.352
 5645POPC   GL172661   1.201  28.474   5.777
 5645POPC   GL272662   1.561  28.551   5.881
 5645POPC   C1A72663   1.217  28.393   6.248
 5645POPC   D2A72664   1.213  28.038   6.566
 5645POPC   C3A72665   1.076  28.151   6.969
 5645POPC   C4A72666   0.936  28.087   7.375
 5645POPC   C1B72667   1.591  28.807   6.281
 5645POPC   C2B72668   1.484  28.864   6.731
 5645POPC   C3B72669   1.374  28.586   7.094
 5645POPC   C4B72670   1.426  28.242   7.378
 5646POPC   NC372671  32.192  18.254   5.499
 5646POPC   PO472672  32.803  18.187   5.522
 5646POPC   GL172673  32.532  18.374   5.858
 5646POPC   GL272674  32.298  18.061   5.958
 5646POPC   C1A72675  32.253  18.479   6.211
 5646POPC   D2A72676  32.347  18.164   6.546
 5646POPC   C3A72677  32.298  18.299   6.959
 5646POPC   C4A72678  32.228  18.325   7.398
 5646POPC   C1B72679  31.921  18.068   6.288
 5646POPC   C2B72680  31.872  18.374   6.651
 5646POPC   C3B72681  31.838  18.457   7.100
 5646POPC   C4B72682  31.758  18.203   7.508
 5647POPC   NC372683   5.586  23.918   5.573
 5647POPC   PO472684   5.090  23.511   5.244
 5647POPC   GL172685   5.109  23.701   5.653
 5647POPC   GL272686   5.387  23.499   5.775
 5647POPC   C1A72687   4.998  23.611   6.092
 5647POPC   D2A72688   5.076  23.507   6.520
 5647POPC   C3A72689   5.048  23.814   6.883
 5647POPC   C4A72690   5.377  23.881   7.201
 5647POPC   C1B72691   5.459  23.317   6.161
 5647POPC   C2B72692   5.481  23.191   6.581
 5647POPC   C3B72693   5.319  23.333   6.968
 5647POPC   C4B72694   5.087  23.469   7.288
 5648POPC   NC372695   3.510   7.580   5.326
 5648POPC   PO472696   3.558   7.035   5.586
 5648POPC   GL172697   3.355   7.347   5.805
 5648POPC   GL272698   3.468   7.680   5.842
 5648POPC   C1A72699   3.300   7.291   6.246
 5648POPC   D2A72700   3.325   7.507   6.646
 5648POPC   C3A72701   3.351   7.209   6.975
 5648POPC   C4A72702   3.197   7.354   7.332
 5648POPC   C1B72703   3.656   7.648   6.253
 5648POPC   C2B72704   3.820   7.342   6.559
 5648POPC   C3B72705   3.847   7.361   7.005
 5648POPC   C4B72706   3.588   7.707   7.115
 5649POPC   NC372707   0.002  11.111   5.538
 5649POPC   PO472708   0.646  10.930   5.428
 5649POPC   GL172709   0.450  11.207   5.778
 5649POPC   GL272710   0.691  11.449   5.875
 5649POPC   C1A72711   0.116  11.347   6.136
 5649POPC   D2A72712  44.965  11.383   6.585
 5649POPC   C3A72713   0.280  11.243   6.882
 5649POPC   C4A72714   0.304  11.063   7.298
 5649POPC   C1B72715   0.553  11.558   6.294
 5649POPC   C2B72716   0.692  11.519   6.707
 5649POPC   C3B72717   0.915  11.572   7.050
 5649POPC   C4B72718   0.750  11.312   7.291
 5650POPC   NC372719  43.605   9.825   5.381
 5650POPC   PO472720  43.982   9.395   5.548
 5650POPC   GL172721  43.833   9.693   5.867
 5650POPC   GL272722  43.811  10.084   5.798
 5650POPC   C1A72723  43.759   9.644   6.302
 5650POPC   D2A72724  43.689   9.601   6.735
 5650POPC   C3A72725  43.980   9.628   7.048
 5650POPC   C4A72726  43.808   9.715   7.468
 5650POPC   C1B72727  43.896  10.242   6.226
 5650POPC   C2B72728  43.865  10.082   6.638
 5650POPC   C3B72729  43.699  10.042   7.042
 5650POPC   C4B72730  43.893  10.236   7.388
 5651POPC   NC372731  39.584  30.425   5.418
 5651POPC   PO472732  39.301  31.058   5.320
 5651POPC   GL172733  39.313  31.071   5.802
 5651POPC   GL272734  39.149  30.745   5.959
 5651POPC   C1A72735  39.496  30.965   6.216
 5651POPC   D2A72736  39.319  30.711   6.542
 5651POPC   C3A72737  39.057  30.892   6.839
 5651POPC   C4A72738  39.054  30.925   7.254
 5651POPC   C1B72739  39.080  30.364   6.229
 5651POPC   C2B72740  38.931  30.310   6.671
 5651POPC   C3B72741  39.066  30.434   7.105
 5651POPC   C4B72742  39.075  30.285   7.578
 5652POPC   NC372743   6.239   9.782   5.598
 5652POPC   PO472744   6.895   9.593   5.304
 5652POPC   GL172745   6.723   9.645   5.725
 5652POPC   GL272746   6.804   9.961   5.927
 5652POPC   C1A72747   6.649   9.547   6.155
 5652POPC   D2A72748   6.838   9.665   6.547
 5652POPC   C3A72749   6.631   9.642   6.928
 5652POPC   C4A72750   6.594   9.680   7.343
 5652POPC   C1B72751   6.807  10.163   6.354
 5652POPC   C2B72752   6.826  10.100   6.824
 5652POPC   C3B72753   6.498  10.101   7.109
 5652POPC   C4B72754   6.365  10.163   7.550
 5653POPC   NC372755  42.997  24.943   5.443
 5653POPC   PO472756  43.523  25.325   5.487
 5653POPC   GL172757  43.191  25.269   5.793
 5653POPC   GL272758  42.942  25.518   5.904
 5653POPC   C1A72759  43.292  25.297   6.213
 5653POPC   D2A72760  43.164  25.107   6.580
 5653POPC   C3A72761  43.230  25.341   6.924
 5653POPC   C4A72762  43.235  25.217   7.346
 5653POPC   C1B72763  42.806  25.419   6.334
 5653POPC   C2B72764  42.679  25.435   6.782
 5653POPC   C3B72765  42.849  25.512   7.212
 5653POPC   C4B72766  43.087  25.666   7.600
 5654POPC   NC372767  28.422  13.850   5.376
 5654POPC   PO472768  28.461  13.154   5.576
 5654POPC   GL172769  28.390  13.542   5.788
 5654POPC   GL272770  28.638  13.839   5.848
 5654POPC   C1A72771  28.247  13.694   6.173
 5654POPC   D2A72772  28.450  13.711   6.574
 5654POPC   C3A72773  28.261  13.580   6.957
 5654POPC   C4A72774  28.152  13.776   7.361
 5654POPC   C1B72775  28.851  13.947   6.268
 5654POPC   C2B72776  28.842  14.012   6.743
 5654POPC   C3B72777  28.630  13.869   7.122
 5654POPC   C4B72778  28.606  13.888   7.595
 5655POPC   NC372779  35.213  27.114   5.625
 5655POPC   PO472780  35.275  27.727   5.310
 5655POPC   GL172781  35.128  27.710   5.742
 5655POPC   GL272782  35.437  27.889   5.777
 5655POPC   C1A72783  35.053  27.604   6.204
 5655POPC   D2A72784  35.303  27.413   6.553
 5655POPC   C3A72785  35.187  27.348   6.977
 5655POPC   C4A72786  35.408  27.403   7.331
 5655POPC   C1B72787  35.318  28.053   6.172
 5655POPC   C2B72788  35.210  27.945   6.584
 5655POPC   C3B72789  35.315  27.847   7.000
 5655POPC   C4B72790  35.209  28.003   7.392
 5656POPC   NC372791  13.452  32.507   5.519
 5656POPC   PO472792  13.322  33.144   5.641
 5656POPC   GL172793  13.556  32.887   5.929
 5656POPC   GL272794  13.389  32.586   6.018
 5656POPC   C1A72795  13.727  33.066   6.320
 5656POPC   D2A72796  13.605  33.181   6.738
 5656POPC   C3A72797  13.862  33.051   7.073
 5656POPC   C4A72798  13.968  33.236   7.474
 5656POPC   C1B72799  13.153  32.546   6.389
 5656POPC   C2B72800  13.116  32.878   6.711
 5656POPC   C3B72801  13.293  32.983   7.105
 5656POPC   C4B72802  13.602  32.869   7.474
 5657POPC   NC372803   2.535  15.296   5.685
 5657POPC   PO472804   3.117  15.166   5.330
 5657POPC   GL172805   2.979  15.105   5.821
 5657POPC   GL272806   2.682  14.917   5.985
 5657POPC   C1A72807   3.072  15.100   6.277
 5657POPC   D2A72808   3.216  15.349   6.642
 5657POPC   C3A72809   3.075  15.201   7.039
 5657POPC   C4A72810   3.104  14.896   7.369
 5657POPC   C1B72811   2.548  15.177   6.307
 5657POPC   C2B72812   2.407  15.179   6.687
 5657POPC   C3B72813   2.567  15.286   7.069
 5657POPC   C4B72814   2.666  15.100   7.509
 5658POPC   NC372815   5.553  26.447   5.516
 5658POPC   PO472816   5.653  27.029   5.790
 5658POPC   GL172817   5.836  26.654   5.903
 5658POPC   GL272818   5.986  26.317   5.803
 5658POPC   C1A72819   5.697  26.453   6.268
 5658POPC   D2A72820   5.596  26.689   6.640
 5658POPC   C3A72821   5.866  26.939   6.899
 5658POPC   C4A72822   5.747  26.725   7.237
 5658POPC   C1B72823   6.194  26.442   6.172
 5658POPC   C2B72824   6.133  26.666   6.544
 5658POPC   C3B72825   6.133  26.508   6.965
 5658POPC   C4B72826   6.377  26.390   7.280
 5659POPC   NC372827  12.647   4.423   5.342
 5659POPC   PO472828  13.338   4.497   5.434
 5659POPC   GL172829  13.006   4.249   5.691
 5659POPC   GL272830  12.682   4.401   5.838
 5659POPC   C1A72831  12.911   4.073   6.107
 5659POPC   D2A72832  12.714   4.260   6.475
 5659POPC   C3A72833  12.929   4.145   6.824
 5659POPC   C4A72834  12.896   4.055   7.245
 5659POPC   C1B72835  12.660   4.683   6.183
 5659POPC   C2B72836  12.552   4.845   6.598
 5659POPC   C3B72837  12.653   4.552   6.933
 5659POPC   C4B72838  12.838   4.541   7.327
 5660POPC   NC372839  16.593  18.992   5.109
 5660POPC   PO472840  17.026  19.384   5.611
 5660POPC   GL172841  16.724  19.158   5.840
 5660POPC   GL272842  16.563  19.450   5.879
 5660POPC   C1A72843  16.851  18.870   6.185
 5660POPC   D2A72844  16.746  19.010   6.602
 5660POPC   C3A72845  16.744  18.844   7.007
 5660POPC   C4A72846  16.368  19.018   7.214
 5660POPC   C1B72847  16.852  19.403   6.268
 5660POPC   C2B72848  17.134  19.350   6.628
 5660POPC   C3B72849  16.982  19.292   7.064
 5660POPC   C4B72850  16.953  19.442   7.497
 5661POPC   NC372851   8.994  33.075   5.363
 5661POPC   PO472852   8.667  33.670   5.556
 5661POPC   GL172853   8.783  33.262   5.784
 5661POPC   GL272854   9.138  33.270   5.836
 5661POPC   C1A72855   8.795  32.914   6.149
 5661POPC   D2A72856   8.749  32.743   6.628
 5661POPC   C3A72857   8.848  32.975   7.055
 5661POPC   C4A72858   9.017  33.383   7.141
 5661POPC   C1B72859   9.220  33.146   6.268
 5661POPC   C2B72860   9.162  33.096   6.687
 5661POPC   C3B72861   9.383  32.984   7.076
 5661POPC   C4B72862   9.349  32.586   7.319
 5662POPC   NC372863  35.068  38.513   5.387
 5662POPC   PO472864  35.724  38.385   5.462
 5662POPC   GL172865  35.435  38.441   5.821
 5662POPC   GL272866  35.204  38.720   5.827
 5662POPC   C1A72867  35.540  38.402   6.267
 5662POPC   D2A72868  35.404  38.404   6.687
 5662POPC   C3A72869  35.625  38.606   7.035
 5662POPC   C4A72870  35.353  38.389   7.300
 5662POPC   C1B72871  35.101  38.888   6.222
 5662POPC   C2B72872  35.122  38.830   6.679
 5662POPC   C3B72873  35.183  38.850   7.088
 5662POPC   C4B72874  34.927  38.709   7.375
 5663POPC   NC372875  33.042  32.763   5.112
 5663POPC   PO472876  32.999  33.302   5.423
 5663POPC   GL172877  32.921  33.051   5.763
 5663POPC   GL272878  33.185  32.822   5.726
 5663POPC   C1A72879  32.819  32.964   6.190
 5663POPC   D2A72880  33.037  33.112   6.519
 5663POPC   C3A72881  33.011  32.861   6.853
 5663POPC   C4A72882  32.812  33.026   7.204
 5663POPC   C1B72883  33.328  32.943   6.122
 5663POPC   C2B72884  33.440  32.771   6.512
 5663POPC   C3B72885  33.534  32.858   6.912
 5663POPC   C4B72886  33.274  32.761   7.275
 5664POPC   NC372887  29.206   6.071   5.577
 5664POPC   PO472888  29.545   6.579   5.481
 5664POPC   GL172889  29.256   6.686   5.799
 5664POPC   GL272890  29.359   6.404   5.965
 5664POPC   C1A72891  29.184   6.920   6.185
 5664POPC   D2A72892  29.383   7.134   6.556
 5664POPC   C3A72893  29.252   6.950   6.945
 5664POPC   C4A72894  29.320   6.709   7.307
 5664POPC   C1B72895  28.923   6.496   6.149
 5664POPC   C2B72896  29.030   6.643   6.574
 5664POPC   C3B72897  29.034   6.472   6.954
 5664POPC   C4B72898  28.694   6.552   7.220
 5665POPC   NC372899   1.602  26.892   5.470
 5665POPC   PO472900   1.110  26.513   5.170
 5665POPC   GL172901   1.101  26.754   5.680
 5665POPC   GL272902   1.389  26.765   5.944
 5665POPC   C1A72903   0.930  26.815   6.157
 5665POPC   D2A72904   0.938  27.154   6.513
 5665POPC   C3A72905   1.137  27.066   6.930
 5665POPC   C4A72906   1.100  26.912   7.383
 5665POPC   C1B72907   1.277  26.450   6.274
 5665POPC   C2B72908   1.149  26.588   6.684
 5665POPC   C3B72909   1.405  26.649   7.066
 5665POPC   C4B72910   1.588  26.774   7.455
 5666POPC   NC372911   9.556  41.417   5.343
 5666POPC   PO472912  10.136  41.293   5.669
 5666POPC   GL172913   9.837  41.497   5.939
 5666POPC   GL272914   9.471  41.536   5.864
 5666POPC   C1A72915   9.794  41.519   6.405
 5666POPC   D2A72916   9.934  41.705   6.806
 5666POPC   C3A72917   9.930  41.429   7.164
 5666POPC   C4A72918  10.043  41.325   7.615
 5666POPC   C1B72919   9.336  41.748   6.254
 5666POPC   C2B72920   9.490  41.916   6.661
 5666POPC   C3B72921   9.418  41.824   7.125
 5666POPC   C4B72922   9.533  41.538   7.473
 5667POPC   NC372923  43.622   9.105   5.464
 5667POPC   PO472924  44.031   8.641   5.419
 5667POPC   GL172925  43.892   8.783   5.867
 5667POPC   GL272926  43.846   9.135   5.944
 5667POPC   C1A72927  43.978   8.905   6.362
 5667POPC   D2A72928  43.708   9.102   6.681
 5667POPC   C3A72929  43.663   8.851   7.041
 5667POPC   C4A72930  44.059   8.655   7.237
 5667POPC   C1B72931  44.184   9.352   6.179
 5667POPC   C2B72932  44.165   9.431   6.595
 5667POPC   C3B72933  44.189   9.129   6.914
 5667POPC   C4B72934  43.977   9.163   7.280
 5668POPC   NC372935  21.111  20.847   5.317
 5668POPC   PO472936  20.566  20.418   5.266
 5668POPC   GL172937  20.585  20.504   5.726
 5668POPC   GL272938  20.934  20.598   5.734
 5668POPC   C1A72939  20.422  20.457   6.181
 5668POPC   D2A72940  20.224  20.465   6.607
 5668POPC   C3A72941  20.509  20.459   6.948
 5668POPC   C4A72942  20.481  20.817   7.197
 5668POPC   C1B72943  20.774  20.835   6.097
 5668POPC   C2B72944  20.745  20.698   6.524
 5668POPC   C3B72945  20.917  20.800   6.919
 5668POPC   C4B72946  21.013  20.619   7.314
 5669POPC   NC372947  36.848  37.114   5.483
 5669POPC   PO472948  37.314  36.635   5.513
 5669POPC   GL172949  37.103  36.826   5.832
 5669POPC   GL272950  36.809  36.671   5.769
 5669POPC   C1A72951  36.866  37.052   6.170
 5669POPC   D2A72952  36.807  36.988   6.616
 5669POPC   C3A72953  36.832  37.222   7.010
 5669POPC   C4A72954  36.988  37.012   7.400
 5669POPC   C1B72955  36.785  36.563   6.217
 5669POPC   C2B72956  36.632  36.484   6.639
 5669POPC   C3B72957  36.655  36.723   7.035
 5669POPC   C4B72958  36.485  37.012   7.340
 5670POPC   NC372959  19.614  32.855   5.538
 5670POPC   PO472960  18.988  32.671   5.437
 5670POPC   GL172961  19.134  32.891   5.837
 5670POPC   GL272962  18.969  33.245   5.865
 5670POPC   C1A72963  18.993  32.968   6.293
 5670POPC   D2A72964  19.213  33.093   6.682
 5670POPC   C3A72965  19.157  32.888   7.081
 5670POPC   C4A72966  19.290  33.116   7.506
 5670POPC   C1B72967  18.737  33.436   6.250
 5670POPC   C2B72968  18.800  33.461   6.724
 5670POPC   C3B72969  18.956  33.333   7.147
 5670POPC   C4B72970  18.953  33.508   7.573
 5671POPC   NC372971  11.747  31.577   5.445
 5671POPC   PO472972  11.162  31.286   5.480
 5671POPC   GL172973  11.283  31.602   5.825
 5671POPC   GL272974  11.601  31.787   5.869
 5671POPC   C1A72975  11.156  31.540   6.275
 5671POPC   D2A72976  11.028  31.206   6.569
 5671POPC   C3A72977  11.179  31.242   6.995
 5671POPC   C4A72978  10.977  31.158   7.379
 5671POPC   C1B72979  11.644  31.428   6.173
 5671POPC   C2B72980  11.559  31.168   6.584
 5671POPC   C3B72981  11.707  31.289   7.020
 5671POPC   C4B72982  11.714  31.761   7.143
 5672POPC   NC372983   2.161  29.455   5.474
 5672POPC   PO472984   2.258  28.805   5.234
 5672POPC   GL172985   2.093  28.941   5.681
 5672POPC   GL272986   1.987  29.257   5.890
 5672POPC   C1A72987   2.166  28.863   6.127
 5672POPC   D2A72988   2.215  29.126   6.462
 5672POPC   C3A72989   2.008  29.008   6.803
 5672POPC   C4A72990   2.156  28.840   7.176
 5672POPC   C1B72991   1.746  29.287   6.241
 5672POPC   C2B72992   1.546  29.370   6.607
 5672POPC   C3B72993   1.699  29.377   6.983
 5672POPC   C4B72994   1.677  29.003   7.190
 5673POPC   NC372995  34.824  44.975   5.372
 5673POPC   PO472996  34.422  44.444   5.175
 5673POPC   GL172997  34.541  44.577   5.647
 5673POPC   GL272998  34.310  44.472   5.867
 5673POPC   C1A72999  34.801  44.546   6.063
 5673POPC   D2A73000  34.839  44.707   6.503
 5673POPC   C3A73001  34.968  44.660   6.972
 5673POPC   C4A73002  34.846  44.453   7.372
 5673POPC   C1B73003  34.350  44.652   6.250
 5673POPC   C2B73004  34.356  44.660   6.639
 5673POPC   C3B73005  34.467  44.491   6.990
 5673POPC   C4B73006  34.243  44.472   7.348
 5674POPC   NC373007  34.815  18.230   5.458
 5674POPC   PO473008  34.193  18.297   5.278
 5674POPC   GL173009  34.385  18.353   5.709
 5674POPC   GL273010  34.522  18.014   5.820
 5674POPC   C1A73011  34.616  18.442   6.107
 5674POPC   D2A73012  34.605  18.221   6.496
 5674POPC   C3A73013  34.762  18.178   6.898
 5674POPC   C4A73014  34.556  18.336   7.271
 5674POPC   C1B73015  34.426  17.800   6.210
 5674POPC   C2B73016  34.222  17.918   6.619
 5674POPC   C3B73017  34.333  17.951   7.043
 5674POPC   C4B73018  34.170  17.727   7.387
 5675POPC   NC373019  32.343  44.173   5.591
 5675POPC   PO473020  31.944  43.687   5.302
 5675POPC   GL173021  32.024  43.674   5.772
 5675POPC   GL273022  32.379  43.754   5.873
 5675POPC   C1A73023  32.120  43.532   6.237
 5675POPC   D2A73024  32.376  43.442   6.620
 5675POPC   C3A73025  32.168  43.584   7.003
 5675POPC   C4A73026  32.035  44.004   7.164
 5675POPC   C1B73027  32.523  43.902   6.295
 5675POPC   C2B73028  32.377  43.960   6.719
 5675POPC   C3B73029  32.503  44.220   7.036
 5675POPC   C4B73030  32.921  44.369   7.024
 5676POPC   NC373031  42.970  43.083   5.418
 5676POPC   PO473032  43.604  42.936   5.478
 5676POPC   GL173033  43.333  43.180   5.819
 5676POPC   GL273034  42.982  43.322   5.902
 5676POPC   C1A73035  43.227  43.043   6.252
 5676POPC   D2A73036  43.021  43.156   6.616
 5676POPC   C3A73037  42.958  42.880   6.970
 5676POPC   C4A73038  43.210  42.894   7.322
 5676POPC   C1B73039  43.250  43.564   6.211
 5676POPC   C2B73040  43.440  43.481   6.615
 5676POPC   C3B73041  43.227  43.476   7.015
 5676POPC   C4B73042  42.912  43.322   7.321
 5677POPC   NC373043   2.153  31.445   5.281
 5677POPC   PO473044   1.960  31.786   5.719
 5677POPC   GL173045   2.175  31.430   5.948
 5677POPC   GL273046   2.026  31.122   5.937
 5677POPC   C1A73047   2.210  31.302   6.406
 5677POPC   D2A73048   2.048  31.471   6.827
 5677POPC   C3A73049   2.284  31.447   7.215
 5677POPC   C4A73050   2.523  31.676   7.529
 5677POPC   C1B73051   1.738  31.128   6.279
 5677POPC   C2B73052   1.849  31.030   6.670
 5677POPC   C3B73053   1.649  31.206   7.017
 5677POPC   C4B73054   1.809  31.411   7.387
 5678POPC   NC373055  27.223  24.204   5.448
 5678POPC   PO473056  27.261  23.486   5.299
 5678POPC   GL173057  26.853  23.592   5.573
 5678POPC   GL273058  26.989  23.851   5.712
 5678POPC   C1A73059  26.647  23.697   6.027
 5678POPC   D2A73060  26.668  23.927   6.444
 5678POPC   C3A73061  26.520  23.734   6.834
 5678POPC   C4A73062  26.561  23.299   7.034
 5678POPC   C1B73063  27.096  23.922   6.131
 5678POPC   C2B73064  27.069  23.637   6.448
 5678POPC   C3B73065  27.020  23.801   6.816
 5678POPC   C4B73066  26.873  23.668   7.190
 5679POPC   NC373067   9.496  32.257   5.692
 5679POPC   PO473068   9.011  32.604   5.440
 5679POPC   GL173069   8.990  32.369   5.816
 5679POPC   GL273070   8.774  32.075   5.779
 5679POPC   C1A73071   9.025  32.426   6.284
 5679POPC   D2A73072   8.840  32.228   6.654
 5679POPC   C3A73073   8.900  32.455   7.058
 5679POPC   C4A73074   8.920  32.368   7.503
 5679POPC   C1B73075   9.073  31.935   6.130
 5679POPC   C2B73076   9.262  31.944   6.559
 5679POPC   C3B73077   9.123  31.988   7.006
 5679POPC   C4B73078   9.214  31.962   7.426
 5680POPC   NC373079   5.423   8.199   5.730
 5680POPC   PO473080   5.915   8.240   5.251
 5680POPC   GL173081   5.947   8.185   5.705
 5680POPC   GL273082   5.858   7.837   5.735
 5680POPC   C1A73083   5.936   8.391   6.153
 5680POPC   D2A73084   5.888   8.565   6.569
 5680POPC   C3A73085   5.746   8.289   6.878
 5680POPC   C4A73086   5.600   8.379   7.274
 5680POPC   C1B73087   6.047   7.891   6.147
 5680POPC   C2B73088   5.939   7.854   6.599
 5680POPC   C3B73089   6.098   7.954   7.032
 5680POPC   C4B73090   6.189   7.727   7.435
 5681POPC   NC373091  23.869  42.180   5.507
 5681POPC   PO473092  23.257  42.475   5.431
 5681POPC   GL173093  23.550  42.296   5.870
 5681POPC   GL273094  23.887  42.502   5.909
 5681POPC   C1A73095  23.929  42.114   6.200
 5681POPC   D2A73096  24.096  42.360   6.538
 5681POPC   C3A73097  24.055  42.221   6.961
 5681POPC   C4A73098  23.696  42.139   7.199
 5681POPC   C1B73099  23.671  42.559   6.303
 5681POPC   C2B73100  23.617  42.412   6.710
 5681POPC   C3B73101  23.768  42.665   7.023
 5681POPC   C4B73102  23.536  42.663   7.361
 5682POPC   NC373103  37.904  13.448   5.338
 5682POPC   PO473104  37.268  13.656   5.396
 5682POPC   GL173105  37.566  13.489   5.749
 5682POPC   GL273106  37.802  13.774   5.804
 5682POPC   C1A73107  37.556  13.269   6.217
 5682POPC   D2A73108  37.335  13.239   6.661
 5682POPC   C3A73109  37.533  13.381   7.099
 5682POPC   C4A73110  37.444  13.293   7.569
 5682POPC   C1B73111  37.710  13.752   6.235
 5682POPC   C2B73112  37.657  13.654   6.659
 5682POPC   C3B73113  37.804  13.851   7.023
 5682POPC   C4B73114  38.057  13.572   7.248
 5683POPC   NC373115  26.574  37.519   5.284
 5683POPC   PO473116  27.187  37.658   5.078
 5683POPC   GL173117  27.001  37.780   5.547
 5683POPC   GL273118  26.889  37.514   5.695
 5683POPC   C1A73119  26.975  37.828   6.069
 5683POPC   D2A73120  26.727  37.900   6.529
 5683POPC   C3A73121  26.754  37.741   6.985
 5683POPC   C4A73122  27.170  37.702   7.206
 5683POPC   C1B73123  26.731  37.390   6.133
 5683POPC   C2B73124  26.807  37.379   6.574
 5683POPC   C3B73125  26.928  37.268   6.993
 5683POPC   C4B73126  26.838  37.379   7.434
 5684POPC   NC373127  25.544  42.516   5.227
 5684POPC   PO473128  25.561  41.854   5.065
 5684POPC   GL173129  25.451  42.045   5.485
 5684POPC   GL273130  25.770  42.151   5.572
 5684POPC   C1A73131  25.353  42.208   5.960
 5684POPC   D2A73132  25.405  42.581   6.307
 5684POPC   C3A73133  25.289  42.554   6.777
 5684POPC   C4A73134  25.320  42.306   7.170
 5684POPC   C1B73135  25.860  42.064   6.013
 5684POPC   C2B73136  25.769  42.243   6.423
 5684POPC   C3B73137  25.586  42.080   6.785
 5684POPC   C4B73138  25.730  42.027   7.214
 5685POPC   NC373139  22.348  19.278   5.414
 5685POPC   PO473140  21.829  19.000   5.378
 5685POPC   GL173141  21.971  19.215   5.756
 5685POPC   GL273142  22.295  19.046   5.858
 5685POPC   C1A73143  21.904  19.136   6.183
 5685POPC   D2A73144  21.763  18.873   6.552
 5685POPC   C3A73145  21.895  19.040   6.963
 5685POPC   C4A73146  22.248  18.876   7.202
 5685POPC   C1B73147  22.425  19.269   6.224
 5685POPC   C2B73148  22.206  19.261   6.610
 5685POPC   C3B73149  22.335  19.365   7.025
 5685POPC   C4B73150  22.372  19.288   7.479
 5686POPC   NC373151   0.900   4.426   5.081
 5686POPC   PO473152   1.284   3.960   5.391
 5686POPC   GL173153   1.363   4.359   5.729
 5686POPC   GL273154   1.181   4.264   6.018
 5686POPC   C1A73155   1.475   4.613   6.159
 5686POPC   D2A73156   1.380   4.450   6.592
 5686POPC   C3A73157   1.456   4.616   7.017
 5686POPC   C4A73158   1.124   4.643   7.325
 5686POPC   C1B73159   0.911   4.129   6.305
 5686POPC   C2B73160   0.908   4.230   6.682
 5686POPC   C3B73161   1.098   4.234   7.023
 5686POPC   C4B73162   0.912   4.170   7.385
 5687POPC   NC373163  10.945  38.880   5.383
 5687POPC   PO473164  10.603  38.239   5.369
 5687POPC   GL173165  10.482  38.299   5.799
 5687POPC   GL273166  10.349  38.634   5.852
 5687POPC   C1A73167  10.661  38.419   6.205
 5687POPC   D2A73168  10.754  38.206   6.584
 5687POPC   C3A73169  10.402  38.224   6.880
 5687POPC   C4A73170  10.393  38.359   7.313
 5687POPC   C1B73171  10.251  38.825   6.214
 5687POPC   C2B73172  10.422  38.668   6.581
 5687POPC   C3B73173  10.278  38.730   7.000
 5687POPC   C4B73174  10.482  38.851   7.417
 5688POPC   NC373175  11.109  15.292   5.230
 5688POPC   PO473176  11.714  15.075   5.296
 5688POPC   GL173177  11.527  15.014   5.724
 5688POPC   GL273178  11.190  14.891   5.696
 5688POPC   C1A73179  11.438  15.209   6.126
 5688POPC   D2A73180  11.372  15.485   6.476
 5688POPC   C3A73181  11.264  15.340   6.864
 5688POPC   C4A73182  11.437  15.196   7.245
 5688POPC   C1B73183  11.031  14.879   6.109
 5688POPC   C2B73184  11.175  14.943   6.531
 5688POPC   C3B73185  11.126  14.852   6.986
 5688POPC   C4B73186  10.855  14.821   7.374
 5689POPC   NC373187   3.714  16.630   4.991
 5689POPC   PO473188   3.735  16.858   5.581
 5689POPC   GL173189   3.631  16.549   5.859
 5689POPC   GL273190   3.408  16.328   5.674
 5689POPC   C1A73191   3.537  16.690   6.262
 5689POPC   D2A73192   3.665  16.778   6.652
 5689POPC   C3A73193   3.485  16.780   7.070
 5689POPC   C4A73194   3.591  16.738   7.530
 5689POPC   C1B73195   3.218  16.343   6.082
 5689POPC   C2B73196   3.167  16.451   6.532
 5689POPC   C3B73197   3.266  16.320   6.952
 5689POPC   C4B73198   3.144  16.537   7.359
 5690POPC   NC373199  36.366  15.640   5.424
 5690POPC   PO473200  35.874  16.084   5.348
 5690POPC   GL173201  36.029  15.889   5.731
 5690POPC   GL273202  36.394  15.977   5.805
 5690POPC   C1A73203  36.086  15.807   6.173
 5690POPC   D2A73204  36.079  16.052   6.521
 5690POPC   C3A73205  36.190  15.889   6.862
 5690POPC   C4A73206  36.139  15.759   7.244
 5690POPC   C1B73207  36.464  16.204   6.199
 5690POPC   C2B73208  36.468  16.350   6.642
 5690POPC   C3B73209  36.285  16.345   7.060
 5690POPC   C4B73210  36.497  16.137   7.360
 5691POPC   NC373211  32.328  13.650   5.463
 5691POPC   PO473212  31.639  13.925   5.753
 5691POPC   GL173213  32.035  13.748   5.861
 5691POPC   GL273214  32.184  13.384   5.856
 5691POPC   C1A73215  32.155  13.784   6.270
 5691POPC   D2A73216  31.954  13.880   6.664
 5691POPC   C3A73217  32.230  13.816   7.008
 5691POPC   C4A73218  32.542  13.673   7.298
 5691POPC   C1B73219  32.234  13.252   6.245
 5691POPC   C2B73220  32.203  13.419   6.636
 5691POPC   C3B73221  32.336  13.314   7.003
 5691POPC   C4B73222  32.195  13.288   7.390
 5692POPC   NC373223  27.330  35.246   5.255
 5692POPC   PO473224  27.856  35.173   5.659
 5692POPC   GL173225  27.654  35.499   5.859
 5692POPC   GL273226  27.293  35.375   5.763
 5692POPC   C1A73227  27.797  35.570   6.317
 5692POPC   D2A73228  28.022  35.271   6.609
 5692POPC   C3A73229  27.763  35.138   6.972
 5692POPC   C4A73230  27.577  35.432   7.297
 5692POPC   C1B73231  27.325  35.311   6.211
 5692POPC   C2B73232  27.416  35.373   6.658
 5692POPC   C3B73233  27.154  35.413   7.020
 5692POPC   C4B73234  27.117  35.755   7.313
 5693POPC   NC373235  40.398  14.144   5.479
 5693POPC   PO473236  40.126  14.743   5.682
 5693POPC   GL173237  40.179  14.368   5.888
 5693POPC   GL273238  39.836  14.275   5.803
 5693POPC   C1A73239  40.328  14.286   6.296
 5693POPC   D2A73240  40.114  14.329   6.690
 5693POPC   C3A73241  40.134  14.514   7.090
 5693POPC   C4A73242  39.896  14.429   7.488
 5693POPC   C1B73243  39.793  14.151   6.247
 5693POPC   C2B73244  39.623  14.232   6.658
 5693POPC   C3B73245  39.788  14.103   7.066
 5693POPC   C4B73246  39.572  14.046   7.460
 5694POPC   NC373247  34.010  33.015   5.190
 5694POPC   PO473248  34.632  33.224   5.197
 5694POPC   GL173249  34.545  33.096   5.632
 5694POPC   GL273250  34.180  33.011   5.677
 5694POPC   C1A73251  34.786  33.198   6.038
 5694POPC   D2A73252  34.965  33.096   6.455
 5694POPC   C3A73253  34.810  33.297   6.826
 5694POPC   C4A73254  34.767  33.355   7.236
 5694POPC   C1B73255  34.267  33.273   6.037
 5694POPC   C2B73256  34.382  33.318   6.481
 5694POPC   C3B73257  34.337  33.139   6.910
 5694POPC   C4B73258  34.280  33.292   7.298
 5695POPC   NC373259  14.070   1.787   5.402
 5695POPC   PO473260  14.257   1.260   5.077
 5695POPC   GL173261  14.326   1.368   5.612
 5695POPC   GL273262  14.070   1.561   5.877
 5695POPC   C1A73263  14.477   1.352   6.119
 5695POPC   D2A73264  14.415   1.415   6.626
 5695POPC   C3A73265  14.480   1.087   6.964
 5695POPC   C4A73266  14.876   1.001   7.208
 5695POPC   C1B73267  13.967   1.584   6.370
 5695POPC   C2B73268  13.978   1.566   6.867
 5695POPC   C3B73269  13.997   1.230   7.232
 5695POPC   C4B73270  14.005   1.217   7.711
 5696POPC   NC373271  11.031  29.301   5.321
 5696POPC   PO473272  11.662  28.959   5.443
 5696POPC   GL173273  11.320  29.135   5.704
 5696POPC   GL273274  11.117  28.894   5.843
 5696POPC   C1A73275  11.312  29.308   6.100
 5696POPC   D2A73276  11.596  29.310   6.432
 5696POPC   C3A73277  11.387  29.247   6.828
 5696POPC   C4A73278  11.452  29.281   7.264
 5696POPC   C1B73279  10.926  28.928   6.189
 5696POPC   C2B73280  11.078  28.855   6.587
 5696POPC   C3B73281  10.946  29.005   6.960
 5696POPC   C4B73282  10.973  29.149   7.365
 5697POPC   NC373283   1.736  25.202   5.552
 5697POPC   PO473284   1.191  25.587   5.308
 5697POPC   GL173285   1.321  25.493   5.750
 5697POPC   GL273286   1.250  25.134   5.796
 5697POPC   C1A73287   1.378  25.400   6.214
 5697POPC   D2A73288   1.128  25.247   6.555
 5697POPC   C3A73289   1.150  25.467   6.938
 5697POPC   C4A73290   1.098  25.192   7.268
 5697POPC   C1B73291   1.512  24.921   6.143
 5697POPC   C2B73292   1.679  24.762   6.536
 5697POPC   C3B73293   1.595  24.875   6.956
 5697POPC   C4B73294   1.298  24.725   7.243
 5698POPC   NC373295  42.176  11.882   5.559
 5698POPC   PO473296  42.677  12.306   5.420
 5698POPC   GL173297  42.663  12.043   5.814
 5698POPC   GL273298  42.749  12.323   6.029
 5698POPC   C1A73299  42.458  11.860   6.210
 5698POPC   D2A73300  42.111  11.962   6.548
 5698POPC   C3A73301  42.122  11.990   7.034
 5698POPC   C4A73302  42.398  11.929   7.408
 5698POPC   C1B73303  42.353  12.390   6.303
 5698POPC   C2B73304  42.206  12.422   6.752
 5698POPC   C3B73305  42.307  12.449   7.219
 5698POPC   C4B73306  42.513  12.371   7.646
 5699POPC   NC373307  11.170  10.929   5.336
 5699POPC   PO473308  11.302  11.605   5.362
 5699POPC   GL173309  11.469  11.454   5.730
 5699POPC   GL273310  11.501  11.083   5.727
 5699POPC   C1A73311  11.380  11.496   6.160
 5699POPC   D2A73312  11.297  11.308   6.559
 5699POPC   C3A73313  11.471  11.548   6.880
 5699POPC   C4A73314  11.323  11.692   7.250
 5699POPC   C1B73315  11.311  10.958   6.137
 5699POPC   C2B73316  11.075  10.841   6.500
 5699POPC   C3B73317  11.170  10.977   6.914
 5699POPC   C4B73318  11.474  11.153   7.199
 5700POPC   NC373319  18.008   7.686   5.150
 5700POPC   PO473320  18.594   7.639   5.449
 5700POPC   GL173321  18.287   7.600   5.765
 5700POPC   GL273322  17.935   7.691   5.690
 5700POPC   C1A73323  18.357   7.403   6.165
 5700POPC   D2A73324  18.417   7.419   6.598
 5700POPC   C3A73325  18.342   7.051   6.841
 5700POPC   C4A73326  18.187   7.179   7.238
 5700POPC   C1B73327  17.876   7.359   6.007
 5700POPC   C2B73328  17.909   7.455   6.435
 5700POPC   C3B73329  17.864   7.435   6.865
 5700POPC   C4B73330  17.683   7.186   7.176
 5701POPC   NC373331  35.621  28.142   5.315
 5701POPC   PO473332  35.187  28.646   5.441
 5701POPC   GL173333  35.372  28.399   5.719
 5701POPC   GL273334  35.046  28.222   5.744
 5701POPC   C1A73335  35.586  28.485   6.112
 5701POPC   D2A73336  35.764  28.260   6.451
 5701POPC   C3A73337  35.761  28.466   6.866
 5701POPC   C4A73338  35.659  28.298   7.269
 5701POPC   C1B73339  35.055  28.487   6.123
 5701POPC   C2B73340  35.250  28.454   6.539
 5701POPC   C3B73341  35.242  28.355   6.991
 5701POPC   C4B73342  35.265  28.575   7.424
 5702POPC   NC373343  34.092  31.386   5.399
 5702POPC   PO473344  34.680  31.814   5.361
 5702POPC   GL173345  34.693  31.478   5.706
 5702POPC   GL273346  34.363  31.517   5.816
 5702POPC   C1A73347  34.740  31.213   6.125
 5702POPC   D2A73348  34.521  31.296   6.556
 5702POPC   C3A73349  34.708  31.251   7.006
 5702POPC   C4A73350  34.654  31.480   7.419
 5702POPC   C1B73351  34.561  31.677   6.186
 5702POPC   C2B73352  34.569  31.851   6.574
 5702POPC   C3B73353  34.520  31.738   6.975
 5702POPC   C4B73354  34.555  31.981   7.313
 5703POPC   NC373355   1.058  11.017   5.244
 5703POPC   PO473356   1.092  11.705   5.386
 5703POPC   GL173357   1.139  11.341   5.634
 5703POPC   GL273358   1.201  11.539   5.901
 5703POPC   C1A73359   1.150  11.050   6.003
 5703POPC   D2A73360   1.244  10.983   6.442
 5703POPC   C3A73361   0.983  11.078   6.816
 5703POPC   C4A73362   1.191  11.073   7.214
 5703POPC   C1B73363   1.055  11.445   6.338
 5703POPC   C2B73364   1.315  11.466   6.741
 5703POPC   C3B73365   1.413  11.539   7.193
 5703POPC   C4B73366   1.131  11.487   7.585
 5704POPC   NC373367  18.369  31.628   5.378
 5704POPC   PO473368  18.110  31.071   5.614
 5704POPC   GL173369  18.291  31.341   5.856
 5704POPC   GL273370  18.168  31.663   5.848
 5704POPC   C1A73371  18.382  31.345   6.268
 5704POPC   D2A73372  18.148  31.195   6.641
 5704POPC   C3A73373  18.319  31.135   7.041
 5704POPC   C4A73374  18.304  31.413   7.406
 5704POPC   C1B73375  18.146  31.809   6.282
 5704POPC   C2B73376  18.303  31.692   6.702
 5704POPC   C3B73377  18.304  31.846   7.125
 5704POPC   C4B73378  18.359  31.914   7.562
 5705POPC   NC373379  11.882  23.925   5.318
 5705POPC   PO473380  12.091  23.327   5.436
 5705POPC   GL173381  12.081  23.704   5.777
 5705POPC   GL273382  11.847  24.051   5.799
 5705POPC   C1A73383  12.365  23.704   6.153
 5705POPC   D2A73384  12.517  23.397   6.475
 5705POPC   C3A73385  12.222  23.382   6.848
 5705POPC   C4A73386  12.231  23.499   7.286
 5705POPC   C1B73387  11.984  24.081   6.204
 5705POPC   C2B73388  12.060  23.823   6.559
 5705POPC   C3B73389  12.113  23.879   6.979
 5705POPC   C4B73390  11.846  23.882   7.303
 5706POPC   NC373391   7.648   3.129   5.502
 5706POPC   PO473392   7.470   2.444   5.657
 5706POPC   GL173393   7.248   2.684   5.966
 5706POPC   GL273394   7.375   3.012   5.913
 5706POPC   C1A73395   7.391   2.786   6.394
 5706POPC   D2A73396   7.638   2.952   6.706
 5706POPC   C3A73397   7.616   2.718   7.072
 5706POPC   C4A73398   7.332   2.409   7.208
 5706POPC   C1B73399   7.333   3.297   6.223
 5706POPC   C2B73400   7.201   3.265   6.641
 5706POPC   C3B73401   7.150   2.906   6.943
 5706POPC   C4B73402   7.280   2.906   7.394
 5707POPC   NC373403  34.168  10.969   4.970
 5707POPC   PO473404  33.842  10.550   5.416
 5707POPC   GL173405  33.745  10.473   5.821
 5707POPC   GL273406  33.821  10.790   5.891
 5707POPC   C1A73407  33.575  10.525   6.240
 5707POPC   D2A73408  33.497  10.275   6.584
 5707POPC   C3A73409  33.623  10.465   6.935
 5707POPC   C4A73410  33.806  10.320   7.275
 5707POPC   C1B73411  34.044  10.791   6.215
 5707POPC   C2B73412  33.839  10.887   6.564
 5707POPC   C3B73413  33.971  10.845   6.951
 5707POPC   C4B73414  33.578  10.935   7.134
 5708POPC   NC373415  30.220   7.360   5.421
 5708POPC   PO473416  29.560   7.495   5.499
 5708POPC   GL173417  29.876   7.476   5.794
 5708POPC   GL273418  29.917   7.114   5.789
 5708POPC   C1A73419  29.939   7.433   6.245
 5708POPC   D2A73420  30.139   7.500   6.650
 5708POPC   C3A73421  29.802   7.401   6.939
 5708POPC   C4A73422  29.800   7.557   7.333
 5708POPC   C1B73423  30.135   6.952   6.178
 5708POPC   C2B73424  30.007   6.991   6.620
 5708POPC   C3B73425  30.229   7.130   7.020
 5708POPC   C4B73426  30.223   7.110   7.476
 5709POPC   NC373427  10.990   4.410   5.487
 5709POPC   PO473428  10.309   4.480   5.300
 5709POPC   GL173429  10.488   4.548   5.710
 5709POPC   GL273430  10.617   4.238   5.827
 5709POPC   C1A73431  10.287   4.533   6.140
 5709POPC   D2A73432  10.455   4.564   6.565
 5709POPC   C3A73433  10.367   4.288   6.871
 5709POPC   C4A73434  10.435   4.486   7.237
 5709POPC   C1B73435  10.803   4.378   6.213
 5709POPC   C2B73436  10.905   4.239   6.626
 5709POPC   C3B73437  10.877   4.398   7.034
 5709POPC   C4B73438  10.809   4.271   7.496
 5710POPC   NC373439  41.903  27.459   5.179
 5710POPC   PO473440  41.391  27.736   5.507
 5710POPC   GL173441  41.646  27.638   5.840
 5710POPC   GL273442  41.584  27.313   5.820
 5710POPC   C1A73443  41.581  27.743   6.252
 5710POPC   D2A73444  41.614  27.524   6.624
 5710POPC   C3A73445  41.406  27.569   7.005
 5710POPC   C4A73446  41.499  27.589   7.432
 5710POPC   C1B73447  41.782  27.229   6.214
 5710POPC   C2B73448  41.924  27.126   6.639
 5710POPC   C3B73449  41.925  27.435   7.020
 5710POPC   C4B73450  41.953  27.364   7.469
 5711POPC   NC373451  28.581  32.479   5.141
 5711POPC   PO473452  28.338  32.052   5.527
 5711POPC   GL173453  28.498  32.006   5.905
 5711POPC   GL273454  28.189  31.808   5.938
 5711POPC   C1A73455  28.641  32.316   6.259
 5711POPC   D2A73456  28.730  32.626   6.628
 5711POPC   C3A73457  28.594  32.490   7.064
 5711POPC   C4A73458  28.209  32.382   7.230
 5711POPC   C1B73459  28.221  32.014   6.331
 5711POPC   C2B73460  28.369  32.158   6.739
 5711POPC   C3B73461  28.427  31.938   7.132
 5711POPC   C4B73462  28.237  31.878   7.556
 5712POPC   NC373463  29.740  33.560   5.376
 5712POPC   PO473464  30.201  34.005   5.566
 5712POPC   GL173465  29.843  33.927   5.817
 5712POPC   GL273466  29.904  33.600   5.867
 5712POPC   C1A73467  29.772  33.889   6.271
 5712POPC   D2A73468  30.002  33.878   6.639
 5712POPC   C3A73469  29.772  33.751   6.981
 5712POPC   C4A73470  29.798  33.745   7.418
 5712POPC   C1B73471  30.235  33.679   6.188
 5712POPC   C2B73472  30.410  33.536   6.564
 5712POPC   C3B73473  30.458  33.803   6.879
 5712POPC   C4B73474  30.227  33.936   7.227
 5713POPC   NC373475  25.782  30.491   5.266
 5713POPC   PO473476  26.145  30.945   5.582
 5713POPC   GL173477  25.855  30.825   5.883
 5713POPC   GL273478  26.083  30.556   5.932
 5713POPC   C1A73479  25.748  31.091   6.249
 5713POPC   D2A73480  26.034  31.069   6.599
 5713POPC   C3A73481  26.060  30.707   6.863
 5713POPC   C4A73482  25.923  30.792   7.279
 5713POPC   C1B73483  26.341  30.270   6.145
 5713POPC   C2B73484  26.488  30.285   6.561
 5713POPC   C3B73485  26.516  30.442   6.952
 5713POPC   C4B73486  26.231  30.381   7.252
 5714POPC   NC373487  13.815  15.604   5.370
 5714POPC   PO473488  13.479  16.123   5.213
 5714POPC   GL173489  13.471  15.965   5.680
 5714POPC   GL273490  13.147  15.956   5.832
 5714POPC   C1A73491  13.502  16.119   6.169
 5714POPC   D2A73492  13.321  16.060   6.634
 5714POPC   C3A73493  13.580  16.229   7.012
 5714POPC   C4A73494  13.949  16.174   7.331
 5714POPC   C1B73495  13.222  15.699   6.225
 5714POPC   C2B73496  13.287  15.533   6.671
 5714POPC   C3B73497  13.354  15.748   7.099
 5714POPC   C4B73498  13.444  16.030   7.472
 5715POPC   NC373499   9.115   0.452   5.323
 5715POPC   PO473500   8.817  44.976   5.699
 5715POPC   GL173501   8.889   0.425   5.823
 5715POPC   GL273502   8.541   0.602   5.789
 5715POPC   C1A73503   9.110   0.432   6.258
 5715POPC   D2A73504   9.007   0.084   6.589
 5715POPC   C3A73505   8.989   0.187   7.016
 5715POPC   C4A73506   9.098   0.609   7.134
 5715POPC   C1B73507   8.615   0.505   6.240
 5715POPC   C2B73508   8.780   0.531   6.671
 5715POPC   C3B73509   8.595   0.527   7.066
 5715POPC   C4B73510   8.587   0.280   7.399
 5716POPC   NC373511  21.383  14.350   5.293
 5716POPC   PO473512  21.373  15.067   5.195
 5716POPC   GL173513  21.386  14.789   5.676
 5716POPC   GL273514  21.663  14.559   5.844
 5716POPC   C1A73515  21.175  14.494   6.031
 5716POPC   D2A73516  21.224  14.214   6.427
 5716POPC   C3A73517  21.038  14.295   6.848
 5716POPC   C4A73518  21.174  14.450   7.243
 5716POPC   C1B73519  21.703  14.402   6.323
 5716POPC   C2B73520  21.534  14.492   6.771
 5716POPC   C3B73521  21.679  14.346   7.189
 5716POPC   C4B73522  21.809  14.143   7.574
 5717POPC   NC373523  44.814  28.130   5.544
 5717POPC   PO473524  44.357  28.606   5.644
 5717POPC   GL173525  44.616  28.468   5.978
 5717POPC   GL273526  44.860  28.199   6.056
 5717POPC   C1A73527  44.830  28.644   6.343
 5717POPC   D2A73528  44.860  28.399   6.720
 5717POPC   C3A73529  44.541  28.474   6.996
 5717POPC   C4A73530  44.711  28.692   7.314
 5717POPC   C1B73531  44.517  27.981   6.258
 5717POPC   C2B73532  44.387  28.016   6.675
 5717POPC   C3B73533  44.601  27.968   7.051
 5717POPC   C4B73534  44.510  28.173   7.412
 5718POPC   NC373535  44.283   2.092   5.601
 5718POPC   PO473536  43.710   1.699   5.482
 5718POPC   GL173537  43.889   1.783   5.845
 5718POPC   GL273538  43.804   2.129   5.888
 5718POPC   C1A73539  43.721   1.809   6.264
 5718POPC   D2A73540  43.590   2.180   6.508
 5718POPC   C3A73541  43.490   2.015   6.907
 5718POPC   C4A73542  43.763   1.739   7.127
 5718POPC   C1B73543  44.087   2.262   6.226
 5718POPC   C2B73544  44.334   2.315   6.604
 5718POPC   C3B73545  44.165   2.095   6.958
 5718POPC   C4B73546  43.844   2.262   7.174
 5719POPC   NC373547  25.627  21.577   5.483
 5719POPC   PO473548  24.995  21.277   5.483
 5719POPC   GL173549  25.237  21.401   5.775
 5719POPC   GL273550  24.955  21.574   5.915
 5719POPC   C1A73551  25.421  21.436   6.144
 5719POPC   D2A73552  25.302  21.420   6.551
 5719POPC   C3A73553  25.526  21.303   6.890
 5719POPC   C4A73554  25.367  21.406   7.272
 5719POPC   C1B73555  25.034  21.828   6.237
 5719POPC   C2B73556  24.941  21.753   6.675
 5719POPC   C3B73557  24.950  21.631   7.092
 5719POPC   C4B73558  24.979  21.622   7.569
 5720POPC   NC373559   1.603  29.714   5.299
 5720POPC   PO473560   0.960  29.821   5.501
 5720POPC   GL173561   1.116  29.844   5.862
 5720POPC   GL273562   1.463  29.940   5.746
 5720POPC   C1A73563   0.876  29.851   6.223
 5720POPC   D2A73564   0.832  30.065   6.609
 5720POPC   C3A73565   1.042  30.003   6.981
 5720POPC   C4A73566   0.955  29.785   7.363
 5720POPC   C1B73567   1.515  29.892   6.183
 5720POPC   C2B73568   1.379  30.080   6.539
 5720POPC   C3B73569   1.531  29.861   6.863
 5720POPC   C4B73570   1.451  29.889   7.275
 5721POPC   NC373571  33.083  39.787   5.433
 5721POPC   PO473572  33.012  40.394   5.536
 5721POPC   GL173573  33.324  40.327   5.898
 5721POPC   GL273574  33.267  39.971   5.900
 5721POPC   C1A73575  33.421  40.405   6.377
 5721POPC   D2A73576  33.362  40.069   6.715
 5721POPC   C3A73577  33.120  39.995   7.126
 5721POPC   C4A73578  33.071  40.250   7.536
 5721POPC   C1B73579  33.020  40.117   6.285
 5721POPC   C2B73580  32.850  40.181   6.726
 5721POPC   C3B73581  32.622  40.006   7.090
 5721POPC   C4B73582  32.766  39.833   7.492
 5722POPC   NC373583  25.989   2.787   5.405
 5722POPC   PO473584  26.449   2.410   5.624
 5722POPC   GL173585  26.282   2.819   5.841
 5722POPC   GL273586  25.920   2.957   5.881
 5722POPC   C1A73587  26.265   3.022   6.256
 5722POPC   D2A73588  26.320   2.831   6.626
 5722POPC   C3A73589  26.325   2.991   7.024
 5722POPC   C4A73590  26.301   2.721   7.330
 5722POPC   C1B73591  25.828   2.524   6.046
 5722POPC   C2B73592  25.713   2.511   6.494
 5722POPC   C3B73593  25.861   2.775   6.843
 5722POPC   C4B73594  25.773   2.695   7.249
 5723POPC   NC373595  36.505  43.172   5.501
 5723POPC   PO473596  35.856  43.122   5.441
 5723POPC   GL173597  35.998  42.942   5.830
 5723POPC   GL273598  36.193  43.235   5.895
 5723POPC   C1A73599  36.192  42.842   6.253
 5723POPC   D2A73600  36.416  42.854   6.656
 5723POPC   C3A73601  36.174  42.851   7.038
 5723POPC   C4A73602  35.782  43.037   7.131
 5723POPC   C1B73603  36.047  43.328   6.293
 5723POPC   C2B73604  36.321  43.376   6.645
 5723POPC   C3B73605  36.209  43.391   7.076
 5723POPC   C4B73606  36.421  43.401   7.479
 5724POPC   NC373607  12.219   7.676   5.364
 5724POPC   PO473608  12.050   7.067   5.184
 5724POPC   GL173609  11.974   7.318   5.633
 5724POPC   GL273610  11.966   7.700   5.813
 5724POPC   C1A73611  12.042   7.285   6.092
 5724POPC   D2A73612  11.949   7.261   6.538
 5724POPC   C3A73613  12.304   7.211   6.821
 5724POPC   C4A73614  12.296   7.040   7.226
 5724POPC   C1B73615  11.725   7.664   6.215
 5724POPC   C2B73616  11.560   7.597   6.629
 5724POPC   C3B73617  11.711   7.390   6.983
 5724POPC   C4B73618  12.074   7.520   7.150
 5725POPC   NC373619   3.298   0.442   5.359
 5725POPC   PO473620   2.553   0.305   5.410
 5725POPC   GL173621   2.829   0.493   5.745
 5725POPC   GL273622   3.076   0.253   5.810
 5725POPC   C1A73623   2.847   0.639   6.200
 5725POPC   D2A73624   3.085   0.760   6.614
 5725POPC   C3A73625   2.853   0.677   6.996
 5725POPC   C4A73626   2.444   0.471   7.057
 5725POPC   C1B73627   2.894   0.130   6.187
 5725POPC   C2B73628   2.770   0.301   6.599
 5725POPC   C3B73629   2.875   0.162   7.000
 5725POPC   C4B73630   2.949   0.061   7.407
 5726POPC   NC373631  14.029  23.399   5.492
 5726POPC   PO473632  13.835  22.739   5.455
 5726POPC   GL173633  13.758  22.972   5.796
 5726POPC   GL273634  13.657  23.263   5.834
 5726POPC   C1A73635  13.618  22.877   6.183
 5726POPC   D2A73636  13.814  22.613   6.430
 5726POPC   C3A73637  13.817  22.711   6.831
 5726POPC   C4A73638  13.777  22.757   7.223
 5726POPC   C1B73639  13.800  23.346   6.228
 5726POPC   C2B73640  13.670  23.148   6.616
 5726POPC   C3B73641  13.666  23.240   7.047
 5726POPC   C4B73642  13.379  23.434   7.343
 5727POPC   NC373643   8.296  26.976   5.558
 5727POPC   PO473644   8.088  26.449   5.270
 5727POPC   GL173645   8.139  26.539   5.785
 5727POPC   GL273646   8.034  26.886   5.982
 5727POPC   C1A73647   8.408  26.644   6.192
 5727POPC   D2A73648   8.237  26.908   6.530
 5727POPC   C3A73649   8.354  26.733   6.909
 5727POPC   C4A73650   8.168  26.687   7.276
 5727POPC   C1B73651   7.884  27.211   6.264
 5727POPC   C2B73652   7.940  27.321   6.678
 5727POPC   C3B73653   7.956  27.088   7.043
 5727POPC   C4B73654   7.885  27.066   7.488
 5728POPC   NC373655   7.561  28.649   5.596
 5728POPC   PO473656   7.379  27.949   5.388
 5728POPC   GL173657   7.553  28.170   5.752
 5728POPC   GL273658   7.255  28.306   5.829
 5728POPC   C1A73659   7.627  28.458   6.184
 5728POPC   D2A73660   7.437  28.645   6.562
 5728POPC   C3A73661   7.516  28.433   6.973
 5728POPC   C4A73662   7.656  28.352   7.408
 5728POPC   C1B73663   7.240  28.142   6.240
 5728POPC   C2B73664   7.186  28.212   6.653
 5728POPC   C3B73665   7.182  28.036   7.025
 5728POPC   C4B73666   7.141  28.308   7.339
 5729POPC   NC373667  44.034  23.335   5.073
 5729POPC   PO473668  44.057  23.846   5.581
 5729POPC   GL173669  43.853  23.709   5.921
 5729POPC   GL273670  43.563  23.872   5.834
 5729POPC   C1A73671  43.945  23.551   6.326
 5729POPC   D2A73672  44.086  23.835   6.647
 5729POPC   C3A73673  44.146  23.737   7.076
 5729POPC   C4A73674  43.996  23.633   7.483
 5729POPC   C1B73675  43.433  23.631   6.203
 5729POPC   C2B73676  43.509  23.611   6.650
 5729POPC   C3B73677  43.627  23.823   7.027
 5729POPC   C4B73678  43.736  24.070   7.373
 5730POPC   NC373679   9.324  34.744   5.458
 5730POPC   PO473680   8.724  34.509   5.430
 5730POPC   GL173681   8.818  34.458   5.860
 5730POPC   GL273682   9.152  34.589   5.949
 5730POPC   C1A73683   8.839  34.327   6.294
 5730POPC   D2A73684   8.949  34.596   6.624
 5730POPC   C3A73685   9.205  34.498   6.983
 5730POPC   C4A73686   8.864  34.620   7.175
 5730POPC   C1B73687   9.209  34.904   6.303
 5730POPC   C2B73688   9.176  35.013   6.778
 5730POPC   C3B73689   9.239  34.996   7.241
 5730POPC   C4B73690   9.340  35.029   7.709
 5731POPC   NC373691  44.868   7.796   5.481
 5731POPC   PO473692  44.685   7.152   5.271
 5731POPC   GL173693  44.718   7.354   5.704
 5731POPC   GL273694   0.028   7.458   5.810
 5731POPC   C1A73695  44.592   7.347   6.183
 5731POPC   D2A73696  44.349   7.378   6.626
 5731POPC   C3A73697  44.413   7.539   7.073
 5731POPC   C4A73698  44.447   7.251   7.453
 5731POPC   C1B73699   0.136   7.337   6.229
 5731POPC   C2B73700  44.877   7.141   6.566
 5731POPC   C3B73701  44.661   7.093   6.966
 5731POPC   C4B73702  44.886   7.372   7.236
 5732POPC   NC373703   3.590   3.579   5.322
 5732POPC   PO473704   3.671   2.942   5.522
 5732POPC   GL173705   3.705   3.367   5.795
 5732POPC   GL273706   3.526   3.732   5.804
 5732POPC   C1A73707   3.645   3.481   6.245
 5732POPC   D2A73708   3.424   3.438   6.662
 5732POPC   C3A73709   3.702   3.348   7.025
 5732POPC   C4A73710   3.759   3.394   7.498
 5732POPC   C1B73711   3.285   3.921   6.173
 5732POPC   C2B73712   3.066   3.844   6.564
 5732POPC   C3B73713   3.013   3.650   6.981
 5732POPC   C4B73714   3.265   3.496   7.333
 5733POPC   NC373715  42.484  22.668   5.537
 5733POPC   PO473716  41.950  23.071   5.495
 5733POPC   GL173717  42.168  22.966   5.871
 5733POPC   GL273718  42.480  23.126   5.814
 5733POPC   C1A73719  42.366  22.901   6.296
 5733POPC   D2A73720  42.548  22.799   6.700
 5733POPC   C3A73721  42.269  22.815   7.082
 5733POPC   C4A73722  42.189  22.710   7.520
 5733POPC   C1B73723  42.490  23.391   6.188
 5733POPC   C2B73724  42.630  23.308   6.611
 5733POPC   C3B73725  42.634  23.188   7.049
 5733POPC   C4B73726  42.670  22.914   7.406
 5734POPC   NC373727  35.050  22.691   5.716
 5734POPC   PO473728  35.664  22.741   5.404
 5734POPC   GL173729  35.713  22.794   5.848
 5734POPC   GL273730  35.748  23.157   5.827
 5734POPC   C1A73731  35.564  22.860   6.277
 5734POPC   D2A73732  35.286  22.696   6.598
 5734POPC   C3A73733  35.149  22.792   7.014
 5734POPC   C4A73734  35.536  22.751   7.232
 5734POPC   C1B73735  35.461  23.335   6.120
 5734POPC   C2B73736  35.558  23.340   6.526
 5734POPC   C3B73737  35.529  23.127   6.886
 5734POPC   C4B73738  35.343  23.237   7.274
 5735POPC   NC373739  31.824  14.325   5.595
 5735POPC   PO473740  31.208  14.467   5.450
 5735POPC   GL173741  31.361  14.369   5.858
 5735POPC   GL273742  31.572  14.652   5.914
 5735POPC   C1A73743  31.412  14.339   6.322
 5735POPC   D2A73744  31.236  14.490   6.718
 5735POPC   C3A73745  31.321  14.226   7.028
 5735POPC   C4A73746  31.223  14.155   7.433
 5735POPC   C1B73747  31.844  14.602   6.229
 5735POPC   C2B73748  31.704  14.730   6.603
 5735POPC   C3B73749  31.770  14.611   6.974
 5735POPC   C4B73750  31.560  14.555   7.322
 5736POPC   NC373751  31.556  37.375   5.392
 5736POPC   PO473752  31.620  37.930   5.498
 5736POPC   GL173753  31.437  37.640   5.820
 5736POPC   GL273754  31.174  37.355   5.744
 5736POPC   C1A73755  31.525  37.661   6.261
 5736POPC   D2A73756  31.701  37.911   6.619
 5736POPC   C3A73757  31.637  37.763   7.050
 5736POPC   C4A73758  31.917  37.640   7.376
 5736POPC   C1B73759  31.226  37.191   6.201
 5736POPC   C2B73760  31.309  37.223   6.676
 5736POPC   C3B73761  31.207  37.448   7.102
 5736POPC   C4B73762  30.950  37.793   7.295
 5737POPC   NC373763  31.892  44.959   5.555
 5737POPC   PO473764  31.196   0.041   5.571
 5737POPC   GL173765  31.285  44.659   5.853
 5737POPC   GL273766  31.651  44.520   5.798
 5737POPC   C1A73767  31.136  44.549   6.293
 5737POPC   D2A73768  31.323  44.760   6.646
 5737POPC   C3A73769  31.350  44.599   7.055
 5737POPC   C4A73770  31.174  44.842   7.366
 5737POPC   C1B73771  31.663  44.591   6.264
 5737POPC   C2B73772  31.822  44.835   6.621
 5737POPC   C3B73773  31.655  44.988   7.010
 5737POPC   C4B73774  31.670  44.805   7.428
 5738POPC   NC373775  30.020  21.349   5.064
 5738POPC   PO473776  29.659  21.793   5.448
 5738POPC   GL173777  29.970  21.539   5.772
 5738POPC   GL273778  29.812  21.232   5.952
 5738POPC   C1A73779  30.225  21.433   6.168
 5738POPC   D2A73780  30.336  21.205   6.555
 5738POPC   C3A73781  30.124  21.394   6.906
 5738POPC   C4A73782  30.062  21.720   7.234
 5738POPC   C1B73783  29.722  21.603   6.225
 5738POPC   C2B73784  29.764  21.737   6.670
 5738POPC   C3B73785  29.621  21.525   7.048
 5738POPC   C4B73786  29.735  21.423   7.483
 5739POPC   NC373787  42.707  30.489   5.449
 5739POPC   PO473788  42.172  30.920   5.428
 5739POPC   GL173789  42.063  30.785   5.852
 5739POPC   GL273790  42.310  30.544   5.801
 5739POPC   C1A73791  42.141  30.689   6.319
 5739POPC   D2A73792  42.088  30.573   6.791
 5739POPC   C3A73793  42.332  30.725   7.154
 5739POPC   C4A73794  42.614  30.770   7.500
 5739POPC   C1B73795  42.428  30.269   6.128
 5739POPC   C2B73796  42.601  30.350   6.532
 5739POPC   C3B73797  42.485  30.234   6.931
 5739POPC   C4B73798  42.586  30.285   7.361
 5740POPC   NC373799   7.742  25.259   5.521
 5740POPC   PO473800   8.239  25.560   5.183
 5740POPC   GL173801   8.197  25.409   5.689
 5740POPC   GL273802   8.146  25.037   5.683
 5740POPC   C1A73803   8.421  25.518   6.129
 5740POPC   D2A73804   8.315  25.358   6.535
 5740POPC   C3A73805   8.353  25.511   6.961
 5740POPC   C4A73806   8.070  25.417   7.312
 5740POPC   C1B73807   8.153  25.049   6.120
 5740POPC   C2B73808   8.175  24.869   6.533
 5740POPC   C3B73809   8.132  25.041   6.931
 5740POPC   C4B73810   8.372  24.993   7.277
 5741POPC   NC373811  33.210  15.310   5.383
 5741POPC   PO473812  32.888  14.769   5.356
 5741POPC   GL173813  33.111  14.907   5.747
 5741POPC   GL273814  33.051  15.262   5.846
 5741POPC   C1A73815  33.216  14.936   6.188
 5741POPC   D2A73816  33.159  15.115   6.602
 5741POPC   C3A73817  33.240  14.930   7.014
 5741POPC   C4A73818  33.018  14.775   7.369
 5741POPC   C1B73819  33.358  15.428   6.123
 5741POPC   C2B73820  33.551  15.453   6.541
 5741POPC   C3B73821  33.424  15.401   6.942
 5741POPC   C4B73822  33.094  15.400   7.229
 5742POPC   NC373823  18.105  44.588   5.459
 5742POPC   PO473824  18.725  44.379   5.623
 5742POPC   GL173825  18.578  44.744   5.825
 5742POPC   GL273826  18.253  44.689   5.932
 5742POPC   C1A73827  18.576  44.884   6.257
 5742POPC   D2A73828  18.694  44.631   6.629
 5742POPC   C3A73829  18.484  44.844   6.931
 5742POPC   C4A73830  18.103   0.027   7.073
 5742POPC   C1B73831  18.420  44.399   6.241
 5742POPC   C2B73832  18.224  44.400   6.615
 5742POPC   C3B73833  18.381  44.339   7.005
 5742POPC   C4B73834  18.326  44.595   7.335
 5743POPC   NC373835  32.583  20.768   5.509
 5743POPC   PO473836  33.302  20.764   5.654
 5743POPC   GL173837  32.933  20.740   5.881
 5743POPC   GL273838  32.799  20.387   5.841
 5743POPC   C1A73839  32.718  20.696   6.256
 5743POPC   D2A73840  32.909  20.638   6.622
 5743POPC   C3A73841  32.799  20.817   6.987
 5743POPC   C4A73842  32.982  20.728   7.386
 5743POPC   C1B73843  33.125  20.375   6.187
 5743POPC   C2B73844  33.286  20.267   6.595
 5743POPC   C3B73845  33.163  20.402   6.995
 5743POPC   C4B73846  33.222  20.283   7.401
 5744POPC   NC373847  36.032  38.653   5.251
 5744POPC   PO473848  36.096  39.274   5.261
 5744POPC   GL173849  36.150  39.164   5.717
 5744POPC   GL273850  36.476  39.121   5.840
 5744POPC   C1A73851  35.945  39.136   6.149
 5744POPC   D2A73852  35.952  39.216   6.614
 5744POPC   C3A73853  36.024  38.938   6.948
 5744POPC   C4A73854  36.174  39.059   7.344
 5744POPC   C1B73855  36.329  39.472   6.123
 5744POPC   C2B73856  36.248  39.594   6.525
 5744POPC   C3B73857  36.418  39.351   6.890
 5744POPC   C4B73858  36.534  39.658   7.169
 5745POPC   NC373859  35.877  24.207   5.517
 5745POPC   PO473860  36.469  24.548   5.652
 5745POPC   GL173861  36.092  24.524   5.888
 5745POPC   GL273862  35.962  24.849   5.864
 5745POPC   C1A73863  35.920  24.452   6.314
 5745POPC   D2A73864  35.708  24.313   6.716
 5745POPC   C3A73865  35.853  24.510   7.113
 5745POPC   C4A73866  36.110  24.314   7.435
 5745POPC   C1B73867  36.269  24.862   6.243
 5745POPC   C2B73868  36.427  24.640   6.626
 5745POPC   C3B73869  36.363  24.609   7.073
 5745POPC   C4B73870  36.320  24.768   7.479
 5746POPC   NC373871   3.114  43.668   5.174
 5746POPC   PO473872   2.584  43.583   5.589
 5746POPC   GL173873   2.635  43.703   5.990
 5746POPC   GL273874   2.634  44.067   5.976
 5746POPC   C1A73875   2.925  43.741   6.349
 5746POPC   D2A73876   3.161  43.589   6.710
 5746POPC   C3A73877   2.978  43.715   7.078
 5746POPC   C4A73878   3.122  43.997   7.372
 5746POPC   C1B73879   2.465  44.000   6.372
 5746POPC   C2B73880   2.679  43.984   6.753
 5746POPC   C3B73881   2.675  44.130   7.164
 5746POPC   C4B73882   2.475  44.194   7.562
 5747POPC   NC373883   9.280  15.463   5.374
 5747POPC   PO473884   9.981  15.267   5.500
 5747POPC   GL173885   9.604  15.110   5.699
 5747POPC   GL273886   9.508  15.412   5.820
 5747POPC   C1A73887   9.672  14.966   6.122
 5747POPC   D2A73888   9.889  15.139   6.507
 5747POPC   C3A73889   9.836  14.990   6.931
 5747POPC   C4A73890   9.656  14.983   7.326
 5747POPC   C1B73891   9.765  15.475   6.140
 5747POPC   C2B73892   9.499  15.541   6.458
 5747POPC   C3B73893   9.424  15.320   6.815
 5747POPC   C4B73894   9.657  15.450   7.147
 5748POPC   NC373895  22.957  18.884   5.384
 5748POPC   PO473896  22.621  18.601   5.840
 5748POPC   GL173897  22.807  19.021   5.859
 5748POPC   GL273898  23.170  19.129   5.792
 5748POPC   C1A73899  22.913  19.093   6.261
 5748POPC   D2A73900  22.746  19.202   6.652
 5748POPC   C3A73901  22.928  18.911   6.920
 5748POPC   C4A73902  22.746  19.027   7.282
 5748POPC   C1B73903  23.338  19.363   6.172
 5748POPC   C2B73904  23.277  19.259   6.608
 5748POPC   C3B73905  23.136  19.366   6.999
 5748POPC   C4B73906  23.186  19.230   7.408
 5749POPC   NC373907  37.267  18.233   5.425
 5749POPC   PO473908  36.674  18.576   5.539
 5749POPC   GL173909  36.861  18.270   5.818
 5749POPC   GL273910  37.185  18.375   5.898
 5749POPC   C1A73911  36.852  18.272   6.280
 5749POPC   D2A73912  36.577  18.344   6.639
 5749POPC   C3A73913  36.536  18.012   6.940
 5749POPC   C4A73914  36.865  17.975   7.235
 5749POPC   C1B73915  37.354  18.456   6.290
 5749POPC   C2B73916  37.395  18.409   6.720
 5749POPC   C3B73917  37.156  18.460   7.069
 5749POPC   C4B73918  37.300  18.676   7.418
 5750POPC   NC373919  25.660  38.821   5.461
 5750POPC   PO473920  25.345  38.160   5.450
 5750POPC   GL173921  25.423  38.455   5.766
 5750POPC   GL273922  25.335  38.259   6.018
 5750POPC   C1A73923  25.581  38.688   6.147
 5750POPC   D2A73924  25.366  38.728   6.571
 5750POPC   C3A73925  25.456  38.635   6.983
 5750POPC   C4A73926  25.304  38.788   7.365
 5750POPC   C1B73927  25.050  38.629   6.192
 5750POPC   C2B73928  24.842  38.571   6.629
 5750POPC   C3B73929  24.961  38.478   7.076
 5750POPC   C4B73930  25.162  38.083   7.206
 5751POPC   NC373931  30.952  21.299   5.446
 5751POPC   PO473932  30.310  21.452   5.396
 5751POPC   GL173933  30.540  21.393   5.777
 5751POPC   GL273934  30.812  21.616   5.835
 5751POPC   C1A73935  30.698  21.180   6.159
 5751POPC   D2A73936  30.896  21.164   6.577
 5751POPC   C3A73937  30.730  21.408   6.917
 5751POPC   C4A73938  30.460  21.389   7.287
 5751POPC   C1B73939  30.891  21.830   6.237
 5751POPC   C2B73940  31.026  21.778   6.683
 5751POPC   C3B73941  30.921  21.883   7.116
 5751POPC   C4B73942  30.915  21.562   7.414
 5752POPC   NC373943  11.081  21.229   5.292
 5752POPC   PO473944  11.596  21.736   5.428
 5752POPC   GL173945  11.499  21.494   5.810
 5752POPC   GL273946  11.190  21.287   5.806
 5752POPC   C1A73947  11.282  21.583   6.217
 5752POPC   D2A73948  10.995  21.522   6.573
 5752POPC   C3A73949  11.224  21.590   6.952
 5752POPC   C4A73950  11.066  21.693   7.339
 5752POPC   C1B73951  11.354  21.069   6.174
 5752POPC   C2B73952  11.410  21.200   6.598
 5752POPC   C3B73953  11.599  21.254   7.005
 5752POPC   C4B73954  11.419  21.313   7.399
 5753POPC   NC373955   1.560  11.644   5.533
 5753POPC   PO473956   1.897  11.121   5.338
 5753POPC   GL173957   1.958  11.100   5.782
 5753POPC   GL273958   1.625  11.237   5.850
 5753POPC   C1A73959   1.953  11.075   6.222
 5753POPC   D2A73960   2.022  11.472   6.422
 5753POPC   C3A73961   1.959  11.505   6.843
 5753POPC   C4A73962   2.200  11.300   7.111
 5753POPC   C1B73963   1.548  11.366   6.284
 5753POPC   C2B73964   1.686  11.104   6.675
 5753POPC   C3B73965   1.721  11.121   7.135
 5753POPC   C4B73966   1.872  11.351   7.514
 5754POPC   NC373967  32.295   7.406   5.433
 5754POPC   PO473968  32.654   6.876   5.747
 5754POPC   GL173969  32.422   7.282   5.914
 5754POPC   GL273970  32.105   7.539   5.877
 5754POPC   C1A73971  32.506   7.628   6.193
 5754POPC   D2A73972  32.323   7.590   6.584
 5754POPC   C3A73973  32.362   7.475   6.993
 5754POPC   C4A73974  32.371   7.738   7.359
 5754POPC   C1B73975  31.966   7.414   6.259
 5754POPC   C2B73976  31.895   7.306   6.684
 5754POPC   C3B73977  31.856   7.500   7.067
 5754POPC   C4B73978  31.656   7.871   7.161
 5755POPC   NC373979  26.629  11.310   5.599
 5755POPC   PO473980  27.294  11.333   5.621
 5755POPC   GL173981  26.996  11.415   5.930
 5755POPC   GL273982  27.135  11.357   6.230
 5755POPC   C1A73983  26.636  11.561   6.238
 5755POPC   D2A73984  26.468  11.328   6.610
 5755POPC   C3A73985  26.789  11.274   6.927
 5755POPC   C4A73986  26.603  11.461   7.269
 5755POPC   C1B73987  26.763  11.076   6.255
 5755POPC   C2B73988  26.647  10.840   6.609
 5755POPC   C3B73989  26.483  10.864   6.989
 5755POPC   C4B73990  26.658  10.989   7.393
 5756POPC   NC373991  33.520  30.374   5.388
 5756POPC   PO473992  34.000  30.916   5.444
 5756POPC   GL173993  34.013  30.678   5.824
 5756POPC   GL273994  33.718  30.771   6.051
 5756POPC   C1A73995  34.055  30.462   6.243
 5756POPC   D2A73996  33.743  30.618   6.557
 5756POPC   C3A73997  33.855  30.666   6.987
 5756POPC   C4A73998  33.926  30.989   7.339
 5756POPC   C1B73999  33.332  30.866   6.325
 5756POPC   C2B74000  33.296  30.850   6.745
 5756POPC   C3B74001  33.448  30.939   7.107
 5756POPC   C4B74002  33.543  30.655   7.419
 5757POPC   NC374003  43.733  40.779   5.362
 5757POPC   PO474004  43.962  41.371   5.145
 5757POPC   GL174005  43.816  41.202   5.621
 5757POPC   GL274006  44.102  41.069   5.785
 5757POPC   C1A74007  43.737  40.878   6.047
 5757POPC   D2A74008  43.923  40.532   6.347
 5757POPC   C3A74009  43.867  40.567   6.836
 5757POPC   C4A74010  43.792  40.879   7.154
 5757POPC   C1B74011  44.263  40.961   6.200
 5757POPC   C2B74012  44.286  40.786   6.622
 5757POPC   C3B74013  44.311  40.875   7.063
 5757POPC   C4B74014  44.172  41.032   7.449
 5758POPC   NC374015   1.904  27.840   5.574
 5758POPC   PO474016   2.580  27.929   5.594
 5758POPC   GL174017   2.386  27.622   5.905
 5758POPC   GL274018   2.118  27.386   5.854
 5758POPC   C1A74019   2.278  27.511   6.342
 5758POPC   D2A74020   2.373  27.632   6.747
 5758POPC   C3A74021   2.048  27.506   7.009
 5758POPC   C4A74022   1.805  27.631   7.306
 5758POPC   C1B74023   1.797  27.523   6.174
 5758POPC   C2B74024   1.829  27.373   6.577
 5758POPC   C3B74025   1.545  27.426   6.929
 5758POPC   C4B74026   1.467  27.252   7.317
 5759POPC   NC374027  26.258   7.346   5.404
 5759POPC   PO474028  26.089   7.918   5.347
 5759POPC   GL174029  26.111   7.657   5.796
 5759POPC   GL274030  25.917   7.299   5.811
 5759POPC   C1A74031  26.051   7.508   6.274
 5759POPC   D2A74032  25.814   7.446   6.698
 5759POPC   C3A74033  25.995   7.513   7.134
 5759POPC   C4A74034  26.123   7.556   7.594
 5759POPC   C1B74035  25.730   7.092   6.231
 5759POPC   C2B74036  25.597   6.946   6.674
 5759POPC   C3B74037  25.655   7.123   7.107
 5759POPC   C4B74038  25.661   7.329   7.526
 5760POPC   NC374039  38.665   1.494   5.082
 5760POPC   PO474040  38.490   2.113   5.447
 5760POPC   GL174041  38.434   1.799   5.762
 5760POPC   GL274042  38.192   2.032   5.871
 5760POPC   C1A74043  38.278   1.614   6.129
 5760POPC   D2A74044  38.284   1.788   6.531
 5760POPC   C3A74045  38.386   1.586   6.925
 5760POPC   C4A74046  38.534   1.726   7.345
 5760POPC   C1B74047  38.249   2.245   6.215
 5760POPC   C2B74048  38.515   2.262   6.551
 5760POPC   C3B74049  38.451   2.100   6.946
 5760POPC   C4B74050  38.291   2.314   7.299
 5761POPC   NC374051  27.433  36.236   5.346
 5761POPC   PO474052  27.006  35.632   5.311
 5761POPC   GL174053  27.257  35.874   5.684
 5761POPC   GL274054  27.361  36.222   5.844
 5761POPC   C1A74055  27.393  35.833   6.144
 5761POPC   D2A74056  27.412  36.000   6.556
 5761POPC   C3A74057  27.503  35.830   6.959
 5761POPC   C4A74058  27.792  35.967   7.268
 5761POPC   C1B74059  27.265  36.526   6.190
 5761POPC   C2B74060  27.242  36.464   6.634
 5761POPC   C3B74061  27.110  36.379   7.051
 5761POPC   C4B74062  27.327  36.196   7.384
 5762POPC   NC374063  31.271  15.840   5.554
 5762POPC   PO474064  30.627  15.880   5.359
 5762POPC   GL174065  30.780  15.750   5.739
 5762POPC   GL274066  30.969  15.993   5.967
 5762POPC   C1A74067  30.570  15.717   6.119
 5762POPC   D2A74068  30.737  15.803   6.535
 5762POPC   C3A74069  30.528  15.881   6.945
 5762POPC   C4A74070  30.625  15.841   7.379
 5762POPC   C1B74071  30.640  16.211   6.224
 5762POPC   C2B74072  30.532  16.305   6.649
 5762POPC   C3B74073  30.756  16.342   7.044
 5762POPC   C4B74074  31.019  16.142   7.305
 5763POPC   NC374075  19.996  34.637   5.524
 5763POPC   PO474076  19.402  34.988   5.490
 5763POPC   GL174077  19.571  34.726   5.846
 5763POPC   GL274078  19.375  34.404   5.968
 5763POPC   C1A74079  19.805  34.649   6.227
 5763POPC   D2A74080  19.781  34.409   6.603
 5763POPC   C3A74081  20.090  34.548   6.871
 5763POPC   C4A74082  20.056  34.637   7.277
 5763POPC   C1B74083  19.312  34.721   6.279
 5763POPC   C2B74084  19.447  34.872   6.664
 5763POPC   C3B74085  19.619  34.712   7.012
 5763POPC   C4B74086  19.549  34.660   7.421
 5764POPC   NC374087  23.880  34.277   5.153
 5764POPC   PO474088  23.478  34.064   5.640
 5764POPC   GL174089  23.702  34.385   5.858
 5764POPC   GL274090  23.908  34.636   5.641
 5764POPC   C1A74091  23.801  34.380   6.314
 5764POPC   D2A74092  23.486  34.519   6.598
 5764POPC   C3A74093  23.447  34.410   7.047
 5764POPC   C4A74094  23.450  34.702   7.423
 5764POPC   C1B74095  23.956  34.796   6.080
 5764POPC   C2B74096  23.924  34.885   6.522
 5764POPC   C3B74097  23.759  34.792   6.924
 5764POPC   C4B74098  23.927  34.628   7.289
 5765POPC   NC374099  17.259  28.614   5.623
 5765POPC   PO474100  17.398  29.245   5.407
 5765POPC   GL174101  17.530  29.293   5.813
 5765POPC   GL274102  17.206  29.412   5.917
 5765POPC   C1A74103  17.515  29.160   6.254
 5765POPC   D2A74104  17.363  28.969   6.643
 5765POPC   C3A74105  17.653  29.009   7.006
 5765POPC   C4A74106  17.660  29.365   7.259
 5765POPC   C1B74107  17.002  29.262   6.320
 5765POPC   C2B74108  16.909  29.202   6.756
 5765POPC   C3B74109  17.186  29.232   7.096
 5765POPC   C4B74110  17.203  29.328   7.516
 5766POPC   NC374111   0.417  24.163   5.493
 5766POPC   PO474112   0.659  24.753   5.454
 5766POPC   GL174113   0.435  24.595   5.772
 5766POPC   GL274114   0.246  24.892   5.743
 5766POPC   C1A74115   0.442  24.336   6.171
 5766POPC   D2A74116   0.700  24.351   6.566
 5766POPC   C3A74117   0.526  24.200   6.971
 5766POPC   C4A74118   0.592  24.363   7.411
 5766POPC   C1B74119   0.383  24.863   6.192
 5766POPC   C2B74120   0.270  24.649   6.563
 5766POPC   C3B74121   0.313  24.647   6.993
 5766POPC   C4B74122   0.362  24.911   7.302
 5767POPC   NC374123   8.347   2.598   5.031
 5767POPC   PO474124   8.157   3.141   5.451
 5767POPC   GL174125   8.265   2.932   5.783
 5767POPC   GL274126   8.429   3.168   5.975
 5767POPC   C1A74127   8.106   2.588   6.017
 5767POPC   D2A74128   7.869   2.586   6.387
 5767POPC   C3A74129   8.032   2.605   6.802
 5767POPC   C4A74130   8.073   2.587   7.274
 5767POPC   C1B74131   8.578   2.738   6.147
 5767POPC   C2B74132   8.568   2.564   6.560
 5767POPC   C3B74133   8.482   2.745   6.978
 5767POPC   C4B74134   8.497   3.169   7.137
 5768POPC   NC374135  35.768  19.421   5.291
 5768POPC   PO474136  36.043  18.812   5.485
 5768POPC   GL174137  36.233  18.920   5.863
 5768POPC   GL274138  36.104  19.243   5.892
 5768POPC   C1A74139  36.198  18.905   6.308
 5768POPC   D2A74140  36.343  18.843   6.713
 5768POPC   C3A74141  35.947  18.816   6.951
 5768POPC   C4A74142  35.907  18.775   7.387
 5768POPC   C1B74143  36.062  19.430   6.337
 5768POPC   C2B74144  36.012  19.278   6.752
 5768POPC   C3B74145  36.027  19.249   7.217
 5768POPC   C4B74146  36.007  19.281   7.678
 5769POPC   NC374147  30.070   9.371   5.372
 5769POPC   PO474148  29.686   9.921   5.436
 5769POPC   GL174149  29.964   9.842   5.810
 5769POPC   GL274150  30.127   9.518   5.842
 5769POPC   C1A74151  29.978   9.740   6.276
 5769POPC   D2A74152  29.992   9.981   6.671
 5769POPC   C3A74153  29.633   9.950   6.946
 5769POPC   C4A74154  29.611   9.608   7.236
 5769POPC   C1B74155  30.325   9.283   6.150
 5769POPC   C2B74156  30.254   9.391   6.560
 5769POPC   C3B74157  30.058   9.452   6.930
 5769POPC   C4B74158  30.258   9.450   7.308
 5770POPC   NC374159  33.875   5.220   5.319
 5770POPC   PO474160  33.294   5.048   5.370
 5770POPC   GL174161  33.541   4.854   5.740
 5770POPC   GL274162  33.893   4.897   5.749
 5770POPC   C1A74163  33.647   4.752   6.197
 5770POPC   D2A74164  33.555   5.037   6.533
 5770POPC   C3A74165  33.645   4.989   6.975
 5770POPC   C4A74166  33.578   5.254   7.316
 5770POPC   C1B74167  33.733   5.244   6.043
 5770POPC   C2B74168  33.923   5.392   6.447
 5770POPC   C3B74169  33.878   5.444   6.897
 5770POPC   C4B74170  34.130   5.443   7.296
 5771POPC   NC374171  13.845  10.188   5.318
 5771POPC   PO474172  13.592   9.547   5.347
 5771POPC   GL174173  13.567   9.794   5.756
 5771POPC   GL274174  13.827  10.013   5.799
 5771POPC   C1A74175  13.395   9.839   6.207
 5771POPC   D2A74176  13.495   9.553   6.559
 5771POPC   C3A74177  13.574   9.676   7.020
 5771POPC   C4A74178  13.842   9.474   7.353
 5771POPC   C1B74179  13.891   9.773   6.175
 5771POPC   C2B74180  13.849   9.914   6.585
 5771POPC   C3B74181  14.056   9.772   6.937
 5771POPC   C4B74182  14.042   9.928   7.302
 5772POPC   NC374183  14.850  30.621   5.478
 5772POPC   PO474184  14.248  30.911   5.346
 5772POPC   GL174185  14.366  30.641   5.744
 5772POPC   GL274186  14.103  30.387   5.855
 5772POPC   C1A74187  14.471  30.548   6.184
 5772POPC   D2A74188  14.440  30.847   6.540
 5772POPC   C3A74189  14.498  30.727   6.952
 5772POPC   C4A74190  14.408  30.976   7.267
 5772POPC   C1B74191  14.028  30.293   6.294
 5772POPC   C2B74192  14.256  30.355   6.660
 5772POPC   C3B74193  14.195  30.345   7.084
 5772POPC   C4B74194  14.323  30.499   7.442
 5773POPC   NC374195   4.970  23.053   5.234
 5773POPC   PO474196   5.500  22.683   5.355
 5773POPC   GL174197   5.269  22.980   5.711
 5773POPC   GL274198   4.958  23.201   5.733
 5773POPC   C1A74199   5.081  22.973   6.185
 5773POPC   D2A74200   4.997  22.995   6.655
 5773POPC   C3A74201   5.314  22.823   6.964
 5773POPC   C4A74202   5.487  22.656   7.345
 5773POPC   C1B74203   4.632  23.233   6.078
 5773POPC   C2B74204   4.563  23.392   6.497
 5773POPC   C3B74205   4.759  23.382   6.901
 5773POPC   C4B74206   4.865  23.028   7.182
 5774POPC   NC374207  37.168  11.559   5.450
 5774POPC   PO474208  37.852  11.341   5.342
 5774POPC   GL174209  37.570  11.235   5.686
 5774POPC   GL274210  37.766  10.952   5.761
 5774POPC   C1A74211  37.517  11.318   6.156
 5774POPC   D2A74212  37.691  11.514   6.570
 5774POPC   C3A74213  37.704  11.528   7.019
 5774POPC   C4A74214  37.734  11.270   7.427
 5774POPC   C1B74215  37.921  10.999   6.184
 5774POPC   C2B74216  37.656  10.993   6.556
 5774POPC   C3B74217  37.582  11.038   6.996
 5774POPC   C4B74218  37.879  10.820   7.282
 5775POPC   NC374219  15.400  17.963   5.377
 5775POPC   PO474220  14.815  18.283   5.124
 5775POPC   GL174221  14.950  18.203   5.596
 5775POPC   GL274222  15.159  18.469   5.792
 5775POPC   C1A74223  15.136  18.030   6.013
 5775POPC   D2A74224  15.232  18.290   6.380
 5775POPC   C3A74225  15.268  18.210   6.814
 5775POPC   C4A74226  15.179  18.236   7.246
 5775POPC   C1B74227  15.511  18.611   6.101
 5775POPC   C2B74228  15.606  18.610   6.584
 5775POPC   C3B74229  15.446  18.636   7.050
 5775POPC   C4B74230  15.537  18.493   7.502
 5776POPC   NC374231  25.135  36.421   5.293
 5776POPC   PO474232  25.248  35.771   5.174
 5776POPC   GL174233  25.274  36.027   5.625
 5776POPC   GL274234  25.414  36.418   5.715
 5776POPC   C1A74235  25.233  36.082   6.096
 5776POPC   D2A74236  25.320  35.958   6.549
 5776POPC   C3A74237  25.050  35.942   6.892
 5776POPC   C4A74238  25.065  36.127   7.284
 5776POPC   C1B74239  25.588  36.456   6.147
 5776POPC   C2B74240  25.677  36.364   6.588
 5776POPC   C3B74241  25.566  36.520   6.976
 5776POPC   C4B74242  25.339  36.568   7.326
 5777POPC   NC374243  37.951  41.978   5.601
 5777POPC   PO474244  37.551  41.554   5.258
 5777POPC   GL174245  37.372  41.713   5.689
 5777POPC   GL274246  37.589  41.909   5.943
 5777POPC   C1A74247  37.405  41.481   6.124
 5777POPC   D2A74248  37.687  41.446   6.495
 5777POPC   C3A74249  37.572  41.361   6.881
 5777POPC   C4A74250  37.511  41.680   7.181
 5777POPC   C1B74251  37.963  41.752   6.212
 5777POPC   C2B74252  38.083  41.948   6.613
 5777POPC   C3B74253  37.999  41.815   7.013
 5777POPC   C4B74254  38.122  41.485   7.239
 5778POPC   NC374255  21.284  35.775   5.498
 5778POPC   PO474256  21.695  35.150   5.379
 5778POPC   GL174257  21.500  35.347   5.716
 5778POPC   GL274258  21.486  35.024   5.892
 5778POPC   C1A74259  21.308  35.452   6.132
 5778POPC   D2A74260  21.400  35.540   6.568
 5778POPC   C3A74261  21.122  35.553   6.923
 5778POPC   C4A74262  21.320  35.584   7.317
 5778POPC   C1B74263  21.529  35.007   6.326
 5778POPC   C2B74264  21.549  34.948   6.750
 5778POPC   C3B74265  21.371  35.118   7.112
 5778POPC   C4B74266  21.491  35.165   7.560
 5779POPC   NC374267  31.585  33.563   5.601
 5779POPC   PO474268  31.443  32.906   5.756
 5779POPC   GL174269  31.511  33.226   5.977
 5779POPC   GL274270  31.248  33.407   6.003
 5779POPC   C1A74271  31.548  33.210   6.385
 5779POPC   D2A74272  31.297  32.983   6.633
 5779POPC   C3A74273  31.520  32.930   6.980
 5779POPC   C4A74274  31.781  32.885   7.327
 5779POPC   C1B74275  31.246  33.634   6.382
 5779POPC   C2B74276  31.365  33.493   6.785
 5779POPC   C3B74277  31.161  33.269   7.089
 5779POPC   C4B74278  31.057  33.349   7.514
 5780POPC   NC374279   5.483  21.511   5.526
 5780POPC   PO474280   6.175  21.322   5.450
 5780POPC   GL174281   6.062  21.248   5.848
 5780POPC   GL274282   5.751  21.100   5.677
 5780POPC   C1A74283   6.038  21.426   6.304
 5780POPC   D2A74284   6.171  21.412   6.748
 5780POPC   C3A74285   5.956  21.433   7.134
 5780POPC   C4A74286   6.113  21.527   7.542
 5780POPC   C1B74287   5.640  21.069   6.092
 5780POPC   C2B74288   5.730  21.073   6.524
 5780POPC   C3B74289   5.504  21.063   6.894
 5780POPC   C4B74290   5.625  21.049   7.301
 5781POPC   NC374291   9.312  25.345   5.491
 5781POPC   PO474292   9.826  24.998   5.169
 5781POPC   GL174293   9.748  24.979   5.685
 5781POPC   GL274294   9.475  25.126   5.902
 5781POPC   C1A74295   9.966  25.184   6.094
 5781POPC   D2A74296   9.812  25.324   6.516
 5781POPC   C3A74297  10.067  25.215   6.896
 5781POPC   C4A74298  10.082  25.445   7.290
 5781POPC   C1B74299   9.240  25.040   6.269
 5781POPC   C2B74300   9.372  25.054   6.686
 5781POPC   C3B74301   9.563  25.292   7.025
 5781POPC   C4B74302   9.365  25.124   7.366
 5782POPC   NC374303  41.192  24.066   5.304
 5782POPC   PO474304  41.781  23.669   5.348
 5782POPC   GL174305  41.663  23.777   5.755
 5782POPC   GL274306  41.316  23.826   5.793
 5782POPC   C1A74307  41.838  23.762   6.150
 5782POPC   D2A74308  41.714  23.640   6.531
 5782POPC   C3A74309  41.870  23.657   6.920
 5782POPC   C4A74310  41.743  23.592   7.346
 5782POPC   C1B74311  41.351  23.511   6.137
 5782POPC   C2B74312  41.145  23.500   6.534
 5782POPC   C3B74313  41.196  23.464   6.962
 5782POPC   C4B74314  41.212  23.767   7.271
 5783POPC   NC374315   4.607   5.424   5.635
 5783POPC   PO474316   4.234   5.822   5.174
 5783POPC   GL174317   4.271   5.878   5.658
 5783POPC   GL274318   4.197   5.588   5.887
 5783POPC   C1A74319   4.252   6.022   6.134
 5783POPC   D2A74320   4.009   6.158   6.547
 5783POPC   C3A74321   4.168   6.005   6.974
 5783POPC   C4A74322   4.288   5.586   7.195
 5783POPC   C1B74323   4.010   5.557   6.294
 5783POPC   C2B74324   3.979   5.554   6.758
 5783POPC   C3B74325   3.784   5.709   7.148
 5783POPC   C4B74326   3.934   5.667   7.556
 5784POPC   NC374327  41.059  26.931   5.081
 5784POPC   PO474328  40.569  26.741   5.384
 5784POPC   GL174329  40.688  26.780   5.820
 5784POPC   GL274330  41.018  26.901   5.882
 5784POPC   C1A74331  40.789  26.553   6.200
 5784POPC   D2A74332  41.014  26.396   6.517
 5784POPC   C3A74333  40.843  26.428   6.946
 5784POPC   C4A74334  40.862  26.582   7.365
 5784POPC   C1B74335  40.802  27.068   6.241
 5784POPC   C2B74336  40.799  26.859   6.615
 5784POPC   C3B74337  40.933  26.928   6.998
 5784POPC   C4B74338  40.651  27.054   7.275
 5785POPC   NC374339  14.523   4.034   5.353
 5785POPC   PO474340  14.247   4.608   5.505
 5785POPC   GL174341  14.350   4.234   5.793
 5785POPC   GL274342  14.627   3.962   5.842
 5785POPC   C1A74343  14.266   4.200   6.225
 5785POPC   D2A74344  14.155   4.512   6.535
 5785POPC   C3A74345  14.396   4.426   6.885
 5785POPC   C4A74346  14.232   4.214   7.207
 5785POPC   C1B74347  14.779   4.224   6.164
 5785POPC   C2B74348  14.857   4.272   6.597
 5785POPC   C3B74349  14.752   4.071   6.972
 5785POPC   C4B74350  14.707   4.227   7.347
 5786POPC   NC374351   5.628  39.666   5.413
 5786POPC   PO474352   5.713  40.362   5.252
 5786POPC   GL174353   5.674  40.064   5.690
 5786POPC   GL274354   5.926  39.978   5.876
 5786POPC   C1A74355   5.530  39.958   6.179
 5786POPC   D2A74356   5.663  39.892   6.638
 5786POPC   C3A74357   5.715  40.165   6.973
 5786POPC   C4A74358   5.654  40.095   7.381
 5786POPC   C1B74359   6.047  39.927   6.297
 5786POPC   C2B74360   6.162  39.871   6.742
 5786POPC   C3B74361   5.974  39.745   7.150
 5786POPC   C4B74362   5.920  39.669   7.604
 5787POPC   NC374363   7.750  38.593   5.246
 5787POPC   PO474364   7.167  38.267   5.201
 5787POPC   GL174365   7.370  38.406   5.647
 5787POPC   GL274366   7.688  38.281   5.703
 5787POPC   C1A74367   7.330  38.514   6.133
 5787POPC   D2A74368   7.171  38.466   6.597
 5787POPC   C3A74369   7.346  38.514   7.009
 5787POPC   C4A74370   7.176  38.636   7.452
 5787POPC   C1B74371   7.591  38.073   6.102
 5787POPC   C2B74372   7.658  38.204   6.549
 5787POPC   C3B74373   7.665  38.064   6.974
 5787POPC   C4B74374   7.427  38.122   7.334
 5788POPC   NC374375  27.670  23.359   5.476
 5788POPC   PO474376  28.016  24.022   5.321
 5788POPC   GL174377  27.853  23.799   5.697
 5788POPC   GL274378  27.503  23.810   5.703
 5788POPC   C1A74379  27.910  23.856   6.152
 5788POPC   D2A74380  28.116  23.731   6.546
 5788POPC   C3A74381  27.879  23.876   6.898
 5788POPC   C4A74382  27.744  23.762   7.333
 5788POPC   C1B74383  27.484  23.584   6.108
 5788POPC   C2B74384  27.555  23.712   6.539
 5788POPC   C3B74385  27.441  23.578   6.974
 5788POPC   C4B74386  27.276  23.559   7.451
 5789POPC   NC374387  35.759  14.202   5.404
 5789POPC   PO474388  35.256  14.673   5.453
 5789POPC   GL174389  35.407  14.361   5.799
 5789POPC   GL274390  35.188  14.050   5.836
 5789POPC   C1A74391  35.386  14.383   6.269
 5789POPC   D2A74392  35.086  14.610   6.548
 5789POPC   C3A74393  35.213  14.813   6.934
 5789POPC   C4A74394  35.205  14.592   7.312
 5789POPC   C1B74395  35.205  13.896   6.297
 5789POPC   C2B74396  35.386  13.940   6.734
 5789POPC   C3B74397  35.423  14.173   7.163
 5789POPC   C4B74398  35.182  14.194   7.612
 5790POPC   NC374399  39.929  29.594   5.427
 5790POPC   PO474400  40.109  28.953   5.429
 5790POPC   GL174401  40.071  29.162   5.848
 5790POPC   GL274402  39.760  29.397   5.895
 5790POPC   C1A74403  40.312  28.982   6.223
 5790POPC   D2A74404  40.595  28.917   6.591
 5790POPC   C3A74405  40.545  29.266   6.893
 5790POPC   C4A74406  40.197  29.234   7.143
 5790POPC   C1B74407  39.723  29.140   6.282
 5790POPC   C2B74408  39.680  28.912   6.693
 5790POPC   C3B74409  39.474  28.930   7.116
 5790POPC   C4B74410  39.547  28.949   7.577
 5791POPC   NC374411   8.644  41.540   5.423
 5791POPC   PO474412   9.311  41.815   5.453
 5791POPC   GL174413   8.998  41.766   5.770
 5791POPC   GL274414   8.925  41.412   5.824
 5791POPC   C1A74415   8.819  41.788   6.175
 5791POPC   D2A74416   8.742  41.627   6.583
 5791POPC   C3A74417   9.124  41.500   6.751
 5791POPC   C4A74418   9.187  41.361   7.158
 5791POPC   C1B74419   9.004  41.308   6.238
 5791POPC   C2B74420   8.817  41.100   6.573
 5791POPC   C3B74421   8.711  41.187   6.984
 5791POPC   C4B74422   8.725  41.327   7.387
 5792POPC   NC374423  11.259   6.045   4.872
 5792POPC   PO474424  11.404   5.682   5.432
 5792POPC   GL174425  11.154   5.815   5.817
 5792POPC   GL274426  11.069   6.208   5.783
 5792POPC   C1A74427  11.157   5.637   6.265
 5792POPC   D2A74428  11.456   5.637   6.625
 5792POPC   C3A74429  11.395   5.867   7.023
 5792POPC   C4A74430  11.325   5.703   7.423
 5792POPC   C1B74431  11.121   6.153   6.227
 5792POPC   C2B74432  11.034   5.996   6.638
 5792POPC   C3B74433  11.043   6.241   6.993
 5792POPC   C4B74434  11.012   6.112   7.399
 5793POPC   NC374435   9.865  44.841   5.348
 5793POPC   PO474436   9.610  44.328   5.670
 5793POPC   GL174437   9.493  44.459   5.993
 5793POPC   GL274438   9.162  44.178   5.849
 5793POPC   C1A74439   9.790  44.823   6.179
 5793POPC   D2A74440   9.980   0.126   6.523
 5793POPC   C3A74441   9.911  44.939   6.959
 5793POPC   C4A74442   9.694  44.682   7.297
 5793POPC   C1B74443   9.140  44.227   6.242
 5793POPC   C2B74444   9.386  44.451   6.532
 5793POPC   C3B74445   9.486  44.329   6.950
 5793POPC   C4B74446   9.405  44.253   7.364
 5794POPC   NC374447   1.611  14.036   5.587
 5794POPC   PO474448   0.971  14.164   5.448
 5794POPC   GL174449   1.202  14.258   5.817
 5794POPC   GL274450   1.338  14.593   5.924
 5794POPC   C1A74451   1.354  14.158   6.201
 5794POPC   D2A74452   1.330  14.458   6.475
 5794POPC   C3A74453   1.182  14.389   6.867
 5794POPC   C4A74454   1.121  14.204   7.275
 5794POPC   C1B74455   0.963  14.659   6.168
 5794POPC   C2B74456   0.897  14.777   6.605
 5794POPC   C3B74457   0.811  14.822   7.036
 5794POPC   C4B74458   0.920  14.639   7.462
 5795POPC   NC374459  39.270   8.831   5.298
 5795POPC   PO474460  39.642   9.388   5.373
 5795POPC   GL174461  39.334   9.160   5.690
 5795POPC   GL274462  39.372   8.781   5.785
 5795POPC   C1A74463  39.057   9.032   6.084
 5795POPC   D2A74464  38.951   8.895   6.538
 5795POPC   C3A74465  39.155   9.030   6.959
 5795POPC   C4A74466  39.108   9.005   7.448
 5795POPC   C1B74467  39.442   8.724   6.233
 5795POPC   C2B74468  39.369   8.600   6.700
 5795POPC   C3B74469  39.357   8.609   7.159
 5795POPC   C4B74470  39.535   8.747   7.541
 5796POPC   NC374471  34.807  14.806   5.384
 5796POPC   PO474472  34.454  14.146   5.337
 5796POPC   GL174473  34.439  14.478   5.627
 5796POPC   GL274474  34.777  14.386   5.721
 5796POPC   C1A74475  34.424  14.725   6.028
 5796POPC   D2A74476  34.583  14.594   6.438
 5796POPC   C3A74477  34.497  14.604   6.870
 5796POPC   C4A74478  34.735  14.785   7.178
 5796POPC   C1B74479  34.876  14.282   6.157
 5796POPC   C2B74480  34.840  14.141   6.589
 5796POPC   C3B74481  34.933  14.288   6.994
 5796POPC   C4B74482  34.737  14.340   7.396
 5797POPC   NC374483  33.093  27.193   5.426
 5797POPC   PO474484  32.807  27.844   5.459
 5797POPC   GL174485  32.987  27.718   5.809
 5797POPC   GL274486  32.812  27.418   5.796
 5797POPC   C1A74487  33.224  27.862   6.169
 5797POPC   D2A74488  33.112  28.032   6.572
 5797POPC   C3A74489  32.868  27.683   6.756
 5797POPC   C4A74490  33.050  27.554   7.121
 5797POPC   C1B74491  33.180  27.329   6.086
 5797POPC   C2B74492  33.216  27.328   6.535
 5797POPC   C3B74493  32.998  27.114   6.849
 5797POPC   C4B74494  32.980  27.083   7.307
 5798POPC   NC374495  44.260   0.814   5.426
 5798POPC   PO474496  44.047   0.197   5.448
 5798POPC   GL174497  43.890   0.438   5.803
 5798POPC   GL274498  43.972   0.762   5.855
 5798POPC   C1A74499  43.784   0.434   6.230
 5798POPC   D2A74500  43.996   0.188   6.551
 5798POPC   C3A74501  43.859   0.310   6.949
 5798POPC   C4A74502  43.522   0.252   7.184
 5798POPC   C1B74503  44.142   0.831   6.245
 5798POPC   C2B74504  43.993   0.704   6.633
 5798POPC   C3B74505  44.025   0.899   6.999
 5798POPC   C4B74506  43.936   0.824   7.443
 5799POPC   NC374507   9.877   9.775   5.334
 5799POPC   PO474508   9.636   9.181   5.492
 5799POPC   GL174509   9.594   9.430   5.860
 5799POPC   GL274510   9.715   9.765   5.818
 5799POPC   C1A74511   9.512   9.480   6.317
 5799POPC   D2A74512   9.409   9.818   6.625
 5799POPC   C3A74513   9.495   9.797   7.081
 5799POPC   C4A74514   9.489   9.623   7.510
 5799POPC   C1B74515   9.978   9.631   6.179
 5799POPC   C2B74516   9.931   9.826   6.563
 5799POPC   C3B74517   9.976   9.710   6.951
 5799POPC   C4B74518   9.954   9.923   7.351
 5800POPC   NC374519  40.358  24.439   5.486
 5800POPC   PO474520  39.676  24.655   5.422
 5800POPC   GL174521  39.899  24.575   5.822
 5800POPC   GL274522  40.142  24.314   5.919
 5800POPC   C1A74523  39.733  24.512   6.239
 5800POPC   D2A74524  39.838  24.347   6.650
 5800POPC   C3A74525  39.699  24.479   7.041
 5800POPC   C4A74526  39.791  24.413   7.474
 5800POPC   C1B74527  40.252  24.423   6.351
 5800POPC   C2B74528  40.249  24.686   6.728
 5800POPC   C3B74529  40.164  24.631   7.173
 5800POPC   C4B74530  40.253  24.538   7.657
 5801POPC   NC374531  36.918  12.251   5.351
 5801POPC   PO474532  36.654  11.654   5.409
 5801POPC   GL174533  36.779  11.903   5.829
 5801POPC   GL274534  36.973  12.246   5.854
 5801POPC   C1A74535  36.818  11.962   6.326
 5801POPC   D2A74536  36.837  11.721   6.749
 5801POPC   C3A74537  36.742  11.954   7.110
 5801POPC   C4A74538  36.690  12.358   7.273
 5801POPC   C1B74539  37.216  12.271   6.233
 5801POPC   C2B74540  37.149  12.238   6.689
 5801POPC   C3B74541  37.349  12.360   7.058
 5801POPC   C4B74542  37.183  12.474   7.472
 5802POPC   NC374543  40.675  26.078   5.434
 5802POPC   PO474544  41.299  25.967   5.516
 5802POPC   GL174545  40.969  26.207   5.843
 5802POPC   GL274546  40.547  26.285   5.852
 5802POPC   C1A74547  40.802  26.017   6.236
 5802POPC   D2A74548  40.741  25.790   6.638
 5802POPC   C3A74549  40.806  25.914   7.083
 5802POPC   C4A74550  40.761  25.824   7.555
 5802POPC   C1B74551  40.349  26.264   6.211
 5802POPC   C2B74552  40.510  26.260   6.591
 5802POPC   C3B74553  40.374  26.205   6.990
 5802POPC   C4B74554  40.518  26.225   7.385
 5803POPC   NC374555   8.794  10.912   5.234
 5803POPC   PO474556   9.155  10.339   5.473
 5803POPC   GL174557   8.942  10.444   5.830
 5803POPC   GL274558   8.871  10.140   5.974
 5803POPC   C1A74559   9.029  10.638   6.220
 5803POPC   D2A74560   9.265  10.755   6.592
 5803POPC   C3A74561   9.047  10.666   6.974
 5803POPC   C4A74562   9.255  10.633   7.367
 5803POPC   C1B74563   9.282  10.194   6.141
 5803POPC   C2B74564   9.156  10.252   6.534
 5803POPC   C3B74565   9.287  10.237   6.913
 5803POPC   C4B74566   9.013  10.211   7.228
 5804POPC   NC374567  23.180  26.209   5.344
 5804POPC   PO474568  22.780  25.774   5.563
 5804POPC   GL174569  22.835  26.136   5.875
 5804POPC   GL274570  23.025  26.428   5.763
 5804POPC   C1A74571  22.901  26.071   6.320
 5804POPC   D2A74572  23.194  25.959   6.626
 5804POPC   C3A74573  22.984  26.054   7.003
 5804POPC   C4A74574  23.050  25.989   7.429
 5804POPC   C1B74575  23.312  26.243   6.085
 5804POPC   C2B74576  23.335  26.442   6.475
 5804POPC   C3B74577  23.339  26.389   6.871
 5804POPC   C4B74578  23.414  26.279   7.240
 5805POPC   NC374579  34.081  15.495   5.357
 5805POPC   PO474580  33.584  14.968   5.383
 5805POPC   GL174581  33.598  15.127   5.789
 5805POPC   GL274582  33.948  15.226   5.794
 5805POPC   C1A74583  33.697  15.052   6.238
 5805POPC   D2A74584  33.863  14.974   6.620
 5805POPC   C3A74585  33.800  15.057   7.015
 5805POPC   C4A74586  33.579  15.124   7.380
 5805POPC   C1B74587  33.882  15.494   6.159
 5805POPC   C2B74588  34.060  15.476   6.545
 5805POPC   C3B74589  33.916  15.545   6.921
 5805POPC   C4B74590  33.988  15.439   7.331
 5806POPC   NC374591  33.457   8.550   5.679
 5806POPC   PO474592  33.066   8.212   5.228
 5806POPC   GL174593  33.003   8.269   5.698
 5806POPC   GL274594  33.306   8.055   5.725
 5806POPC   C1A74595  32.750   8.114   6.101
 5806POPC   D2A74596  32.532   8.072   6.535
 5806POPC   C3A74597  32.708   8.037   6.975
 5806POPC   C4A74598  33.020   8.007   7.348
 5806POPC   C1B74599  33.260   8.171   6.174
 5806POPC   C2B74600  33.059   8.104   6.547
 5806POPC   C3B74601  33.212   8.179   6.931
 5806POPC   C4B74602  33.530   7.985   7.194
 5807POPC   NC374603  15.530  28.579   5.597
 5807POPC   PO474604  15.925  28.079   5.456
 5807POPC   GL174605  15.727  28.157   5.846
 5807POPC   GL274606  15.862  28.453   5.981
 5807POPC   C1A74607  15.681  28.112   6.319
 5807POPC   D2A74608  15.941  28.235   6.691
 5807POPC   C3A74609  15.774  28.143   7.101
 5807POPC   C4A74610  15.873  27.987   7.521
 5807POPC   C1B74611  15.674  28.640   6.329
 5807POPC   C2B74612  15.843  28.746   6.742
 5807POPC   C3B74613  16.017  28.607   7.137
 5807POPC   C4B74614  15.754  28.548   7.482
 5808POPC   NC374615   4.099  15.794   5.306
 5808POPC   PO474616   4.530  16.251   5.577
 5808POPC   GL174617   4.279  16.109   5.854
 5808POPC   GL274618   4.244  15.760   5.853
 5808POPC   C1A74619   4.279  16.165   6.262
 5808POPC   D2A74620   4.141  15.926   6.585
 5808POPC   C3A74621   4.283  16.141   6.923
 5808POPC   C4A74622   4.110  16.109   7.280
 5808POPC   C1B74623   4.541  15.732   6.241
 5808POPC   C2B74624   4.669  15.882   6.651
 5808POPC   C3B74625   4.566  15.752   7.058
 5808POPC   C4B74626   4.325  15.405   7.240
 5809POPC   NC374627   8.674   3.116   5.501
 5809POPC   PO474628   8.761   2.421   5.296
 5809POPC   GL174629   8.880   2.441   5.766
 5809POPC   GL274630   9.026   2.784   5.882
 5809POPC   C1A74631   9.102   2.337   6.188
 5809POPC   D2A74632   9.252   2.364   6.636
 5809POPC   C3A74633   8.920   2.459   6.932
 5809POPC   C4A74634   8.929   2.594   7.314
 5809POPC   C1B74635   8.897   3.124   6.202
 5809POPC   C2B74636   8.668   3.083   6.604
 5809POPC   C3B74637   8.935   2.970   6.950
 5809POPC   C4B74638   9.142   3.063   7.309
 5810POPC   NC374639  36.457   0.369   5.399
 5810POPC   PO474640  35.814   0.403   5.475
 5810POPC   GL174641  36.138   0.601   5.759
 5810POPC   GL274642  36.443   0.413   5.907
 5810POPC   C1A74643  36.224   0.779   6.188
 5810POPC   D2A74644  36.438   0.544   6.531
 5810POPC   C3A74645  36.473   0.787   6.916
 5810POPC   C4A74646  36.212   0.751   7.273
 5810POPC   C1B74647  36.062   0.280   6.155
 5810POPC   C2B74648  35.928   0.431   6.558
 5810POPC   C3B74649  36.116   0.350   6.952
 5810POPC   C4B74650  35.992   0.131   7.317
 5811POPC   NC374651   7.531  22.607   5.477
 5811POPC   PO474652   7.432  23.221   5.327
 5811POPC   GL174653   7.490  23.044   5.776
 5811POPC   GL274654   7.147  22.940   5.932
 5811POPC   C1A74655   7.578  22.960   6.243
 5811POPC   D2A74656   7.217  23.069   6.548
 5811POPC   C3A74657   7.293  23.165   6.999
 5811POPC   C4A74658   7.636  23.190   7.328
 5811POPC   C1B74659   7.218  22.604   6.277
 5811POPC   C2B74660   7.530  22.574   6.658
 5811POPC   C3B74661   7.562  22.722   7.119
 5811POPC   C4B74662   7.665  22.733   7.591
 5812POPC   NC374663  17.827  29.079   5.409
 5812POPC   PO474664  17.709  28.599   5.712
 5812POPC   GL174665  17.972  28.961   5.898
 5812POPC   GL274666  18.354  28.961   5.829
 5812POPC   C1A74667  18.031  29.246   6.256
 5812POPC   D2A74668  17.829  29.328   6.653
 5812POPC   C3A74669  18.113  29.344   7.028
 5812POPC   C4A74670  18.479  29.391   7.326
 5812POPC   C1B74671  18.410  28.901   6.302
 5812POPC   C2B74672  18.187  28.932   6.719
 5812POPC   C3B74673  18.413  28.922   7.131
 5812POPC   C4B74674  18.875  29.023   7.177
 5813POPC   NC374675  10.674  22.060   5.032
 5813POPC   PO474676  10.475  22.439   5.617
 5813POPC   GL174677  10.598  22.258   5.955
 5813POPC   GL274678  10.728  21.950   5.812
 5813POPC   C1A74679  10.387  22.214   6.341
 5813POPC   D2A74680  10.340  22.083   6.757
 5813POPC   C3A74681  10.615  22.337   7.042
 5813POPC   C4A74682  10.611  22.370   7.476
 5813POPC   C1B74683  10.857  21.932   6.241
 5813POPC   C2B74684  10.832  22.183   6.594
 5813POPC   C3B74685  10.809  21.888   6.898
 5813POPC   C4B74686  10.589  21.868   7.239
 5814POPC   NC374687  15.523   7.167   5.752
 5814POPC   PO474688  15.508   6.543   5.443
 5814POPC   GL174689  15.183   6.730   5.682
 5814POPC   GL274690  15.406   6.729   5.953
 5814POPC   C1A74691  14.966   6.964   6.044
 5814POPC   D2A74692  15.130   7.038   6.486
 5814POPC   C3A74693  14.950   6.893   6.863
 5814POPC   C4A74694  14.955   6.586   7.177
 5814POPC   C1B74695  15.547   6.527   6.310
 5814POPC   C2B74696  15.590   6.777   6.659
 5814POPC   C3B74697  15.426   6.798   7.056
 5814POPC   C4B74698  15.461   6.529   7.353
 5815POPC   NC374699  31.468  34.970   5.351
 5815POPC   PO474700  31.280  34.351   5.438
 5815POPC   GL174701  31.506  34.421   5.814
 5815POPC   GL274702  31.621  34.756   5.799
 5815POPC   C1A74703  31.350  34.591   6.220
 5815POPC   D2A74704  31.123  34.816   6.541
 5815POPC   C3A74705  31.380  34.763   6.911
 5815POPC   C4A74706  31.380  34.498   7.214
 5815POPC   C1B74707  31.830  34.897   6.167
 5815POPC   C2B74708  32.028  34.952   6.586
 5815POPC   C3B74709  31.866  34.991   6.994
 5815POPC   C4B74710  31.705  34.862   7.374
 5816POPC   NC374711  44.565  17.707   5.609
 5816POPC   PO474712   0.077  17.301   5.513
 5816POPC   GL174713  44.919  17.487   5.885
 5816POPC   GL274714  44.872  17.829   6.008
 5816POPC   C1A74715  44.701  17.408   6.255
 5816POPC   D2A74716  44.553  17.565   6.631
 5816POPC   C3A74717  44.851  17.400   6.902
 5816POPC   C4A74718  44.701  17.109   7.225
 5816POPC   C1B74719  44.413  17.829   6.207
 5816POPC   C2B74720  44.279  18.019   6.601
 5816POPC   C3B74721  44.252  17.825   6.994
 5816POPC   C4B74722  44.586  17.619   7.260
 5817POPC   NC374723   3.839  20.715   5.406
 5817POPC   PO474724   4.428  20.476   5.505
 5817POPC   GL174725   4.164  20.676   5.815
 5817POPC   GL274726   4.074  21.003   5.757
 5817POPC   C1A74727   4.114  20.551   6.227
 5817POPC   D2A74728   4.436  20.419   6.527
 5817POPC   C3A74729   4.193  20.452   6.885
 5817POPC   C4A74730   3.953  20.486   7.258
 5817POPC   C1B74731   4.300  21.020   6.195
 5817POPC   C2B74732   4.374  20.917   6.662
 5817POPC   C3B74733   4.254  20.908   7.112
 5817POPC   C4B74734   4.273  20.995   7.571
 5818POPC   NC374735  10.127  22.689   5.408
 5818POPC   PO474736   9.591  23.136   5.461
 5818POPC   GL174737   9.510  22.943   5.856
 5818POPC   GL274738   9.414  23.250   6.000
 5818POPC   C1A74739   9.746  22.913   6.259
 5818POPC   D2A74740   9.992  23.112   6.600
 5818POPC   C3A74741   9.959  22.904   7.003
 5818POPC   C4A74742  10.252  22.658   7.221
 5818POPC   C1B74743   9.282  23.104   6.392
 5818POPC   C2B74744   9.499  22.973   6.730
 5818POPC   C3B74745   9.485  23.035   7.144
 5818POPC   C4B74746   9.412  22.762   7.454
 5819POPC   NC374747  20.888  23.604   5.102
 5819POPC   PO474748  21.375  24.016   5.358
 5819POPC   GL174749  21.378  23.865   5.747
 5819POPC   GL274750  21.116  24.089   5.810
 5819POPC   C1A74751  21.494  23.651   6.122
 5819POPC   D2A74752  21.515  23.763   6.561
 5819POPC   C3A74753  21.287  23.618   6.924
 5819POPC   C4A74754  21.439  23.725   7.344
 5819POPC   C1B74755  21.103  23.938   6.250
 5819POPC   C2B74756  20.972  23.952   6.683
 5819POPC   C3B74757  21.162  24.085   7.076
 5819POPC   C4B74758  21.138  24.067   7.556
 5820POPC   NC374759  43.175  12.366   5.267
 5820POPC   PO474760  43.268  11.730   5.449
 5820POPC   GL174761  43.179  12.037   5.756
 5820POPC   GL274762  43.516  12.040   5.836
 5820POPC   C1A74763  43.029  11.934   6.208
 5820POPC   D2A74764  42.745  12.147   6.517
 5820POPC   C3A74765  42.618  12.076   6.925
 5820POPC   C4A74766  42.834  12.143   7.300
 5820POPC   C1B74767  43.360  12.317   6.148
 5820POPC   C2B74768  43.249  12.249   6.562
 5820POPC   C3B74769  43.248  12.096   6.960
 5820POPC   C4B74770  43.286  12.362   7.280
 5821POPC   NC374771  44.125  26.480   5.390
 5821POPC   PO474772  43.574  26.846   5.460
 5821POPC   GL174773  43.844  26.742   5.764
 5821POPC   GL274774  43.686  26.453   5.807
 5821POPC   C1A74775  44.007  26.822   6.178
 5821POPC   D2A74776  43.828  27.009   6.531
 5821POPC   C3A74777  43.990  26.905   6.905
 5821POPC   C4A74778  44.055  27.140   7.248
 5821POPC   C1B74779  43.673  26.273   6.170
 5821POPC   C2B74780  43.776  26.470   6.518
 5821POPC   C3B74781  43.740  26.446   6.919
 5821POPC   C4B74782  44.113  26.471   7.160
 5822POPC   NC374783  35.673  26.478   5.521
 5822POPC   PO474784  35.010  26.767   5.403
 5822POPC   GL174785  35.252  26.628   5.773
 5822POPC   GL274786  35.079  26.356   5.869
 5822POPC   C1A74787  35.565  26.771   6.105
 5822POPC   D2A74788  35.609  26.697   6.538
 5822POPC   C3A74789  35.599  27.049   6.800
 5822POPC   C4A74790  35.441  26.905   7.174
 5822POPC   C1B74791  35.267  26.386   6.257
 5822POPC   C2B74792  35.266  26.314   6.681
 5822POPC   C3B74793  35.192  26.474   7.081
 5822POPC   C4B74794  35.031  26.574   7.474
 5823POPC   NC374795  27.990   3.509   5.384
 5823POPC   PO474796  28.633   3.769   5.349
 5823POPC   GL174797  28.469   3.638   5.771
 5823POPC   GL274798  28.302   3.310   5.741
 5823POPC   C1A74799  28.367   3.817   6.205
 5823POPC   D2A74800  28.029   4.023   6.467
 5823POPC   C3A74801  28.113   3.916   6.900
 5823POPC   C4A74802  28.438   3.726   7.132
 5823POPC   C1B74803  28.230   3.312   6.193
 5823POPC   C2B74804  28.435   3.468   6.599
 5823POPC   C3B74805  28.455   3.242   6.980
 5823POPC   C4B74806  28.379   3.339   7.435
 5824POPC   NC374807  28.265  15.698   5.619
 5824POPC   PO474808  28.661  16.259   5.412
 5824POPC   GL174809  28.493  16.076   5.823
 5824POPC   GL274810  28.703  15.765   5.854
 5824POPC   C1A74811  28.183  15.896   6.222
 5824POPC   D2A74812  27.997  15.818   6.686
 5824POPC   C3A74813  28.078  16.101   7.020
 5824POPC   C4A74814  28.337  15.948   7.350
 5824POPC   C1B74815  28.683  15.960   6.264
 5824POPC   C2B74816  28.514  15.749   6.653
 5824POPC   C3B74817  28.711  15.711   7.052
 5824POPC   C4B74818  28.832  15.961   7.383
 5825POPC   NC374819   8.721  13.693   5.508
 5825POPC   PO474820   9.380  13.526   5.358
 5825POPC   GL174821   9.174  13.570   5.775
 5825POPC   GL274822   9.092  13.918   5.819
 5825POPC   C1A74823   8.949  13.562   6.200
 5825POPC   D2A74824   8.705  13.780   6.553
 5825POPC   C3A74825   8.860  13.620   6.960
 5825POPC   C4A74826   8.725  13.240   7.130
 5825POPC   C1B74827   9.375  13.870   6.185
 5825POPC   C2B74828   9.221  13.819   6.618
 5825POPC   C3B74829   9.093  14.095   6.959
 5825POPC   C4B74830   9.397  14.251   7.246
 5826POPC   NC374831  30.805   3.923   5.368
 5826POPC   PO474832  30.662   4.649   5.449
 5826POPC   GL174833  30.759   4.526   5.835
 5826POPC   GL274834  30.809   4.187   5.797
 5826POPC   C1A74835  30.632   4.388   6.246
 5826POPC   D2A74836  30.782   4.554   6.629
 5826POPC   C3A74837  30.663   4.344   7.040
 5826POPC   C4A74838  30.425   4.180   7.417
 5826POPC   C1B74839  31.000   4.030   6.164
 5826POPC   C2B74840  30.853   4.051   6.579
 5826POPC   C3B74841  30.924   3.864   6.939
 5826POPC   C4B74842  30.778   3.828   7.311
 5827POPC   NC374843  37.171  40.908   5.488
 5827POPC   PO474844  37.162  40.257   5.557
 5827POPC   GL174845  37.063  40.623   5.888
 5827POPC   GL274846  36.764  40.849   5.812
 5827POPC   C1A74847  36.822  40.704   6.291
 5827POPC   D2A74848  37.131  40.678   6.573
 5827POPC   C3A74849  37.235  40.957   6.863
 5827POPC   C4A74850  37.150  40.752   7.232
 5827POPC   C1B74851  37.017  41.121   6.105
 5827POPC   C2B74852  36.907  41.176   6.527
 5827POPC   C3B74853  36.720  40.898   6.821
 5827POPC   C4B74854  36.764  41.071   7.192
 5828POPC   NC374855   5.942  18.348   5.397
 5828POPC   PO474856   5.568  18.818   5.707
 5828POPC   GL174857   5.621  18.356   5.817
 5828POPC   GL274858   5.461  17.978   5.848
 5828POPC   C1A74859   5.721  18.283   6.252
 5828POPC   D2A74860   5.843  18.431   6.684
 5828POPC   C3A74861   5.667  18.409   7.117
 5828POPC   C4A74862   5.879  18.325   7.515
 5828POPC   C1B74863   5.775  17.791   6.165
 5828POPC   C2B74864   5.851  17.930   6.611
 5828POPC   C3B74865   5.656  17.886   7.019
 5828POPC   C4B74866   5.440  18.044   7.398
 5829POPC   NC374867  10.648  34.228   5.176
 5829POPC   PO474868  10.727  33.666   5.613
 5829POPC   GL174869  10.448  33.770   5.893
 5829POPC   GL274870  10.386  34.105   5.857
 5829POPC   C1A74871  10.369  33.590   6.275
 5829POPC   D2A74872  10.578  33.549   6.625
 5829POPC   C3A74873  10.332  33.590   6.980
 5829POPC   C4A74874  10.626  33.533   7.296
 5829POPC   C1B74875  10.371  34.110   6.323
 5829POPC   C2B74876  10.471  34.036   6.766
 5829POPC   C3B74877  10.436  34.014   7.228
 5829POPC   C4B74878  10.553  34.023   7.683
 5830POPC   NC374879  37.144  37.779   5.538
 5830POPC   PO474880  36.707  37.746   4.979
 5830POPC   GL174881  36.643  37.664   5.534
 5830POPC   GL274882  36.873  37.472   5.837
 5830POPC   C1A74883  36.668  37.885   6.030
 5830POPC   D2A74884  36.721  37.948   6.538
 5830POPC   C3A74885  36.844  37.763   6.962
 5830POPC   C4A74886  36.816  37.927   7.360
 5830POPC   C1B74887  37.190  37.428   6.192
 5830POPC   C2B74888  37.060  37.495   6.596
 5830POPC   C3B74889  37.280  37.463   6.993
 5830POPC   C4B74890  37.103  37.521   7.427
 5831POPC   NC374891  12.255  16.183   5.511
 5831POPC   PO474892  11.733  15.743   5.519
 5831POPC   GL174893  11.891  15.980   5.856
 5831POPC   GL274894  12.190  15.788   5.872
 5831POPC   C1A74895  11.956  16.080   6.308
 5831POPC   D2A74896  12.072  16.106   6.754
 5831POPC   C3A74897  12.025  15.806   7.102
 5831POPC   C4A74898  12.163  16.086   7.430
 5831POPC   C1B74899  12.289  15.687   6.310
 5831POPC   C2B74900  12.377  15.672   6.764
 5831POPC   C3B74901  12.510  15.874   7.141
 5831POPC   C4B74902  12.466  15.714   7.603
 5832POPC   NC374903  16.978  16.664   5.379
 5832POPC   PO474904  16.580  17.140   5.446
 5832POPC   GL174905  16.800  17.012   5.843
 5832POPC   GL274906  17.073  16.789   5.880
 5832POPC   C1A74907  16.808  16.960   6.304
 5832POPC   D2A74908  16.976  16.981   6.717
 5832POPC   C3A74909  16.606  17.037   6.976
 5832POPC   C4A74910  16.216  16.774   7.038
 5832POPC   C1B74911  17.219  16.648   6.294
 5832POPC   C2B74912  17.194  16.522   6.759
 5832POPC   C3B74913  17.109  16.724   7.177
 5832POPC   C4B74914  17.104  16.733   7.653
 5833POPC   NC374915   9.249   2.311   5.355
 5833POPC   PO474916   8.889   1.659   5.474
 5833POPC   GL174917   8.910   1.906   5.825
 5833POPC   GL274918   9.214   2.035   5.772
 5833POPC   C1A74919   8.688   2.027   6.208
 5833POPC   D2A74920   8.813   2.086   6.627
 5833POPC   C3A74921   8.776   1.912   7.058
 5833POPC   C4A74922   9.011   1.699   7.398
 5833POPC   C1B74923   9.359   1.743   6.057
 5833POPC   C2B74924   9.241   1.869   6.445
 5833POPC   C3B74925   9.272   1.894   6.886
 5833POPC   C4B74926   9.229   2.180   7.218
 5834POPC   NC374927  36.584  21.783   5.577
 5834POPC   PO474928  37.055  21.561   5.099
 5834POPC   GL174929  37.017  21.380   5.568
 5834POPC   GL274930  37.000  21.635   5.829
 5834POPC   C1A74931  37.009  21.168   6.013
 5834POPC   D2A74932  37.106  21.347   6.449
 5834POPC   C3A74933  37.058  21.202   6.855
 5834POPC   C4A74934  37.117  21.362   7.266
 5834POPC   C1B74935  36.705  21.549   6.217
 5834POPC   C2B74936  36.599  21.316   6.632
 5834POPC   C3B74937  36.620  21.235   7.110
 5834POPC   C4B74938  36.381  21.292   7.480
 5835POPC   NC374939  41.183  36.335   5.434
 5835POPC   PO474940  40.499  36.116   5.344
 5835POPC   GL174941  40.651  36.185   5.775
 5835POPC   GL274942  40.837  36.526   5.789
 5835POPC   C1A74943  40.537  35.926   6.163
 5835POPC   D2A74944  40.693  35.768   6.571
 5835POPC   C3A74945  40.602  36.051   6.912
 5835POPC   C4A74946  40.842  36.136   7.292
 5835POPC   C1B74947  41.097  36.375   6.139
 5835POPC   C2B74948  40.937  36.304   6.553
 5835POPC   C3B74949  41.175  36.267   6.934
 5835POPC   C4B74950  41.238  36.458   7.361
 5836POPC   NC374951  38.309  39.105   5.281
 5836POPC   PO474952  38.879  39.116   5.575
 5836POPC   GL174953  38.580  39.155   5.897
 5836POPC   GL274954  38.230  39.150   5.779
 5836POPC   C1A74955  38.414  39.385   6.243
 5836POPC   D2A74956  38.367  39.360   6.673
 5836POPC   C3A74957  38.647  39.116   6.881
 5836POPC   C4A74958  38.797  39.012   7.254
 5836POPC   C1B74959  38.113  38.941   6.143
 5836POPC   C2B74960  38.009  39.028   6.577
 5836POPC   C3B74961  38.112  39.052   7.029
 5836POPC   C4B74962  38.359  39.293   7.270
 5837POPC   NC374963   7.884  18.690   5.537
 5837POPC   PO474964   7.276  18.339   5.462
 5837POPC   GL174965   7.393  18.191   5.836
 5837POPC   GL274966   7.730  18.069   5.856
 5837POPC   C1A74967   7.260  18.345   6.216
 5837POPC   D2A74968   7.397  18.423   6.615
 5837POPC   C3A74969   7.137  18.220   6.893
 5837POPC   C4A74970   7.245  18.284   7.295
 5837POPC   C1B74971   7.774  18.310   6.224
 5837POPC   C2B74972   7.775  18.079   6.607
 5837POPC   C3B74973   7.571  17.993   6.999
 5837POPC   C4B74974   7.621  17.955   7.461
 5838POPC   NC374975  38.428  10.137   5.044
 5838POPC   PO474976  38.120   9.675   5.438
 5838POPC   GL174977  38.173   9.479   5.793
 5838POPC   GL274978  38.438   9.751   5.881
 5838POPC   C1A74979  38.183   9.452   6.222
 5838POPC   D2A74980  38.310   9.760   6.474
 5838POPC   C3A74981  38.306   9.647   6.874
 5838POPC   C4A74982  38.195   9.374   7.207
 5838POPC   C1B74983  38.747   9.840   6.210
 5838POPC   C2B74984  38.798   9.721   6.641
 5838POPC   C3B74985  38.746   9.771   7.090
 5838POPC   C4B74986  38.452   9.752   7.411
 5839POPC   NC374987  24.354  32.421   5.242
 5839POPC   PO474988  24.940  32.781   5.207
 5839POPC   GL174989  24.723  32.488   5.590
 5839POPC   GL274990  24.518  32.152   5.660
 5839POPC   C1A74991  24.396  32.535   5.980
 5839POPC   D2A74992  24.183  32.304   6.327
 5839POPC   C3A74993  24.286  32.336   6.765
 5839POPC   C4A74994  24.327  32.644   7.061
 5839POPC   C1B74995  24.761  32.172   6.085
 5839POPC   C2B74996  24.747  32.161   6.584
 5839POPC   C3B74997  24.720  32.243   7.076
 5839POPC   C4B74998  24.656  31.993   7.489
 5840POPC   NC374999  33.455   9.323   5.572
 5840POPC   PO475000  33.817   8.722   5.436
 5840POPC   GL175001  33.859   8.991   5.756
 5840POPC   GL275002  33.568   8.960   5.950
 5840POPC   C1A75003  34.023   8.916   6.167
 5840POPC   D2A75004  33.763   8.933   6.518
 5840POPC   C3A75005  34.001   8.910   6.886
 5840POPC   C4A75006  33.868   8.802   7.293
 5840POPC   C1B75007  33.325   9.161   6.247
 5840POPC   C2B75008  33.448   9.342   6.606
 5840POPC   C3B75009  33.576   9.188   6.985
 5840POPC   C4B75010  33.618   9.232   7.406
 5841POPC   NC375011  28.957  31.121   5.287
 5841POPC   PO475012  29.275  31.715   5.440
 5841POPC   GL175013  29.092  31.427   5.693
 5841POPC   GL275014  29.424  31.261   5.711
 5841POPC   C1A75015  28.997  31.468   6.098
 5841POPC   D2A75016  29.121  31.575   6.488
 5841POPC   C3A75017  28.961  31.388   6.840
 5841POPC   C4A75018  29.072  31.565   7.212
 5841POPC   C1B75019  29.509  31.422   6.117
 5841POPC   C2B75020  29.523  31.254   6.535
 5841POPC   C3B75021  29.455  31.361   6.960
 5841POPC   C4B75022  29.584  31.683   7.283
 5842POPC   NC375023   6.851  14.772   5.636
 5842POPC   PO475024   6.720  15.193   5.160
 5842POPC   GL175025   6.908  15.274   5.674
 5842POPC   GL275026   6.697  15.417   5.932
 5842POPC   C1A75027   7.002  15.118   6.180
 5842POPC   D2A75028   6.791  15.175   6.605
 5842POPC   C3A75029   6.935  14.971   6.985
 5842POPC   C4A75030   6.814  15.120   7.372
 5842POPC   C1B75031   6.435  15.141   6.230
 5842POPC   C2B75032   6.337  14.920   6.628
 5842POPC   C3B75033   6.384  14.963   7.086
 5842POPC   C4B75034   6.215  14.812   7.494
 5843POPC   NC375035  42.019  21.594   5.541
 5843POPC   PO475036  42.283  22.255   5.547
 5843POPC   GL175037  42.405  22.166   5.935
 5843POPC   GL275038  42.560  21.835   5.998
 5843POPC   C1A75039  42.266  22.391   6.291
 5843POPC   D2A75040  42.103  22.565   6.664
 5843POPC   C3A75041  42.194  22.313   7.033
 5843POPC   C4A75042  42.428  22.014   7.238
 5843POPC   C1B75043  42.361  21.895   6.382
 5843POPC   C2B75044  42.160  21.851   6.776
 5843POPC   C3B75045  42.096  21.645   7.175
 5843POPC   C4B75046  42.106  21.760   7.611
 5844POPC   NC375047  24.516  16.963   5.623
 5844POPC   PO475048  24.618  16.283   5.775
 5844POPC   GL175049  24.570  16.652   6.031
 5844POPC   GL275050  24.231  16.714   6.075
 5844POPC   C1A75051  24.785  16.945   6.331
 5844POPC   D2A75052  24.802  17.046   6.774
 5844POPC   C3A75053  24.514  16.809   7.043
 5844POPC   C4A75054  24.795  16.628   7.331
 5844POPC   C1B75055  24.328  17.123   6.246
 5844POPC   C2B75056  24.313  17.144   6.691
 5844POPC   C3B75057  24.065  17.134   7.071
 5844POPC   C4B75058  24.125  17.047   7.531
 5845POPC   NC375059  20.997  11.703   5.447
 5845POPC   PO475060  20.304  11.513   5.341
 5845POPC   GL175061  20.431  11.482   5.789
 5845POPC   GL275062  20.727  11.684   5.891
 5845POPC   C1A75063  20.503  11.323   6.227
 5845POPC   D2A75064  20.735  11.213   6.625
 5845POPC   C3A75065  20.475  11.182   7.000
 5845POPC   C4A75066  20.370  10.817   7.272
 5845POPC   C1B75067  20.949  11.563   6.295
 5845POPC   C2B75068  21.029  11.662   6.717
 5845POPC   C3B75069  20.937  11.437   7.099
 5845POPC   C4B75070  20.768  11.117   7.410
 5846POPC   NC375071  31.422  19.547   5.459
 5846POPC   PO475072  31.420  20.201   5.373
 5846POPC   GL175073  31.415  19.976   5.738
 5846POPC   GL275074  31.099  19.798   5.861
 5846POPC   C1A75075  31.588  19.774   6.078
 5846POPC   D2A75076  31.409  19.756   6.463
 5846POPC   C3A75077  31.596  19.894   6.848
 5846POPC   C4A75078  31.751  19.911   7.245
 5846POPC   C1B75079  31.172  19.426   6.139
 5846POPC   C2B75080  31.204  19.308   6.600
 5846POPC   C3B75081  31.126  19.666   6.870
 5846POPC   C4B75082  31.262  19.827   7.244
 5847POPC   NC375083  35.663   5.298   5.422
 5847POPC   PO475084  36.290   5.109   5.537
 5847POPC   GL175085  35.904   5.046   5.793
 5847POPC   GL275086  36.068   4.838   6.036
 5847POPC   C1A75087  35.647   5.113   6.165
 5847POPC   D2A75088  35.850   4.979   6.534
 5847POPC   C3A75089  35.883   4.979   6.974
 5847POPC   C4A75090  36.333   4.922   7.088
 5847POPC   C1B75091  36.157   5.260   6.210
 5847POPC   C2B75092  36.182   5.390   6.639
 5847POPC   C3B75093  36.144   5.450   7.076
 5847POPC   C4B75094  36.299   5.294   7.458
 5848POPC   NC375095  29.554  42.805   5.372
 5848POPC   PO475096  29.146  42.305   5.368
 5848POPC   GL175097  29.045  42.209   5.808
 5848POPC   GL275098  28.692  42.288   5.831
 5848POPC   C1A75099  29.198  42.222   6.260
 5848POPC   D2A75100  29.137  42.273   6.714
 5848POPC   C3A75101  29.374  42.421   7.092
 5848POPC   C4A75102  29.487  42.367   7.546
 5848POPC   C1B75103  28.749  42.461   6.252
 5848POPC   C2B75104  28.623  42.270   6.634
 5848POPC   C3B75105  28.758  42.260   7.049
 5848POPC   C4B75106  28.997  42.231   7.422
 5849POPC   NC375107  34.154  29.686   5.204
 5849POPC   PO475108  34.666  30.173   5.387
 5849POPC   GL175109  34.527  29.980   5.791
 5849POPC   GL275110  34.291  29.699   5.735
 5849POPC   C1A75111  34.444  30.104   6.229
 5849POPC   D2A75112  34.350  30.278   6.634
 5849POPC   C3A75113  34.610  30.176   6.981
 5849POPC   C4A75114  34.430  30.072   7.374
 5849POPC   C1B75115  34.476  29.600   6.160
 5849POPC   C2B75116  34.630  29.519   6.583
 5849POPC   C3B75117  34.407  29.702   6.949
 5849POPC   C4B75118  34.192  29.417   7.215
 5850POPC   NC375119  28.266   5.908   5.529
 5850POPC   PO475120  28.762   5.488   5.252
 5850POPC   GL175121  28.649   5.624   5.671
 5850POPC   GL275122  28.722   5.994   5.716
 5850POPC   C1A75123  28.519   5.549   6.093
 5850POPC   D2A75124  28.441   5.705   6.512
 5850POPC   C3A75125  28.202   5.552   6.858
 5850POPC   C4A75126  28.419   5.721   7.237
 5850POPC   C1B75127  28.590   6.077   6.156
 5850POPC   C2B75128  28.255   6.173   6.450
 5850POPC   C3B75129  28.231   6.067   6.899
 5850POPC   C4B75130  28.261   6.232   7.297
 5851POPC   NC375131  29.335  23.499   5.434
 5851POPC   PO475132  29.567  24.060   5.750
 5851POPC   GL175133  29.201  23.806   5.835
 5851POPC   GL275134  28.856  23.917   5.775
 5851POPC   C1A75135  29.090  23.693   6.227
 5851POPC   D2A75136  29.374  23.675   6.535
 5851POPC   C3A75137  29.154  23.582   6.893
 5851POPC   C4A75138  29.187  23.637   7.317
 5851POPC   C1B75139  28.842  24.130   6.206
 5851POPC   C2B75140  28.927  23.993   6.649
 5851POPC   C3B75141  29.023  24.116   7.069
 5851POPC   C4B75142  28.848  24.211   7.451
 5852POPC   NC375143  10.713  26.316   5.141
 5852POPC   PO475144  10.596  27.090   5.203
 5852POPC   GL175145  10.575  26.726   5.566
 5852POPC   GL275146  10.865  26.546   5.743
 5852POPC   C1A75147  10.443  26.689   6.033
 5852POPC   D2A75148  10.315  26.910   6.450
 5852POPC   C3A75149  10.425  26.737   6.860
 5852POPC   C4A75150  10.363  26.740   7.323
 5852POPC   C1B75151  10.976  26.719   6.179
 5852POPC   C2B75152  10.916  26.676   6.658
 5852POPC   C3B75153  10.855  26.652   7.119
 5852POPC   C4B75154  10.860  26.709   7.583
 5853POPC   NC375155  16.148   0.158   5.455
 5853POPC   PO475156  15.729   0.559   5.428
 5853POPC   GL175157  15.974   0.620   5.815
 5853POPC   GL275158  15.685   0.813   5.907
 5853POPC   C1A75159  16.204   0.674   6.242
 5853POPC   D2A75160  16.094   0.741   6.693
 5853POPC   C3A75161  16.174   0.375   7.005
 5853POPC   C4A75162  15.954   0.070   7.287
 5853POPC   C1B75163  15.697   0.672   6.338
 5853POPC   C2B75164  15.592   0.713   6.781
 5853POPC   C3B75165  15.714   0.541   7.183
 5853POPC   C4B75166  15.559   0.299   7.555
 5854POPC   NC375167  26.525   1.961   5.583
 5854POPC   PO475168  26.982   2.306   5.227
 5854POPC   GL175169  27.020   2.178   5.667
 5854POPC   GL275170  26.975   2.445   5.949
 5854POPC   C1A75171  27.081   1.972   6.067
 5854POPC   D2A75172  27.127   2.168   6.485
 5854POPC   C3A75173  26.860   2.060   6.823
 5854POPC   C4A75174  26.949   1.766   7.186
 5854POPC   C1B75175  26.676   2.244   6.217
 5854POPC   C2B75176  26.549   2.387   6.576
 5854POPC   C3B75177  26.372   2.303   6.969
 5854POPC   C4B75178  26.492   1.953   7.212
 5855POPC   NC375179   8.337  33.361   5.548
 5855POPC   PO475180   8.235  33.874   5.096
 5855POPC   GL175181   8.193  33.891   5.576
 5855POPC   GL275182   8.453  34.100   5.741
 5855POPC   C1A75183   8.067  33.725   6.022
 5855POPC   D2A75184   8.246  33.570   6.446
 5855POPC   C3A75185   8.242  33.840   6.803
 5855POPC   C4A75186   8.151  33.816   7.236
 5855POPC   C1B75187   8.504  33.940   6.179
 5855POPC   C2B75188   8.731  33.881   6.573
 5855POPC   C3B75189   8.724  34.209   6.869
 5855POPC   C4B75190   8.399  34.257   7.183
 5856POPC   NC375191   9.283   3.584   5.395
 5856POPC   PO475192   9.976   3.642   5.335
 5856POPC   GL175193   9.874   3.728   5.760
 5856POPC   GL275194   9.612   3.469   5.785
 5856POPC   C1A75195  10.030   3.542   6.181
 5856POPC   D2A75196  10.197   3.495   6.614
 5856POPC   C3A75197   9.935   3.463   6.965
 5856POPC   C4A75198   9.674   3.754   7.189
 5856POPC   C1B75199   9.548   3.698   6.167
 5856POPC   C2B75200   9.573   3.556   6.613
 5856POPC   C3B75201   9.412   3.367   7.016
 5856POPC   C4B75202   9.490   3.362   7.508
 5857POPC   NC375203   4.090  38.954   5.571
 5857POPC   PO475204   3.440  39.019   5.297
 5857POPC   GL175205   3.451  39.211   5.720
 5857POPC   GL275206   3.790  39.273   5.847
 5857POPC   C1A75207   3.229  39.268   6.128
 5857POPC   D2A75208   3.242  39.511   6.529
 5857POPC   C3A75209   3.318  39.308   6.892
 5857POPC   C4A75210   3.366  39.078   7.277
 5857POPC   C1B75211   3.687  39.466   6.252
 5857POPC   C2B75212   3.795  39.435   6.716
 5857POPC   C3B75213   3.850  39.386   7.152
 5857POPC   C4B75214   3.920  39.022   7.355
 5858POPC   NC375215  26.704  40.332   5.388
 5858POPC   PO475216  26.624  39.687   5.390
 5858POPC   GL175217  26.639  39.862   5.808
 5858POPC   GL275218  26.978  39.775   5.780
 5858POPC   C1A75219  26.765  40.043   6.271
 5858POPC   D2A75220  27.027  40.180   6.648
 5858POPC   C3A75221  26.842  40.161   7.050
 5858POPC   C4A75222  26.465  39.986   7.101
 5858POPC   C1B75223  26.872  39.562   6.168
 5858POPC   C2B75224  26.985  39.652   6.609
 5858POPC   C3B75225  26.814  39.619   7.017
 5858POPC   C4B75226  26.937  39.736   7.426
 5859POPC   NC375227  34.054   9.533   5.031
 5859POPC   PO475228  33.471   9.723   5.307
 5859POPC   GL175229  33.713   9.960   5.631
 5859POPC   GL275230  33.849   9.640   5.791
 5859POPC   C1A75231  33.646  10.034   6.091
 5859POPC   D2A75232  33.670   9.802   6.478
 5859POPC   C3A75233  33.837   9.973   6.856
 5859POPC   C4A75234  33.664   9.809   7.218
 5859POPC   C1B75235  33.797   9.387   6.185
 5859POPC   C2B75236  33.970   9.399   6.614
 5859POPC   C3B75237  34.019   9.489   7.035
 5859POPC   C4B75238  34.021   9.525   7.477
 5860POPC   NC375239  41.395  34.768   5.442
 5860POPC   PO475240  41.717  34.272   5.122
 5860POPC   GL175241  41.778  34.170   5.654
 5860POPC   GL275242  41.659  34.493   5.781
 5860POPC   C1A75243  41.855  34.244   6.166
 5860POPC   D2A75244  41.535  34.458   6.477
 5860POPC   C3A75245  41.587  34.599   6.923
 5860POPC   C4A75246  41.400  34.366   7.248
 5860POPC   C1B75247  41.644  34.822   6.118
 5860POPC   C2B75248  41.476  34.979   6.523
 5860POPC   C3B75249  41.147  34.895   6.804
 5860POPC   C4B75250  41.145  34.811   7.232
 5861POPC   NC375251  38.004  11.792   5.390
 5861POPC   PO475252  37.318  12.038   5.470
 5861POPC   GL175253  37.723  12.051   5.740
 5861POPC   GL275254  37.768  11.704   5.833
 5861POPC   C1A75255  37.888  12.258   6.131
 5861POPC   D2A75256  37.637  12.358   6.488
 5861POPC   C3A75257  37.660  12.043   6.726
 5861POPC   C4A75258  37.811  12.046   7.073
 5861POPC   C1B75259  37.560  11.859   6.206
 5861POPC   C2B75260  37.278  11.788   6.537
 5861POPC   C3B75261  37.273  11.851   7.015
 5861POPC   C4B75262  37.359  11.638   7.396
 5862POPC   NC375263  16.629   8.218   5.473
 5862POPC   PO475264  16.510   8.707   5.747
 5862POPC   GL175265  16.740   8.397   5.967
 5862POPC   GL275266  16.486   8.142   5.996
 5862POPC   C1A75267  16.772   8.237   6.405
 5862POPC   D2A75268  16.506   8.240   6.776
 5862POPC   C3A75269  16.723   8.101   7.133
 5862POPC   C4A75270  17.010   8.273   7.419
 5862POPC   C1B75271  16.319   8.460   6.317
 5862POPC   C2B75272  16.333   8.716   6.676
 5862POPC   C3B75273  16.504   8.626   7.118
 5862POPC   C4B75274  16.487   8.598   7.591
 5863POPC   NC375275   7.027  15.558   5.269
 5863POPC   PO475276   7.326  14.942   5.499
 5863POPC   GL175277   7.417  15.190   5.834
 5863POPC   GL275278   7.420  15.493   5.665
 5863POPC   C1A75279   7.543  15.146   6.257
 5863POPC   D2A75280   7.303  15.076   6.632
 5863POPC   C3A75281   7.484  15.008   7.045
 5863POPC   C4A75282   7.383  14.936   7.491
 5863POPC   C1B75283   7.204  15.580   6.078
 5863POPC   C2B75284   7.019  15.619   6.525
 5863POPC   C3B75285   6.956  15.531   6.987
 5863POPC   C4B75286   7.252  15.428   7.321
 5864POPC   NC375287  11.854  19.388   5.393
 5864POPC   PO475288  12.323  18.932   5.501
 5864POPC   GL175289  12.208  19.237   5.778
 5864POPC   GL275290  11.850  19.121   5.824
 5864POPC   C1A75291  12.232  19.093   6.192
 5864POPC   D2A75292  12.186  18.764   6.494
 5864POPC   C3A75293  12.135  18.992   6.880
 5864POPC   C4A75294  12.017  18.853   7.282
 5864POPC   C1B75295  11.777  19.354   6.201
 5864POPC   C2B75296  11.694  19.386   6.651
 5864POPC   C3B75297  11.868  19.377   7.077
 5864POPC   C4B75298  11.694  19.208   7.458
 5865POPC   NC375299  29.265  12.302   5.635
 5865POPC   PO475300  29.195  11.946   5.069
 5865POPC   GL175301  29.109  11.831   5.593
 5865POPC   GL275302  28.866  11.617   5.735
 5865POPC   C1A75303  29.187  11.863   6.085
 5865POPC   D2A75304  28.930  12.146   6.346
 5865POPC   C3A75305  28.979  12.173   6.795
 5865POPC   C4A75306  29.149  12.185   7.209
 5865POPC   C1B75307  28.786  11.568   6.200
 5865POPC   C2B75308  28.867  11.702   6.619
 5865POPC   C3B75309  29.113  11.722   7.007
 5865POPC   C4B75310  29.017  11.637   7.446
 5866POPC   NC375311   6.511  29.934   5.450
 5866POPC   PO475312   6.014  30.367   5.572
 5866POPC   GL175313   6.329  30.124   5.894
 5866POPC   GL275314   6.384  29.741   5.903
 5866POPC   C1A75315   6.459  30.015   6.340
 5866POPC   D2A75316   6.411  30.093   6.798
 5866POPC   C3A75317   6.740  29.931   7.030
 5866POPC   C4A75318   6.988  30.140   7.296
 5866POPC   C1B75319   6.376  29.509   6.277
 5866POPC   C2B75320   6.491  29.516   6.714
 5866POPC   C3B75321   6.288  29.665   7.071
 5866POPC   C4B75322   6.354  30.004   7.368
 5867POPC   NC375323  32.885   2.387   5.440
 5867POPC   PO475324  32.579   3.002   5.266
 5867POPC   GL175325  32.767   2.970   5.741
 5867POPC   GL275326  33.087   2.773   5.716
 5867POPC   C1A75327  33.030   2.979   6.170
 5867POPC   D2A75328  33.005   2.781   6.584
 5867POPC   C3A75329  33.099   2.963   7.010
 5867POPC   C4A75330  33.164   3.001   7.456
 5867POPC   C1B75331  33.252   2.477   6.044
 5867POPC   C2B75332  33.333   2.386   6.484
 5867POPC   C3B75333  33.225   2.473   6.910
 5867POPC   C4B75334  33.329   2.491   7.305
 5868POPC   NC375335  22.966   9.772   5.328
 5868POPC   PO475336  22.616  10.030   5.516
 5868POPC   GL175337  22.837   9.848   5.902
 5868POPC   GL275338  22.695   9.543   6.041
 5868POPC   C1A75339  22.975   9.859   6.371
 5868POPC   D2A75340  23.184  10.021   6.752
 5868POPC   C3A75341  23.081  10.177   7.162
 5868POPC   C4A75342  23.096  10.031   7.601
 5868POPC   C1B75343  22.582   9.543   6.496
 5868POPC   C2B75344  22.853   9.626   6.819
 5868POPC   C3B75345  22.971   9.670   7.225
 5868POPC   C4B75346  22.886   9.424   7.578
 5869POPC   NC375347  21.566   2.695   5.373
 5869POPC   PO475348  21.238   3.234   5.514
 5869POPC   GL175349  21.302   2.936   5.812
 5869POPC   GL275350  21.655   3.014   5.785
 5869POPC   C1A75351  21.130   2.990   6.243
 5869POPC   D2A75352  21.297   2.930   6.666
 5869POPC   C3A75353  21.151   2.721   7.045
 5869POPC   C4A75354  21.430   2.808   7.397
 5869POPC   C1B75355  21.643   3.017   6.232
 5869POPC   C2B75356  21.765   2.754   6.590
 5869POPC   C3B75357  21.655   2.608   6.974
 5869POPC   C4B75358  21.850   2.517   7.342
 5870POPC   NC375359  30.242  30.180   5.391
 5870POPC   PO475360  30.039  29.508   5.358
 5870POPC   GL175361  30.105  29.718   5.765
 5870POPC   GL275362  29.933  30.048   5.795
 5870POPC   C1A75363  29.962  29.744   6.203
 5870POPC   D2A75364  30.137  29.728   6.592
 5870POPC   C3A75365  30.015  30.024   6.886
 5870POPC   C4A75366  29.956  29.920   7.302
 5870POPC   C1B75367  29.814  30.249   6.187
 5870POPC   C2B75368  29.571  30.206   6.570
 5870POPC   C3B75369  29.526  30.172   6.991
 5870POPC   C4B75370  29.766  30.383   7.255
 5871POPC   NC375371  40.310  27.903   5.425
 5871POPC   PO475372  39.895  27.315   5.569
 5871POPC   GL175373  40.018  27.651   5.836
 5871POPC   GL275374  40.350  27.753   5.916
 5871POPC   C1A75375  39.976  27.710   6.262
 5871POPC   D2A75376  40.302  27.711   6.557
 5871POPC   C3A75377  40.117  27.876   6.902
 5871POPC   C4A75378  39.801  27.686   7.116
 5871POPC   C1B75379  40.350  27.344   6.161
 5871POPC   C2B75380  40.393  27.198   6.601
 5871POPC   C3B75381  40.377  27.404   7.005
 5871POPC   C4B75382  40.250  27.630   7.365
 5872POPC   NC375383  16.741  26.936   5.397
 5872POPC   PO475384  16.924  26.475   5.728
 5872POPC   GL175385  16.776  26.859   5.930
 5872POPC   GL275386  16.467  26.991   5.861
 5872POPC   C1A75387  16.668  27.125   6.307
 5872POPC   D2A75388  16.447  27.026   6.688
 5872POPC   C3A75389  16.715  26.759   6.957
 5872POPC   C4A75390  16.910  26.789   7.346
 5872POPC   C1B75391  16.298  26.748   6.227
 5872POPC   C2B75392  16.064  26.659   6.624
 5872POPC   C3B75393  16.189  26.759   7.052
 5872POPC   C4B75394  16.441  27.094   7.223
 5873POPC   NC375395  24.423  25.229   5.448
 5873POPC   PO475396  25.055  25.168   5.593
 5873POPC   GL175397  24.654  25.079   5.878
 5873POPC   GL275398  24.546  25.432   5.900
 5873POPC   C1A75399  24.414  24.920   6.277
 5873POPC   D2A75400  24.137  25.102   6.630
 5873POPC   C3A75401  24.369  25.116   7.037
 5873POPC   C4A75402  24.310  24.909   7.459
 5873POPC   C1B75403  24.356  25.420   6.268
 5873POPC   C2B75404  24.466  25.499   6.675
 5873POPC   C3B75405  24.471  25.649   7.061
 5873POPC   C4B75406  24.758  25.413   7.250
 5874POPC   NC375407  23.365  17.672   5.362
 5874POPC   PO475408  23.815  17.183   5.201
 5874POPC   GL175409  23.833  17.442   5.616
 5874POPC   GL275410  23.540  17.526   5.814
 5874POPC   C1A75411  23.984  17.555   6.074
 5874POPC   D2A75412  24.145  17.595   6.505
 5874POPC   C3A75413  24.000  17.801   6.896
 5874POPC   C4A75414  24.060  17.592   7.328
 5874POPC   C1B75415  23.502  17.372   6.226
 5874POPC   C2B75416  23.636  17.529   6.622
 5874POPC   C3B75417  23.619  17.530   7.056
 5874POPC   C4B75418  23.376  17.838   7.222
 5875POPC   NC375419  10.168   6.378   5.602
 5875POPC   PO475420  10.492   6.846   5.219
 5875POPC   GL175421  10.417   6.824   5.688
 5875POPC   GL275422  10.705   6.971   5.900
 5875POPC   C1A75423  10.304   6.684   6.128
 5875POPC   D2A75424  10.505   6.897   6.411
 5875POPC   C3A75425  10.467   6.863   6.854
 5875POPC   C4A75426  10.343   6.793   7.269
 5875POPC   C1B75427  10.810   6.564   6.158
 5875POPC   C2B75428  10.693   6.401   6.593
 5875POPC   C3B75429  10.544   6.366   7.043
 5875POPC   C4B75430  10.691   6.491   7.478
 5876POPC   NC375431  15.230  19.652   5.331
 5876POPC   PO475432  14.838  20.173   5.357
 5876POPC   GL175433  14.977  20.168   5.802
 5876POPC   GL275434  15.326  20.048   5.835
 5876POPC   C1A75435  14.907  20.028   6.238
 5876POPC   D2A75436  15.135  20.061   6.643
 5876POPC   C3A75437  14.886  20.062   7.050
 5876POPC   C4A75438  14.751  20.131   7.486
 5876POPC   C1B75439  15.350  19.710   6.158
 5876POPC   C2B75440  15.375  19.601   6.600
 5876POPC   C3B75441  15.124  19.614   6.970
 5876POPC   C4B75442  15.316  19.481   7.326
 5877POPC   NC375443  25.911   6.197   5.367
 5877POPC   PO475444  26.126   6.911   5.489
 5877POPC   GL175445  26.118   6.610   5.814
 5877POPC   GL275446  25.812   6.406   5.863
 5877POPC   C1A75447  26.184   6.811   6.197
 5877POPC   D2A75448  26.102   7.035   6.595
 5877POPC   C3A75449  26.081   6.864   7.012
 5877POPC   C4A75450  26.091   7.059   7.428
 5877POPC   C1B75451  25.758   6.567   6.306
 5877POPC   C2B75452  25.763   6.399   6.694
 5877POPC   C3B75453  25.633   6.584   7.053
 5877POPC   C4B75454  25.839   6.337   7.341
 5878POPC   NC375455   0.114   9.104   5.423
 5878POPC   PO475456   0.699   9.181   5.248
 5878POPC   GL175457   0.519   9.069   5.723
 5878POPC   GL275458   0.241   8.803   5.830
 5878POPC   C1A75459   0.374   9.206   6.166
 5878POPC   D2A75460   0.178   9.143   6.640
 5878POPC   C3A75461   0.460   9.047   7.036
 5878POPC   C4A75462   0.521   9.064   7.516
 5878POPC   C1B75463   0.104   8.789   6.281
 5878POPC   C2B75464   0.213   8.629   6.714
 5878POPC   C3B75465   0.060   8.737   7.130
 5878POPC   C4B75466   0.120   8.711   7.647
 5879POPC   NC375467  29.636   2.683   5.459
 5879POPC   PO475468  29.048   2.968   5.416
 5879POPC   GL175469  29.046   2.790   5.801
 5879POPC   GL275470  28.917   2.488   5.800
 5879POPC   C1A75471  29.060   2.944   6.200
 5879POPC   D2A75472  29.412   3.003   6.471
 5879POPC   C3A75473  29.335   2.765   6.845
 5879POPC   C4A75474  29.225   2.965   7.243
 5879POPC   C1B75475  28.750   2.524   6.233
 5879POPC   C2B75476  28.916   2.512   6.663
 5879POPC   C3B75477  28.963   2.539   7.153
 5879POPC   C4B75478  28.802   2.595   7.606
 5880POPC   NC375479  41.754   1.205   5.361
 5880POPC   PO475480  41.393   0.745   5.479
 5880POPC   GL175481  41.638   0.949   5.817
 5880POPC   GL275482  41.856   1.283   5.860
 5880POPC   C1A75483  41.552   1.137   6.234
 5880POPC   D2A75484  41.445   1.031   6.660
 5880POPC   C3A75485  41.538   1.340   6.944
 5880POPC   C4A75486  41.464   1.122   7.285
 5880POPC   C1B75487  42.022   1.406   6.293
 5880POPC   C2B75488  42.016   1.384   6.765
 5880POPC   C3B75489  41.969   1.460   7.200
 5880POPC   C4B75490  41.785   1.335   7.595
 5881POPC   NC375491  12.666  18.581   5.452
 5881POPC   PO475492  13.128  18.144   5.209
 5881POPC   GL175493  12.839  18.130   5.635
 5881POPC   GL275494  12.679  17.793   5.684
 5881POPC   C1A75495  12.708  18.244   6.094
 5881POPC   D2A75496  12.624  18.466   6.526
 5881POPC   C3A75497  12.903  18.401   6.911
 5881POPC   C4A75498  12.998  18.440   7.372
 5881POPC   C1B75499  12.459  17.773   6.056
 5881POPC   C2B75500  12.524  17.881   6.477
 5881POPC   C3B75501  12.501  18.080   6.857
 5881POPC   C4B75502  12.730  18.040   7.232
 5882POPC   NC375503  30.540  17.284   5.476
 5882POPC   PO475504  30.897  17.877   5.404
 5882POPC   GL175505  30.746  17.691   5.772
 5882POPC   GL275506  30.378  17.710   5.723
 5882POPC   C1A75507  30.742  17.604   6.222
 5882POPC   D2A75508  30.877  17.701   6.649
 5882POPC   C3A75509  30.840  17.344   6.911
 5882POPC   C4A75510  30.728  17.337   7.331
 5882POPC   C1B75511  30.233  17.761   6.133
 5882POPC   C2B75512  30.202  17.624   6.569
 5882POPC   C3B75513  30.374  17.554   6.990
 5882POPC   C4B75514  30.376  17.749   7.423
 5883POPC   NC375515   2.494  36.679   5.476
 5883POPC   PO475516   2.753  37.302   5.555
 5883POPC   GL175517   2.604  37.034   5.848
 5883POPC   GL275518   2.864  36.765   5.849
 5883POPC   C1A75519   2.691  36.957   6.290
 5883POPC   D2A75520   2.464  36.954   6.679
 5883POPC   C3A75521   2.712  37.028   7.034
 5883POPC   C4A75522   2.789  36.808   7.414
 5883POPC   C1B75523   2.967  36.545   6.270
 5883POPC   C2B75524   2.855  36.633   6.704
 5883POPC   C3B75525   3.176  36.822   7.058
 5883POPC   C4B75526   3.285  36.828   7.518
 5884POPC   NC375527  27.384  16.147   5.468
 5884POPC   PO475528  27.856  15.667   5.430
 5884POPC   GL175529  27.730  15.844   5.858
 5884POPC   GL275530  27.435  16.087   5.956
 5884POPC   C1A75531  27.673  15.838   6.315
 5884POPC   D2A75532  27.451  15.856   6.710
 5884POPC   C3A75533  27.576  16.063   7.095
 5884POPC   C4A75534  27.523  16.358   7.440
 5884POPC   C1B75535  27.229  16.137   6.343
 5884POPC   C2B75536  27.038  16.139   6.752
 5884POPC   C3B75537  27.079  16.151   7.179
 5884POPC   C4B75538  27.144  16.095   7.646
 5885POPC   NC375539  44.463  32.709   5.591
 5885POPC   PO475540  44.752  32.149   5.310
 5885POPC   GL175541  44.758  32.081   5.747
 5885POPC   GL275542  44.528  32.296   5.861
 5885POPC   C1A75543  44.812  32.059   6.219
 5885POPC   D2A75544  44.942  32.296   6.599
 5885POPC   C3A75545  44.982  32.269   7.042
 5885POPC   C4A75546  44.907  32.181   7.489
 5885POPC   C1B75547  44.525  32.477   6.269
 5885POPC   C2B75548  44.428  32.206   6.601
 5885POPC   C3B75549  44.494  32.157   7.035
 5885POPC   C4B75550  44.426  32.031   7.426
 5886POPC   NC375551  39.126  36.559   5.479
 5886POPC   PO475552  39.000  37.220   5.394
 5886POPC   GL175553  39.187  37.001   5.788
 5886POPC   GL275554  39.471  36.730   5.809
 5886POPC   C1A75555  39.281  36.959   6.242
 5886POPC   D2A75556  39.210  37.136   6.648
 5886POPC   C3A75557  39.134  36.879   7.016
 5886POPC   C4A75558  38.915  36.989   7.388
 5886POPC   C1B75559  39.618  36.562   6.216
 5886POPC   C2B75560  39.366  36.625   6.617
 5886POPC   C3B75561  39.582  36.650   6.967
 5886POPC   C4B75562  39.671  36.445   7.297
 5887POPC   NC375563  41.592  17.034   4.979
 5887POPC   PO475564  41.333  16.683   5.300
 5887POPC   GL175565  41.389  16.708   5.782
 5887POPC   GL275566  41.664  16.928   5.880
 5887POPC   C1A75567  41.376  16.556   6.253
 5887POPC   D2A75568  41.676  16.320   6.555
 5887POPC   C3A75569  41.603  16.450   7.001
 5887POPC   C4A75570  41.227  16.593   7.191
 5887POPC   C1B75571  41.846  16.734   6.253
 5887POPC   C2B75572  41.748  16.823   6.686
 5887POPC   C3B75573  41.614  16.975   7.112
 5887POPC   C4B75574  41.789  17.198   7.493
 5888POPC   NC375575  22.735  39.956   5.501
 5888POPC   PO475576  23.201  39.549   5.620
 5888POPC   GL175577  22.967  39.775   5.928
 5888POPC   GL275578  22.952  40.173   5.914
 5888POPC   C1A75579  22.895  39.886   6.332
 5888POPC   D2A75580  22.926  40.119   6.686
 5888POPC   C3A75581  22.902  39.900   7.023
 5888POPC   C4A75582  22.864  39.874   7.444
 5888POPC   C1B75583  23.056  40.426   6.297
 5888POPC   C2B75584  23.194  40.543   6.733
 5888POPC   C3B75585  23.088  40.370   7.152
 5888POPC   C4B75586  23.081  40.303   7.600
 5889POPC   NC375587   2.522  27.055   5.611
 5889POPC   PO475588   2.087  26.582   5.367
 5889POPC   GL175589   2.041  26.867   5.732
 5889POPC   GL275590   2.273  26.718   5.916
 5889POPC   C1A75591   1.825  27.005   6.146
 5889POPC   D2A75592   1.499  26.995   6.527
 5889POPC   C3A75593   1.769  26.978   6.920
 5889POPC   C4A75594   1.923  26.622   7.123
 5889POPC   C1B75595   2.341  26.485   6.296
 5889POPC   C2B75596   2.283  26.584   6.756
 5889POPC   C3B75597   2.389  26.822   7.156
 5889POPC   C4B75598   2.431  27.279   7.212
 5890POPC   NC375599  14.683   9.718   5.595
 5890POPC   PO475600  14.243  10.195   5.544
 5890POPC   GL175601  14.304   9.872   5.886
 5890POPC   GL275602  14.137   9.512   5.802
 5890POPC   C1A75603  14.576   9.836   6.255
 5890POPC   D2A75604  14.483   9.764   6.677
 5890POPC   C3A75605  14.514   9.970   7.114
 5890POPC   C4A75606  14.649   9.875   7.591
 5890POPC   C1B75607  14.277   9.418   6.241
 5890POPC   C2B75608  14.578   9.269   6.554
 5890POPC   C3B75609  14.674   9.430   6.994
 5890POPC   C4B75610  14.356   9.523   7.314
 5891POPC   NC375611   5.857  22.486   5.129
 5891POPC   PO475612   5.760  21.883   5.442
 5891POPC   GL175613   5.842  22.030   5.841
 5891POPC   GL275614   5.812  21.680   5.935
 5891POPC   C1A75615   5.858  22.366   6.134
 5891POPC   D2A75616   5.948  22.367   6.552
 5891POPC   C3A75617   5.679  22.384   6.900
 5891POPC   C4A75618   5.954  22.549   7.170
 5891POPC   C1B75619   5.767  21.892   6.320
 5891POPC   C2B75620   5.973  21.881   6.691
 5891POPC   C3B75621   5.799  21.920   7.068
 5891POPC   C4B75622   5.705  21.824   7.492
 5892POPC   NC375623  16.119  40.219   5.406
 5892POPC   PO475624  15.675  39.733   5.405
 5892POPC   GL175625  15.817  39.957   5.781
 5892POPC   GL275626  16.087  39.770   5.844
 5892POPC   C1A75627  15.922  40.113   6.241
 5892POPC   D2A75628  16.059  39.967   6.682
 5892POPC   C3A75629  16.005  40.220   7.087
 5892POPC   C4A75630  15.706  40.412   7.419
 5892POPC   C1B75631  15.776  39.634   6.203
 5892POPC   C2B75632  15.886  39.492   6.612
 5892POPC   C3B75633  15.919  39.653   7.076
 5892POPC   C4B75634  16.140  39.872   7.432
 5893POPC   NC375635  43.862  35.043   5.269
 5893POPC   PO475636  44.031  35.539   5.739
 5893POPC   GL175637  43.900  35.179   5.943
 5893POPC   GL275638  43.588  35.054   5.801
 5893POPC   C1A75639  44.055  35.190   6.334
 5893POPC   D2A75640  44.130  35.419   6.636
 5893POPC   C3A75641  44.006  35.236   6.958
 5893POPC   C4A75642  44.032  35.423   7.351
 5893POPC   C1B75643  43.485  35.198   6.254
 5893POPC   C2B75644  43.590  35.360   6.678
 5893POPC   C3B75645  43.693  35.651   7.033
 5893POPC   C4B75646  43.585  35.655   7.475
 5894POPC   NC375647  37.089  44.358   5.454
 5894POPC   PO475648  36.761   0.000   5.492
 5894POPC   GL175649  36.985  44.733   5.830
 5894POPC   GL275650  36.858  44.397   5.908
 5894POPC   C1A75651  37.046  44.653   6.303
 5894POPC   D2A75652  36.995  44.884   6.697
 5894POPC   C3A75653  36.822  44.719   7.081
 5894POPC   C4A75654  37.023  44.443   7.345
 5894POPC   C1B75655  36.532  44.466   6.229
 5894POPC   C2B75656  36.583  44.534   6.652
 5894POPC   C3B75657  36.755  44.231   6.924
 5894POPC   C4B75658  36.595  44.156   7.311
 5895POPC   NC375659   1.975  10.694   5.479
 5895POPC   PO475660   1.896  10.033   5.330
 5895POPC   GL175661   1.896  10.289   5.763
 5895POPC   GL275662   2.236  10.463   5.897
 5895POPC   C1A75663   1.826  10.505   6.183
 5895POPC   D2A75664   1.926  10.621   6.599
 5895POPC   C3A75665   1.841  10.339   6.944
 5895POPC   C4A75666   1.999  10.316   7.369
 5895POPC   C1B75667   2.354  10.786   6.261
 5895POPC   C2B75668   2.225  11.009   6.676
 5895POPC   C3B75669   2.132  10.778   7.078
 5895POPC   C4B75670   2.406  10.627   7.428
 5896POPC   NC375671  13.483  31.910   5.312
 5896POPC   PO475672  13.904  32.353   5.451
 5896POPC   GL175673  13.824  32.296   5.883
 5896POPC   GL275674  13.533  32.087   5.873
 5896POPC   C1A75675  13.686  32.340   6.314
 5896POPC   D2A75676  13.587  32.669   6.612
 5896POPC   C3A75677  13.606  32.594   7.026
 5896POPC   C4A75678  13.964  32.551   7.249
 5896POPC   C1B75679  13.308  31.994   6.263
 5896POPC   C2B75680  13.459  32.063   6.680
 5896POPC   C3B75681  13.609  32.095   7.106
 5896POPC   C4B75682  13.910  32.100   7.471
 5897POPC   NC375683  42.841  35.673   5.100
 5897POPC   PO475684  43.171  35.190   5.365
 5897POPC   GL175685  43.089  35.430   5.744
 5897POPC   GL275686  43.417  35.537   5.881
 5897POPC   C1A75687  42.991  35.329   6.182
 5897POPC   D2A75688  42.976  35.035   6.537
 5897POPC   C3A75689  42.780  35.210   6.920
 5897POPC   C4A75690  42.752  35.310   7.358
 5897POPC   C1B75691  43.374  35.752   6.294
 5897POPC   C2B75692  43.279  35.776   6.747
 5897POPC   C3B75693  43.241  35.447   7.092
 5897POPC   C4B75694  43.583  35.178   7.210
 5898POPC   NC375695   1.690  31.430   5.716
 5898POPC   PO475696   1.145  31.369   5.254
 5898POPC   GL175697   1.135  31.257   5.714
 5898POPC   GL275698   1.116  31.612   5.836
 5898POPC   C1A75699   1.189  31.261   6.182
 5898POPC   D2A75700   0.967  31.354   6.573
 5898POPC   C3A75701   1.154  31.400   6.958
 5898POPC   C4A75702   1.299  31.324   7.359
 5898POPC   C1B75703   1.396  31.711   6.227
 5898POPC   C2B75704   1.525  31.514   6.615
 5898POPC   C3B75705   1.561  31.709   7.042
 5898POPC   C4B75706   1.482  31.809   7.482
 5899POPC   NC375707  25.343  14.780   5.364
 5899POPC   PO475708  24.986  14.119   5.378
 5899POPC   GL175709  25.162  14.357   5.708
 5899POPC   GL275710  25.492  14.228   5.741
 5899POPC   C1A75711  25.079  14.250   6.158
 5899POPC   D2A75712  25.273  14.343   6.544
 5899POPC   C3A75713  25.040  14.378   6.922
 5899POPC   C4A75714  25.099  14.388   7.340
 5899POPC   C1B75715  25.504  14.566   6.090
 5899POPC   C2B75716  25.574  14.759   6.521
 5899POPC   C3B75717  25.510  14.617   6.956
 5899POPC   C4B75718  25.584  14.766   7.380
 5900POPC   NC375719  24.163  30.346   5.490
 5900POPC   PO475720  24.499  30.987   5.399
 5900POPC   GL175721  24.414  30.728   5.737
 5900POPC   GL275722  24.349  30.944   5.975
 5900POPC   C1A75723  24.497  30.479   6.113
 5900POPC   D2A75724  24.847  30.443   6.389
 5900POPC   C3A75725  24.817  30.413   6.835
 5900POPC   C4A75726  24.634  30.479   7.222
 5900POPC   C1B75727  24.582  30.926   6.334
 5900POPC   C2B75728  24.431  30.744   6.657
 5900POPC   C3B75729  24.657  30.898   6.935
 5900POPC   C4B75730  24.737  31.016   7.303
 5901POPC   NC375731  32.740  21.576   5.038
 5901POPC   PO475732  32.326  21.310   5.564
 5901POPC   GL175733  32.126  21.452   5.926
 5901POPC   GL275734  31.831  21.674   5.889
 5901POPC   C1A75735  32.169  21.218   6.327
 5901POPC   D2A75736  32.450  20.975   6.605
 5901POPC   C3A75737  32.389  21.145   7.009
 5901POPC   C4A75738  32.123  21.171   7.371
 5901POPC   C1B75739  31.900  21.674   6.335
 5901POPC   C2B75740  32.162  21.625   6.709
 5901POPC   C3B75741  32.024  21.603   7.129
 5901POPC   C4B75742  31.764  21.605   7.491
 5902POPC   NC375743  26.325  42.001   5.113
 5902POPC   PO475744  26.002  42.612   5.250
 5902POPC   GL175745  26.190  42.457   5.668
 5902POPC   GL275746  26.291  42.105   5.629
 5902POPC   C1A75747  26.055  42.544   6.095
 5902POPC   D2A75748  26.043  42.694   6.515
 5902POPC   C3A75749  25.802  42.545   6.854
 5902POPC   C4A75750  25.978  42.496   7.243
 5902POPC   C1B75751  26.373  42.113   6.077
 5902POPC   C2B75752  26.275  42.252   6.483
 5902POPC   C3B75753  26.101  42.114   6.863
 5902POPC   C4B75754  26.240  42.062   7.275
 5903POPC   NC375755  25.156  27.503   5.507
 5903POPC   PO475756  25.534  28.024   5.426
 5903POPC   GL175757  25.549  27.845   5.805
 5903POPC   GL275758  25.659  27.514   5.694
 5903POPC   C1A75759  25.329  27.803   6.202
 5903POPC   D2A75760  25.190  27.474   6.484
 5903POPC   C3A75761  25.077  27.594   6.905
 5903POPC   C4A75762  25.111  27.598   7.377
 5903POPC   C1B75763  25.639  27.385   6.129
 5903POPC   C2B75764  25.790  27.647   6.455
 5903POPC   C3B75765  25.596  27.738   6.846
 5903POPC   C4B75766  25.491  27.386   7.122
 5904POPC   NC375767  21.357  16.037   5.472
 5904POPC   PO475768  20.879  15.563   5.364
 5904POPC   GL175769  20.934  15.692   5.805
 5904POPC   GL275770  21.007  16.061   5.832
 5904POPC   C1A75771  21.220  15.758   6.201
 5904POPC   D2A75772  21.555  15.719   6.519
 5904POPC   C3A75773  21.432  15.722   6.936
 5904POPC   C4A75774  21.566  15.755   7.362
 5904POPC   C1B75775  21.057  16.260   6.211
 5904POPC   C2B75776  21.308  16.256   6.544
 5904POPC   C3B75777  21.185  16.382   6.909
 5904POPC   C4B75778  21.408  16.192   7.167
 5905POPC   NC375779  11.783  27.050   5.520
 5905POPC   PO475780  12.259  26.599   5.422
 5905POPC   GL175781  12.106  26.759   5.810
 5905POPC   GL275782  12.132  27.126   5.888
 5905POPC   C1A75783  12.204  26.796   6.249
 5905POPC   D2A75784  11.941  26.769   6.600
 5905POPC   C3A75785  12.065  26.605   6.995
 5905POPC   C4A75786  11.839  26.746   7.333
 5905POPC   C1B75787  11.868  27.211   6.275
 5905POPC   C2B75788  11.692  27.237   6.705
 5905POPC   C3B75789  11.997  27.142   7.049
 5905POPC   C4B75790  12.297  27.105   7.397
 5906POPC   NC375791  29.674  26.000   5.354
 5906POPC   PO475792  30.302  26.252   5.231
 5906POPC   GL175793  30.090  26.070   5.632
 5906POPC   GL275794  30.172  26.299   5.879
 5906POPC   C1A75795  29.752  26.080   6.027
 5906POPC   D2A75796  29.606  26.318   6.402
 5906POPC   C3A75797  29.729  26.250   6.817
 5906POPC   C4A75798  29.773  26.051   7.208
 5906POPC   C1B75799  30.190  25.828   6.069
 5906POPC   C2B75800  30.150  25.781   6.523
 5906POPC   C3B75801  30.226  26.084   6.870
 5906POPC   C4B75802  30.262  26.104   7.308
 5907POPC   NC375803  39.888  33.416   5.631
 5907POPC   PO475804  40.242  33.948   5.325
 5907POPC   GL175805  39.995  33.966   5.733
 5907POPC   GL275806  39.631  34.070   5.734
 5907POPC   C1A75807  40.069  33.806   6.149
 5907POPC   D2A75808  40.214  33.675   6.543
 5907POPC   C3A75809  39.904  33.625   6.872
 5907POPC   C4A75810  40.045  33.817   7.244
 5907POPC   C1B75811  39.672  34.115   6.186
 5907POPC   C2B75812  39.880  34.061   6.601
 5907POPC   C3B75813  39.692  34.139   7.020
 5907POPC   C4B75814  39.706  34.138   7.475
 5908POPC   NC375815   0.861   2.934   5.449
 5908POPC   PO475816   1.563   2.833   5.449
 5908POPC   GL175817   1.397   2.726   5.855
 5908POPC   GL275818   1.046   2.567   5.795
 5908POPC   C1A75819   1.566   2.635   6.289
 5908POPC   D2A75820   1.371   2.717   6.706
 5908POPC   C3A75821   1.300   2.463   7.106
 5908POPC   C4A75822   1.440   2.475   7.601
 5908POPC   C1B75823   1.042   2.658   6.246
 5908POPC   C2B75824   0.846   2.791   6.621
 5908POPC   C3B75825   1.003   2.879   7.006
 5908POPC   C4B75826   0.941   2.772   7.376
 5909POPC   NC375827  36.869  24.331   5.527
 5909POPC   PO475828  36.933  24.989   5.409
 5909POPC   GL175829  36.915  24.747   5.818
 5909POPC   GL275830  37.126  24.469   5.957
 5909POPC   C1A75831  36.778  24.693   6.239
 5909POPC   D2A75832  36.967  24.516   6.591
 5909POPC   C3A75833  36.849  24.778   6.920
 5909POPC   C4A75834  36.810  24.735   7.346
 5909POPC   C1B75835  37.058  24.118   6.239
 5909POPC   C2B75836  36.795  23.990   6.584
 5909POPC   C3B75837  36.687  24.249   6.935
 5909POPC   C4B75838  37.095  24.360   7.139
 5910POPC   NC375839  17.744  38.431   5.353
 5910POPC   PO475840  17.354  37.947   5.528
 5910POPC   GL175841  17.408  38.256   5.897
 5910POPC   GL275842  17.627  38.531   5.849
 5910POPC   C1A75843  17.427  38.301   6.385
 5910POPC   D2A75844  17.516  38.458   6.834
 5910POPC   C3A75845  17.573  38.105   7.161
 5910POPC   C4A75846  17.508  37.971   7.609
 5910POPC   C1B75847  17.601  38.775   6.225
 5910POPC   C2B75848  17.759  38.865   6.617
 5910POPC   C3B75849  17.962  38.730   6.944
 5910POPC   C4B75850  17.744  38.574   7.300
 5911POPC   NC375851  25.713  24.345   5.325
 5911POPC   PO475852  26.438  24.458   5.246
 5911POPC   GL175853  26.151  24.449   5.747
 5911POPC   GL275854  25.970  24.132   5.815
 5911POPC   C1A75855  26.135  24.538   6.217
 5911POPC   D2A75856  25.927  24.568   6.648
 5911POPC   C3A75857  26.214  24.606   7.010
 5911POPC   C4A75858  26.206  24.492   7.443
 5911POPC   C1B75859  26.244  24.034   6.189
 5911POPC   C2B75860  26.284  24.186   6.635
 5911POPC   C3B75861  26.140  24.109   7.039
 5911POPC   C4B75862  25.782  24.365   7.136
 5912POPC   NC375863  17.608   8.137   5.323
 5912POPC   PO475864  17.151   8.570   5.386
 5912POPC   GL175865  17.199   8.254   5.737
 5912POPC   GL275866  17.429   7.948   5.760
 5912POPC   C1A75867  17.260   8.191   6.191
 5912POPC   D2A75868  17.236   8.353   6.600
 5912POPC   C3A75869  17.226   8.102   6.950
 5912POPC   C4A75870  17.484   8.294   7.250
 5912POPC   C1B75871  17.706   7.905   6.124
 5912POPC   C2B75872  17.597   7.851   6.559
 5912POPC   C3B75873  17.762   7.983   6.927
 5912POPC   C4B75874  17.733   7.876   7.368
 5913POPC   NC375875   8.096  31.613   5.410
 5913POPC   PO475876   8.470  31.040   5.382
 5913POPC   GL175877   8.391  31.321   5.761
 5913POPC   GL275878   8.286  31.673   5.882
 5913POPC   C1A75879   8.259  31.264   6.204
 5913POPC   D2A75880   8.377  31.405   6.639
 5913POPC   C3A75881   8.361  31.125   6.991
 5913POPC   C4A75882   8.236  31.216   7.422
 5913POPC   C1B75883   8.155  31.750   6.316
 5913POPC   C2B75884   7.863  31.511   6.614
 5913POPC   C3B75885   7.934  31.414   7.040
 5913POPC   C4B75886   8.274  31.689   7.206
 5914POPC   NC375887  22.602  42.282   5.378
 5914POPC   PO475888  22.044  42.653   5.238
 5914POPC   GL175889  21.982  42.452   5.686
 5914POPC   GL275890  22.137  42.657   5.944
 5914POPC   C1A75891  21.963  42.195   6.096
 5914POPC   D2A75892  22.271  42.141   6.435
 5914POPC   C3A75893  22.384  42.166   6.880
 5914POPC   C4A75894  22.222  42.429   7.238
 5914POPC   C1B75895  22.057  42.624   6.413
 5914POPC   C2B75896  22.340  42.656   6.780
 5914POPC   C3B75897  22.535  42.842   7.167
 5914POPC   C4B75898  22.554  42.928   7.613
 5915POPC   NC375899  38.818  23.467   5.457
 5915POPC   PO475900  39.383  23.823   5.260
 5915POPC   GL175901  39.202  23.797   5.658
 5915POPC   GL275902  39.323  23.463   5.672
 5915POPC   C1A75903  39.020  23.794   6.102
 5915POPC   D2A75904  39.043  23.624   6.540
 5915POPC   C3A75905  39.030  23.764   6.966
 5915POPC   C4A75906  38.881  23.519   7.318
 5915POPC   C1B75907  39.536  23.636   6.023
 5915POPC   C2B75908  39.637  23.482   6.409
 5915POPC   C3B75909  39.513  23.556   6.835
 5915POPC   C4B75910  39.389  23.447   7.244
 5916POPC   NC375911  26.665  20.672   5.261
 5916POPC   PO475912  27.024  21.191   5.426
 5916POPC   GL175913  26.854  20.823   5.717
 5916POPC   GL275914  27.091  20.595   5.829
 5916POPC   C1A75915  26.679  20.639   6.138
 5916POPC   D2A75916  26.740  20.470   6.591
 5916POPC   C3A75917  26.637  20.446   7.055
 5916POPC   C4A75918  26.577  20.429   7.503
 5916POPC   C1B75919  27.197  20.641   6.208
 5916POPC   C2B75920  27.072  20.855   6.535
 5916POPC   C3B75921  27.122  20.681   6.895
 5916POPC   C4B75922  26.997  20.730   7.295
 5917POPC   NC375923  35.037  36.670   5.534
 5917POPC   PO475924  35.739  36.648   5.572
 5917POPC   GL175925  35.438  36.844   5.822
 5917POPC   GL275926  35.318  37.192   5.779
 5917POPC   C1A75927  35.411  36.956   6.233
 5917POPC   D2A75928  35.141  36.992   6.584
 5917POPC   C3A75929  35.364  37.067   6.951
 5917POPC   C4A75930  35.690  36.905   7.211
 5917POPC   C1B75931  35.072  37.346   6.170
 5917POPC   C2B75932  34.979  37.490   6.617
 5917POPC   C3B75933  35.074  37.471   7.072
 5917POPC   C4B75934  35.151  37.184   7.432
 5918POPC   NC375935  33.200  34.524   5.445
 5918POPC   PO475936  32.591  34.674   5.670
 5918POPC   GL175937  32.729  34.371   5.926
 5918POPC   GL275938  33.052  34.496   5.926
 5918POPC   C1A75939  32.728  34.407   6.371
 5918POPC   D2A75940  32.785  34.621   6.759
 5918POPC   C3A75941  33.064  34.454   7.085
 5918POPC   C4A75942  32.994  34.333   7.510
 5918POPC   C1B75943  33.235  34.476   6.310
 5918POPC   C2B75944  33.329  34.659   6.684
 5918POPC   C3B75945  33.566  34.572   7.022
 5918POPC   C4B75946  33.495  34.201   7.253
 5919POPC   NC375947  34.297  36.798   5.398
 5919POPC   PO475948  34.906  37.195   5.495
 5919POPC   GL175949  34.798  37.056   5.831
 5919POPC   GL275950  34.446  37.078   5.811
 5919POPC   C1A75951  34.775  36.888   6.219
 5919POPC   D2A75952  34.628  37.067   6.608
 5919POPC   C3A75953  34.818  36.947   7.010
 5919POPC   C4A75954  34.723  36.500   7.117
 5919POPC   C1B75955  34.257  36.982   6.248
 5919POPC   C2B75956  34.117  36.653   6.572
 5919POPC   C3B75957  34.163  36.675   7.009
 5919POPC   C4B75958  34.270  37.038   7.209
 5920POPC   NC375959  35.728  12.515   5.576
 5920POPC   PO475960  35.975  13.022   5.218
 5920POPC   GL175961  36.095  13.095   5.705
 5920POPC   GL275962  36.105  12.752   5.836
 5920POPC   C1A75963  36.390  13.045   6.121
 5920POPC   D2A75964  36.333  12.747   6.462
 5920POPC   C3A75965  36.042  12.926   6.758
 5920POPC   C4A75966  35.914  13.052   7.164
 5920POPC   C1B75967  35.907  12.554   6.200
 5920POPC   C2B75968  35.696  12.578   6.593
 5920POPC   C3B75969  35.888  12.497   6.995
 5920POPC   C4B75970  35.850  12.578   7.424
 5921POPC   NC375971  21.558  18.667   5.552
 5921POPC   PO475972  21.192  18.146   5.254
 5921POPC   GL175973  21.247  18.323   5.796
 5921POPC   GL275974  21.454  18.034   6.030
 5921POPC   C1A75975  21.519  18.484   6.216
 5921POPC   D2A75976  21.792  18.176   6.501
 5921POPC   C3A75977  21.610  18.104   6.925
 5921POPC   C4A75978  21.292  18.427   7.097
 5921POPC   C1B75979  21.083  18.159   6.283
 5921POPC   C2B75980  20.995  18.155   6.736
 5921POPC   C3B75981  21.166  17.911   7.067
 5921POPC   C4B75982  21.182  17.944   7.543
 5922POPC   NC375983  31.221   3.308   5.278
 5922POPC   PO475984  31.330   3.913   5.561
 5922POPC   GL175985  31.576   3.644   5.826
 5922POPC   GL275986  31.672   3.333   5.679
 5922POPC   C1A75987  31.424   3.318   6.122
 5922POPC   D2A75988  31.301   3.247   6.547
 5922POPC   C3A75989  31.357   3.619   6.772
 5922POPC   C4A75990  31.351   3.686   7.195
 5922POPC   C1B75991  31.924   3.318   6.048
 5922POPC   C2B75992  31.882   3.452   6.462
 5922POPC   C3B75993  31.859   3.552   6.865
 5922POPC   C4B75994  31.710   3.324   7.201
 5923POPC   NC375995   4.179   4.393   5.375
 5923POPC   PO475996   4.816   4.084   5.477
 5923POPC   GL175997   4.490   4.120   5.809
 5923POPC   GL275998   4.488   4.462   5.845
 5923POPC   C1A75999   4.313   4.143   6.229
 5923POPC   D2A76000   4.469   4.327   6.603
 5923POPC   C3A76001   4.439   4.149   7.030
 5923POPC   C4A76002   4.101   4.267   7.263
 5923POPC   C1B76003   4.647   4.723   6.220
 5923POPC   C2B76004   4.690   4.770   6.679
 5923POPC   C3B76005   4.474   4.650   7.033
 5923POPC   C4B76006   4.529   4.508   7.442
 5924POPC   NC376007  27.965  39.629   5.395
 5924POPC   PO476008  27.446  39.221   5.361
 5924POPC   GL176009  27.372  39.065   5.777
 5924POPC   GL276010  27.289  39.380   5.899
 5924POPC   C1A76011  27.515  38.967   6.221
 5924POPC   D2A76012  27.420  38.989   6.697
 5924POPC   C3A76013  27.689  39.086   7.076
 5924POPC   C4A76014  27.557  38.984   7.506
 5924POPC   C1B76015  27.390  39.471   6.333
 5924POPC   C2B76016  27.483  39.500   6.779
 5924POPC   C3B76017  27.268  39.370   7.153
 5924POPC   C4B76018  27.319  39.417   7.588
 5925POPC   NC376019  33.031  42.798   5.517
 5925POPC   PO476020  32.583  43.364   5.620
 5925POPC   GL176021  32.923  43.149   5.885
 5925POPC   GL276022  33.235  43.344   5.969
 5925POPC   C1A76023  32.889  42.893   6.257
 5925POPC   D2A76024  32.769  43.069   6.656
 5925POPC   C3A76025  32.839  42.892   7.059
 5925POPC   C4A76026  32.566  42.879   7.413
 5925POPC   C1B76027  33.224  43.231   6.417
 5925POPC   C2B76028  33.251  42.874   6.691
 5925POPC   C3B76029  33.335  43.001   7.095
 5925POPC   C4B76030  33.222  43.416   7.118
 5926POPC   NC376031  18.912  21.750   5.419
 5926POPC   PO476032  19.508  22.007   5.551
 5926POPC   GL176033  19.147  21.991   5.818
 5926POPC   GL276034  18.867  22.271   5.775
 5926POPC   C1A76035  19.226  22.030   6.244
 5926POPC   D2A76036  19.417  22.108   6.607
 5926POPC   C3A76037  19.153  22.071   6.927
 5926POPC   C4A76038  18.964  22.385   7.175
 5926POPC   C1B76039  18.711  22.024   6.116
 5926POPC   C2B76040  18.817  21.942   6.543
 5926POPC   C3B76041  18.632  22.054   6.927
 5926POPC   C4B76042  18.556  22.104   7.330
 5927POPC   NC376043  34.794  42.385   5.509
 5927POPC   PO476044  34.148  42.468   5.636
 5927POPC   GL176045  34.470  42.477   5.912
 5927POPC   GL276046  34.574  42.117   5.915
 5927POPC   C1A76047  34.638  42.429   6.320
 5927POPC   D2A76048  34.641  42.311   6.727
 5927POPC   C3A76049  34.518  42.675   6.936
 5927POPC   C4A76050  34.542  42.744   7.325
 5927POPC   C1B76051  34.993  42.068   6.157
 5927POPC   C2B76052  35.136  42.081   6.609
 5927POPC   C3B76053  34.924  42.002   7.022
 5927POPC   C4B76054  34.604  42.214   7.251
 5928POPC   NC376055  30.390  15.398   5.457
 5928POPC   PO476056  30.934  15.012   5.603
 5928POPC   GL176057  30.701  15.231   5.899
 5928POPC   GL276058  30.432  14.999   5.843
 5928POPC   C1A76059  30.721  15.307   6.358
 5928POPC   D2A76060  30.434  15.419   6.714
 5928POPC   C3A76061  30.655  15.382   7.116
 5928POPC   C4A76062  31.010  15.158   7.319
 5928POPC   C1B76063  30.633  14.819   6.231
 5928POPC   C2B76064  30.576  14.922   6.651
 5928POPC   C3B76065  30.763  14.835   7.007
 5928POPC   C4B76066  30.598  14.818   7.410
 5929POPC   NC376067   9.953  43.855   5.490
 5929POPC   PO476068   9.438  44.216   5.213
 5929POPC   GL176069   9.508  43.851   5.719
 5929POPC   GL276070   9.794  43.663   5.919
 5929POPC   C1A76071   9.599  43.999   6.217
 5929POPC   D2A76072   9.476  43.918   6.636
 5929POPC   C3A76073   9.808  43.898   6.930
 5929POPC   C4A76074   9.859  44.052   7.324
 5929POPC   C1B76075  10.051  43.751   6.314
 5929POPC   C2B76076  10.060  43.512   6.704
 5929POPC   C3B76077   9.943  43.392   7.123
 5929POPC   C4B76078  10.011  43.619   7.507
 5930POPC   NC376079  17.696  20.428   5.172
 5930POPC   PO476080  17.208  20.811   5.483
 5930POPC   GL176081  17.384  20.821   5.905
 5930POPC   GL276082  17.275  20.481   6.006
 5930POPC   C1A76083  17.682  20.761   6.293
 5930POPC   D2A76084  17.798  21.044   6.668
 5930POPC   C3A76085  17.915  20.740   7.012
 5930POPC   C4A76086  17.840  20.340   7.207
 5930POPC   C1B76087  17.510  20.214   6.319
 5930POPC   C2B76088  17.523  20.275   6.760
 5930POPC   C3B76089  17.372  20.552   7.053
 5930POPC   C4B76090  17.055  20.477   7.320
 5931POPC   NC376091  38.879  28.345   5.414
 5931POPC   PO476092  38.179  28.257   5.407
 5931POPC   GL176093  38.450  28.220   5.767
 5931POPC   GL276094  38.668  28.523   5.852
 5931POPC   C1A76095  38.330  28.298   6.192
 5931POPC   D2A76096  38.433  28.136   6.585
 5931POPC   C3A76097  38.206  28.310   6.930
 5931POPC   C4A76098  38.045  28.038   7.244
 5931POPC   C1B76099  38.759  28.520   6.310
 5931POPC   C2B76100  38.747  28.493   6.752
 5931POPC   C3B76101  38.657  28.395   7.140
 5931POPC   C4B76102  38.905  28.512   7.407
 5932POPC   NC376103  10.029  40.079   5.302
 5932POPC   PO476104  10.709  39.976   5.316
 5932POPC   GL176105  10.377  39.897   5.673
 5932POPC   GL276106  10.141  40.216   5.784
 5932POPC   C1A76107  10.511  39.836   6.114
 5932POPC   D2A76108  10.443  39.640   6.513
 5932POPC   C3A76109  10.666  39.640   6.898
 5932POPC   C4A76110  10.556  39.882   7.260
 5932POPC   C1B76111  10.311  40.296   6.198
 5932POPC   C2B76112  10.386  40.154   6.612
 5932POPC   C3B76113  10.516  40.330   6.995
 5932POPC   C4B76114  10.309  40.504   7.366
 5933POPC   NC376115  14.820  17.181   5.634
 5933POPC   PO476116  14.192  17.151   5.424
 5933POPC   GL176117  14.060  17.085   5.845
 5933POPC   GL276118  14.176  16.744   5.840
 5933POPC   C1A76119  14.054  16.960   6.304
 5933POPC   D2A76120  14.187  16.757   6.694
 5933POPC   C3A76121  14.208  16.947   7.098
 5933POPC   C4A76122  14.042  16.897   7.503
 5933POPC   C1B76123  14.178  16.461   6.211
 5933POPC   C2B76124  14.512  16.395   6.550
 5933POPC   C3B76125  14.590  16.556   6.982
 5933POPC   C4B76126  14.361  16.525   7.386
 5934POPC   NC376127   5.597  10.946   4.942
 5934POPC   PO476128   5.812  10.308   5.235
 5934POPC   GL176129   5.925  10.364   5.679
 5934POPC   GL276130   5.931  10.722   5.757
 5934POPC   C1A76131   5.770  10.373   6.120
 5934POPC   D2A76132   5.748  10.090   6.483
 5934POPC   C3A76133   5.736  10.326   6.843
 5934POPC   C4A76134   6.041  10.313   7.138
 5934POPC   C1B76135   5.878  10.877   6.194
 5934POPC   C2B76136   5.717  10.807   6.615
 5934POPC   C3B76137   5.745  10.889   7.074
 5934POPC   C4B76138   5.555  10.927   7.499
 5935POPC   NC376139   7.997  19.494   5.634
 5935POPC   PO476140   8.298  18.930   5.399
 5935POPC   GL176141   8.162  19.043   5.844
 5935POPC   GL276142   8.353  19.341   5.957
 5935POPC   C1A76143   7.977  19.110   6.280
 5935POPC   D2A76144   8.057  19.189   6.742
 5935POPC   C3A76145   8.136  18.867   7.056
 5935POPC   C4A76146   8.298  18.952   7.463
 5935POPC   C1B76147   8.504  19.069   6.303
 5935POPC   C2B76148   8.539  19.012   6.759
 5935POPC   C3B76149   8.633  19.251   7.118
 5935POPC   C4B76150   8.756  19.137   7.532
 5936POPC   NC376151  17.090  10.753   5.424
 5936POPC   PO476152  16.426  10.805   5.393
 5936POPC   GL176153  16.463  10.561   5.766
 5936POPC   GL276154  16.375  10.836   5.912
 5936POPC   C1A76155  16.773  10.386   6.055
 5936POPC   D2A76156  16.891  10.363   6.519
 5936POPC   C3A76157  16.690  10.467   6.956
 5936POPC   C4A76158  16.657  10.337   7.439
 5936POPC   C1B76159  16.550  10.748   6.319
 5936POPC   C2B76160  16.635  10.930   6.703
 5936POPC   C3B76161  16.336  10.857   7.008
 5936POPC   C4B76162  16.375  10.774   7.427
 5937POPC   NC376163  39.705  31.236   5.490
 5937POPC   PO476164  40.073  30.672   5.403
 5937POPC   GL176165  39.975  30.512   5.788
 5937POPC   GL276166  39.693  30.728   5.812
 5937POPC   C1A76167  40.178  30.488   6.214
 5937POPC   D2A76168  40.384  30.572   6.627
 5937POPC   C3A76169  40.132  30.618   7.013
 5937POPC   C4A76170  39.880  30.417   7.312
 5937POPC   C1B76171  39.644  30.460   6.189
 5937POPC   C2B76172  39.796  30.532   6.626
 5937POPC   C3B76173  39.599  30.747   7.002
 5937POPC   C4B76174  39.429  30.637   7.405
 5938POPC   NC376175  34.845  15.582   5.411
 5938POPC   PO476176  34.352  15.075   5.391
 5938POPC   GL176177  34.450  15.394   5.724
 5938POPC   GL276178  34.791  15.420   5.900
 5938POPC   C1A76179  34.363  15.374   6.150
 5938POPC   D2A76180  34.333  15.051   6.471
 5938POPC   C3A76181  34.340  15.215   6.903
 5938POPC   C4A76182  34.251  14.997   7.250
 5938POPC   C1B76183  34.785  15.077   6.237
 5938POPC   C2B76184  34.791  15.019   6.699
 5938POPC   C3B76185  34.877  15.256   7.077
 5938POPC   C4B76186  35.110  15.066   7.397
 5939POPC   NC376187   1.793  42.296   5.077
 5939POPC   PO476188   2.082  42.706   5.513
 5939POPC   GL176189   1.866  42.522   5.860
 5939POPC   GL276190   1.740  42.195   5.796
 5939POPC   C1A76191   1.919  42.632   6.286
 5939POPC   D2A76192   1.718  42.545   6.664
 5939POPC   C3A76193   1.920  42.324   6.994
 5939POPC   C4A76194   1.836  42.331   7.426
 5939POPC   C1B76195   1.687  42.161   6.211
 5939POPC   C2B76196   1.964  42.110   6.527
 5939POPC   C3B76197   1.970  41.831   6.864
 5939POPC   C4B76198   2.095  41.926   7.274
 5940POPC   NC376199  28.451  23.901   5.212
 5940POPC   PO476200  28.779  23.335   5.171
 5940POPC   GL176201  28.504  23.506   5.569
 5940POPC   GL276202  28.357  23.809   5.696
 5940POPC   C1A76203  28.468  23.464   6.071
 5940POPC   D2A76204  28.623  23.649   6.435
 5940POPC   C3A76205  28.578  23.551   6.848
 5940POPC   C4A76206  28.693  23.755   7.263
 5940POPC   C1B76207  28.389  23.970   6.110
 5940POPC   C2B76208  28.428  24.163   6.514
 5940POPC   C3B76209  28.417  24.022   6.912
 5940POPC   C4B76210  28.213  23.905   7.263
 5941POPC   NC376211  31.247  27.071   5.226
 5941POPC   PO476212  30.587  26.899   5.347
 5941POPC   GL176213  30.704  26.945   5.778
 5941POPC   GL276214  31.034  27.061   5.768
 5941POPC   C1A76215  30.712  26.815   6.249
 5941POPC   D2A76216  30.852  26.971   6.669
 5941POPC   C3A76217  30.844  26.679   7.003
 5941POPC   C4A76218  30.532  26.569   7.273
 5941POPC   C1B76219  31.133  27.107   6.228
 5941POPC   C2B76220  31.359  27.106   6.630
 5941POPC   C3B76221  31.186  27.182   7.028
 5941POPC   C4B76222  31.111  26.903   7.373
 5942POPC   NC376223  21.109  41.757   5.572
 5942POPC   PO476224  21.362  41.166   5.386
 5942POPC   GL176225  21.348  41.378   5.815
 5942POPC   GL276226  21.668  41.508   5.965
 5942POPC   C1A76227  21.226  41.380   6.262
 5942POPC   D2A76228  21.192  41.117   6.654
 5942POPC   C3A76229  21.352  41.405   6.945
 5942POPC   C4A76230  21.293  41.457   7.343
 5942POPC   C1B76231  21.532  41.845   6.244
 5942POPC   C2B76232  21.309  41.815   6.622
 5942POPC   C3B76233  21.498  41.904   7.024
 5942POPC   C4B76234  21.629  41.836   7.441
 5943POPC   NC376235   9.968   0.757   5.441
 5943POPC   PO476236   9.561   0.207   5.271
 5943POPC   GL176237   9.767   0.223   5.711
 5943POPC   GL276238  10.056   0.437   5.827
 5943POPC   C1A76239   9.610   0.293   6.149
 5943POPC   D2A76240   9.540   0.520   6.538
 5943POPC   C3A76241   9.511   0.331   6.937
 5943POPC   C4A76242   9.614   0.601   7.250
 5943POPC   C1B76243   9.899   0.707   6.180
 5943POPC   C2B76244  10.044   0.687   6.597
 5943POPC   C3B76245  10.018   0.462   6.967
 5943POPC   C4B76246  10.123   0.620   7.366
 5944POPC   NC376247  44.942  31.706   5.391
 5944POPC   PO476248  44.533  31.218   5.601
 5944POPC   GL176249  44.657  31.570   5.809
 5944POPC   GL276250  44.355  31.781   5.839
 5944POPC   C1A76251  44.947  31.560   6.120
 5944POPC   D2A76252  44.982  31.493   6.543
 5944POPC   C3A76253  44.724  31.767   6.760
 5944POPC   C4A76254  44.842  31.791   7.177
 5944POPC   C1B76255  44.471  31.700   6.285
 5944POPC   C2B76256  44.530  31.270   6.452
 5944POPC   C3B76257  44.573  31.242   6.885
 5944POPC   C4B76258  44.352  31.577   7.125
 5945POPC   NC376259  44.072  36.765   5.534
 5945POPC   PO476260  43.590  37.141   5.457
 5945POPC   GL176261  43.730  37.021   5.877
 5945POPC   GL276262  44.083  36.943   5.996
 5945POPC   C1A76263  43.737  37.104   6.326
 5945POPC   D2A76264  44.019  36.889   6.615
 5945POPC   C3A76265  43.855  36.768   6.994
 5945POPC   C4A76266  43.630  37.136   7.099
 5945POPC   C1B76267  43.884  36.599   6.224
 5945POPC   C2B76268  43.995  36.375   6.628
 5945POPC   C3B76269  44.147  36.356   7.078
 5945POPC   C4B76270  44.025  36.474   7.528
 5946POPC   NC376271  10.288  20.282   5.585
 5946POPC   PO476272  10.724  20.819   5.295
 5946POPC   GL176273  10.633  20.622   5.722
 5946POPC   GL276274  10.808  20.303   5.677
 5946POPC   C1A76275  10.439  20.570   6.157
 5946POPC   D2A76276  10.254  20.408   6.539
 5946POPC   C3A76277  10.260  20.599   6.933
 5946POPC   C4A76278  10.640  20.838   7.051
 5946POPC   C1B76279  10.926  20.400   6.122
 5946POPC   C2B76280  10.773  20.502   6.546
 5946POPC   C3B76281  10.989  20.460   6.930
 5946POPC   C4B76282  11.036  20.662   7.312
 5947POPC   NC376283  26.959  22.321   5.111
 5947POPC   PO476284  26.431  21.996   5.409
 5947POPC   GL176285  26.646  21.970   5.779
 5947POPC   GL276286  26.380  21.981   5.944
 5947POPC   C1A76287  26.891  22.084   6.132
 5947POPC   D2A76288  26.889  22.367   6.489
 5947POPC   C3A76289  26.881  22.218   6.919
 5947POPC   C4A76290  26.966  22.409   7.320
 5947POPC   C1B76291  26.470  22.390   6.103
 5947POPC   C2B76292  26.427  22.604   6.503
 5947POPC   C3B76293  26.388  22.452   6.903
 5947POPC   C4B76294  26.488  22.259   7.272
 5948POPC   NC376295  38.063  23.719   5.472
 5948POPC   PO476296  38.698  23.921   5.504
 5948POPC   GL176297  38.502  23.647   5.853
 5948POPC   GL276298  38.147  23.471   5.910
 5948POPC   C1A76299  38.537  23.714   6.310
 5948POPC   D2A76300  38.571  23.488   6.696
 5948POPC   C3A76301  38.516  23.728   7.042
 5948POPC   C4A76302  38.440  23.729   7.485
 5948POPC   C1B76303  38.039  23.810   6.200
 5948POPC   C2B76304  37.874  23.882   6.642
 5948POPC   C3B76305  38.017  23.794   7.084
 5948POPC   C4B76306  37.939  23.811   7.545
 5949POPC   NC376307  42.562   2.599   5.420
 5949POPC   PO476308  42.625   3.148   5.706
 5949POPC   GL176309  42.431   2.762   5.869
 5949POPC   GL276310  42.104   2.666   5.753
 5949POPC   C1A76311  42.307   2.443   6.148
 5949POPC   D2A76312  42.161   2.522   6.548
 5949POPC   C3A76313  42.473   2.607   6.834
 5949POPC   C4A76314  42.291   2.439   7.173
 5949POPC   C1B76315  42.080   2.906   6.203
 5949POPC   C2B76316  42.175   3.020   6.669
 5949POPC   C3B76317  42.242   2.981   7.142
 5949POPC   C4B76318  42.133   3.147   7.594
 5950POPC   NC376319   4.651  14.197   5.578
 5950POPC   PO476320   4.365  14.792   5.588
 5950POPC   GL176321   4.114  14.531   5.846
 5950POPC   GL276322   4.250  14.170   5.907
 5950POPC   C1A76323   4.213  14.624   6.271
 5950POPC   D2A76324   4.558  14.692   6.545
 5950POPC   C3A76325   4.348  14.609   6.921
 5950POPC   C4A76326   4.294  14.391   7.300
 5950POPC   C1B76327   4.399  14.114   6.350
 5950POPC   C2B76328   4.422  14.106   6.808
 5950POPC   C3B76329   4.189  13.904   7.159
 5950POPC   C4B76330   4.164  14.048   7.619
 5951POPC   NC376331  30.919   7.081   5.003
 5951POPC   PO476332  30.652   7.310   5.544
 5951POPC   GL176333  30.729   7.412   5.922
 5951POPC   GL276334  30.357   7.347   5.950
 5951POPC   C1A76335  31.027   7.324   6.249
 5951POPC   D2A76336  31.037   7.052   6.599
 5951POPC   C3A76337  30.730   7.210   6.872
 5951POPC   C4A76338  30.652   7.371   7.259
 5951POPC   C1B76339  30.401   7.675   6.211
 5951POPC   C2B76340  30.676   7.626   6.528
 5951POPC   C3B76341  30.644   7.787   6.935
 5951POPC   C4B76342  30.257   7.681   7.158
 5952POPC   NC376343  40.026   8.185   5.407
 5952POPC   PO476344  39.537   7.693   5.528
 5952POPC   GL176345  39.774   7.986   5.802
 5952POPC   GL276346  39.582   8.300   5.839
 5952POPC   C1A76347  40.141   7.998   6.115
 5952POPC   D2A76348  40.193   8.200   6.534
 5952POPC   C3A76349  40.345   7.975   6.891
 5952POPC   C4A76350  40.200   8.102   7.289
 5952POPC   C1B76351  39.840   8.414   6.206
 5952POPC   C2B76352  39.886   8.617   6.650
 5952POPC   C3B76353  39.857   8.495   7.111
 5952POPC   C4B76354  39.814   8.334   7.553
 5953POPC   NC376355  19.042  24.500   5.353
 5953POPC   PO476356  18.579  24.053   5.207
 5953POPC   GL176357  18.748  24.217   5.683
 5953POPC   GL276358  19.150  24.213   5.780
 5953POPC   C1A76359  18.857  24.423   6.143
 5953POPC   D2A76360  18.989  24.349   6.619
 5953POPC   C3A76361  19.014  24.629   7.035
 5953POPC   C4A76362  18.883  24.716   7.503
 5953POPC   C1B76363  19.358  24.340   6.199
 5953POPC   C2B76364  19.493  24.234   6.627
 5953POPC   C3B76365  19.318  24.218   7.055
 5953POPC   C4B76366  19.319  24.457   7.453
 5954POPC   NC376367  34.177  28.114   5.458
 5954POPC   PO476368  34.524  27.544   5.309
 5954POPC   GL176369  34.595  27.496   5.768
 5954POPC   GL276370  34.364  27.214   5.775
 5954POPC   C1A76371  34.583  27.353   6.233
 5954POPC   D2A76372  34.793  27.328   6.640
 5954POPC   C3A76373  34.818  27.731   6.854
 5954POPC   C4A76374  34.688  27.881   7.258
 5954POPC   C1B76375  34.088  27.264   6.131
 5954POPC   C2B76376  34.194  27.150   6.549
 5954POPC   C3B76377  34.340  27.326   6.913
 5954POPC   C4B76378  34.691  27.339   7.166
 5955POPC   NC376379  18.336  42.675   5.420
 5955POPC   PO476380  18.518  43.421   5.424
 5955POPC   GL176381  18.281  43.307   5.809
 5955POPC   GL276382  18.206  42.934   5.889
 5955POPC   C1A76383  18.342  43.263   6.272
 5955POPC   D2A76384  18.458  42.891   6.543
 5955POPC   C3A76385  18.335  42.957   6.936
 5955POPC   C4A76386  18.192  43.360   6.994
 5955POPC   C1B76387  17.959  42.901   6.276
 5955POPC   C2B76388  17.860  43.059   6.731
 5955POPC   C3B76389  17.896  42.967   7.213
 5955POPC   C4B76390  17.917  42.790   7.657
 5956POPC   NC376391  32.543  29.764   5.324
 5956POPC   PO476392  31.917  29.740   5.485
 5956POPC   GL176393  32.103  29.938   5.848
 5956POPC   GL276394  32.429  30.006   5.777
 5956POPC   C1A76395  32.156  30.165   6.221
 5956POPC   D2A76396  32.002  30.227   6.625
 5956POPC   C3A76397  32.298  30.232   6.958
 5956POPC   C4A76398  32.113  29.950   7.255
 5956POPC   C1B76399  32.431  29.712   6.164
 5956POPC   C2B76400  32.381  29.856   6.600
 5956POPC   C3B76401  32.512  29.755   7.028
 5956POPC   C4B76402  32.532  29.829   7.516
 5957POPC   NC376403  28.061   5.040   5.339
 5957POPC   PO476404  27.460   5.143   5.262
 5957POPC   GL176405  27.660   4.983   5.664
 5957POPC   GL276406  27.383   5.045   5.850
 5957POPC   C1A76407  27.817   4.852   6.104
 5957POPC   D2A76408  27.666   4.812   6.558
 5957POPC   C3A76409  27.860   5.021   6.927
 5957POPC   C4A76410  28.068   4.825   7.277
 5957POPC   C1B76411  27.462   5.201   6.282
 5957POPC   C2B76412  27.407   5.252   6.744
 5957POPC   C3B76413  27.451   5.304   7.199
 5957POPC   C4B76414  27.415   5.184   7.636
 5958POPC   NC376415  34.120  33.752   5.468
 5958POPC   PO476416  33.544  34.138   5.495
 5958POPC   GL176417  33.788  34.036   5.849
 5958POPC   GL276418  33.669  33.723   5.818
 5958POPC   C1A76419  33.729  34.009   6.327
 5958POPC   D2A76420  33.444  33.781   6.633
 5958POPC   C3A76421  33.597  33.743   7.061
 5958POPC   C4A76422  34.008  33.855   7.205
 5958POPC   C1B76423  33.872  33.539   6.193
 5958POPC   C2B76424  33.935  33.548   6.632
 5958POPC   C3B76425  33.857  33.326   6.988
 5958POPC   C4B76426  33.829  33.434   7.432
 5959POPC   NC376427  36.613  27.608   5.409
 5959POPC   PO476428  37.302  27.809   5.236
 5959POPC   GL176429  37.133  27.700   5.657
 5959POPC   GL276430  36.987  27.399   5.681
 5959POPC   C1A76431  37.074  27.642   6.121
 5959POPC   D2A76432  37.089  27.437   6.530
 5959POPC   C3A76433  36.817  27.630   6.856
 5959POPC   C4A76434  36.549  28.012   6.964
 5959POPC   C1B76435  36.633  27.390   6.020
 5959POPC   C2B76436  36.541  27.393   6.471
 5959POPC   C3B76437  36.544  27.183   6.879
 5959POPC   C4B76438  36.644  27.360   7.286
 5960POPC   NC376439  39.326   0.755   5.149
 5960POPC   PO476440  38.921   0.259   5.176
 5960POPC   GL176441  39.337   0.416   5.520
 5960POPC   GL276442  39.523   0.185   5.758
 5960POPC   C1A76443  39.317   0.602   6.000
 5960POPC   D2A76444  39.178   0.415   6.444
 5960POPC   C3A76445  39.103   0.586   6.881
 5960POPC   C4A76446  39.144   0.439   7.303
 5960POPC   C1B76447  39.698   0.360   6.192
 5960POPC   C2B76448  39.656   0.613   6.552
 5960POPC   C3B76449  39.593   0.467   6.963
 5960POPC   C4B76450  39.647   0.245   7.353
 5961POPC   NC376451   1.904  15.226   5.365
 5961POPC   PO476452   2.510  14.866   5.524
 5961POPC   GL176453   2.130  15.025   5.806
 5961POPC   GL276454   1.760  14.921   5.809
 5961POPC   C1A76455   2.019  15.203   6.214
 5961POPC   D2A76456   1.857  15.128   6.636
 5961POPC   C3A76457   2.044  15.282   7.014
 5961POPC   C4A76458   2.244  14.959   7.247
 5961POPC   C1B76459   1.736  14.746   6.246
 5961POPC   C2B76460   1.781  14.603   6.684
 5961POPC   C3B76461   1.797  14.819   7.068
 5961POPC   C4B76462   1.594  15.201   7.248
 5962POPC   NC376463  21.408   6.939   5.157
 5962POPC   PO476464  21.692   6.705   5.416
 5962POPC   GL176465  21.531   6.724   5.883
 5962POPC   GL276466  21.360   7.044   5.931
 5962POPC   C1A76467  21.451   6.579   6.358
 5962POPC   D2A76468  21.098   6.544   6.660
 5962POPC   C3A76469  21.013   6.421   7.068
 5962POPC   C4A76470  21.337   6.371   7.395
 5962POPC   C1B76471  21.658   7.037   6.305
 5962POPC   C2B76472  21.625   6.898   6.750
 5962POPC   C3B76473  21.341   6.834   7.099
 5962POPC   C4B76474  21.436   6.909   7.546
 5963POPC   NC376475   3.684  18.278   5.332
 5963POPC   PO476476   3.049  18.138   5.287
 5963POPC   GL176477   3.289  18.350   5.685
 5963POPC   GL276478   3.667  18.504   5.777
 5963POPC   C1A76479   3.383  18.226   6.129
 5963POPC   D2A76480   3.270  18.448   6.535
 5963POPC   C3A76481   3.359  18.252   6.940
 5963POPC   C4A76482   3.288  17.996   7.307
 5963POPC   C1B76483   3.852  18.453   6.199
 5963POPC   C2B76484   3.783  18.575   6.629
 5963POPC   C3B76485   3.761  18.553   7.074
 5963POPC   C4B76486   3.752  18.184   7.306
 5964POPC   NC376487  26.116  21.670   5.222
 5964POPC   PO476488  25.748  21.147   5.554
 5964POPC   GL176489  25.878  21.305   5.915
 5964POPC   GL276490  26.180  21.455   5.775
 5964POPC   C1A76491  25.833  21.277   6.383
 5964POPC   D2A76492  25.801  21.644   6.623
 5964POPC   C3A76493  25.947  21.608   7.010
 5964POPC   C4A76494  25.866  21.524   7.426
 5964POPC   C1B76495  26.308  21.251   6.202
 5964POPC   C2B76496  26.292  21.409   6.662
 5964POPC   C3B76497  26.364  21.351   7.155
 5964POPC   C4B76498  26.519  21.451   7.612
 5965POPC   NC376499  30.714  36.378   5.360
 5965POPC   PO476500  30.513  35.862   5.647
 5965POPC   GL176501  30.830  36.084   5.806
 5965POPC   GL276502  30.691  36.392   5.916
 5965POPC   C1A76503  30.919  36.043   6.230
 5965POPC   D2A76504  30.731  35.885   6.612
 5965POPC   C3A76505  30.986  36.025   6.934
 5965POPC   C4A76506  31.095  36.434   7.005
 5965POPC   C1B76507  30.416  36.194   6.259
 5965POPC   C2B76508  30.266  36.110   6.697
 5965POPC   C3B76509  30.505  36.143   7.053
 5965POPC   C4B76510  30.560  35.982   7.475
 5966POPC   NC376511   2.325  11.244   5.416
 5966POPC   PO476512   2.814  11.687   5.368
 5966POPC   GL176513   2.700  11.431   5.733
 5966POPC   GL276514   2.862  11.106   5.761
 5966POPC   C1A76515   2.425  11.314   6.103
 5966POPC   D2A76516   2.519  11.398   6.551
 5966POPC   C3A76517   2.535  11.655   6.921
 5966POPC   C4A76518   2.756  11.447   7.257
 5966POPC   C1B76519   2.894  11.110   6.226
 5966POPC   C2B76520   2.762  10.950   6.634
 5966POPC   C3B76521   2.606  10.998   7.054
 5966POPC   C4B76522   2.817  10.936   7.454
 5967POPC   NC376523   9.244   9.427   5.468
 5967POPC   PO476524   9.112   8.796   5.317
 5967POPC   GL176525   8.950   8.985   5.740
 5967POPC   GL276526   8.767   8.685   5.810
 5967POPC   C1A76527   8.892   9.100   6.222
 5967POPC   D2A76528   8.996   9.352   6.630
 5967POPC   C3A76529   8.920   9.177   7.097
 5967POPC   C4A76530   9.099   9.227   7.540
 5967POPC   C1B76531   9.054   8.600   6.149
 5967POPC   C2B76532   9.069   8.741   6.568
 5967POPC   C3B76533   9.003   8.587   7.006
 5967POPC   C4B76534   9.009   8.741   7.458
 5968POPC   NC376535  35.643  27.436   5.238
 5968POPC   PO476536  36.182  27.840   5.324
 5968POPC   GL176537  36.184  27.634   5.723
 5968POPC   GL276538  35.833  27.541   5.730
 5968POPC   C1A76539  36.133  27.428   6.144
 5968POPC   D2A76540  36.032  27.331   6.596
 5968POPC   C3A76541  36.254  27.578   6.893
 5968POPC   C4A76542  36.179  27.578   7.283
 5968POPC   C1B76543  35.756  27.774   6.146
 5968POPC   C2B76544  35.693  27.751   6.584
 5968POPC   C3B76545  35.751  27.600   6.990
 5968POPC   C4B76546  35.693  27.815   7.398
 5969POPC   NC376547  29.590  19.276   5.521
 5969POPC   PO476548  29.143  18.789   5.325
 5969POPC   GL176549  29.353  18.845   5.745
 5969POPC   GL276550  29.074  18.924   5.995
 5969POPC   C1A76551  29.528  18.783   6.177
 5969POPC   D2A76552  29.412  18.677   6.625
 5969POPC   C3A76553  29.350  18.868   7.023
 5969POPC   C4A76554  28.925  18.950   7.181
 5969POPC   C1B76555  29.300  19.210   6.341
 5969POPC   C2B76556  29.347  19.343   6.791
 5969POPC   C3B76557  29.155  19.432   7.201
 5969POPC   C4B76558  29.023  19.437   7.654
 5970POPC   NC376559  11.734   3.023   5.359
 5970POPC   PO476560  12.135   2.542   5.524
 5970POPC   GL176561  11.829   2.686   5.828
 5970POPC   GL276562  11.819   3.051   5.880
 5970POPC   C1A76563  11.961   2.633   6.241
 5970POPC   D2A76564  12.168   2.542   6.614
 5970POPC   C3A76565  11.962   2.626   6.967
 5970POPC   C4A76566  12.084   2.601   7.350
 5970POPC   C1B76567  11.849   3.115   6.337
 5970POPC   C2B76568  12.121   3.035   6.693
 5970POPC   C3B76569  12.088   3.114   7.144
 5970POPC   C4B76570  11.799   3.008   7.432
 5971W        W76571  33.682  27.986   2.785
 5972W        W76572  42.347  17.210   1.707
 5973W        W76573  44.230  17.142   2.884
 5974W        W76574   5.762   5.496  12.433
 5975W        W76575  39.541  23.083   4.570
 5976W        W76576  11.089  41.410  12.851
 5977W        W76577  16.293  11.246  13.062
 5978W        W76578  23.040   0.777   0.862
 5979W        W76579  21.627  39.908   3.590
 5980W        W76580  29.057  29.618   1.330
 5981W        W76581   3.309  15.559   2.620
 5982W        W76582   9.893   1.407  14.336
 5983W        W76583  25.015   1.478  13.922
 5984W        W76584   7.047  37.184   5.047
 5985W        W76585   4.931  33.577  13.479
 5986W        W76586  30.229  14.171  13.344
 5987W        W76587  17.115   7.403   2.591
 5988W        W76588   6.739  14.665   2.416
 5989W        W76589  39.744  32.716  11.494
 5990W        W76590   9.723  30.039  10.990
 5991W        W76591  26.236  11.075  14.801
 5992W        W76592  40.927   7.629   3.321
 5993W        W76593   8.713  30.590   0.201
 5994W        W76594  11.802  16.656  13.966
 5995W        W76595  33.918  42.848  10.508
 5996W        W76596  14.621  20.947  13.980
 5997W        W76597  34.140  37.397  10.246
 5998W        W76598  41.440  42.393   0.288
 5999W        W76599  24.643  20.617   4.534
 6000W        W76600  28.242   8.456  12.671
 6001W        W76601  39.304  35.372   3.742
 6002W        W76602  35.053  27.486   4.337
 6003W        W76603  23.277  20.591   0.248
 6004W        W76604  41.876   3.427   1.788
 6005W        W76605  17.656  13.926  11.412
 6006W        W76606   0.428   1.717   1.313
 6007W        W76607  42.984   5.200   1.192
 6008W        W76608  27.849  10.306  10.718
 6009W        W76609  39.029  42.947  11.633
 6010W        W76610  19.084  38.801  12.796
 6011W        W76611   3.265   6.017   5.005
 6012W        W76612   4.444   3.278  12.995
 6013W        W76613  23.480  34.936  12.431
 6014W        W76614  43.510  30.125   0.274
 6015W        W76615  27.608  11.663   2.870
 6016W        W76616  11.650  12.758   4.532
 6017W        W76617  44.443  41.231  10.604
 6018W        W76618  27.625  25.553  14.806
 6019W        W76619  27.122   1.337   4.958
 6020W        W76620  13.076  26.727  13.313
 6021W        W76621  11.889   0.680   2.721
 6022W        W76622  25.737   7.273   4.302
 6023W        W76623  34.670  36.537   0.023
 6024W        W76624  36.530  34.331   4.226
 6025W        W76625  37.671  34.083  14.932
 6026W        W76626   6.448  21.637   0.034
 6027W        W76627   4.730  13.209   0.727
 6028W        W76628  42.900  41.518   3.687
 6029W        W76629  20.641  23.075  13.302
 6030W        W76630  22.013   0.520  12.891
 6031W        W76631   3.368  35.588   1.807
 6032W        W76632  36.065  12.116  11.253
 6033W        W76633  34.528  14.028  13.049
 6034W        W76634  23.053   9.939  12.081
 6035W        W76635  44.994  19.761   1.955
 6036W        W76636  19.155  22.271  10.826
 6037W        W76637  16.863  36.309  13.017
 6038W        W76638  21.182  20.459  10.753
 6039W        W76639  15.701  24.970  13.324
 6040W        W76640  41.228  19.818   3.645
 6041W        W76641  19.050  10.105  10.807
 6042W        W76642  24.790  22.275   1.291
 6043W        W76643  36.960  11.404   4.291
 6044W        W76644  42.861  33.606   1.459
 6045W        W76645  30.575  30.145   3.720
 6046W        W76646  10.336  34.356   0.367
 6047W        W76647  18.752   4.887   0.791
 6048W        W76648   6.712  10.134  12.908
 6049W        W76649  24.749   6.742  11.738
 6050W        W76650  33.810   2.981   2.907
 6051W        W76651   5.049  14.157   1.068
 6052W        W76652  19.286   0.457   1.837
 6053W        W76653  32.938  12.738   1.403
 6054W        W76654  10.945  34.322  13.080
 6055W        W76655   9.099  39.508  13.691
 6056W        W76656  30.359  25.061   4.110
 6057W        W76657  27.704  13.291   1.253
 6058W        W76658   1.933  27.401   0.949
 6059W        W76659  19.841  34.704  12.504
 6060W        W76660  42.264   2.302  11.176
 6061W        W76661  26.410   6.793   4.149
 6062W        W76662  27.442  39.943   3.735
 6063W        W76663   0.348  32.797   1.761
 6064W        W76664  12.564  18.052  11.193
 6065W        W76665  43.502  44.011  11.890
 6066W        W76666  18.214  28.017   3.309
 6067W        W76667   7.868  24.784  10.766
 6068W        W76668  18.723  33.851  10.553
 6069W        W76669  38.449  30.377  10.506
 6070W        W76670  31.655  25.095   1.880
 6071W        W76671  16.466  42.254  12.993
 6072W        W76672  44.734  28.114   2.624
 6073W        W76673  28.758   8.821  14.438
 6074W        W76674  39.089  28.193   4.977
 6075W        W76675  34.925  10.183   2.213
 6076W        W76676  10.076  37.981   4.682
 6077W        W76677  14.067  44.429   3.758
 6078W        W76678   6.312  31.673   4.190
 6079W        W76679  36.412  20.292  11.950
 6080W        W76680  23.483   7.427   3.072
 6081W        W76681   5.727  42.540  12.099
 6082W        W76682  11.155  15.364  14.301
 6083W        W76683   4.515  12.326   3.780
 6084W        W76684  13.078  44.664   3.803
 6085W        W76685   6.718  43.932  10.759
 6086W        W76686   7.698   1.971  13.584
 6087W        W76687  15.069  10.330   0.460
 6088W        W76688  32.907  13.595  10.752
 6089W        W76689  44.495  29.211   3.215
 6090W        W76690   4.667  39.417  12.974
 6091W        W76691   1.425  16.889   3.006
 6092W        W76692  43.746  25.422  11.206
 6093W        W76693  15.462  32.399   9.939
 6094W        W76694  35.908   4.229   3.524
 6095W        W76695   1.377  33.893   0.847
 6096W        W76696   3.555  22.028  14.342
 6097W        W76697  13.635  26.486  14.839
 6098W        W76698  37.360  23.519   0.639
 6099W        W76699  41.789  36.873   1.793
 6100W        W76700  16.705  11.864   3.194
 6101W        W76701  43.926   5.937  13.293
 6102W        W76702  30.945  12.106  13.515
 6103W        W76703  43.133  39.374  11.904
 6104W        W76704  23.650  41.533   2.159
 6105W        W76705  19.532   8.297  12.204
 6106W        W76706  41.485  28.161   4.094
 6107W        W76707  30.627  10.958   4.083
 6108W        W76708  43.590  43.009   4.503
 6109W        W76709  22.013  14.408   0.514
 6110W        W76710  30.086   2.322  13.500
 6111W        W76711  27.565   5.561   4.510
 6112W        W76712  32.547  17.211   0.389
 6113W        W76713  24.305  11.066   5.019
 6114W        W76714  42.914  18.571   0.880
 6115W        W76715   1.816  42.984   3.705
 6116W        W76716  44.967  19.603   1.461
 6117W        W76717   2.190  30.033  14.943
 6118W        W76718  33.936  23.569  12.088
 6119W        W76719  39.784  22.413  12.174
 6120W        W76720  29.002  10.241   2.758
 6121W        W76721   9.244  25.254  14.339
 6122W        W76722   2.773  30.330  10.993
 6123W        W76723  39.475  13.026   3.153
 6124W        W76724  15.614   7.693  13.095
 6125W        W76725  34.659  10.156  12.034
 6126W        W76726   5.778   0.767  11.183
 6127W        W76727  31.164   7.821  10.676
 6128W        W76728  34.617  38.553   0.295
 6129W        W76729  31.938  20.688   3.239
 6130W        W76730   8.562  14.810  14.179
 6131W        W76731   0.162  11.922   2.217
 6132W        W76732  15.052   0.660   1.885
 6133W        W76733  15.701   2.773   2.396
 6134W        W76734  43.108  20.125  14.237
 6135W        W76735  37.163  35.917  13.941
 6136W        W76736  15.560  21.131  12.365
 6137W        W76737  14.810  22.899   3.694
 6138W        W76738   6.136   9.287   1.204
 6139W        W76739  33.975  38.818   1.876
 6140W        W76740   6.845  21.744  11.509
 6141W        W76741   6.459  14.224  12.848
 6142W        W76742  21.186  39.915   3.300
 6143W        W76743  19.978  44.339  11.523
 6144W        W76744  10.602  22.213  11.628
 6145W        W76745  11.403  21.792  13.930
 6146W        W76746  13.910  21.302  11.238
 6147W        W76747  26.217  22.988  14.062
 6148W        W76748  32.980   8.284  11.321
 6149W        W76749  26.667  28.717   2.765
 6150W        W76750  14.241  38.109  12.669
 6151W        W76751  14.265  33.638  14.883
 6152W        W76752  11.376  24.731   3.170
 6153W        W76753   9.929  31.751  11.934
 6154W        W76754  21.038   7.352   3.335
 6155W        W76755  15.615  42.370   2.388
 6156W        W76756  34.976  11.362   1.158
 6157W        W76757  42.013   7.132   1.328
 6158W        W76758  25.154   2.472   0.183
 6159W        W76759  31.048  37.718  11.656
 6160W        W76760  31.439  43.907  13.625
 6161W        W76761   6.334  22.237   4.109
 6162W        W76762  30.424  27.124   0.157
 6163W        W76763  27.039  21.444  12.397
 6164W        W76764  15.211   5.999  14.981
 6165W        W76765  31.988   2.600  12.776
 6166W        W76766  23.947  32.028  10.473
 6167W        W76767  13.149  33.547   3.814
 6168W        W76768  23.105  27.273   0.769
 6169W        W76769  21.667  21.452   4.185
 6170W        W76770   8.627  41.507   2.463
 6171W        W76771   3.307  20.549  11.283
 6172W        W76772  35.808  19.116  14.382
 6173W        W76773  25.092   9.623   2.791
 6174W        W76774  38.759  14.387  10.131
 6175W        W76775  31.688  14.406  11.530
 6176W        W76776  42.108  34.653   1.740
 6177W        W76777   2.963  31.253  11.674
 6178W        W76778   6.201  26.661   4.116
 6179W        W76779  19.639  13.210   1.144
 6180W        W76780  44.506   7.880   1.716
 6181W        W76781  22.057   5.677  12.449
 6182W        W76782   0.714  12.153   3.355
 6183W        W76783  32.502  29.894   0.963
 6184W        W76784   6.663  11.262   4.560
 6185W        W76785   1.520   8.402   0.839
 6186W        W76786   6.268  27.933   0.506
 6187W        W76787  31.586   6.085   0.331
 6188W        W76788  35.420   2.922  12.525
 6189W        W76789  15.238  19.996  11.561
 6190W        W76790  25.086   8.883  14.896
 6191W        W76791  44.793  36.495   3.176
 6192W        W76792  36.071  29.236   3.417
 6193W        W76793   7.529   5.492   2.261
 6194W        W76794  15.426  16.493  11.030
 6195W        W76795  26.077   8.769   0.345
 6196W        W76796  36.939  19.611   2.185
 6197W        W76797  44.788  15.252  12.952
 6198W        W76798   0.748  30.800   2.671
 6199W        W76799  22.978  23.025   2.119
 6200W        W76800  11.621  37.917   1.379
 6201W        W76801  26.671  29.048  13.259
 6202W        W76802  34.808  37.040  12.561
 6203W        W76803  35.905  21.752  11.848
 6204W        W76804  44.005  28.656   1.718
 6205W        W76805   6.489  27.672  10.935
 6206W        W76806  13.027  12.834   2.359
 6207W        W76807  12.713  13.596   1.635
 6208W        W76808  25.850  31.127  12.863
 6209W        W76809  37.444  27.805  12.511
 6210W        W76810  29.023  27.961   3.585
 6211W        W76811   0.003  44.480  14.870
 6212W        W76812  29.120  24.729   3.442
 6213W        W76813  16.220  23.634   4.695
 6214W        W76814   7.529  28.680  11.517
 6215W        W76815  14.732  14.689  14.771
 6216W        W76816  23.950  41.018   0.210
 6217W        W76817  26.678  33.873   0.773
 6218W        W76818   9.854  29.893  12.554
 6219W        W76819   8.381  25.892   4.221
 6220W        W76820  36.458  35.272   0.255
 6221W        W76821  21.114  39.709   1.340
 6222W        W76822  22.201  34.774   4.067
 6223W        W76823   3.019   7.743  10.465
 6224W        W76824  37.360  38.213   1.763
 6225W        W76825  32.083   3.886   0.878
 6226W        W76826  16.243  39.862   4.242
 6227W        W76827  33.053   6.872   0.744
 6228W        W76828  44.304  14.806   4.023
 6229W        W76829  13.732  16.478  13.662
 6230W        W76830  15.274  24.999   4.458
 6231W        W76831  37.888  18.642  14.944
 6232W        W76832  40.893  43.626   1.608
 6233W        W76833  36.559  28.065  14.232
 6234W        W76834  35.601  27.334   3.142
 6235W        W76835   3.498   2.121   3.344
 6236W        W76836  11.770  23.019   4.559
 6237W        W76837   7.216  37.652  14.403
 6238W        W76838  22.317  41.074  12.072
 6239W        W76839   5.906  33.521  10.626
 6240W        W76840  34.976  13.371  13.487
 6241W        W76841   8.694  20.144  11.607
 6242W        W76842  15.584  44.215  14.671
 6243W        W76843  22.642  21.213   2.808
 6244W        W76844   9.487   1.270  11.268
 6245W        W76845  13.777  34.358   4.023
 6246W        W76846  16.099   7.206   0.633
 6247W        W76847  44.361  14.223  11.216
 6248W        W76848   6.324  30.413   3.702
 6249W        W76849  44.573  32.629   0.240
 6250W        W76850  14.353  25.557   2.327
 6251W        W76851   2.208   2.192   0.023
 6252W        W76852  32.590  16.660   0.268
 6253W        W76853  40.459  26.377   4.530
 6254W        W76854  38.875   4.295  11.123
 6255W        W76855  10.881  38.676  12.192
 6256W        W76856  35.222  22.343   0.457
 6257W        W76857  28.866  17.619   1.822
 6258W        W76858  20.746  23.156   0.817
 6259W        W76859   2.861  13.755  14.735
 6260W        W76860   8.023  11.600   3.744
 6261W        W76861  25.050  11.139  12.420
 6262W        W76862  18.168  40.174   3.296
 6263W        W76863  14.033  29.296  13.325
 6264W        W76864  35.530  23.467  13.953
 6265W        W76865  15.381   1.943  14.012
 6266W        W76866  38.960   3.173  10.418
 6267W        W76867   6.521   6.231  14.118
 6268W        W76868  30.639  33.080   2.816
 6269W        W76869  26.048   3.758  14.447
 6270W        W76870   1.953  39.774   2.824
 6271W        W76871  42.606  18.859  14.215
 6272W        W76872  36.199  15.379  14.964
 6273W        W76873  23.767   7.320  12.139
 6274W        W76874  29.928  43.314   3.138
 6275W        W76875   2.881  42.224   0.451
 6276W        W76876  12.664  43.587   3.227
 6277W        W76877  24.985  22.513  14.832
 6278W        W76878   4.975  34.456   3.235
 6279W        W76879   9.123  23.457  12.455
 6280W        W76880  44.820  10.346  11.592
 6281W        W76881   6.228  16.521  12.416
 6282W        W76882  43.440  11.446   2.400
 6283W        W76883  28.687   3.710  14.224
 6284W        W76884  25.198   0.389   3.607
 6285W        W76885  15.106  39.500   3.798
 6286W        W76886   1.317  44.855   2.329
 6287W        W76887   8.647   1.812  14.825
 6288W        W76888  29.873  41.126  14.105
 6289W        W76889   7.057  19.553  11.167
 6290W        W76890   4.537   4.788   3.226
 6291W        W76891  38.027  44.633   0.375
 6292W        W76892  38.554  37.653   0.536
 6293W        W76893  35.316  26.721  11.461
 6294W        W76894   3.172   7.379  14.563
 6295W        W76895  38.025  15.906  12.600
 6296W        W76896  40.266  33.358   4.905
 6297W        W76897  11.660  43.756  10.706
 6298W        W76898   4.913  39.753  14.473
 6299W        W76899  27.096  40.377  13.257
 6300W        W76900  35.943  20.440   2.591
 6301W        W76901  37.201  18.846  14.360
 6302W        W76902  31.907   1.223  11.123
 6303W        W76903  13.829  33.416   2.170
 6304W        W76904  16.750  24.637   3.417
 6305W        W76905  42.605  25.032  14.943
 6306W        W76906   8.418  42.238   2.719
 6307W        W76907  26.554  29.767   4.063
 6308W        W76908  32.425  23.799   1.370
 6309W        W76909   5.574  37.883   2.556
 6310W        W76910  17.353  30.665   2.733
 6311W        W76911  21.114  13.421  13.579
 6312W        W76912  23.834  34.614  10.360
 6313W        W76913   0.016  37.971   1.167
 6314W        W76914  39.741   3.211   3.776
 6315W        W76915   9.818  27.225  14.744
 6316W        W76916  29.390  24.956  12.852
 6317W        W76917  27.635   3.781  13.138
 6318W        W76918  42.748  24.899   2.411
 6319W        W76919  25.221  34.168  12.922
 6320W        W76920  20.840   0.073   1.776
 6321W        W76921  26.537  20.264  14.766
 6322W        W76922  24.814  16.553  11.079
 6323W        W76923  10.239   8.468  13.481
 6324W        W76924  37.637   3.799   0.535
 6325W        W76925   4.304  15.351   3.156
 6326W        W76926  28.946  32.022  12.064
 6327W        W76927  29.981  14.296  14.679
 6328W        W76928  13.064  23.049   1.261
 6329W        W76929   6.836   3.148  13.441
 6330W        W76930   2.619  27.972  12.597
 6331W        W76931  17.831  32.474   0.723
 6332W        W76932  24.169  15.297  12.350
 6333W        W76933  26.033  37.118  11.658
 6334W        W76934   8.461  38.233   3.695
 6335W        W76935  15.758  20.488   3.744
 6336W        W76936  34.207  36.368  11.172
 6337W        W76937  32.907   5.855   4.742
 6338W        W76938  33.456  40.000   2.323
 6339W        W76939  26.670  42.913  14.345
 6340W        W76940  36.896   7.816   1.395
 6341W        W76941  34.349  36.467   4.351
 6342W        W76942   2.278  42.009  13.114
 6343W        W76943  18.586  23.697  11.227
 6344W        W76944  28.161  39.799   0.880
 6345W        W76945  36.483  19.232  14.847
 6346W        W76946   1.952  29.052  13.487
 6347W        W76947  42.447   5.215   3.129
 6348W        W76948  42.399   9.204  11.603
 6349W        W76949  18.599   0.687  11.957
 6350W        W76950   8.154  39.272  13.415
 6351W        W76951  14.612  14.172  14.094
 6352W        W76952   0.336  33.185   4.491
 6353W        W76953   2.661  24.505  14.317
 6354W        W76954  30.258   3.939  11.910
 6355W        W76955  16.197   3.688   2.106
 6356W        W76956  28.579  42.386   1.676
 6357W        W76957  40.409  42.214  12.263
 6358W        W76958   9.843   4.343   3.119
 6359W        W76959  44.799   0.436   2.729
 6360W        W76960  32.792  40.803  13.419
 6361W        W76961  34.909  11.867   3.666
 6362W        W76962  16.789  32.957   1.926
 6363W        W76963   4.408   9.097   3.257
 6364W        W76964   2.504  27.049  12.335
 6365W        W76965  18.715  32.705   2.183
 6366W        W76966  12.967  38.552   4.076
 6367W        W76967  25.274  12.098  14.394
 6368W        W76968  14.625   0.896   1.733
 6369W        W76969   6.168  35.322  14.884
 6370W        W76970   6.720  17.843   0.536
 6371W        W76971  19.734  40.398  12.797
 6372W        W76972  40.398   1.031  12.371
 6373W        W76973  42.471  41.005   3.197
 6374W        W76974   5.141  41.539  10.925
 6375W        W76975   7.968  17.418   1.901
 6376W        W76976  19.531  32.985   1.237
 6377W        W76977  29.442  22.554  14.858
 6378W        W76978  19.730  23.263  14.138
 6379W        W76979  25.108  12.839  13.655
 6380W        W76980  43.610  29.864  14.506
 6381W        W76981  11.411   3.203  11.499
 6382W        W76982  19.428  24.751  12.017
 6383W        W76983  41.886   7.216  14.429
 6384W        W76984  18.672  18.054   0.676
 6385W        W76985  40.650  16.104   0.195
 6386W        W76986  36.100   3.356   3.534
 6387W        W76987   1.783  31.357   3.749
 6388W        W76988   2.489  11.378  12.882
 6389W        W76989  28.884   5.735  12.958
 6390W        W76990  32.689  26.589  13.996
 6391W        W76991  44.550  39.474  13.500
 6392W        W76992  40.964  33.496  12.934
 6393W        W76993  18.529  32.375   1.817
 6394W        W76994  39.877  27.529   3.834
 6395W        W76995  44.346  42.344   0.507
 6396W        W76996  20.638  27.708   0.518
 6397W        W76997  10.788  25.661  14.950
 6398W        W76998  22.733  41.552   2.571
 6399W        W76999  17.451  43.339   4.724
 6400W        W77000  28.914  33.585   2.481
 6401W        W77001  17.025   5.508  11.130
 6402W        W77002   6.053  26.697   1.820
 6403W        W77003  16.919  40.490  12.015
 6404W        W77004   0.251  33.015  11.683
 6405W        W77005  13.813  36.068   3.738
 6406W        W77006  43.409  14.591   2.671
 6407W        W77007  30.927  38.911   1.313
 6408W        W77008  13.387   7.800   4.342
 6409W        W77009  26.613  33.910   3.594
 6410W        W77010  35.986  41.934  12.438
 6411W        W77011  22.138  44.549   1.821
 6412W        W77012  16.221   8.882  12.572
 6413W        W77013  29.527  20.344   0.574
 6414W        W77014  10.626  26.640  13.856
 6415W        W77015  26.839  32.379   0.711
 6416W        W77016  12.867   4.824  10.374
 6417W        W77017  23.880  12.491   1.378
 6418W        W77018  14.216  40.271  14.273
 6419W        W77019  35.491   8.739  10.195
 6420W        W77020  25.726   4.925  13.479
 6421W        W77021  44.917   1.370   3.713
 6422W        W77022  36.606  13.144  13.018
 6423W        W77023  26.071  31.496   4.244
 6424W        W77024  25.697  20.061  14.169
 6425W        W77025   6.808   8.920   3.220
 6426W        W77026  27.022  17.149  13.319
 6427W        W77027  14.120  22.243   4.072
 6428W        W77028   4.468  13.268   1.678
 6429W        W77029  26.017  31.971   1.421
 6430W        W77030  13.157  18.935   2.685
 6431W        W77031   5.023  11.760   0.940
 6432W        W77032  42.253  19.722   0.389
 6433W        W77033   2.996  18.233   4.172
 6434W        W77034  16.417  37.986  10.811
 6435W        W77035  15.212  28.032  14.845
 6436W        W77036  43.416  35.960  14.695
 6437W        W77037  25.667  28.103  12.135
 6438W        W77038  42.309  22.532   2.650
 6439W        W77039  11.916  10.624   4.016
 6440W        W77040  19.548  36.839  14.407
 6441W        W77041  16.740  20.994   4.093
 6442W        W77042  28.008  40.132  12.006
 6443W        W77043   8.752  18.060  14.778
 6444W        W77044   8.725  20.300   2.606
 6445W        W77045  35.086  43.473  13.813
 6446W        W77046  25.694   6.783   2.759
 6447W        W77047  22.522  23.463   4.736
 6448W        W77048  26.124  16.717  13.449
 6449W        W77049  37.036  23.756   3.840
 6450W        W77050  22.214   5.990  11.117
 6451W        W77051  11.759  30.169   2.398
 6452W        W77052   7.006  11.242  14.982
 6453W        W77053  10.483  10.884   3.650
 6454W        W77054   5.810  39.969  13.221
 6455W        W77055  27.910  37.785  11.645
 6456W        W77056  17.278  26.110   3.155
 6457W        W77057  35.003  43.002   3.370
 6458W        W77058  14.059   6.733   2.349
 6459W        W77059  18.767  34.310  12.278
 6460W        W77060  38.901  13.828  13.937
 6461W        W77061  23.626  19.726   0.319
 6462W        W77062   5.865   4.681  13.624
 6463W        W77063  13.854  33.161  13.085
 6464W        W77064  13.603  25.672  13.472
 6465W        W77065   5.959   9.310   2.399
 6466W        W77066  27.185  38.751  11.533
 6467W        W77067  24.392  31.095  10.750
 6468W        W77068  42.104  15.341  11.322
 6469W        W77069  10.671  44.694  11.090
 6470W        W77070  18.841  43.752  10.705
 6471W        W77071  44.519   0.397   2.306
 6472W        W77072  43.339  20.651   2.226
 6473W        W77073  22.842   4.320  13.041
 6474W        W77074  15.056   1.679   1.796
 6475W        W77075  40.649  27.242  14.454
 6476W        W77076  37.007  29.055   2.910
 6477W        W77077  11.773  42.284  14.018
 6478W        W77078   4.274  33.813  14.941
 6479W        W77079  31.078   0.180  13.774
 6480W        W77080  34.498  38.865  14.533
 6481W        W77081  29.683  21.022   3.799
 6482W        W77082  27.582   3.723  10.906
 6483W        W77083   1.141  23.167   2.324
 6484W        W77084   8.888  30.956   4.646
 6485W        W77085  10.070  36.111   2.080
 6486W        W77086  37.097  25.921  12.066
 6487W        W77087  13.024  39.049   4.090
 6488W        W77088  24.606  30.138  10.574
 6489W        W77089  41.708  31.462  11.253
 6490W        W77090  36.511  25.421  14.440
 6491W        W77091  13.063  41.942  13.390
 6492W        W77092  22.567  40.456  11.174
 6493W        W77093  21.566  43.891   9.566
 6494W        W77094  40.537  37.523   0.147
 6495W        W77095  36.065  15.640   2.277
 6496W        W77096   5.475  27.750   2.190
 6497W        W77097   9.268   5.023  12.191
 6498W        W77098   5.656  12.034   2.998
 6499W        W77099  26.024  26.895  13.910
 6500W        W77100  42.782   0.786  12.764
 6501W        W77101   6.980   0.317  12.373
 6502W        W77102  43.923  25.198  13.043
 6503W        W77103  30.057  20.684  14.435
 6504W        W77104   1.525   6.319  11.469
 6505W        W77105  33.293  43.504  12.935
 6506W        W77106  25.567  32.924  11.835
 6507W        W77107  37.905   8.450  13.873
 6508W        W77108   4.901   0.412   4.176
 6509W        W77109  25.100  24.732   2.210
 6510W        W77110  30.798  33.021   1.426
 6511W        W77111   5.405   4.784  12.542
 6512W        W77112  19.139  13.632   3.753
 6513W        W77113  21.707  41.820   4.136
 6514W        W77114  25.620  25.534   2.216
 6515W        W77115  28.550   8.813   2.647
 6516W        W77116  17.197  13.758   0.797
 6517W        W77117   3.976  36.930  14.860
 6518W        W77118  28.899  21.597  10.901
 6519W        W77119  17.032  43.029  11.089
 6520W        W77120  22.841  38.684   2.332
 6521W        W77121  29.617  26.809   0.892
 6522W        W77122  28.661  33.067  11.925
 6523W        W77123  24.361  34.976   1.029
 6524W        W77124   0.046  17.773   1.874
 6525W        W77125  36.060  35.398   3.704
 6526W        W77126  12.531   3.433  11.177
 6527W        W77127  31.898  15.738   4.102
 6528W        W77128  31.592   6.709   1.721
 6529W        W77129  19.062  39.236   0.151
 6530W        W77130  40.782  17.844   4.573
 6531W        W77131  36.531  44.494   3.337
 6532W        W77132  15.763   8.984  12.290
 6533W        W77133  16.873  15.490   2.454
 6534W        W77134  44.967   7.043   0.107
 6535W        W77135   6.452  20.061  11.185
 6536W        W77136  13.929  10.583   1.957
 6537W        W77137   0.371  30.655   1.335
 6538W        W77138  41.252   7.367  13.682
 6539W        W77139   0.740  38.106  12.507
 6540W        W77140  21.580  29.407   0.925
 6541W        W77141  17.543  36.437  12.125
 6542W        W77142   6.912  13.105   2.359
 6543W        W77143  18.988  17.759  10.459
 6544W        W77144  12.800  15.238  13.851
 6545W        W77145  12.799  34.192  13.126
 6546W        W77146  33.739  27.717   1.436
 6547W        W77147  42.093   9.958   4.339
 6548W        W77148  14.647  24.177  12.215
 6549W        W77149  20.780  37.796   1.744
 6550W        W77150  11.959  12.501   4.126
 6551W        W77151  29.104  22.585   1.726
 6552W        W77152  40.999   3.671  10.181
 6553W        W77153  36.066  43.646  14.024
 6554W        W77154  21.837   8.025   3.544
 6555W        W77155   9.260  32.778  14.755
 6556W        W77156   5.319   6.240   0.150
 6557W        W77157  44.248  17.260  10.712
 6558W        W77158  33.299  36.026   3.119
 6559W        W77159  36.334  44.743  11.032
 6560W        W77160  37.092  36.892   1.943
 6561W        W77161  36.366   7.261   1.693
 6562W        W77162   6.359   7.878  12.530
 6563W        W77163   5.012  36.252  10.962
 6564W        W77164  16.281  25.594   2.331
 6565W        W77165  34.934   2.939  10.858
 6566W        W77166  32.494  27.958  14.694
 6567W        W77167  30.477  44.669  11.608
 6568W        W77168  33.351   7.729  12.099
 6569W        W77169  43.331  12.173  12.506
 6570W        W77170   3.465   5.192  11.186
 6571W        W77171  43.814  20.061   2.327
 6572W        W77172  26.025  37.393  13.634
 6573W        W77173  21.818  43.536   2.405
 6574W        W77174  31.888  17.309   2.324
 6575W        W77175  31.220  17.591  12.780
 6576W        W77176  39.521  19.239   3.128
 6577W        W77177  22.656  42.684   4.580
 6578W        W77178   2.147   8.095  12.995
 6579W        W77179  25.074   0.595   0.118
 6580W        W77180  35.355   7.819  11.710
 6581W        W77181  16.323  10.322   0.936
 6582W        W77182  10.922  37.912  11.967
 6583W        W77183  26.114  11.296  13.122
 6584W        W77184   5.861  12.292   4.195
 6585W        W77185  44.725   7.311  11.909
 6586W        W77186  12.204  32.931   2.826
 6587W        W77187  16.194   5.702  11.178
 6588W        W77188  24.049  42.239  13.343
 6589W        W77189  40.467  26.110   4.081
 6590W        W77190  20.547   7.634   3.952
 6591W        W77191  43.714  26.530  12.157
 6592W        W77192  32.887   1.507   4.181
 6593W        W77193   1.692   1.724   1.442
 6594W        W77194  43.868   8.329   4.552
 6595W        W77195  36.150  36.358   1.412
 6596W        W77196  19.656  35.732   1.831
 6597W        W77197   6.804  24.717  13.882
 6598W        W77198   2.211  39.251   4.469
 6599W        W77199  23.750   1.083  11.346
 6600W        W77200  41.645   8.591  14.766
 6601W        W77201   5.358  34.782  14.286
 6602W        W77202  43.063  11.834  13.066
 6603W        W77203   6.400  20.196   3.559
 6604W        W77204  14.233  38.290   3.695
 6605W        W77205  25.772  28.707   4.002
 6606W        W77206  20.280  18.318  14.928
 6607W        W77207  10.267  15.085  11.118
 6608W        W77208   6.309  15.758   0.795
 6609W        W77209  17.227  32.122   4.945
 6610W        W77210  30.985  42.611  10.224
 6611W        W77211  32.004   5.360  14.732
 6612W        W77212  33.123   3.160  11.092
 6613W        W77213  42.668  13.902  11.409
 6614W        W77214   7.936  36.827  11.909
 6615W        W77215  30.039   6.761  13.566
 6616W        W77216  22.988  34.279   1.844
 6617W        W77217  17.712   0.393   4.255
 6618W        W77218  17.739  27.931   3.110
 6619W        W77219  33.575  24.069  10.355
 6620W        W77220  23.801   3.260   1.767
 6621W        W77221  12.227   2.911  13.514
 6622W        W77222  26.420  15.618   0.505
 6623W        W77223   5.276  26.670  12.433
 6624W        W77224  33.941  13.399  13.183
 6625W        W77225  26.148  32.554   4.658
 6626W        W77226  15.683  20.099   4.178
 6627W        W77227  30.585  26.386  10.921
 6628W        W77228  43.331  27.128   3.993
 6629W        W77229  36.954  35.042  11.218
 6630W        W77230  38.797  10.375   2.765
 6631W        W77231  38.458  25.617  10.925
 6632W        W77232   7.444  20.090  12.035
 6633W        W77233  10.030   2.133  14.437
 6634W        W77234  17.925  10.268  13.853
 6635W        W77235  31.872   6.300  12.594
 6636W        W77236  41.328  25.788  12.838
 6637W        W77237  11.163  38.312  13.483
 6638W        W77238  40.978  24.012  14.753
 6639W        W77239  29.681  32.898  13.551
 6640W        W77240   7.846  37.765  11.553
 6641W        W77241  43.981   9.996   3.897
 6642W        W77242  39.285   3.506  12.530
 6643W        W77243  18.216   2.444  13.873
 6644W        W77244  30.285   3.104   2.310
 6645W        W77245  10.686  23.849  13.053
 6646W        W77246  32.478  11.967  13.965
 6647W        W77247   3.000  10.216  10.686
 6648W        W77248  16.711  37.407  14.669
 6649W        W77249  16.689  11.363  13.630
 6650W        W77250  20.099  16.357  14.774
 6651W        W77251  15.257  12.588   3.226
 6652W        W77252  17.693  31.762   2.436
 6653W        W77253  25.410  39.342  11.363
 6654W        W77254  44.824  10.267   0.415
 6655W        W77255  43.103  26.151   0.886
 6656W        W77256  18.461  19.200  11.533
 6657W        W77257   0.879   0.829  14.083
 6658W        W77258  37.541  38.281  12.105
 6659W        W77259  20.437   5.435  10.495
 6660W        W77260  31.005  42.557  12.023
 6661W        W77261  39.481  20.912   3.325
 6662W        W77262  25.632  28.106   3.242
 6663W        W77263  18.016  24.526  11.082
 6664W        W77264  18.823  42.031   0.944
 6665W        W77265   0.866  18.998   0.426
 6666W        W77266   7.150  18.592  14.557
 6667W        W77267  44.443  24.701   4.699
 6668W        W77268  22.874  35.673  12.138
 6669W        W77269  42.077  22.188   0.545
 6670W        W77270   5.008   2.314  11.059
 6671W        W77271  37.588   7.035   4.103
 6672W        W77272  30.006  32.295   0.823
 6673W        W77273  22.947   3.444  14.366
 6674W        W77274  28.429   9.387  11.595
 6675W        W77275  25.284  16.091   1.869
 6676W        W77276  20.595  41.879   1.871
 6677W        W77277  33.605  27.252  10.037
 6678W        W77278  23.631   3.402  12.564
 6679W        W77279   9.292   5.618   3.202
 6680W        W77280  25.860   1.136  11.902
 6681W        W77281  30.960   4.855   0.345
 6682W        W77282  26.764  23.741  12.501
 6683W        W77283   9.741  32.838  11.664
 6684W        W77284  24.354  40.068   2.157
 6685W        W77285  40.921  30.082  13.462
 6686W        W77286  26.184  27.638   1.399
 6687W        W77287  30.766  10.831  11.376
 6688W        W77288  27.121  31.417   3.241
 6689W        W77289   3.442   9.786   1.953
 6690W        W77290  15.608  20.480   1.227
 6691W        W77291  13.014  14.648  13.725
 6692W        W77292  27.207  31.640  14.324
 6693W        W77293  26.668  14.207  13.029
 6694W        W77294  34.435  38.412  14.771
 6695W        W77295  12.230  20.284   3.702
 6696W        W77296  15.952  17.880  14.775
 6697W        W77297  14.525  20.055  14.259
 6698W        W77298  28.234   8.211   0.523
 6699W        W77299   1.118  42.379   2.389
 6700W        W77300  15.585  14.808   0.283
 6701W        W77301  39.468  10.690  14.537
 6702W        W77302  42.737  35.185   5.001
 6703W        W77303  32.391  30.094  11.556
 6704W        W77304  43.322   0.791   5.039
 6705W        W77305  15.695  32.999  12.762
 6706W        W77306  24.023   7.336  11.472
 6707W        W77307   5.594  40.524  12.524
 6708W        W77308   1.863  15.584  13.044
 6709W        W77309  36.185  17.168  13.488
 6710W        W77310   5.372  26.976   4.180
 6711W        W77311  43.270  21.260   0.742
 6712W        W77312  17.618  13.482   2.214
 6713W        W77313  38.299  41.427  12.505
 6714W        W77314  28.203  43.952   2.971
 6715W        W77315  21.439  33.654  10.693
 6716W        W77316  34.163  24.758   3.838
 6717W        W77317  31.960  24.016  11.552
 6718W        W77318  31.543   5.198  14.930
 6719W        W77319   4.871   0.109   4.600
 6720W        W77320  33.150  31.101   2.906
 6721W        W77321  15.257  16.172   1.926
 6722W        W77322  18.513  23.548  14.329
 6723W        W77323  14.109  24.585   0.944
 6724W        W77324   3.203  15.209  10.580
 6725W        W77325  22.531  38.575   3.172
 6726W        W77326  11.155  26.278  14.459
 6727W        W77327  25.644  42.925   4.522
 6728W        W77328  17.628  26.191  12.130
 6729W        W77329  39.476  22.677   1.156
 6730W        W77330  40.507  19.365   3.159
 6731W        W77331  40.947  27.465  10.621
 6732W        W77332  31.613  35.135  13.823
 6733W        W77333   4.972   2.370  12.037
 6734W        W77334  26.666  41.428   2.710
 6735W        W77335   1.807  37.913   2.078
 6736W        W77336   1.740  32.799   2.132
 6737W        W77337  11.818  22.490  14.941
 6738W        W77338   2.892  19.715  11.062
 6739W        W77339  15.056  12.284  11.152
 6740W        W77340  27.449  23.131  12.895
 6741W        W77341  20.111   5.283   1.376
 6742W        W77342  13.141  24.270  13.197
 6743W        W77343  28.532   4.256   0.536
 6744W        W77344   8.707  18.069   1.367
 6745W        W77345   5.215  22.284   2.928
 6746W        W77346   9.249  40.016  11.127
 6747W        W77347  20.758  21.159  11.640
 6748W        W77348  20.935  27.735   0.929
 6749W        W77349   7.833  44.084  13.541
 6750W        W77350  13.167  31.972   4.046
 6751W        W77351  18.802  11.631   3.872
 6752W        W77352  27.756   1.379   2.254
 6753W        W77353  23.718  14.883   1.881
 6754W        W77354  36.091  40.491  14.897
 6755W        W77355  22.140  44.915  14.970
 6756W        W77356   7.410  19.187   3.354
 6757W        W77357  10.298   5.772  12.367
 6758W        W77358  32.732  16.802   3.734
 6759W        W77359  15.066   3.430   0.177
 6760W        W77360  30.948   4.451   3.733
 6761W        W77361  10.270   1.697  12.532
 6762W        W77362  42.640  28.441  10.675
 6763W        W77363  33.850  41.316   3.659
 6764W        W77364   0.769  30.850  13.721
 6765W        W77365   1.953  42.335  11.689
 6766W        W77366  34.874  23.728   4.202
 6767W        W77367   1.229  29.300  13.154
 6768W        W77368  11.675  15.226   2.891
 6769W        W77369  39.891  26.600   0.992
 6770W        W77370  25.077   1.791  13.485
 6771W        W77371   5.435  16.193  14.300
 6772W        W77372  27.991  20.065  13.942
 6773W        W77373  27.625  21.452   3.228
 6774W        W77374  11.446  24.453  12.447
 6775W        W77375  40.626  20.710  10.135
 6776W        W77376  13.194  32.502   2.202
 6777W        W77377  22.051  10.336   0.453
 6778W        W77378  22.172  41.933  10.469
 6779W        W77379   7.193  44.422   3.665
 6780W        W77380  15.095  23.782  13.938
 6781W        W77381   7.405   7.345   2.159
 6782W        W77382  29.573  17.324   3.455
 6783W        W77383  43.235  44.312  14.366
 6784W        W77384   2.919  25.708   1.794
 6785W        W77385   1.210  19.609  13.001
 6786W        W77386  40.691  37.565   5.081
 6787W        W77387   9.254   7.374  10.788
 6788W        W77388  36.809  30.079  11.652
 6789W        W77389   9.361  11.236   1.875
 6790W        W77390  14.055   6.144  11.112
 6791W        W77391  12.090  22.174  10.662
 6792W        W77392  17.581  40.418   3.717
 6793W        W77393  24.450  14.776   0.953
 6794W        W77394  32.150  23.125  13.547
 6795W        W77395  31.302  30.564   1.950
 6796W        W77396  31.682  20.368  12.579
 6797W        W77397  36.110  44.880   2.210
 6798W        W77398  34.203  35.759   3.227
 6799W        W77399  39.390  13.193  10.552
 6800W        W77400  42.292  26.237  13.739
 6801W        W77401  23.185  13.907  11.995
 6802W        W77402  31.108  40.558  12.901
 6803W        W77403  13.666  38.265   0.040
 6804W        W77404  38.356  21.486  12.051
 6805W        W77405  41.296   8.323  12.012
 6806W        W77406   0.369   1.708   2.652
 6807W        W77407   8.891  35.163  12.062
 6808W        W77408  18.170  14.571  12.546
 6809W        W77409  14.851  23.259  13.451
 6810W        W77410   8.909   2.803  10.909
 6811W        W77411  22.301  29.377  14.732
 6812W        W77412  18.906  14.804   0.918
 6813W        W77413  16.646  42.527   1.993
 6814W        W77414  38.838  15.712   2.176
 6815W        W77415  19.485  39.472  13.637
 6816W        W77416   4.604  42.430   3.541
 6817W        W77417  32.942  41.815   0.709
 6818W        W77418   1.279  22.636   2.379
 6819W        W77419  43.428  28.701  13.343
 6820W        W77420  32.303  15.416  11.139
 6821W        W77421  10.154   9.010  13.353
 6822W        W77422  11.113   1.701  14.787
 6823W        W77423  36.609  14.374   2.741
 6824W        W77424  39.852  29.250  10.700
 6825W        W77425  31.675  10.803  11.972
 6826W        W77426   5.672  29.920   3.609
 6827W        W77427  42.806  18.570   1.812
 6828W        W77428  35.561  31.101  14.264
 6829W        W77429  25.134  36.160   3.305
 6830W        W77430  31.384  25.870   3.136
 6831W        W77431   1.303   9.677   0.603
 6832W        W77432  12.279   4.657  11.616
 6833W        W77433   1.805  38.132  12.299
 6834W        W77434  28.132   6.440  10.649
 6835W        W77435  16.646  25.982  13.956
 6836W        W77436  37.891  44.874  10.757
 6837W        W77437  44.197  38.663   0.151
 6838W        W77438  41.973  44.912   1.233
 6839W        W77439   4.722  22.457   1.608
 6840W        W77440  20.726  42.680   4.626
 6841W        W77441  26.719  25.769   1.351
 6842W        W77442   9.383  10.169  11.048
 6843W        W77443   4.701  42.248  10.621
 6844W        W77444   6.412  24.730   4.115
 6845W        W77445  21.453  16.294  14.258
 6846W        W77446   8.680  24.284  14.946
 6847W        W77447   2.875  11.363   1.831
 6848W        W77448   7.594  38.942   2.302
 6849W        W77449   0.212   5.922  13.866
 6850W        W77450  28.931  15.075   3.649
 6851W        W77451  22.015  17.508   3.877
 6852W        W77452  30.537  28.768   3.831
 6853W        W77453  22.610  26.485   3.285
 6854W        W77454  12.730  40.990   2.767
 6855W        W77455  16.461  34.553  10.594
 6856W        W77456   2.274  40.843   2.223
 6857W        W77457  24.302  27.465   4.166
 6858W        W77458  28.662  26.168   3.534
 6859W        W77459  17.772  41.008  13.559
 6860W        W77460  32.333  23.120   1.700
 6861W        W77461  42.573  42.266  14.037
 6862W        W77462  19.752  25.109   0.422
 6863W        W77463  27.473   6.048   4.627
 6864W        W77464   1.513  27.755  13.885
 6865W        W77465   7.165  28.535  12.836
 6866W        W77466  10.788  38.961  10.526
 6867W        W77467  17.273  17.090  11.722
 6868W        W77468   7.304   3.479  13.373
 6869W        W77469   2.355  15.166  14.400
 6870W        W77470  37.984  28.716   0.670
 6871W        W77471  39.556  17.482   3.940
 6872W        W77472   7.772  14.335   0.369
 6873W        W77473  34.860   7.743  11.885
 6874W        W77474   7.455  39.016  11.227
 6875W        W77475  27.278   4.452  10.900
 6876W        W77476  32.738  24.244  12.035
 6877W        W77477  21.105   8.853  12.225
 6878W        W77478  20.777  13.027   0.229
 6879W        W77479   3.204  32.839  10.649
 6880W        W77480  11.813  33.877  14.902
 6881W        W77481  29.953  12.828  12.578
 6882W        W77482   6.975  19.382  14.435
 6883W        W77483  10.232   3.270  13.343
 6884W        W77484   9.694  21.950   3.543
 6885W        W77485  31.171  22.649  12.947
 6886W        W77486  16.303  23.579  12.482
 6887W        W77487  37.878  28.426  13.463
 6888W        W77488  34.710  31.406   4.244
 6889W        W77489  42.731  11.313  11.115
 6890W        W77490  23.594  15.214   3.891
 6891W        W77491  11.077   7.371  14.581
 6892W        W77492  40.018  22.909  11.200
 6893W        W77493  13.818  26.899   3.279
 6894W        W77494  13.188  14.366  12.493
 6895W        W77495  44.386  38.355   3.304
 6896W        W77496  38.046   2.706   4.266
 6897W        W77497  17.826   2.475   1.748
 6898W        W77498  28.920   7.367   2.940
 6899W        W77499  31.946  33.129   2.885
 6900W        W77500   2.790  44.288   4.218
 6901W        W77501  10.674  10.971  11.557
 6902W        W77502  16.667  26.734  13.427
 6903W        W77503  28.268   0.932  12.883
 6904W        W77504  43.966  37.653   0.310
 6905W        W77505  43.857  17.597  11.646
 6906W        W77506   1.286  17.138   1.450
 6907W        W77507  35.668  27.097  11.596
 6908W        W77508   2.351  36.703   2.330
 6909W        W77509  14.189  34.348  13.092
 6910W        W77510  24.027  16.919   1.294
 6911W        W77511  26.554  25.574  12.388
 6912W        W77512   9.167   8.422   0.266
 6913W        W77513   2.342   3.767  10.970
 6914W        W77514  25.931  34.068   2.346
 6915W        W77515  41.890   2.146   0.749
 6916W        W77516  27.203  44.409   4.795
 6917W        W77517   8.125  11.203  10.679
 6918W        W77518  40.986   1.705   1.013
 6919W        W77519  26.632   1.438  14.522
 6920W        W77520  25.043  20.617  12.193
 6921W        W77521  30.509  17.831  13.353
 6922W        W77522  41.861  29.588   0.155
 6923W        W77523  28.545   6.740  12.553
 6924W        W77524  34.472   9.643   4.703
 6925W        W77525   1.389  31.433  13.298
 6926W        W77526   9.651  14.164  14.435
 6927W        W77527  12.586   8.492  11.122
 6928W        W77528   8.241  42.351   3.624
 6929W        W77529  32.312  42.267   1.326
 6930W        W77530  11.395   5.143   0.773
 6931W        W77531  25.352  34.340   1.132
 6932W        W77532  20.235   1.370  14.978
 6933W        W77533  18.139  38.957   1.749
 6934W        W77534   9.206  39.440  14.197
 6935W        W77535  10.421  35.785   0.303
 6936W        W77536  34.151  43.411  11.683
 6937W        W77537   2.514  26.141  11.681
 6938W        W77538  37.304  10.870  10.828
 6939W        W77539  19.414  41.786  11.632
 6940W        W77540   4.520  43.755   4.169
 6941W        W77541  17.599  19.529  13.921
 6942W        W77542  13.818   5.481  12.968
 6943W        W77543  35.887  41.751   0.774
 6944W        W77544  34.639  16.266   4.641
 6945W        W77545  11.277  33.531  14.879
 6946W        W77546   3.763  13.405   2.096
 6947W        W77547  18.784  17.342  13.404
 6948W        W77548  32.140  38.776  11.233
 6949W        W77549  29.669  30.468  10.770
 6950W        W77550  25.904   4.422   0.207
 6951W        W77551  43.945  42.394  13.452
 6952W        W77552  37.678  14.603  10.989
 6953W        W77553   9.164  13.588  11.480
 6954W        W77554  10.580  38.472   9.967
 6955W        W77555  12.303  16.072   4.599
 6956W        W77556  43.571   1.981  12.102
 6957W        W77557   8.204  16.712  10.713
 6958W        W77558  36.941   8.141   4.679
 6959W        W77559   5.942   7.387  10.699
 6960W        W77560   4.101  17.129  10.559
 6961W        W77561  35.203  14.356  14.016
 6962W        W77562  38.115   4.206  11.578
 6963W        W77563  25.467  44.335  11.128
 6964W        W77564  19.552   7.715   3.197
 6965W        W77565  38.549  41.622   1.459
 6966W        W77566   4.811  26.808  13.011
 6967W        W77567   7.192  44.938   2.827
 6968W        W77568  21.714  38.986   0.307
 6969W        W77569  38.944  40.137  12.186
 6970W        W77570   6.713  43.972   2.682
 6971W        W77571  29.475  19.845  11.271
 6972W        W77572  19.529  44.047  12.349
 6973W        W77573  39.275  12.621   4.068
 6974W        W77574  38.366  19.639   2.469
 6975W        W77575   4.409   9.162  12.891
 6976W        W77576  44.511  37.541   2.758
 6977W        W77577  28.138  19.304  12.830
 6978W        W77578  14.688  27.638   3.701
 6979W        W77579   1.613  43.152   5.099
 6980W        W77580  25.594  24.028  12.047
 6981W        W77581  32.267  36.778   0.278
 6982W        W77582  19.251  21.847  13.691
 6983W        W77583   2.178   9.606  14.470
 6984W        W77584  35.367  30.124  11.504
 6985W        W77585   1.185   5.935   3.325
 6986W        W77586  18.303   8.945  11.701
 6987W        W77587  43.991   2.015  13.775
 6988W        W77588  40.152   1.296   2.277
 6989W        W77589   4.825  34.641   2.793
 6990W        W77590  22.221  27.185   0.971
 6991W        W77591   6.092   5.218   4.006
 6992W        W77592  13.906  33.431  11.567
 6993W        W77593  38.670  42.972  11.997
 6994W        W77594  30.927   3.113   4.083
 6995W        W77595  22.332  34.561   3.625
 6996W        W77596  23.284  40.947  10.968
 6997W        W77597  36.465  10.940  12.618
 6998W        W77598   7.431  30.441  11.613
 6999W        W77599  27.155  16.360   1.124
 7000W        W77600  36.725  43.611   3.738
 7001W        W77601  42.334  22.122   1.494
 7002W        W77602  21.170  29.719   1.693
 7003W        W77603   3.778  43.887   2.728
 7004W        W77604  44.045   3.461   2.322
 7005W        W77605  30.061  32.369  11.324
 7006W        W77606  11.854  16.829   4.637
 7007W        W77607  28.017  20.377  12.023
 7008W        W77608  40.792   5.469   2.365
 7009W        W77609  37.190  42.272  10.628
 7010W        W77610  27.989  36.168  14.403
 7011W        W77611  40.299  25.595  10.425
 7012W        W77612  33.008  18.028   3.454
 7013W        W77613  23.097  27.726  10.573
 7014W        W77614  34.986  10.337   4.601
 7015W        W77615  37.512  14.253   3.096
 7016W        W77616  23.523  36.029  12.033
 7017W        W77617   9.676  38.883   3.887
 7018W        W77618  23.050  15.393  13.835
 7019W        W77619  21.866  20.950   4.212
 7020W        W77620   4.003   8.777  11.690
 7021W        W77621  41.248   4.807  14.037
 7022W        W77622  33.517   6.456   0.059
 7023W        W77623  20.748  20.781  12.062
 7024W        W77624  26.001  40.430   0.212
 7025W        W77625  13.244  34.412   0.873
 7026W        W77626  24.992  20.005   2.787
 7027W        W77627  16.174  35.412   1.677
 7028W        W77628  18.403  17.882  13.908
 7029W        W77629  34.858  37.666   0.795
 7030W        W77630  30.857  19.333  11.859
 7031W        W77631  15.748  25.023   0.774
 7032W        W77632   3.778  29.648  11.589
 7033W        W77633   4.392  15.833   3.639
 7034W        W77634  24.632  36.557   1.644
 7035W        W77635  23.954   5.825  14.290
 7036W        W77636  39.221  26.854  12.649
 7037W        W77637  28.267  20.006   4.793
 7038W        W77638   7.838   2.050  11.178
 7039W        W77639  34.849  12.388   3.652
 7040W        W77640   4.375  25.009  13.016
 7041W        W77641  32.103  24.517   2.378
 7042W        W77642   0.150  24.251  14.970
 7043W        W77643  27.952  30.776  12.868
 7044W        W77644  43.951  38.641  13.866
 7045W        W77645  39.467  17.214  11.424
 7046W        W77646   0.691  15.874  14.444
 7047W        W77647  27.252  35.458   4.190
 7048W        W77648  30.717  38.714  12.431
 7049W        W77649   6.112  17.023  14.008
 7050W        W77650  30.625   1.832   1.541
 7051W        W77651  10.082   5.859  13.768
 7052W        W77652  28.408   2.777   0.839
 7053W        W77653   9.402  42.520   0.042
 7054W        W77654  10.402  15.597  13.453
 7055W        W77655   8.320  39.896   1.765
 7056W        W77656  33.508   7.668   1.431
 7057W        W77657  21.948   3.678   0.821
 7058W        W77658   4.017   3.064   0.713
 7059W        W77659  14.166  31.563  12.167
 7060W        W77660  32.614  10.615   4.100
 7061W        W77661   9.428  26.459  14.774
 7062W        W77662  44.258  36.380   2.325
 7063W        W77663  25.777   0.680   4.911
 7064W        W77664  31.529  12.402  10.663
 7065W        W77665  33.140   1.468   2.839
 7066W        W77666  20.076   9.856  11.123
 7067W        W77667  31.417   1.344   1.154
 7068W        W77668  10.348   6.648  13.800
 7069W        W77669  21.808  28.517  14.865
 7070W        W77670  12.164  19.661   4.840
 7071W        W77671   7.714   1.344   0.145
 7072W        W77672  37.927  33.994   3.236
 7073W        W77673  41.815   9.805  10.672
 7074W        W77674  44.420  41.495  13.091
 7075W        W77675   2.475  10.634   2.604
 7076W        W77676  14.190  37.386   3.676
 7077W        W77677   4.878   8.233   1.462
 7078W        W77678  24.622  39.492  10.678
 7079W        W77679  23.640   3.856   0.869
 7080W        W77680   9.490  38.942   2.584
 7081W        W77681  28.613  20.152   3.256
 7082W        W77682  16.763   7.082   3.494
 7083W        W77683  36.005  11.806   3.172
 7084W        W77684  39.478  20.535  12.136
 7085W        W77685   3.485   4.240  12.608
 7086W        W77686  24.305  39.598  10.277
 7087W        W77687  16.362   7.638  14.709
 7088W        W77688  32.221  16.760   3.751
 7089W        W77689  25.195  11.912  11.198
 7090W        W77690  33.646  39.599   5.883
 7091W        W77691   9.158  23.054   4.483
 7092W        W77692  27.652  34.549   4.958
 7093W        W77693  30.150  28.185  14.467
 7094W        W77694  30.200  40.712   2.323
 7095W        W77695  21.196  28.149   0.703
 7096W        W77696   9.130  12.654   1.179
 7097W        W77697  30.367   8.818  14.855
 7098W        W77698   1.031  42.883   2.191
 7099W        W77699  10.356  16.620   4.998
 7100W        W77700  36.816  38.267  12.516
 7101W        W77701   8.601  30.054   1.960
 7102W        W77702  37.494   8.300   1.722
 7103W        W77703  24.038  17.504   2.136
 7104W        W77704  32.715  14.572   0.023
 7105W        W77705  30.695  30.041  12.152
 7106W        W77706   4.776  33.946   0.756
 7107W        W77707   7.538  32.243  12.925
 7108W        W77708  35.414  13.275  14.779
 7109W        W77709  22.525   1.547  10.645
 7110W        W77710  34.366  22.500  10.734
 7111W        W77711  21.486  17.220   2.357
 7112W        W77712  33.383  25.949  13.097
 7113W        W77713   0.389  18.793  14.313
 7114W        W77714  32.380  20.455  11.173
 7115W        W77715   4.434   6.500   2.311
 7116W        W77716  24.656   8.314   2.757
 7117W        W77717   8.253   6.280   0.345
 7118W        W77718  23.177   6.451  12.171
 7119W        W77719  40.274  25.181  11.140
 7120W        W77720  27.452  34.062   3.881
 7121W        W77721  24.725  21.785  11.270
 7122W        W77722  21.714   8.749  14.030
 7123W        W77723  34.399   3.255  12.962
 7124W        W77724   1.724  19.586  12.852
 7125W        W77725  23.176  24.696   4.214
 7126W        W77726  21.529  21.535   1.855
 7127W        W77727  10.327   4.379   2.282
 7128W        W77728  39.428  23.008   3.808
 7129W        W77729  44.054  43.868   0.189
 7130W        W77730   2.690  31.344   0.819
 7131W        W77731  16.082  32.852   0.746
 7132W        W77732   3.240  44.436  11.204
 7133W        W77733  12.602  44.003   2.875
 7134W        W77734  18.148   5.779   1.185
 7135W        W77735  23.149  26.292  13.330
 7136W        W77736  11.616  23.918  13.501
 7137W        W77737  30.100   9.439  10.770
 7138W        W77738  41.252  31.908   4.627
 7139W        W77739  30.007  26.468   2.754
 7140W        W77740  21.589   3.862  13.859
 7141W        W77741  25.795  14.465  13.146
 7142W        W77742  29.674  41.301   4.890
 7143W        W77743  41.827  25.266  11.120
 7144W        W77744  26.048  24.991   2.803
 7145W        W77745   4.258  27.016   4.312
 7146W        W77746   1.988  24.961   1.428
 7147W        W77747  27.218  34.438  11.239
 7148W        W77748  41.726  42.372  14.854
 7149W        W77749  14.124  25.157   1.699
 7150W        W77750  19.125  40.487   3.340
 7151W        W77751  43.799  35.890  12.790
 7152W        W77752  36.554  27.740   0.020
 7153W        W77753  28.854  29.831  14.736
 7154W        W77754   3.595  36.743   1.127
 7155W        W77755  35.377  18.028   2.885
 7156W        W77756  35.634  33.552   0.449
 7157W        W77757  38.866  31.596  13.334
 7158W        W77758  39.342  15.677   3.444
 7159W        W77759  22.891  34.893   3.066
 7160W        W77760  17.238  33.766  11.961
 7161W        W77761   0.894  36.180   3.679
 7162W        W77762   5.160  15.771  12.054
 7163W        W77763   3.412   2.950  10.716
 7164W        W77764  18.897  25.490   1.196
 7165W        W77765  36.470   3.209   4.305
 7166W        W77766  28.128  44.497  10.912
 7167W        W77767  11.446  30.465  13.828
 7168W        W77768  18.790  19.270  11.115
 7169W        W77769   2.752  43.771   1.850
 7170W        W77770  19.986  23.730   3.140
 7171W        W77771  31.119  33.875  13.950
 7172W        W77772   7.424  10.392  10.806
 7173W        W77773  26.516   6.237  12.796
 7174W        W77774  21.601   5.543  14.478
 7175W        W77775  38.056  28.946   1.522
 7176W        W77776  30.426   0.270  10.644
 7177W        W77777   3.283  33.916   4.194
 7178W        W77778  13.852   8.740   3.548
 7179W        W77779  10.692  21.491   2.376
 7180W        W77780  20.765  14.121   4.448
 7181W        W77781  12.129   7.527  14.378
 7182W        W77782   8.902  29.314   2.704
 7183W        W77783  28.661  18.190   0.467
 7184W        W77784   7.914   4.358  14.243
 7185W        W77785  44.850   8.848  14.769
 7186W        W77786  10.044   6.246  10.652
 7187W        W77787  11.789  25.292  14.965
 7188W        W77788  31.398  10.079   0.066
 7189W        W77789  33.600   2.736   0.378
 7190W        W77790  36.912   5.921  10.952
 7191W        W77791  35.663  10.808  13.954
 7192W        W77792  22.038  39.003   0.715
 7193W        W77793  16.646   5.460  12.417
 7194W        W77794   3.407  23.223   1.838
 7195W        W77795  26.961  30.207  14.865
 7196W        W77796  23.104   4.762   4.185
 7197W        W77797  43.393  24.163  11.940
 7198W        W77798  15.612  24.946   2.262
 7199W        W77799  44.486  25.514   2.311
 7200W        W77800  30.529  43.366  14.229
 7201W        W77801  43.577  27.452  11.925
 7202W        W77802  37.536  26.375   1.626
 7203W        W77803  13.066  27.534   1.850
 7204W        W77804  15.850  25.647   1.263
 7205W        W77805  35.473   6.002   1.634
 7206W        W77806  26.861  25.263   3.804
 7207W        W77807  37.867  13.748   2.313
 7208W        W77808   7.874  36.621  10.757
 7209W        W77809  33.957  35.062   2.203
 7210W        W77810   2.222  30.907   2.813
 7211W        W77811  16.517  40.989   4.179
 7212W        W77812  38.057   1.583  12.645
 7213W        W77813  11.057  32.628   0.309
 7214W        W77814  27.956   6.502   0.367
 7215W        W77815  19.570  11.968   1.195
 7216W        W77816  38.103  44.441   1.295
 7217W        W77817  25.698   5.224  11.619
 7218W        W77818  21.752  40.831   1.619
 7219W        W77819  34.923  28.908  11.622
 7220W        W77820  29.268  17.625  13.315
 7221W        W77821  36.675  41.282   0.430
 7222W        W77822   6.279  38.359  14.089
 7223W        W77823  35.400   2.330   4.784
 7224W        W77824   9.202  32.194   4.759
 7225W        W77825  32.091   7.754  12.983
 7226W        W77826  13.728  13.391   2.181
 7227W        W77827   4.777   7.695   3.228
 7228W        W77828   5.384  32.555  12.479
 7229W        W77829  17.691  44.484   0.224
 7230W        W77830   7.477  42.995  11.259
 7231W        W77831  32.039  18.064   4.533
 7232W        W77832  40.795  40.788  13.950
 7233W        W77833  20.799  38.653  13.008
 7234W        W77834  15.885  18.194   1.225
 7235W        W77835  25.522  39.523   2.489
 7236W        W77836   4.432  37.706   2.798
 7237W        W77837  31.944   4.831   3.257
 7238W        W77838  44.846  31.192  11.305
 7239W        W77839  27.477  20.696  14.806
 7240W        W77840   7.671  26.085   1.838
 7241W        W77841   8.946  20.196   3.059
 7242W        W77842  33.811  31.517  12.339
 7243W        W77843   6.485  39.964   1.850
 7244W        W77844  40.315  32.975  11.058
 7245W        W77845   9.805  35.064  10.431
 7246W        W77846  25.553  21.650  11.807
 7247W        W77847  38.071  27.735  12.012
 7248W        W77848  26.725  38.450  13.919
 7249W        W77849  17.472  35.582   0.812
 7250W        W77850   7.252  16.704  10.865
 7251W        W77851  12.542  36.024  11.020
 7252W        W77852   8.836   4.479  13.853
 7253W        W77853   2.032  18.357  14.820
 7254W        W77854  13.081   6.399  14.982
 7255W        W77855   4.021   0.822  14.058
 7256W        W77856  30.084  37.775   0.255
 7257W        W77857   1.702   6.891  13.340
 7258W        W77858  24.403  31.315  12.089
 7259W        W77859  41.490  39.578   0.016
 7260W        W77860  42.777  28.148  14.308
 7261W        W77861  26.146   4.665   4.138
 7262W        W77862  19.810  26.558   0.837
 7263W        W77863  14.122  11.555   3.781
 7264W        W77864  15.400  31.059  12.405
 7265W        W77865  22.218  17.246  10.506
 7266W        W77866  31.907  35.643   0.850
 7267W        W77867  32.117  14.908   1.520
 7268W        W77868   8.287  19.085   4.614
 7269W        W77869  22.767  37.057   2.815
 7270W        W77870  11.536  16.490  11.655
 7271W        W77871  28.638  12.751  11.157
 7272W        W77872  15.629  44.386   3.614
 7273W        W77873  18.990  10.068  11.346
 7274W        W77874  33.069   3.392   3.608
 7275W        W77875  10.280   5.801   1.637
 7276W        W77876   3.318  29.757  12.466
 7277W        W77877  23.797  37.336  14.658
 7278W        W77878   7.933  42.833   4.983
 7279W        W77879  30.124   3.750   2.890
 7280W        W77880  25.538  30.500   0.905
 7281W        W77881  29.643   9.206   4.574
 7282W        W77882  43.202   2.248  11.871
 7283W        W77883  27.844  37.007   0.281
 7284W        W77884  43.795  19.211  11.250
 7285W        W77885  14.515  38.964  10.598
 7286W        W77886  21.934  32.339   1.698
 7287W        W77887  27.052  21.918   4.699
 7288W        W77888   2.348   2.968  13.305
 7289W        W77889  33.127  15.349  12.961
 7290W        W77890  35.015   9.495  14.846
 7291W        W77891   3.823   4.736   0.724
 7292W        W77892  28.455  18.143  10.701
 7293W        W77893  37.745   0.221   4.577
 7294W        W77894   2.335  32.475   0.490
 7295W        W77895   7.812  13.620  13.414
 7296W        W77896   7.495  17.183  10.529
 7297W        W77897  11.609  29.063   3.145
 7298W        W77898  11.174  28.021   2.366
 7299W        W77899   6.378  14.012  13.835
 7300W        W77900  42.271  16.756  10.750
 7301W        W77901  17.049  35.472   5.323
 7302W        W77902   3.653   5.822  10.988
 7303W        W77903  18.058   0.868   3.138
 7304W        W77904  18.783  22.667  11.345
 7305W        W77905  19.451  35.429  13.548
 7306W        W77906  19.715  35.138   1.760
 7307W        W77907  42.419  43.742   1.635
 7308W        W77908  43.735  20.027   4.976
 7309W        W77909  32.151   3.199  13.336
 7310W        W77910   4.667   2.827  13.119
 7311W        W77911  37.167  42.242   3.157
 7312W        W77912  17.501  19.824   2.252
 7313W        W77913  43.740  12.223   1.217
 7314W        W77914  13.832  35.679  13.943
 7315W        W77915   9.383  29.784  12.293
 7316W        W77916  25.670  13.410   4.597
 7317W        W77917  10.858  43.101   1.650
 7318W        W77918  26.291  21.177   4.557
 7319W        W77919  18.329  38.997  10.701
 7320W        W77920  11.082  22.351  11.591
 7321W        W77921  32.514   0.755   4.351
 7322W        W77922  16.211  38.391   0.787
 7323W        W77923  41.751  20.791  11.448
 7324W        W77924  25.124  37.825   1.105
 7325W        W77925  19.610  28.280   5.244
 7326W        W77926  30.454  28.064   1.304
 7327W        W77927   7.308  12.408   4.730
 7328W        W77928  40.016   7.736   3.797
 7329W        W77929  22.705  12.133   2.737
 7330W        W77930  30.475   5.158  10.708
 7331W        W77931  36.648  35.988  14.031
 7332W        W77932  32.952  38.613   1.755
 7333W        W77933  18.163  11.201  14.821
 7334W        W77934  28.148  14.809  11.623
 7335W        W77935  42.490   8.354  12.631
 7336W        W77936  14.199  36.514  11.693
 7337W        W77937  17.328  23.073   1.307
 7338W        W77938  24.417   6.250   3.337
 7339W        W77939  33.703  13.780  14.582
 7340W        W77940  12.777  24.999  14.483
 7341W        W77941  33.608  36.508  12.167
 7342W        W77942   1.716  44.346  14.088
 7343W        W77943   5.758  32.050  13.880
 7344W        W77944  35.299  21.557  12.475
 7345W        W77945   2.784  32.077  10.639
 7346W        W77946  33.059   6.497   0.363
 7347W        W77947  36.429  23.035  12.368
 7348W        W77948  38.879   2.810  12.015
 7349W        W77949  26.536  15.813   0.978
 7350W        W77950  26.071  12.035  12.453
 7351W        W77951  43.314   2.396  12.354
 7352W        W77952   7.304  14.624  11.266
 7353W        W77953  44.968   7.216   3.362
 7354W        W77954  23.377  27.587   0.419
 7355W        W77955  26.703  36.991  13.309
 7356W        W77956  10.128  21.199   1.326
 7357W        W77957   1.729   6.667   0.660
 7358W        W77958   5.556  38.102  12.745
 7359W        W77959  25.436  14.349  11.825
 7360W        W77960   3.868  16.615   3.576
 7361W        W77961  32.162  31.257  11.375
 7362W        W77962   3.810  36.912  13.764
 7363W        W77963  12.640  14.636   1.720
 7364W        W77964  29.968  10.601   1.405
 7365W        W77965  16.316  42.524   2.910
 7366W        W77966   8.401  17.969  11.112
 7367W        W77967  31.018  44.077   0.694
 7368W        W77968  32.015   0.628  13.007
 7369W        W77969  12.822  27.887   0.084
 7370W        W77970  10.695   7.384  10.782
 7371W        W77971  15.151   6.656   0.949
 7372W        W77972  20.761  16.102   2.385
 7373W        W77973  31.393  12.155   2.274
 7374W        W77974  36.585  13.719   4.143
 7375W        W77975  26.196  41.471  14.359
 7376W        W77976  43.996  43.472  10.660
 7377W        W77977  23.896   5.523   4.716
 7378W        W77978  25.813  20.987  13.534
 7379W        W77979  42.601  27.572  13.117
 7380W        W77980  13.529  42.014  14.584
 7381W        W77981  30.907   2.286  11.097
 7382W        W77982  33.125  16.667  12.919
 7383W        W77983  42.660  21.946   3.670
 7384W        W77984   8.202  13.264  13.060
 7385W        W77985  14.551  11.026  12.025
 7386W        W77986  22.969  25.660  14.818
 7387W        W77987  25.641   6.831  13.976
 7388W        W77988   6.451  11.944   0.483
 7389W        W77989   5.014  43.394   4.640
 7390W        W77990  16.562   8.227  11.512
 7391W        W77991  20.295  17.108   0.293
 7392W        W77992  30.992   5.281   1.187
 7393W        W77993  16.164  17.016   0.631
 7394W        W77994  38.557   0.310  11.895
 7395W        W77995  42.202  27.114   2.921
 7396W        W77996   4.772  15.053   0.295
 7397W        W77997   4.907  18.713  11.226
 7398W        W77998   6.625  43.228  12.939
 7399W        W77999  40.224   3.426  14.816
 7400W        W78000  27.571   1.925  12.588
 7401W        W78001  21.556  33.038   1.317
 7402W        W78002   4.449  39.117   1.456
 7403W        W78003  29.563  39.467  14.753
 7404W        W78004  14.057  31.769  14.493
 7405W        W78005  41.100  44.558  14.766
 7406W        W78006  32.303  21.597  12.034
 7407W        W78007  33.877  40.738  11.662
 7408W        W78008   5.486  44.370   2.766
 7409W        W78009   2.747  29.163  13.964
 7410W        W78010  11.317   2.376   4.338
 7411W        W78011  30.486   0.990  11.825
 7412W        W78012  36.631   0.016  11.345
 7413W        W78013   8.239  37.865   4.007
 7414W        W78014  44.017  38.502  12.518
 7415W        W78015  31.456  37.623   1.894
 7416W        W78016  33.172  43.496   4.571
 7417W        W78017   3.959  37.198  10.289
 7418W        W78018  19.623  11.714  12.046
 7419W        W78019   4.836  15.269   4.521
 7420W        W78020  19.622  18.896   3.195
 7421W        W78021  44.387  22.487   0.811
 7422W        W78022  38.153  39.255   3.237
 7423W        W78023  26.449  11.682  12.981
 7424W        W78024  23.200  12.644   0.230
 7425W        W78025  41.934  10.451   0.962
 7426W        W78026  26.030   2.370   5.012
 7427W        W78027  44.209  15.787   1.896
 7428W        W78028  22.422  29.485   2.293
 7429W        W78029  14.748  27.381   1.242
 7430W        W78030  41.770  11.280   1.256
 7431W        W78031  14.355  16.596  11.133
 7432W        W78032  43.702   1.626   4.499
 7433W        W78033  14.257   1.952   2.198
 7434W        W78034   6.293  33.881   4.673
 7435W        W78035  35.397  34.387  10.648
 7436W        W78036  36.966  28.660  14.874
 7437W        W78037  28.801   7.950  11.433
 7438W        W78038  13.675  34.702  14.153
 7439W        W78039  36.948  34.584  13.912
 7440W        W78040  12.694  10.219  14.441
 7441W        W78041   7.352  41.104   2.336
 7442W        W78042  36.393  15.115  12.075
 7443W        W78043   3.510  13.756   4.618
 7444W        W78044  13.143  37.350   0.422
 7445W        W78045   2.262  12.112  14.790
 7446W        W78046  25.946  23.225   0.035
 7447W        W78047  20.626   2.555   1.850
 7448W        W78048  16.457  21.008  12.412
 7449W        W78049  34.177  34.564  11.085
 7450W        W78050   2.377  25.224   3.345
 7451W        W78051  34.974  22.186   2.473
 7452W        W78052   6.173  33.865  14.674
 7453W        W78053  32.964  35.374  14.123
 7454W        W78054  37.778  25.424  13.597
 7455W        W78055  10.124  20.702   3.347
 7456W        W78056   3.170  16.123  12.974
 7457W        W78057  16.340  11.319   1.905
 7458W        W78058   3.821  27.081   0.296
 7459W        W78059  20.111  26.093   4.224
 7460W        W78060  28.181  28.065  10.266
 7461W        W78061  14.848   5.272  12.927
 7462W        W78062  27.685   7.206  11.102
 7463W        W78063  17.304  36.384   0.423
 7464W        W78064  19.295  42.245  11.884
 7465W        W78065  39.991   3.667  11.569
 7466W        W78066  36.053  33.677   0.743
 7467W        W78067  41.327  29.492  10.727
 7468W        W78068  26.257  14.169  10.224
 7469W        W78069  39.503  44.345  14.758
 7470W        W78070  24.729   4.939   0.012
 7471W        W78071  26.229  21.199  12.878
 7472W        W78072  10.177   5.114   3.340
 7473W        W78073   2.653  10.850   0.139
 7474W        W78074  28.500   2.343   3.612
 7475W        W78075  23.591   0.322   0.005
 7476W        W78076  27.259  39.974  14.991
 7477W        W78077   1.404  31.763  12.308
 7478W        W78078  25.689   8.209   0.030
 7479W        W78079  43.337  41.376   2.223
 7480W        W78080  33.458  30.670   3.091
 7481W        W78081   7.639  39.989   0.528
 7482W        W78082   8.634   6.854   4.174
 7483W        W78083  11.536  28.309  10.335
 7484W        W78084   0.775  14.410   2.664
 7485W        W78085  30.422  21.979  14.465
 7486W        W78086  24.901   8.663  12.577
 7487W        W78087  21.363  25.039  11.151
 7488W        W78088  43.408   9.608   0.977
 7489W        W78089  26.915  33.148   1.194
 7490W        W78090  32.363  33.562  13.485
 7491W        W78091   8.868  38.807  12.392
 7492W        W78092  22.501  41.825  14.272
 7493W        W78093  38.305  29.172  14.930
 7494W        W78094  18.938   5.868   3.260
 7495W        W78095   0.767  20.536  13.547
 7496W        W78096   3.246  34.848   1.487
 7497W        W78097  29.585  29.864  12.499
 7498W        W78098  33.479   1.720  12.481
 7499W        W78099  43.516  40.202   3.562
 7500W        W78100  13.595  39.039  10.753
 7501W        W78101  12.653  40.935   1.588
 7502W        W78102  31.337  24.959   2.248
 7503W        W78103  28.474  26.671   4.635
 7504W        W78104   9.502  43.943   3.700
 7505W        W78105   5.625  18.789   3.731
 7506W        W78106   0.335  20.733  11.500
 7507W        W78107  17.515  21.008  12.492
 7508W        W78108   9.084  20.645   3.282
 7509W        W78109  18.176  17.245   0.496
 7510W        W78110  19.309   8.565   4.185
 7511W        W78111  32.710  36.931   2.643
 7512W        W78112  13.808  12.097  10.712
 7513W        W78113  14.550   9.387   3.762
 7514W        W78114   5.757   8.792   3.587
 7515W        W78115  10.939  41.957   3.517
 7516W        W78116  23.907  26.054   1.306
 7517W        W78117  23.493  12.250  11.445
 7518W        W78118  40.028  29.114   1.170
 7519W        W78119   5.144   1.241  11.230
 7520W        W78120   7.680  13.798   2.733
 7521W        W78121   7.273  38.543   2.319
 7522W        W78122   9.783  23.436   3.321
 7523W        W78123  17.198   1.471  12.077
 7524W        W78124  21.020  27.261   3.254
 7525W        W78125   2.467  29.044  13.561
 7526W        W78126   3.404  38.154  11.548
 7527W        W78127  33.462  28.654  14.810
 7528W        W78128   9.172  28.666   3.032
 7529W        W78129  21.275  16.771  12.063
 7530W        W78130  30.951   3.171   3.185
 7531W        W78131   9.507  27.493  12.604
 7532W        W78132  25.204  10.562   3.857
 7533W        W78133  18.911  34.982   0.469
 7534W        W78134  33.386  28.579   3.326
 7535W        W78135  15.589  14.232  14.318
 7536W        W78136  44.845  17.610  12.942
 7537W        W78137   0.022  16.561   3.200
 7538W        W78138  25.209  18.603  10.944
 7539W        W78139  40.851  12.729  11.204
 7540W        W78140  39.553  26.012   3.606
 7541W        W78141  34.671   2.468  14.956
 7542W        W78142  26.749  25.678   0.389
 7543W        W78143  32.540  44.497  10.780
 7544W        W78144  40.054   0.429  11.073
 7545W        W78145  26.257  20.448   1.074
 7546W        W78146  31.615  24.111   3.725
 7547W        W78147  23.125  26.109   3.695
 7548W        W78148   7.309  40.332  10.626
 7549W        W78149  40.551  22.958   3.298
 7550W        W78150  11.297  11.319   4.704
 7551W        W78151  32.494  38.556  13.463
 7552W        W78152  23.304  18.054   3.346
 7553W        W78153  38.620   9.279  10.570
 7554W        W78154   0.887  10.592   3.762
 7555W        W78155   9.355  20.994  11.666
 7556W        W78156  35.678  18.298  10.961
 7557W        W78157   5.339   0.984   1.919
 7558W        W78158  27.926  14.495   4.168
 7559W        W78159   9.419  15.783  14.001
 7560W        W78160  42.047  37.638  12.132
 7561W        W78161  16.571  34.057   3.696
 7562W        W78162  38.534  44.967   3.606
 7563W        W78163  10.733  24.498   2.048
 7564W        W78164  28.081  26.442  14.319
 7565W        W78165  17.791  15.755  11.379
 7566W        W78166   5.182  26.666   2.893
 7567W        W78167  30.876  18.522  11.148
 7568W        W78168  25.988  10.000   2.775
 7569W        W78169  40.808  25.064   3.124
 7570W        W78170  44.413  19.791  12.832
 7571W        W78171   9.985  12.141   3.599
 7572W        W78172  39.277  44.320  10.490
 7573W        W78173   4.247  15.322   0.055
 7574W        W78174  27.214  37.566   9.853
 7575W        W78175  10.431  28.228  14.588
 7576W        W78176  41.557  23.073   3.309
 7577W        W78177   2.360  26.945   1.842
 7578W        W78178   0.968  16.036   0.818
 7579W        W78179   1.913  30.359   1.244
 7580W        W78180  29.979  24.047   1.381
 7581W        W78181  18.063  13.828  11.113
 7582W        W78182  25.427  26.756  13.874
 7583W        W78183  34.506  17.051   0.762
 7584W        W78184  16.874  11.225  12.951
 7585W        W78185  15.383   3.024  12.497
 7586W        W78186  15.286  33.306   4.515
 7587W        W78187  44.051  15.120  11.644
 7588W        W78188   6.471  16.734  13.422
 7589W        W78189  14.370  17.096  14.174
 7590W        W78190  44.739  32.965   2.228
 7591W        W78191  41.486  22.036  11.605
 7592W        W78192  11.147   7.280  12.911
 7593W        W78193  23.211  39.613   1.988
 7594W        W78194  23.582   4.620   1.777
 7595W        W78195   3.199  36.351  10.848
 7596W        W78196  42.989   4.707  11.319
 7597W        W78197  11.769  39.060   0.867
 7598W        W78198  36.996  33.579  14.886
 7599W        W78199  17.031  31.642  11.887
 7600W        W78200  35.006  43.589   4.114
 7601W        W78201   1.922  17.095  10.716
 7602W        W78202  40.985  28.373  14.886
 7603W        W78203   3.027  12.154  12.482
 7604W        W78204  42.448  32.666  11.060
 7605W        W78205   1.373   9.870   4.125
 7606W        W78206  20.728  38.596   1.443
 7607W        W78207   3.385  16.626  13.999
 7608W        W78208  20.717  24.006   1.907
 7609W        W78209  19.339  13.240  12.421
 7610W        W78210  39.556  37.800  12.436
 7611W        W78211  30.542   1.276   0.777
 7612W        W78212  40.922  21.216  12.450
 7613W        W78213  33.129   1.251  12.498
 7614W        W78214  13.067  34.879   4.082
 7615W        W78215  22.677  21.652  10.579
 7616W        W78216  20.652  28.508  11.947
 7617W        W78217  22.712   3.873   0.271
 7618W        W78218  10.059  21.037  13.200
 7619W        W78219   8.913  21.128  14.984
 7620W        W78220  41.261   1.745   2.880
 7621W        W78221  15.318   1.472   1.372
 7622W        W78222  28.007  42.072   0.296
 7623W        W78223  21.296  42.496  14.437
 7624W        W78224  15.305  33.184   2.414
 7625W        W78225  43.018  31.672  11.755
 7626W        W78226  22.903   2.270  12.074
 7627W        W78227  42.525  28.643   3.304
 7628W        W78228  14.043  33.770   4.191
 7629W        W78229   8.313   8.863   3.064
 7630W        W78230   1.511  13.427  13.572
 7631W        W78231  29.627   3.242   3.258
 7632W        W78232  42.236  26.000   2.185
 7633W        W78233  26.706  44.750  11.410
 7634W        W78234  27.058  17.116  11.595
 7635W        W78235  14.856   8.750  13.571
 7636W        W78236   5.747  23.646  13.973
 7637W        W78237  22.260  38.371  14.892
 7638W        W78238  17.865  19.468   2.715
 7639W        W78239   2.447  28.235  13.925
 7640W        W78240  34.956  43.821   4.566
 7641W        W78241  37.970   5.390  12.633
 7642W        W78242  27.104  37.411  14.974
 7643W        W78243  32.387  10.680  13.105
 7644W        W78244  28.187   2.285   0.924
 7645W        W78245  26.026  27.448  13.774
 7646W        W78246  37.880  19.055  11.929
 7647W        W78247  34.537  23.652  13.889
 7648W        W78248  12.662  10.652   4.439
 7649W        W78249  37.096  28.148   0.870
 7650W        W78250  40.990  10.810   4.100
 7651W        W78251  42.467  28.114   3.242
 7652W        W78252  11.501  19.538   0.318
 7653W        W78253  19.633   6.840  14.879
 7654W        W78254  18.389  18.175  12.971
 7655W        W78255  34.947  33.571  12.582
 7656W        W78256  38.396  19.848   3.661
 7657W        W78257  18.597  30.487  13.892
 7658W        W78258  29.334  10.321  12.939
 7659W        W78259  35.095  13.851   2.789
 7660W        W78260   9.306   4.706  10.648
 7661W        W78261   1.520  35.825   0.822
 7662W        W78262  10.090   5.311   0.286
 7663W        W78263  17.007  34.140  13.016
 7664W        W78264  38.826  10.084  14.940
 7665W        W78265  32.762  26.350  11.197
 7666W        W78266  11.827  28.589   2.318
 7667W        W78267  29.006   1.766  11.561
 7668W        W78268  36.691  17.203  13.547
 7669W        W78269  29.493  25.376  13.137
 7670W        W78270  30.149  27.088   0.869
 7671W        W78271   2.853  12.109   2.854
 7672W        W78272  15.107  42.040  12.293
 7673W        W78273  25.541  13.807  11.952
 7674W        W78274   4.449  11.764   5.027
 7675W        W78275  29.572  26.949   3.592
 7676W        W78276   6.843  16.819   1.154
 7677W        W78277   7.619  29.149   0.902
 7678W        W78278  31.476   5.059   4.266
 7679W        W78279   0.617   6.790  12.534
 7680W        W78280  41.818   7.504   0.378
 7681W        W78281   7.268  21.189  13.386
 7682W        W78282  42.576   4.738   3.292
 7683W        W78283   0.643   6.317   4.634
 7684W        W78284  38.012  42.984  14.365
 7685W        W78285  37.442   8.110  12.413
 7686W        W78286  28.215  23.060  14.390
 7687W        W78287  31.552  41.767  14.452
 7688W        W78288  38.935  26.390   1.299
 7689W        W78289  27.104  43.466   0.218
 7690W        W78290  23.670  41.865  14.070
 7691W        W78291   2.213  26.498  11.906
 7692W        W78292  37.949  29.017  10.611
 7693W        W78293  28.729  11.281   4.168
 7694W        W78294  18.116  13.178   3.128
 7695W        W78295  18.722  24.293  13.556
 7696W        W78296  31.912   6.577   3.795
 7697W        W78297  30.912  18.183   2.792
 7698W        W78298   2.682  31.075   2.249
 7699W        W78299   1.970  32.215  11.018
 7700W        W78300  12.103  15.224  13.395
 7701W        W78301   1.302   0.890   3.371
 7702W        W78302  23.002  36.412   2.688
 7703W        W78303   5.214   2.260  14.967
 7704W        W78304  33.419  38.545   4.216
 7705W        W78305  28.647  17.179  11.735
 7706W        W78306  16.114   7.362   2.865
 7707W        W78307  31.823  13.202  10.323
 7708W        W78308  22.324  32.685   0.880
 7709W        W78309  24.120  40.435   3.338
 7710W        W78310  26.586  23.279  11.030
 7711W        W78311  31.641  32.653  13.948
 7712W        W78312   3.963  23.416  10.595
 7713W        W78313  30.870   0.915   3.236
 7714W        W78314  30.033  40.245  13.447
 7715W        W78315  21.656   2.491  12.430
 7716W        W78316   8.647  25.091   1.877
 7717W        W78317  40.709  29.868  11.088
 7718W        W78318  39.403  37.124  13.414
 7719W        W78319  22.322  36.612  13.521
 7720W        W78320  14.880   4.426  11.428
 7721W        W78321  16.598  16.496  10.569
 7722W        W78322  33.464   5.890   0.904
 7723W        W78323  35.352  10.908  11.062
 7724W        W78324  38.107  36.006  13.849
 7725W        W78325  22.609  32.589  14.496
 7726W        W78326  27.211  10.851  12.317
 7727W        W78327  25.612   2.471   2.007
 7728W        W78328  40.173  29.208  14.320
 7729W        W78329  29.078  43.863   1.878
 7730W        W78330  40.076  19.387  11.564
 7731W        W78331  29.635   9.670   0.335
 7732W        W78332  44.330  40.175   3.890
 7733W        W78333  27.688  19.826   4.153
 7734W        W78334  16.887  27.193  13.506
 7735W        W78335  16.837  38.537   0.814
 7736W        W78336  17.750  29.401   1.679
 7737W        W78337  43.547  20.508   3.591
 7738W        W78338  24.291  11.373  13.483
 7739W        W78339  11.629   6.837   4.702
 7740W        W78340   4.953  15.318  12.189
 7741W        W78341  21.471  42.046  12.942
 7742W        W78342  40.913  22.759   4.737
 7743W        W78343  34.273   2.966   3.364
 7744W        W78344  21.178  20.701   0.842
 7745W        W78345  21.043   0.616  11.650
 7746W        W78346  35.478  28.132  13.844
 7747W        W78347  43.894  28.663   3.649
 7748W        W78348  17.079  17.801  11.026
 7749W        W78349  22.045  37.257   0.878
 7750W        W78350  11.241   4.156   0.047
 7751W        W78351  31.946   5.297   2.197
 7752W        W78352  42.482  21.470   3.748
 7753W        W78353   8.346  20.137  13.969
 7754W        W78354  27.148  23.361   4.512
 7755W        W78355  11.482  16.223  12.898
 7756W        W78356  20.447  36.972  14.926
 7757W        W78357   4.033  34.198  14.100
 7758W        W78358  27.702  25.291   0.301
 7759W        W78359  32.039   7.764   2.981
 7760W        W78360   2.389  16.976   0.445
 7761W        W78361  28.078   4.964   1.680
 7762W        W78362  30.896  23.877   4.153
 7763W        W78363  43.259  25.225   1.724
 7764W        W78364  20.132  24.197   2.461
 7765W        W78365   3.857  38.856   1.665
 7766W        W78366  12.851  22.250   4.427
 7767W        W78367  29.688   1.765   5.079
 7768W        W78368  19.710  27.225   1.230
 7769W        W78369   4.246   8.738   0.024
 7770W        W78370   1.707  18.180  13.637
 7771W        W78371   1.691  38.067   3.730
 7772W        W78372  10.687  39.293   3.693
 7773W        W78373  29.924  23.159   1.921
 7774W        W78374  39.805  14.295   2.278
 7775W        W78375  17.220   4.886  13.905
 7776W        W78376  34.322  31.505  13.449
 7777W        W78377  20.155  28.375   2.616
 7778W        W78378  25.751  41.066  11.969
 7779W        W78379  18.003  24.618  14.258
 7780W        W78380  26.465  43.138  11.008
 7781W        W78381  43.438  31.978  14.107
 7782W        W78382  15.098  25.260   3.493
 7783W        W78383  41.521   3.986  13.041
 7784W        W78384  32.040  27.212   1.324
 7785W        W78385  17.613  28.396   3.298
 7786W        W78386  10.729  19.619  13.036
 7787W        W78387  22.813  31.900  11.523
 7788W        W78388  41.072   3.268   3.883
 7789W        W78389  11.213   5.603   4.599
 7790W        W78390  14.343  31.175   3.368
 7791W        W78391  44.037  16.116  12.526
 7792W        W78392  30.550  31.861  10.276
 7793W        W78393  36.355  36.905  13.656
 7794W        W78394   9.393  25.966  11.366
 7795W        W78395  38.823   7.203  11.209
 7796W        W78396  22.151   6.272  14.896
 7797W        W78397  12.672  42.750   0.091
 7798W        W78398  32.391  25.781  12.047
 7799W        W78399  31.096  22.129  12.928
 7800W        W78400  17.652  40.446   1.753
 7801W        W78401  25.462   8.185   2.706
 7802W        W78402   6.976  40.962  13.169
 7803W        W78403   4.887  41.805  11.408
 7804W        W78404  12.847  31.841  10.733
 7805W        W78405  23.156  27.300  13.378
 7806W        W78406  28.155  11.429  13.938
 7807W        W78407  18.113  41.071  14.501
 7808W        W78408  39.900   4.971   1.812
 7809W        W78409  36.871   6.271  13.870
 7810W        W78410   9.592  29.389  14.361
 7811W        W78411  11.344   5.938   1.679
 7812W        W78412   5.677  20.445   0.558
 7813W        W78413  28.149  37.343   2.777
 7814W        W78414  21.681  24.046   3.284
 7815W        W78415  37.064  24.274  10.331
 7816W        W78416  11.253  15.016   1.848
 7817W        W78417  21.823  44.477   2.735
 7818W        W78418  16.741  37.792  11.988
 7819W        W78419  19.193  19.699   3.342
 7820W        W78420  10.247  20.590   1.831
 7821W        W78421  16.284   3.445  11.626
 7822W        W78422  44.247   9.027  14.099
 7823W        W78423   1.755  28.216   1.849
 7824W        W78424   5.310   3.137   0.730
 7825W        W78425  33.969   1.967  11.556
 7826W        W78426  22.386   0.729   2.377
 7827W        W78427   2.560  16.504   0.406
 7828W        W78428  31.926  39.402   3.918
 7829W        W78429  37.706   9.713  14.777
 7830W        W78430   4.295  31.100  10.379
 7831W        W78431   2.028  30.167   1.722
 7832W        W78432  19.748  30.813   4.239
 7833W        W78433  21.996  36.235  11.977
 7834W        W78434  21.188  16.636  11.135
 7835W        W78435  13.410   5.606  12.038
 7836W        W78436   2.246   8.322   4.739
 7837W        W78437  14.224  29.434   2.379
 7838W        W78438  24.571  35.917  10.763
 7839W        W78439  28.216  10.772  11.396
 7840W        W78440  21.664  39.514   4.944
 7841W        W78441  31.371  29.453   1.240
 7842W        W78442  13.179  34.992   4.583
 7843W        W78443  22.946  42.920  12.498
 7844W        W78444  24.115  20.759  14.080
 7845W        W78445  14.742  24.453   0.219
 7846W        W78446  28.952  24.074   2.897
 7847W        W78447   2.258  28.336  12.480
 7848W        W78448  43.509  27.748   2.459
 7849W        W78449  36.773  16.204  14.908
 7850W        W78450  21.304  13.520   2.252
 7851W        W78451  29.878  19.484   0.908
 7852W        W78452  32.526   3.952   4.440
 7853W        W78453  17.905  35.996   3.167
 7854W        W78454  24.635  34.349   0.451
 7855W        W78455  33.421  23.843   1.379
 7856W        W78456  42.660  40.131   2.254
 7857W        W78457  41.156   2.228   2.800
 7858W        W78458  35.090  11.729  11.488
 7859W        W78459  23.544   0.141   1.358
 7860W        W78460   2.836  23.013   4.705
 7861W        W78461  29.029  28.473  11.891
 7862W        W78462  13.614  37.137   0.549
 7863W        W78463  27.295  18.745   2.291
 7864W        W78464  12.058  11.837   1.844
 7865W        W78465  26.987   3.789   2.396
 7866W        W78466  18.574  32.027  11.680
 7867W        W78467  12.659  36.692   0.609
 7868W        W78468  25.152   5.902  14.022
 7869W        W78469  21.746  35.845  10.660
 7870W        W78470  31.328  32.458   2.634
 7871W        W78471   5.179  13.635   0.469
 7872W        W78472   4.707  43.794  13.054
 7873W        W78473  30.549  11.958   4.095
 7874W        W78474  40.935  20.172   0.195
 7875W        W78475  11.366  40.560   0.320
 7876W        W78476  42.391  44.685   2.078
 7877W        W78477   4.856  16.507  14.776
 7878W        W78478  39.724  44.203   4.595
 7879W        W78479  33.108  17.586  10.545
 7880W        W78480  27.195  34.434   2.307
 7881W        W78481  39.237  10.822   2.434
 7882W        W78482  43.423   9.280  13.379
 7883W        W78483  35.712  12.162  14.456
 7884W        W78484   1.729  38.935   3.144
 7885W        W78485   7.633   1.457   3.227
 7886W        W78486   9.296  16.991   0.429
 7887W        W78487  21.032   1.010   1.836
 7888W        W78488  44.770  42.294  11.950
 7889W        W78489  15.018  13.223   3.751
 7890W        W78490  13.216  19.482   2.648
 7891W        W78491   7.703  29.212   5.301
 7892W        W78492  22.034  21.530  14.494
 7893W        W78493  32.865   6.377  11.101
 7894W        W78494  41.201   0.778   1.317
 7895W        W78495   0.205  21.239  11.521
 7896W        W78496  17.612  41.747  14.954
 7897W        W78497  18.303  38.353  11.835
 7898W        W78498   3.124  28.210   0.781
 7899W        W78499  43.264   0.871   0.380
 7900W        W78500  10.987  35.014   0.487
 7901W        W78501  30.910  28.645  11.470
 7902W        W78502  30.667  27.700   2.383
 7903W        W78503  39.400  37.874  11.940
 7904W        W78504  34.492  30.524  11.377
 7905W        W78505  10.214  41.606   3.811
 7906W        W78506  18.378  40.061  12.954
 7907W        W78507  37.944  38.179  13.435
 7908W        W78508   7.718  10.391  10.379
 7909W        W78509  37.132  30.590  14.357
 7910W        W78510  38.537  16.283  14.296
 7911W        W78511  28.122  22.615  14.120
 7912W        W78512  41.731   4.769   1.393
 7913W        W78513   1.799  26.144  12.031
 7914W        W78514  25.953  15.281  10.690
 7915W        W78515  18.964   1.995  14.929
 7916W        W78516  43.610  38.055   0.404
 7917W        W78517  23.519  15.090  13.854
 7918W        W78518  26.400  29.308  14.982
 7919W        W78519  34.914  34.500   2.465
 7920W        W78520   1.668   7.776   2.770
 7921W        W78521  27.992  12.315   2.780
 7922W        W78522  24.332  42.362   4.564
 7923W        W78523  33.147  11.820   3.154
 7924W        W78524  23.113  26.378   3.268
 7925W        W78525  17.675  30.883  13.922
 7926W        W78526  14.357  44.956  13.001
 7927W        W78527  33.018  42.631   1.224
 7928W        W78528  28.165  10.721  12.842
 7929W        W78529   0.838  29.019   4.591
 7930W        W78530   6.710  27.856   3.599
 7931W        W78531   6.030  14.614   1.846
 7932W        W78532  28.433  22.298  13.834
 7933W        W78533  30.569   8.137  12.111
 7934W        W78534   4.658  39.664  13.975
 7935W        W78535   0.956  19.104  13.984
 7936W        W78536  18.957  15.165  12.544
 7937W        W78537  14.387  24.734   3.317
 7938W        W78538  16.332  35.493  12.094
 7939W        W78539  42.708  29.181   4.716
 7940W        W78540   8.224  11.260  13.408
 7941W        W78541  33.067   8.697   3.305
 7942W        W78542  27.536  21.698  13.285
 7943W        W78543  10.235  22.569   2.285
 7944W        W78544  43.273  37.790   3.144
 7945W        W78545  36.842   0.222  12.506
 7946W        W78546  26.135  18.596   3.623
 7947W        W78547  27.435  26.091   4.529
 7948W        W78548  36.400  16.634   3.642
 7949W        W78549  40.020  29.022   0.656
 7950W        W78550   1.762   2.251   3.308
 7951W        W78551  12.899  17.141  12.091
 7952W        W78552   0.529  10.721  13.938
 7953W        W78553  26.140  18.169   3.311
 7954W        W78554  10.665  39.266   4.597
 7955W        W78555  40.303  32.446   3.217
 7956W        W78556  20.753   5.201   0.546
 7957W        W78557  33.642  29.490  12.548
 7958W        W78558  20.101  26.025   3.719
 7959W        W78559  11.159  33.844   0.276
 7960W        W78560  38.035  26.757   0.775
 7961W        W78561   8.638  44.960   4.697
 7962W        W78562   0.997  39.632   1.902
 7963W        W78563  33.972  26.497   3.124
 7964W        W78564  28.725  20.335   1.935
 7965W        W78565  44.837  29.432   1.430
 7966W        W78566  44.867  21.169  13.767
 7967W        W78567  13.235  34.920  12.891
 7968W        W78568   4.243  16.124   1.378
 7969W        W78569  19.844  35.506   1.396
 7970W        W78570  35.989  30.255   0.754
 7971W        W78571  31.561   0.376  13.037
 7972W        W78572   9.612  16.691  14.905
 7973W        W78573  31.823  26.733   1.333
 7974W        W78574  28.194   0.583   1.791
 7975W        W78575  33.827  25.208   4.569
 7976W        W78576  13.333   0.287  11.464
 7977W        W78577  35.069   6.333  11.588
 7978W        W78578   8.319   4.137   0.880
 7979W        W78579   4.314  26.561   2.164
 7980W        W78580  25.596  36.410   3.176
 7981W        W78581  13.655  29.173  14.415
 7982W        W78582  42.987  25.123   4.636
 7983W        W78583  24.635  12.014   0.118
 7984W        W78584  19.522  21.789  14.546
 7985W        W78585   9.385  41.112   4.588
 7986W        W78586  44.207  27.450   0.473
 7987W        W78587  10.219  18.338   0.829
 7988W        W78588  16.849   3.982   0.287
 7989W        W78589   2.785  31.421  11.188
 7990W        W78590  43.736  24.919  11.634
 7991W        W78591   6.782  34.726  13.937
 7992W        W78592  38.458  23.934  13.134
 7993W        W78593   4.153  33.756   3.826
 7994W        W78594   4.463  10.972  12.957
 7995W        W78595  13.620  40.845   4.924
 7996W        W78596  31.325  18.102  14.094
 7997W        W78597  39.566  30.036   2.800
 7998W        W78598   4.193  39.224   1.896
 7999W        W78599  28.131  16.159  10.642
 8000W        W78600  23.406  16.261  10.652
 8001W        W78601  38.963  32.645  13.846
 8002W        W78602  31.919  37.813  11.578
 8003W        W78603  24.385   1.878   0.159
 8004W        W78604  19.226  20.382  13.705
 8005W        W78605  24.012  12.796  11.217
 8006W        W78606  39.281   4.759   2.221
 8007W        W78607   2.923  42.865  12.421
 8008W        W78608  29.435  18.716   0.488
 8009W        W78609   5.787  39.560  12.427
 8010W        W78610  41.566  32.551  13.955
 8011W        W78611  34.833  39.255   0.155
 8012W        W78612  11.776   5.332  13.966
 8013W        W78613   4.661  36.938   0.764
 8014W        W78614  15.786  17.940  13.442
 8015W        W78615  34.075   1.228  11.767
 8016W        W78616   0.246  13.232   2.574
 8017W        W78617  15.143   0.604   0.885
 8018W        W78618  42.901  20.041  10.701
 8019W        W78619  19.192  42.391   0.633
 8020W        W78620  20.018  25.530   5.329
 8021W        W78621  30.103   0.121  13.983
 8022W        W78622  14.914  36.814  12.113
 8023W        W78623  16.999  11.606   0.337
 8024W        W78624  20.323  40.246  10.652
 8025W        W78625  28.117  14.498   4.634
 8026W        W78626  34.717   5.801   1.419
 8027W        W78627  34.228  22.120  11.906
 8028W        W78628  10.070  31.279  13.548
 8029W        W78629  39.590  26.394   3.175
 8030W        W78630  23.238   2.156  12.912
 8031W        W78631  25.480  13.865  10.614
 8032W        W78632  28.660   4.690   3.720
 8033W        W78633  16.535  25.129  14.977
 8034W        W78634  32.536  15.865   1.696
 8035W        W78635   4.176  22.062  10.667
 8036W        W78636   1.280  13.477   0.020
 8037W        W78637  44.512  23.247   1.498
 8038W        W78638  44.917  38.577   3.251
 8039W        W78639  14.772  38.813   2.660
 8040W        W78640  25.736  30.934  14.827
 8041W        W78641  32.683  28.744  11.981
 8042W        W78642   2.871  23.517  14.040
 8043W        W78643  30.846   1.699   2.009
 8044W        W78644  28.939   5.724  12.071
 8045W        W78645  11.382  24.767  11.172
 8046W        W78646  44.946   5.112  12.230
 8047W        W78647  32.978  32.512   0.930
 8048W        W78648  25.981  30.082   3.695
 8049W        W78649  18.789  23.276  12.546
 8050W        W78650  21.711  25.610   0.413
 8051W        W78651  41.674  40.523  13.803
 8052W        W78652  15.251   0.079   3.214
 8053W        W78653  16.637  29.442   3.667
 8054W        W78654   5.194  16.847  14.938
 8055W        W78655  20.993  17.152  13.027
 8056W        W78656  23.641  39.097  12.491
 8057W        W78657  12.484   7.723   2.396
 8058W        W78658  27.941  18.699   0.926
 8059W        W78659  19.851   3.997  13.751
 8060W        W78660  20.464   8.409   1.793
 8061W        W78661   3.598  34.045   4.577
 8062W        W78662  20.769  36.876   0.337
 8063W        W78663  20.712  37.090  12.002
 8064W        W78664  12.825   4.741   2.309
 8065W        W78665   3.678  13.842  13.968
 8066W        W78666  32.428  21.182   2.384
 8067W        W78667   2.170  14.679  11.221
 8068W        W78668  42.455  22.043  12.734
 8069W        W78669  31.971  15.560  10.380
 8070W        W78670  11.674  39.934   3.961
 8071W        W78671  14.883  25.998  11.293
 8072W        W78672  33.101  36.136  13.387
 8073W        W78673  41.116  44.980   4.600
 8074W        W78674  34.018   6.580   2.656
 8075W        W78675  13.847  17.939  13.416
 8076W        W78676   8.189  20.089  11.570
 8077W        W78677  26.192   8.388   0.904
 8078W        W78678  44.884  24.493   1.298
 8079W        W78679  41.739  21.579   1.610
 8080W        W78680  13.446  23.574   3.470
 8081W        W78681  20.587  29.449   2.352
 8082W        W78682   3.510  29.117   4.333
 8083W        W78683  28.170  21.065   0.769
 8084W        W78684   1.346  14.587  14.395
 8085W        W78685  44.376  19.261   2.184
 8086W        W78686   6.830  21.071   0.703
 8087W        W78687  11.687  33.879   0.415
 8088W        W78688   5.455   2.985   3.135
 8089W        W78689  40.002  27.503   1.223
 8090W        W78690  31.664  18.137   3.286
 8091W        W78691  34.075   2.883  12.271
 8092W        W78692  17.641  15.864   2.733
 8093W        W78693   6.371  43.765   4.115
 8094W        W78694   1.458   1.418   3.696
 8095W        W78695  29.161   3.797   3.704
 8096W        W78696  38.824  23.993  12.009
 8097W        W78697  42.269  41.788  11.382
 8098W        W78698  37.897  39.107   4.902
 8099W        W78699   0.965  21.635   1.712
 8100W        W78700  24.137   3.917   0.744
 8101W        W78701  28.889  41.598   2.605
 8102W        W78702  33.405  35.016  13.288
 8103W        W78703  35.602  32.895  11.678
 8104W        W78704  16.357  37.560   4.631
 8105W        W78705  37.470  31.449   3.411
 8106W        W78706  32.593  20.951   3.734
 8107W        W78707   8.769  25.521   1.195
 8108W        W78708  23.322  22.138  13.386
 8109W        W78709  13.351  40.005   2.333
 8110W        W78710   9.779  28.737   2.424
 8111W        W78711   0.470  26.454  10.044
 8112W        W78712  18.363  28.239   1.169
 8113W        W78713  34.669  43.443   0.317
 8114W        W78714  10.257  34.383   2.669
 8115W        W78715   1.949  32.622  13.418
 8116W        W78716  38.538  22.993  11.994
 8117W        W78717  16.211   8.828   4.455
 8118W        W78718  26.847  42.654   5.025
 8119W        W78719  39.597  19.070   2.352
 8120W        W78720   6.227  34.563  13.499
 8121W        W78721  14.843  17.775   2.391
 8122W        W78722  22.196  11.822  12.028
 8123W        W78723  18.705   7.725   4.288
 8124W        W78724  23.390  23.055   1.827
 8125W        W78725  27.138  41.067  14.408
 8126W        W78726  32.586  14.251   2.675
 8127W        W78727  29.835  13.749  11.697
 8128W        W78728  27.995  15.375   3.764
 8129W        W78729  27.830   2.415  11.238
 8130W        W78730   8.202  41.341   2.796
 8131W        W78731  13.028  14.436   4.280
 8132W        W78732  21.214  36.383  10.444
 8133W        W78733  13.915  44.444  11.073
 8134W        W78734  33.501   6.508   3.211
 8135W        W78735   4.324   6.019  14.443
 8136W        W78736  20.252   9.362  13.657
 8137W        W78737  15.008  27.969   0.332
 8138W        W78738  36.939   1.961   4.652
 8139W        W78739  23.229  23.937  13.305
 8140W        W78740  27.077  35.664  13.517
 8141W        W78741   0.488   8.413   2.215
 8142W        W78742  12.786  31.854  14.089
 8143W        W78743   8.459  40.192  12.488
 8144W        W78744  41.321  30.512  12.991
 8145W        W78745  36.846  26.181   4.453
 8146W        W78746  39.491  37.382  13.897
 8147W        W78747  19.514  26.266  11.904
 8148W        W78748   8.776  19.829  14.041
 8149W        W78749  30.940  33.844  12.410
 8150W        W78750  20.677   3.209  12.135
 8151W        W78751  12.184   2.327   3.765
 8152W        W78752  44.726  15.908  11.149
 8153W        W78753  38.418  43.802   2.132
 8154W        W78754  18.475  41.025  10.335
 8155W        W78755   5.770  35.123  14.396
 8156W        W78756  33.122  25.010  12.606
 8157W        W78757  35.108  29.327   2.375
 8158W        W78758   2.176   5.736  11.080
 8159W        W78759  15.072  30.976   1.808
 8160W        W78760  22.852   0.589   1.319
 8161W        W78761  29.890  10.739   3.608
 8162W        W78762   8.190   8.371  12.670
 8163W        W78763  37.896  39.527   4.521
 8164W        W78764  40.393  42.325  13.313
 8165W        W78765  38.934  17.950   4.930
 8166W        W78766  19.106  32.018  13.826
 8167W        W78767  15.077  28.205   1.276
 8168W        W78768  20.031  35.104  12.786
 8169W        W78769  12.748   4.887  14.426
 8170W        W78770  43.760  18.980   1.580
 8171W        W78771  25.022  43.009   3.169
 8172W        W78772  22.267  39.057   3.198
 8173W        W78773  42.814  26.048  11.927
 8174W        W78774  44.194   7.232   5.133
 8175W        W78775  23.514  27.033  11.549
 8176W        W78776  22.501  15.210   0.995
 8177W        W78777  41.027  36.387  13.807
 8178W        W78778  43.419  11.666   2.897
 8179W        W78779  17.077  44.021   4.057
 8180W        W78780  40.595  20.859   0.817
 8181W        W78781  24.676  15.092  13.111
 8182W        W78782  13.740  38.027   4.917
 8183W        W78783  13.130  44.565   2.078
 8184W        W78784  43.005  42.313   4.302
 8185W        W78785  15.796  35.145   0.525
 8186W        W78786  21.999  33.976   1.408
 8187W        W78787  38.484  17.756  12.207
 8188W        W78788  17.978  44.003  13.698
 8189W        W78789  17.783   6.417  14.574
 8190W        W78790  34.345  27.748  11.179
 8191W        W78791  44.129  23.057  11.002
 8192W        W78792   1.476  23.075  10.707
 8193W        W78793  19.135  26.152  12.792
 8194W        W78794  26.608   2.859   3.412
 8195W        W78795  17.783   2.271   3.145
 8196W        W78796  32.086  35.072   5.002
 8197W        W78797  27.761  39.840  12.409
 8198W        W78798  12.859  12.056  10.704
 8199W        W78799   6.688  34.226  11.947
 8200W        W78800  39.984  21.710   4.393
 8201W        W78801  13.194  11.597  12.525
 8202W        W78802   5.522  12.306  12.556
 8203W        W78803  42.404   9.223   0.544
 8204W        W78804  13.791  41.994  14.144
 8205W        W78805  12.898   6.733   1.949
 8206W        W78806  29.659  23.866  12.526
 8207W        W78807   2.300   9.496   0.814
 8208W        W78808  28.125  36.558  11.948
 8209W        W78809  19.145   2.271   4.507
 8210W        W78810  19.932  34.659  10.177
 8211W        W78811  43.482  20.273   0.830
 8212W        W78812  19.979   3.499   4.151
 8213W        W78813  38.736  37.613   5.106
 8214W        W78814  34.012  12.110  13.404
 8215W        W78815   3.841   9.706   0.751
 8216W        W78816  30.617  11.778  13.250
 8217W        W78817  42.635  18.563   4.163
 8218W        W78818  35.624   1.741  12.980
 8219W        W78819  23.714  19.490  10.979
 8220W        W78820  44.719   7.164  12.416
 8221W        W78821  34.042  42.404   2.244
 8222W        W78822  31.164  28.714   3.157
 8223W        W78823  26.528   8.792   4.427
 8224W        W78824  30.348  30.461   2.361
 8225W        W78825  13.330  31.301   1.135
 8226W        W78826  35.739  26.031   2.848
 8227W        W78827  42.481   7.770  13.112
 8228W        W78828  10.835  31.727  13.777
 8229W        W78829  44.570  33.179   4.378
 8230W        W78830  38.276   3.561  14.853
 8231W        W78831   0.336  28.739   5.149
 8232W        W78832  34.416  16.240   3.113
 8233W        W78833  22.833   1.742  12.099
 8234W        W78834  41.272   3.442   2.397
 8235W        W78835  39.617   9.881  13.362
 8236W        W78836  44.928  33.824  14.390
 8237W        W78837  24.036  37.108   2.199
 8238W        W78838   9.628  32.159  14.130
 8239W        W78839  12.300  18.058   2.665
 8240W        W78840  29.521  33.392  13.837
 8241W        W78841  35.884  35.090   2.359
 8242W        W78842  19.071  40.412   2.837
 8243W        W78843   5.076  22.576   5.072
 8244W        W78844  35.663  36.022  10.727
 8245W        W78845  40.051  24.743  12.708
 8246W        W78846   0.805  21.590   4.275
 8247W        W78847  15.643   5.016  11.091
 8248W        W78848  32.439   4.166  12.553
 8249W        W78849  12.436  16.915  13.483
 8250W        W78850   0.728  17.888  11.541
 8251W        W78851   4.632  13.142   4.658
 8252W        W78852  26.948   7.173  10.603
 8253W        W78853  11.865  44.391  13.268
 8254W        W78854   0.845  16.100   3.312
 8255W        W78855  24.087   1.469  11.034
 8256W        W78856  28.277  22.612   2.837
 8257W        W78857  22.571  32.467   0.388
 8258W        W78858  18.726  44.331   0.262
 8259W        W78859  31.167  42.266   1.753
 8260W        W78860  25.908  26.441  11.785
 8261W        W78861  32.450   3.516   0.968
 8262W        W78862  20.018  16.681  13.928
 8263W        W78863  23.770   5.273  14.177
 8264W        W78864  34.921  35.897   4.766
 8265W        W78865  34.416   2.579   2.750
 8266W        W78866  13.041  33.957   3.246
 8267W        W78867   9.179  39.339   2.733
 8268W        W78868   4.330  28.233   2.779
 8269W        W78869  27.377  40.117  11.586
 8270W        W78870  14.279  33.790  11.570
 8271W        W78871  33.233  16.250  10.778
 8272W        W78872   4.322   1.273   5.071
 8273W        W78873  35.354  22.523   2.771
 8274W        W78874  12.295   6.423   0.262
 8275W        W78875  42.523  39.775  13.583
 8276W        W78876   7.158  33.095   1.268
 8277W        W78877  11.432   8.401   2.182
 8278W        W78878  15.494  15.335   1.860
 8279W        W78879  19.352   0.804  14.476
 8280W        W78880  11.266  27.056   3.626
 8281W        W78881  37.551  43.772  11.674
 8282W        W78882   6.936  25.935   4.223
 8283W        W78883   6.517   5.127   1.377
 8284W        W78884  42.862   3.902  13.566
 8285W        W78885  21.397  19.143  12.569
 8286W        W78886   8.911  38.603  10.399
 8287W        W78887  41.223  25.961   1.598
 8288W        W78888  17.067  25.402   9.806
 8289W        W78889   0.032   2.547  12.060
 8290W        W78890  25.265  10.917  12.851
 8291W        W78891   7.107   4.401  11.664
 8292W        W78892  36.286  35.054  11.977
 8293W        W78893  27.153   9.616  11.555
 8294W        W78894  12.991  33.748  13.383
 8295W        W78895  24.605   9.112   2.330
 8296W        W78896   4.362  26.019  11.694
 8297W        W78897  31.833  36.333  13.156
 8298W        W78898  18.207  23.732   5.011
 8299W        W78899   8.590  36.333   0.203
 8300W        W78900  30.065  25.004   1.301
 8301W        W78901  30.389   6.761   3.285
 8302W        W78902   5.873  23.725   3.074
 8303W        W78903   1.779  25.747  11.660
 8304W        W78904  37.966  36.416   0.412
 8305W        W78905  13.809   5.900   3.285
 8306W        W78906  29.459  20.802   4.204
 8307W        W78907  14.543  39.468  11.504
 8308W        W78908  32.100  14.095  10.649
 8309W        W78909  40.101  31.984  12.535
 8310W        W78910   4.818  15.305   2.441
 8311W        W78911  23.405   3.359   2.318
 8312W        W78912  10.547  22.000   1.672
 8313W        W78913  20.688  16.713  10.919
 8314W        W78914  18.009  21.605  13.192
 8315W        W78915  24.594  42.530  10.724
 8316W        W78916  36.947  39.434   2.479
 8317W        W78917   0.497  17.338   3.260
 8318W        W78918  16.592  29.915  13.822
 8319W        W78919  30.417  33.112   0.476
 8320W        W78920  20.586  21.763  12.208
 8321W        W78921  28.467  19.475   0.329
 8322W        W78922  19.728  21.728  11.678
 8323W        W78923  18.510  10.749  11.742
 8324W        W78924  43.822  21.573  14.980
 8325W        W78925   8.641  29.134   0.004
 8326W        W78926  31.468  30.606  10.430
 8327W        W78927  13.350   3.422  13.867
 8328W        W78928  10.440  11.093   4.475
 8329W        W78929  17.566   9.769   1.296
 8330W        W78930  27.222   7.925  13.245
 8331W        W78931  34.486  21.480   2.750
 8332W        W78932  31.526  44.542  14.884
 8333W        W78933   7.600  30.496  14.675
 8334W        W78934   5.383  24.186   4.251
 8335W        W78935  17.539  33.461   1.714
 8336W        W78936  25.190   2.926  14.952
 8337W        W78937   6.386   5.306  13.890
 8338W        W78938   8.302  34.887  13.294
 8339W        W78939   6.336  13.166   1.320
 8340W        W78940  40.443  37.019  11.586
 8341W        W78941   3.947  27.572   3.246
 8342W        W78942  36.693  23.896   2.536
 8343W        W78943  23.029  12.805  12.797
 8344W        W78944  25.135   6.881  10.922
 8345W        W78945  20.751  19.264  10.629
 8346W        W78946   4.248   6.521   2.812
 8347W        W78947  35.591  23.029  14.923
 8348W        W78948  43.925  33.281  14.484
 8349W        W78949   5.805  28.446  10.459
 8350W        W78950   7.393  44.928  13.800
 8351W        W78951   5.029  11.953   1.626
 8352W        W78952  27.999  38.657   0.152
 8353W        W78953  24.056  27.914  12.005
 8354W        W78954  32.144   2.062   2.509
 8355W        W78955  43.549  38.310   1.244
 8356W        W78956  11.586  35.020   3.191
 8357W        W78957  35.293  27.019   0.826
 8358W        W78958   5.518  22.544  11.532
 8359W        W78959  26.112  20.957   1.197
 8360W        W78960   7.336  14.061   1.666
 8361W        W78961  31.845  28.527  11.788
 8362W        W78962  36.913  24.051  11.225
 8363W        W78963  43.732  33.795  14.414
 8364W        W78964  30.579  37.818  11.899
 8365W        W78965  34.006   3.788   2.298
 8366W        W78966   3.249  39.017   0.418
 8367W        W78967  16.037  15.248  12.405
 8368W        W78968  11.055   9.713   0.504
 8369W        W78969  26.864  22.075  10.270
 8370W        W78970  25.661  10.053   4.533
 8371W        W78971  36.444   2.889  14.060
 8372W        W78972  40.295  17.625  14.386
 8373W        W78973  18.084  20.176  11.353
 8374W        W78974  19.543   4.242  11.598
 8375W        W78975  23.779  20.797  12.075
 8376W        W78976   5.301  23.779  10.457
 8377W        W78977  21.361  35.570  11.571
 8378W        W78978  21.030  14.686  13.135
 8379W        W78979  30.966  33.455  14.851
 8380W        W78980  21.307  20.771  12.058
 8381W        W78981   3.267  33.002   0.462
 8382W        W78982  33.042  33.525  11.894
 8383W        W78983  10.740  16.273  10.603
 8384W        W78984  43.400  44.245   1.400
 8385W        W78985   8.451   0.095  13.949
 8386W        W78986  12.272  15.849   4.127
 8387W        W78987  14.356  10.377   3.316
 8388W        W78988  11.815  39.864   3.462
 8389W        W78989   2.846  16.040  14.314
 8390W        W78990  27.320  23.704   1.345
 8391W        W78991  35.046  26.743  14.334
 8392W        W78992  12.624  28.625   0.731
 8393W        W78993  15.275  15.403   3.170
 8394W        W78994  14.055  33.977   9.827
 8395W        W78995   3.151  21.061   2.563
 8396W        W78996  10.719  10.869  14.362
 8397W        W78997   7.385  36.385   0.790
 8398W        W78998  16.053  30.956  11.590
 8399W        W78999  15.023  35.569   5.034
 8400W        W79000  42.491   9.870  13.808
 8401W        W79001  11.042  31.008   1.031
 8402W        W79002  21.723  24.317   0.888
 8403W        W79003  29.109  21.368   1.371
 8404W        W79004   4.350  33.798   1.985
 8405W        W79005   9.596  13.270  11.238
 8406W        W79006  38.095  11.710  10.678
 8407W        W79007  42.231  20.731   1.865
 8408W        W79008   1.918  13.223  10.602
 8409W        W79009  37.226  11.455   2.781
 8410W        W79010  31.346   3.398  14.313
 8411W        W79011  41.568  35.960  13.344
 8412W        W79012  23.120  30.428   1.240
 8413W        W79013  27.973  28.356   4.186
 8414W        W79014   8.089  39.897   2.263
 8415W        W79015  13.565  10.532   2.324
 8416W        W79016  35.784  19.018   2.617
 8417W        W79017   3.331  13.755  14.370
 8418W        W79018  31.013  30.213   3.170
 8419W        W79019  10.826  27.355   2.287
 8420W        W79020  31.924  17.773   4.093
 8421W        W79021  21.069  20.577   4.119
 8422W        W79022   6.633  24.522   0.713
 8423W        W79023  30.650  31.911   1.190
 8424W        W79024  31.527  44.527  10.639
 8425W        W79025   3.693  38.181   0.272
 8426W        W79026  18.711  25.390  10.690
 8427W        W79027   4.683  16.422  13.888
 8428W        W79028  25.786  23.076  13.852
 8429W        W79029  13.917  28.714  14.474
 8430W        W79030  24.412   6.781  13.471
 8431W        W79031  24.958   0.090  14.942
 8432W        W79032  43.469  34.034  11.006
 8433W        W79033  41.228  38.030   4.527
 8434W        W79034  44.109  25.148   2.151
 8435W        W79035   1.009   5.340   4.305
 8436W        W79036  35.779   2.034   5.001
 8437W        W79037  10.804  25.999   1.231
 8438W        W79038  34.963   7.725  11.388
 8439W        W79039  17.977  13.901   4.198
 8440W        W79040   3.540   2.680   0.856
 8441W        W79041  28.508   1.718  13.610
 8442W        W79042  44.532  23.903   3.234
 8443W        W79043  12.377  37.313   3.086
 8444W        W79044  17.042  36.637  12.272
 8445W        W79045   1.404  12.398   0.464
 8446W        W79046   7.385  34.768  11.205
 8447W        W79047  23.731  10.445   2.912
 8448W        W79048  31.134  18.222   4.646
 8449W        W79049  37.036  28.066  11.124
 8450W        W79050  19.030  30.625  10.673
 8451W        W79051  42.293  16.476   3.717
 8452W        W79052  15.741  16.182  13.502
 8453W        W79053  35.975  28.290  13.791
 8454W        W79054  11.345  19.160  12.744
 8455W        W79055  26.675  22.757   5.062
 8456W        W79056   6.234  36.394   0.932
 8457W        W79057  24.992  29.655   0.690
 8458W        W79058  18.605  25.429   1.629
 8459W        W79059  44.359  18.312   3.162
 8460W        W79060   8.990  30.108   1.122
 8461W        W79061  43.761  30.002  11.614
 8462W        W79062   2.091  33.939  14.323
 8463W        W79063  40.821  35.164   4.237
 8464W        W79064  19.451  33.351   1.630
 8465W        W79065  18.049  39.820  10.997
 8466W        W79066  21.121  44.053   9.797
 8467W        W79067   6.181  27.679  14.346
 8468W        W79068  39.689  42.046  11.647
 8469W        W79069  14.636  21.549   4.370
 8470W        W79070  38.165  28.508  11.268
 8471W        W79071  28.213  12.667  12.098
 8472W        W79072  36.456  10.870   3.688
 8473W        W79073   8.448  23.489  11.163
 8474W        W79074  29.409   8.130  12.424
 8475W        W79075   3.253  12.229   3.187
 8476W        W79076  11.327  32.892   2.806
 8477W        W79077  39.078  37.993  10.132
 8478W        W79078  37.494  24.416  13.439
 8479W        W79079  13.167   3.246  10.689
 8480W        W79080  28.243  32.615  12.568
 8481W        W79081  30.358  42.432  14.039
 8482W        W79082   6.325   8.235  11.013
 8483W        W79083  20.570   2.889  12.943
 8484W        W79084  13.117  29.455  11.220
 8485W        W79085  36.817  38.607   2.825
 8486W        W79086  29.149   5.610  13.886
 8487W        W79087  31.923  31.423   1.358
 8488W        W79088  14.752  43.961   1.285
 8489W        W79089  38.837  17.264   3.210
 8490W        W79090  35.123   8.339   1.346
 8491W        W79091  22.810  36.531  14.551
 8492W        W79092  19.430   9.927  11.109
 8493W        W79093  14.688  23.036   0.196
 8494W        W79094  36.191  22.611   0.828
 8495W        W79095   6.793   8.847   0.827
 8496W        W79096   3.052  31.682   3.196
 8497W        W79097  43.283  24.345  12.393
 8498W        W79098  24.077  10.676  10.610
 8499W        W79099  22.792  10.262  11.272
 8500W        W79100   1.311  24.779   4.022
 8501W        W79101   2.410  19.540  11.562
 8502W        W79102  10.233  12.362   1.210
 8503W        W79103  28.838  17.799   2.302
 8504W        W79104  42.897   9.234  14.313
 8505W        W79105  38.886   6.499  11.492
 8506W        W79106   3.484  29.272  12.566
 8507W        W79107  33.886   1.526   0.826
 8508W        W79108  21.577  17.620  13.476
 8509W        W79109  10.167  19.253  13.526
 8510W        W79110   4.929   6.941  11.173
 8511W        W79111  11.334   0.451   3.412
 8512W        W79112  31.188  20.513  12.894
 8513W        W79113  39.072   7.293  12.935
 8514W        W79114  26.699  11.238   4.154
 8515W        W79115  35.878  39.290  12.969
 8516W        W79116  16.159  37.378   4.172
 8517W        W79117  10.243   2.398   4.081
 8518W        W79118  25.898  13.012  11.464
 8519W        W79119  28.436  38.812  10.516
 8520W        W79120  36.820   7.855   2.905
 8521W        W79121  14.137  21.994  12.507
 8522W        W79122   5.419  24.209   1.279
 8523W        W79123  34.944  18.629  10.783
 8524W        W79124  21.936  10.610  10.229
 8525W        W79125   3.199   3.527  13.327
 8526W        W79126  38.774   5.046  10.753
 8527W        W79127  16.051   3.924  13.853
 8528W        W79128  36.857  41.852  10.778
 8529W        W79129   0.820  27.374  14.451
 8530W        W79130  39.862  11.154  13.109
 8531W        W79131  22.154  14.621   2.328
 8532W        W79132  17.163  10.364   2.654
 8533W        W79133   0.294  19.607   0.847
 8534W        W79134  10.198  21.605   0.450
 8535W        W79135  27.034   2.760  12.651
 8536W        W79136  36.592   2.287   3.126
 8537W        W79137  12.286   4.612  12.970
 8538W        W79138  44.738   0.998   4.506
 8539W        W79139   2.532  16.586  12.085
 8540W        W79140  40.336  29.056  13.841
 8541W        W79141  26.591  12.075  12.059
 8542W        W79142  34.788  44.226  10.074
 8543W        W79143   2.449   6.859   0.076
 8544W        W79144  12.071  16.541  13.542
 8545W        W79145  37.219   0.951   1.412
 8546W        W79146  22.227  42.970  13.022
 8547W        W79147  14.344   2.054  11.193
 8548W        W79148  44.359  12.969   4.576
 8549W        W79149  19.297  22.809   4.468
 8550W        W79150  34.855  19.850  13.696
 8551W        W79151  16.560  14.097   2.405
 8552W        W79152  34.575  18.005  14.605
 8553W        W79153  24.171  16.406   0.583
 8554W        W79154  43.732  10.899   0.255
 8555W        W79155   4.456  22.040  11.120
 8556W        W79156  37.994  42.740  14.810
 8557W        W79157  14.114  29.940  14.695
 8558W        W79158  20.421   6.705  13.565
 8559W        W79159  29.202   6.690   3.661
 8560W        W79160   5.864  26.250  13.306
 8561W        W79161  16.133  11.200  14.541
 8562W        W79162  17.710  10.279   1.194
 8563W        W79163   5.269  15.940   4.079
 8564W        W79164  23.937   6.901  13.324
 8565W        W79165  14.070  10.747   2.420
 8566W        W79166   2.716   8.607   3.191
 8567W        W79167  42.840   8.673   4.518
 8568W        W79168  25.480  12.122   3.344
 8569W        W79169  20.561  31.983   0.869
 8570W        W79170  26.205  20.527   2.867
 8571W        W79171  18.602   1.985   0.708
 8572W        W79172  27.144   7.492  12.979
 8573W        W79173  34.016  44.614   0.399
 8574W        W79174  31.053  28.609  13.292
 8575W        W79175  17.668   4.173  11.754
 8576W        W79176  36.340  44.986  12.380
 8577W        W79177  31.648  26.432   2.338
 8578W        W79178  10.448  37.265  10.386
 8579W        W79179  25.502  27.787   1.705
 8580W        W79180  33.036  15.640   0.522
 8581W        W79181  38.465  14.775  14.246
 8582W        W79182  36.636  34.422  11.084
 8583W        W79183  35.263   8.440  14.413
 8584W        W79184  32.235  35.117  12.481
 8585W        W79185   3.769   8.763   1.713
 8586W        W79186  33.994  37.024   0.798
 8587W        W79187  16.249  25.511  10.489
 8588W        W79188  44.001  18.302  13.040
 8589W        W79189   3.521  21.619  10.933
 8590W        W79190  23.063   9.410  12.119
 8591W        W79191  17.846  11.634   1.774
 8592W        W79192  10.315   4.785   1.328
 8593W        W79193  24.592  26.994  12.434
 8594W        W79194  23.144  33.830  12.997
 8595W        W79195   1.353  43.536  13.783
 8596W        W79196  20.031  38.160   4.660
 8597W        W79197  21.095  16.728  10.608
 8598W        W79198  32.164  25.150  14.982
 8599W        W79199  27.219  27.604  14.528
 8600W        W79200  43.436  23.195  14.333
 8601W        W79201  16.217  21.225   1.123
 8602W        W79202  29.115  23.639   1.052
 8603W        W79203  31.090  28.890  13.936
 8604W        W79204   9.149   3.229   5.069
 8605W        W79205  24.607  33.619  12.244
 8606W        W79206  20.129  14.349   1.942
 8607W        W79207  20.086  42.558   2.199
 8608W        W79208  12.752  26.156  14.396
 8609W        W79209  38.537  19.115  14.470
 8610W        W79210  16.889  18.181  13.983
 8611W        W79211  16.576  39.466  10.716
 8612W        W79212   7.822  18.326   0.562
 8613W        W79213  41.797   7.192  11.510
 8614W        W79214  13.216  28.993   1.322
 8615W        W79215  12.173  15.686   0.327
 8616W        W79216  36.855  21.081  13.490
 8617W        W79217   7.448   4.616  11.998
 8618W        W79218  44.048  25.230   3.667
 8619W        W79219  30.989  39.909   1.370
 8620W        W79220  17.144  15.317  14.629
 8621W        W79221  29.978   9.372  12.603
 8622W        W79222  26.770  20.270  11.107
 8623W        W79223   8.882  25.987   4.429
 8624W        W79224   7.724  15.758   4.593
 8625W        W79225  34.509  31.582  12.920
 8626W        W79226  25.759  40.562  11.932
 8627W        W79227  15.611  41.719   0.853
 8628W        W79228   1.799  14.068  13.970
 8629W        W79229  36.228   2.372   0.789
 8630W        W79230  22.190  40.633  14.451
 8631W        W79231   0.044  35.903  12.157
 8632W        W79232  17.700  20.355   3.647
 8633W        W79233  31.375  22.350  12.511
 8634W        W79234  39.944  18.517   3.133
 8635W        W79235  42.928  33.423  13.048
 8636W        W79236  40.417  34.522   4.096
 8637W        W79237  22.722   2.717  13.382
 8638W        W79238  10.269  27.378  11.389
 8639W        W79239  43.218  38.423   2.237
 8640W        W79240  11.043  33.069   4.172
 8641W        W79241  29.265  11.943  14.508
 8642W        W79242   7.874  37.881   1.832
 8643W        W79243   2.382  36.242   4.091
 8644W        W79244  36.359  23.429   0.194
 8645W        W79245  22.874  23.477  12.428
 8646W        W79246  10.550  28.186  11.952
 8647W        W79247  29.035  36.971  11.865
 8648W        W79248   1.205  43.375  12.334
 8649W        W79249  20.054  39.366  14.845
 8650W        W79250  26.158  42.224   4.364
 8651W        W79251  37.811   9.244  13.434
 8652W        W79252  20.171  11.416  12.510
 8653W        W79253  37.246  39.565  14.898
 8654W        W79254   1.418  18.845   3.375
 8655W        W79255  44.194  10.165   1.227
 8656W        W79256   6.960  31.178   2.297
 8657W        W79257  36.800  21.016   2.643
 8658W        W79258   2.236  17.097   1.407
 8659W        W79259  25.188  31.683   1.840
 8660W        W79260  35.162   4.179   0.296
 8661W        W79261   9.819   5.577   3.838
 8662W        W79262  21.038   2.898   3.852
 8663W        W79263  26.107   8.769   4.154
 8664W        W79264   3.449  34.167   3.223
 8665W        W79265  28.289  15.156   2.327
 8666W        W79266   5.690   0.790  12.938
 8667W        W79267   3.070  18.622  14.913
 8668W        W79268   6.302  37.803   0.416
 8669W        W79269   1.527  38.473  11.088
 8670W        W79270   6.018   7.674   1.653
 8671W        W79271   3.949  12.143   2.932
 8672W        W79272   0.061   5.864   2.962
 8673W        W79273  21.999   1.817   2.463
 8674W        W79274  37.651  44.411   4.199
 8675W        W79275   5.503  41.854   1.437
 8676W        W79276  32.452   6.414   2.316
 8677W        W79277  22.216   4.728   4.850
 8678W        W79278  39.251  26.168  14.062
 8679W        W79279  31.862  42.825   3.398
 8680W        W79280  44.522   6.375   3.068
 8681W        W79281  36.748  38.976  14.447
 8682W        W79282  44.070  17.138  13.987
 8683W        W79283   8.664  19.195   5.115
 8684W        W79284  12.578  11.725   1.887
 8685W        W79285   6.817   5.020  13.988
 8686W        W79286   0.835  37.386  12.201
 8687W        W79287  21.673  42.594   0.143
 8688W        W79288  33.408  12.153   4.515
 8689W        W79289   8.135  15.817   1.884
 8690W        W79290  40.921  44.249   1.754
 8691W        W79291  18.649   6.401   3.298
 8692W        W79292  18.600  42.050  10.846
 8693W        W79293  13.571   5.462  13.417
 8694W        W79294  25.212  25.039  12.484
 8695W        W79295  27.016   6.808   4.649
 8696W        W79296  40.355  16.547   0.812
 8697W        W79297   4.449  25.135   3.644
 8698W        W79298  26.909  13.843   3.752
 8699W        W79299  13.205   3.364  14.834
 8700W        W79300  28.223   5.371  10.013
 8701W        W79301  43.254  27.453   1.007
 8702W        W79302  27.687   6.838  11.976
 8703W        W79303  11.946  17.005  13.306
 8704W        W79304  38.534  37.956   4.748
 8705W        W79305   0.940  28.723  12.420
 8706W        W79306   6.178  24.639  13.476
 8707W        W79307   4.738  24.985   0.387
 8708W        W79308  38.780  20.397  13.062
 8709W        W79309  13.064   6.730  14.391
 8710W        W79310  23.000  25.012  14.052
 8711W        W79311   5.240  26.536  12.931
 8712W        W79312  33.972  33.530   0.018
 8713W        W79313  39.776  38.361  13.350
 8714W        W79314  22.855  28.056   1.896
 8715W        W79315   4.144  20.346   2.120
 8716W        W79316  17.391  33.111   3.601
 8717W        W79317   5.349   2.456   1.869
 8718W        W79318  12.747  38.166   3.811
 8719W        W79319  11.727  39.010  13.377
 8720W        W79320  26.662  32.884   3.910
 8721W        W79321  43.426   4.905   2.718
 8722W        W79322  35.861   7.683   2.294
 8723W        W79323  33.189  39.059   3.647
 8724W        W79324   0.304  44.249   2.800
 8725W        W79325  32.546  33.080  13.593
 8726W        W79326  38.918   9.315   1.635
 8727W        W79327  31.687   4.594   4.340
 8728W        W79328  32.305  38.109   0.707
 8729W        W79329  29.008  14.249   3.749
 8730W        W79330  13.149  10.215  12.667
 8731W        W79331  39.079   3.880   1.943
 8732W        W79332  18.103  26.499  14.687
 8733W        W79333   3.242  16.236   2.257
 8734W        W79334  16.755  28.986   2.365
 8735W        W79335  42.876  42.924  11.245
 8736W        W79336  38.837  43.652  10.890
 8737W        W79337  26.631  35.567  12.051
 8738W        W79338   6.954  21.861   3.667
 8739W        W79339  34.340  40.727   1.171
 8740W        W79340  44.795  43.643  12.259
 8741W        W79341  42.798  41.965   0.962
 8742W        W79342  38.048  16.012  11.154
 8743W        W79343  24.333  41.021  14.461
 8744W        W79344  30.201  29.439  13.813
 8745W        W79345   6.994   7.452  12.940
 8746W        W79346   0.287  20.821  12.398
 8747W        W79347  36.988   9.259  14.436
 8748W        W79348   2.928  17.982   0.648
 8749W        W79349  32.620  29.868  11.132
 8750W        W79350  42.428   3.954  13.860
 8751W        W79351   6.165   1.416   4.576
 8752W        W79352  25.002   3.066   2.644
 8753W        W79353   9.739  18.266  13.872
 8754W        W79354  44.051   8.656  14.456
 8755W        W79355  13.621  30.885  13.546
 8756W        W79356  11.590  17.070   1.746
 8757W        W79357  13.028   3.232  14.349
 8758W        W79358  30.208  28.126   4.121
 8759W        W79359  25.970  23.931   0.818
 8760W        W79360  30.131  27.255  12.431
 8761W        W79361  30.568  34.209  13.582
 8762W        W79362  30.614   6.385   0.872
 8763W        W79363  15.112  14.174  13.778
 8764W        W79364  36.045   1.276  13.897
 8765W        W79365  26.455  16.287  11.648
 8766W        W79366  38.045  26.492  10.692
 8767W        W79367  18.789   9.471   2.712
 8768W        W79368   1.875  32.751  12.911
 8769W        W79369  35.615  32.506  13.540
 8770W        W79370  35.832   0.180  12.510
 8771W        W79371  31.730   7.775  14.741
 8772W        W79372  38.283  32.631   2.235
 8773W        W79373  27.126  44.020  12.440
 8774W        W79374  13.479  19.026   0.952
 8775W        W79375  21.458   7.703   3.385
 8776W        W79376  10.367   5.760  11.491
 8777W        W79377  30.558  23.715  12.713
 8778W        W79378   5.697  15.892   0.114
 8779W        W79379   2.444  25.564  10.536
 8780W        W79380   3.784  21.481  11.613
 8781W        W79381  31.867   6.880  14.347
 8782W        W79382  39.942  16.737  12.989
 8783W        W79383  18.279   8.888   2.239
 8784W        W79384  20.241  15.122   0.783
 8785W        W79385  26.719  30.773  13.343
 8786W        W79386  28.339  29.677   2.260
 8787W        W79387  19.034  17.254   1.736
 8788W        W79388  40.579   9.999   3.718
 8789W        W79389  25.097  34.641   0.521
 8790W        W79390   9.249  14.512  13.554
 8791W        W79391  26.095  12.124  13.998
 8792W        W79392  10.426   8.349  13.954
 8793W        W79393   0.901  11.897   2.698
 8794W        W79394   5.932  44.270   0.334
 8795W        W79395  37.916   8.967   1.246
 8796W        W79396  33.556  15.001   0.249
 8797W        W79397   1.448  14.036  12.426
 8798W        W79398   1.353  35.616  13.696
 8799W        W79399  44.009   6.684   0.942
 8800W        W79400  30.709   0.759   4.287
 8801W        W79401  32.104   0.489   0.544
 8802W        W79402  38.460  16.892   3.675
 8803W        W79403  30.131  31.566  12.045
 8804W        W79404  31.656  17.264   0.927
 8805W        W79405  36.933  39.913   1.717
 8806W        W79406  32.950  44.884  11.057
 8807W        W79407  14.970   0.802   2.707
 8808W        W79408  35.345  23.601  14.436
 8809W        W79409  19.340  35.904   2.212
 8810W        W79410   0.781  33.486  14.925
 8811W        W79411   8.912  44.546  11.640
 8812W        W79412  10.758   1.148   2.045
 8813W        W79413  27.955   3.539  13.432
 8814W        W79414  24.194  31.664  11.752
 8815W        W79415   2.886  22.981   2.251
 8816W        W79416  42.953  32.637   0.246
 8817W        W79417  33.065  38.197   4.400
 8818W        W79418  26.076  42.431   0.055
 8819W        W79419  43.424  39.045   0.843
 8820W        W79420  32.416   7.270   0.249
 8821W        W79421  36.640  11.886  14.912
 8822W        W79422  22.828  33.878  13.849
 8823W        W79423   2.259  33.495  12.891
 8824W        W79424   0.027  28.296  12.601
 8825W        W79425  20.316  25.039   3.748
 8826W        W79426  18.238   3.224  13.487
 8827W        W79427  38.882  21.939  13.934
 8828W        W79428  22.572  15.205  13.939
 8829W        W79429  36.009  20.652  11.283
 8830W        W79430  43.537  35.495  12.601
 8831W        W79431   9.706  30.332  11.438
 8832W        W79432  16.565  40.477  11.622
 8833W        W79433  26.004  15.010   4.251
 8834W        W79434  30.347  36.964  12.443
 8835W        W79435  35.825  22.567  14.897
 8836W        W79436   9.613  29.467   1.446
 8837W        W79437  32.898  38.336  13.196
 8838W        W79438  37.019   1.215   1.005
 8839W        W79439   2.419  11.408   2.149
 8840W        W79440  18.545  30.182   2.726
 8841W        W79441  43.320  17.226   0.972
 8842W        W79442  11.547  42.835   3.493
 8843W        W79443  29.706  27.256   1.137
 8844W        W79444  19.253  12.880   2.117
 8845W        W79445  29.344  33.401  14.324
 8846W        W79446   0.344   8.725   0.946
 8847W        W79447  28.044  23.041  13.837
 8848W        W79448  17.765  39.442   0.453
 8849W        W79449  44.699  15.175   3.177
 8850W        W79450  33.430  43.185   1.422
 8851W        W79451  32.552  12.127   3.403
 8852W        W79452   6.233  36.597   2.424
 8853W        W79453   8.966  14.494  14.089
 8854W        W79454  27.419  16.424   3.260
 8855W        W79455  27.091  33.186   3.842
 8856W        W79456  21.323  14.566   4.097
 8857W        W79457  36.678  12.883   0.969
 8858W        W79458  27.323  13.021   0.573
 8859W        W79459   1.452  12.036   0.914
 8860W        W79460  19.221   7.316   4.266
 8861W        W79461  14.591   1.785   0.857
 8862W        W79462  11.738   2.005  14.962
 8863W        W79463  34.809  14.343  10.207
 8864W        W79464  12.095  36.654   1.281
 8865W        W79465   1.377  20.704   0.912
 8866W        W79466   1.430  15.862   3.220
 8867W        W79467   2.410  23.124   0.704
 8868W        W79468  31.400  33.978   2.757
 8869W        W79469   0.049  33.041  14.772
 8870W        W79470   0.812  44.305   1.907
 8871W        W79471  37.300   0.054   4.294
 8872W        W79472  13.210  16.197   4.416
 8873W        W79473   2.370  38.303   0.379
 8874W        W79474  26.524  16.631   3.157
 8875W        W79475  31.528  27.598  11.460
 8876W        W79476  38.617   2.148   3.330
 8877W        W79477  12.861   2.399   1.655
 8878W        W79478  41.436   0.222   1.444
 8879W        W79479   4.206   9.249   2.806
 8880W        W79480  16.136  29.438  14.795
 8881W        W79481  25.092  21.635  12.035
 8882W        W79482  12.096  24.961   0.274
 8883W        W79483  23.459  42.592  11.996
 8884W        W79484  30.094   1.909   0.707
 8885W        W79485  30.419  17.231  12.270
 8886W        W79486   1.203  16.103   2.240
 8887W        W79487  14.758   4.751  14.438
 8888W        W79488  30.442  35.478  13.808
 8889W        W79489  44.545  18.112   1.813
 8890W        W79490  12.191  21.436  11.086
 8891W        W79491   9.750  44.031  10.758
 8892W        W79492  44.327  20.785   2.234
 8893W        W79493  11.338   3.736  11.578
 8894W        W79494  34.545   1.391  14.103
 8895W        W79495  36.637   9.750  12.142
 8896W        W79496  35.147   9.692   1.699
 8897W        W79497  17.331  27.570   0.263
 8898W        W79498   6.114  41.515   4.673
 8899W        W79499  31.040  16.112   0.200
 8900W        W79500  39.775  17.552  12.985
 8901W        W79501  28.566  12.349  13.472
 8902W        W79502  38.527  37.809   1.357
 8903W        W79503   1.885  20.269   2.376
 8904W        W79504   1.384  39.316   3.275
 8905W        W79505  35.403  21.654  11.959
 8906W        W79506  17.969  18.533   0.025
 8907W        W79507   1.739  21.075   0.904
 8908W        W79508  42.822  41.838   3.264
 8909W        W79509  11.251  38.708  10.427
 8910W        W79510  24.425  23.686  10.775
 8911W        W79511  24.000  29.761   2.218
 8912W        W79512  26.170   5.921   2.296
 8913W        W79513  18.773  40.854   2.437
 8914W        W79514   1.297  17.863  12.616
 8915W        W79515  32.896  12.679  10.565
 8916W        W79516   7.653  16.184  13.552
 8917W        W79517  32.407  15.674  10.705
 8918W        W79518  34.019  43.981  14.197
 8919W        W79519   9.860  23.633  12.498
 8920W        W79520  16.180  36.859   2.766
 8921W        W79521   7.309  13.646  13.501
 8922W        W79522  20.131   7.431   2.300
 8923W        W79523  42.372  35.930   2.729
 8924W        W79524  10.551  22.972   2.328
 8925W        W79525  21.327   9.297  14.790
 8926W        W79526  41.938  31.026  11.106
 8927W        W79527  29.865  41.256   0.278
 8928W        W79528  18.597  30.442   3.822
 8929W        W79529   3.642  16.142  10.658
 8930W        W79530   6.905  35.974   2.389
 8931W        W79531  44.401  31.963  14.503
 8932W        W79532   0.191  36.200  14.589
 8933W        W79533  15.396  32.130  14.327
 8934W        W79534  15.308  11.779  11.863
 8935W        W79535  38.838   9.704  12.931
 8936W        W79536  15.757   0.309   4.516
 8937W        W79537  28.730  43.511  14.819
 8938W        W79538  12.630   2.772   4.387
 8939W        W79539  12.165  12.420   2.346
 8940W        W79540  29.188  21.338   0.016
 8941W        W79541  30.410  25.499   4.889
 8942W        W79542  44.325   7.842  10.290
 8943W        W79543   7.550   3.845  14.638
 8944W        W79544  43.810  34.173  13.473
 8945W        W79545   3.429   5.898   1.919
 8946W        W79546  32.663  30.855  13.412
 8947W        W79547  42.323  10.337  12.958
 8948W        W79548   9.187  34.864  11.108
 8949W        W79549  42.856  29.518   1.161
 8950W        W79550  21.135   9.402  13.377
 8951W        W79551  10.668  37.031   3.384
 8952W        W79552  32.949   2.904  13.773
 8953W        W79553   9.844  36.278  14.497
 8954W        W79554  19.325  39.709   2.894
 8955W        W79555   3.621  29.530   4.650
 8956W        W79556  12.531  20.567   0.224
 8957W        W79557  41.557  25.245  11.558
 8958W        W79558  41.543  43.432  13.877
 8959W        W79559   5.194  37.617  10.870
 8960W        W79560  20.135  23.155  10.546
 8961W        W79561  32.130  28.621  14.393
 8962W        W79562  15.067  23.787  12.849
 8963W        W79563  27.686  28.546   4.572
 8964W        W79564  37.067  40.764  12.903
 8965W        W79565  39.100  14.177   3.632
 8966W        W79566  25.471   3.813   1.384
 8967W        W79567  23.656  37.856   4.377
 8968W        W79568   6.264  27.116  13.644
 8969W        W79569  26.751   4.911   1.201
 8970W        W79570  18.159  38.411   0.923
 8971W        W79571   4.601  17.174  10.730
 8972W        W79572  17.593  12.154   4.172
 8973W        W79573   0.825  27.172   1.444
 8974W        W79574  28.604  12.883   3.256
 8975W        W79575  27.687  40.768  11.905
 8976W        W79576  12.854  21.939   0.573
 8977W        W79577  38.808  28.156  10.731
 8978W        W79578  33.453  13.900  12.694
 8979W        W79579   7.267  39.828  10.770
 8980W        W79580  23.182  43.506  12.212
 8981W        W79581  44.400   9.518  14.900
 8982W        W79582  38.008  27.171  12.042
 8983W        W79583  39.289  23.167  12.448
 8984W        W79584  26.171   5.513  10.755
 8985W        W79585  36.390  21.611  11.660
 8986W        W79586   7.470  28.428  13.777
 8987W        W79587  27.569  20.729  11.995
 8988W        W79588  36.382  22.117   0.894
 8989W        W79589  42.876  17.524  10.757
 8990W        W79590   9.505  15.060  13.502
 8991W        W79591  12.614   5.860   4.667
 8992W        W79592  36.387  24.960   0.341
 8993W        W79593  13.829  16.501   1.707
 8994W        W79594  36.039   1.766  13.728
 8995W        W79595  43.733   1.893   0.070
 8996W        W79596  23.515  24.934  11.117
 8997W        W79597  11.420  32.089  14.524
 8998W        W79598  33.525  41.259   1.373
 8999W        W79599  30.255  21.661   0.710
 9000W        W79600  18.717   1.038  11.611
 9001W        W79601   9.971  44.421   1.770
 9002W        W79602  35.025  35.991   2.024
 9003W        W79603  26.216   1.932   0.757
 9004W        W79604  13.914  28.108  11.535
 9005W        W79605   4.452  29.943   0.282
 9006W        W79606  28.408  28.158  12.423
 9007W        W79607  37.087  28.666   0.820
 9008W        W79608  20.276  38.443   3.164
 9009W        W79609  11.062  12.863   3.143
 9010W        W79610  36.478  39.851  11.645
 9011W        W79611  34.887   6.238   3.174
 9012W        W79612   2.215  19.868   3.771
 9013W        W79613  11.479  41.535  13.230
 9014W        W79614   7.802  40.590  10.802
 9015W        W79615   8.582  18.819   2.289
 9016W        W79616  22.147  19.320   3.597
 9017W        W79617  36.560  36.665   0.470
 9018W        W79618  12.143  10.331  13.597
 9019W        W79619  17.102  39.657   2.661
 9020W        W79620   2.018  17.758  13.836
 9021W        W79621   8.189   0.676  11.950
 9022W        W79622  31.559  44.528  13.880
 9023W        W79623   6.732  20.149  11.621
 9024W        W79624   3.379   6.581  11.621
 9025W        W79625   4.763  11.681  12.671
 9026W        W79626   5.384  11.513   4.934
 9027W        W79627  42.885  34.173  13.476
 9028W        W79628  19.568  38.723  12.975
 9029W        W79629  16.579  23.244   4.645
 9030W        W79630  38.343  35.503  13.848
 9031W        W79631  41.786  26.743   4.656
 9032W        W79632  31.936  15.648   4.610
 9033W        W79633  30.572   8.679  13.395
 9034W        W79634  27.109  35.179   2.830
 9035W        W79635  10.253  22.479   3.594
 9036W        W79636  42.891  26.486   0.494
 9037W        W79637  32.174   8.793  13.290
 9038W        W79638  33.606  43.362   4.848
 9039W        W79639  28.257  17.314  12.031
 9040W        W79640   7.754  32.398  12.104
 9041W        W79641  42.968  36.562   2.682
 9042W        W79642  42.355  19.141   3.801
 9043W        W79643  11.680  13.762  13.360
 9044W        W79644   8.713  10.624   1.686
 9045W        W79645  43.110  14.662  10.683
 9046W        W79646  36.640   6.688   4.246
 9047W        W79647  18.196  18.377  12.340
 9048W        W79648  44.339  12.801  14.904
 9049W        W79649  38.624  23.588   0.079
 9050W        W79650  38.943  24.175   1.895
 9051W        W79651  30.943  12.886  11.210
 9052W        W79652   2.841  11.059   1.397
 9053W        W79653   9.145  15.067   1.259
 9054W        W79654  36.544  25.774   0.713
 9055W        W79655  10.858   1.194  10.382
 9056W        W79656  40.766  33.520  12.059
 9057W        W79657  23.038  24.899   0.484
 9058W        W79658  10.623  42.725  13.869
 9059W        W79659  44.528  38.289  11.574
 9060W        W79660  12.149  34.912   4.431
 9061W        W79661  31.063  42.059   1.253
 9062W        W79662  36.452  43.256  12.900
 9063W        W79663  31.207  43.665  14.014
 9064W        W79664  24.128  41.278   1.390
 9065W        W79665  21.529  34.048   1.205
 9066W        W79666   8.292  20.262   3.661
 9067W        W79667  30.515  38.521  14.536
 9068W        W79668  41.114  11.389   3.724
 9069W        W79669  14.816   3.248   1.389
 9070W        W79670   5.991  35.309  12.988
 9071W        W79671   2.744  40.654   3.606
 9072W        W79672   8.751  29.414   3.207
 9073W        W79673  39.553  14.260   2.716
 9074W        W79674  10.351   4.356   3.799
 9075W        W79675  22.963  16.344  12.172
 9076W        W79676  15.186  26.540   0.826
 9077W        W79677  12.974  37.309  11.097
 9078W        W79678  12.745  18.808  11.597
 9079W        W79679  43.896   1.730   2.655
 9080W        W79680  35.398  15.261   1.442
 9081W        W79681  26.690  19.230   1.794
 9082W        W79682   5.048  17.239   2.720
 9083W        W79683   5.800   8.586  11.684
 9084W        W79684  16.681  20.096   4.442
 9085W        W79685  29.014  10.913   1.399
 9086W        W79686   2.136  26.002   3.676
 9087W        W79687  27.255  43.852  12.911
 9088W        W79688  32.530   3.085   4.200
 9089W        W79689   0.200   3.203   2.882
 9090W        W79690  10.407   1.972   4.307
 9091W        W79691  34.011  25.301   2.679
 9092W        W79692  34.989  38.896   4.067
 9093W        W79693  35.902  25.678   4.591
 9094W        W79694  37.657  29.938   4.480
 9095W        W79695  14.756  14.362  11.610
 9096W        W79696  26.275  19.493  13.961
 9097W        W79697   3.244  18.252  11.191
 9098W        W79698  41.563  27.065   1.970
 9099W        W79699   1.815  10.123  13.937
 9100W        W79700  15.612  32.454  11.117
 9101W        W79701  18.138  38.540  10.496
 9102W        W79702   6.044  38.063   0.884
 9103W        W79703  10.198  43.778   5.018
 9104W        W79704  36.072  29.037   3.885
 9105W        W79705   8.564  28.633  11.483
 9106W        W79706  33.214  21.901   1.669
 9107W        W79707  23.966  15.540   3.763
 9108W        W79708  11.874  37.165  14.755
 9109W        W79709  27.223  40.436   0.208
 9110W        W79710  43.208   8.675  14.863
 9111W        W79711  13.612  43.903  13.576
 9112W        W79712   1.706  37.044   4.000
 9113W        W79713  43.741  12.082  10.556
 9114W        W79714  10.988   7.210   2.809
 9115W        W79715  18.651  13.279   1.519
 9116W        W79716  44.308  35.387   3.854
 9117W        W79717  30.130  38.883   2.760
 9118W        W79718  37.477   8.415   3.849
 9119W        W79719  35.099  39.953  13.980
 9120W        W79720  33.470  33.274   3.329
 9121W        W79721   7.653   2.361   2.134
 9122W        W79722  20.711  27.373  10.252
 9123W        W79723  38.442  21.721  13.780
 9124W        W79724  21.765  16.600  12.519
 9125W        W79725  11.355  26.544   3.488
 9126W        W79726  18.303   7.878   1.387
 9127W        W79727  39.641  32.879  12.027
 9128W        W79728  26.225  16.113   1.779
 9129W        W79729  23.230  14.785   0.545
 9130W        W79730  38.940  30.053  10.975
 9131W        W79731  15.741   2.939   1.922
 9132W        W79732  23.877  14.138   1.770
 9133W        W79733  23.078  31.711  14.130
 9134W        W79734  14.563  38.530  14.891
 9135W        W79735  39.334  30.960   4.141
 9136W        W79736  41.852  38.234  13.381
 9137W        W79737  28.106  34.914   3.146
 9138W        W79738  25.278   5.207  13.506
 9139W        W79739   3.703   0.943  10.185
 9140W        W79740   7.637  25.606   1.213
 9141W        W79741   3.411   2.615   3.405
 9142W        W79742  32.763  41.543  13.113
 9143W        W79743  34.631   8.843   4.108
 9144W        W79744  31.682   9.986   0.492
 9145W        W79745  14.214  30.073  13.021
 9146W        W79746   6.128  32.445  13.800
 9147W        W79747  21.799  38.837   2.137
 9148W        W79748  41.311   2.723  11.426
 9149W        W79749  44.304  42.464  12.113
 9150W        W79750  11.800  27.648   3.278
 9151W        W79751   0.088  21.270   3.161
 9152W        W79752  40.528  22.855  12.765
 9153W        W79753  14.336   7.812   3.634
 9154W        W79754  19.187  10.552   4.164
 9155W        W79755   9.605   9.775   0.456
 9156W        W79756  26.027  12.046  10.482
 9157W        W79757  30.587  18.542  10.739
 9158W        W79758  15.610  31.945  11.127
 9159W        W79759  35.853  35.581  13.109
 9160W        W79760  18.782  12.620  10.777
 9161W        W79761  25.943  10.262  13.556
 9162W        W79762  39.882  12.348  14.229
 9163W        W79763  27.344  44.041  10.399
 9164W        W79764  37.090  13.978  11.586
 9165W        W79765  17.846  34.296   3.649
 9166W        W79766  34.130  37.933  10.706
 9167W        W79767   2.431  37.825  13.922
 9168W        W79768  27.013  43.699   4.542
 9169W        W79769  19.900  33.286  13.200
 9170W        W79770  21.049   2.056   4.312
 9171W        W79771  29.640   4.951   3.343
 9172W        W79772  28.635  12.671   0.477
 9173W        W79773  18.181  22.172  11.963
 9174W        W79774  23.619  41.201  10.607
 9175W        W79775  19.528  43.236   0.798
 9176W        W79776  40.857  16.799   0.824
 9177W        W79777  19.459  34.931  13.392
 9178W        W79778  30.002  38.246  12.505
 9179W        W79779  20.294  13.838   1.295
 9180W        W79780  43.389  27.572   4.662
 9181W        W79781  43.827   7.353  11.427
 9182W        W79782   3.542  32.936  14.648
 9183W        W79783  25.588  40.725   4.569
 9184W        W79784  13.856   5.266  11.487
 9185W        W79785  44.400  37.533  12.672
 9186W        W79786  22.152  16.851  13.480
 9187W        W79787   9.435  39.489  12.808
 9188W        W79788   6.366  28.504  14.930
 9189W        W79789   8.144   0.258  11.613
 9190W        W79790  14.804  24.763  12.544
 9191W        W79791   2.989  25.516  13.791
 9192W        W79792  39.740  15.825  11.083
 9193W        W79793   7.286  19.658   4.098
 9194W        W79794   5.755  44.658   3.216
 9195W        W79795  23.922   6.322   0.842
 9196W        W79796  30.213  22.723   1.214
 9197W        W79797  18.581  34.529   3.220
 9198W        W79798  42.738  20.759   1.738
 9199W        W79799  31.778   8.537  12.011
 9200W        W79800  24.554  29.961  11.899
 9201W        W79801   6.664  25.048   3.288
 9202W        W79802  31.963  38.977   5.248
 9203W        W79803  27.580  39.569  10.668
 9204W        W79804  24.098   2.057   1.423
 9205W        W79805  39.539   6.794   4.571
 9206W        W79806  31.831  16.456   1.639
 9207W        W79807  30.064   5.377   2.401
 9208W        W79808  38.407  15.910   0.981
 9209W        W79809   5.131  29.654  13.137
 9210W        W79810  41.883  31.623   3.294
 9211W        W79811  43.991  15.648  13.765
 9212W        W79812  36.519  40.453   2.347
 9213W        W79813  24.288  38.741   1.300
 9214W        W79814  31.356  19.462   4.099
 9215W        W79815  35.618  21.160  10.705
 9216W        W79816  12.370   8.051   1.974
 9217W        W79817  25.995  21.146   4.118
 9218W        W79818  11.188  14.493   0.883
 9219W        W79819  30.715   2.244   2.739
 9220W        W79820  13.168  12.220   3.571
 9221W        W79821  12.112  23.342  12.364
 9222W        W79822  10.295  14.253  10.044
 9223W        W79823  24.505  33.150   1.272
 9224W        W79824  19.757  16.616  13.400
 9225W        W79825  43.559  40.923   1.458
 9226W        W79826   9.316   9.778  13.449
 9227W        W79827   0.273  17.204   4.082
 9228W        W79828  39.888  14.234   3.115
 9229W        W79829  33.953  12.150   2.717
 9230W        W79830  18.010   1.339  11.662
 9231W        W79831  27.193   0.750   4.214
 9232W        W79832   0.263  19.300  14.328
 9233W        W79833  30.106  27.701   3.248
 9234W        W79834  17.039  24.420  11.169
 9235W        W79835  11.004  27.574   0.957
 9236W        W79836  10.308  44.880   4.656
 9237W        W79837   6.758  21.312  13.361
 9238W        W79838   2.877   8.193  14.579
 9239W        W79839  19.101  16.724   0.226
 9240W        W79840   9.958  23.720  11.980
 9241W        W79841  39.549  11.085   4.679
 9242W        W79842  25.647   2.733  11.555
 9243W        W79843  37.897  21.533   5.055
 9244W        W79844  28.280  31.637   0.023
 9245W        W79845  17.684  16.184  12.150
 9246W        W79846  34.324  38.679  11.489
 9247W        W79847  24.070   1.254   1.880
 9248W        W79848  40.553  33.452   3.052
 9249W        W79849  40.340  10.320  11.393
 9250W        W79850  42.655  19.710  13.851
 9251W        W79851  17.137   4.891  14.813
 9252W        W79852  41.167  40.422  13.766
 9253W        W79853   3.257  23.333  14.756
 9254W        W79854  17.399  36.113  13.065
 9255W        W79855   3.927  30.984  12.077
 9256W        W79856  29.582  31.462  10.331
 9257W        W79857  36.494  13.213  10.685
 9258W        W79858  29.991  20.689   3.143
 9259W        W79859   4.040  40.349   3.206
 9260W        W79860  22.731  12.574  12.031
 9261W        W79861  37.413   9.096   1.047
 9262W        W79862  16.480  17.406   0.399
 9263W        W79863  21.687  16.063  11.106
 9264W        W79864   9.887  16.734   3.274
 9265W        W79865  19.769   6.262   4.893
 9266W        W79866  26.927  16.137   0.276
 9267W        W79867  17.807  41.877   0.955
 9268W        W79868  29.278  13.886  14.464
 9269W        W79869   6.365  21.641  14.037
 9270W        W79870  18.556  13.728  13.078
 9271W        W79871  44.848  17.002   2.280
 9272W        W79872   1.974  20.594   1.712
 9273W        W79873  16.010  16.124  12.984
 9274W        W79874  11.164  36.481  14.351
 9275W        W79875  38.342  26.502  13.900
 9276W        W79876  18.963  39.994   3.111
 9277W        W79877  19.110   8.771  13.517
 9278W        W79878   1.265  34.907   3.623
 9279W        W79879  25.663   4.367  12.426
 9280W        W79880   6.860   8.664  14.450
 9281W        W79881  31.525  16.243   2.604
 9282W        W79882   9.631  20.691   3.280
 9283W        W79883  14.295  15.763  14.331
 9284W        W79884  10.860  15.324  13.481
 9285W        W79885  39.332  28.486   3.233
 9286W        W79886  24.160   9.294   2.482
 9287W        W79887  28.692  15.550   3.690
 9288W        W79888  44.992  11.514  14.655
 9289W        W79889  39.876  42.307   2.923
 9290W        W79890  38.968  28.967   2.036
 9291W        W79891  33.776  33.647   2.718
 9292W        W79892   2.215  41.790  14.094
 9293W        W79893  43.916  19.850  14.565
 9294W        W79894  38.852   8.272  11.125
 9295W        W79895  13.101  26.595  14.911
 9296W        W79896  20.650   1.519  13.977
 9297W        W79897   3.448   0.338   4.644
 9298W        W79898  13.252  43.242   0.970
 9299W        W79899  34.644   9.836  14.935
 9300W        W79900  36.196  31.147  10.815
 9301W        W79901  31.935  24.516  12.177
 9302W        W79902  10.733  21.006  12.027
 9303W        W79903  32.440  25.526  10.773
 9304W        W79904  43.469  15.464  14.386
 9305W        W79905  24.228  44.540  12.043
 9306W        W79906  30.131  25.522  11.851
 9307W        W79907  11.627  28.523  14.977
 9308W        W79908  26.071  22.146   1.957
 9309W        W79909  38.778  32.922   1.181
 9310W        W79910  34.100  20.935  13.900
 9311W        W79911  21.966  15.631   1.196
 9312W        W79912  39.817  37.615  11.622
 9313W        W79913  14.063  38.311   1.433
 9314W        W79914  39.258  12.546  14.853
 9315W        W79915  21.640   0.058  11.225
 9316W        W79916  11.560  10.742   2.226
 9317W        W79917  44.123  38.160   0.348
 9318W        W79918   1.515  25.616   2.961
 9319W        W79919   4.879  32.164  14.410
 9320W        W79920  21.819  35.298  14.382
 9321W        W79921  29.447  31.160  11.375
 9322W        W79922  33.881  14.707  12.348
 9323W        W79923  12.523  19.052   4.082
 9324W        W79924  22.867  39.421   4.146
 9325W        W79925  25.086  14.689   3.580
 9326W        W79926   7.746  21.982  12.394
 9327W        W79927  10.638   6.070   0.393
 9328W        W79928  30.617  30.801  13.437
 9329W        W79929  23.149  38.784  10.461
 9330W        W79930  39.984  15.199   4.853
 9331W        W79931  40.546  40.878  14.752
 9332W        W79932  31.750  30.559   1.658
 9333W        W79933  43.024  12.748  13.405
 9334W        W79934  32.473  27.967   4.358
 9335W        W79935  37.594  21.469  12.501
 9336W        W79936  24.164  10.318  13.370
 9337W        W79937  25.655  28.335   1.781
 9338W        W79938  17.468  21.476   3.637
 9339W        W79939  10.462  15.522   4.128
 9340W        W79940   3.854   3.837  12.602
 9341W        W79941  11.713  38.775   4.556
 9342W        W79942  37.542  13.308  14.018
 9343W        W79943  27.707  29.863   2.210
 9344W        W79944  40.539  14.817   0.314
 9345W        W79945  19.990  39.440  13.482
 9346W        W79946  29.874  36.796  12.455
 9347W        W79947  42.298  38.915  13.319
 9348W        W79948  38.970  16.978   3.611
 9349W        W79949   5.006  24.298  11.562
 9350W        W79950  13.195  27.277  11.442
 9351W        W79951  33.203  26.947   0.086
 9352W        W79952  43.013  21.195   1.899
 9353W        W79953   9.951  20.159  12.185
 9354W        W79954   1.864  32.642   4.023
 9355W        W79955   3.684   5.845   1.242
 9356W        W79956   6.437  19.314   9.956
 9357W        W79957  31.592   2.365  12.352
 9358W        W79958  18.206  37.407  10.543
 9359W        W79959  41.048   5.347  14.760
 9360W        W79960  37.430  27.662  13.655
 9361W        W79961  39.024  17.631  12.068
 9362W        W79962  18.201  37.546   4.567
 9363W        W79963  13.253  39.982   3.199
 9364W        W79964  27.807  16.281   3.592
 9365W        W79965  29.907   0.258  12.391
 9366W        W79966  27.076  18.851  12.132
 9367W        W79967  15.843   1.488   3.138
 9368W        W79968  37.694  35.337  14.575
 9369W        W79969  41.496  36.917  13.299
 9370W        W79970  20.179  25.097   4.568
 9371W        W79971  26.591   4.169  13.866
 9372W        W79972   3.917  21.679  14.534
 9373W        W79973   3.888   6.023  10.111
 9374W        W79974  29.271   2.464  11.200
 9375W        W79975   2.100   6.585   3.735
 9376W        W79976  32.589  36.160  13.533
 9377W        W79977   2.942   1.234  14.335
 9378W        W79978  22.286   4.431  14.986
 9379W        W79979   2.416  21.761   2.827
 9380W        W79980  18.332   1.851   3.002
 9381W        W79981  42.287  29.150   1.927
 9382W        W79982   4.514  43.421  14.937
 9383W        W79983  26.572  38.429   0.236
 9384W        W79984  36.383  16.803   2.738
 9385W        W79985  27.399  27.659  13.873
 9386W        W79986  37.949  20.194  14.959
 9387W        W79987  37.216  23.846   2.427
 9388W        W79988  15.111   8.940  13.168
 9389W        W79989  34.683  32.395   0.923
 9390W        W79990  41.354   7.860   3.155
 9391W        W79991  18.605  31.072   1.385
 9392W        W79992  10.700  17.972   0.054
 9393W        W79993  18.599   7.389   1.167
 9394W        W79994  28.444  37.861   1.435
 9395W        W79995  37.272  28.793  10.873
 9396W        W79996  35.953   7.147   0.391
 9397W        W79997  33.949  29.423  12.131
 9398W        W79998  27.000  25.180   2.348
 9399W        W79999   5.671  11.773  12.459
 9400W        W80000  12.577   6.296   4.385
 9401W        W80001  24.996  34.015  14.287
 9402W        W80002   2.516  21.974   1.233
 9403W        W80003  13.587  10.729   4.602
 9404W        W80004  30.559  22.074   2.219
 9405W        W80005   0.232  32.306   1.681
 9406W        W80006   8.695  15.135  12.994
 9407W        W80007   8.395  15.742  11.850
 9408W        W80008  11.943  23.088  14.580
 9409W        W80009  37.367  17.320  11.628
 9410W        W80010  25.679  18.483  13.309
 9411W        W80011  32.278   4.045  13.035
 9412W        W80012  27.109   6.086   2.065
 9413W        W80013  11.140  36.719   3.231
 9414W        W80014  17.265  22.195  11.405
 9415W        W80015   0.913  28.132  10.740
 9416W        W80016   3.368  26.982  13.761
 9417W        W80017  30.543  13.271  12.391
 9418W        W80018  12.159   6.015   4.233
 9419W        W80019  34.536  39.424   1.329
 9420W        W80020  23.381   2.662  12.975
 9421W        W80021  28.131  43.504  11.411
 9422W        W80022  14.359  38.254  14.375
 9423W        W80023   7.342  29.501   4.076
 9424W        W80024   2.451  34.148  11.730
 9425W        W80025  21.482  10.191  12.097
 9426W        W80026   5.825  29.011   2.384
 9427W        W80027  26.788  26.687  13.485
 9428W        W80028  27.073   2.487  12.119
 9429W        W80029  11.080   3.748   0.424
 9430W        W80030  35.758  19.786  13.795
 9431W        W80031  24.062  18.804  11.475
 9432W        W80032  24.059   8.880  12.941
 9433W        W80033  23.811  40.210   1.260
 9434W        W80034  22.755  36.989   1.473
 9435W        W80035  13.393  26.993   4.590
 9436W        W80036  21.623  28.914  10.882
 9437W        W80037  18.706  18.944   0.072
 9438W        W80038  31.664  28.351  14.488
 9439W        W80039  18.836   7.823   1.352
 9440W        W80040  23.436  25.925  11.622
 9441W        W80041  18.167   6.283  10.685
 9442W        W80042   4.721  18.755  13.092
 9443W        W80043  43.951  18.619   4.459
 9444W        W80044  32.989  37.439  14.862
 9445W        W80045  13.274  29.609  12.998
 9446W        W80046  39.434  19.773   3.130
 9447W        W80047  22.504  14.872   3.280
 9448W        W80048  35.935  36.147   3.214
 9449W        W80049  36.219   2.846  12.037
 9450W        W80050  42.841  17.044   1.756
 9451W        W80051  15.003  41.361   1.767
 9452W        W80052  21.988  37.928  10.919
 9453W        W80053  22.764  18.107   4.287
 9454W        W80054  22.484   4.863   0.458
 9455W        W80055  28.120  39.841  14.284
 9456W        W80056  12.872  39.752   4.579
 9457W        W80057  30.583  41.984   0.270
 9458W        W80058  17.494  15.688  10.972
 9459W        W80059  15.247  21.824   3.859
 9460W        W80060  10.957  14.121  12.136
 9461W        W80061  42.426  41.702   1.252
 9462W        W80062  44.665  37.595   1.942
 9463W        W80063  13.271  25.430  10.758
 9464W        W80064  28.835  18.145   1.921
 9465W        W80065  30.538  44.209   2.446
 9466W        W80066  25.707  12.876   0.799
 9467W        W80067  31.964  30.694   3.930
 9468W        W80068  37.991  25.678  12.139
 9469W        W80069   9.421   2.294   1.082
 9470W        W80070  26.293  20.713   2.361
 9471W        W80071   3.756  32.458   4.292
 9472W        W80072  32.405  21.942   3.755
 9473W        W80073  37.388   4.753   2.797
 9474W        W80074   8.190  29.242   4.193
 9475W        W80075  31.942  33.591   0.980
 9476W        W80076   6.717   1.241  11.162
 9477W        W80077  13.234  27.610   0.953
 9478W        W80078  44.241  31.972  11.887
 9479W        W80079   6.936  39.492   2.160
 9480W        W80080   6.755   5.372  10.670
 9481W        W80081   7.749  35.748  13.768
 9482W        W80082   7.466  28.508   3.380
 9483W        W80083  41.338   7.317  14.586
 9484W        W80084   6.965   6.721  11.924
 9485W        W80085  22.075  12.704   1.484
 9486W        W80086   0.834  38.025   1.637
 9487W        W80087  33.605   6.794  13.798
 9488W        W80088  29.707  35.569   0.406
 9489W        W80089  14.096  10.795  11.933
 9490W        W80090  31.079  21.064   3.582
 9491W        W80091  15.464  10.471   2.300
 9492W        W80092  37.749  27.682  12.899
 9493W        W80093  42.631  26.516  14.037
 9494W        W80094  43.322  19.645  14.723
 9495W        W80095  15.176  15.837  10.610
 9496W        W80096  24.367  22.136  11.738
 9497W        W80097  40.799  41.971   4.679
 9498W        W80098   3.889  27.202   0.867
 9499W        W80099   7.313   6.244  14.799
 9500W        W80100  40.726  17.969   1.360
 9501W        W80101  35.370  21.992   2.773
 9502W        W80102  40.918  40.806   4.885
 9503W        W80103   6.847  24.513   1.574
 9504W        W80104  43.883  28.252   2.525
 9505W        W80105  39.893  34.051  11.299
 9506W        W80106  19.655  38.583   2.002
 9507W        W80107  35.377  43.821  12.145
 9508W        W80108   9.797  24.626   2.841
 9509W        W80109   6.397  32.670   2.706
 9510W        W80110  18.372  17.642   3.408
 9511W        W80111  11.581  34.344  13.478
 9512W        W80112  18.008  22.821  13.727
 9513W        W80113  31.137  15.064  14.937
 9514W        W80114  37.686  20.975   0.276
 9515W        W80115  35.732   9.965  10.836
 9516W        W80116  35.051  31.773  11.234
 9517W        W80117  26.445  25.470   1.678
 9518W        W80118  32.449   3.467  14.891
 9519W        W80119   4.183  38.173   2.705
 9520W        W80120  42.322  29.566  10.954
 9521W        W80121   3.750  44.405  11.175
 9522W        W80122  35.836   8.338  10.835
 9523W        W80123   6.627   5.825  10.475
 9524W        W80124  17.539   1.187  11.771
 9525W        W80125  38.585  31.925  11.657
 9526W        W80126   6.562  26.523  14.424
 9527W        W80127  32.831   1.258  12.061
 9528W        W80128  25.779   1.089   2.717
 9529W        W80129   8.259  31.509  13.963
 9530W        W80130  25.440  27.653  14.464
 9531W        W80131  38.507  20.124   4.245
 9532W        W80132  17.067  11.326   2.773
 9533W        W80133  44.229   3.854  12.175
 9534W        W80134  26.147  38.788  13.834
 9535W        W80135  31.912  43.845  12.444
 9536W        W80136  23.266   9.180  12.535
 9537W        W80137  13.136  15.372   1.491
 9538W        W80138  40.388  17.038   4.593
 9539W        W80139   1.235  43.867   3.593
 9540W        W80140  16.143  33.479  14.213
 9541W        W80141   7.391  10.805   1.311
 9542W        W80142  36.998  14.727   2.888
 9543W        W80143  20.950   3.640   0.506
 9544W        W80144   6.286  23.249   4.284
 9545W        W80145   0.960  38.402   3.185
 9546W        W80146   1.828  21.020   0.400
 9547W        W80147  41.286  22.486  14.615
 9548W        W80148   6.912  35.491   2.620
 9549W        W80149  37.580  39.822   2.898
 9550W        W80150  19.240  16.225  10.636
 9551W        W80151  44.380  22.193   4.707
 9552W        W80152  11.664  34.677   1.705
 9553W        W80153   3.833  15.573  14.337
 9554W        W80154  19.243  19.306  12.896
 9555W        W80155  43.632   1.492  11.138
 9556W        W80156   4.418  33.359  11.938
 9557W        W80157   2.478  32.331   5.020
 9558W        W80158   1.950  27.218   2.776
 9559W        W80159  39.379  42.451   4.261
 9560W        W80160  33.403  27.721  10.567
 9561W        W80161  21.152   3.443  10.769
 9562W        W80162  42.886  16.250   3.684
 9563W        W80163  18.206  18.017  14.397
 9564W        W80164  34.557  26.088   1.379
 9565W        W80165  30.916  44.496  13.098
 9566W        W80166  17.265  34.870   3.236
 9567W        W80167  23.643   9.226  11.492
 9568W        W80168  36.557  13.062  12.041
 9569W        W80169   1.460   2.250   4.575
 9570W        W80170  11.174  13.134  10.951
 9571W        W80171   9.047  14.064   1.236
 9572W        W80172  38.387  15.319   4.958
 9573W        W80173  33.495  18.048   4.251
 9574W        W80174  41.764  22.072   2.337
 9575W        W80175  24.276  25.102   1.377
 9576W        W80176  25.690   3.917  12.059
 9577W        W80177   9.890  33.205   2.495
 9578W        W80178  28.328  30.614  13.751
 9579W        W80179  18.812  43.410  11.118
 9580W        W80180  26.569  44.369  11.966
 9581W        W80181  22.542  27.951  10.753
 9582W        W80182  17.896  44.635   2.145
 9583W        W80183  42.776   1.297   4.266
 9584W        W80184  27.468  29.813   1.313
 9585W        W80185  24.043  43.216   2.750
 9586W        W80186   2.563   3.205   2.099
 9587W        W80187  41.657  37.857  11.162
 9588W        W80188   5.475   1.992   1.607
 9589W        W80189  30.406   6.444  11.172
 9590W        W80190  11.429  24.200  12.899
 9591W        W80191   4.348   6.470  14.688
 9592W        W80192  37.066   6.063   1.921
 9593W        W80193  36.316  32.081   4.460
 9594W        W80194  20.098   0.819  11.985
 9595W        W80195  12.112  30.880   4.230
 9596W        W80196   5.422  31.923  11.123
 9597W        W80197  27.193  11.820  14.883
 9598W        W80198  39.794  36.295   1.432
 9599W        W80199  24.221   0.808   0.284
 9600W        W80200   7.999  37.904  12.466
 9601W        W80201  18.649  39.360   2.433
 9602W        W80202  36.493  41.916  13.303
 9603W        W80203   3.930   2.350  13.786
 9604W        W80204  21.134   0.770   2.299
 9605W        W80205   0.077  15.118  12.544
 9606W        W80206  22.590   6.876   4.695
 9607W        W80207  35.084  24.046  11.339
 9608W        W80208  17.657   7.151  10.560
 9609W        W80209   4.625  23.392   1.740
 9610W        W80210   0.581  21.724   1.368
 9611W        W80211  16.737  44.643   3.146
 9612W        W80212  44.316  42.438   2.201
 9613W        W80213   3.507   9.581  12.548
 9614W        W80214   5.171  32.989   1.240
 9615W        W80215  40.486  41.314  11.235
 9616W        W80216  32.185  27.817   4.885
 9617W        W80217  36.068  43.103  14.187
 9618W        W80218   6.865  27.668  11.880
 9619W        W80219  30.318   9.041   5.065
 9620W        W80220  29.692   2.495  11.748
 9621W        W80221  39.590  24.193   3.137
 9622W        W80222   0.106  26.074  12.855
 9623W        W80223  18.898  29.367  11.475
 9624W        W80224  44.731  31.079   1.853
 9625W        W80225   5.762  38.390   2.393
 9626W        W80226  38.099  35.699   0.872
 9627W        W80227  20.068  38.239  14.253
 9628W        W80228  44.062   2.358  10.744
 9629W        W80229  30.141   4.746  13.605
 9630W        W80230   4.930  37.428   0.871
 9631W        W80231  21.572  13.121   2.506
 9632W        W80232   0.712   3.968   1.469
 9633W        W80233  25.975  36.329  11.910
 9634W        W80234   7.753  23.742   4.540
 9635W        W80235   5.158  39.432   0.757
 9636W        W80236   8.406  27.415  11.115
 9637W        W80237  41.026   4.014   1.276
 9638W        W80238  30.626   0.288   0.069
 9639W        W80239  34.945  43.502   1.165
 9640W        W80240   1.782  44.100   0.394
 9641W        W80241  44.046  18.067  13.956
 9642W        W80242  34.973   8.644  10.669
 9643W        W80243  36.346   0.264   0.247
 9644W        W80244  27.208  17.606   0.402
 9645W        W80245   0.751  39.643   3.709
 9646W        W80246   6.956  44.958  11.678
 9647W        W80247   4.320  29.539   0.553
 9648W        W80248  43.240  25.045  11.569
 9649W        W80249   9.230  30.829  12.039
 9650W        W80250   3.954  23.524  13.506
 9651W        W80251  12.029   9.418  12.495
 9652W        W80252  27.682   6.672  14.925
 9653W        W80253  33.961  25.495   3.322
 9654W        W80254   6.307  44.795  12.777
 9655W        W80255  33.210  37.448  13.316
 9656W        W80256  16.586  31.001  14.811
 9657W        W80257   7.714  42.294   4.227
 9658W        W80258  15.842   1.155   2.701
 9659W        W80259  13.627   8.328   3.775
 9660W        W80260   2.637  19.273  13.772
 9661W        W80261  42.402  44.540  13.358
 9662W        W80262  23.612  21.506   2.282
 9663W        W80263  23.533   7.300  11.668
 9664W        W80264  44.904   7.683   2.544
 9665W        W80265  35.828  15.190   1.175
 9666W        W80266   4.738  17.645  12.132
 9667W        W80267  39.887   6.512  11.874
 9668W        W80268  15.987   2.494  12.087
 9669W        W80269   0.412  31.061   0.994
 9670W        W80270   8.648  39.419   3.836
 9671W        W80271  31.968   1.911  11.767
 9672W        W80272   8.105   2.791  10.540
 9673W        W80273   3.273  35.446  13.401
 9674W        W80274  44.321  17.584   0.521
 9675W        W80275  24.499  26.680  13.029
 9676W        W80276  18.261  22.725   3.596
 9677W        W80277  41.890  16.805   2.305
 9678W        W80278  14.073  27.217   2.486
 9679W        W80279  41.786   0.272  11.233
 9680W        W80280  36.775  34.095  13.803
 9681W        W80281  11.309   1.817  14.308
 9682W        W80282   4.718  14.306   1.428
 9683W        W80283  38.166   4.254   1.293
 9684W        W80284  25.141  23.960   5.092
 9685W        W80285  41.334  37.603   0.478
 9686W        W80286   3.525  35.076  11.177
 9687W        W80287   5.888  19.810   0.339
 9688W        W80288   2.551  15.160   3.683
 9689W        W80289  15.414  34.450   2.319
 9690W        W80290  30.957   0.954  13.084
 9691W        W80291  30.445   0.714   1.276
 9692W        W80292   0.039  44.151  11.512
 9693W        W80293   5.596   8.047   4.880
 9694W        W80294   2.771  14.367  12.459
 9695W        W80295   5.731   2.506   2.283
 9696W        W80296  44.177  32.538   2.178
 9697W        W80297  18.553   4.411  14.345
 9698W        W80298  31.625  35.525  14.419
 9699W        W80299  30.107  26.962   3.632
 9700W        W80300  23.665  17.128   0.982
 9701W        W80301   2.336  27.896   0.899
 9702W        W80302   8.409   7.656   2.304
 9703W        W80303  44.964  23.561   2.160
 9704W        W80304   5.208  26.778   3.381
 9705W        W80305  34.694  38.086   0.495
 9706W        W80306  43.226   3.236   1.381
 9707W        W80307   2.113  13.887   0.434
 9708W        W80308  28.712   1.284   1.284
 9709W        W80309  14.271  22.024   0.923
 9710W        W80310  42.058  25.072  11.516
 9711W        W80311   9.351  22.740   1.324
 9712W        W80312  10.393  28.193   3.287
 9713W        W80313  24.399   4.078   1.927
 9714W        W80314  29.893  17.085  12.954
 9715W        W80315   7.076  37.513   3.446
 9716W        W80316   8.323  22.601  12.039
 9717W        W80317  25.499  40.439   0.015
 9718W        W80318   9.822  13.084  13.253
 9719W        W80319  37.556  17.336  12.456
 9720W        W80320   2.312  15.989  10.204
 9721W        W80321  15.151   2.504   0.389
 9722W        W80322  42.282  31.683   3.631
 9723W        W80323   7.777  35.821   1.878
 9724W        W80324  42.197   5.533   3.476
 9725W        W80325   3.267  29.109   0.693
 9726W        W80326  15.523  17.330  11.190
 9727W        W80327   8.146  24.009   1.258
 9728W        W80328   2.364  35.503   0.833
 9729W        W80329  22.013  18.599  10.828
 9730W        W80330  10.598  33.019  10.599
 9731W        W80331  34.023  35.687   0.345
 9732W        W80332  28.682  32.364   3.740
 9733W        W80333  15.031  30.526   1.209
 9734W        W80334   9.666  40.374  12.940
 9735W        W80335   1.206  39.804   3.171
 9736W        W80336  23.054  26.114   2.322
 9737W        W80337   6.276  18.159   3.699
 9738W        W80338  26.929   2.574   1.795
 9739W        W80339   0.815   5.242   3.626
 9740W        W80340  21.588   1.845   2.140
 9741W        W80341  40.409  35.506   4.106
 9742W        W80342   0.810  11.389   2.634
 9743W        W80343  14.763  40.862   4.559
 9744W        W80344   7.316  16.160  13.935
 9745W        W80345  35.905  40.721   0.749
 9746W        W80346  27.131   7.391  12.483
 9747W        W80347  18.238   9.867   0.028
 9748W        W80348  40.397  18.168   3.108
 9749W        W80349  11.457  13.588   0.943
 9750W        W80350  33.587   7.774  11.636
 9751W        W80351   5.745  42.488  12.997
 9752W        W80352  35.235  29.584  11.737
 9753W        W80353  38.474   7.307   1.737
 9754W        W80354  36.392  34.658  12.982
 9755W        W80355  39.607  28.804   4.010
 9756W        W80356  31.110  33.980   1.156
 9757W        W80357  31.858  42.428   2.603
 9758W        W80358  37.773  28.758  11.031
 9759W        W80359  37.489   5.393  14.408
 9760W        W80360  13.348  10.421   0.414
 9761W        W80361  42.720  26.181  11.062
 9762W        W80362  44.845  10.056   2.857
 9763W        W80363  38.779  13.759   3.729
 9764W        W80364  42.501  26.020   4.751
 9765W        W80365   3.997  23.692   3.090
 9766W        W80366  30.026  42.966  10.652
 9767W        W80367  26.974  43.078   0.970
 9768W        W80368  32.363  13.392  13.327
 9769W        W80369  40.908  21.716  10.955
 9770W        W80370  31.054  22.308   2.075
 9771W        W80371  13.095  26.072   4.208
 9772W        W80372  34.837  17.080   5.148
 9773W        W80373   3.635  32.297  10.504
 9774W        W80374  10.215   0.392   4.514
 9775W        W80375  36.192  15.593  12.009
 9776W        W80376  38.419  24.452   3.687
 9777W        W80377  17.610  20.077   4.165
 9778W        W80378   2.748  13.053   0.289
 9779W        W80379   5.855  13.379  11.965
 9780W        W80380  10.376  17.090  13.809
 9781W        W80381  12.080  22.101  12.878
 9782W        W80382  23.318   9.445   5.057
 9783W        W80383   8.853  30.053   4.593
 9784W        W80384  10.457  41.350   3.326
 9785W        W80385  15.222  18.279  12.826
 9786W        W80386  31.855  25.910   0.898
 9787W        W80387  34.385  44.549  11.018
 9788W        W80388  29.849  17.007  10.972
 9789W        W80389  10.126  29.512   1.699
 9790W        W80390  34.996  28.798   2.215
 9791W        W80391   7.764  19.574  14.867
 9792W        W80392  30.447  15.109  12.971
 9793W        W80393  25.779  25.663   4.143
 9794W        W80394   0.963  22.455   2.770
 9795W        W80395  25.689  18.085  11.028
 9796W        W80396  10.350   1.731   2.926
 9797W        W80397  30.192  33.123   3.102
 9798W        W80398  10.097  35.120  14.884
 9799W        W80399  23.172  42.338  12.951
 9800W        W80400   4.854  18.267  10.527
 9801W        W80401  20.756  10.881   1.270
 9802W        W80402   9.303   2.701  14.825
 9803W        W80403   6.308  39.761   0.003
 9804W        W80404  17.713  39.589  11.998
 9805W        W80405  14.079  32.082  13.842
 9806W        W80406  20.444  26.065  13.092
 9807W        W80407  24.990  10.545   2.486
 9808W        W80408  21.527  29.226  12.529
 9809W        W80409  11.345  43.321  14.946
 9810W        W80410  36.671  28.250  10.279
 9811W        W80411  30.634  21.112   2.637
 9812W        W80412  33.507   6.744   0.484
 9813W        W80413  21.099  38.629  10.098
 9814W        W80414  14.766  38.311  11.126
 9815W        W80415  17.468  44.919   2.147
 9816W        W80416  12.809  25.305  13.004
 9817W        W80417  44.544  32.151   0.501
 9818W        W80418  39.768   1.251  14.532
 9819W        W80419  39.062  32.517  11.186
 9820W        W80420  24.141   3.367  12.623
 9821W        W80421  18.046  11.581   4.477
 9822W        W80422   9.327  20.794  10.300
 9823W        W80423  44.445  17.773   4.296
 9824W        W80424  35.950  26.481  14.843
 9825W        W80425  15.410  29.548  12.380
 9826W        W80426  26.426  31.153   2.730
 9827W        W80427  35.962  21.549  13.006
 9828W        W80428   5.878  38.273   3.404
 9829W        W80429  32.488   2.282  11.088
 9830W        W80430  11.554  33.079   1.952
 9831W        W80431  33.005   2.008  13.536
 9832W        W80432  42.793   9.655  14.925
 9833W        W80433  24.122  34.838  13.862
 9834W        W80434  35.500  41.757  13.575
 9835W        W80435  39.527  35.134  13.709
 9836W        W80436  12.053  38.112   4.189
 9837W        W80437  20.844  28.573  11.054
 9838W        W80438  40.913  30.997   1.818
 9839W        W80439  38.116  25.627   4.201
 9840W        W80440   5.826   4.217   3.111
 9841W        W80441  43.368  21.764   0.820
 9842W        W80442  29.014  43.867   1.362
 9843W        W80443  44.657   7.223   1.234
 9844W        W80444  23.136  12.712   4.859
 9845W        W80445  35.823  24.299  14.000
 9846W        W80446  39.254   5.334   0.990
 9847W        W80447  20.838  24.999  13.357
 9848W        W80448  43.832  42.959   5.016
 9849W        W80449  28.485  26.139  11.406
 9850W        W80450  42.192  42.915  10.606
 9851W        W80451  22.835  11.223   4.630
 9852W        W80452  16.840  43.742  13.019
 9853W        W80453  26.945  35.478  14.342
 9854W        W80454  13.818  27.475  13.102
 9855W        W80455  23.967   0.097   2.697
 9856W        W80456   0.407  11.404  13.197
 9857W        W80457  24.960  13.530  12.619
 9858W        W80458  21.734  15.195   3.312
 9859W        W80459   8.617   8.649  12.882
 9860W        W80460   9.702  34.273   4.810
 9861W        W80461  40.326  25.206   3.049
 9862W        W80462  25.765   9.165   4.274
 9863W        W80463   5.899  41.873  11.383
 9864W        W80464  15.257  16.343  11.476
 9865W        W80465  18.790  43.413   4.384
 9866W        W80466  27.562  29.595  11.444
 9867W        W80467   5.483  31.526   0.465
 9868W        W80468  28.928   3.260  14.314
 9869W        W80469  33.715  43.362   0.433
 9870W        W80470   7.349  42.834  10.758
 9871W        W80471  38.444  31.027   4.663
 9872W        W80472  30.271  44.311  11.912
 9873W        W80473   4.291   1.890  12.994
 9874W        W80474  26.002  36.977  11.139
 9875W        W80475  21.645  40.710  12.459
 9876W        W80476  21.785  13.872  11.577
 9877W        W80477  40.982  28.054   4.048
 9878W        W80478  19.179  23.176   4.134
 9879W        W80479  35.814  37.753   4.351
 9880W        W80480  18.155  39.032  12.565
 9881W        W80481  42.931  29.105  11.057
 9882W        W80482  28.780  39.439   0.635
 9883W        W80483  34.910   2.919  11.869
 9884W        W80484  13.668  14.197  12.599
 9885W        W80485  35.045  38.280  14.491
 9886W        W80486  40.544   7.119   0.688
 9887W        W80487  39.302  41.324   0.803
 9888W        W80488   2.776  38.401   4.417
 9889W        W80489   1.410  27.406   4.032
 9890W        W80490  30.373  19.429  13.793
 9891W        W80491  12.540  21.121   3.657
 9892W        W80492  19.732  44.870  14.543
 9893W        W80493  41.949  27.092   3.525
 9894W        W80494  15.689   8.673   0.090
 9895W        W80495  33.481   5.591   3.513
 9896W        W80496  31.553  20.786  14.570
 9897W        W80497  26.234  29.999   0.607
 9898W        W80498  13.533  14.222  11.558
 9899W        W80499  24.512  13.372   4.269
 9900W        W80500  16.387   4.876  10.782
 9901W        W80501  26.664  25.517  14.357
 9902W        W80502  34.147  24.958  13.587
 9903W        W80503  41.851  22.293   4.647
 9904W        W80504  26.695  30.936  13.843
 9905W        W80505   5.425  23.519   0.278
 9906W        W80506   0.383  24.068   0.841
 9907W        W80507  22.490  25.403   3.749
 9908W        W80508  36.438  25.764   2.786
 9909W        W80509   0.853  37.904  13.438
 9910W        W80510  28.928  32.517   1.498
 9911W        W80511  19.289  16.827   1.816
 9912W        W80512   2.286  38.023   1.869
 9913W        W80513  18.090  11.916   2.151
 9914W        W80514  12.897  21.603  13.848
 9915W        W80515  28.492  34.575  12.993
 9916W        W80516  10.072  18.565   2.327
 9917W        W80517   8.553   0.138   2.706
 9918W        W80518   3.719  38.434  12.901
 9919W        W80519   8.730  21.189   4.616
 9920W        W80520  22.458   8.469   3.028
 9921W        W80521  34.359   8.511  13.118
 9922W        W80522   9.376  35.821  10.036
 9923W        W80523  15.743  15.390   4.520
 9924W        W80524  35.279  29.142   1.915
 9925W        W80525  44.557  18.041  11.099
 9926W        W80526   3.745  32.632  14.258
 9927W        W80527  20.432  38.903  10.777
 9928W        W80528   1.803  41.447  14.722
 9929W        W80529  31.950  44.194   4.068
 9930W        W80530  27.499  16.808  10.682
 9931W        W80531  15.307  27.300  14.524
 9932W        W80532  20.044   7.636  11.976
 9933W        W80533  39.371  21.567  13.946
 9934W        W80534  26.214  36.500  11.004
 9935W        W80535  20.764   3.670  11.936
 9936W        W80536  14.114  16.294  12.967
 9937W        W80537   1.219  31.370  11.965
 9938W        W80538  26.716  39.309  12.447
 9939W        W80539  41.998   3.923  13.565
 9940W        W80540   0.966   2.412   4.590
 9941W        W80541  19.330  36.402  13.584
 9942W        W80542   9.148  11.326   0.026
 9943W        W80543  14.689  20.188   4.585
 9944W        W80544  25.691   1.873   0.071
 9945W        W80545   0.970   0.253   0.808
 9946W        W80546  29.531  13.842   2.986
 9947W        W80547  22.647  20.159   4.683
 9948W        W80548  16.360  41.818  13.429
 9949W        W80549  22.064   1.328   2.656
 9950W        W80550  14.656   2.968  14.043
 9951W        W80551  43.520  40.521   1.848
 9952W        W80552  38.810  29.243  10.391
 9953W        W80553  29.305  25.227   4.144
 9954W        W80554  23.453  14.363  12.009
 9955W        W80555  26.971  29.473   4.085
 9956W        W80556  30.622  25.687  11.795
 9957W        W80557  23.947  44.466  13.936
 9958W        W80558  34.003   8.181   4.028
 9959W        W80559  31.703   8.430   4.124
 9960W        W80560   2.759  44.537  13.926
 9961W        W80561  14.813  18.042  13.047
 9962W        W80562  25.298   0.300   9.721
 9963W        W80563  40.994  26.126  11.427
 9964W        W80564  43.316   4.270  14.368
 9965W        W80565  35.929  40.411  12.297
 9966W        W80566  13.551  36.421   1.009
 9967W        W80567  36.313  19.066  11.914
 9968W        W80568  43.920  34.661   2.313
 9969W        W80569  33.995  22.243   3.591
 9970W        W80570  42.748   9.420  13.847
 9971W        W80571   4.715  21.703  12.011
 9972W        W80572  15.399  42.809   0.322
 9973W        W80573  40.203   8.158  12.080
 9974W        W80574  18.846  42.796  10.714
 9975W        W80575   0.468  40.346  14.505
 9976W        W80576  29.365  24.460  13.009
 9977W        W80577  29.466   7.723  12.094
 9978W        W80578   5.179  19.268   0.261
 9979W        W80579  37.361   3.145   1.047
 9980W        W80580  22.512  19.726   2.678
 9981W        W80581   4.946  25.226  14.962
 9982W        W80582  18.734  36.770  12.960
 9983W        W80583  35.346  22.599  10.536
 9984W        W80584  19.697  25.142  12.639
 9985W        W80585  12.541  12.772   1.013
 9986W        W80586   6.339   1.748  12.152
 9987W        W80587   7.231  42.522  13.876
 9988W        W80588  12.298  22.163   1.956
 9989W        W80589  14.311  12.835   4.102
 9990W        W80590   7.385  28.445  11.086
 9991W        W80591  15.995  40.843  14.279
 9992W        W80592   2.366  34.479   1.191
 9993W        W80593  14.728  16.275  13.563
 9994W        W80594  22.163  21.724   0.630
 9995W        W80595  32.097   6.049   0.398
 9996W        W80596  35.458  39.369   3.408
 9997W        W80597  23.778  16.068  12.727
 9998W        W80598  40.263  34.862   4.951
 9999W        W80599  39.487  39.765  14.066
10000W        W80600   1.792   0.757   3.280
10001W        W80601  11.359  21.491   1.315
10002W        W80602   1.438   0.444   3.078
10003W        W80603  17.529  42.782  10.230
10004W        W80604   3.515  15.763   2.211
10005W        W80605  33.561  43.654  14.325
10006W        W80606  23.562  43.428   4.839
10007W        W80607  32.265  13.687   2.885
10008W        W80608   2.461  15.905  10.715
10009W        W80609   0.462  31.448  13.551
10010W        W80610  26.414  22.531   2.846
10011W        W80611  14.504  17.386  10.736
10012W        W80612  27.080  14.489   0.651
10013W        W80613  27.188  32.156  14.391
10014W        W80614  43.510  24.660   3.627
10015W        W80615  19.028   0.447  11.161
10016W        W80616   2.699  38.008  14.451
10017W        W80617  11.899   9.198  12.034
10018W        W80618  13.701   1.153   2.295
10019W        W80619   6.892  28.340  13.335
10020W        W80620  38.375  25.191   4.112
10021W        W80621  32.063   3.956  13.890
10022W        W80622  12.921  43.574  10.211
10023W        W80623  17.523  15.205  12.510
10024W        W80624  10.347  15.215   0.199
10025W        W80625  44.925  26.227  14.542
10026W        W80626  35.460  14.270   0.052
10027W        W80627  25.328   9.002   4.554
10028W        W80628   1.321  39.278   2.383
10029W        W80629  40.349   3.747  12.582
10030W        W80630  15.680  19.767   0.720
10031W        W80631  11.656  14.711   0.722
10032W        W80632  44.837  41.241   1.328
10033W        W80633  16.022  25.068  10.320
10034W        W80634  41.071  25.198  10.769
10035W        W80635  16.537  28.576  10.831
10036W        W80636  13.508  18.333  12.476
10037W        W80637  31.750  22.195  14.942
10038W        W80638  43.481  41.921   4.280
10039W        W80639   3.025  10.722   4.330
10040W        W80640  14.356  32.635   1.843
10041W        W80641  21.660  33.531  11.737
10042W        W80642  43.013  22.418   0.344
10043W        W80643  18.626  11.675   0.856
10044W        W80644  28.451  33.845   2.376
10045W        W80645  38.685  26.465  14.815
10046W        W80646   4.467  42.346  14.464
10047W        W80647   3.133   2.004   1.305
10048W        W80648  38.541   9.797   4.121
10049W        W80649   2.267  20.543  11.720
10050W        W80650  12.884  21.719  12.143
10051W        W80651  34.448  32.199  11.448
10052W        W80652   3.879   4.844   3.844
10053W        W80653  25.086  17.550  13.054
10054W        W80654   6.637   0.052  12.077
10055W        W80655  10.958  32.507  14.775
10056W        W80656   8.603  42.170  11.521
10057W        W80657  43.587  37.290   3.691
10058W        W80658  22.950  35.041  13.062
10059W        W80659  33.143  32.150  12.494
10060W        W80660   9.234  38.419   2.753
10061W        W80661   1.431  18.222   0.419
10062W        W80662  35.636   2.517  10.995
10063W        W80663  30.520  23.742  11.501
10064W        W80664  42.049  40.075  12.474
10065W        W80665   9.273  42.491   4.762
10066W        W80666  10.578  31.021  13.488
10067W        W80667  10.267  28.037  12.638
10068W        W80668  34.859  35.288   2.721
10069W        W80669   3.873  24.619   1.340
10070W        W80670  44.737  41.641  12.494
10071W        W80671  15.434  36.687  12.081
10072W        W80672  42.410  29.409   1.419
10073W        W80673  43.804  40.472   4.535
10074W        W80674   7.601  14.896   4.854
10075W        W80675  32.680  43.656  14.443
10076W        W80676  20.844  38.954   4.979
10077W        W80677  39.079   8.131  14.819
10078W        W80678  24.692  43.793  13.022
10079W        W80679   6.358  41.554   0.991
10080W        W80680  36.722  12.209  14.511
10081W        W80681   7.012  14.897   1.747
10082W        W80682  42.564  29.936  10.657
10083W        W80683  31.015  27.957   3.778
10084W        W80684   3.906   8.874   5.085
10085W        W80685  29.512  19.017   4.221
10086W        W80686  28.335  17.641  13.374
10087W        W80687   4.350  30.869  11.839
10088W        W80688   9.558  15.174   2.384
10089W        W80689  38.080  23.685  14.473
10090W        W80690  28.671  25.765  13.229
10091W        W80691  40.675   4.674  13.462
10092W        W80692  11.309  17.262   0.732
10093W        W80693  16.781   1.469  10.803
10094W        W80694   3.253   1.257  13.910
10095W        W80695  25.963  15.344  12.543
10096W        W80696  15.296  37.783  11.407
10097W        W80697  17.624  22.247   3.204
10098W        W80698   4.504  19.137   3.230
10099W        W80699  30.130   5.478  11.852
10100W        W80700   3.703  12.771  11.715
10101W        W80701  19.492  42.428  13.174
10102W        W80702  18.089   5.795   1.695
10103W        W80703  23.319  17.294  11.920
10104W        W80704  30.910  36.427   0.932
10105W        W80705  22.221   1.412   4.574
10106W        W80706  38.203   4.116   0.791
10107W        W80707  24.429  40.525  14.741
10108W        W80708  20.651  37.622  13.072
10109W        W80709  13.665  18.992  11.212
10110W        W80710  13.207  40.783   2.780
10111W        W80711   8.392  32.925  11.605
10112W        W80712  38.516  22.717   0.704
10113W        W80713  15.163   1.196  13.349
10114W        W80714  24.982  44.095  14.404
10115W        W80715  13.124  28.256  10.233
10116W        W80716  31.324  41.691  14.928
10117W        W80717   3.461  24.876   2.738
10118W        W80718  29.469   9.756   4.542
10119W        W80719  16.795  12.152   1.918
10120W        W80720  12.136   1.537  13.865
10121W        W80721  23.113   7.440   0.850
10122W        W80722  37.984  25.735   0.844
10123W        W80723  31.013  20.628  14.787
10124W        W80724  42.564   5.959  12.969
10125W        W80725   5.923   0.145  14.487
10126W        W80726  18.221  25.055  14.509
10127W        W80727  44.984  13.671   3.312
10128W        W80728   6.828  35.607  14.331
10129W        W80729   9.509   4.934  13.438
10130W        W80730  38.926  32.920  10.442
10131W        W80731  29.179   0.916  14.022
10132W        W80732  25.564  31.168   3.970
10133W        W80733  27.724  23.536  12.546
10134W        W80734   7.691   1.682  14.632
10135W        W80735  31.134  44.537   0.515
10136W        W80736  26.092  34.789   3.694
10137W        W80737  32.780  18.757   3.627
10138W        W80738  25.741  35.514  11.551
10139W        W80739   3.524   6.728   3.509
10140W        W80740   1.423   7.287   2.807
10141W        W80741  13.614  32.363  13.735
10142W        W80742  27.789   5.460  14.067
10143W        W80743   5.919  37.867   3.712
10144W        W80744   2.483  26.514  12.920
10145W        W80745  26.075  20.703   4.442
10146W        W80746  27.958   7.201  10.267
10147W        W80747  21.776  33.510   1.342
10148W        W80748   1.477  32.398   2.424
10149W        W80749  25.624  25.461  11.121
10150W        W80750  21.791  34.062   0.733
10151W        W80751  31.167  32.244   3.145
10152W        W80752  31.982  11.704  10.770
10153W        W80753  35.954  32.519  10.963
10154W        W80754  39.360  10.207   3.208
10155W        W80755   4.141   2.937  12.057
10156W        W80756   9.121  11.374   3.709
10157W        W80757   8.296  34.007  11.639
10158W        W80758   5.695  41.390  11.386
10159W        W80759  10.358  30.499   2.112
10160W        W80760  24.858   8.116   3.539
10161W        W80761  21.054  42.547  13.584
10162W        W80762  43.735  21.079  12.433
10163W        W80763  13.088  38.068  12.781
10164W        W80764  21.997  29.359   3.237
10165W        W80765  35.045  22.072   1.367
10166W        W80766  12.582  42.506   2.833
10167W        W80767   5.924  32.227   5.030
10168W        W80768  35.962   9.502   0.922
10169W        W80769  37.725   0.303  12.925
10170W        W80770  36.874  41.238   4.125
10171W        W80771  12.475   3.766   2.650
10172W        W80772  40.220  39.790  12.878
10173W        W80773   9.438  40.264  14.867
10174W        W80774  22.673  20.239  10.665
10175W        W80775  22.646  29.663   1.842
10176W        W80776  34.373  27.585  12.096
10177W        W80777  38.873  13.805  10.478
10178W        W80778  21.220   9.653  13.851
10179W        W80779  23.538  41.939  14.990
10180W        W80780  31.453   8.975   0.362
10181W        W80781  44.747   3.945   4.662
10182W        W80782  28.387  30.450  12.950
10183W        W80783  44.003  38.249  13.024
10184W        W80784  33.788  39.790  14.791
10185W        W80785  18.597   8.621   2.895
10186W        W80786  17.414   0.458  14.456
10187W        W80787  30.571   5.528  13.848
10188W        W80788  37.616   8.348  13.399
10189W        W80789  43.407  16.002  14.519
10190W        W80790  39.550  23.120  12.910
10191W        W80791   9.330  19.571  12.037
10192W        W80792  14.563  33.503   3.143
10193W        W80793  39.821  30.528   4.982
10194W        W80794   2.621  23.846   3.312
10195W        W80795  26.052  39.763  13.837
10196W        W80796  12.373  13.172   4.141
10197W        W80797  32.583  13.193  14.557
10198W        W80798  13.085   6.948   3.963
10199W        W80799  43.959  19.182   4.543
10200W        W80800  10.507  23.952   0.784
10201W        W80801   7.381  33.559  14.426
10202W        W80802  25.200  29.932   0.253
10203W        W80803  12.604  41.723   2.273
10204W        W80804  29.814  25.890   2.221
10205W        W80805  21.744  36.093   1.913
10206W        W80806  19.047   3.486   3.350
10207W        W80807  24.968  34.953  12.532
10208W        W80808  27.692  15.762   3.584
10209W        W80809  17.020  40.712   1.235
10210W        W80810  22.797  19.875  14.683
10211W        W80811  12.595  13.703  14.525
10212W        W80812  44.114  11.246   2.717
10213W        W80813   6.486  18.191  10.269
10214W        W80814  24.643  42.109   3.396
10215W        W80815  44.262  38.354  14.192
10216W        W80816  11.364  30.244   4.567
10217W        W80817  37.560  13.934  12.470
10218W        W80818  25.492  39.721   4.784
10219W        W80819  17.924   1.362  14.489
10220W        W80820  21.510  16.651  13.875
10221W        W80821  29.405  25.589  14.920
10222W        W80822  36.320  32.836  11.196
10223W        W80823  26.998  31.565  12.728
10224W        W80824  25.870  28.156   0.612
10225W        W80825  19.690  21.685  10.663
10226W        W80826  38.511  44.787   1.192
10227W        W80827  41.267  33.523  11.950
10228W        W80828   9.375  33.968   2.313
10229W        W80829  22.673  29.941  13.937
10230W        W80830  31.151  11.619  11.688
10231W        W80831  18.867  14.132   4.517
10232W        W80832  35.742  42.939   4.955
10233W        W80833  32.982  38.858   0.485
10234W        W80834  44.935  43.681  13.788
10235W        W80835   0.225   0.190  12.091
10236W        W80836  30.002   2.814  14.972
10237W        W80837  12.375  21.438  13.891
10238W        W80838   1.935  17.182   4.211
10239W        W80839  29.102   6.186  12.997
10240W        W80840  43.263  42.054   4.732
10241W        W80841  19.476  13.631  10.630
10242W        W80842  36.477  27.103  13.865
10243W        W80843  25.319  16.168   2.421
10244W        W80844  17.330  36.626  12.939
10245W        W80845   9.311  43.884  11.024
10246W        W80846  36.444  21.093   3.058
10247W        W80847  35.910  25.708   0.457
10248W        W80848   8.846   3.525   1.431
10249W        W80849  14.253  18.145   2.319
10250W        W80850   2.913  27.527   4.290
10251W        W80851   3.037   1.230   4.452
10252W        W80852  22.617  39.893  14.166
10253W        W80853   1.852  27.176   4.181
10254W        W80854   1.199  41.779  12.545
10255W        W80855  44.491  14.575   3.588
10256W        W80856  11.660   0.604  12.021
10257W        W80857  40.945  32.277   4.799
10258W        W80858  31.780  19.437   5.073
10259W        W80859  24.430  39.866   3.230
10260W        W80860  15.877  33.573  11.599
10261W        W80861  18.224  34.375  13.422
10262W        W80862   0.021  19.101   0.970
10263W        W80863  32.154  41.388  14.950
10264W        W80864  26.692  43.875   4.126
10265W        W80865   2.800  31.205  12.608
10266W        W80866  31.884  23.345  13.914
10267W        W80867  12.330   6.337   2.159
10268W        W80868  37.645  30.522  11.617
10269W        W80869  25.744   4.195  10.670
10270W        W80870   6.832  33.401   0.143
10271W        W80871  39.544   9.900   1.702
10272W        W80872   4.687  18.739   0.870
10273W        W80873  17.468  21.566  14.764
10274W        W80874   9.254  24.488   0.821
10275W        W80875  34.782   5.251   3.611
10276W        W80876   5.213   6.194  11.255
10277W        W80877  37.830   6.724   1.356
10278W        W80878  32.404  41.387   4.778
10279W        W80879  23.728  18.020  14.764
10280W        W80880  39.446   5.888   2.754
10281W        W80881  31.068  28.351  14.804
10282W        W80882  35.582  33.612   2.804
10283W        W80883  29.155  35.348   4.108
10284W        W80884   5.845  28.705   3.293
10285W        W80885  11.727  18.686   2.313
10286W        W80886   4.724  39.132  13.832
10287W        W80887  38.857  35.414   2.595
10288W        W80888  35.056  20.345  10.715
10289W        W80889   5.515  27.944   0.170
10290W        W80890  17.019  34.091  13.545
10291W        W80891  35.046  21.649  11.530
10292W        W80892  30.025  15.312   4.967
10293W        W80893  18.510   0.739  13.807
10294W        W80894  11.673  14.527   4.111
10295W        W80895  41.949  27.784   0.921
10296W        W80896  34.087  39.321   0.718
10297W        W80897  35.792  42.820   2.407
10298W        W80898   6.177  42.687   4.553
10299W        W80899  18.140  14.252  10.384
10300W        W80900  10.606  28.589  14.925
10301W        W80901  13.080  21.400  11.113
10302W        W80902  37.412  32.683  12.092
10303W        W80903  33.589  27.217  12.444
10304W        W80904   6.904  27.009   3.358
10305W        W80905  13.879  17.819  12.904
10306W        W80906  21.573  15.152   2.793
10307W        W80907  19.460   8.160   1.929
10308W        W80908  25.090  32.182  11.515
10309W        W80909  33.891   7.365  12.776
10310W        W80910   0.184  31.490   0.497
10311W        W80911  18.029  32.112   4.549
10312W        W80912  38.545  10.092  12.060
10313W        W80913  42.823  25.005   0.438
10314W        W80914   9.356   0.324   3.771
10315W        W80915   2.402   0.452   1.969
10316W        W80916   6.384   3.942  13.492
10317W        W80917   9.204  11.655  13.365
10318W        W80918  42.814   8.662   0.969
10319W        W80919  24.046  19.507   4.528
10320W        W80920  40.108  40.649  14.935
10321W        W80921  10.784  24.912   2.875
10322W        W80922   3.344  34.557  11.275
10323W        W80923  37.532  12.205  13.383
10324W        W80924   9.122  40.399  12.880
10325W        W80925  19.792  34.240  11.802
10326W        W80926   4.445  29.612  11.529
10327W        W80927  37.619  35.896  13.677
10328W        W80928  18.699  29.601   4.852
10329W        W80929  17.451   5.349   0.657
10330W        W80930  40.944   2.868   1.802
10331W        W80931   2.637  27.376   0.390
10332W        W80932   4.969  34.373  11.113
10333W        W80933   8.331  44.144   0.405
10334W        W80934  24.415  35.390   4.325
10335W        W80935  15.797  37.488  10.766
10336W        W80936  18.006  23.584  13.386
10337W        W80937  10.654   4.444   4.624
10338W        W80938  30.122   2.927  13.903
10339W        W80939  13.183  19.630   3.838
10340W        W80940   5.481   5.420  13.906
10341W        W80941  18.670   7.886   3.807
10342W        W80942  12.617  44.917  14.444
10343W        W80943  11.365  30.712   0.341
10344W        W80944  31.425  29.002   1.470
10345W        W80945   7.017  27.003   1.686
10346W        W80946  44.131   2.777  11.119
10347W        W80947  35.109  13.723   1.870
10348W        W80948   9.274  34.113   4.561
10349W        W80949  44.978  37.337  13.792
10350W        W80950  33.120  17.192   2.458
10351W        W80951  30.948  34.081  10.623
10352W        W80952   6.790  20.214  13.162
10353W        W80953  44.403  36.156  11.485
10354W        W80954  11.915  19.263   2.335
10355W        W80955   7.614  34.876   3.093
10356W        W80956  20.705  34.621  14.397
10357W        W80957  35.464  31.822  12.070
10358W        W80958   7.874  30.598  10.684
10359W        W80959  25.010   4.997  12.388
10360W        W80960   4.748  19.972   2.820
10361W        W80961  11.614  28.027  12.105
10362W        W80962  17.571  32.882   0.917
10363W        W80963  16.821  34.943   2.620
10364W        W80964   3.202   3.683   3.266
10365W        W80965  27.430  40.456   0.662
10366W        W80966  36.935   8.217   4.083
10367W        W80967  31.874  39.242  11.958
10368W        W80968  27.979  18.855   3.979
10369W        W80969  21.178  26.622  13.124
10370W        W80970  34.826  43.854  13.527
10371W        W80971  29.047   0.036  10.571
10372W        W80972   3.414  19.018   1.138
10373W        W80973  22.498  10.577   2.900
10374W        W80974  28.198   9.858  14.502
10375W        W80975  22.377  24.163   4.514
10376W        W80976  42.450  24.066   4.316
10377W        W80977  35.256  22.157   4.298
10378W        W80978   3.538   7.263  13.422
10379W        W80979  25.984  14.943  12.898
10380W        W80980  40.457  29.741  11.967
10381W        W80981  35.124  12.867  13.526
10382W        W80982   8.657  10.386  14.402
10383W        W80983  17.348   0.369  10.534
10384W        W80984   0.720   4.857  11.905
10385W        W80985   4.153   9.942  14.216
10386W        W80986  16.263  17.552  11.438
10387W        W80987  12.182   6.221   5.224
10388W        W80988  41.925  34.023   2.819
10389W        W80989  34.917  33.979   1.167
10390W        W80990  20.277  23.944   0.081
10391W        W80991  43.320  14.859  12.130
10392W        W80992   7.605  29.407  14.326
10393W        W80993  20.948  31.046  12.912
10394W        W80994  42.458   9.716  10.728
10395W        W80995  29.111  15.972   3.314
10396W        W80996  27.399  37.049   4.911
10397W        W80997   1.738  37.485  11.717
10398W        W80998  29.633  23.867   4.669
10399W        W80999  25.134   4.370   3.077
10400W        W81000  23.589   9.141   2.374
10401W        W81001  25.491  43.376  14.515
10402W        W81002  39.856  12.347   3.192
10403W        W81003  26.683   4.440   0.940
10404W        W81004  18.656   4.295   0.670
10405W        W81005  25.647   3.277  11.590
10406W        W81006   4.965  43.908   4.808
10407W        W81007  13.414   0.495   2.499
10408W        W81008  42.558  35.256  12.923
10409W        W81009  38.424  31.369  14.029
10410W        W81010  35.841  21.172   3.281
10411W        W81011  22.060  38.949   1.679
10412W        W81012  13.811  28.755  12.757
10413W        W81013  11.747  32.088   4.658
10414W        W81014  17.740  19.541  11.867
10415W        W81015  36.698  32.036   3.684
10416W        W81016  19.692  32.690  12.388
10417W        W81017  41.845   1.076   4.867
10418W        W81018   3.253  29.380   1.957
10419W        W81019  38.576  24.081   2.314
10420W        W81020  18.574   5.584   2.400
10421W        W81021  32.282  10.200  12.222
10422W        W81022  22.122   0.328   3.300
10423W        W81023  27.281  18.483  14.782
10424W        W81024  22.742  42.838  11.172
10425W        W81025  19.675  11.204   4.573
10426W        W81026  25.931   9.603   2.407
10427W        W81027  21.553  37.514  10.727
10428W        W81028  11.057  42.036  12.982
10429W        W81029  28.508   1.248   1.770
10430W        W81030   4.555  13.957   3.254
10431W        W81031  30.742  39.536  11.176
10432W        W81032  20.244  42.284  11.997
10433W        W81033  26.572   5.301   1.490
10434W        W81034  15.633  32.835  12.278
10435W        W81035  23.610  23.336  14.314
10436W        W81036  11.521   1.554   3.773
10437W        W81037   8.746  25.284  11.527
10438W        W81038   0.811  43.116   4.066
10439W        W81039  35.357  17.244  13.947
10440W        W81040  32.767  40.562  12.733
10441W        W81041  28.905  17.605  14.826
10442W        W81042  30.834  33.304  10.877
10443W        W81043  11.776  40.031   2.480
10444W        W81044  19.095  20.558   1.018
10445W        W81045  10.579  43.849  10.538
10446W        W81046  21.994  37.638   4.521
10447W        W81047  30.637  13.808  12.053
10448W        W81048  34.997  26.998   2.000
10449W        W81049  11.054  32.335   1.390
10450W        W81050  14.635  35.705   3.636
10451W        W81051  30.905  30.596   0.219
10452W        W81052  39.956  22.820   1.957
10453W        W81053  40.744  40.365   1.787
10454W        W81054  16.528  26.651  12.897
10455W        W81055  40.013   3.177  14.422
10456W        W81056   2.412  14.931  11.616
10457W        W81057  44.933  10.276   1.848
10458W        W81058   0.585  14.169  10.211
10459W        W81059  30.936   6.655   4.116
10460W        W81060  16.590  27.628  13.767
10461W        W81061  39.615  35.283  14.431
10462W        W81062  32.938  37.404   2.736
10463W        W81063  10.119  24.097  12.478
10464W        W81064   3.380   1.864   2.656
10465W        W81065  23.065  31.645   3.680
10466W        W81066  22.305  31.239  11.392
10467W        W81067   2.338  26.543   3.690
10468W        W81068   4.315  23.631   2.648
10469W        W81069   6.252   3.358   4.469
10470W        W81070  27.420  21.482  14.197
10471W        W81071  21.226  14.698  12.336
10472W        W81072   7.900  38.540   2.030
10473W        W81073  10.560  16.075  13.914
10474W        W81074  25.975  32.579  11.170
10475W        W81075  17.805  33.304  11.572
10476W        W81076  18.073  24.245  10.627
10477W        W81077  37.850   0.106  13.401
10478W        W81078  12.371  17.448  13.488
10479W        W81079  32.595   2.228   3.116
10480W        W81080  18.497   3.442   4.162
10481W        W81081  29.472  38.292  12.936
10482W        W81082  34.844  15.243  12.036
10483W        W81083  40.462  31.726   4.208
10484W        W81084  38.400  35.090   3.698
10485W        W81085  29.248  26.497   0.124
10486W        W81086  42.993  41.870   5.123
10487W        W81087  22.258   2.964  12.046
10488W        W81088  10.670  19.194   0.454
10489W        W81089   6.925  35.711   3.363
10490W        W81090  12.034   6.311   1.165
10491W        W81091  40.787  23.787  13.437
10492W        W81092  33.612   7.782  10.197
10493W        W81093  35.951  36.828   0.332
10494W        W81094  26.289  19.122  11.597
10495W        W81095  44.901  35.148   3.394
10496W        W81096  41.085  12.964  12.526
10497W        W81097   9.457  34.736   1.868
10498W        W81098   6.705  19.743  10.814
10499W        W81099   4.461  13.859   2.321
10500W        W81100  36.010  19.141   4.396
10501W        W81101   6.627  15.293   4.415
10502W        W81102   7.274  18.790   4.170
10503W        W81103  24.443   8.172   2.273
10504W        W81104  13.219  24.596  12.808
10505W        W81105   0.498   2.995  13.559
10506W        W81106  19.589   1.732   2.098
10507W        W81107   8.607  37.570  13.049
10508W        W81108  38.121  34.333  13.700
10509W        W81109  10.334   2.830   3.684
10510W        W81110  39.327  34.566  12.501
10511W        W81111  14.251  42.796   2.920
10512W        W81112  43.829  19.635  10.969
10513W        W81113   5.206   5.403  11.678
10514W        W81114   8.869  37.053  11.911
10515W        W81115   6.801  12.285  11.762
10516W        W81116  40.554  23.931   3.324
10517W        W81117  18.528  44.939   0.957
10518W        W81118  27.497   9.344  10.680
10519W        W81119   9.048   4.184  12.437
10520W        W81120  25.054   0.850  13.012
10521W        W81121  41.993  26.178   2.949
10522W        W81122  27.940  27.680  13.834
10523W        W81123  24.244   5.026  10.267
10524W        W81124  19.702  29.554  14.562
10525W        W81125  40.121  16.052  10.839
10526W        W81126  17.468   9.429  14.913
10527W        W81127  21.757   2.763  13.371
10528W        W81128   9.804  42.849   3.589
10529W        W81129  32.896  24.146  12.622
10530W        W81130   9.180  20.062   2.611
10531W        W81131  30.236   7.885  10.730
10532W        W81132   8.199  25.989  13.473
10533W        W81133  43.494  12.040  11.722
10534W        W81134  15.848   0.690  12.126
10535W        W81135  12.890  27.479   1.328
10536W        W81136  16.282  25.543  11.004
10537W        W81137  11.836  21.143  14.483
10538W        W81138   2.212  28.005   4.042
10539W        W81139  23.630   9.456   3.665
10540W        W81140   7.537  11.512   0.174
10541W        W81141  24.089  23.512   0.057
10542W        W81142  44.461  39.854   1.219
10543W        W81143  30.497  20.337   3.880
10544W        W81144   1.356  42.573   1.897
10545W        W81145   9.972  42.029   1.030
10546W        W81146  37.811  12.809  11.525
10547W        W81147  43.197   9.279  12.895
10548W        W81148  43.066  36.077   3.767
10549W        W81149  33.590  17.217   0.777
10550W        W81150  37.107  24.152   5.061
10551W        W81151  19.612  41.004   0.078
10552W        W81152   5.016  18.308  13.121
10553W        W81153  17.154  28.044   0.163
10554W        W81154  22.172  25.062  13.892
10555W        W81155  23.272  36.449   4.164
10556W        W81156  18.088  10.328   4.788
10557W        W81157  32.677   4.219   3.377
10558W        W81158  29.482   3.818   2.449
10559W        W81159  21.496  24.651   4.151
10560W        W81160  10.324  23.066  10.579
10561W        W81161  30.807  16.641  11.724
10562W        W81162  21.106  35.097   2.622
10563W        W81163  11.529  27.240  11.221
10564W        W81164   1.030  43.769   3.120
10565W        W81165  12.375  20.682  13.510
10566W        W81166   9.645   8.236  14.498
10567W        W81167  44.243  14.726   4.532
10568W        W81168  16.645  20.928  14.883
10569W        W81169  40.957  43.917  12.850
10570W        W81170  37.246  32.710   2.245
10571W        W81171  28.264  38.193   2.263
10572W        W81172  18.662  21.698   4.048
10573W        W81173  29.913  25.630  14.870
10574W        W81174   6.793  22.695   4.753
10575W        W81175  35.068   6.437   1.829
10576W        W81176   0.924  32.860   0.299
10577W        W81177  29.058  28.942  12.084
10578W        W81178   1.358  18.724  12.514
10579W        W81179  17.107   5.736   3.658
10580W        W81180  21.289  32.667  14.008
10581W        W81181   6.867   3.179   3.154
10582W        W81182  38.060  36.992  12.336
10583W        W81183  20.601  19.415  12.382
10584W        W81184  29.485   1.763  10.702
10585W        W81185  33.497  21.716   2.396
10586W        W81186  26.525  24.977  13.008
10587W        W81187  31.588   8.178   5.033
10588W        W81188  32.968  26.411   1.825
10589W        W81189  17.168  27.269  11.659
10590W        W81190  21.374  43.656   2.156
10591W        W81191  43.982   7.344   0.339
10592W        W81192   6.524   4.161  14.308
10593W        W81193  27.807  10.571  13.911
10594W        W81194  25.156  36.328   3.820
10595W        W81195  29.623   0.841   0.936
10596W        W81196  24.448  17.144  14.632
10597W        W81197  41.131   3.496   5.468
10598W        W81198  42.866  40.410  11.298
10599W        W81199  12.798  17.064   2.015
10600W        W81200  24.617  30.561   4.126
10601W        W81201  44.324  19.893  10.522
10602W        W81202  39.577  40.905  13.845
10603W        W81203  16.118  14.800   0.298
10604W        W81204  10.026  28.508  11.757
10605W        W81205  41.802  24.463  14.473
10606W        W81206  24.638   8.907   0.969
10607W        W81207  28.378  37.523  11.177
10608W        W81208  11.720  43.419  12.019
10609W        W81209  27.459   7.077   1.931
10610W        W81210   7.819  22.044   0.690
10611W        W81211  44.790  13.290   4.626
10612W        W81212  41.141  44.805   2.498
10613W        W81213  19.242  32.438  14.140
10614W        W81214  21.288  42.785   3.762
10615W        W81215  19.271   4.392   3.368
10616W        W81216  35.132  37.016   1.763
10617W        W81217   0.407  34.101   4.324
10618W        W81218  25.665   9.650  10.658
10619W        W81219  35.377  40.990   4.697
10620W        W81220  17.143  15.948  11.198
10621W        W81221  19.524  42.847   1.967
10622W        W81222   2.550  14.784  12.097
10623W        W81223  21.178  14.986   3.843
10624W        W81224  13.148  27.626  14.786
10625W        W81225  33.300   1.413   0.383
10626W        W81226   0.483  22.267   2.245
10627W        W81227   6.129   2.470   4.758
10628W        W81228  31.274  35.089   1.361
10629W        W81229  42.539  40.914   0.462
10630W        W81230   6.675  21.077   1.201
10631W        W81231  44.466  11.680  13.116
10632W        W81232  37.292   0.470  12.400
10633W        W81233  21.539   4.148  13.319
10634W        W81234  35.440  23.590  12.950
10635W        W81235  34.033   7.455   4.880
10636W        W81236  25.612  18.768   3.741
10637W        W81237  37.878  12.867  12.506
10638W        W81238   8.367  17.777  13.526
10639W        W81239  28.632   4.888   2.893
10640W        W81240  14.372  23.518  13.468
10641W        W81241  24.342  11.154  10.690
10642W        W81242  37.527  32.575   4.055
10643W        W81243  10.295  17.405  12.886
10644W        W81244   0.753  42.391  11.006
10645W        W81245  16.640  39.116   3.848
10646W        W81246  19.571  39.620  12.425
10647W        W81247  35.838  35.878   0.430
10648W        W81248  40.364  10.586  13.555
10649W        W81249  36.876   1.778   2.194
10650W        W81250  18.199  19.171   0.692
10651W        W81251   0.000  25.556  13.749
10652W        W81252  24.448  15.754  12.530
10653W        W81253  18.505   8.284  13.023
10654W        W81254  15.298  39.510   0.845
10655W        W81255   1.411  22.751  12.048
10656W        W81256  10.369   3.474   2.159
10657W        W81257  34.067  22.214   0.026
10658W        W81258   2.202  12.674  11.631
10659W        W81259  23.270  20.469  10.854
10660W        W81260  11.863  25.909  14.382
10661W        W81261   1.945   3.664   4.612
10662W        W81262   0.026  20.534   4.274
10663W        W81263  34.391  16.550  12.436
10664W        W81264   8.791  40.381   0.526
10665W        W81265   8.833  14.594  10.576
10666W        W81266  31.830   8.742   4.520
10667W        W81267  28.604  28.170   0.076
10668W        W81268   8.786  25.849  12.781
10669W        W81269  16.725  33.077   3.395
10670W        W81270  18.927  35.522   4.964
10671W        W81271  24.119  37.589   4.082
10672W        W81272  14.023   5.504  12.014
10673W        W81273  13.609  34.949  10.679
10674W        W81274  10.589  30.025   2.771
10675W        W81275  21.638  15.713   3.314
10676W        W81276   6.158  21.084   1.239
10677W        W81277  34.397   7.142   1.868
10678W        W81278   0.267  16.698   0.805
10679W        W81279  24.699  19.579  11.201
10680W        W81280  30.089  26.454  10.684
10681W        W81281   3.352  38.595  14.065
10682W        W81282  42.829  18.314   2.269
10683W        W81283  31.234  40.871  12.517
10684W        W81284  11.258   3.458  13.754
10685W        W81285  22.439  41.283  12.930
10686W        W81286  37.463  12.406  10.542
10687W        W81287  33.416  25.544  14.861
10688W        W81288   4.178  29.930   3.684
10689W        W81289  36.811  23.411  14.900
10690W        W81290  38.959  39.968   2.355
10691W        W81291   4.182  20.150   0.492
10692W        W81292  13.172  20.759  12.922
10693W        W81293  37.451  31.928   3.226
10694W        W81294   2.182  41.384   0.439
10695W        W81295  10.471  12.586  10.201
10696W        W81296   3.691  40.949  13.035
10697W        W81297  20.732  20.217   2.396
10698W        W81298  27.333  17.507   3.094
10699W        W81299  14.857  18.805  12.619
10700W        W81300  21.660  33.982   2.290
10701W        W81301  44.312  39.020   1.924
10702W        W81302  28.401  39.795  10.707
10703W        W81303  44.340   0.310   0.935
10704W        W81304  11.777   3.410   2.410
10705W        W81305   7.644  18.101   1.430
10706W        W81306  19.033  35.376  14.475
10707W        W81307  18.842   1.941   3.099
10708W        W81308  13.589  35.886   1.753
10709W        W81309  18.369   0.578   3.643
10710W        W81310  42.243   8.601  10.443
10711W        W81311  32.075  22.556   4.417
10712W        W81312  38.850  14.293   0.899
10713W        W81313  23.639  14.816   3.560
10714W        W81314  28.423  33.469  12.163
10715W        W81315  41.641  32.043   3.168
10716W        W81316  25.870  39.632  12.098
10717W        W81317  38.426  19.387   9.391
10718W        W81318  39.338  40.849  12.462
10719W        W81319  40.776  10.510  13.926
10720W        W81320  20.204  25.602  13.024
10721W        W81321  43.237  29.934   1.715
10722W        W81322  43.889  27.621  13.740
10723W        W81323  24.390   2.339   3.807
10724W        W81324  40.287  22.192   1.407
10725W        W81325   1.988  23.048  14.100
10726W        W81326  10.341  31.231  14.587
10727W        W81327  12.042  20.823  11.920
10728W        W81328  34.336   4.605   1.758
10729W        W81329   2.138   9.488  13.184
10730W        W81330  34.940  21.771   0.921
10731W        W81331   4.010  19.139   3.286
10732W        W81332  23.541  31.542  11.061
10733W        W81333  15.787  15.124  13.172
10734W        W81334   3.135  11.111  10.737
10735W        W81335   1.486  11.339  13.080
10736W        W81336   6.866   4.203   0.448
10737W        W81337  31.094  36.899   0.863
10738W        W81338  39.390  37.058   4.281
10739W        W81339  19.653  40.087   2.202
10740W        W81340  36.544   2.745   0.945
10741W        W81341  26.779  24.266  14.760
10742W        W81342  35.380  44.900   3.551
10743W        W81343  43.027  14.039  14.840
10744W        W81344   6.867   3.966   1.693
10745W        W81345  18.043  36.586  12.379
10746W        W81346   9.169  44.978   1.703
10747W        W81347  12.032   4.781  11.181
10748W        W81348  19.865  37.462  11.974
10749W        W81349  10.208  30.464  11.319
10750W        W81350  35.955  33.359  14.306
10751W        W81351  37.722  10.636  13.005
10752W        W81352  40.836  40.735  10.842
10753W        W81353  33.982  36.369  13.087
10754W        W81354  11.272  34.021  14.046
10755W        W81355  28.245  40.313  13.061
10756W        W81356  29.882   4.739   1.697
10757W        W81357   4.840  37.394  14.967
10758W        W81358   6.124  21.187  14.193
10759W        W81359  30.689  27.308  10.908
10760W        W81360  24.169  14.798  14.973
10761W        W81361   5.262  26.638  13.847
10762W        W81362   4.402  20.764  12.487
10763W        W81363  19.662  17.494  11.606
10764W        W81364   6.821  10.578   4.861
10765W        W81365  33.571  12.607   3.304
10766W        W81366   4.787   1.988  12.799
10767W        W81367  44.911  29.102   4.727
10768W        W81368  16.487  12.308   3.361
10769W        W81369   8.870  24.916   2.865
10770W        W81370  13.738   2.477   1.882
10771W        W81371  15.277  19.230   3.934
10772W        W81372   6.282   6.100   4.194
10773W        W81373  14.667  26.753  10.619
10774W        W81374  29.077  38.623   1.271
10775W        W81375  19.124  32.332  11.713
10776W        W81376  12.304  40.778   0.718
10777W        W81377  35.454  22.645   1.782
10778W        W81378  14.741   2.738   3.641
10779W        W81379   3.019  29.369  12.319
10780W        W81380  20.069  21.061  12.125
10781W        W81381  29.100  42.280  13.380
10782W        W81382  29.509  27.807   3.300
10783W        W81383   4.165  39.247  12.145
10784W        W81384  14.226  41.151   3.640
10785W        W81385  42.500  41.014   2.359
10786W        W81386   2.475  23.975   3.790
10787W        W81387  23.223  39.089   2.201
10788W        W81388  38.083  35.179  12.718
10789W        W81389  33.894  19.878   2.897
10790W        W81390   8.101   0.717  11.024
10791W        W81391  35.745  36.146  11.639
10792W        W81392  34.742  28.028  12.552
10793W        W81393  22.311   2.669   2.194
10794W        W81394  44.770  19.620  14.982
10795W        W81395  32.477   3.738   3.364
10796W        W81396  19.584  16.614   0.346
10797W        W81397  31.480   3.295   1.545
10798W        W81398  43.249  21.710   1.714
10799W        W81399  20.934  37.411   0.373
10800W        W81400  30.887  40.200   4.405
10801W        W81401  32.097  38.611   4.538
10802W        W81402  26.006   2.698  14.196
10803W        W81403   1.230  37.351   4.859
10804W        W81404  35.443  37.568   4.795
10805W        W81405  21.510  11.825   4.313
10806W        W81406   5.390  39.204  14.875
10807W        W81407  44.189  43.928   4.856
10808W        W81408  13.855   7.598   2.708
10809W        W81409   0.334   5.834   0.324
10810W        W81410   6.805  44.616  10.412
10811W        W81411   9.777   9.831  13.129
10812W        W81412  42.842  41.051  11.372
10813W        W81413  34.642  13.714   4.624
10814W        W81414   4.820  38.734  11.564
10815W        W81415  24.690  12.534  13.835
10816W        W81416  35.344  11.379   0.789
10817W        W81417  21.947  18.038  11.480
10818W        W81418  19.865  39.900   0.812
10819W        W81419   1.206  30.245   1.293
10820W        W81420   6.900  42.238   0.275
10821W        W81421  27.752  40.541   3.067
10822W        W81422  18.122  43.941   2.659
10823W        W81423  10.855   4.835   4.115
10824W        W81424  40.707  42.231  11.135
10825W        W81425  18.798  22.316  14.859
10826W        W81426  43.821  42.275  12.099
10827W        W81427  13.240  39.537  11.174
10828W        W81428  38.670  40.001  13.449
10829W        W81429  22.680  34.107   4.475
10830W        W81430  40.823  41.706  11.109
10831W        W81431   2.162   7.904   1.594
10832W        W81432  31.152  16.152  11.044
10833W        W81433  31.198  36.035   0.790
10834W        W81434  12.769  21.442  11.689
10835W        W81435  37.792  29.548  14.299
10836W        W81436   9.263  14.566   3.560
10837W        W81437  12.125  38.961  10.779
10838W        W81438  31.966  31.621  14.557
10839W        W81439  13.870  42.873   2.187
10840W        W81440  26.627  14.673  11.691
10841W        W81441  17.147   5.773   1.698
10842W        W81442   4.442  34.461   3.124
10843W        W81443  41.231   4.640  13.533
10844W        W81444  32.454  24.306   1.312
10845W        W81445  42.214  32.939   3.406
10846W        W81446  35.456  36.560  11.610
10847W        W81447   2.069  19.809   2.155
10848W        W81448  15.192  10.378  11.264
10849W        W81449  29.611  44.589   1.271
10850W        W81450   3.795  21.109   0.219
10851W        W81451  38.035  38.428  12.998
10852W        W81452  38.551  17.140  11.510
10853W        W81453  36.305  23.575   1.233
10854W        W81454  16.140  28.985   0.091
10855W        W81455  40.953  40.753  14.458
10856W        W81456  13.671  11.699   0.489
10857W        W81457  12.450  43.941   0.449
10858W        W81458   8.822  37.330   4.141
10859W        W81459  11.170  40.504  14.842
10860W        W81460  24.052  42.991   1.709
10861W        W81461  40.697  15.815  11.701
10862W        W81462  39.008  42.306   3.682
10863W        W81463  14.751  33.499   3.627
10864W        W81464  43.557  10.190   4.115
10865W        W81465  30.037  24.053  13.464
10866W        W81466  31.688  17.656   0.312
10867W        W81467  25.484  10.848  12.383
10868W        W81468  10.453  18.069  12.421
10869W        W81469  21.192  34.869  13.922
10870W        W81470  16.798  34.662   0.058
10871W        W81471  18.573   3.757  13.909
10872W        W81472  27.072   3.028  13.614
10873W        W81473  38.481  44.001   2.618
10874W        W81474  18.868  18.122   2.240
10875W        W81475  41.223  16.471  12.968
10876W        W81476   6.837  42.700   1.242
10877W        W81477  22.448  25.619  12.772
10878W        W81478   1.294  19.810   4.627
10879W        W81479  44.037   3.991   2.318
10880W        W81480  43.372  44.240   3.206
10881W        W81481  16.609  40.938   0.274
10882W        W81482   0.994  43.708  11.570
10883W        W81483  35.218  28.707   3.641
10884W        W81484   5.115  22.658   2.481
10885W        W81485  18.704   1.374   4.181
10886W        W81486  24.913  42.822  11.965
10887W        W81487  43.367  26.480   1.214
10888W        W81488  38.039  22.244   3.873
10889W        W81489  17.806  15.808  13.145
10890W        W81490  26.104  16.712  10.633
10891W        W81491  31.709  21.705  11.341
10892W        W81492  10.099  33.129  14.909
10893W        W81493  19.741  11.125  11.242
10894W        W81494  28.957  12.389   4.083
10895W        W81495   8.728  16.249   0.492
10896W        W81496  28.935  25.701   1.919
10897W        W81497  39.096  17.031  12.723
10898W        W81498  14.288  24.786  13.914
10899W        W81499  16.704  40.979  13.442
10900W        W81500   8.739  24.545   0.824
10901W        W81501  14.340   4.613  11.163
10902W        W81502  20.287  22.632   1.993
10903W        W81503  38.284  23.001   2.371
10904W        W81504  22.090  41.463  10.658
10905W        W81505   6.299  16.495   1.305
10906W        W81506  28.163   7.128   5.066
10907W        W81507  27.052   4.980   4.005
10908W        W81508  41.405  15.481   3.198
10909W        W81509  10.952   5.470  13.494
10910W        W81510   5.128  40.508   1.185
10911W        W81511  44.975   1.788   4.030
10912W        W81512  25.032  41.898   3.697
10913W        W81513  21.993  20.983   0.861
10914W        W81514   7.322  24.506  14.042
10915W        W81515  15.884  43.559   0.354
10916W        W81516  10.775  35.146  14.453
10917W        W81517  14.548  35.127   2.295
10918W        W81518  44.254  39.036   4.649
10919W        W81519   3.936  10.852  11.931
10920W        W81520  36.153  26.060   3.791
10921W        W81521  10.094  22.577   0.834
10922W        W81522   9.832  44.302  12.086
10923W        W81523   1.885  32.651   2.610
10924W        W81524  42.956  27.153   1.672
10925W        W81525  38.377   7.322  11.481
10926W        W81526  19.863  19.813  14.241
10927W        W81527  32.033  15.367   0.290
10928W        W81528  17.262  11.720  10.607
10929W        W81529  44.831  23.713  13.251
10930W        W81530   1.099   7.322   1.455
10931W        W81531  21.906  14.721  11.099
10932W        W81532  41.493  13.758  11.989
10933W        W81533  25.624  22.821  14.827
10934W        W81534  13.353   5.355  11.577
10935W        W81535  22.748  12.561  10.597
10936W        W81536  38.401  24.394  11.978
10937W        W81537  24.984  29.200   0.934
10938W        W81538  17.285   6.855   4.195
10939W        W81539  16.979  17.565   0.421
10940W        W81540  39.334  42.018   4.593
10941W        W81541  22.662  14.541  10.873
10942W        W81542  41.370  43.922   2.338
10943W        W81543  18.147  40.755  13.300
10944W        W81544  17.227  34.918  11.113
10945W        W81545   9.196  13.302  10.894
10946W        W81546  12.329   2.364   4.261
10947W        W81547  11.139  20.477   1.264
10948W        W81548  27.608   4.257   3.464
10949W        W81549  23.790  36.538   2.257
10950W        W81550  30.125  18.589   1.774
10951W        W81551   6.274  35.513  10.850
10952W        W81552   3.662   6.185  14.002
10953W        W81553  26.975  31.676  13.225
10954W        W81554  44.129  19.396  13.677
10955W        W81555  43.293  36.377  13.879
10956W        W81556  33.906   9.813   3.222
10957W        W81557  25.577  44.057  10.681
10958W        W81558  13.840  34.388   2.232
10959W        W81559  23.505  12.111   2.373
10960W        W81560  14.681  31.633  12.081
10961W        W81561  22.266  10.093   1.699
10962W        W81562  41.853   6.975   9.750
10963W        W81563  17.910  19.805  11.053
10964W        W81564  17.707  34.476   0.013
10965W        W81565   9.167  10.836   4.617
10966W        W81566  13.831  17.067  12.919
10967W        W81567  13.144  13.298   0.002
10968W        W81568  11.138  27.257   1.750
10969W        W81569   2.358  37.485   4.595
10970W        W81570  23.471  20.185   3.651
10971W        W81571   6.131  29.856   3.876
10972W        W81572   8.871  27.277  10.447
10973W        W81573  34.510   2.510  13.447
10974W        W81574  30.460  12.516  11.166
10975W        W81575  24.418  28.180   4.731
10976W        W81576  44.193  27.430   4.090
10977W        W81577   5.520  31.634  14.105
10978W        W81578  27.621  27.883   2.488
10979W        W81579   6.405  24.222   4.103
10980W        W81580  17.525   0.686   0.021
10981W        W81581   6.644   9.788   3.336
10982W        W81582  30.693  43.674   3.463
10983W        W81583  34.303  40.345   4.237
10984W        W81584  15.857  26.401  11.142
10985W        W81585   4.073  22.130  14.367
10986W        W81586  42.761  25.664  11.073
10987W        W81587  32.034  10.627  12.383
10988W        W81588   5.788  18.294   3.766
10989W        W81589  12.822   9.182   0.401
10990W        W81590   1.310  14.687   3.931
10991W        W81591   6.330  44.388  13.596
10992W        W81592  14.269   4.503   1.235
10993W        W81593  10.210  12.635   2.252
10994W        W81594  15.958   5.222  14.444
10995W        W81595  10.723  12.540   0.494
10996W        W81596  21.410  21.265   0.194
10997W        W81597  16.508  44.341  14.734
10998W        W81598   1.544  19.787   2.280
10999W        W81599  29.728  25.931  12.517
11000W        W81600  23.989  33.432   0.021
11001W        W81601   5.219  14.492   3.750
11002W        W81602  10.644   3.711   1.425
11003W        W81603  41.345   2.774  14.396
11004W        W81604  37.329  20.101  10.842
11005W        W81605  28.691  15.092  14.810
11006W        W81606  23.010  11.818  12.990
11007W        W81607   8.542   1.401  10.388
11008W        W81608  41.718  20.628   0.282
11009W        W81609  32.513  16.783  14.333
11010W        W81610   9.789  12.274  11.437
11011W        W81611   6.112  21.550  12.125
11012W        W81612   5.420  19.132  10.720
11013W        W81613   7.402  32.988  10.747
11014W        W81614  30.991  18.032  13.269
11015W        W81615  24.405  43.511  10.223
11016W        W81616  33.591  25.985  11.034
11017W        W81617  28.022  32.385  13.561
11018W        W81618  36.465  42.235   0.415
11019W        W81619   2.233   9.350   4.145
11020W        W81620  11.495  22.861   4.109
11021W        W81621  26.611  28.566  14.540
11022W        W81622  21.902  22.240  13.849
11023W        W81623   0.262   3.583   0.059
11024W        W81624  34.446  24.236   1.161
11025W        W81625  23.215  29.443   1.271
11026W        W81626  40.094   6.950   0.927
11027W        W81627  44.450  44.981  14.615
11028W        W81628  36.364   5.977   3.146
11029W        W81629   8.839   2.455  14.000
11030W        W81630  17.753   6.071  13.202
11031W        W81631   4.897  15.299  12.688
11032W        W81632   5.999  14.397   3.190
11033W        W81633   1.499   3.383  11.707
11034W        W81634   0.967  26.102   1.862
11035W        W81635  16.298  42.785   0.249
11036W        W81636  39.246  19.682   0.372
11037W        W81637  23.134  44.328  10.812
11038W        W81638  17.676  43.935   3.236
11039W        W81639  35.584  36.844  11.168
11040W        W81640  42.454  12.877  10.646
11041W        W81641   0.284  30.626  13.062
11042W        W81642   2.521  38.333  13.858
11043W        W81643  23.912   8.755  11.539
11044W        W81644  14.102  16.989   4.566
11045W        W81645  28.209  15.914  11.096
11046W        W81646   6.302  31.107  14.416
11047W        W81647  36.454  11.312  11.098
11048W        W81648   4.898  23.237  10.823
11049W        W81649  19.259  11.614   1.783
11050W        W81650   7.136  25.786  11.120
11051W        W81651  38.754  40.313  13.912
11052W        W81652  23.193   4.317  11.621
11053W        W81653   7.739  23.620   5.080
11054W        W81654   3.165  35.815  14.939
11055W        W81655   0.376  35.019   4.117
11056W        W81656  32.431  25.548  14.765
11057W        W81657  30.374  10.207   4.610
11058W        W81658   8.141  10.818  11.070
11059W        W81659  29.112  28.273  12.963
11060W        W81660   5.000   2.467  14.426
11061W        W81661  17.056   9.705  14.781
11062W        W81662  41.869  11.245  14.207
11063W        W81663  29.471   7.299   4.710
11064W        W81664   3.802  22.005  11.540
11065W        W81665  26.726  18.032  13.104
11066W        W81666   8.651  12.443   0.387
11067W        W81667  17.978  40.426  14.807
11068W        W81668  26.889   8.935   0.766
11069W        W81669   7.416  23.438  12.205
11070W        W81670  31.494  19.829   0.875
11071W        W81671  15.200  43.032   0.754
11072W        W81672  43.851  31.589  10.707
11073W        W81673  16.198  27.624   0.975
11074W        W81674  17.717  34.192   2.400
11075W        W81675  34.262  33.524   2.862
11076W        W81676   2.757  21.003   0.300
11077W        W81677  27.216  28.288  13.314
11078W        W81678  40.992  11.641  14.930
11079W        W81679  39.342   0.798   1.395
11080W        W81680  11.304  14.875  14.033
11081W        W81681  26.483  37.009   3.398
11082W        W81682  29.699  28.995   3.305
11083W        W81683  43.998  15.069   0.841
11084W        W81684  35.026  23.655  13.296
11085W        W81685   8.540  19.413   1.034
11086W        W81686  12.358   8.586  14.446
11087W        W81687  22.050  28.660  14.053
11088W        W81688  38.618  17.172  10.473
11089W        W81689  43.857  36.331  14.789
11090W        W81690   2.614  39.310  13.795
11091W        W81691  29.359  22.620   3.945
11092W        W81692  19.801   0.278  10.775
11093W        W81693  42.959  17.843   1.343
11094W        W81694  29.964  19.788  10.409
11095W        W81695  37.591  11.260  12.079
11096W        W81696  23.950   3.694   1.414
11097W        W81697  25.066   9.335   2.286
11098W        W81698  42.341  31.056  11.499
11099W        W81699  40.292  18.257   0.538
11100W        W81700  36.670  24.213  14.411
11101W        W81701  28.629  38.541   4.629
11102W        W81702  25.240  26.122  13.935
11103W        W81703  40.487  11.622   2.220
11104W        W81704  28.762  17.251  12.255
11105W        W81705  28.295   7.188  12.570
11106W        W81706  18.774  26.517  12.903
11107W        W81707   1.107  28.915   4.148
11108W        W81708  14.660  22.202   2.095
11109W        W81709  40.478  11.117   2.346
11110W        W81710   9.334  42.992   3.815
11111W        W81711  41.473  22.443   1.721
11112W        W81712   9.461  13.219  13.600
11113W        W81713  39.393  16.118   4.654
11114W        W81714  11.510   4.222   4.162
11115W        W81715  19.110  33.143   3.353
11116W        W81716  43.588   7.344   2.961
11117W        W81717  43.821  18.973  14.937
11118W        W81718  18.189  21.289   0.386
11119W        W81719  27.951  27.011   3.801
11120W        W81720  22.141   6.397  10.260
11121W        W81721  25.240   4.238  13.066
11122W        W81722  35.888  25.074   3.323
11123W        W81723   2.295  12.866  14.380
11124W        W81724  15.067  36.461   3.995
11125W        W81725  32.477  10.163  13.047
11126W        W81726  12.348  32.289   0.456
11127W        W81727  24.277  27.085  11.232
11128W        W81728   4.729  36.503   4.032
11129W        W81729  31.117  13.687   4.581
11130W        W81730  29.609  37.969  12.246
11131W        W81731   3.715  29.345   2.256
11132W        W81732  31.886  14.169  14.035
11133W        W81733  22.859   5.788   1.487
11134W        W81734  44.121  30.194  11.891
11135W        W81735  44.525  12.137   3.660
11136W        W81736   0.224  21.028   2.717
11137W        W81737  31.141  39.724  11.598
11138W        W81738  20.687  30.581  10.688
11139W        W81739  41.994  37.098  10.645
11140W        W81740  35.372  23.488  11.943
11141W        W81741  33.121   9.199   3.198
11142W        W81742   5.790  15.729   0.850
11143W        W81743  16.619   4.349  14.390
11144W        W81744   2.267   8.979   0.806
11145W        W81745  33.444  42.433   0.544
11146W        W81746  40.552   7.232   1.205
11147W        W81747  22.814  43.332   0.707
11148W        W81748  17.535  28.985  11.148
11149W        W81749  26.172  10.788   0.968
11150W        W81750  16.230  16.467   9.931
11151W        W81751  42.850   6.815  14.279
11152W        W81752  40.081  31.504  14.402
11153W        W81753  41.171   1.735  10.415
11154W        W81754  28.040  17.873   1.461
11155W        W81755   3.958  11.647   0.771
11156W        W81756  15.619  29.101  12.104
11157W        W81757  30.854  41.202  12.549
11158W        W81758  18.969   4.903  12.451
11159W        W81759  16.068  37.896   2.652
11160W        W81760  18.300  28.491  12.197
11161W        W81761   9.769  40.799   1.359
11162W        W81762  17.040  29.919   0.466
11163W        W81763  37.339  35.800   0.381
11164W        W81764   9.785  15.064   3.366
11165W        W81765  21.817   1.474  11.208
11166W        W81766  36.035  16.871   0.250
11167W        W81767  17.705  38.920   0.367
11168W        W81768  12.077  41.926  12.035
11169W        W81769  31.816   2.809   4.613
11170W        W81770  21.173  14.614   0.903
11171W        W81771  41.826  44.449  13.905
11172W        W81772  15.723  40.415   4.523
11173W        W81773  10.684  43.222  13.767
11174W        W81774  31.873  35.563  12.039
11175W        W81775   2.825   5.943  10.676
11176W        W81776  28.539  30.690  14.236
11177W        W81777  28.253  20.191   3.600
11178W        W81778  20.091   4.279  13.363
11179W        W81779  27.225   3.448  13.333
11180W        W81780  14.201   8.023  13.857
11181W        W81781  43.044  18.052  10.727
11182W        W81782   0.336  10.623  10.674
11183W        W81783  30.063  11.148  12.085
11184W        W81784   3.159  10.623   0.234
11185W        W81785  40.242  17.201   2.871
11186W        W81786  22.152  35.645  13.852
11187W        W81787  29.873  19.679   2.192
11188W        W81788  22.126  22.673   4.861
11189W        W81789  21.421  38.342   2.493
11190W        W81790  15.091  39.593  10.705
11191W        W81791  38.680  23.707  14.512
11192W        W81792  19.355  23.106  14.441
11193W        W81793  32.366  25.786  13.403
11194W        W81794   2.671  37.047  12.513
11195W        W81795   7.731   7.169   1.792
11196W        W81796   8.062  37.503   2.615
11197W        W81797  44.495  19.821  12.311
11198W        W81798  15.801  34.642  13.476
11199W        W81799  33.942  30.112  12.863
11200W        W81800   0.648  37.068  12.582
11201W        W81801  25.934  18.616  12.881
11202W        W81802  30.344  33.386   4.064
11203W        W81803  27.598  27.691   1.515
11204W        W81804  31.979  43.858   3.640
11205W        W81805  26.978   4.515   3.219
11206W        W81806  28.628  18.121   0.977
11207W        W81807  33.869  21.463  10.920
11208W        W81808   2.796  22.129   1.665
11209W        W81809  11.831  15.574   4.112
11210W        W81810  33.466  32.916  12.301
11211W        W81811   0.802  36.655   0.732
11212W        W81812   3.164   6.955   3.774
11213W        W81813  28.631   5.479  13.873
11214W        W81814  43.022  37.484  12.404
11215W        W81815   1.169  22.602  12.460
11216W        W81816  38.363  24.657   1.461
11217W        W81817  12.276   9.448  14.250
11218W        W81818  20.206  11.566  14.911
11219W        W81819  27.641  19.039   1.212
11220W        W81820  30.596  12.420  12.066
11221W        W81821   0.189  14.661  11.586
11222W        W81822   4.044  31.782  14.462
11223W        W81823  12.576  15.562  11.139
11224W        W81824   2.527   4.521  12.075
11225W        W81825  27.736  30.282   1.268
11226W        W81826  31.597  42.234   4.179
11227W        W81827  22.999  13.794  10.771
11228W        W81828  15.334  40.416   3.820
11229W        W81829   9.696  38.983  12.359
11230W        W81830  40.313  42.418  10.848
11231W        W81831  21.008  30.038  11.677
11232W        W81832   9.150  19.029  11.913
11233W        W81833   8.758  29.044   4.571
11234W        W81834  20.094  20.966  14.551
11235W        W81835  38.541  19.572   3.248
11236W        W81836  43.317   6.895  12.520
11237W        W81837  26.991  41.855   2.302
11238W        W81838  37.956   0.542   3.686
11239W        W81839   5.407  31.007   0.344
11240W        W81840   8.684  33.826   3.934
11241W        W81841  18.708  27.077  11.216
11242W        W81842  41.148  13.851   2.822
11243W        W81843  35.542  27.020   4.469
11244W        W81844  33.804  29.244   3.290
11245W        W81845  41.560  40.917   0.088
11246W        W81846  38.581   9.265  12.910
11247W        W81847  10.062  28.002   3.695
11248W        W81848  19.197  19.607  11.114
11249W        W81849  33.525  19.532   2.674
11250W        W81850   6.183  16.766  12.950
11251W        W81851  30.954  15.817   1.039
11252W        W81852  36.346   3.419  11.910
11253W        W81853  24.087  29.901  13.539
11254W        W81854  37.757  42.614   5.054
11255W        W81855  41.729  12.303  10.357
11256W        W81856  14.092   1.937  10.283
11257W        W81857  14.261  28.864   1.533
11258W        W81858  43.488   5.873  12.382
11259W        W81859   9.118   5.910   1.941
11260W        W81860   5.323  39.837  13.365
11261W        W81861  29.042  11.178   3.629
11262W        W81862  23.111   1.020   5.367
11263W        W81863  22.080  40.574  13.432
11264W        W81864  40.391  11.322  10.334
11265W        W81865   6.397  41.407  12.568
11266W        W81866  13.405  22.714   0.369
11267W        W81867  20.137  32.949   3.732
11268W        W81868  31.331  35.883  10.261
11269W        W81869   9.315  41.810   4.275
11270W        W81870  11.207   6.435   1.806
11271W        W81871   4.032  13.148  11.620
11272W        W81872  33.234  18.636  14.786
11273W        W81873  11.541  36.514  14.880
11274W        W81874  12.504  28.949  14.978
11275W        W81875  41.072   2.325   3.730
11276W        W81876  18.603  29.918   3.841
11277W        W81877  23.974  35.142  12.977
11278W        W81878  10.322   5.450   3.699
11279W        W81879  32.184  38.471   2.335
11280W        W81880  23.788  42.794   3.717
11281W        W81881  23.026  39.307   0.523
11282W        W81882  10.386  29.021   3.859
11283W        W81883  41.640   9.621  12.409
11284W        W81884  27.032  26.496   1.507
11285W        W81885  22.749  41.564   3.665
11286W        W81886  34.531  36.712  12.864
11287W        W81887   3.369  37.350   4.431
11288W        W81888  44.141   7.600  11.783
11289W        W81889   5.879  21.084  12.121
11290W        W81890  25.493  20.297   4.186
11291W        W81891   0.019  18.606   1.274
11292W        W81892  38.167  23.565  13.916
11293W        W81893  14.242   6.930   1.394
11294W        W81894  40.888   7.681  13.955
11295W        W81895   1.354  43.320  13.318
11296W        W81896  35.038   3.961  14.766
11297W        W81897  20.717  20.566  12.865
11298W        W81898  19.339  18.081  10.761
11299W        W81899   7.877  31.671   2.042
11300W        W81900  17.798  36.877   3.045
11301W        W81901   6.726  17.788   1.457
11302W        W81902  11.804  24.243  12.132
11303W        W81903  14.222   1.782   4.339
11304W        W81904  17.110   7.391  13.423
11305W        W81905  33.316  21.064   4.145
11306W        W81906  30.653  17.537   0.255
11307W        W81907  24.509   5.541   2.881
11308W        W81908  38.549  27.281  14.477
11309W        W81909  44.074  20.336  10.327
11310W        W81910  37.417  30.527   0.793
11311W        W81911  35.664  17.564   2.805
11312W        W81912  27.528  27.590   0.887
11313W        W81913  24.486  18.710   1.932
11314W        W81914  10.382   1.502   0.280
11315W        W81915  19.637  22.965  11.360
11316W        W81916   2.270  32.934  11.501
11317W        W81917  39.368   2.344  12.437
11318W        W81918   4.692  34.422   2.342
11319W        W81919  37.630   9.961   4.674
11320W        W81920   2.551  36.019   0.739
11321W        W81921  23.617  28.179   1.662
11322W        W81922  35.144  36.127   4.340
11323W        W81923   7.325  21.734  11.701
11324W        W81924  42.843  10.286   1.297
11325W        W81925  37.446   1.034   4.705
11326W        W81926   1.264  27.212   1.170
11327W        W81927  41.398  12.080  14.305
11328W        W81928  22.284   9.811  13.497
11329W        W81929  15.851  37.529   4.579
11330W        W81930  26.887  36.884   1.176
11331W        W81931  17.560   3.749   2.704
11332W        W81932  28.162  34.250   4.143
11333W        W81933   3.852  41.491  12.117
11334W        W81934  22.267  32.515  12.508
11335W        W81935  13.358  34.120   0.205
11336W        W81936  34.825  38.805   2.784
11337W        W81937  32.515  18.696   2.165
11338W        W81938  15.228  39.707   4.276
11339W        W81939   0.050  38.172  14.378
11340W        W81940  32.923  12.874   4.731
11341W        W81941   0.785  13.111  13.111
11342W        W81942  38.433  12.192   2.726
11343W        W81943  43.787   3.016   2.267
11344W        W81944  34.312  19.709   4.428
11345W        W81945   0.353  33.161  13.036
11346W        W81946  35.610  26.951  14.039
11347W        W81947  31.740   1.228   2.861
11348W        W81948  13.189  15.721   1.925
11349W        W81949  33.522  27.475   0.239
11350W        W81950   8.322  18.674  11.534
11351W        W81951  38.024   1.964   3.802
11352W        W81952  16.038  31.663  11.044
11353W        W81953  24.216  23.983   3.634
11354W        W81954  17.137  16.767  10.933
11355W        W81955   1.732  43.994   4.840
11356W        W81956  15.665  38.113  13.847
11357W        W81957  35.563  12.776  13.789
11358W        W81958   5.858   1.361  13.839
11359W        W81959  14.054   1.845   2.842
11360W        W81960   5.474  17.510  13.945
11361W        W81961  42.047  30.164   1.279
11362W        W81962   5.654  37.536  13.432
11363W        W81963  42.939  44.786   0.324
11364W        W81964  24.734  28.171  10.775
11365W        W81965  10.362  24.186   4.823
11366W        W81966   6.699  31.352   4.674
11367W        W81967  32.023  34.002   3.535
11368W        W81968   6.462  34.527  11.066
11369W        W81969  24.553   7.476   0.101
11370W        W81970  26.645  13.088   1.645
11371W        W81971  10.052  32.211  11.140
11372W        W81972  20.058  12.738   5.041
11373W        W81973  29.853  44.954   2.768
11374W        W81974  21.196  41.625   4.708
11375W        W81975  34.040  17.631   2.213
11376W        W81976  20.005  24.662   1.273
11377W        W81977   4.953   2.423   4.857
11378W        W81978  18.759   0.264  14.595
11379W        W81979  43.270   7.333  14.453
11380W        W81980  40.457  12.192  10.616
11381W        W81981   9.884  33.298  12.871
11382W        W81982  35.576   7.912   3.087
11383W        W81983  31.110  27.184   0.375
11384W        W81984  27.006  25.239  13.040
11385W        W81985  44.350   4.880   4.767
11386W        W81986   9.838  30.417   0.257
11387W        W81987  43.820  33.179   1.821
11388W        W81988  18.141  37.900   0.964
11389W        W81989   5.791  17.333  13.424
11390W        W81990  18.283   7.444  11.994
11391W        W81991  12.414  36.936   0.988
11392W        W81992   6.508  31.589   3.362
11393W        W81993  24.313   8.745   1.356
11394W        W81994  19.711   8.950   4.004
11395W        W81995  29.050   4.697  12.372
11396W        W81996   5.944  32.878   3.067
11397W        W81997  36.861   9.451   4.322
11398W        W81998   5.295  10.182   4.359
11399W        W81999  11.879  43.815  14.270
11400W        W82000   4.745   6.152  11.544
11401W        W82001  12.964  30.825   2.407
11402W        W82002   7.086   9.325  10.852
11403W        W82003  12.787  35.072   2.675
11404W        W82004  30.254  20.623  10.584
11405W        W82005   9.392  14.058  11.465
11406W        W82006  21.295  21.645   1.376
11407W        W82007  12.871  37.124  12.453
11408W        W82008   1.358  33.047  10.563
11409W        W82009  22.576  16.720  12.889
11410W        W82010   6.791   3.371   4.653
11411W        W82011  32.413  37.383   2.679
11412W        W82012   5.263  36.374  12.872
11413W        W82013  28.325  19.059   0.013
11414W        W82014   3.933   5.809   1.822
11415W        W82015  25.466  25.688   2.677
11416W        W82016  27.676  22.037   0.553
11417W        W82017   6.159  28.048   5.008
11418W        W82018  30.037   0.624  13.943
11419W        W82019  11.564   8.481  11.195
11420W        W82020  23.298  39.140   4.168
11421W        W82021   2.400   8.339   1.883
11422W        W82022  25.210  23.259   4.732
11423W        W82023  30.892  12.097  11.629
11424W        W82024   6.769  31.817  13.828
11425W        W82025   6.652   6.163   3.816
11426W        W82026  13.770  36.855  14.072
11427W        W82027  37.292  21.565   1.933
11428W        W82028  13.152  17.648   4.994
11429W        W82029  42.298  11.347   2.195
11430W        W82030  16.367  12.588  14.502
11431W        W82031  24.132  40.904   1.010
11432W        W82032   7.892  33.144  10.844
11433W        W82033  39.562  23.268  11.128
11434W        W82034  20.770  10.719   3.293
11435W        W82035   3.802  42.898   4.915
11436W        W82036  11.057  19.389   3.212
11437W        W82037  39.150  31.010   2.802
11438W        W82038  30.588  40.770   0.338
11439W        W82039   6.097   6.724  14.990
11440W        W82040  27.240  35.113  11.489
11441W        W82041  31.130  13.094   1.558
11442W        W82042   5.077  25.506   4.800
11443W        W82043   8.836  11.932  13.079
11444W        W82044  30.165  29.932   2.485
11445W        W82045  20.759  13.827   0.782
11446W        W82046  17.667  23.167  13.947
11447W        W82047  39.569   8.764  14.440
11448W        W82048  31.044   3.652  11.521
11449W        W82049  13.726  28.943   1.209
11450W        W82050  33.430  23.177   4.171
11451W        W82051  36.583  29.902   3.511
11452W        W82052  14.325   0.725   0.861
11453W        W82053   4.392  17.555   0.350
11454W        W82054  32.384  39.002  14.473
11455W        W82055  20.107  24.870  12.356
11456W        W82056  15.751  15.184   2.282
11457W        W82057  37.473  16.139  13.871
11458W        W82058  33.083  37.817   3.335
11459W        W82059  14.106  29.966  11.621
11460W        W82060  39.008  28.175   4.292
11461W        W82061  33.968   8.688   1.870
11462W        W82062  33.326  14.852   3.799
11463W        W82063   2.266  14.385   4.164
11464W        W82064  31.156  21.110  14.720
11465W        W82065  24.487  24.638   1.255
11466W        W82066  18.311  35.917   2.753
11467W        W82067  40.613  18.114   3.583
11468W        W82068   0.287   2.420   3.778
11469W        W82069   5.363   8.303  12.651
11470W        W82070  15.157   2.043   3.255
11471W        W82071   7.497  38.095   2.190
11472W        W82072  12.120  24.765   4.234
11473W        W82073  27.868  35.355   1.818
11474W        W82074  32.139   4.697   4.656
11475W        W82075   3.265  35.847  10.771
11476W        W82076  26.576  36.388  11.571
11477W        W82077  10.810  42.245  14.031
11478W        W82078  33.083  39.056  14.993
11479W        W82079  32.905  25.251   3.585
11480W        W82080  40.321  36.035  12.368
11481W        W82081  35.280  16.173  14.415
11482W        W82082  11.964  23.348   0.345
11483W        W82083  24.768  28.910   1.306
11484W        W82084  31.170  42.589  12.852
11485W        W82085  33.932  39.710  13.028
11486W        W82086  14.807  28.236   2.155
11487W        W82087  43.018  23.176   1.040
11488W        W82088  25.090  37.142   2.123
11489W        W82089  35.017  43.299   0.704
11490W        W82090  13.216  32.349   4.446
11491W        W82091   9.207   5.652  11.072
11492W        W82092  19.582   1.299   4.322
11493W        W82093   8.702   3.406   4.889
11494W        W82094  27.700   8.113  14.791
11495W        W82095  17.419   5.638  14.406
11496W        W82096   9.356   8.150   3.200
11497W        W82097  20.144  13.201  10.794
11498W        W82098  26.938  14.750  10.890
11499W        W82099  24.563   4.418   3.707
11500W        W82100  32.330  27.055   4.606
11501W        W82101   5.200  17.555   1.317
11502W        W82102   2.411   0.435   3.185
11503W        W82103  27.213  12.516   0.940
11504W        W82104   8.245  40.857   2.622
11505W        W82105  30.127  37.149   1.768
11506W        W82106  10.639  29.347   0.556
11507W        W82107  32.045  43.542  11.863
11508W        W82108  43.081  32.465  13.008
11509W        W82109  30.023   0.872  13.483
11510W        W82110  25.730  40.941  13.003
11511W        W82111   8.160  20.652  11.047
11512W        W82112  18.820  31.232   4.202
11513W        W82113  30.579  28.198  12.588
11514W        W82114  38.387  23.946  13.639
11515W        W82115  39.137  36.903  13.042
11516W        W82116  23.553  21.219  12.982
11517W        W82117  37.961   8.869   2.370
11518W        W82118  34.895  13.215  12.235
11519W        W82119  11.443  32.494  14.993
11520W        W82120  16.699  43.865   2.326
11521W        W82121  30.958   7.956   3.507
11522W        W82122  34.141  18.942  11.303
11523W        W82123   6.947   3.457   1.769
11524W        W82124  16.318  26.408   1.807
11525W        W82125   8.509   7.798   4.219
11526W        W82126   5.453   4.133  13.360
11527W        W82127  32.050  26.035   3.846
11528W        W82128   6.748  15.576   4.831
11529W        W82129  14.314  15.116   3.688
11530W        W82130  41.886  34.827   4.328
11531W        W82131  29.229   9.389   0.195
11532W        W82132  31.386  15.698   0.784
11533W        W82133  39.659   4.441  11.677
11534W        W82134  21.921  14.749   0.115
11535W        W82135  14.121  24.680  11.686
11536W        W82136  18.636   7.309   3.199
11537W        W82137  34.400  15.668  11.598
11538W        W82138   2.317  31.205  14.760
11539W        W82139  23.488  42.386   3.756
11540W        W82140  32.069  42.437   0.897
11541W        W82141  32.467  41.609   5.248
11542W        W82142  38.451  11.613   3.104
11543W        W82143  24.676  31.514  10.730
11544W        W82144  11.638  21.946  12.552
11545W        W82145  32.367  31.586   3.627
11546W        W82146   9.363   3.774   4.471
11547W        W82147  32.937  13.228   4.361
11548W        W82148  27.003   7.467  14.470
11549W        W82149   3.320  27.483   3.265
11550W        W82150  11.788   1.723   2.957
11551W        W82151  18.458  30.516  10.809
11552W        W82152  37.415  38.336   0.380
11553W        W82153  20.064  41.379  10.186
11554W        W82154  42.415   3.841   4.546
11555W        W82155  30.680  12.446   4.069
11556W        W82156  30.636  34.672   4.869
11557W        W82157  19.574  30.844  10.465
11558W        W82158  32.022  27.663   3.122
11559W        W82159  10.728   8.358  12.350
11560W        W82160  43.289  43.428   0.286
11561W        W82161  42.738  16.960  11.637
11562W        W82162   3.938  18.958  13.388
11563W        W82163  10.185  33.901  10.813
11564W        W82164   0.727  39.292   4.082
11565W        W82165   3.350  44.742  14.799
11566W        W82166  17.660  19.910  11.523
11567W        W82167   4.813  40.789   1.510
11568W        W82168  18.551  18.476  11.086
11569W        W82169  19.684  14.109   0.316
11570W        W82170  20.001  43.731   0.093
11571W        W82171  33.077  28.212   0.415
11572W        W82172  25.090   0.743   1.178
11573W        W82173  21.003  42.969  11.975
11574W        W82174  37.901  28.004   4.211
11575W        W82175   1.652  33.190  10.968
11576W        W82176  29.592   9.526   4.095
11577W        W82177  13.919  11.206   4.232
11578W        W82178  24.476   8.236   1.401
11579W        W82179  36.403   4.350  13.102
11580W        W82180  26.420  17.079  12.032
11581W        W82181  34.470  40.595   3.518
11582W        W82182  22.706   2.057   3.026
11583W        W82183  42.272  35.700  12.949
11584W        W82184  34.876  40.987  14.835
11585W        W82185  44.254  25.142  14.248
11586W        W82186  24.781  32.604  11.527
11587W        W82187   1.696  36.935   0.284
11588W        W82188  14.121   2.868  11.911
11589W        W82189  17.453  35.460   0.289
11590W        W82190  32.230  27.725   1.344
11591W        W82191  16.678  44.742  12.113
11592W        W82192   9.658   4.000  14.804
11593W        W82193  29.417  32.894   0.943
11594W        W82194  34.413  15.457  14.844
11595W        W82195  31.677  26.205   4.802
11596W        W82196  15.707  44.979  12.867
11597W        W82197  42.294  29.965  12.517
11598W        W82198   7.462  11.901  12.878
11599W        W82199  39.269   7.913   1.358
11600W        W82200  25.954  30.394  13.862
11601W        W82201  40.532  29.381  14.980
11602W        W82202   8.369  15.392  14.895
11603W        W82203  27.602  27.103   4.160
11604W        W82204   2.669  36.444   1.934
11605W        W82205  16.473  37.618  13.241
11606W        W82206  10.490  24.394  13.169
11607W        W82207   9.638  28.395  12.590
11608W        W82208  12.103  42.105  11.069
11609W        W82209  13.970   7.967  12.100
11610W        W82210  30.594  27.183   1.118
11611W        W82211  31.227  32.160  12.569
11612W        W82212  26.925  17.372  12.013
11613W        W82213  30.868  35.279  13.578
11614W        W82214  36.458  16.718  13.340
11615W        W82215  21.145  41.683  13.121
11616W        W82216  40.984  17.340   2.391
11617W        W82217  34.996  44.823  13.123
11618W        W82218  24.242  41.066  13.024
11619W        W82219   2.105  33.471  14.517
11620W        W82220  22.482  18.555   4.253
11621W        W82221  12.235  38.861   2.294
11622W        W82222   0.976   0.845  10.185
11623W        W82223  43.287  16.693  12.975
11624W        W82224  29.034  31.133  10.750
11625W        W82225  26.693  22.492   0.707
11626W        W82226  11.411  30.912  12.141
11627W        W82227  27.881  28.627   0.681
11628W        W82228  39.691   2.333  12.022
11629W        W82229  18.022   9.265  12.007
11630W        W82230  43.446   3.413   4.540
11631W        W82231  21.211  19.082   3.143
11632W        W82232   9.391  37.822   1.921
11633W        W82233  35.566  20.746  13.066
11634W        W82234  40.304   4.021   4.629
11635W        W82235   5.940  34.654  12.622
11636W        W82236  14.834  23.790  13.498
11637W        W82237  41.632  16.866   1.842
11638W        W82238  11.909  41.441  11.982
11639W        W82239  16.167  20.446   2.768
11640W        W82240  30.452  18.556   5.134
11641W        W82241   0.598  29.369  10.583
11642W        W82242  36.730   9.789   4.709
11643W        W82243  42.520  42.001  10.538
11644W        W82244  41.521  40.535  12.935
11645W        W82245  25.985  23.625  10.890
11646W        W82246  39.866  33.581   4.608
11647W        W82247  11.264  23.148  11.853
11648W        W82248  26.192  17.537   3.695
11649W        W82249  24.080  40.095   2.948
11650W        W82250  19.969  23.346  10.096
11651W        W82251  42.098  14.588   1.045
11652W        W82252  15.549  18.800   3.250
11653W        W82253  23.147  38.303  12.581
11654W        W82254  35.246  43.226  10.729
11655W        W82255  22.214  28.917   0.461
11656W        W82256  23.228  30.025  12.844
11657W        W82257  43.935  24.955  10.437
11658W        W82258  23.630  26.463   0.866
11659W        W82259  34.809  35.107  10.752
11660W        W82260  33.615  31.060  11.507
11661W        W82261  28.456  20.795   4.259
11662W        W82262  28.631   5.722  12.505
11663W        W82263  22.008  24.789  12.910
11664W        W82264  22.551   8.854   2.260
11665W        W82265  33.099  18.118  10.631
11666W        W82266  33.159  17.770  12.400
11667W        W82267  32.161  10.761   3.383
11668W        W82268  21.958   7.229   3.719
11669W        W82269  16.813   9.367  12.055
11670W        W82270  25.307  38.672   0.865
11671W        W82271  17.220  32.644   3.550
11672W        W82272  33.365  34.401   1.809
11673W        W82273  30.569   4.765   4.521
11674W        W82274  20.606  35.376   0.663
11675W        W82275  34.326  16.398  11.555
11676W        W82276  35.406  17.074   4.540
11677W        W82277  13.022  37.202  11.594
11678W        W82278  28.085  32.981   5.129
11679W        W82279  14.834  38.559  10.682
11680W        W82280  44.113  38.284   4.172
11681W        W82281   1.018  14.118   0.778
11682W        W82282  19.978  28.008  14.014
11683W        W82283  43.066  35.525  12.433
11684W        W82284  33.364  16.348  11.666
11685W        W82285  28.009   2.312   4.715
11686W        W82286  31.967   9.829  14.465
11687W        W82287  34.975  15.879  12.839
11688W        W82288   5.657   9.804  10.501
11689W        W82289   3.453  29.655  12.949
11690W        W82290  38.640  42.815  12.910
11691W        W82291  20.517  39.882  14.191
11692W        W82292   7.137   7.172  12.493
11693W        W82293  41.665  12.151  12.169
11694W        W82294   2.164  44.321  14.378
11695W        W82295   3.499  29.910   3.297
11696W        W82296  39.305  17.643  11.628
11697W        W82297   8.204  15.511   0.381
11698W        W82298  33.071   1.879   0.395
11699W        W82299  39.484  44.917  11.615
11700W        W82300  10.715   7.161   0.368
11701W        W82301  38.646  21.605  12.472
11702W        W82302   6.219  34.671   2.656
11703W        W82303  31.203  10.755   3.222
11704W        W82304  26.454  37.338   1.338
11705W        W82305  30.847  15.897   2.944
11706W        W82306  26.245  37.758  11.907
11707W        W82307  33.574  12.402   1.207
11708W        W82308   6.253   8.313  13.751
11709W        W82309  38.675  33.482  13.435
11710W        W82310  21.198   7.816   2.052
11711W        W82311  16.964  35.803  12.520
11712W        W82312  27.037  16.687   4.667
11713W        W82313  38.378  11.660   2.566
11714W        W82314  43.966  28.176  11.419
11715W        W82315  13.928  16.442  14.843
11716W        W82316   4.281  33.892  11.576
11717W        W82317  34.377  20.086   2.715
11718W        W82318  35.374  26.047  12.943
11719W        W82319   9.561  44.957  14.412
11720W        W82320  34.484  10.139   1.434
11721W        W82321  15.970  44.636   0.422
11722W        W82322  41.103   5.442  13.866
11723W        W82323  14.262  19.302  13.996
11724W        W82324  33.039  27.142   1.424
11725W        W82325   1.084  18.070  12.197
11726W        W82326  21.322  11.390   1.786
11727W        W82327  22.921  38.603   3.561
11728W        W82328  35.379   3.377  13.239
11729W        W82329  27.536  40.975  10.265
11730W        W82330  19.825  36.587   0.449
11731W        W82331  22.468  39.399  14.849
11732W        W82332  34.452   1.968  14.918
11733W        W82333  36.898  26.846  13.653
11734W        W82334  25.015   3.633   4.215
11735W        W82335  21.026  26.769   9.645
11736W        W82336   0.961  14.859   0.365
11737W        W82337   9.729  26.643   5.197
11738W        W82338  13.360  11.683   2.669
11739W        W82339  26.749  30.651   0.012
11740W        W82340  23.512  40.764   2.620
11741W        W82341  25.249  22.232   2.247
11742W        W82342  41.304  41.384   0.265
11743W        W82343  22.012  13.979   4.755
11744W        W82344  40.529  23.028  12.033
11745W        W82345  13.438  20.731   4.673
11746W        W82346  39.235   4.619   4.800
11747W        W82347  29.732  42.936  14.319
11748W        W82348   9.314  31.037   1.366
11749W        W82349   7.069  39.950  11.601
11750W        W82350  35.949  27.799  12.454
11751W        W82351  28.959  11.213  11.440
11752W        W82352  28.212  31.991  13.863
11753W        W82353   4.416  38.686  12.631
11754W        W82354  32.851   6.702  14.386
11755W        W82355   3.059  14.184  14.495
11756W        W82356  14.496  21.091   4.541
11757W        W82357  34.155  43.501   2.344
11758W        W82358   6.914   1.263   3.745
11759W        W82359  10.789  18.615  11.607
11760W        W82360  24.140  17.178   3.089
11761W        W82361   8.788  28.459  13.562
11762W        W82362  21.455  19.634   4.239
11763W        W82363  10.301  12.210  10.568
11764W        W82364  20.236  30.299   0.396
11765W        W82365  44.946  41.542   4.713
11766W        W82366   4.018  29.210  12.693
11767W        W82367  36.322  28.184  11.869
11768W        W82368  43.239   6.323  13.773
11769W        W82369  40.877  42.668   1.262
11770W        W82370  37.560  19.356  13.726
11771W        W82371  20.136  14.333   3.388
11772W        W82372  29.985  27.043  13.387
11773W        W82373  21.136  39.989   0.356
11774W        W82374  25.742   4.204  12.897
11775W        W82375  41.495  32.056  13.906
11776W        W82376  43.310   3.939  12.556
11777W        W82377  19.177  37.958  14.309
11778W        W82378  33.191  18.435   3.709
11779W        W82379  14.675  16.246   2.118
11780W        W82380  36.103  33.208  13.079
11781W        W82381  33.676  44.978  12.895
11782W        W82382  44.320  31.379   0.034
11783W        W82383  25.949  33.412  11.204
11784W        W82384  14.747  28.148  11.417
11785W        W82385   6.411  23.095   3.094
11786W        W82386  31.228  17.276   4.287
11787W        W82387  17.270  10.762  14.683
11788W        W82388  39.515  15.136  11.442
11789W        W82389   4.368  31.482  12.660
11790W        W82390  22.775  37.165  12.101
11791W        W82391  15.409  41.374  13.455
11792W        W82392  20.762  32.156  13.446
11793W        W82393  36.950  27.141  14.099
11794W        W82394  42.808  44.579  13.673
11795W        W82395  14.806  40.293  14.029
11796W        W82396   4.781  19.578   4.821
11797W        W82397  36.394  35.611  12.609
11798W        W82398  10.104  15.181  14.167
11799W        W82399  36.422  36.567  14.959
11800W        W82400  24.525  40.239   3.587
11801W        W82401  23.625  32.179   2.364
11802W        W82402  36.435   8.957  11.147
11803W        W82403  44.995  13.946   1.255
11804W        W82404  29.146  11.825  12.970
11805W        W82405  14.353  38.768   0.344
11806W        W82406  18.036  24.740  13.065
11807W        W82407   4.697   0.234  13.994
11808W        W82408  44.829  14.205   0.341
11809W        W82409  16.699  43.416  11.714
11810W        W82410  17.886  32.729  12.301
11811W        W82411  19.500  32.095   3.823
11812W        W82412  14.158  23.159  10.693
11813W        W82413  21.967  20.432   3.022
11814W        W82414  24.826  39.429  12.027
11815W        W82415   4.271  30.700   2.805
11816W        W82416   2.440  20.766  11.071
11817W        W82417  38.882  24.690   2.820
11818W        W82418  43.986  14.645   2.315
11819W        W82419  19.711  25.136   1.833
11820W        W82420  20.572  28.187  12.380
11821W        W82421   4.969  21.503   1.759
11822W        W82422  36.407  16.360   2.299
11823W        W82423  28.903  40.570   0.063
11824W        W82424  14.851  39.325  12.937
11825W        W82425  26.426  38.345  12.955
11826W        W82426   4.949   5.638   3.224
11827W        W82427   9.837  42.388  12.064
11828W        W82428  32.444   0.423  11.423
11829W        W82429   8.353  23.526   1.299
11830W        W82430  40.612  23.989   2.447
11831W        W82431   1.806  37.555  10.697
11832W        W82432  33.045  15.085   0.436
11833W        W82433  32.318  35.926  11.381
11834W        W82434  21.780  30.507   0.344
11835W        W82435  10.633  26.240   0.768
11836W        W82436  13.440  28.097   0.900
11837W        W82437  31.101  31.476   1.778
11838W        W82438  14.174   2.029  13.927
11839W        W82439  27.031   7.611  12.031
11840W        W82440  33.170  14.976   4.975
11841W        W82441  39.602  24.522  12.914
11842W        W82442  36.185  33.592  10.665
11843W        W82443  32.701  12.608   3.239
11844W        W82444  28.156   8.888  12.356
11845W        W82445  17.692  36.298  12.616
11846W        W82446  14.199  33.124  14.714
11847W        W82447  39.301   6.229   3.934
11848W        W82448  11.916  34.799  11.142
11849W        W82449  36.948  27.130   1.789
11850W        W82450  31.980  37.171   0.956
11851W        W82451  16.289  23.707  13.457
11852W        W82452  43.371  22.046   4.559
11853W        W82453   1.916  15.772  12.113
11854W        W82454  34.476  27.537  13.466
11855W        W82455  15.170  16.370   3.226
11856W        W82456  22.551  27.527  12.090
11857W        W82457  28.707  29.554   0.226
11858W        W82458  28.151  21.163   4.055
11859W        W82459   5.423  13.147  11.247
11860W        W82460   6.446   8.103  14.927
11861W        W82461   1.881  26.649   1.872
11862W        W82462  35.911  29.472  12.821
11863W        W82463  42.452   6.028   3.521
11864W        W82464  35.251   5.194  11.144
11865W        W82465  36.819  17.001   5.047
11866W        W82466   5.690  25.108  14.009
11867W        W82467  44.731  12.375  11.522
11868W        W82468  27.030  34.592  14.485
11869W        W82469  29.281  36.474   0.349
11870W        W82470  12.214  15.707  10.758
11871W        W82471   0.778  13.190  12.600
11872W        W82472  32.939  16.706   3.214
11873W        W82473  21.237  23.232   1.425
11874W        W82474  20.813  11.995  11.274
11875W        W82475  12.575  41.956  13.185
11876W        W82476  41.576  21.005  10.696
11877W        W82477  32.166  18.223   0.023
11878W        W82478  24.873   3.290  10.688
11879W        W82479  34.928  34.133  12.501
11880W        W82480  40.995  18.629   4.652
11881W        W82481   9.659  25.069   0.739
11882W        W82482  38.747   1.974  11.084
11883W        W82483   0.538  21.966  14.272
11884W        W82484  36.032  38.068  12.389
11885W        W82485  42.425  36.641   4.924
11886W        W82486   4.510  14.588  13.883
11887W        W82487  21.536  42.241   1.628
11888W        W82488  23.629  42.884  14.520
11889W        W82489  37.561  33.971  10.831
11890W        W82490   7.405   4.133   3.080
11891W        W82491  14.580  26.145  13.952
11892W        W82492   4.761   6.659  11.575
11893W        W82493  27.389  40.192  14.027
11894W        W82494  36.000  29.101   4.860
11895W        W82495  37.032  20.236   4.587
11896W        W82496   7.023  20.587  12.874
11897W        W82497   0.704  39.137   2.755
11898W        W82498  33.020  39.557  14.879
11899W        W82499   2.317   9.626   2.584
11900W        W82500  26.548  20.764  11.105
11901W        W82501   5.006  16.365   2.607
11902W        W82502  15.795  39.130   2.650
11903W        W82503  36.366  40.662  10.331
11904W        W82504  41.935   0.769  11.190
11905W        W82505  27.638  13.245  12.180
11906W        W82506   6.655  16.543  12.986
11907W        W82507  29.661  31.847   0.855
11908W        W82508  23.228  40.856   4.166
11909W        W82509  19.279  15.766   4.705
11910W        W82510  18.790  16.643  13.047
11911W        W82511  40.332  38.427   0.766
11912W        W82512   8.360  33.949  10.669
11913W        W82513  32.097   5.929   3.020
11914W        W82514  16.830  38.551   1.758
11915W        W82515   7.515  21.278   1.918
11916W        W82516  32.898  36.434  10.990
11917W        W82517  13.586  12.900   2.324
11918W        W82518  16.621  20.103   3.162
11919W        W82519  21.004  33.140  12.481
11920W        W82520   5.660  12.788   4.184
11921W        W82521   2.979  10.666  14.732
11922W        W82522  38.569  25.164  13.436
11923W        W82523  26.513  19.221   3.929
11924W        W82524   7.213  41.540   0.970
11925W        W82525  22.028  33.978  14.264
11926W        W82526  17.185  35.931   4.535
11927W        W82527  19.705  19.221  13.623
11928W        W82528  11.925  24.702   3.199
11929W        W82529  35.395  36.828   0.639
11930W        W82530  25.333   1.918   0.460
11931W        W82531  44.697  22.716   9.966
11932W        W82532  35.908  19.139  12.645
11933W        W82533  26.753  31.642   1.894
11934W        W82534  21.989  36.783  13.092
11935W        W82535  29.955  33.841  12.145
11936W        W82536   4.425   1.567  14.433
11937W        W82537  25.948  42.957  12.805
11938W        W82538  14.192  44.322   5.346
11939W        W82539  16.543   5.686  11.957
11940W        W82540  31.971  27.391   2.666
11941W        W82541  13.356  36.154   4.061
11942W        W82542  11.792  31.556   3.757
11943W        W82543  39.925  29.176   4.270
11944W        W82544  21.851  23.609  13.952
11945W        W82545  20.843  20.786   0.225
11946W        W82546  33.132   6.789  11.191
11947W        W82547  14.138   0.407   3.724
11948W        W82548  28.484  12.693  10.665
11949W        W82549  11.065  11.609   0.903
11950W        W82550  35.883  27.522  13.430
11951W        W82551  44.560  34.017  14.754
11952W        W82552   1.504  35.260  14.576
11953W        W82553  33.090  14.400   3.948
11954W        W82554   0.862  39.081  13.419
11955W        W82555  18.690  44.851  10.750
11956W        W82556  36.329  19.631   4.646
11957W        W82557  32.486  16.197   4.782
11958W        W82558  43.797  40.997   1.925
11959W        W82559  19.543  43.782  11.464
11960W        W82560   1.700  42.424   0.911
11961W        W82561  29.904  14.284  12.970
11962W        W82562   5.478  34.342   0.226
11963W        W82563  35.540  18.957  13.771
11964W        W82564  27.185  14.043  12.668
11965W        W82565  27.374  31.541   4.678
11966W        W82566  18.492  43.419   4.871
11967W        W82567  35.461   7.853  13.553
11968W        W82568  44.435   0.250  13.075
11969W        W82569   6.848  29.202  10.982
11970W        W82570  35.146  38.866  11.905
11971W        W82571  18.827   0.349   1.019
11972W        W82572  22.673   0.978  11.121
11973W        W82573  20.299  21.577   2.321
11974W        W82574  36.583  36.577   4.632
11975W        W82575  20.274  40.892   2.619
11976W        W82576   4.790  43.506  12.309
11977W        W82577  38.266   6.117   2.381
11978W        W82578  20.102  34.993  11.382
11979W        W82579  14.092  42.842   4.432
11980W        W82580  33.940  25.605  11.133
11981W        W82581  38.618  14.763   0.756
11982W        W82582  26.091   9.553  13.763
11983W        W82583   3.009  12.851  12.913
11984W        W82584  38.065  43.723   0.712
11985W        W82585  44.445   6.592  10.790
11986W        W82586  13.225  27.103   1.187
11987W        W82587  10.770  32.790  11.033
11988W        W82588  32.604  12.146   1.289
11989W        W82589  16.661  25.246   4.109
11990W        W82590   9.799  14.092   5.055
11991W        W82591  28.094  17.572  14.245
11992W        W82592  42.085  15.465  10.820
11993W        W82593  39.591  23.222   0.921
11994W        W82594  20.959  23.481   3.157
11995W        W82595   1.513  35.520  11.626
11996W        W82596  24.883  10.366  14.270
11997W        W82597  36.499   5.787   2.148
11998W        W82598  36.848  15.725   4.204
11999W        W82599   3.305  41.456   1.448
12000W        W82600  14.456   9.206   2.881
12001W        W82601  28.039   4.428  11.030
12002W        W82602   0.997  18.219  12.867
12003W        W82603  43.404  41.142   3.278
12004W        W82604   2.890  33.277   1.683
12005W        W82605  26.976  44.089   3.201
12006W        W82606  11.404  29.044   2.679
12007W        W82607  20.622  30.551  12.669
12008W        W82608   5.559  27.416  11.446
12009W        W82609  22.629  12.628   2.778
12010W        W82610  19.982  24.535  13.855
12011W        W82611  21.667   9.821   3.206
12012W        W82612   9.970  24.613   0.388
12013W        W82613  21.808   0.202  14.282
12014W        W82614  28.079  29.814  12.122
12015W        W82615  37.240  29.370   0.268
12016W        W82616  18.647  22.909   3.233
12017W        W82617  16.584  11.679  13.021
12018W        W82618  22.218   6.162   4.418
12019W        W82619  34.323  34.920  10.739
12020W        W82620  40.066  29.971   2.725
12021W        W82621  21.002  11.677  13.064
12022W        W82622   9.274  20.329   1.795
12023W        W82623  16.624  22.246  13.742
12024W        W82624   6.868  25.169   2.304
12025W        W82625   8.696  44.066   2.764
12026W        W82626   4.036  31.472  11.720
12027W        W82627  28.190  28.739   4.496
12028W        W82628  41.590  44.858   2.226
12029W        W82629  31.618  37.460   2.405
12030W        W82630  23.641  36.951   2.529
12031W        W82631  11.113  29.252  14.843
12032W        W82632   1.310  16.375   3.160
12033W        W82633  25.045  39.929  12.071
12034W        W82634  13.709  12.073   4.378
12035W        W82635  34.393  43.476   3.229
12036W        W82636  43.216  28.577   4.093
12037W        W82637  37.338  16.414  13.437
12038W        W82638  30.967  30.741   3.120
12039W        W82639  37.044   4.469  13.587
12040W        W82640  24.682  28.411   0.985
12041W        W82641   7.971  25.030   3.798
12042W        W82642  25.301  32.181   1.847
12043W        W82643   6.697  35.911   0.724
12044W        W82644  33.336   8.348   2.647
12045W        W82645  37.864  38.546  11.172
12046W        W82646  15.232  20.148  10.680
12047W        W82647   0.733  29.231  13.055
12048W        W82648  24.104  21.676  11.903
12049W        W82649  26.284  21.675   1.817
12050W        W82650  32.664  41.519  13.938
12051W        W82651   4.483  18.150   2.827
12052W        W82652  12.283   4.430   3.104
12053W        W82653  29.419  31.147   2.895
12054W        W82654  19.664  23.477  10.698
12055W        W82655  43.783  26.760  14.948
12056W        W82656  30.395  36.343   1.843
12057W        W82657  20.254  30.795   0.427
12058W        W82658  16.690  36.941   2.785
12059W        W82659   1.161   6.026  13.987
12060W        W82660  36.343  23.451   3.559
12061W        W82661  22.143  12.122  14.061
12062W        W82662  14.375   3.194   1.697
12063W        W82663  21.244  23.140  11.581
12064W        W82664   7.118  34.481   0.932
12065W        W82665  22.735  35.058   1.629
12066W        W82666  38.582  25.532  12.492
12067W        W82667  43.938   4.800  13.913
12068W        W82668  36.370  14.127   4.424
12069W        W82669  14.383  32.005  14.949
12070W        W82670  15.408  23.799   0.305
12071W        W82671  40.874  40.101   3.098
12072W        W82672  36.385  33.333   3.346
12073W        W82673  34.471   7.176   5.003
12074W        W82674   5.282  12.749  10.926
12075W        W82675  10.893  26.956   4.575
12076W        W82676   8.832  32.477   1.678
12077W        W82677  44.982   3.949  13.529
12078W        W82678   3.796  23.486   2.652
12079W        W82679  37.326  27.519  13.151
12080W        W82680  12.710   6.095   0.323
12081W        W82681  44.531  36.466   1.313
12082W        W82682  43.767  29.092   1.878
12083W        W82683  23.654  35.978   3.098
12084W        W82684  37.309   6.756  10.756
12085W        W82685  20.562  21.654   1.852
12086W        W82686  40.853  40.932   2.420
12087W        W82687  13.127   9.372   3.113
12088W        W82688  10.283   1.996  10.350
12089W        W82689  37.167  38.191  13.863
12090W        W82690  30.381  36.407   0.007
12091W        W82691  14.594  25.891  10.883
12092W        W82692  31.471  35.840  12.419
12093W        W82693   5.144  44.385   0.574
12094W        W82694  37.474   9.246  14.668
12095W        W82695   8.421  37.708   3.508
12096W        W82696  44.444   6.992   0.820
12097W        W82697  35.053  18.620   3.607
12098W        W82698   4.383  33.553  13.387
12099W        W82699   6.075  37.017   3.626
12100W        W82700  30.580  44.799  12.645
12101W        W82701   4.297  36.039   0.649
12102W        W82702  23.652  20.239   0.279
12103W        W82703  16.755  18.283   2.076
12104W        W82704  44.181   6.079  11.645
12105W        W82705  19.116   5.922  11.558
12106W        W82706   8.494  25.489  14.884
12107W        W82707  18.916  38.324  12.563
12108W        W82708  14.777  38.879  13.170
12109W        W82709  38.735   3.174   4.210
12110W        W82710  22.015  22.770  13.906
12111W        W82711  42.792   1.987  14.368
12112W        W82712  40.245  39.367   5.134
12113W        W82713  41.387   9.782   4.923
12114W        W82714   9.871   0.553   2.750
12115W        W82715   0.166  40.339  14.909
12116W        W82716   3.922   4.332  14.550
12117W        W82717  43.504  34.839   0.239
12118W        W82718  31.895  41.217  13.491
12119W        W82719  24.936  30.509  10.766
12120W        W82720  40.344   3.195  13.417
12121W        W82721   4.177  24.098   4.903
12122W        W82722  43.507   0.897   1.716
12123W        W82723   9.934   1.469  11.452
12124W        W82724   2.723  17.013  11.019
12125W        W82725   1.366  40.893   1.272
12126W        W82726  19.503   9.421  11.113
12127W        W82727  12.627  41.992   2.887
12128W        W82728   4.252   8.415  13.695
12129W        W82729  26.508  29.233   4.024
12130W        W82730  25.433  16.154  11.501
12131W        W82731  21.999   9.722   4.172
12132W        W82732  10.702  42.671  14.873
12133W        W82733  30.397  19.165  11.989
12134W        W82734  24.690  24.110   4.915
12135W        W82735  12.771  26.752   0.779
12136W        W82736  35.281   7.406   0.893
12137W        W82737  11.330  39.940  10.923
12138W        W82738   1.858   1.378  11.808
12139W        W82739  19.258  37.556   3.765
12140W        W82740  42.070   0.060   2.245
12141W        W82741   9.652  29.613   3.818
12142W        W82742  38.272  35.088  14.777
12143W        W82743  29.378  42.350   1.433
12144W        W82744  32.669  39.362  10.687
12145W        W82745  41.256  44.880  12.516
12146W        W82746  42.980   0.463   1.886
12147W        W82747  30.920  26.009   2.954
12148W        W82748  11.141  29.619  12.014
12149W        W82749  18.669  18.766  14.533
12150W        W82750  43.498  13.396  14.906
12151W        W82751  20.341   0.109   0.068
12152W        W82752  37.843   2.201   4.276
12153W        W82753  28.533   8.697  11.025
12154W        W82754  21.968  27.074  13.352
12155W        W82755  29.000  18.449  12.584
12156W        W82756  10.064  41.316  13.045
12157W        W82757   5.446  38.490   3.663
12158W        W82758  29.125   7.609  14.821
12159W        W82759  16.065  39.409   4.040
12160W        W82760  33.671  17.571   1.831
12161W        W82761  40.583  33.555   4.044
12162W        W82762  11.971   3.412  14.299
12163W        W82763  35.682  15.653  12.063
12164W        W82764  21.769   0.297  13.383
12165W        W82765  40.386  28.353   2.837
12166W        W82766   7.555  41.936  10.539
12167W        W82767  15.150  19.646   3.072
12168W        W82768  35.991   1.539   2.457
12169W        W82769  19.110   3.224  13.302
12170W        W82770  14.666  42.094  14.500
12171W        W82771   7.685  14.555   0.860
12172W        W82772  16.099  36.939  12.522
12173W        W82773  26.244  14.303  11.517
12174W        W82774  13.330  27.572   2.832
12175W        W82775  36.761   3.424  10.680
12176W        W82776  20.079  37.959  11.966
12177W        W82777  22.638   1.046   1.530
12178W        W82778  17.161  41.380  10.417
12179W        W82779  40.563  30.135   1.856
12180W        W82780  39.913  26.007   1.702
12181W        W82781  17.108  14.495   0.470
12182W        W82782   1.335   1.786  12.923
12183W        W82783  44.448  40.103  14.639
12184W        W82784  17.251  23.196  11.591
12185W        W82785  43.162  16.128   4.826
12186W        W82786   1.364  38.565   0.801
12187W        W82787  37.001  31.515   1.488
12188W        W82788  42.571  34.430   1.717
12189W        W82789  10.089  29.738   5.112
12190W        W82790  21.494  42.934  10.728
12191W        W82791  13.454  19.672   5.113
12192W        W82792  44.533  41.550   5.032
12193W        W82793  19.064  31.876   5.470
12194W        W82794   8.239   4.934  10.351
12195W        W82795  19.681   8.174   1.409
12196W        W82796  36.033   9.741  11.218
12197W        W82797  27.078  18.604   3.693
12198W        W82798  13.832   8.736   0.303
12199W        W82799  36.367  25.094   1.166
12200W        W82800  44.777   5.526  11.988
12201W        W82801  37.414  30.894   1.854
12202W        W82802  25.602   7.396  12.149
12203W        W82803   1.364  43.303   4.681
12204W        W82804  35.899  40.357  14.424
12205W        W82805   3.122  44.269   5.054
12206W        W82806   6.045   4.948   1.400
12207W        W82807  15.671   7.600   3.343
12208W        W82808  13.280  12.842  10.502
12209W        W82809  24.402   8.306  13.797
12210W        W82810  26.097  29.952   4.274
12211W        W82811   7.935  36.636   2.287
12212W        W82812  31.802  16.162  14.600
12213W        W82813   4.934   4.333  14.453
12214W        W82814   4.209  25.941  14.945
12215W        W82815  33.093  28.488  14.458
12216W        W82816  31.363  23.873   4.998
12217W        W82817   8.927   3.583   9.833
12218W        W82818  36.865  37.590   2.193
12219W        W82819   4.882   7.999  13.454
12220W        W82820   7.175   4.421   2.640
12221W        W82821  23.215  28.122  10.891
12222W        W82822  18.886  40.955  10.703
12223W        W82823  42.544  39.458  13.115
12224W        W82824  31.193   7.129   3.276
12225W        W82825  40.300  10.093  14.463
12226W        W82826   4.319   7.772   0.016
12227W        W82827  42.439  40.836  13.925
12228W        W82828  22.177  13.797  12.351
12229W        W82829  16.535  38.332   3.686
12230W        W82830  43.890  26.091   3.605
12231W        W82831   4.262  10.480   2.415
12232W        W82832  16.808  14.660   0.857
12233W        W82833  42.024   2.712  13.332
12234W        W82834   7.754  19.026   4.652
12235W        W82835  14.267  13.293  11.818
12236W        W82836  42.223  35.967   4.323
12237W        W82837  32.510  28.128  10.366
12238W        W82838  31.884   7.174   5.029
12239W        W82839  14.620  32.422   4.558
12240W        W82840  12.680  11.565   4.129
12241W        W82841   1.745  42.022   4.614
12242W        W82842  12.813  32.064   1.262
12243W        W82843  17.043  29.451   2.389
12244W        W82844  10.412  28.674   3.086
12245W        W82845  43.235  23.156  12.354
12246W        W82846   0.795  29.866   4.234
12247W        W82847  31.561  38.677   3.263
12248W        W82848   6.247   5.261  14.480
12249W        W82849  11.470  22.411   0.499
12250W        W82850   6.862  14.614  10.657
12251W        W82851  41.894  41.825   2.221
12252W        W82852   3.935  15.575   3.661
12253W        W82853  13.763  39.955  10.090
12254W        W82854   8.119  21.054   2.745
12255W        W82855   2.145  40.485   4.272
12256W        W82856  15.698   1.694  12.852
12257W        W82857  25.235   5.544  10.779
12258W        W82858  14.113  11.824   4.207
12259W        W82859  17.754  40.470  13.464
12260W        W82860  36.050  12.841   2.239
12261W        W82861  43.349  33.672  13.998
12262W        W82862   3.089  27.174  13.339
12263W        W82863  18.032  11.664   2.606
12264W        W82864   2.546  17.768   0.295
12265W        W82865  17.220  40.075  11.993
12266W        W82866  10.253  40.790  11.259
12267W        W82867  25.031  43.593  13.396
12268W        W82868  44.755   6.711   0.465
12269W        W82869   0.943   4.822   2.596
12270W        W82870  19.276  37.963  12.469
12271W        W82871  12.638  39.033  14.904
12272W        W82872  24.127  19.490   4.009
12273W        W82873  33.421   0.049   1.808
12274W        W82874  21.442   8.947   1.612
12275W        W82875  21.471  31.472   3.106
12276W        W82876  39.884  23.581   4.687
12277W        W82877  37.957  33.605   4.715
12278W        W82878   2.371  12.594   1.699
12279W        W82879  20.131  43.476  13.361
12280W        W82880  22.357  42.532   4.105
12281W        W82881   3.385  35.029  10.409
12282W        W82882  31.140  26.673   3.187
12283W        W82883  23.468  44.548   0.904
12284W        W82884   8.289  20.061   4.492
12285W        W82885  36.360  28.514  13.473
12286W        W82886  37.989   8.799  10.986
12287W        W82887  37.281  42.378  14.322
12288W        W82888  30.885  38.998   9.792
12289W        W82889   8.746  20.673  14.682
12290W        W82890  20.932  36.595   2.261
12291W        W82891   2.879  35.985  12.520
12292W        W82892  42.784   3.864  12.594
12293W        W82893  36.343  35.959  12.098
12294W        W82894  28.195  30.159   4.216
12295W        W82895  34.890  36.051  12.826
12296W        W82896  40.600  44.674  11.171
12297W        W82897  43.540  23.524  12.511
12298W        W82898  44.813  34.426   2.274
12299W        W82899  38.402   5.857   0.678
12300W        W82900  31.368  10.207  11.084
12301W        W82901   6.324   1.401  14.080
12302W        W82902  17.790  27.372  13.386
12303W        W82903   1.979  16.202   0.860
12304W        W82904  17.154   4.421  10.450
12305W        W82905  38.397  44.332   4.760
12306W        W82906  40.544   8.176   3.967
12307W        W82907  33.458   2.565   2.649
12308W        W82908  22.928   3.009   1.514
12309W        W82909   8.396   9.172   2.662
12310W        W82910  14.748   1.709   4.132
12311W        W82911  12.167  24.519  13.940
12312W        W82912  23.256  23.244   3.615
12313W        W82913   0.888   2.658  13.723
12314W        W82914  18.741  34.899   1.843
12315W        W82915  24.012  44.982   1.236
12316W        W82916  15.746   6.593  13.919
12317W        W82917  15.515  23.363  11.623
12318W        W82918  36.576  18.094   4.489
12319W        W82919  36.873   9.761  14.307
12320W        W82920  42.005  44.230  13.442
12321W        W82921  35.328  33.658  11.083
12322W        W82922  16.786  38.472   4.587
12323W        W82923  13.906   9.523   1.830
12324W        W82924  14.266  28.121  11.133
12325W        W82925  20.027  35.188   4.198
12326W        W82926   2.639  44.808   2.743
12327W        W82927  10.694  18.496   5.123
12328W        W82928  20.903  43.800   2.366
12329W        W82929  38.063  17.270  14.912
12330W        W82930  31.581  23.789   1.231
12331W        W82931  15.069  16.544  13.865
12332W        W82932  34.902  35.567  13.048
12333W        W82933  41.954  15.715  10.397
12334W        W82934   4.016  19.911  10.769
12335W        W82935  23.751  25.880  13.659
12336W        W82936   8.301  43.763   0.767
12337W        W82937  26.718  11.105  11.429
12338W        W82938  20.471   7.082   5.516
12339W        W82939  21.271  43.250   0.177
12340W        W82940  15.500  33.426   0.319
12341W        W82941  12.178  35.566  11.531
12342W        W82942  28.159  13.157   0.035
12343W        W82943  15.745  22.056   0.175
12344W        W82944  40.475  38.344   2.412
12345W        W82945  33.197  11.130   1.017
12346W        W82946  40.918  14.154   3.227
12347W        W82947  39.862  18.043  13.101
12348W        W82948  16.757  12.165  14.244
12349W        W82949   4.878  38.394  14.841
12350W        W82950   3.458  37.880  13.088
12351W        W82951  11.212   0.549  10.364
12352W        W82952   9.072  27.122   1.389
12353W        W82953  23.972  11.706   4.506
12354W        W82954  32.713   8.571  10.992
12355W        W82955  29.847  34.616  13.851
12356W        W82956  39.259  43.263   3.684
12357W        W82957   5.324  39.394  12.561
12358W        W82958  11.823  21.465   4.237
12359W        W82959   5.192  40.989  12.223
12360W        W82960  37.052  21.727   2.362
12361W        W82961   7.466  15.251   4.434
12362W        W82962  24.959  20.854   1.652
12363W        W82963  37.891   0.504  14.768
12364W        W82964  37.909  43.800   1.975
12365W        W82965  32.668  18.066  13.487
12366W        W82966   5.232  15.732   3.346
12367W        W82967  31.427  37.882   0.968
12368W        W82968  31.315  26.553  14.455
12369W        W82969  28.999   4.084  12.886
12370W        W82970  25.499   9.511   4.546
12371W        W82971   2.241  41.938  11.656
12372W        W82972  14.037  20.505   1.703
12373W        W82973  26.703  24.200   3.621
12374W        W82974  32.315  35.536   4.259
12375W        W82975  29.339   9.821  14.922
12376W        W82976  14.850  27.451   0.304
12377W        W82977  28.543   8.062  11.871
12378W        W82978   6.844  29.120  13.823
12379W        W82979  14.963  23.715  10.967
12380W        W82980   8.006  38.087   2.281
12381W        W82981  32.172   9.461  14.928
12382W        W82982  16.736  11.868  10.676
12383W        W82983  42.727  21.710   3.208
12384W        W82984  15.076   2.071  12.578
12385W        W82985  44.775   5.247   1.734
12386W        W82986  40.459  15.162   4.130
12387W        W82987  19.067  24.442   0.326
12388W        W82988  19.149   1.209  13.068
12389W        W82989  12.723  27.815  14.575
12390W        W82990  44.338  44.804   4.616
12391W        W82991  26.194  22.645   0.709
12392W        W82992  25.732  27.394   4.696
12393W        W82993   8.051  25.382  11.057
12394W        W82994  41.734  24.748   3.184
12395W        W82995  14.795  40.693   0.782
12396W        W82996   6.390  12.305   2.291
12397W        W82997  17.594  13.678  13.548
12398W        W82998  31.570  34.001   4.449
12399W        W82999  10.805  41.114   1.938
12400W        W83000  40.300  44.013  12.669
12401W        W83001  14.097  10.716   4.708
12402W        W83002  14.251  43.835   3.735
12403W        W83003  35.826  14.366  12.218
12404W        W83004  41.006  32.777  11.226
12405W        W83005  31.929  11.045  11.558
12406W        W83006   3.879  30.657  12.575
12407W        W83007  30.299  28.721  14.467
12408W        W83008  13.890   9.016   1.992
12409W        W83009  21.131  27.691  11.641
12410W        W83010  41.452  43.177   9.974
12411W        W83011  33.720  32.844   2.014
12412W        W83012  29.175  39.512   0.250
12413W        W83013  30.514   4.840   3.011
12414W        W83014   4.318  11.052   3.145
12415W        W83015  23.396  37.276  13.818
12416W        W83016  33.116  43.351   2.923
12417W        W83017  23.081   5.315   3.445
12418W        W83018  40.840  19.758   3.067
12419W        W83019   3.339  18.965  12.614
12420W        W83020   2.278  32.077   3.381
12421W        W83021  42.940  14.338   2.826
12422W        W83022  14.544  38.957  12.144
12423W        W83023   7.904   6.070  12.944
12424W        W83024   9.943  30.947   0.350
12425W        W83025  40.558  15.118  14.890
12426W        W83026  23.798  16.193  13.302
12427W        W83027  36.856  31.063  10.756
12428W        W83028   2.739  22.410  12.530
12429W        W83029  10.786  27.283   1.358
12430W        W83030  39.789  17.374  10.313
12431W        W83031  26.184  44.757  13.147
12432W        W83032  16.614   6.233   1.443
12433W        W83033  42.004  17.187  12.957
12434W        W83034  32.168  13.312  12.836
12435W        W83035  20.793  19.322  11.920
12436W        W83036  19.289  18.119  14.795
12437W        W83037   8.939  33.011   2.401
12438W        W83038  19.051  42.180   1.370
12439W        W83039   7.123  28.134   2.231
12440W        W83040  33.235   0.184  12.489
12441W        W83041  13.393   8.665   4.887
12442W        W83042  19.026  42.987   3.291
12443W        W83043  28.004  41.062   3.673
12444W        W83044   9.658  32.151  13.620
12445W        W83045  40.193  34.144  10.482
12446W        W83046  23.019  44.737  12.616
12447W        W83047  10.157  21.043   3.758
12448W        W83048  19.334  37.472  14.432
12449W        W83049  19.306   2.461   3.194
12450W        W83050  26.602  16.309  12.573
12451W        W83051  23.135   7.351   1.392
12452W        W83052   7.725   2.119  14.344
12453W        W83053  37.009  27.533  12.740
12454W        W83054  18.607  31.948   0.818
12455W        W83055  11.796   2.757   3.116
12456W        W83056   7.281  11.292  14.187
12457W        W83057  14.310  41.253   9.703
12458W        W83058  19.210   6.681  13.953
12459W        W83059  14.642  34.999   3.167
12460W        W83060  35.914   9.881   3.347
12461W        W83061  19.529  43.257   3.695
12462W        W83062   3.002  22.044   0.200
12463W        W83063  21.391  16.147   3.770
12464W        W83064  24.088  30.115  14.024
12465W        W83065  43.482  24.946   4.557
12466W        W83066  38.323  37.406   3.259
12467W        W83067  12.291  32.345  11.082
12468W        W83068   5.839  33.417  13.790
12469W        W83069  21.984   4.756   1.430
12470W        W83070  35.891   1.463  13.331
12471W        W83071  21.993  20.089  11.871
12472W        W83072   9.492  42.255   4.120
12473W        W83073  12.508  38.599  10.785
12474W        W83074   1.840  18.878   3.690
12475W        W83075  14.109   0.607  14.987
12476W        W83076   0.721  13.336   1.325
12477W        W83077  40.007  18.701   3.638
12478W        W83078   0.024  27.384  11.618
12479W        W83079  37.280   2.238   0.898
12480W        W83080  15.578  43.775  12.935
12481W        W83081   3.288   8.835  14.978
12482W        W83082  11.551  25.461   3.687
12483W        W83083  39.138  35.861  13.870
12484W        W83084  43.330  17.561  12.828
12485W        W83085   6.171  14.663  12.908
12486W        W83086   2.014  42.684  13.868
12487W        W83087  19.085  13.631  13.604
12488W        W83088  29.909  40.701  13.633
12489W        W83089  41.914  35.636  12.074
12490W        W83090  12.618  28.285  12.433
12491W        W83091  37.434  36.258  14.738
12492W        W83092  41.438   2.111   4.656
12493W        W83093   0.473  44.433  11.434
12494W        W83094   8.459  19.570   4.677
12495W        W83095  22.736  39.880  14.945
12496W        W83096   5.730  14.781  14.217
12497W        W83097  14.244   6.369   3.499
12498W        W83098  27.304  30.863   0.564
12499W        W83099  37.630  19.996   1.260
12500W        W83100  37.069   0.061   3.838
12501W        W83101   8.673  20.025  13.551
12502W        W83102  28.417   1.279  14.049
12503W        W83103  39.487  44.903   3.160
12504W        W83104  39.336   2.892  13.662
12505W        W83105  17.166  40.274   4.508
12506W        W83106  41.887  43.959   2.201
12507W        W83107  16.878  33.926   3.311
12508W        W83108  15.313  18.169  11.975
12509W        W83109   2.748  13.116   1.222
12510W        W83110  32.009  26.347  14.837
12511W        W83111  18.528  35.338  13.542
12512W        W83112   4.471  26.001   4.090
12513W        W83113  34.850  30.476   1.741
12514W        W83114  35.303  34.919  13.416
12515W        W83115  28.594  16.127  13.470
12516W        W83116   3.340  22.871  14.969
12517W        W83117   9.374   2.896   0.298
12518W        W83118  33.582  35.672  10.750
12519W        W83119  37.047  43.251   4.682
12520W        W83120   6.452  13.933   2.190
12521W        W83121  16.524  38.939   0.792
12522W        W83122  39.748  37.478  13.441
12523W        W83123   8.196   0.514  12.946
12524W        W83124  13.368   6.606  10.734
12525W        W83125  12.929  29.725  12.420
12526W        W83126  13.108  16.517  12.416
12527W        W83127  21.362  24.276  12.964
12528W        W83128  43.452  11.968   2.395
12529W        W83129   7.422  38.317  10.906
12530W        W83130  29.536  31.096   0.274
12531W        W83131  32.128   5.069  10.399
12532W        W83132   6.807  12.814   1.927
12533W        W83133  16.854   7.228  12.986
12534W        W83134  43.575   5.910  13.711
12535W        W83135  43.522   3.670   0.032
12536W        W83136  26.228  22.584  12.553
12537W        W83137  38.286   5.205  10.680
12538W        W83138  18.991  31.004   2.695
12539W        W83139  43.089   1.271  13.532
12540W        W83140  42.391  43.796   2.138
12541W        W83141   3.766   7.167   3.314
12542W        W83142   2.886   3.079   2.836
12543W        W83143  22.507  13.685  10.644
12544W        W83144   6.834  31.056   3.631
12545W        W83145  30.028  10.398  12.430
12546W        W83146  18.285   9.156   1.773
12547W        W83147  22.042  23.208   2.145
12548W        W83148  42.887  30.660  10.292
12549W        W83149  32.088  30.383   2.527
12550W        W83150  44.393   3.306  10.374
12551W        W83151  32.398  17.633  13.498
12552W        W83152  33.769  11.812   1.890
12553W        W83153  28.418   4.271  13.518
12554W        W83154  38.159  35.052   3.207
12555W        W83155  33.007  23.756   2.628
12556W        W83156   9.184  31.967  13.963
12557W        W83157  40.259  17.746  12.942
12558W        W83158   4.655  12.748   0.363
12559W        W83159  17.791   5.003   3.365
12560W        W83160  12.718  13.684  10.600
12561W        W83161  16.993  28.555  14.719
12562W        W83162  10.281  38.912   4.556
12563W        W83163   9.440  17.223   2.202
12564W        W83164  22.169  35.913   1.706
12565W        W83165  23.592  41.776  10.615
12566W        W83166  10.118  12.328   4.063
12567W        W83167  15.632  30.931  13.445
12568W        W83168  18.873  35.440   1.260
12569W        W83169   0.977   1.839   3.198
12570W        W83170   1.946  24.161   1.147
12571W        W83171  11.366  10.229  12.992
12572W        W83172  12.631  41.273  12.816
12573W        W83173   6.834  32.662   2.384
12574W        W83174   7.168  33.424  10.915
12575W        W83175   8.813   6.312   2.538
12576W        W83176  27.433  11.841  12.931
12577W        W83177  24.795  31.923   4.605
12578W        W83178  17.315   1.946  14.572
12579W        W83179  14.191  25.008  13.353
12580W        W83180  33.580  33.615   1.482
12581W        W83181   1.296   3.194   0.826
12582W        W83182   4.841  40.594  11.282
12583W        W83183   4.247  25.938   4.561
12584W        W83184   5.820  19.702  12.335
12585W        W83185  20.665  44.404   3.523
12586W        W83186  29.302  44.457  14.493
12587W        W83187  32.941  16.021  13.975
12588W        W83188  13.707  22.597   3.247
12589W        W83189  22.570  17.066   1.375
12590W        W83190  27.172  20.474   0.340
12591W        W83191  41.860   6.670   2.308
12592W        W83192  33.566  33.459  11.163
12593W        W83193  28.950   5.494   4.769
12594W        W83194  28.546  17.071   3.934
12595W        W83195   1.424  29.970  10.677
12596W        W83196  27.686   4.194  10.680
12597W        W83197  13.913  29.114   2.616
12598W        W83198   1.741  43.952   3.752
12599W        W83199  14.631  10.255  14.523
12600W        W83200  26.354  36.432   1.774
12601W        W83201  39.060  19.367   1.511
12602W        W83202   8.690   3.895  12.674
12603W        W83203  42.000  16.009  11.518
12604W        W83204   6.573   5.851   0.032
12605W        W83205  40.085   3.389  13.014
12606W        W83206  26.594  29.522   3.610
12607W        W83207  44.590  10.030  11.229
12608W        W83208  38.647  43.133   2.837
12609W        W83209  36.813  27.557  13.219
12610W        W83210  34.894   2.304   4.688
12611W        W83211  36.099  28.916   4.378
12612W        W83212  11.871  25.208  12.150
12613W        W83213  41.291  23.709  13.383
12614W        W83214  41.142   8.456  12.874
12615W        W83215  16.564  38.351   0.401
12616W        W83216  18.340  12.552   5.049
12617W        W83217  36.795  26.870   1.361
12618W        W83218  17.646  19.850   3.639
12619W        W83219  22.136  24.199   3.127
12620W        W83220  42.890   0.198  14.420
12621W        W83221  32.926  18.737  13.019
12622W        W83222  24.892  21.172   0.796
12623W        W83223  21.892   3.707  13.481
12624W        W83224  28.178  18.652   2.519
12625W        W83225  16.711   5.802   1.146
12626W        W83226  21.266  15.619  10.273
12627W        W83227  12.224  24.784   4.748
12628W        W83228  16.153  43.764  13.583
12629W        W83229  36.508   0.327   2.318
12630W        W83230  22.337  34.492   2.725
12631W        W83231  23.284  17.758  11.668
12632W        W83232  11.764  37.768   4.431
12633W        W83233  27.013  25.627  12.666
12634W        W83234  27.703  14.054  12.581
12635W        W83235  30.078  19.290   3.306
12636W        W83236  27.167   0.668   0.993
12637W        W83237  30.098   9.708  13.963
12638W        W83238  37.555  14.328   0.297
12639W        W83239   5.543  32.047  13.395
12640W        W83240  20.591  39.396  10.792
12641W        W83241  33.762   7.314   0.924
12642W        W83242  37.395   5.211   1.017
12643W        W83243  35.087   5.316  10.406
12644W        W83244  15.810  17.645   2.583
12645W        W83245  34.529   4.427   4.327
12646W        W83246  11.857  38.716   3.293
12647W        W83247  31.322  13.270  11.175
12648W        W83248   4.958   4.642  13.816
12649W        W83249  29.177  30.699  12.554
12650W        W83250  21.615  16.725   2.251
12651W        W83251  21.029  40.921  14.884
12652W        W83252  32.434  34.556   3.261
12653W        W83253  27.410   3.425  12.860
12654W        W83254  39.585  26.515  12.459
12655W        W83255  39.507  33.608  10.673
12656W        W83256  22.066  40.556   2.516
12657W        W83257  30.112  19.639   1.746
12658W        W83258   5.232  20.104  13.349
12659W        W83259  16.660  18.282  13.521
12660W        W83260  31.000   1.467  13.077
12661W        W83261  39.274  34.025  14.237
12662W        W83262  38.693  36.937   1.905
12663W        W83263  22.459  15.557   1.388
12664W        W83264  44.801  13.622  12.933
12665W        W83265  40.060  43.565   3.439
12666W        W83266  31.872  13.129  13.764
12667W        W83267  12.729  30.532  11.174
12668W        W83268   9.577  19.218   3.791
12669W        W83269   5.491   2.370  14.523
12670W        W83270  23.713   0.338  12.790
12671W        W83271  40.505  28.385   1.202
12672W        W83272  16.217  14.088   3.665
12673W        W83273   6.110   4.323   0.841
12674W        W83274   1.787  25.907   2.388
12675W        W83275  31.509  28.745   1.924
12676W        W83276   8.579  40.719  10.813
12677W        W83277  13.422  15.682  14.555
12678W        W83278  20.921  35.440  13.355
12679W        W83279  32.170  39.782   2.852
12680W        W83280  33.070  17.335   0.516
12681W        W83281  21.815  21.676   1.440
12682W        W83282  22.531   1.710  11.692
12683W        W83283  21.847   1.919  13.925
12684W        W83284  15.616  20.273   0.766
12685W        W83285  26.726   3.590  11.436
12686W        W83286  18.257   0.826  14.292
12687W        W83287  19.526  37.489   3.344
12688W        W83288  37.607  44.159  11.281
12689W        W83289  32.936  31.462  11.902
12690W        W83290   0.625  40.041  13.502
12691W        W83291  34.645   9.425   2.816
12692W        W83292  25.982  15.610   2.405
12693W        W83293  27.172  17.802  12.938
12694W        W83294  18.626  13.433  13.514
12695W        W83295   9.319   1.317   1.149
12696W        W83296  30.664   9.855  10.395
12697W        W83297  23.750  25.174   1.415
12698W        W83298  29.871  15.224  12.003
12699W        W83299  26.075  35.345   2.830
12700W        W83300  23.573  11.639  14.336
12701W        W83301  23.088  38.768  14.388
12702W        W83302  12.141  10.318   4.806
12703W        W83303  21.766  26.508   0.863
12704W        W83304  35.466  38.176   2.643
12705W        W83305  42.520  43.574  11.145
12706W        W83306  42.830  43.245  13.545
12707W        W83307  39.012  33.435  10.682
12708W        W83308  22.330   9.112  14.981
12709W        W83309  33.499  10.887   4.174
12710W        W83310  30.864  35.693  12.015
12711W        W83311  25.222  18.587   3.193
12712W        W83312  29.663  38.584   4.569
12713W        W83313  27.984  11.311   1.024
12714W        W83314   3.087  26.635   5.182
12715W        W83315  23.645  11.127  11.946
12716W        W83316  38.347  41.847   0.547
12717W        W83317  12.648  18.322  12.499
12718W        W83318  44.550  19.546  11.881
12719W        W83319  38.927  37.198   4.073
12720W        W83320  30.144  21.138   2.868
12721W        W83321  24.152   3.704  13.861
12722W        W83322  28.148  11.257  14.951
12723W        W83323   5.702  26.408  12.293
12724W        W83324  28.999  22.169   3.082
12725W        W83325  22.028   1.636  14.356
12726W        W83326   6.258   5.116   4.497
12727W        W83327  10.813  23.096   1.906
12728W        W83328  38.154   9.796  14.503
12729W        W83329  26.039  32.488   1.344
12730W        W83330  16.545  19.356  14.140
12731W        W83331   2.637  26.574   4.159
12732W        W83332  39.189  38.213  11.572
12733W        W83333   3.400  15.658  14.067
12734W        W83334  37.826  21.997   1.017
12735W        W83335  12.772  22.544  14.881
12736W        W83336  43.791  41.421   1.277
12737W        W83337   9.830  17.141   1.276
12738W        W83338  39.524   2.786   0.659
12739W        W83339  10.651  43.279   0.469
12740W        W83340  24.964  26.802  14.891
12741W        W83341  25.510   1.265  11.156
12742W        W83342  39.220  20.189  11.047
12743W        W83343   1.780  42.055   3.691
12744W        W83344  36.355  22.642  14.319
12745W        W83345   6.527  10.670  12.351
12746W        W83346  15.489  31.413  13.668
12747W        W83347   2.814  10.726  12.357
12748W        W83348  24.423  33.955   2.205
12749W        W83349  32.438  16.149   3.777
12750W        W83350   2.896   8.385   0.510
12751W        W83351  14.171  26.040   2.301
12752W        W83352  30.407  38.403  10.202
12753W        W83353  43.361   7.408  12.652
12754W        W83354  11.369  17.985   2.857
12755W        W83355  40.090  28.531  13.927
12756W        W83356   0.001  15.927  12.199
12757W        W83357  37.984  34.303   2.710
12758W        W83358  32.614   1.908   1.784
12759W        W83359  24.383  17.287  11.514
12760W        W83360   2.113  27.855  12.657
12761W        W83361  40.318   5.746   1.758
12762W        W83362  18.227   5.799  13.263
12763W        W83363   3.851  16.245  11.853
12764W        W83364  28.164  32.436   3.737
12765W        W83365   6.864  25.217   2.838
12766W        W83366  39.213  12.250  11.217
12767W        W83367  37.594  42.041   1.382
12768W        W83368  11.830  24.049  14.537
12769W        W83369  35.990  43.309  11.135
12770W        W83370  29.844  28.942   0.866
12771W        W83371  10.943  23.383   1.487
12772W        W83372  27.638  21.143   4.429
12773W        W83373  32.036   5.277   3.820
12774W        W83374   5.608  36.882   3.749
12775W        W83375  28.561  19.083  10.673
12776W        W83376  34.506  16.509  13.910
12777W        W83377  20.564  37.681   4.120
12778W        W83378  35.907   9.902  14.468
12779W        W83379  38.672  35.021   3.254
12780W        W83380   7.254  13.294   0.932
12781W        W83381  30.489  32.159   4.846
12782W        W83382  39.299  20.337  10.193
12783W        W83383  35.921  17.609  13.447
12784W        W83384   3.605   9.260   4.255
12785W        W83385   7.728  24.666   2.682
12786W        W83386  26.588  28.931   3.608
12787W        W83387  36.174  37.676  12.048
12788W        W83388  25.387  23.718  14.554
12789W        W83389   8.748  33.319   0.333
12790W        W83390  25.542  43.427  13.308
12791W        W83391  13.701  36.793   0.040
12792W        W83392   2.412  22.011  12.565
12793W        W83393  26.589  35.911   4.116
12794W        W83394   7.505  20.073  12.898
12795W        W83395  18.750   4.890   2.608
12796W        W83396   8.323  20.304  13.245
12797W        W83397  26.578  42.673   0.195
12798W        W83398  22.973  25.011  12.454
12799W        W83399  43.087   8.695   4.990
12800W        W83400  23.737   2.284   2.716
12801W        W83401  11.103   2.999  14.346
12802W        W83402  40.822  44.915  14.989
12803W        W83403   5.908  35.079   3.695
12804W        W83404   1.392  27.668   4.492
12805W        W83405  15.655  23.535  14.494
12806W        W83406  12.246  32.963   1.364
12807W        W83407  18.174  17.401  10.738
12808W        W83408  31.500  23.604   1.708
12809W        W83409   6.980  17.595   3.738
12810W        W83410  17.833   9.306   2.028
12811W        W83411   4.361   7.424  14.200
12812W        W83412  21.730  21.081  12.958
12813W        W83413  30.386   7.773   1.121
12814W        W83414  34.129  39.116  14.286
12815W        W83415  24.538  30.109   4.411
12816W        W83416  12.326  31.943  10.707
12817W        W83417  11.831  20.425   1.755
12818W        W83418  15.310  19.114  10.490
12819W        W83419  32.928  32.480  12.158
12820W        W83420  17.196  38.747  12.139
12821W        W83421  10.904  41.863   0.828
12822W        W83422  37.118  33.006  13.076
12823W        W83423  27.605  14.735  14.463
12824W        W83424  11.109  20.594  14.361
12825W        W83425  15.648  17.916   1.603
12826W        W83426   9.753  39.893  12.779
12827W        W83427  39.077  26.571  13.535
12828W        W83428  36.491  30.170  10.826
12829W        W83429  28.568  31.172  11.885
12830W        W83430   7.559  33.523   4.893
12831W        W83431  18.579  39.752  14.271
12832W        W83432  35.039   7.955   4.740
12833W        W83433  16.122   4.977   1.712
12834W        W83434   2.061  20.146   0.947
12835W        W83435   6.269  25.298  11.999
12836W        W83436  14.065  44.869  11.354
12837W        W83437  44.154  37.534  10.235
12838W        W83438  15.779  19.150   1.317
12839W        W83439  16.665  22.568   2.890
12840W        W83440  33.585  33.973   4.450
12841W        W83441  42.309  11.710   4.083
12842W        W83442   8.510  34.477   2.205
12843W        W83443  40.305  14.414   4.655
12844W        W83444  35.840  39.461   2.673
12845W        W83445  16.751  25.405  11.219
12846W        W83446  23.001  25.258   2.739
12847W        W83447  17.419  42.293   3.872
12848W        W83448  14.759  31.994   2.190
12849W        W83449   3.232  20.686   4.214
12850W        W83450  37.614   3.390  10.565
12851W        W83451  22.291  39.475  14.258
12852W        W83452  17.814   5.597  14.076
12853W        W83453  20.132  15.098  11.073
12854W        W83454  10.454  27.872  10.629
12855W        W83455  39.616  12.819   0.825
12856W        W83456   7.044  37.899  12.061
12857W        W83457  20.987   1.553   4.123
12858W        W83458  40.748  22.088  12.095
12859W        W83459   5.037  34.882  11.140
12860W        W83460  35.910   7.088  13.541
12861W        W83461  14.734  17.838  10.624
12862W        W83462  27.756   0.926   2.801
12863W        W83463  21.508  25.890  12.478
12864W        W83464   6.284   6.258   5.373
12865W        W83465  21.721  19.113   0.915
12866W        W83466  35.133  39.487   0.771
12867W        W83467  30.901  14.851  11.236
12868W        W83468  29.090   7.650   3.735
12869W        W83469  26.844  13.825   3.075
12870W        W83470  33.520  19.559   4.152
12871W        W83471  44.345  24.960  14.741
12872W        W83472  13.178   1.886   0.775
12873W        W83473   4.255  36.314  12.515
12874W        W83474  35.949  15.312   3.745
12875W        W83475   4.897  29.661   2.280
12876W        W83476  16.679  29.505   1.679
12877W        W83477  29.190   9.274   3.856
12878W        W83478  18.951  14.751   2.344
12879W        W83479  24.112  36.157  10.741
12880W        W83480  39.582  23.140  13.757
12881W        W83481  40.532  12.861  12.586
12882W        W83482  26.735  40.907   0.984
12883W        W83483  16.555  10.499  13.702
12884W        W83484   3.380   2.891   4.679
12885W        W83485  23.736  27.229  14.765
12886W        W83486  33.136  12.860  11.526
12887W        W83487  17.397  31.602   0.391
12888W        W83488  12.257  12.477   0.675
12889W        W83489  32.604  17.727  13.946
12890W        W83490  27.381  30.491  14.096
12891W        W83491  14.445  10.707  14.732
12892W        W83492   3.245  34.489   0.284
12893W        W83493  25.221  11.070   3.977
12894W        W83494  39.425  11.588   4.590
12895W        W83495  38.714  18.779  13.875
12896W        W83496  22.558  37.430  11.730
12897W        W83497  28.538  36.970   3.739
12898W        W83498  11.611   4.015   3.714
12899W        W83499  22.666   2.376   3.638
12900W        W83500  26.493  38.547   2.135
12901W        W83501   6.092   2.544  13.379
12902W        W83502  17.706   8.814  13.049
12903W        W83503  15.745  35.634   3.456
12904W        W83504  35.865  12.316  13.539
12905W        W83505  28.417  15.085  12.802
12906W        W83506   9.401  42.873  14.205
12907W        W83507  24.876   5.239   4.602
12908W        W83508  30.888  40.926   1.694
12909W        W83509   6.799  17.313   0.408
12910W        W83510  41.380  38.933   3.221
12911W        W83511  21.163  25.458   2.769
12912W        W83512  42.330  14.798  13.998
12913W        W83513  34.332  44.811   0.764
12914W        W83514  41.428  18.706   0.783
12915W        W83515  35.379  44.448  11.286
12916W        W83516  43.483   9.370  10.921
12917W        W83517  33.511  13.316  13.515
12918W        W83518  40.897   2.479  14.374
12919W        W83519  17.819  20.713  11.155
12920W        W83520  26.654  29.173   1.661
12921W        W83521  14.876  43.848  13.977
12922W        W83522  40.504  39.383  12.932
12923W        W83523  38.919  22.594   4.503
12924W        W83524  41.354   5.522  11.317
12925W        W83525  25.002  11.052   2.638
12926W        W83526   6.319  22.749   4.162
12927W        W83527  38.933  17.497   2.763
12928W        W83528  31.064   4.174  11.544
12929W        W83529  13.310   5.507   2.833
12930W        W83530  12.298  27.979  12.051
12931W        W83531   6.364  23.985   3.080
12932W        W83532  22.070  28.718  11.093
12933W        W83533   4.979  11.904   4.206
12934W        W83534   7.407  16.165   0.882
12935W        W83535  24.711  10.854   1.997
12936W        W83536  24.586  36.223  12.509
12937W        W83537   1.957  11.279   1.921
12938W        W83538  29.006  30.907  11.212
12939W        W83539  14.823  40.837  14.080
12940W        W83540  36.833  17.218   1.649
12941W        W83541  32.811   5.388  12.556
12942W        W83542  38.723  20.142  11.171
12943W        W83543   0.378  26.508   0.801
12944W        W83544  41.293  37.515   3.204
12945W        W83545  39.321   6.774   3.281
12946W        W83546  19.686  10.662   0.771
12947W        W83547  22.028   3.218  13.391
12948W        W83548  42.136  15.245   1.688
12949W        W83549   7.881  34.388   0.386
12950W        W83550  38.288   0.001   2.551
12951W        W83551  39.193   0.955   4.038
12952W        W83552  36.314  15.569   1.840
12953W        W83553  41.038  21.269  11.172
12954W        W83554  22.109  38.848  11.978
12955W        W83555   9.659  22.436  12.523
12956W        W83556  36.140  30.052  12.426
12957W        W83557  42.655  13.506  14.408
12958W        W83558  38.810  44.046  11.225
12959W        W83559   0.940  20.501  10.695
12960W        W83560  11.426  13.034  11.392
12961W        W83561  29.568  25.749  11.079
12962W        W83562  26.903  20.627  11.451
12963W        W83563  32.540  16.398  13.979
12964W        W83564   4.635  28.189   3.192
12965W        W83565  34.876  13.777  11.501
12966W        W83566  43.545   4.675  14.741
12967W        W83567  33.096   3.701   2.201
12968W        W83568  20.282   3.611  10.626
12969W        W83569  13.709  42.673   1.757
12970W        W83570  10.314  16.966   3.101
12971W        W83571  24.971  42.974  13.439
12972W        W83572  42.101  30.431   4.151
12973W        W83573  27.224   0.110  13.765
12974W        W83574   2.419  41.855  13.607
12975W        W83575  29.948   8.742  14.006
12976W        W83576   1.993  34.222   9.762
12977W        W83577  41.564  24.004   4.347
12978W        W83578   0.309  20.269  14.322
12979W        W83579  40.275  29.908   2.222
12980W        W83580  18.624   1.532  12.444
12981W        W83581  28.374   8.304  10.432
12982W        W83582  15.752  44.146  10.715
12983W        W83583  24.554  10.179   2.360
12984W        W83584   8.853  19.745  10.330
12985W        W83585   3.975  10.139  13.029
12986W        W83586  41.353   5.187   3.126
12987W        W83587  17.290  21.954  10.948
12988W        W83588   7.739  37.292  11.747
12989W        W83589  20.989  35.932  10.228
12990W        W83590  28.147  42.563  12.781
12991W        W83591  23.151  31.168   0.423
12992W        W83592  21.561  22.528  12.160
12993W        W83593  15.372  20.720   2.234
12994W        W83594  13.753  21.701   4.409
12995W        W83595  27.619   2.949  12.768
12996W        W83596   7.785  32.567   2.599
12997W        W83597  22.028  26.035   4.488
12998W        W83598  34.209  27.012  13.252
12999W        W83599  28.451   2.684  13.353
13000W        W83600   0.906  12.870   1.987
13001W        W83601  18.698  35.938  13.949
13002W        W83602  42.497   7.417   3.492
13003W        W83603   8.191  31.633  12.028
13004W        W83604   3.485  42.411  11.447
13005W        W83605  16.985  38.483   3.459
13006W        W83606  35.850   2.100  10.740
13007W        W83607  33.145  12.762   4.254
13008W        W83608  41.386  25.203  14.291
13009W        W83609  33.640  43.900   3.236
13010W        W83610   3.531  27.212  10.635
13011W        W83611  25.241  22.262   4.424
13012W        W83612  11.339   8.844   1.951
13013W        W83613  28.032  31.854  12.010
13014W        W83614  44.514  15.150  13.406
13015W        W83615  12.748   2.000  11.898
13016W        W83616   1.745  21.841  11.997
13017W        W83617  39.591   2.889   0.162
13018W        W83618  43.758  20.154  12.443
13019W        W83619  30.926   8.621  13.967
13020W        W83620  16.285  22.699  11.214
13021W        W83621  29.927   2.461   3.626
13022W        W83622   3.851  33.308   3.151
13023W        W83623   8.414  32.425  11.594
13024W        W83624  10.224  20.277  13.533
13025W        W83625  26.052  31.309   3.047
13026W        W83626  14.515  14.689   0.391
13027W        W83627  20.127  42.796   1.385
13028W        W83628   6.620  40.452   2.137
13029W        W83629  37.387  29.599   3.634
13030W        W83630  30.500  44.786   4.187
13031W        W83631  18.988  22.374   2.534
13032W        W83632  36.568   2.359  14.069
13033W        W83633  42.426  25.612   2.853
13034W        W83634  23.572  13.174   2.108
13035W        W83635  32.624  18.270   3.726
13036W        W83636  40.828  29.022   2.984
13037W        W83637  16.261  23.583   3.171
13038W        W83638  27.216  19.615  14.442
13039W        W83639  23.246  40.384   2.277
13040W        W83640   7.624   9.608   0.390
13041W        W83641  33.764  11.686  14.439
13042W        W83642  12.760  28.281  11.942
13043W        W83643  44.478   6.810  10.325
13044W        W83644   1.162  12.816  11.577
13045W        W83645  17.712  24.712   0.241
13046W        W83646  19.544  44.873   0.877
13047W        W83647  21.746  26.066   0.638
13048W        W83648  14.747  19.279   3.175
13049W        W83649  29.041  18.604   4.864
13050W        W83650   1.453  43.448  10.840
13051W        W83651  30.246  14.589  14.994
13052W        W83652  16.292  13.600   3.519
13053W        W83653  22.341  27.954   1.831
13054W        W83654   3.415  25.687   1.593
13055W        W83655  23.180  22.787   3.422
13056W        W83656  29.041  11.274   2.696
13057W        W83657  32.166  42.496  11.135
13058W        W83658  18.989  34.191   3.191
13059W        W83659   9.408   5.318  13.840
13060W        W83660  18.278  32.946   2.367
13061W        W83661   1.538  29.520  10.904
13062W        W83662  44.736  38.980   4.115
13063W        W83663   1.021  23.991  14.933
13064W        W83664   4.000  37.460  11.552
13065W        W83665  15.310  36.019   4.133
13066W        W83666  30.766  29.087  12.988
13067W        W83667  43.394  37.977  10.794
13068W        W83668  36.518   0.791   0.032
13069W        W83669   1.853  27.102   0.304
13070W        W83670   5.625   5.896   2.668
13071W        W83671  35.572  24.468  11.983
13072W        W83672  10.388   7.546  13.407
13073W        W83673  23.872  40.433  11.921
13074W        W83674  34.050  35.002  14.938
13075W        W83675  41.806   7.920  13.405
13076W        W83676  10.734  32.064   3.046
13077W        W83677  13.058   2.817  10.931
13078W        W83678  32.990  20.798  13.957
13079W        W83679  24.569  30.146   2.875
13080W        W83680  19.761  22.109   3.742
13081W        W83681   8.427  33.406   4.172
13082W        W83682  32.496  32.081  10.763
13083W        W83683  26.475  23.710   1.257
13084W        W83684  39.522  12.617   0.346
13085W        W83685  25.269   7.901  13.982
13086W        W83686  30.472   0.842   2.739
13087W        W83687   3.998  19.025  11.151
13088W        W83688  18.592  28.040  10.257
13089W        W83689  18.589  33.174   1.225
13090W        W83690  33.128  16.639   0.211
13091W        W83691  38.593   4.340   4.159
13092W        W83692  14.529   6.937  11.872
13093W        W83693   2.338  10.013   0.772
13094W        W83694  12.538  41.400   0.436
13095W        W83695  24.476  36.951   1.947
13096W        W83696  19.116   2.021   0.872
13097W        W83697   3.327  35.382   0.719
13098W        W83698   3.255  25.045   2.245
13099W        W83699  37.312   3.372  11.550
13100W        W83700  44.903  43.885  10.713
13101W        W83701  26.049  39.907  13.021
13102W        W83702  18.673   7.638   2.802
13103W        W83703   9.254  33.692  12.929
13104W        W83704   5.721   7.009   3.550
13105W        W83705  31.807  21.221   4.963
13106W        W83706   4.950  40.584   2.825
13107W        W83707  41.634  37.649   4.979
13108W        W83708   9.306  18.360  11.837
13109W        W83709  27.995  44.400  11.927
13110W        W83710  22.636  16.535   1.256
13111W        W83711  18.234  13.184   4.048
13112W        W83712  36.997  41.284  12.925
13113W        W83713   2.336  31.988  11.927
13114W        W83714  20.856  14.747   1.302
13115W        W83715  25.216  29.438   3.575
13116W        W83716  42.171  12.084   0.350
13117W        W83717   2.431  14.875  10.741
13118W        W83718  44.560  35.108   2.671
13119W        W83719  42.037  17.596   0.976
13120W        W83720   1.020  31.590  11.550
13121W        W83721   3.927   0.761   0.431
13122W        W83722  26.913  26.625   2.359
13123W        W83723   6.343  22.321   0.729
13124W        W83724  13.776  35.866   4.219
13125W        W83725  40.273  13.615   2.801
13126W        W83726  26.923   6.758   4.148
13127W        W83727  28.056  38.948  13.790
13128W        W83728  31.945  20.050   0.968
13129W        W83729  43.318  15.864  11.110
13130W        W83730  19.628  44.082  14.072
13131W        W83731  44.020  42.000   2.301
13132W        W83732  39.062   6.799   0.014
13133W        W83733  28.574  23.403  10.777
13134W        W83734  20.589  14.815   3.717
13135W        W83735   9.248  16.310  12.011
13136W        W83736  39.346   3.054   4.563
13137W        W83737  41.387  11.867   3.723
13138W        W83738  29.190  13.259   2.416
13139W        W83739   1.436  17.512   1.112
13140W        W83740  16.367   6.802   4.222
13141W        W83741  17.863  11.097   1.810
13142W        W83742   6.382   7.998  13.360
13143W        W83743  20.904  16.274  10.755
13144W        W83744  36.547  41.290  11.154
13145W        W83745  44.272  24.773   0.230
13146W        W83746  18.555  38.028   1.924
13147W        W83747  16.258  37.477   0.991
13148W        W83748  43.453  35.061  13.817
13149W        W83749  19.178  35.247   0.821
13150W        W83750   5.731  37.073  11.478
13151W        W83751  32.598  34.914   2.711
13152W        W83752  44.699  27.175   2.199
13153W        W83753   9.245  28.736  12.098
13154W        W83754  30.101  37.497   3.296
13155W        W83755   3.352   4.554   1.760
13156W        W83756  13.383  40.357   1.778
13157W        W83757  34.892  15.040   3.579
13158W        W83758  16.909  39.759   3.836
13159W        W83759  38.396  18.071  13.436
13160W        W83760  36.056   2.649   4.596
13161W        W83761  24.162  20.684  13.538
13162W        W83762  28.879  22.465   0.306
13163W        W83763  22.153  14.637  12.094
13164W        W83764  28.609  21.612   1.362
13165W        W83765   1.307   3.958   0.337
13166W        W83766   2.538   4.326   2.719
13167W        W83767  21.730  12.875  13.983
13168W        W83768  44.169  39.832   1.647
13169W        W83769   2.497  38.020   2.389
13170W        W83770  20.581  31.999  14.904
13171W        W83771   1.319  15.563   1.898
13172W        W83772  15.528  32.405   2.736
13173W        W83773  36.320   7.614  14.875
13174W        W83774  44.513  28.456  12.530
13175W        W83775  12.884  28.769  11.920
13176W        W83776  39.782  37.406   3.606
13177W        W83777  41.407  11.265  13.262
13178W        W83778  24.100  35.652   3.075
13179W        W83779  25.727  40.918  14.969
13180W        W83780   6.136  20.393   3.158
13181W        W83781   4.181  21.601  13.601
13182W        W83782  34.846  28.362  10.871
13183W        W83783  18.004   8.398  12.918
13184W        W83784  39.047   5.996  12.352
13185W        W83785  19.906  44.009   2.653
13186W        W83786  14.155   7.644  13.489
13187W        W83787  42.774  38.256  11.991
13188W        W83788   0.397   4.473  10.581
13189W        W83789  25.954  19.281  12.569
13190W        W83790  16.798  40.459  11.174
13191W        W83791   6.480  12.206  10.439
13192W        W83792  19.098   6.936  11.409
13193W        W83793  30.860  11.239   2.289
13194W        W83794   0.260  33.366  11.289
13195W        W83795   6.281   2.422   3.250
13196W        W83796   3.872   9.084  14.884
13197W        W83797  18.755  14.075  14.301
13198W        W83798  12.725   0.261   0.256
13199W        W83799  37.256  28.553   0.287
13200W        W83800  39.461  12.689  11.156
13201W        W83801  27.545  32.170   3.275
13202W        W83802  13.716  16.107  11.264
13203W        W83803  31.989  27.244  10.950
13204W        W83804  24.284  23.995  13.881
13205W        W83805  35.982   7.663   0.333
13206W        W83806  14.564  38.074  10.714
13207W        W83807  21.945  40.476  14.887
13208W        W83808  33.401   7.548   3.356
13209W        W83809   6.018   7.469  12.675
13210W        W83810  30.983   8.218   2.371
13211W        W83811  13.861   4.213  12.415
13212W        W83812  28.183   4.818  13.576
13213W        W83813  30.398   7.869  13.023
13214W        W83814  31.644  13.787   4.615
13215W        W83815   8.870   1.510  13.318
13216W        W83816   6.412  33.421   1.382
13217W        W83817  35.000  35.556   2.311
13218W        W83818  20.604  10.132  13.504
13219W        W83819  39.799  38.891  11.233
13220W        W83820  23.154   7.078   2.291
13221W        W83821   7.366  32.217   4.150
13222W        W83822  40.345   8.253   0.662
13223W        W83823   9.351  35.068   1.122
13224W        W83824  11.342   1.509   4.359
13225W        W83825  44.878  19.625  13.606
13226W        W83826  18.091  14.563  13.814
13227W        W83827  36.998  30.838   3.638
13228W        W83828   6.601   7.769   0.750
13229W        W83829  42.194  35.152   1.615
13230W        W83830   8.150  35.131   4.392
13231W        W83831  19.609   1.995  13.228
13232W        W83832  13.363  40.006  13.219
13233W        W83833  25.487  29.608  10.800
13234W        W83834  44.998  12.660   2.286
13235W        W83835  20.049  38.448  11.800
13236W        W83836  20.857   9.195  14.569
13237W        W83837   6.784  37.978  14.392
13238W        W83838  33.630  42.492  12.633
13239W        W83839  27.927  28.896  11.398
13240W        W83840  25.466  19.444  11.368
13241W        W83841  10.875  17.114   2.384
13242W        W83842   9.162  22.730   1.818
13243W        W83843  12.596  38.136   0.291
13244W        W83844  19.636  41.674  10.659
13245W        W83845  14.389  22.559   3.765
13246W        W83846  13.840  34.352  14.479
13247W        W83847  41.949  32.916  13.684
13248W        W83848  44.801  26.951   0.382
13249W        W83849  29.503  25.583   0.451
13250W        W83850  15.621  35.767  10.515
13251W        W83851  21.696  26.461  14.460
13252W        W83852  41.928  38.358   0.173
13253W        W83853   0.388  24.595   1.293
13254W        W83854   1.944  19.765   4.183
13255W        W83855  15.848  17.656   3.592
13256W        W83856  22.181  38.796  11.461
13257W        W83857  18.766  20.076  13.587
13258W        W83858  36.531  22.737   1.199
13259W        W83859  30.197  30.083  12.061
13260W        W83860  18.341  17.168   3.599
13261W        W83861  17.811  12.456  10.591
13262W        W83862  13.248  31.839   0.259
13263W        W83863  20.296  29.726  12.895
13264W        W83864  15.359   0.185  13.251
13265W        W83865  41.358  25.283  12.893
13266W        W83866  14.770  10.134  12.057
13267W        W83867  16.005   6.518  13.483
13268W        W83868   6.961  15.105  11.962
13269W        W83869  38.095  39.074  13.576
13270W        W83870  36.902  18.267  10.725
13271W        W83871  37.386  14.239   1.729
13272W        W83872  14.002   6.648   3.912
13273W        W83873  14.878   8.567   2.168
13274W        W83874  18.923  35.854  11.491
13275W        W83875  42.915  38.381  10.613
13276W        W83876  33.106  26.902  12.423
13277W        W83877  32.545   6.699   3.041
13278W        W83878  26.631  12.328  11.583
13279W        W83879  43.717  23.989  12.446
13280W        W83880  41.541  32.594   0.483
13281W        W83881   4.869   8.693   2.184
13282W        W83882  14.301  41.932   3.455
13283W        W83883  39.342   1.941  10.487
13284W        W83884  39.854   8.720  12.484
13285W        W83885   8.511  34.399   0.510
13286W        W83886  28.010  16.818   3.749
13287W        W83887  16.243  17.819   3.241
13288W        W83888  14.815  29.601  10.778
13289W        W83889  13.604  41.897   2.245
13290W        W83890  23.748  35.633   3.844
13291W        W83891  25.240  36.373  13.455
13292W        W83892   6.634  30.574   0.061
13293W        W83893  13.358  30.118  12.977
13294W        W83894  21.109   6.032  10.661
13295W        W83895   1.188  10.066  10.284
13296W        W83896  24.235   3.453   3.231
13297W        W83897  34.934  42.523  13.373
13298W        W83898  26.711  22.782   3.223
13299W        W83899  30.153  21.535  14.391
13300W        W83900  15.095  25.951  14.834
13301W        W83901  21.820  17.996  12.855
13302W        W83902   3.900  22.964   4.293
13303W        W83903  15.725  32.423  14.014
13304W        W83904  22.708   9.167  13.040
13305W        W83905   4.196   9.230  14.461
13306W        W83906  30.441  13.338   4.279
13307W        W83907  22.020  25.267   4.501
13308W        W83908  26.517  20.813  12.060
13309W        W83909  22.002  10.403   9.720
13310W        W83910  41.797  27.521   1.838
13311W        W83911  32.064  36.368  12.682
13312W        W83912  30.042  19.667  14.982
13313W        W83913  33.907  13.904  12.982
13314W        W83914  11.156  34.259  10.994
13315W        W83915   2.783  29.176   0.477
13316W        W83916  34.203  19.241   3.202
13317W        W83917  26.317  11.918  11.657
13318W        W83918  19.165  22.739  10.555
13319W        W83919  43.598  13.654   3.068
13320W        W83920  18.067  20.713   1.234
13321W        W83921  40.394  30.910   1.832
13322W        W83922   6.399  26.127   0.471
13323W        W83923  44.026  22.499  13.467
13324W        W83924  24.527  29.156  12.366
13325W        W83925  39.639  22.720  14.310
13326W        W83926  22.958  21.646  12.608
13327W        W83927  24.562  30.077   3.902
13328W        W83928   5.692  34.379  10.756
13329W        W83929  40.373  42.721   2.259
13330W        W83930   4.838  28.768   1.272
13331W        W83931  30.664  14.791   0.911
13332W        W83932  11.556  19.159   0.968
13333W        W83933  15.144  19.123  13.544
13334W        W83934  18.626  23.055   2.494
13335W        W83935   2.412  30.675   4.074
13336W        W83936  41.749  26.973  14.337
13337W        W83937  31.516   8.255  14.761
13338W        W83938  28.970  16.667  12.438
13339W        W83939   8.927  13.267  14.918
13340W        W83940  38.060  18.745  10.050
13341W        W83941  36.410  29.063   0.029
13342W        W83942  10.015   7.775   4.106
13343W        W83943   8.300  40.445  12.070
13344W        W83944   7.552   7.237  14.347
13345W        W83945  24.993  10.615  11.564
13346W        W83946  37.984   2.404  10.631
13347W        W83947  28.748  31.234  13.314
13348W        W83948  43.345  31.155  11.194
13349W        W83949   2.514  44.752  11.639
13350W        W83950  16.559   4.905   0.196
13351W        W83951  30.936  27.272   2.362
13352W        W83952  44.155  31.174   1.782
13353W        W83953  29.166  37.797   3.099
13354W        W83954  15.902  26.918  13.481
13355W        W83955  39.475   6.294   4.425
13356W        W83956  12.219  19.696   0.029
13357W        W83957  33.938  31.278  14.765
13358W        W83958  27.291  41.107  12.058
13359W        W83959  17.225  15.874   3.276
13360W        W83960   5.461  19.314  11.612
13361W        W83961  10.127  10.802   1.883
13362W        W83962   1.204   9.213  14.287
13363W        W83963  21.496  33.966  11.511
13364W        W83964  27.330   4.365  12.817
13365W        W83965  39.520  43.403   2.247
13366W        W83966  18.650  16.760  11.082
13367W        W83967   3.832   0.922   4.127
13368W        W83968  13.056   5.547   0.185
13369W        W83969  35.973  36.123   2.323
13370W        W83970   7.727  12.117   3.391
13371W        W83971  39.851  29.943   3.217
13372W        W83972  19.965   1.842  14.846
13373W        W83973  29.148   9.397  12.025
13374W        W83974  17.522  22.747   3.238
13375W        W83975  34.071  21.914  12.987
13376W        W83976  26.138  22.445  13.050
13377W        W83977   3.765  11.646   3.734
13378W        W83978   5.416  10.417  11.626
13379W        W83979   6.144  33.037  14.960
13380W        W83980  31.978  12.266   0.643
13381W        W83981  33.917  17.472  14.628
13382W        W83982   8.834  33.532  13.808
13383W        W83983  42.274  20.355   3.137
13384W        W83984  33.067  25.268  13.928
13385W        W83985   1.751  37.259  13.033
13386W        W83986  36.013   6.433  11.210
13387W        W83987  27.320  30.485   1.997
13388W        W83988  37.400  36.369  11.157
13389W        W83989  18.182  32.417  11.845
13390W        W83990   0.730   1.695   4.700
13391W        W83991   5.889   0.861  14.767
13392W        W83992  38.407  28.905   3.430
13393W        W83993  18.976  37.898   2.360
13394W        W83994  44.925  37.514  12.751
13395W        W83995  19.357  22.700  11.027
13396W        W83996  43.650  34.580   4.262
13397W        W83997  34.671  16.550  10.699
13398W        W83998  29.695  27.344   3.215
13399W        W83999  41.343   7.817  14.411
13400W        W84000  42.637  39.907  10.760
13401W        W84001  17.686  21.946   3.623
13402W        W84002  19.602   3.291  11.595
13403W        W84003   2.810  12.192  13.887
13404W        W84004  31.877  34.442  14.747
13405W        W84005  39.144   4.335  11.713
13406W        W84006  25.734  18.528   3.285
13407W        W84007  33.491   7.870   2.474
13408W        W84008  15.758   6.390  11.775
13409W        W84009   1.957  14.595  13.945
13410W        W84010  38.384  14.080  13.749
13411W        W84011  18.633  43.777  14.401
13412W        W84012  15.640   0.879  12.561
13413W        W84013   3.033  43.801  14.227
13414W        W84014  32.612  27.200   3.764
13415W        W84015  44.823  37.500  14.545
13416W        W84016   5.331   4.623  13.448
13417W        W84017  33.976  17.657  10.907
13418W        W84018   0.133  33.915   0.568
13419W        W84019  43.013  33.499   2.403
13420W        W84020   5.978  18.002   0.852
13421W        W84021  26.844  42.344   1.195
13422W        W84022  17.590  28.645  12.856
13423W        W84023  33.562  12.751   5.478
13424W        W84024   9.282   5.965   0.504
13425W        W84025  36.646  19.438  10.286
13426W        W84026  15.330  22.224  10.685
13427W        W84027  38.439  39.097   1.707
13428W        W84028  33.883  35.508   2.897
13429W        W84029  15.311  35.100  12.480
13430W        W84030  41.931  22.282  10.720
13431W        W84031   6.367  10.575   3.629
13432W        W84032  31.636  12.453  12.923
13433W        W84033   8.464  38.118   0.242
13434W        W84034  18.246  36.077   4.130
13435W        W84035  37.253  28.017   1.354
13436W        W84036   7.278  36.323   2.276
13437W        W84037  19.677  10.937  11.969
13438W        W84038  19.048   1.688  14.489
13439W        W84039  11.856   3.709  14.713
13440W        W84040  20.997  27.102   0.403
13441W        W84041  16.226   5.874   1.387
13442W        W84042  25.255  17.176   4.020
13443W        W84043  42.397  35.674   0.318
13444W        W84044   7.777  30.909   3.642
13445W        W84045  22.649   2.351   4.560
13446W        W84046  11.589  22.756  10.290
13447W        W84047  18.683  22.229  13.596
13448W        W84048  32.541  33.397   3.745
13449W        W84049  18.913  13.047  12.190
13450W        W84050  20.404   6.648   4.209
13451W        W84051  35.640  25.468   1.678
13452W        W84052  32.178   4.368  11.574
13453W        W84053  30.525  43.803  11.606
13454W        W84054  16.142  17.784   0.297
13455W        W84055  10.798  33.544  11.581
13456W        W84056   9.283  36.535   2.155
13457W        W84057  10.417  22.914   3.840
13458W        W84058   1.180  17.838  14.852
13459W        W84059  26.631  27.144  12.578
13460W        W84060  25.689  35.175  11.932
13461W        W84061  41.467  31.506   4.919
13462W        W84062  26.569  43.749   3.196
13463W        W84063  23.112  37.361   1.479
13464W        W84064  27.414  30.963  12.859
13465W        W84065  30.808  36.160   4.913
13466W        W84066   3.910   1.353   2.146
13467W        W84067   4.194  31.406   0.812
13468W        W84068  21.159  26.502   0.439
13469W        W84069  44.177  31.080   4.846
13470W        W84070   3.741  40.817  13.903
13471W        W84071  25.537  19.554  11.862
13472W        W84072   8.773  28.954  12.146
13473W        W84073  36.351  14.414  11.526
13474W        W84074  32.271  22.894   3.644
13475W        W84075  20.961   3.288   2.341
13476W        W84076  37.983  25.033  12.893
13477W        W84077   2.902  41.059  11.668
13478W        W84078  27.144  32.110   1.060
13479W        W84079  40.150   0.906  11.212
13480W        W84080   4.728  33.211   2.463
13481W        W84081   2.323   1.527  14.014
13482W        W84082  26.584  17.042  12.949
13483W        W84083  44.006   2.762   1.814
13484W        W84084  28.122  41.003   1.670
13485W        W84085  29.286  40.275  14.095
13486W        W84086   1.010  24.748   2.910
13487W        W84087  15.585  33.594   1.696
13488W        W84088   5.872  42.304   2.741
13489W        W84089   2.668  14.333   1.306
13490W        W84090  34.614  33.436  14.024
13491W        W84091  36.418   4.452  14.041
13492W        W84092   5.044  39.061  11.928
13493W        W84093   3.946  18.613  11.537
13494W        W84094  26.219  17.505  11.280
13495W        W84095  39.284  16.162  13.023
13496W        W84096   0.471  33.664   0.273
13497W        W84097   7.305  21.996   4.610
13498W        W84098   1.770   4.011   1.241
13499W        W84099  15.265  41.453  12.963
13500W        W84100  36.476  12.179   4.387
13501W        W84101  13.878  19.984  10.999
13502W        W84102  17.765  21.097  10.742
13503W        W84103  18.779  29.152   4.500
13504W        W84104  16.160   2.008  12.052
13505W        W84105  17.368  19.199  11.948
13506W        W84106   1.882  14.801   2.226
13507W        W84107  19.561  15.167   0.441
13508W        W84108  33.456  35.778   2.231
13509W        W84109  22.787   1.475  10.215
13510W        W84110  42.836  11.207   2.240
13511W        W84111  17.830   5.639  12.289
13512W        W84112  26.094  41.498   0.820
13513W        W84113  25.670  21.042   1.454
13514W        W84114   1.374  42.523   0.518
13515W        W84115   6.034  22.622  11.528
13516W        W84116  24.529  33.165  13.390
13517W        W84117   9.229  41.419  14.023
13518W        W84118  24.095  22.280   4.658
13519W        W84119  20.191  29.861   0.096
13520W        W84120  10.951  12.973   2.633
13521W        W84121  25.779  24.535   1.785
13522W        W84122   6.853  42.174   1.302
13523W        W84123  27.168  39.063  11.097
13524W        W84124  38.990  24.668   4.499
13525W        W84125  18.520  16.128   0.745
13526W        W84126  20.529  24.116   4.857
13527W        W84127   8.325  25.636   2.200
13528W        W84128  38.022   2.586  13.028
13529W        W84129  39.365  43.260  14.977
13530W        W84130  15.742  20.341   2.165
13531W        W84131   5.942  10.049  12.957
13532W        W84132  42.021   6.449   2.786
13533W        W84133  35.156   9.454   2.153
13534W        W84134   9.734  29.025  11.983
13535W        W84135  37.048  10.159   1.856
13536W        W84136  24.488  41.930  14.457
13537W        W84137   5.455   5.718   3.273
13538W        W84138  14.038   6.939  12.072
13539W        W84139   2.211  30.145   3.206
13540W        W84140  29.041  20.051  14.864
13541W        W84141  22.307  11.310   4.558
13542W        W84142  36.487  15.555   1.367
13543W        W84143  44.026  12.803   3.305
13544W        W84144   7.197  37.928   3.105
13545W        W84145  40.982  33.325   4.354
13546W        W84146   4.687  14.328   2.230
13547W        W84147  20.556  25.134   4.187
13548W        W84148  23.086   2.353  13.350
13549W        W84149   8.142   3.952   1.361
13550W        W84150   2.797  13.794  14.247
13551W        W84151  22.612   2.324   0.097
13552W        W84152  37.746  40.574  13.521
13553W        W84153  32.658  44.921  12.988
13554W        W84154  34.486  30.656  11.863
13555W        W84155  27.996  40.224   4.161
13556W        W84156  35.552  26.120  12.447
13557W        W84157  15.637   8.310  11.433
13558W        W84158  22.551  26.290   2.162
13559W        W84159  31.563  32.806   4.518
13560W        W84160  23.653  39.685  11.868
13561W        W84161  17.719   2.742  12.098
13562W        W84162  14.921   4.483   4.268
13563W        W84163   2.755  20.801   2.856
13564W        W84164  10.490  19.696  14.455
13565W        W84165  23.500  26.506  10.458
13566W        W84166   6.227  16.980  10.672
13567W        W84167  44.520  12.786   5.029
13568W        W84168  18.055  32.579   2.737
13569W        W84169   2.761  29.991  12.991
13570W        W84170  44.299  33.503   0.749
13571W        W84171  40.733   0.777   1.057
13572W        W84172   5.894  22.131   4.743
13573W        W84173   2.918  38.816   4.054
13574W        W84174   8.274  38.359  10.957
13575W        W84175  16.066   7.396   1.677
13576W        W84176  40.876  40.679   4.244
13577W        W84177  42.253  32.797   4.236
13578W        W84178   6.118  14.986  12.486
13579W        W84179  39.049  17.032   0.406
13580W        W84180  40.964  23.962  13.896
13581W        W84181  20.936  22.543  10.312
13582W        W84182  25.640   1.003   1.227
13583W        W84183   5.465   6.392  11.677
13584W        W84184  32.187  32.328  11.166
13585W        W84185   1.101  41.427   3.633
13586W        W84186  17.600  30.111   1.480
13587W        W84187  26.804   9.582  12.364
13588W        W84188  20.184  15.767   4.575
13589W        W84189  26.115  16.741   4.403
13590W        W84190   3.208  21.128  14.367
13591W        W84191  15.877  14.079  11.540
13592W        W84192  42.817  40.579  11.774
13593W        W84193  21.886  39.445   4.068
13594W        W84194  14.691  13.804  12.482
13595W        W84195  33.928  27.974   1.863
13596W        W84196   9.237  29.730   3.518
13597W        W84197  22.114  37.934   2.070
13598W        W84198  39.336  29.839   0.796
13599W        W84199  10.948  19.158  10.736
13600W        W84200  14.271  29.234   3.865
13601W        W84201  34.459  25.396   0.381
13602W        W84202  17.621   3.782  12.139
13603W        W84203  42.965   7.269   4.428
13604W        W84204  27.681  43.484  10.618
13605W        W84205   0.384  41.321   0.238
13606W        W84206  24.699  28.265  13.626
13607W        W84207   3.186  39.831  11.946
13608W        W84208  37.628  25.619   5.123
13609W        W84209  31.689   7.162  10.737
13610W        W84210  37.606   7.792   1.809
13611W        W84211  44.298   5.723  11.989
13612W        W84212   7.717  30.135   3.169
13613W        W84213  30.893  28.168   0.397
13614W        W84214  12.836  36.815   4.673
13615W        W84215  11.577  27.394   2.894
13616W        W84216  19.629  29.443   4.413
13617W        W84217   2.255  12.847  13.478
13618W        W84218  10.400  12.770   0.167
13619W        W84219  11.804  17.341   4.637
13620W        W84220  41.545   3.776   3.224
13621W        W84221  16.241  20.759   1.859
13622W        W84222  15.203   6.163   3.338
13623W        W84223  40.774  13.879  14.421
13624W        W84224  42.010  29.119   0.413
13625W        W84225  15.331   8.034   1.281
13626W        W84226  24.164  41.533  14.335
13627W        W84227  22.241  27.923   3.383
13628W        W84228  37.361  18.036  12.948
13629W        W84229  39.676   8.138   3.733
13630W        W84230   8.971  23.556  12.986
13631W        W84231  12.238  33.137  13.286
13632W        W84232  13.647   3.549  11.444
13633W        W84233  35.015  34.482  13.381
13634W        W84234  42.829  18.714   0.373
13635W        W84235  30.668  13.115   3.497
13636W        W84236  20.305  39.954   4.351
13637W        W84237  25.645  25.028   1.604
13638W        W84238  39.463  25.276   0.927
13639W        W84239   2.326  25.945   2.897
13640W        W84240  19.694   0.258  12.538
13641W        W84241  40.254  11.911   1.215
13642W        W84242  34.943   1.568   3.697
13643W        W84243  15.270  37.173  12.028
13644W        W84244  34.903  33.204  13.629
13645W        W84245   7.862  42.958  14.351
13646W        W84246  38.545   3.197  10.735
13647W        W84247  25.898   3.871  12.527
13648W        W84248  36.547   7.351   3.101
13649W        W84249  12.199  42.613  11.012
13650W        W84250  44.523   8.579   2.948
13651W        W84251   7.163  26.076   1.808
13652W        W84252  28.736   4.379   4.173
13653W        W84253  36.466  13.681   1.361
13654W        W84254  37.974   3.242  13.913
13655W        W84255  11.250  29.778  13.356
13656W        W84256   2.921   4.374  14.804
13657W        W84257  21.854  24.685   1.815
13658W        W84258   1.839   7.654   3.256
13659W        W84259  23.709   8.283  13.384
13660W        W84260  40.656  13.970   2.726
13661W        W84261  32.648   3.241  11.914
13662W        W84262  29.861   8.807  11.878
13663W        W84263   4.299   4.507   4.708
13664W        W84264  13.788  15.633  11.081
13665W        W84265   7.298  16.119   0.367
13666W        W84266   7.891  26.878   3.719
13667W        W84267  44.316  34.423   0.022
13668W        W84268  12.780   4.291  13.752
13669W        W84269  20.804  18.271   3.311
13670W        W84270  13.502   3.003   4.373
13671W        W84271  15.577  43.238  12.990
13672W        W84272   2.311   0.259  11.692
13673W        W84273  14.427  19.689   2.106
13674W        W84274   9.717  23.272   2.830
13675W        W84275  38.940  16.183  11.712
13676W        W84276  33.105  36.911  10.462
13677W        W84277   8.215  35.903  13.930
13678W        W84278  40.429  23.497   4.625
13679W        W84279  14.562  32.274   3.528
13680W        W84280   6.640  37.511  14.657
13681W        W84281   0.005  15.533   0.404
13682W        W84282  15.646  10.623  11.405
13683W        W84283  27.366   5.985  11.622
13684W        W84284  24.698   5.953  11.095
13685W        W84285  23.236  13.813  11.222
13686W        W84286  30.738  26.110   3.701
13687W        W84287  22.818  38.561  13.946
13688W        W84288  23.784  27.177   2.319
13689W        W84289  36.478  22.922   4.696
13690W        W84290   6.548  11.218  11.888
13691W        W84291  13.665  32.780   2.752
13692W        W84292  14.916   2.606   4.127
13693W        W84293  16.796   3.285   4.685
13694W        W84294  41.252   2.894   3.585
13695W        W84295   1.153  30.532  13.552
13696W        W84296   5.056  24.807  11.417
13697W        W84297   3.501  32.246   5.049
13698W        W84298  17.292  40.285   1.357
13699W        W84299  43.698  43.012  13.948
13700W        W84300  28.634  44.901   4.714
13701W        W84301   2.348  32.575  14.986
13702W        W84302  15.165  42.027  14.381
13703W        W84303  27.407  22.964   0.417
13704W        W84304   9.955  27.441  12.347
13705W        W84305  30.726  11.477   4.061
13706W        W84306  17.716   3.263  12.089
13707W        W84307  44.522  35.283  10.186
13708W        W84308  33.272  44.823   2.245
13709W        W84309  34.415  19.735   1.377
13710W        W84310  31.432  36.572  11.943
13711W        W84311  32.416  30.407  13.475
13712W        W84312   3.186  13.678   2.843
13713W        W84313  37.489  44.489  12.349
13714W        W84314  27.655  18.952  13.452
13715W        W84315   2.879  34.648   2.732
13716W        W84316  21.369   3.127  12.416
13717W        W84317  38.041   5.712  11.799
13718W        W84318  31.529  31.851   0.840
13719W        W84319  20.894  35.548   2.348
13720W        W84320  11.345  17.856  14.371
13721W        W84321  33.491  20.027   1.746
13722W        W84322  24.028  44.992  14.854
13723W        W84323  27.488  38.893  12.504
13724W        W84324  12.750  30.966   0.337
13725W        W84325  27.204  12.322   1.436
13726W        W84326  28.141  16.784  10.274
13727W        W84327  30.348  31.574  11.115
13728W        W84328  23.169  24.376   1.713
13729W        W84329  23.674  27.678  14.986
13730W        W84330   4.665  37.479  10.727
13731W        W84331  25.931  18.251   1.162
13732W        W84332   6.316   8.613  14.953
13733W        W84333  18.110  22.038   0.838
13734W        W84334  21.097  30.215   3.467
13735W        W84335   1.848  31.291   0.002
13736W        W84336   8.241  14.240  13.469
13737W        W84337  17.725  42.919  11.649
13738W        W84338  19.191   8.362  13.094
13739W        W84339   4.211  42.392  10.709
13740W        W84340   5.729  29.828   1.285
13741W        W84341  41.943  15.853  12.877
13742W        W84342  32.389   6.281   3.299
13743W        W84343  19.720   3.793   0.428
13744W        W84344  30.712   8.882  11.281
13745W        W84345   8.697  38.539   0.469
13746W        W84346   8.725  14.289  13.119
13747W        W84347  14.826   8.255  11.986
13748W        W84348  39.739  13.701  13.546
13749W        W84349  17.343  20.429  14.798
13750W        W84350  16.083  19.623   2.444
13751W        W84351  27.934  12.090  11.075
13752W        W84352   8.532  15.700   3.228
13753W        W84353  18.652   3.353   1.384
13754W        W84354   8.883  31.395   4.255
13755W        W84355  35.312  24.466  11.548
13756W        W84356  13.891  23.758  13.426
13757W        W84357   5.684  38.509  10.771
13758W        W84358   4.199  13.649   1.917
13759W        W84359   1.765  35.539  12.847
13760W        W84360  37.584  24.984   2.692
13761W        W84361  43.873  25.445  10.667
13762W        W84362  39.974  34.630  12.848
13763W        W84363  39.315  23.889   2.810
13764W        W84364  11.366   8.378  14.325
13765W        W84365  19.484  11.133   1.676
13766W        W84366  26.034   4.959   3.174
13767W        W84367   6.235  30.547  13.698
13768W        W84368  22.020  32.002   4.435
13769W        W84369   7.243  18.349  11.639
13770W        W84370  29.707  11.758   4.733
13771W        W84371  20.527  21.826  14.068
13772W        W84372  40.594  28.002   0.882
13773W        W84373  24.426  36.082   2.817
13774W        W84374   1.252  31.660   0.291
13775W        W84375  40.743  29.912   0.649
13776W        W84376  24.254  29.213   0.288
13777W        W84377  42.417  14.297  14.006
13778W        W84378  37.597  30.592   3.368
13779W        W84379  37.602  12.591   1.121
13780W        W84380   3.230  21.195  10.689
13781W        W84381  28.439  35.544  14.386
13782W        W84382  22.194   7.130   1.393
13783W        W84383  39.772   2.079   2.726
13784W        W84384  18.116  32.936   0.897
13785W        W84385  31.394  44.147   2.411
13786W        W84386  28.565   1.530  12.550
13787W        W84387  11.914  35.959   5.169
13788W        W84388  25.186  27.246  13.990
13789W        W84389  31.063  19.937  13.716
13790W        W84390  16.642  22.467  10.459
13791W        W84391  40.049  10.961   2.560
13792W        W84392  43.970  34.993   3.357
13793W        W84393  43.361   5.175  13.316
13794W        W84394  14.354  23.493  12.413
13795W        W84395  24.503  10.197  13.951
13796W        W84396  14.707  32.253   2.623
13797W        W84397  38.117  32.658   4.060
13798W        W84398   8.637  19.133  12.621
13799W        W84399  30.511   3.613  11.596
13800W        W84400  35.082  24.099  10.819
13801W        W84401   3.019   2.451   4.578
13802W        W84402  43.232   9.485   4.630
13803W        W84403  16.046   3.897  13.314
13804W        W84404  33.842  23.060  13.805
13805W        W84405  26.427  32.413   4.121
13806W        W84406   2.862  17.775   4.380
13807W        W84407   4.824   7.525   4.552
13808W        W84408  43.333  17.611  11.564
13809W        W84409  19.010  23.782  13.528
13810W        W84410  16.704  42.772   3.654
13811W        W84411  36.945  23.108   3.604
13812W        W84412   8.897  22.927   5.119
13813W        W84413   6.789   7.002   4.307
13814W        W84414  37.487  28.701  14.811
13815W        W84415  42.891  37.446  10.221
13816W        W84416  20.139  21.978  10.981
13817W        W84417  41.249  16.896   0.411
13818W        W84418  32.912  11.198   0.044
13819W        W84419  19.093  37.032  14.512
13820W        W84420  30.608  21.945  12.984
13821W        W84421  37.336  31.719   2.419
13822W        W84422  23.522  11.432   3.917
13823W        W84423   4.252  15.440  12.848
13824W        W84424  24.797  33.217  12.914
13825W        W84425  15.583   9.270   0.219
13826W        W84426  41.516  17.641   0.880
13827W        W84427  12.374   7.664   4.548
13828W        W84428   0.294  24.687   0.243
13829W        W84429  34.591  31.021  13.416
13830W        W84430  35.533   1.055  14.088
13831W        W84431  24.261  21.618   1.833
13832W        W84432  10.443   2.416   0.742
13833W        W84433  10.512   7.101   2.729
13834W        W84434  12.977  30.677  11.629
13835W        W84435  24.225  14.290   3.277
13836W        W84436  17.077  17.311   0.884
13837W        W84437  28.696  42.331   4.790
13838W        W84438  30.988  40.856  11.042
13839W        W84439  37.313  28.915   4.272
13840W        W84440   8.182  13.650   0.216
13841W        W84441  30.173  34.094   2.139
13842W        W84442   1.741   9.279  10.497
13843W        W84443  13.653  33.411   3.093
13844W        W84444  27.915   9.641   0.027
13845W        W84445  34.421  28.236  12.897
13846W        W84446  25.788  22.860  14.327
13847W        W84447  22.802  22.504   2.509
13848W        W84448  28.380  23.034   2.488
13849W        W84449   9.747  38.496   2.650
13850W        W84450  17.646   6.273   0.581
13851W        W84451  13.197  30.653   0.852
13852W        W84452  36.824  25.688   0.284
13853W        W84453  23.306  20.997  12.096
13854W        W84454  23.976   9.390  11.117
13855W        W84455  40.104  32.027  10.533
13856W        W84456  28.666  23.647   2.814
13857W        W84457   3.264  16.280   1.354
13858W        W84458  30.914  37.852  13.417
13859W        W84459  11.372  34.550   4.573
13860W        W84460  15.430  22.743  11.553
13861W        W84461  38.461  32.887   4.537
13862W        W84462  14.884  14.867  12.499
13863W        W84463  21.905  24.789   0.754
13864W        W84464  36.387  22.645   1.714
13865W        W84465  33.212  35.459  13.128
13866W        W84466   6.443  25.081   3.747
13867W        W84467  32.398   9.778   4.168
13868W        W84468  21.687  18.478  12.072
13869W        W84469  16.457  29.694   3.255
13870W        W84470  19.021  17.619  10.946
13871W        W84471  15.442  27.133  11.122
13872W        W84472   3.726   7.132   1.442
13873W        W84473  20.248   0.871  12.848
13874W        W84474  28.125  25.011  11.721
13875W        W84475   5.609  36.456  12.495
13876W        W84476  14.568  12.909  14.702
13877W        W84477   3.339  24.227  14.856
13878W        W84478  42.916   3.448  14.498
13879W        W84479   3.202  24.657   0.090
13880W        W84480  40.472  15.763   1.581
13881W        W84481  28.215   0.941  11.998
13882W        W84482  17.830  20.058  12.565
13883W        W84483  25.206  11.191  13.289
13884W        W84484  10.347  20.745  11.634
13885W        W84485   4.661  11.670  14.609
13886W        W84486  32.705  39.407  14.457
13887W        W84487   6.886  29.487   3.853
13888W        W84488  30.988  32.218   1.477
13889W        W84489   0.350  22.521  12.781
13890W        W84490  19.644  41.096  11.108
13891W        W84491  41.490  35.608   4.929
13892W        W84492  40.884   2.346   4.684
13893W        W84493  40.818  17.772   0.068
13894W        W84494  33.548   0.439  11.168
13895W        W84495  40.521  13.239   4.157
13896W        W84496  24.739  44.572  11.931
13897W        W84497  33.715  23.158  13.308
13898W        W84498  35.483  41.341  11.570
13899W        W84499  31.072  24.025   4.611
13900W        W84500  11.646  31.586  14.504
13901W        W84501  33.864   0.364   2.471
13902W        W84502  21.989  21.807   1.907
13903W        W84503  21.119   1.975   1.809
13904W        W84504  35.347  16.314   1.334
13905W        W84505  34.832  16.511   1.224
13906W        W84506  32.690  11.746  12.469
13907W        W84507   8.917   6.436   2.062
13908W        W84508  27.513  26.548  12.540
13909W        W84509   3.369  43.802   1.526
13910W        W84510  15.579   7.799  13.613
13911W        W84511  43.470  42.250   1.654
13912W        W84512  15.307  15.280  11.507
13913W        W84513  10.237  33.610  11.607
13914W        W84514   7.267  25.255  14.284
13915W        W84515  26.996  43.300  11.129
13916W        W84516  34.951  39.812   2.888
13917W        W84517  21.912  22.323   1.882
13918W        W84518  27.996  26.007  11.231
13919W        W84519  36.027  22.079  10.894
13920W        W84520  34.838  28.282   2.126
13921W        W84521  25.707  16.817   1.750
13922W        W84522  30.811  31.129   0.686
13923W        W84523  26.661   3.919  12.984
13924W        W84524  20.190  40.343  13.066
13925W        W84525  23.409   1.811   0.218
13926W        W84526   8.833  20.783  12.892
13927W        W84527  19.519  17.636   4.677
13928W        W84528  28.038  24.623   3.687
13929W        W84529  31.014  31.001   2.157
13930W        W84530   7.240  38.010   0.001
13931W        W84531  16.543  36.459   0.877
13932W        W84532  32.525  43.126   1.230
13933W        W84533  34.065   5.578   2.638
13934W        W84534  12.754   4.462  12.836
13935W        W84535  42.325  15.055  13.544
13936W        W84536   8.228  12.366   4.930
13937W        W84537  25.615  27.179  13.658
13938W        W84538  26.655   4.446   1.969
13939W        W84539  34.780  15.336   0.740
13940W        W84540   9.499  19.798  13.396
13941W        W84541  34.275   6.886  14.569
13942W        W84542  24.116  42.904  13.039
13943W        W84543  24.988  13.607   0.098
13944W        W84544  29.982   4.903   4.256
13945W        W84545   7.430  23.760  11.093
13946W        W84546  41.243  34.208   4.462
13947W        W84547  13.865  22.686   1.329
13948W        W84548  14.916   0.302  12.457
13949W        W84549   4.916  14.883  13.973
13950W        W84550  29.967  20.274   4.083
13951W        W84551   7.640   1.011  11.120
13952W        W84552  22.256   6.386   1.952
13953W        W84553   6.465  25.077   4.621
13954W        W84554  11.230  27.091   0.813
13955W        W84555  17.044  21.230   2.169
13956W        W84556   5.024  44.934   1.133
13957W        W84557  41.449  41.543  13.146
13958W        W84558   4.961   0.585  10.239
13959W        W84559  24.814  12.366  14.320
13960W        W84560  28.962   9.375  10.717
13961W        W84561  10.599  44.324  13.978
13962W        W84562  26.571  11.862  12.518
13963W        W84563  19.600   6.420  13.556
13964W        W84564  38.895  33.128   0.714
13965W        W84565  43.337  10.118   1.227
13966W        W84566  40.319  27.111   1.390
13967W        W84567  30.875  23.056   0.876
13968W        W84568   4.175  12.617   2.911
13969W        W84569   6.709   9.087   1.872
13970W        W84570  13.367  30.549  14.344
13971W        W84571  25.001  30.047   1.195
13972W        W84572  25.545  32.094  12.016
13973W        W84573  20.230  39.472  13.012
13974W        W84574   3.325  38.571   3.747
13975W        W84575   5.150  31.296   3.702
13976W        W84576   3.382  42.607  12.290
13977W        W84577  31.437  12.394   4.548
13978W        W84578  28.758  31.762   0.898
13979W        W84579  42.471  21.201   1.877
13980W        W84580   0.901  38.393  11.098
13981W        W84581   8.371  15.543   4.342
13982W        W84582  29.160  37.035   0.385
13983W        W84583   5.031   4.758   3.110
13984W        W84584  42.329  33.342   4.210
13985W        W84585  30.108   6.164   0.964
13986W        W84586  39.994  17.668   3.712
13987W        W84587   6.012   2.883   3.125
13988W        W84588   4.151  12.191   0.994
13989W        W84589   0.940  32.838  14.291
13990W        W84590  22.871   9.823   2.287
13991W        W84591  18.731  20.791   0.678
13992W        W84592  18.596  31.384  13.854
13993W        W84593  20.415  44.104  14.460
13994W        W84594  16.105  36.697   4.980
13995W        W84595  30.471   4.753   1.624
13996W        W84596   7.321  12.538  13.912
13997W        W84597  15.846   0.393  12.579
13998W        W84598  15.961  33.538   3.224
13999W        W84599  22.663   3.794  11.412
14000W        W84600  21.067  26.135   1.401
14001W        W84601  15.777  13.367   0.393
14002W        W84602   8.629  44.114  12.538
14003W        W84603   2.896  41.778   4.190
14004W        W84604  25.187  30.934  13.877
14005W        W84605  15.509  21.750  14.466
14006W        W84606  39.542  21.359  13.487
14007W        W84607   0.559  20.221   4.515
14008W        W84608  44.515  31.566   1.818
14009W        W84609  29.955  30.218  13.514
14010W        W84610  15.864   7.476  13.878
14011W        W84611  17.548  11.775   4.524
14012W        W84612  37.007  14.921   1.351
14013W        W84613  42.513  39.006  14.352
14014W        W84614  40.463  26.634  11.605
14015W        W84615  32.987   0.708  14.814
14016W        W84616  31.144   0.267   2.615
14017W        W84617  44.229  24.117   1.430
14018W        W84618  36.341  44.026  14.387
14019W        W84619  29.688  16.033  10.783
14020W        W84620   6.795  21.403  12.567
14021W        W84621  18.982  34.129  13.330
14022W        W84622  28.131  22.110  11.146
14023W        W84623  17.319  13.181   5.161
14024W        W84624  11.350  14.287   2.176
14025W        W84625  37.508  32.963   1.708
14026W        W84626  11.046  44.634  12.693
14027W        W84627  33.330  13.180   3.994
14028W        W84628  29.601  33.009  12.351
14029W        W84629  30.885  38.037   2.253
14030W        W84630  30.676  43.894   1.037
14031W        W84631   9.199  18.571   2.100
14032W        W84632  20.091  10.403   2.226
14033W        W84633  34.658   2.997   4.182
14034W        W84634  32.713  23.985   4.275
14035W        W84635  21.657  19.065   0.404
14036W        W84636  31.974  21.969   1.268
14037W        W84637  32.520   0.502  13.950
14038W        W84638   5.418  24.323   3.348
14039W        W84639   0.079  20.070   2.887
14040W        W84640  39.316  27.910   0.296
14041W        W84641  36.323  35.903   1.275
14042W        W84642  30.175  35.360  11.585
14043W        W84643  36.853  34.124   3.024
14044W        W84644  41.527  28.265   3.120
14045W        W84645  33.355   0.726   3.344
14046W        W84646  43.108  11.174   4.096
14047W        W84647   7.657  43.237  13.961
14048W        W84648  32.481  13.595   2.428
14049W        W84649  22.982  36.843  11.146
14050W        W84650  33.885   5.387  12.597
14051W        W84651   3.229  21.742   3.242
14052W        W84652   0.416  16.195  12.334
14053W        W84653  42.064   6.194   0.010
14054W        W84654  24.245  15.067   3.761
14055W        W84655  42.053  28.105   3.560
14056W        W84656  20.210  30.003   4.408
14057W        W84657  13.149  42.563   0.364
14058W        W84658   9.365  35.233   1.741
14059W        W84659  23.588  41.482  11.466
14060W        W84660  42.836  43.048   3.664
14061W        W84661   0.485  18.579   4.749
14062W        W84662   9.314  11.714  12.888
14063W        W84663  37.636  40.598  12.989
14064W        W84664  21.326  32.792  11.229
14065W        W84665  15.741  36.099  13.966
14066W        W84666  33.257  41.072   4.660
14067W        W84667  11.231   1.248   2.893
14068W        W84668  33.203  27.554  12.885
14069W        W84669  17.680  35.491   1.724
14070W        W84670  42.455  29.458  11.937
14071W        W84671   9.684  30.580  11.894
14072W        W84672   2.757  17.326   2.845
14073W        W84673  36.496  40.953  10.739
14074W        W84674  18.273  20.602   2.120
14075W        W84675  36.131   2.073  11.600
14076W        W84676  41.871  14.804  14.287
14077W        W84677  22.467  30.077  10.726
14078W        W84678  34.547   0.482  12.981
14079W        W84679  31.955  40.415  14.461
14080W        W84680  13.266  24.119   3.416
14081W        W84681  44.285  18.750  12.875
14082W        W84682  32.518   7.882   1.344
14083W        W84683   3.785   0.973  12.412
14084W        W84684  15.065  23.069  11.623
14085W        W84685  16.369  34.418   0.216
14086W        W84686  19.748   5.397   1.790
14087W        W84687  41.353  11.340  11.462
14088W        W84688  19.299  23.310   4.642
14089W        W84689   4.906  32.899  10.840
14090W        W84690  26.077  39.743  10.521
14091W        W84691  10.130  32.222   4.270
14092W        W84692  35.391  25.165   3.359
14093W        W84693  43.226  43.232  14.801
14094W        W84694  24.186  17.259  10.597
14095W        W84695  37.029  26.573   4.141
14096W        W84696  11.533  28.996  14.801
14097W        W84697   2.485   5.206   0.434
14098W        W84698  15.432  29.728   3.177
14099W        W84699  33.651  33.493  13.604
14100W        W84700  26.534  12.769   0.241
14101W        W84701  32.746  28.027   3.910
14102W        W84702  20.041  16.086  12.924
14103W        W84703  12.217  21.576   2.785
14104W        W84704  36.157  18.705  14.380
14105W        W84705  29.887  15.069   2.757
14106W        W84706  38.036  10.231  10.864
14107W        W84707   8.844   4.300  14.323
14108W        W84708  24.110  21.781   4.536
14109W        W84709  33.229  33.571   0.524
14110W        W84710  16.612   3.716   1.774
14111W        W84711   3.098  31.077  13.033
14112W        W84712  36.942  42.932   2.733
14113W        W84713   3.910  36.819   4.641
14114W        W84714   2.849  10.676  10.915
14115W        W84715  25.397  22.651   2.796
14116W        W84716   0.693  36.878   0.203
14117W        W84717  24.704  36.422   3.135
14118W        W84718  41.844  37.567  10.443
14119W        W84719  18.506  44.889  13.573
14120W        W84720  23.109   7.350  12.413
14121W        W84721  43.925  16.313   4.168
14122W        W84722  43.464  18.287  10.536
14123W        W84723  36.947  29.392  10.767
14124W        W84724   3.522   5.329  13.532
14125W        W84725  19.089  28.491   2.153
14126W        W84726  42.748  33.084   3.221
14127W        W84727  40.912  23.924   3.707
14128W        W84728  20.685  39.911   1.192
14129W        W84729  20.569   9.803  12.721
14130W        W84730  38.246  23.614   0.470
14131W        W84731  41.923  27.541   2.759
14132W        W84732  13.583  38.254  14.038
14133W        W84733  39.074  40.620  12.040
14134W        W84734   4.768  20.711  10.205
14135W        W84735  34.582  25.454  12.706
14136W        W84736  36.125  31.622  13.784
14137W        W84737  20.202  29.080   4.335
14138W        W84738  39.463  17.282   0.560
14139W        W84739  36.603   3.752   4.366
14140W        W84740  13.287  22.192   3.620
14141W        W84741  32.884  27.539  11.644
14142W        W84742   4.298  18.268  12.193
14143W        W84743  16.791  24.497  12.497
14144W        W84744   6.451   9.223   2.292
14145W        W84745  39.910  17.572   2.715
14146W        W84746   2.589  21.320  11.213
14147W        W84747  21.844   4.627   2.758
14148W        W84748  26.190   3.148  11.107
14149W        W84749  17.302  14.864   1.764
14150W        W84750  25.683  14.944   4.651
14151W        W84751   7.288  14.117   4.946
14152W        W84752  29.162   8.451  14.439
14153W        W84753   0.421  28.878  10.577
14154W        W84754  31.995  14.841   2.527
14155W        W84755  25.021  11.175   1.722
14156W        W84756  40.269  19.115   2.678
14157W        W84757  34.994  34.257   4.566
14158W        W84758   0.774  39.619  10.638
14159W        W84759  24.642  10.123   3.279
14160W        W84760  43.890  32.655  13.534
14161W        W84761  20.791   5.835  11.579
14162W        W84762  42.287   1.292   4.124
14163W        W84763   5.416   0.455   3.661
14164W        W84764  16.415  24.700  11.737
14165W        W84765   2.547  39.649  11.175
14166W        W84766  10.752  33.326   2.332
14167W        W84767  19.981  29.984  11.657
14168W        W84768  43.444  40.425  12.367
14169W        W84769  22.325  25.621   3.200
14170W        W84770  36.145  27.969   2.139
14171W        W84771  35.558   3.051  13.938
14172W        W84772  24.240  24.535  12.425
14173W        W84773  14.050  21.226   4.270
14174W        W84774  32.017   9.390  13.525
14175W        W84775   8.017  15.672  12.755
14176W        W84776  31.961  31.637   0.581
14177W        W84777  16.065  11.289   0.480
14178W        W84778  16.199   4.061   4.211
14179W        W84779   2.018  13.602  14.980
14180W        W84780  17.346  39.044   1.335
14181W        W84781  43.015  34.449  11.528
14182W        W84782   5.897   9.149  12.944
14183W        W84783   4.949  28.701  10.337
14184W        W84784   4.820  16.138   3.477
14185W        W84785  14.127   1.925  14.781
14186W        W84786   0.787  22.239  10.593
14187W        W84787  16.545  16.586  14.410
14188W        W84788   3.208  33.449  12.532
14189W        W84789  19.576  10.947  13.304
14190W        W84790  16.283  23.230   2.359
14191W        W84791  43.906  14.318  13.442
14192W        W84792  26.256   0.056   9.517
14193W        W84793  41.327  23.320   2.114
14194W        W84794  27.056  22.875   3.614
14195W        W84795  32.500   6.929   0.895
14196W        W84796   2.900  39.410  12.504
14197W        W84797  20.471   6.958  10.298
14198W        W84798  13.138  34.991  14.846
14199W        W84799  13.768   8.089   2.512
14200W        W84800  44.350   5.904   4.572
14201W        W84801  29.723  10.062  10.320
14202W        W84802  19.660   7.372   3.607
14203W        W84803  10.431   0.343  12.603
14204W        W84804  25.347  11.535  13.848
14205W        W84805  18.607  21.736   4.559
14206W        W84806  39.290  19.500   2.725
14207W        W84807  37.052  31.381   3.708
14208W        W84808  32.136  29.448  13.069
14209W        W84809   4.224   8.326   4.151
14210W        W84810  28.088  25.510  14.489
14211W        W84811  35.022  23.522   1.807
14212W        W84812  36.786  35.494   1.811
14213W        W84813   8.307  24.074   3.724
14214W        W84814   7.739   6.951   1.342
14215W        W84815  41.008  20.105   1.395
14216W        W84816  14.204  14.940   4.632
14217W        W84817   6.246   4.618   4.672
14218W        W84818  14.817   8.809  11.233
14219W        W84819  13.915   2.341  11.236
14220W        W84820   4.267   7.782   1.918
14221W        W84821  31.456  19.291  14.464
14222W        W84822  22.123  23.046  10.754
14223W        W84823  15.965  34.892  13.022
14224W        W84824  29.571   7.700  13.563
14225W        W84825  27.169  34.999  14.213
14226W        W84826  29.015  29.570   3.162
14227W        W84827  42.461  39.413   4.492
14228W        W84828  42.288  23.965  11.136
14229W        W84829   8.655  43.881  11.194
14230W        W84830  28.862  23.073   3.890
14231W        W84831  17.060   2.312  14.288
14232W        W84832  31.481  43.495   5.432
14233W        W84833   7.379   0.181   4.137
14234W        W84834  18.655   2.737  13.986
14235W        W84835  28.249  14.754   0.278
14236W        W84836  16.711  17.265  13.467
14237W        W84837  31.978  34.991  11.118
14238W        W84838  27.479  31.379   4.205
14239W        W84839  23.722  43.293   0.194
14240W        W84840  16.902  20.602  13.479
14241W        W84841  22.895   8.658   2.794
14242W        W84842   8.916  19.349  12.241
14243W        W84843  22.145   5.225   3.260
14244W        W84844   6.354  20.599   1.250
14245W        W84845  37.410  30.493  10.618
14246W        W84846  18.107  38.578   0.392
14247W        W84847  35.532  42.246  13.439
14248W        W84848  33.910  26.039  12.933
14249W        W84849  33.619  44.242   0.406
14250W        W84850  23.161  32.344   3.188
14251W        W84851  18.825  26.141   0.828
14252W        W84852  35.131  26.881  13.810
14253W        W84853  33.095  22.813   1.914
14254W        W84854  29.191  22.773   1.239
14255W        W84855   3.799  28.936   1.947
14256W        W84856  35.403  31.645   3.112
14257W        W84857  29.042  17.545   4.575
14258W        W84858  24.249  42.927  13.902
14259W        W84859  28.704   0.828  12.019
14260W        W84860   7.267  37.037   1.400
14261W        W84861   2.530  31.617  11.618
14262W        W84862  14.799  23.466  11.786
14263W        W84863  41.104  10.722   0.421
14264W        W84864   2.278  30.719   2.283
14265W        W84865  35.027  25.009   4.132
14266W        W84866  36.873  33.146   3.426
14267W        W84867  15.641  29.525  14.891
14268W        W84868   5.859  18.720   1.902
14269W        W84869  29.617   9.642  11.646
14270W        W84870  37.044  29.999   3.309
14271W        W84871  13.738  24.926   3.153
14272W        W84872   7.462  28.681   0.695
14273W        W84873  29.364  13.059   1.948
14274W        W84874  38.982  39.828   1.854
14275W        W84875  30.638  29.191   4.151
14276W        W84876  28.845  20.137   2.805
14277W        W84877  25.913   2.115  13.310
14278W        W84878  36.977  21.831   3.138
14279W        W84879  31.037  10.119  10.666
14280W        W84880   1.708  21.608   4.153
14281W        W84881   3.662   5.145   4.215
14282W        W84882  36.479   8.404   3.878
14283W        W84883  31.322  35.378   4.133
14284W        W84884   1.183  24.645  14.845
14285W        W84885   7.980  37.567  12.084
14286W        W84886   8.359  36.435   1.192
14287W        W84887  32.686   1.805  14.769
14288W        W84888  34.291  29.645   1.034
14289W        W84889  36.318  10.398   1.138
14290W        W84890  22.176   7.617  11.739
14291W        W84891  21.232  38.278   4.020
14292W        W84892  35.299  43.853   1.876
14293W        W84893  16.227  38.755   0.376
14294W        W84894  29.424  42.945   1.067
14295W        W84895   8.508  20.590  14.228
14296W        W84896  13.652  42.831  12.574
14297W        W84897  37.098   0.949   0.539
14298W        W84898  11.287  30.428  12.310
14299W        W84899  34.941  38.137  13.885
14300W        W84900  29.253   7.746   2.118
14301W        W84901   9.687  17.064   2.885
14302W        W84902  25.363  19.900   1.738
14303W        W84903  35.930  12.688   4.362
14304W        W84904  28.288  34.469   1.580
14305W        W84905  38.910  30.669   4.602
14306W        W84906  39.277  37.243   3.539
14307W        W84907  35.494  21.238  11.218
14308W        W84908  18.509  14.278  13.912
14309W        W84909  19.513   4.865  12.255
14310W        W84910  44.201  24.140  12.571
14311W        W84911  29.534  22.617   3.451
14312W        W84912   1.124   0.288  13.359
14313W        W84913   9.809  26.868  13.336
14314W        W84914  34.832  40.093   4.661
14315W        W84915  27.425  18.422   4.565
14316W        W84916  21.856  30.217  14.399
14317W        W84917  41.549  34.678  11.230
14318W        W84918  40.549  34.056   1.288
14319W        W84919  18.727   7.328  14.171
14320W        W84920   5.692  13.437   2.325
14321W        W84921  15.272  44.724  12.934
14322W        W84922  27.089   4.372   4.699
14323W        W84923  25.247  31.875  12.886
14324W        W84924   5.815  12.291  14.292
14325W        W84925  16.709  35.690   4.545
14326W        W84926  20.665  40.837   0.863
14327W        W84927  27.607  24.138  10.583
14328W        W84928  32.443  17.865   2.782
14329W        W84929  15.575  37.047   0.177
14330W        W84930  41.891  41.725  14.054
14331W        W84931  37.247   5.621  13.971
14332W        W84932  32.943  33.446   0.965
14333W        W84933  28.829  15.030   1.347
14334W        W84934  13.122   3.682  11.999
14335W        W84935  16.776  41.323  11.865
14336W        W84936  20.215   5.404  13.282
14337W        W84937  17.166   1.815  10.659
14338W        W84938   6.764  20.769  10.828
14339W        W84939  37.117   1.479  11.991
14340W        W84940  42.144  42.975   0.271
14341W        W84941   7.865  38.338  10.634
14342W        W84942  23.017  40.395  10.915
14343W        W84943   0.482  23.063   2.702
14344W        W84944  10.872   9.112   4.112
14345W        W84945  23.382  21.595   0.318
14346W        W84946  13.276  19.674   0.741
14347W        W84947  23.573  15.205  12.426
14348W        W84948   5.850  16.550   4.477
14349W        W84949  44.224  18.068  13.472
14350W        W84950   6.297  28.302  10.286
14351W        W84951  35.358  31.077  12.891
14352W        W84952  13.771  31.336   1.418
14353W        W84953  16.905  44.006   3.560
14354W        W84954   4.466   2.518   3.191
14355W        W84955  16.100  25.727  13.251
14356W        W84956  37.626  30.464  14.542
14357W        W84957  12.052  13.107  12.581
14358W        W84958  13.094  37.302   4.782
14359W        W84959  15.809  10.067   1.863
14360W        W84960   0.594  23.149  14.004
14361W        W84961   8.628   8.498  13.504
14362W        W84962  35.155  30.046   3.747
14363W        W84963  13.152   6.849   2.942
14364W        W84964  38.453  19.078   3.289
14365W        W84965  38.596  14.043  12.424
14366W        W84966  22.946  36.669  12.020
14367W        W84967  38.105   4.791  14.249
14368W        W84968  37.998  25.525   1.318
14369W        W84969  18.602  25.298   3.105
14370W        W84970   0.904   2.528   1.343
14371W        W84971  31.260  26.886  14.898
14372W        W84972  24.258   2.900   0.904
14373W        W84973  11.112   8.829   4.467
14374W        W84974  11.715  14.163  11.437
14375W        W84975  23.053  32.193  11.133
14376W        W84976   4.571   2.010  11.018
14377W        W84977  22.557  14.786   4.742
14378W        W84978  40.961  39.678   4.077
14379W        W84979   3.153  14.624   4.525
14380W        W84980  23.762  34.413  12.520
14381W        W84981  28.489  23.148   4.253
14382W        W84982  40.425  43.500   1.146
14383W        W84983  16.450   8.699  10.547
14384W        W84984  39.371   1.260  11.224
14385W        W84985  40.368  16.120  11.383
14386W        W84986  44.257  28.510   1.299
14387W        W84987  26.226  15.658  14.212
14388W        W84988  40.245   5.366   3.214
14389W        W84989  27.763  18.614  14.505
14390W        W84990  39.407  25.676  13.991
14391W        W84991   0.016  18.048  13.915
14392W        W84992   2.369   6.757  11.603
14393W        W84993  38.926  21.406   1.312
14394W        W84994   1.291   6.795  11.590
14395W        W84995  17.219  33.986  11.425
14396W        W84996   3.747  39.091  13.427
14397W        W84997  23.171   4.850  14.828
14398W        W84998  19.885   5.257   4.344
14399W        W84999  34.502   1.740  12.409
14400W        W85000  38.001  38.711  13.955
14401W        W85001  43.106  41.464  11.591
14402W        W85002  27.057  35.688  11.832
14403W        W85003  44.822  39.751  10.768
14404W        W85004  36.013  12.238   2.764
14405W        W85005   5.805  45.000  10.571
14406W        W85006   6.815  43.429  14.873
14407W        W85007  35.218   6.025   0.897
14408W        W85008  35.025  16.101   1.686
14409W        W85009  27.272  43.811   0.928
14410W        W85010  29.446  21.792   2.805
14411W        W85011  35.996  14.470  10.556
14412W        W85012  29.339  11.802   3.766
14413W        W85013  29.864  24.106   1.892
14414W        W85014  12.708  21.682   2.962
14415W        W85015   0.460  38.586   0.036
14416W        W85016  18.864  20.701  12.446
14417W        W85017   9.158  41.949  12.110
14418W        W85018  39.782  24.092  12.410
14419W        W85019  17.230  12.638   3.092
14420W        W85020  38.023  28.621  14.751
14421W        W85021   9.912  36.137  13.089
14422W        W85022   1.054  40.035   4.573
14423W        W85023   8.433  21.679   3.771
14424W        W85024  27.745  23.203  14.237
14425W        W85025   3.940  39.709   1.980
14426W        W85026  12.137  44.825  12.201
14427W        W85027  16.720  14.244   1.411
14428W        W85028  29.881  31.392  14.335
14429W        W85029  32.680   6.333   4.145
14430W        W85030   2.149  32.024  11.454
14431W        W85031  41.857  36.811  12.598
14432W        W85032  29.894  38.806   4.131
14433W        W85033  21.333  31.426  12.925
14434W        W85034  20.695  42.549  12.579
14435W        W85035  23.176  31.425  10.659
14436W        W85036   1.313  35.551  13.179
14437W        W85037  41.283  15.597   2.315
14438W        W85038  35.829  11.645  13.078
14439W        W85039  23.114  30.433   4.204
14440W        W85040  12.255  27.698   4.747
14441W        W85041   7.647   0.297   4.621
14442W        W85042  34.772  26.505  13.922
14443W        W85043  12.242  31.110   3.258
14444W        W85044  24.125  31.478   3.635
14445W        W85045  12.581  18.505  10.534
14446W        W85046   6.887  11.253   2.307
14447W        W85047  28.570  15.646   1.257
14448W        W85048  21.427   6.675  11.220
14449W        W85049  29.519   5.642  10.729
14450W        W85050  28.302   9.865   2.658
14451W        W85051  33.834  18.289  12.943
14452W        W85052  43.225  31.833  12.498
14453W        W85053  32.465   9.774  11.426
14454W        W85054  31.501  20.068  10.988
14455W        W85055  43.081  42.758  14.953
14456W        W85056  12.767  10.756  13.535
14457W        W85057  44.470  14.747   2.039
14458W        W85058  15.892  20.002   3.668
14459W        W85059   0.363  32.360  11.204
14460W        W85060   6.239  22.808   0.827
14461W        W85061  18.006  29.394   4.178
14462W        W85062   8.738  21.832  13.770
14463W        W85063   6.672   9.805  11.573
14464W        W85064  37.565   5.739  10.132
14465W        W85065  31.237  40.432  11.233
14466W        W85066  15.080   4.248   2.448
14467W        W85067  19.313   6.203   2.516
14468W        W85068  17.328  16.827  10.459
14469W        W85069   7.500  15.084   1.815
14470W        W85070  34.154   8.990   2.260
14471W        W85071  39.838  34.452  13.328
14472W        W85072  36.113  37.319   4.222
14473W        W85073  12.581   2.983  13.873
14474W        W85074  13.267  23.851   2.675
14475W        W85075  16.175  38.606  14.474
14476W        W85076   6.819   7.444   2.876
14477W        W85077  32.564  29.703  13.012
14478W        W85078  26.943  29.682  12.103
14479W        W85079  41.331  32.927   1.429
14480W        W85080  31.915  12.577   3.674
14481W        W85081  20.145  12.670   4.063
14482W        W85082  28.704  38.009   1.857
14483W        W85083  33.605  31.727   0.577
14484W        W85084  43.561   2.661  11.971
14485W        W85085  39.499  39.500  14.510
14486W        W85086   9.610  36.909  12.552
14487W        W85087  10.824  16.064  11.065
14488W        W85088  31.046  32.658  12.360
14489W        W85089   6.603   3.050   1.765
14490W        W85090  26.505   7.468   0.894
14491W        W85091  19.336  28.957   2.277
14492W        W85092  25.749  25.930   0.778
14493W        W85093  22.067  21.172  11.937
14494W        W85094   7.642   2.448  12.516
14495W        W85095  23.615   9.966   3.797
14496W        W85096  10.935  39.263   1.454
14497W        W85097  27.768   0.966  12.730
14498W        W85098  14.276  22.476   2.354
14499W        W85099   4.722   6.726   2.818
14500W        W85100  39.950  14.164  13.602
14501W        W85101   9.701  37.077  13.071
14502W        W85102   2.809  10.632  10.416
14503W        W85103  17.189  18.269  13.568
14504W        W85104  30.405   2.893  11.602
14505W        W85105  36.492  17.257   2.986
14506W        W85106  12.044  17.871  14.379
14507W        W85107  34.167  12.411   2.329
14508W        W85108  23.964   2.832   2.701
14509W        W85109   4.653   8.099  14.773
14510W        W85110   7.772   0.210   3.761
14511W        W85111   2.568  29.536   3.574
14512W        W85112  15.581  37.561  12.974
14513W        W85113  23.953  35.565  14.696
14514W        W85114   3.978  42.344   4.287
14515W        W85115  41.012  29.133  11.494
14516W        W85116  44.314  22.260  13.824
14517W        W85117  38.598  29.017   1.679
14518W        W85118  13.271  35.532   2.050
14519W        W85119   6.279  38.170  13.256
14520W        W85120  28.911  21.787   2.753
14521W        W85121  10.164   7.323  11.729
14522W        W85122  21.160  40.527  14.542
14523W        W85123  36.151  44.351   0.996
14524W        W85124  36.826  34.813  12.549
14525W        W85125  21.995  39.816  11.190
14526W        W85126  11.584  14.198   1.088
14527W        W85127  39.569   1.018   1.795
14528W        W85128  35.492  17.827   3.359
14529W        W85129  28.931  27.134  12.500
14530W        W85130  44.483  34.061   1.802
14531W        W85131  26.914  14.713   4.210
14532W        W85132  15.291  21.709  10.581
14533W        W85133   6.628  11.718   2.421
14534W        W85134   5.816  32.864   1.727
14535W        W85135  34.130   0.919   3.602
14536W        W85136   3.739  30.740   2.853
14537W        W85137  28.399   1.529   0.395
14538W        W85138  12.803  34.648  12.909
14539W        W85139  10.870  43.013   4.788
14540W        W85140  13.844  40.545   5.270
14541W        W85141  17.775  32.265   2.298
14542W        W85142   8.987   1.874  12.083
14543W        W85143  14.163  28.342   1.461
14544W        W85144  40.933  10.277   5.063
14545W        W85145  38.019  36.486  12.147
14546W        W85146  36.381  29.468  12.551
14547W        W85147  35.474  20.031  10.553
14548W        W85148   6.361  28.171  14.098
14549W        W85149  13.727   3.422   2.851
14550W        W85150  39.360   7.281   0.762
14551W        W85151  29.697  43.941   3.671
14552W        W85152  34.455   7.834  11.404
14553W        W85153  15.477  36.400  12.514
14554W        W85154  12.521  32.763   3.296
14555W        W85155  28.672  14.608  11.585
14556W        W85156  44.239  38.493   2.266
14557W        W85157   3.413  27.517   1.925
14558W        W85158  38.317   8.820  10.573
14559W        W85159  17.583   2.324  14.313
14560W        W85160  24.783  21.258  12.589
14561W        W85161  38.219  14.593  13.821
14562W        W85162   0.568  33.653  12.245
14563W        W85163  10.683  27.037  11.529
14564W        W85164  15.700  39.345   4.954
14565W        W85165  29.749  34.358  11.091
14566W        W85166  29.365  14.094   4.465
14567W        W85167  20.780  26.393  13.366
14568W        W85168  44.966  12.430   1.408
14569W        W85169  27.905  15.687  10.682
14570W        W85170  43.211  23.564   3.140
14571W        W85171   7.349  12.248   2.416
14572W        W85172  34.390  23.870   2.183
14573W        W85173  12.657  43.729  13.863
14574W        W85174   3.942  11.213  14.906
14575W        W85175  14.057   8.856   4.946
14576W        W85176  23.647  19.297   4.173
14577W        W85177  11.194   6.692  10.786
14578W        W85178  19.399  33.578   4.556
14579W        W85179  18.555  22.347   0.808
14580W        W85180  34.176  27.174  13.734
14581W        W85181  22.888  39.615  14.512
14582W        W85182  38.701   7.282   4.644
14583W        W85183   9.656  34.828  11.634
14584W        W85184  29.666   8.731  13.540
14585W        W85185  38.508  32.452   1.214
14586W        W85186  33.624  40.480   0.875
14587W        W85187  40.282  20.580   1.106
14588W        W85188   6.452  34.915   4.658
14589W        W85189   7.022  36.568  10.613
14590W        W85190  27.327  16.184  11.133
14591W        W85191  38.344   0.403   2.850
14592W        W85192  29.323  24.947   2.221
14593W        W85193   3.243  30.618  11.152
14594W        W85194  19.782  15.640   2.679
14595W        W85195   2.395  20.523   0.746
14596W        W85196  39.002  42.326  11.030
14597W        W85197  23.696   7.648   3.905
14598W        W85198  42.012  22.029  11.150
14599W        W85199  42.956   6.348  11.160
14600W        W85200   2.780  13.633   1.156
14601W        W85201  20.645  30.013   0.275
14602W        W85202  10.360   3.842  10.732
14603W        W85203   7.366  13.209   1.468
14604W        W85204  25.005  34.636  12.968
14605W        W85205  40.668  26.534   9.881
14606W        W85206  25.580  34.289  14.517
14607W        W85207  25.708  32.626   3.393
14608W        W85208   8.339  34.430  10.868
14609W        W85209   0.589  40.408   1.778
14610W        W85210  11.187   0.458   1.183
14611W        W85211  10.095  35.398   1.258
14612W        W85212  31.299  17.767   3.441
14613W        W85213   0.035  14.181  11.684
14614W        W85214  27.677  28.985   0.988
14615W        W85215  25.649  39.952  12.496
14616W        W85216  12.337   5.265  11.533
14617W        W85217   6.955  37.372   1.693
14618W        W85218  42.784  29.468   3.195
14619W        W85219  42.895  35.328  12.002
14620W        W85220  34.062  40.817   4.200
14621W        W85221   0.856   7.245   0.633
14622W        W85222   5.399  41.365  14.718
14623W        W85223  35.116  10.273   0.372
14624W        W85224  16.805  31.655  13.501
14625W        W85225  15.121  13.402  13.325
14626W        W85226  25.896   3.428   3.576
14627W        W85227  32.195  17.859  12.128
14628W        W85228  31.040  21.467  13.981
14629W        W85229  43.894   4.133  10.501
14630W        W85230  30.449   7.962  13.897
14631W        W85231   5.233  40.036  11.023
14632W        W85232  18.080  31.866   3.245
14633W        W85233  29.533   8.418  12.893
14634W        W85234  44.306   2.381   4.077
14635W        W85235   0.229  39.441  14.532
14636W        W85236  15.930  25.643   3.591
14637W        W85237  16.221  23.236  10.586
14638W        W85238  12.911   4.125   4.225
14639W        W85239  17.580  39.477   3.922
14640W        W85240  35.595   5.458  12.501
14641W        W85241  28.869  19.714   3.139
14642W        W85242  33.304  36.443  11.285
14643W        W85243  18.221  27.460   0.774
14644W        W85244  40.276  42.111  11.658
14645W        W85245  30.288  37.937  10.000
14646W        W85246  13.826  10.076  11.416
14647W        W85247  39.443  34.900  12.085
14648W        W85248  23.213  15.148   1.733
14649W        W85249  20.132  36.110   4.627
14650W        W85250   5.442  21.635   2.677
14651W        W85251  10.107  44.353  14.975
14652W        W85252  23.100   2.966  14.522
14653W        W85253  41.057  38.905  10.684
14654W        W85254  38.458   2.760  12.301
14655W        W85255  16.303  32.954  14.813
14656W        W85256   0.938  10.317  10.676
14657W        W85257  41.508   8.350  10.618
14658W        W85258  15.246   1.878   4.080
14659W        W85259  16.021  21.698   1.845
14660W        W85260  24.970  21.723  10.491
14661W        W85261  18.322  26.411   1.705
14662W        W85262  22.790  18.200   1.006
14663W        W85263  33.059  43.904  13.567
14664W        W85264  36.493  11.729  14.365
14665W        W85265  14.056  44.770   1.874
14666W        W85266   6.651  38.638   2.270
14667W        W85267   1.746   7.501   4.601
14668W        W85268  41.550  14.155   4.059
14669W        W85269  40.170   3.347  10.112
14670W        W85270  37.536  25.402   0.735
14671W        W85271   2.842  42.886   1.957
14672W        W85272  42.507   8.216   0.887
14673W        W85273  14.748  19.688   0.886
14674W        W85274  42.708  23.049   1.934
14675W        W85275   8.220  23.726  12.330
14676W        W85276  10.942  19.534   2.741
14677W        W85277  39.036  40.825   0.723
14678W        W85278  20.246  31.485  12.051
14679W        W85279  27.992  21.650   4.037
14680W        W85280  35.808  27.967  10.557
14681W        W85281  13.746  34.535  11.892
14682W        W85282  25.702  15.639  14.371
14683W        W85283  23.174  23.144  13.443
14684W        W85284  39.978   1.934   3.173
14685W        W85285   3.249   3.994   2.233
14686W        W85286  27.201   6.368  14.890
14687W        W85287  43.085  39.914   3.706
14688W        W85288   0.366  40.245  11.172
14689W        W85289  32.890   9.061  10.813
14690W        W85290  24.786   1.796  14.803
14691W        W85291  44.851  43.493  11.064
14692W        W85292  18.309  31.472   2.013
14693W        W85293   9.207   5.581   4.590
14694W        W85294  18.606  17.557   0.450
14695W        W85295  32.030   6.860   3.033
14696W        W85296   2.928  37.816  11.082
14697W        W85297  44.139  26.411   0.222
14698W        W85298   7.180  14.779   0.892
14699W        W85299  34.789   5.866  13.789
14700W        W85300  15.731  42.007   3.172
14701W        W85301  13.345  28.856   1.801
14702W        W85302   6.913  28.692  11.003
14703W        W85303  12.617  24.472  13.376
14704W        W85304  31.602  28.073  12.198
14705W        W85305  19.855  32.817  10.682
14706W        W85306  29.034  32.483  13.770
14707W        W85307  37.321  24.416   0.734
14708W        W85308  34.059  10.827   1.898
14709W        W85309  30.860  34.912   2.717
14710W        W85310  32.834  15.320   0.881
14711W        W85311  40.663  19.004  12.396
14712W        W85312   3.975  28.588   4.135
14713W        W85313  14.621  17.092  12.457
14714W        W85314  44.356  39.727  10.514
14715W        W85315  35.280  32.355   3.844
14716W        W85316   4.613  11.648  13.557
14717W        W85317   9.167  41.086   2.627
14718W        W85318  29.128  18.197   4.121
14719W        W85319  40.547   4.002   0.397
14720W        W85320  18.838  15.775   3.883
14721W        W85321  24.528  14.485   1.422
14722W        W85322   1.316  41.138  13.911
14723W        W85323  30.608   3.120  10.738
14724W        W85324  27.111  39.750   2.269
14725W        W85325  10.029  35.366  13.373
14726W        W85326  26.190  29.108  12.471
14727W        W85327  14.481  42.400  13.435
14728W        W85328  37.476  18.025   3.527
14729W        W85329  15.972  41.499   1.848
14730W        W85330  44.242  21.988   2.750
14731W        W85331  23.736   6.356  13.980
14732W        W85332  42.793   3.598   1.376
14733W        W85333  40.914   7.960  11.952
14734W        W85334   7.003  41.299  10.987
14735W        W85335   8.869  11.159  11.250
14736W        W85336  33.979  31.463  12.830
14737W        W85337  42.762  10.233  10.363
14738W        W85338  44.615   1.402  11.908
14739W        W85339  36.978  32.652   4.318
14740W        W85340   1.381  34.360   2.722
14741W        W85341  44.117  36.758   1.758
14742W        W85342  18.034  41.512   1.789
14743W        W85343  41.929  12.301   2.897
14744W        W85344  26.680  30.241  13.424
14745W        W85345  43.843  34.100  11.936
14746W        W85346  44.058   8.844   2.894
14747W        W85347  34.869  42.301   4.540
14748W        W85348  29.978  35.466  13.558
14749W        W85349  44.541  22.892   1.130
14750W        W85350  23.783   8.766   3.089
14751W        W85351  15.586  30.880  12.910
14752W        W85352  28.544  32.582   0.285
14753W        W85353   6.211   0.795  12.994
14754W        W85354  22.989  25.355   1.868
14755W        W85355  26.018   0.735   1.465
14756W        W85356  29.503  19.228  12.128
14757W        W85357  42.527  10.856  11.097
14758W        W85358  32.899  11.707   4.024
14759W        W85359   2.638   0.381   1.517
14760W        W85360   1.651   4.330   0.457
14761W        W85361  28.643  42.945  14.860
14762W        W85362  37.146   8.175   2.637
14763W        W85363  42.909   7.164  11.469
14764W        W85364  37.437  23.017  11.946
14765W        W85365  15.780  26.577  12.416
14766W        W85366   5.213  39.163   2.672
14767W        W85367  25.332   7.266   1.925
14768W        W85368  33.860  34.535   1.850
14769W        W85369   9.971  16.582  12.443
14770W        W85370  32.063  38.275  13.363
14771W        W85371   7.456  41.894  12.855
14772W        W85372  38.450  28.625   1.378
14773W        W85373  18.611  10.589  13.375
14774W        W85374  33.094  26.196   1.356
14775W        W85375  42.074  36.351   0.395
14776W        W85376  32.110  38.794  12.103
14777W        W85377  11.204  14.845  14.920
14778W        W85378  18.827  19.273   1.426
14779W        W85379  24.180  26.506  12.034
14780W        W85380  13.725  13.908   0.360
14781W        W85381  40.941  43.439   1.120
14782W        W85382  14.991  17.352  10.479
14783W        W85383  37.981  38.308   2.591
14784W        W85384  36.939  39.455   1.456
14785W        W85385  21.175  12.191  13.017
14786W        W85386   4.549   7.021   2.436
14787W        W85387  20.074  14.363   4.937
14788W        W85388  25.563  32.691   1.294
14789W        W85389  22.058   2.288   0.904
14790W        W85390  25.587  31.920   2.692
14791W        W85391   4.061  38.904   0.122
14792W        W85392   2.295   5.836   0.909
14793W        W85393  14.550  31.142  12.130
14794W        W85394  13.226  37.978   2.876
14795W        W85395  40.637  27.126   0.943
14796W        W85396   9.497  39.533  13.323
14797W        W85397  25.098   0.321   5.417
14798W        W85398  42.596  19.771  11.086
14799W        W85399  34.778  16.194  14.557
14800W        W85400  43.406  12.358  14.795
14801W        W85401  38.363  11.412  14.762
14802W        W85402  18.440  29.071  14.828
14803W        W85403  14.128   5.731  11.454
14804W        W85404  13.815  36.596   4.838
14805W        W85405  31.920  38.950   2.272
14806W        W85406  31.621  28.953   3.282
14807W        W85407  13.154  11.312   4.774
14808W        W85408   2.372  33.936  13.164
14809W        W85409  40.363  23.750  12.006
14810W        W85410   0.387  26.883  12.346
14811W        W85411  44.449  34.594  13.952
14812W        W85412  43.854   2.753  11.560
14813W        W85413  37.902   3.256   2.235
14814W        W85414  24.894   2.419   3.763
14815W        W85415  13.434   3.867  12.413
14816W        W85416  43.931  41.254  12.979
14817W        W85417  19.430  10.807   3.782
14818W        W85418  32.617  20.315  12.497
14819W        W85419   2.029  42.463  13.381
14820W        W85420  28.607  31.228  11.382
14821W        W85421  29.059   6.934   4.570
14822W        W85422  41.012   6.068  12.626
14823W        W85423  27.425   0.240  11.531
14824W        W85424   2.805  22.091   3.083
14825W        W85425  16.673   9.366  14.541
14826W        W85426   4.528  17.377   1.842
14827W        W85427  15.770  16.558   1.160
14828W        W85428  32.982  19.328   2.679
14829W        W85429  24.706  13.362  11.458
14830W        W85430  39.530  16.606   4.231
14831W        W85431  11.654  44.707  12.353
14832W        W85432  13.026  31.135   0.734
14833W        W85433  33.554  34.439   0.493
14834W        W85434  36.043  25.451  14.864
14835W        W85435  37.211  21.222   2.359
14836W        W85436  14.698  19.034  14.432
14837W        W85437   7.404   4.616   1.323
14838W        W85438   1.262  35.575  12.679
14839W        W85439  28.974  19.574   0.335
14840W        W85440  43.426   2.219   4.181
14841W        W85441  35.497  12.078   2.356
14842W        W85442  38.109  44.212   1.741
14843W        W85443  36.620  24.953  11.583
14844W        W85444   9.180  16.107   3.713
14845W        W85445  21.015  31.941   2.968
14846W        W85446  14.367   2.702   0.840
14847W        W85447   9.628   6.836  11.571
14848W        W85448  34.544  11.710  13.889
14849W        W85449  39.107  17.064  13.516
14850W        W85450  18.328  35.723   2.235
14851W        W85451   3.450  32.863  11.969
14852W        W85452  35.775  18.503  13.846
14853W        W85453   5.320  28.465  14.428
14854W        W85454  18.348  24.209   2.786
14855W        W85455  28.692  10.134   2.350
14856W        W85456  38.343   8.836  13.056
14857W        W85457   0.783   0.716   1.098
14858W        W85458  41.555  25.171  13.786
14859W        W85459  21.278  36.437   0.822
14860W        W85460   5.359  12.658   3.770
14861W        W85461  33.886   0.699  13.079
14862W        W85462  19.600  20.670   2.798
14863W        W85463  23.124  20.653   5.033
14864W        W85464   5.502  36.543   1.607
14865W        W85465  36.822   4.922  12.640
14866W        W85466  12.177   0.958  13.472
14867W        W85467  24.563   8.117  14.621
14868W        W85468  24.187  34.111   0.327
14869W        W85469   8.119  30.545   4.953
14870W        W85470   7.268   0.953  14.271
14871W        W85471  22.749  37.403  14.690
14872W        W85472   9.768  28.193   0.825
14873W        W85473  14.195  44.325  14.400
14874W        W85474  34.979   4.796   3.332
14875W        W85475  32.678  27.941   0.627
14876W        W85476  10.287  36.374   2.806
14877W        W85477  25.623  33.872  13.119
14878W        W85478   3.384   3.152  13.014
14879W        W85479  17.112   8.874   3.416
14880W        W85480   3.721  33.597  13.165
14881W        W85481  28.137  20.751   0.369
14882W        W85482  20.083  41.759   4.819
14883W        W85483  16.144  28.196  10.770
14884W        W85484   9.879   9.950   3.384
14885W        W85485  38.322  39.652  10.992
14886W        W85486  23.546  10.595   1.968
14887W        W85487  25.826  26.121   3.717
14888W        W85488  12.292   0.456  13.515
14889W        W85489  44.677   1.454   1.700
14890W        W85490   7.924  39.826   3.778
14891W        W85491  26.694  10.704   3.865
14892W        W85492  14.386  13.704   1.303
14893W        W85493  44.995   7.343   2.161
14894W        W85494   0.673  31.896  10.248
14895W        W85495  26.201  24.411   0.779
14896W        W85496  20.782  16.701  12.435
14897W        W85497  23.521   5.837   4.491
14898W        W85498   3.656  32.149  14.407
14899W        W85499  19.233  22.597   0.021
14900W        W85500   3.724  32.376  13.726
14901W        W85501   3.305   7.334   2.713
14902W        W85502  44.525  28.297  10.684
14903W        W85503  29.959   7.458  10.551
14904W        W85504  35.526  28.949   1.488
14905W        W85505  10.654   5.651   1.312
14906W        W85506  14.111  15.163  10.582
14907W        W85507  26.733  39.828  12.459
14908W        W85508  18.368  17.762  11.586
14909W        W85509   4.450  21.355   1.731
14910W        W85510   7.396   7.411   4.711
14911W        W85511   9.272  18.058  13.834
14912W        W85512  40.619  11.323  13.831
14913W        W85513  14.151  26.919  14.933
14914W        W85514  40.397  10.525  12.717
14915W        W85515  34.981  10.460  11.093
14916W        W85516   5.856  42.397   4.885
14917W        W85517   0.943  35.524   4.517
14918W        W85518  32.412  11.057  14.395
14919W        W85519   3.929  25.232   0.019
14920W        W85520  31.047   3.349  13.872
14921W        W85521  15.759  37.613  11.547
14922W        W85522  41.619  17.878   0.209
14923W        W85523  16.772   1.377   3.084
14924W        W85524  22.964  19.842   1.463
14925W        W85525  42.391  11.745  10.715
14926W        W85526   7.496  24.494   2.120
14927W        W85527  15.489   5.986  14.516
14928W        W85528  32.458  28.391  11.223
14929W        W85529  43.795  33.709   1.853
14930W        W85530  16.271  13.261  12.412
14931W        W85531  39.606  44.420   0.258
14932W        W85532  42.006   3.050   4.128
14933W        W85533  44.324  14.653   1.186
14934W        W85534  44.993  28.690  14.422
14935W        W85535  18.394   7.683  14.032
14936W        W85536  34.530  29.059  10.707
14937W        W85537  28.511  31.198  14.245
14938W        W85538  34.656   8.217   1.491
14939W        W85539  42.146  13.312  13.353
14940W        W85540  23.337   3.354  14.796
14941W        W85541  18.533  20.106  11.109
14942W        W85542  36.751  31.950   1.462
14943W        W85543   1.549  21.298   0.029
14944W        W85544   4.733  30.439   2.682
14945W        W85545  43.374  20.353  10.720
14946W        W85546  27.782  24.426   4.156
14947W        W85547   4.435  36.321  13.272
14948W        W85548   6.149  43.473   3.713
14949W        W85549   7.622  27.137  13.769
14950W        W85550   2.194  41.052   3.194
14951W        W85551  25.013  15.169  11.776
14952W        W85552   9.803   1.878   2.262
14953W        W85553  33.984  16.585  14.719
14954W        W85554   5.806  24.938  12.132
14955W        W85555   5.772  31.623  13.558
14956W        W85556   2.387  13.127   1.643
14957W        W85557  44.531   7.347  10.182
14958W        W85558  12.112   9.901   3.852
14959W        W85559   9.842  33.129  12.075
14960W        W85560   4.854   2.416  13.925
14961W        W85561  43.968   0.669  13.483
14962W        W85562   8.742  22.598  11.519
14963W        W85563  23.149   0.998   0.350
14964W        W85564  34.485  11.193   1.330
14965W        W85565  36.462  23.412  10.685
14966W        W85566  10.289  18.639  11.817
14967W        W85567  17.985  37.089  12.457
14968W        W85568  13.574  25.486   1.843
14969W        W85569  35.075   3.676   0.409
14970W        W85570  13.033   1.047   3.353
14971W        W85571  27.684  23.978  14.508
14972W        W85572  32.377   2.990   4.719
14973W        W85573  14.748   5.938  12.097
14974W        W85574   0.311  19.274   4.318
14975W        W85575  19.323  29.483  14.932
14976W        W85576  43.795  30.316   2.391
14977W        W85577  43.585  14.284  13.825
14978W        W85578  23.844  40.682  11.449
14979W        W85579   3.409  41.482  11.374
14980W        W85580   2.407   6.124   5.131
14981W        W85581  40.874  20.635  11.580
14982W        W85582   3.729   4.251   0.909
14983W        W85583  16.383   7.667   3.752
14984W        W85584   4.214  38.579   3.342
14985W        W85585  14.816  37.073  13.910
14986W        W85586  41.840  10.620   3.732
14987W        W85587  12.527  17.507  12.090
14988W        W85588  37.145  35.303   3.265
14989W        W85589  35.054  12.355   2.260
14990W        W85590   7.120  12.939  14.936
14991W        W85591  44.763  12.224  14.079
14992W        W85592  11.607  36.191  14.337
14993W        W85593   8.655  27.074   3.259
14994W        W85594  16.477  31.980   4.525
14995W        W85595  27.573  41.477   3.718
14996W        W85596  17.448  25.981  13.521
14997W        W85597  24.411  25.726   1.744
14998W        W85598  10.659  34.686   3.753
14999W        W85599   8.229  27.612   1.637
15000W        W85600  24.773  15.052  11.114
15001W        W85601  39.488  23.582  11.646
15002W        W85602  25.644   9.858   3.668
15003W        W85603  37.857  14.841   4.606
15004W        W85604  22.877   6.273   4.846
15005W        W85605   1.715  16.177   4.071
15006W        W85606  34.566  40.551   4.645
15007W        W85607  11.214   8.199   4.417
15008W        W85608  41.336  26.404   1.892
15009W        W85609  10.888  41.006   4.405
15010W        W85610  11.876  32.909  11.968
15011W        W85611  14.866  26.763   2.801
15012W        W85612  10.911  32.465  14.245
15013W        W85613  21.482  31.074   1.367
15014W        W85614   0.766  28.448   0.157
15015W        W85615  28.619  11.459  14.899
15016W        W85616  16.815  20.758  11.243
15017W        W85617   1.756  19.834   1.310
15018W        W85618   5.390   1.006   3.053
15019W        W85619  37.839   3.326   1.325
15020W        W85620  32.657   6.796  11.348
15021W        W85621  39.508  33.874   3.656
15022W        W85622   4.485   2.878  11.481
15023W        W85623   9.387   7.789  11.506
15024W        W85624   7.646  42.482   3.381
15025W        W85625  34.971  38.163   0.913
15026W        W85626  27.720  43.971   4.192
15027W        W85627  20.259   7.691   2.745
15028W        W85628  22.384   7.202  13.611
15029W        W85629  13.696   2.038   0.879
15030W        W85630  22.583  24.213   2.892
15031W        W85631  36.533  21.498   4.223
15032W        W85632  20.372  17.808   4.635
15033W        W85633  14.104  25.226   4.155
15034W        W85634  34.954   3.439  10.718
15035W        W85635   8.927  39.988   3.574
15036W        W85636   8.374  17.275  10.316
15037W        W85637  26.632  10.759   2.958
15038W        W85638  22.008  15.146   1.081
15039W        W85639  40.357  42.541   2.764
15040W        W85640  32.437  28.977  10.648
15041W        W85641  27.242   4.608  11.923
15042W        W85642  15.101  39.924  10.303
15043W        W85643  16.048  37.879  13.416
15044W        W85644  40.625  18.115  13.865
15045W        W85645  39.545   2.371  10.752
15046W        W85646  17.035  42.387   4.763
15047W        W85647  35.141  34.350   2.921
15048W        W85648  30.687   0.303   1.005
15049W        W85649  15.990  42.463   3.335
15050W        W85650  20.049  14.147   2.912
15051W        W85651  42.903   5.872   2.783
15052W        W85652   4.533  13.069  11.711
15053W        W85653   1.280  30.460  11.442
15054W        W85654  17.726  12.349  14.244
15055W        W85655  36.673  15.196   1.727
15056W        W85656  36.977   0.535  13.575
15057W        W85657  25.491   7.435  14.621
15058W        W85658  12.466  16.906   4.200
15059W        W85659  44.780  12.933   1.268
15060W        W85660  16.700  39.460  12.464
15061W        W85661  32.182   7.003  10.665
15062W        W85662  24.971  31.192  14.478
15063W        W85663   3.503  42.135  13.559
15064W        W85664  16.810   7.394  11.157
15065W        W85665   3.669  35.968   3.550
15066W        W85666  43.231   1.883   0.203
15067W        W85667  26.879  13.105  13.769
15068W        W85668   6.583  30.815  12.339
15069W        W85669  37.007  18.766   0.244
15070W        W85670  31.110  15.316  11.483
15071W        W85671  23.155  11.074   5.715
15072W        W85672  10.507  34.046  12.293
15073W        W85673  25.992  43.774  13.469
15074W        W85674  44.895   6.543  14.964
15075W        W85675  15.453  28.682  14.891
15076W        W85676  34.912  35.136  12.371
15077W        W85677   9.126  16.954  14.946
15078W        W85678   8.937  24.993   1.421
15079W        W85679  25.691  39.514  14.921
15080W        W85680  18.760  22.816  14.941
15081W        W85681  36.617  11.168  13.070
15082W        W85682  36.948  40.228  13.797
15083W        W85683   3.728  32.206  12.683
15084W        W85684  14.791  29.011   1.809
15085W        W85685  37.904   4.737   3.242
15086W        W85686  15.386  25.788   2.108
15087W        W85687  22.014  43.535   1.901
15088W        W85688  29.230  38.456   3.632
15089W        W85689  35.681  38.568   1.383
15090W        W85690  44.698  21.780   2.367
15091W        W85691  33.120  35.833  14.399
15092W        W85692  13.994  42.780  10.714
15093W        W85693  29.726  25.199  10.075
15094W        W85694  26.951  29.069   2.256
15095W        W85695  11.251  21.718  14.781
15096W        W85696  12.619  21.197  11.259
15097W        W85697  13.541  21.603  11.002
15098W        W85698  28.329  14.280   2.583
15099W        W85699  18.096  31.202  13.786
15100W        W85700  17.766  33.662  12.999
15101W        W85701  44.922  14.700   0.013
15102W        W85702  18.795   9.282  14.287
15103W        W85703   6.223   2.322   2.318
15104W        W85704  19.983  31.565  11.190
15105W        W85705  30.923  29.294  12.086
15106W        W85706   6.343  30.369  11.207
15107W        W85707  18.082  20.151  11.858
15108W        W85708  37.049  40.278   4.139
15109W        W85709  32.107   0.812  14.785
15110W        W85710   9.337  28.219   1.701
15111W        W85711  11.639  43.898  11.378
15112W        W85712  33.627  42.771   2.789
15113W        W85713  44.025  33.698  10.587
15114W        W85714  20.712  15.211  12.901
15115W        W85715   8.166   6.789  10.718
15116W        W85716  29.485   8.713  10.800
15117W        W85717  22.178   9.241   2.222
15118W        W85718   0.774  14.002  10.667
15119W        W85719  28.557  14.231  12.905
15120W        W85720  36.894   0.859   3.195
15121W        W85721   6.746  43.358  13.943
15122W        W85722   5.700  27.057   0.348
15123W        W85723  39.755  37.002   0.853
15124W        W85724   0.521   4.752  12.374
15125W        W85725   5.507  28.685  13.928
15126W        W85726  13.701  26.710   4.281
15127W        W85727  31.956   7.298  10.238
15128W        W85728  37.414  32.521  12.981
15129W        W85729  35.134  20.428  13.246
15130W        W85730  29.663   0.315  13.082
15131W        W85731  24.104  20.854   3.294
15132W        W85732  10.397  37.384   2.427
15133W        W85733  31.949  10.087   4.968
15134W        W85734  25.473   2.218  12.461
15135W        W85735  37.286  21.179   3.601
15136W        W85736  32.083   9.765  12.972
15137W        W85737  30.109  39.353   1.357
15138W        W85738  15.927  31.317  10.234
15139W        W85739  15.935   0.104  13.860
15140W        W85740  36.034  39.808   1.882
15141W        W85741  10.977  24.625  12.575
15142W        W85742  27.487  44.541   1.349
15143W        W85743   5.718  37.367   3.791
15144W        W85744   0.531  33.736  13.789
15145W        W85745  40.761   3.576   2.484
15146W        W85746  28.036  10.813   1.189
15147W        W85747  27.142  20.758   2.330
15148W        W85748  43.571  14.739   0.710
15149W        W85749  21.728  35.555   4.228
15150W        W85750  33.436  13.037  11.150
15151W        W85751   1.233   2.850   4.675
15152W        W85752  27.535   1.680  14.455
15153W        W85753  24.672  12.849  13.336
15154W        W85754  29.712   0.815   3.761
15155W        W85755   2.368  20.600   3.151
15156W        W85756   0.542  35.957  14.267
15157W        W85757  26.046  31.507   0.358
15158W        W85758  24.525  24.395  14.170
15159W        W85759  22.993  42.761   3.271
15160W        W85760  21.628  16.343   4.601
15161W        W85761  33.074   8.469   1.764
15162W        W85762  27.084  31.094   4.638
15163W        W85763  24.641  21.042  10.714
15164W        W85764  26.145  25.426   3.859
15165W        W85765   8.218   7.298   4.866
15166W        W85766   9.796  11.104  11.120
15167W        W85767  12.818  25.437   2.328
15168W        W85768   0.796  23.699  14.587
15169W        W85769  26.256   7.418   0.409
15170W        W85770   9.253  11.201  13.111
15171W        W85771  38.350   7.659  10.662
15172W        W85772  39.824   0.364   4.851
15173W        W85773  22.017  13.845   1.774
15174W        W85774  14.567  12.052  11.077
15175W        W85775  20.664  33.848   4.666
15176W        W85776  36.586  15.884   2.140
15177W        W85777  16.165  24.044   4.372
15178W        W85778   1.807  37.297   1.913
15179W        W85779  39.881  31.377  13.831
15180W        W85780  20.604  22.607  11.950
15181W        W85781   5.370   9.167  13.010
15182W        W85782  29.540  33.978  12.604
15183W        W85783  23.343  23.562   1.161
15184W        W85784  32.220  36.334   4.526
15185W        W85785  35.055   3.900  12.821
15186W        W85786   5.345  17.041   0.398
15187W        W85787  29.603  31.313   3.873
15188W        W85788  10.051  43.606   1.280
15189W        W85789  41.826  37.289  14.435
15190W        W85790  36.608  19.996   1.884
15191W        W85791  16.827  10.161   3.211
15192W        W85792   8.903  20.200  14.832
15193W        W85793  44.772  26.594   3.684
15194W        W85794  35.507  35.491   0.519
15195W        W85795  43.994  40.979  10.668
15196W        W85796  43.081  37.235   5.013
15197W        W85797  29.324  35.803   2.335
15198W        W85798  16.506   3.893  13.587
15199W        W85799  28.638  10.966  14.965
15200W        W85800   2.249  44.314  11.690
15201W        W85801  27.591  13.863   2.421
15202W        W85802  21.979  28.875   3.343
15203W        W85803  12.745  13.143  11.473
15204W        W85804  30.574  42.855   1.537
15205W        W85805  11.639  15.183  14.294
15206W        W85806  37.895   5.300   2.997
15207W        W85807  24.580   9.501  11.421
15208W        W85808   5.767  17.850   0.360
15209W        W85809   6.802  17.291   1.354
15210W        W85810  32.120  36.863   1.897
15211W        W85811  11.082   4.950   1.729
15212W        W85812  23.007   5.746   4.669
15213W        W85813  12.813  28.529  11.015
15214W        W85814  37.393  25.303  14.740
15215W        W85815  30.653  18.584   2.564
15216W        W85816  36.807  19.090   2.758
15217W        W85817  14.235  32.019  10.284
15218W        W85818  38.867  18.717  11.062
15219W        W85819   7.299  35.326  11.116
15220W        W85820  26.190   2.858  10.679
15221W        W85821   3.386  10.414  13.955
15222W        W85822  39.065  10.171  10.755
15223W        W85823  26.982  33.381  10.408
15224W        W85824  34.945  39.583  12.984
15225W        W85825   0.042  26.002  10.613
15226W        W85826   9.884  18.737   2.858
15227W        W85827  21.075   4.873   0.078
15228W        W85828  21.140  37.692  14.342
15229W        W85829  17.480  35.824  12.589
15230W        W85830  19.701  24.667   2.692
15231W        W85831   4.213  41.333   4.369
15232W        W85832   4.925  21.562   0.007
15233W        W85833   6.395  44.867  14.318
15234W        W85834  33.402  22.938  11.254
15235W        W85835  22.189  22.230   4.203
15236W        W85836  13.125  41.845  14.864
15237W        W85837  44.223   0.495  14.039
15238W        W85838  23.591  41.886   3.966
15239W        W85839  37.008  32.700  14.733
15240W        W85840   3.902  43.976  14.826
15241W        W85841  38.762  14.372  13.038
15242W        W85842  27.468  41.753   0.778
15243W        W85843  32.306  44.763  12.024
15244W        W85844   3.268  21.679   4.685
15245W        W85845  28.492  21.644   0.442
15246W        W85846  23.716  34.048  12.110
15247W        W85847  16.550  23.685  12.951
15248W        W85848   1.933  12.671  13.952
15249W        W85849  42.366  36.867  10.909
15250W        W85850  26.434  22.138  11.216
15251W        W85851   6.602  27.348   3.636
15252W        W85852  38.392  28.106  13.890
15253W        W85853   1.691   3.808   2.944
15254W        W85854  12.146  25.197  11.335
15255W        W85855  16.023  17.390  11.010
15256W        W85856  42.852  17.785   2.289
15257W        W85857  14.116  43.333   3.615
15258W        W85858  11.902  14.635   1.214
15259W        W85859   1.974  37.714  13.141
15260W        W85860  11.413  16.564   1.805
15261W        W85861   2.062  27.155  13.458
15262W        W85862  29.002  29.373  14.450
15263W        W85863   4.805  11.884   2.111
15264W        W85864  24.061  23.651   4.185
15265W        W85865  33.090  19.043   4.233
15266W        W85866  34.374  11.115   3.249
15267W        W85867  35.114  25.670  10.434
15268W        W85868   4.718   7.699  13.855
15269W        W85869  27.004  25.932  12.048
15270W        W85870  18.496  37.857  10.688
15271W        W85871  10.733  33.513  10.771
15272W        W85872  42.299  21.513   2.290
15273W        W85873  11.437  27.922  14.516
15274W        W85874   3.256  14.702  14.470
15275W        W85875  31.100   3.263  10.641
15276W        W85876  33.171  22.182   1.181
15277W        W85877  41.414  21.006  12.436
15278W        W85878  28.412  28.861  12.081
15279W        W85879  15.114  15.215   3.941
15280W        W85880  40.871  18.356  13.454
15281W        W85881  34.547   9.718  11.150
15282W        W85882  14.015  20.020   2.453
15283W        W85883  21.798   1.198  13.481
15284W        W85884  30.914  33.962  11.498
15285W        W85885  26.370  31.139  13.503
15286W        W85886  22.149  25.347   0.562
15287W        W85887  35.511  30.370  12.850
15288W        W85888  37.121  21.688   0.521
15289W        W85889  23.038  39.022   2.698
15290W        W85890  17.624  38.884  12.427
15291W        W85891   1.955   1.951   2.393
15292W        W85892  42.054  30.020   3.264
15293W        W85893  20.533   9.384   5.124
15294W        W85894  42.542   5.966  13.824
15295W        W85895  40.809  20.561   4.114
15296W        W85896   6.246  18.113   0.365
15297W        W85897   8.400  12.793  12.744
15298W        W85898  33.882  20.527   1.500
15299W        W85899  30.447  29.052   4.605
15300W        W85900  27.426  20.673   1.737
15301W        W85901  21.983  17.011   3.722
15302W        W85902  31.295  44.405  14.418
15303W        W85903  37.143  36.833  12.686
15304W        W85904  28.740  38.611  12.583
15305W        W85905  24.507  29.705  10.857
15306W        W85906  18.760  24.030   0.454
15307W        W85907   9.839  41.248   3.769
15308W        W85908  11.850  10.398  11.565
15309W        W85909   1.343  38.208   4.695
15310W        W85910  34.201  19.505   2.748
15311W        W85911  35.584  18.540  13.365
15312W        W85912  12.708  30.351   3.274
15313W        W85913   9.279  35.924  10.561
15314W        W85914   8.236  29.392  10.622
15315W        W85915  29.700  33.998  11.691
15316W        W85916   6.372  13.033  11.694
15317W        W85917   0.498   4.952   2.274
15318W        W85918   6.557  30.038   4.960
15319W        W85919  28.341  29.528  12.995
15320W        W85920  27.463   0.482  14.082
15321W        W85921  43.303  15.574   1.949
15322W        W85922  33.384  14.547  11.099
15323W        W85923  40.298  28.481  11.103
15324W        W85924  43.697  14.965   2.018
15325W        W85925  13.593   7.371  12.894
15326W        W85926   3.543  34.920   0.527
15327W        W85927  38.558  10.361   3.615
15328W        W85928  23.808  40.034   4.215
15329W        W85929  35.331  37.614  11.600
15330W        W85930  36.533  31.011   3.821
15331W        W85931  44.195  27.017   2.190
15332W        W85932  34.097   7.255  13.256
15333W        W85933   9.728  44.538  12.992
15334W        W85934  35.564  34.619   2.791
15335W        W85935  42.081  35.439  11.630
15336W        W85936   2.931  34.109   0.071
15337W        W85937  30.586  36.675   3.131
15338W        W85938  17.040  32.513   1.760
15339W        W85939  16.235  27.525   2.866
15340W        W85940  36.026   0.350  13.918
15341W        W85941  16.846  29.713  14.480
15342W        W85942  24.319   0.681  11.332
15343W        W85943  20.007  14.044  11.186
15344W        W85944   1.342   1.840   2.802
15345W        W85945  19.649  15.096   1.895
15346W        W85946   7.639   6.239   4.480
15347W        W85947   4.677  21.957  11.570
15348W        W85948  41.439   9.266   4.729
15349W        W85949  10.222  37.122  12.977
15350W        W85950  17.518  36.305  13.938
15351W        W85951  41.063  25.284  11.616
15352W        W85952  44.881  10.170  10.811
15353W        W85953  40.569  16.937  14.887
15354W        W85954   4.853  29.684   0.549
15355W        W85955  42.029  18.265   0.304
15356W        W85956   6.633  29.483  12.583
15357W        W85957  18.215  44.764   3.922
15358W        W85958  23.283   1.525   1.333
15359W        W85959  24.670   6.803  11.217
15360W        W85960   1.330  28.175   4.588
15361W        W85961  24.700  39.373   1.877
15362W        W85962  32.929  22.251  12.480
15363W        W85963  33.117  23.289   0.832
15364W        W85964  41.443  17.277  12.515
15365W        W85965   4.844   8.229  10.601
15366W        W85966  34.864  17.049  13.947
15367W        W85967  44.776  14.007   2.396
15368W        W85968  11.484   7.291   2.842
15369W        W85969   1.901  31.857   4.512
15370W        W85970  31.151  34.309  12.440
15371W        W85971  23.205  38.120   4.087
15372W        W85972  13.785  25.977  14.751
15373W        W85973  13.209  26.406  14.442
15374W        W85974  28.245  35.268   4.155
15375W        W85975  37.476  12.942   0.179
15376W        W85976  21.507   1.886  13.461
15377W        W85977   2.806   6.794   0.988
15378W        W85978   5.910  31.215   0.459
15379W        W85979  24.905  36.905  14.809
15380W        W85980   3.664  10.794   0.680
15381W        W85981  33.106   7.732   0.608
15382W        W85982  14.808   4.716   3.358
15383W        W85983   4.212  27.592   0.685
15384W        W85984  32.487  27.778  11.871
15385W        W85985  36.931  17.149  14.017
15386W        W85986  14.367   8.664  11.416
15387W        W85987   4.429  26.969  12.300
15388W        W85988  30.114  21.473  12.168
15389W        W85989  33.097  14.097   4.374
15390W        W85990  21.501  20.922  14.342
15391W        W85991  41.393  34.914   0.048
15392W        W85992   1.714   0.565   4.167
15393W        W85993  25.725  19.511   3.154
15394W        W85994   0.451   8.307   1.381
15395W        W85995  29.071  35.262  13.983
15396W        W85996  28.501  28.400   4.158
15397W        W85997  15.234  40.057   0.807
15398W        W85998   6.401   6.384   0.834
15399W        W85999  43.357  43.180  14.312
15400W        W86000  24.219  17.705  12.455
15401W        W86001  23.396   4.870  10.812
15402W        W86002   3.637  28.600   4.525
15403W        W86003  11.192  37.845   4.199
15404W        W86004   6.702   6.007  14.550
15405W        W86005  30.848  13.377   1.937
15406W        W86006  15.559  43.851  12.415
15407W        W86007   9.896  31.046   1.668
15408W        W86008   9.690  23.453   5.031
15409W        W86009  42.486  32.686   3.784
15410W        W86010  38.748   0.378   0.116
15411W        W86011  22.619   4.936  12.020
15412W        W86012  11.894   7.207   0.694
15413W        W86013  42.429  12.170   2.941
15414W        W86014  38.779  22.117   4.388
15415W        W86015   3.371   6.486  14.317
15416W        W86016   7.891  31.634  14.770
15417W        W86017  12.731  24.969  12.639
15418W        W86018  27.287  19.194   3.563
15419W        W86019  37.296  40.829   4.674
15420W        W86020  10.709  44.940  12.433
15421W        W86021  16.035  39.487  10.708
15422W        W86022  20.038  25.521   3.618
15423W        W86023  13.121   8.207   4.185
15424W        W86024   2.206  36.997   0.918
15425W        W86025  16.247  44.345  10.794
15426W        W86026  35.634  18.815   4.240
15427W        W86027  25.848  24.137  11.607
15428W        W86028  12.443  30.576  14.407
15429W        W86029  41.820   1.491  14.507
15430W        W86030   2.784  43.978   0.219
15431W        W86031  25.718  15.079  13.444
15432W        W86032   6.833  40.121  14.415
15433W        W86033  10.359  33.493   4.575
15434W        W86034   8.887  44.829  13.065
15435W        W86035   3.797  40.806   0.286
15436W        W86036   5.181   2.449   1.358
15437W        W86037  27.675   0.716   1.898
15438W        W86038   3.210  11.678   2.500
15439W        W86039  25.460  26.849   1.676
15440W        W86040  36.290  41.677   4.496
15441W        W86041  21.788  12.054   1.880
15442W        W86042  28.576  19.568  11.147
15443W        W86043   9.297  12.199   4.349
15444W        W86044   5.502  36.062   1.373
15445W        W86045  12.280   5.234  13.860
15446W        W86046  11.380  42.240   1.400
15447W        W86047  10.675  14.636  12.089
15448W        W86048  17.573   4.865  12.953
15449W        W86049   6.482  19.596   2.831
15450W        W86050  30.299  25.988  10.586
15451W        W86051   4.368  30.548   2.302
15452W        W86052  31.921  29.031  11.614
15453W        W86053  15.900   4.894  12.453
15454W        W86054  37.483  12.678   2.080
15455W        W86055   5.698  40.321  11.108
15456W        W86056   7.623   0.388  13.766
15457W        W86057  13.690  42.820   0.040
15458W        W86058  19.166  15.439  11.243
15459W        W86059  14.165   3.613  11.088
15460W        W86060   9.751  11.831   2.296
15461W        W86061  19.787  35.483   2.310
15462W        W86062  26.760  41.769   1.140
15463W        W86063  23.984  35.427  13.811
15464W        W86064  27.637  14.182  10.719
15465W        W86065  43.467  23.611  14.030
15466W        W86066   1.052  36.410  12.669
15467W        W86067  38.164  34.170   0.024
15468W        W86068  34.856  29.498  14.841
15469W        W86069  16.838  43.877  12.003
15470W        W86070  34.776  10.550  10.623
15471W        W86071   3.071  11.772  14.869
15472W        W86072  24.651  18.189   2.218
15473W        W86073  16.770  14.952  12.024
15474W        W86074   5.320  29.087  14.739
15475W        W86075  15.998  22.928   1.775
15476W        W86076   6.401   7.234   0.223
15477W        W86077  40.381   9.964   2.362
15478W        W86078  41.863  14.622  11.864
15479W        W86079   3.523  42.102   4.970
15480W        W86080  35.883  17.755  11.629
15481W        W86081  14.865   5.666   0.254
15482W        W86082   9.688  32.067   4.018
15483W        W86083  11.827   8.749   2.170
15484W        W86084   5.258  17.851  14.971
15485W        W86085  11.704  18.680   0.790
15486W        W86086  38.334  42.743   0.594
15487W        W86087   6.677  44.525  14.928
15488W        W86088  39.283   8.737  12.047
15489W        W86089  25.638  15.769   1.660
15490W        W86090  35.668  14.178  12.678
15491W        W86091  17.657  34.810  13.890
15492W        W86092  37.784  44.502  14.293
15493W        W86093  42.533  20.294   1.846
15494W        W86094  30.098   6.225  13.297
15495W        W86095  16.993  39.630   0.189
15496W        W86096  34.307  24.749  11.594
15497W        W86097  33.824  16.384   2.382
15498W        W86098  37.396  44.711   1.789
15499W        W86099  37.438  14.805   0.026
15500W        W86100   9.056  19.341   1.783
15501W        W86101  43.350  13.339   3.932
15502W        W86102  28.884  18.666   0.607
15503W        W86103   5.381  23.292  10.649
15504W        W86104  39.099  30.523   2.263
15505W        W86105  20.613  16.168  11.172
15506W        W86106  33.118  38.972  13.996
15507W        W86107  40.942  26.718   2.028
15508W        W86108  10.300   3.903  11.703
15509W        W86109  38.010  34.076  11.034
15510W        W86110  27.564  31.944   1.401
15511W        W86111  14.290  44.414  12.955
15512W        W86112  30.042  13.168   0.486
15513W        W86113   1.341   8.227   2.848
15514W        W86114  12.153  37.135   1.417
15515W        W86115   4.714   5.792   2.204
15516W        W86116  17.051  14.220   0.983
15517W        W86117   2.464   9.128  10.735
15518W        W86118  35.099   2.965  14.448
15519W        W86119   0.242  27.613  14.275
15520W        W86120  40.559  25.228  10.716
15521W        W86121  14.210  25.599  14.628
15522W        W86122  40.000  24.171  10.551
15523W        W86123  38.886  43.844   0.218
15524W        W86124  18.749  24.740  14.765
15525W        W86125  28.882  26.535   3.861
15526W        W86126  11.137   9.975  13.457
15527W        W86127  14.060  38.573  14.970
15528W        W86128  34.369   8.427  11.632
15529W        W86129  38.519   2.425  13.629
15530W        W86130   7.460  19.564  13.006
15531W        W86131  42.546  37.310  11.101
15532W        W86132  20.081  22.043   0.752
15533W        W86133   6.665   4.253   2.601
15534W        W86134  38.266  42.650  11.939
15535W        W86135  30.524  40.276   2.265
15536W        W86136   0.218  23.959  11.993
15537W        W86137   6.995   5.798   3.637
15538W        W86138  10.642  14.347   4.280
15539W        W86139  36.114  36.020  12.989
15540W        W86140  30.601  13.907   3.635
15541W        W86141  29.239  22.947  14.439
15542W        W86142   1.867   6.797   4.599
15543W        W86143  36.761   1.166   1.866
15544W        W86144  26.235  15.650   5.055
15545W        W86145  28.115  15.391   1.385
15546W        W86146  12.579  42.988   2.667
15547W        W86147   6.258  13.221   2.943
15548W        W86148  13.692  27.168  10.711
15549W        W86149   3.345  38.783   2.801
15550W        W86150  28.185  23.301   3.383
15551W        W86151  14.138  27.234   3.047
15552W        W86152   5.077  12.216  10.758
15553W        W86153   6.175  38.792   2.423
15554W        W86154  37.569  33.628  10.441
15555W        W86155  37.358  39.090   5.380
15556W        W86156  22.117  10.062   1.204
15557W        W86157  42.849   0.449  11.525
15558W        W86158  19.121  17.749   0.734
15559W        W86159  19.101  37.114   0.890
15560W        W86160  16.703  20.482  11.672
15561W        W86161   6.884  24.798   0.325
15562W        W86162  36.616  18.187   0.933
15563W        W86163  19.559   7.104   0.753
15564W        W86164  42.432   7.411  12.741
15565W        W86165  24.533   4.031  11.211
15566W        W86166  26.741   8.293   1.788
15567W        W86167   5.125  44.977   3.751
15568W        W86168   7.133  40.928  10.655
15569W        W86169  28.290   5.098   0.241
15570W        W86170   3.721  13.285   4.605
15571W        W86171   3.413  26.200  12.614
15572W        W86172   1.364   6.007   1.176
15573W        W86173   8.267  38.352   0.706
15574W        W86174   9.506  19.908  14.531
15575W        W86175  14.217  40.384  10.979
15576W        W86176  11.355  19.657   4.353
15577W        W86177  32.538  30.529  12.546
15578W        W86178  34.963  34.104   0.296
15579W        W86179  13.331   2.363  14.865
15580W        W86180  37.130  43.356  12.837
15581W        W86181   9.666   6.334  10.989
15582W        W86182  25.113   7.651  13.552
15583W        W86183  32.630   6.190   2.864
15584W        W86184  15.941  14.494  10.732
15585W        W86185  40.497  38.965  11.731
15586W        W86186  30.129  27.082   1.395
15587W        W86187  21.218   3.461   2.749
15588W        W86188  10.632  27.502  11.758
15589W        W86189  26.797  15.612  14.760
15590W        W86190  20.768  36.674  10.781
15591W        W86191   2.728   1.602   4.264
15592W        W86192   3.634  12.102   0.861
15593W        W86193  10.136  11.259  10.722
15594W        W86194   2.336  35.917   1.261
15595W        W86195  12.155   1.047  13.973
15596W        W86196   0.536  31.885   0.454
15597W        W86197  39.884  18.419  11.840
15598W        W86198  27.630  16.312  12.535
15599W        W86199  16.672   8.796   3.134
15600W        W86200  22.571  43.356  14.687
15601W        W86201  37.590  10.887  13.879
15602W        W86202  23.545   5.818   2.100
15603W        W86203  23.433   5.672  10.787
15604W        W86204  11.137  35.979  14.523
15605W        W86205  19.768   6.915   1.553
15606W        W86206  29.385  38.985   0.387
15607W        W86207  11.437  14.790   2.819
15608W        W86208  36.846  37.803   0.763
15609W        W86209  26.946  43.413   4.095
15610W        W86210  30.733  24.621  11.533
15611W        W86211   8.831  26.924   3.726
15612W        W86212   1.012  38.955  14.347
15613W        W86213  40.543   8.624  13.768
15614W        W86214  32.677  27.998   1.149
15615W        W86215  22.540  33.099  14.395
15616W        W86216  18.498  39.976   2.889
15617W        W86217  31.403  26.744   0.388
15618W        W86218  26.584   8.929  10.457
15619W        W86219   2.367  14.025   4.512
15620W        W86220   7.323  33.386  14.919
15621W        W86221  36.720  36.169   0.360
15622W        W86222  35.458   1.885   4.515
15623W        W86223  14.643  22.716  12.545
15624W        W86224  37.363   4.215   2.757
15625W        W86225   3.984  22.507   0.926
15626W        W86226  21.806  11.851  14.802
15627W        W86227  13.114  35.704  12.986
15628W        W86228  18.090   3.964  13.762
15629W        W86229  25.137  16.461  13.515
15630W        W86230   5.665   8.688  13.024
15631W        W86231   0.826  32.688  10.451
15632W        W86232  24.293  26.048   3.587
15633W        W86233  21.115   9.319   3.098
15634W        W86234  30.786  43.432   2.194
15635W        W86235  32.130  37.941   0.244
15636W        W86236  10.223  16.315  10.708
15637W        W86237  10.092  28.660   1.650
15638W        W86238  34.138   6.789   2.203
15639W        W86239   0.947   2.857   4.240
15640W        W86240  16.570  37.324  11.874
15641W        W86241  18.284   5.908   0.303
15642W        W86242  16.784  14.822   3.630
15643W        W86243  17.980  35.310   0.289
15644W        W86244  34.401  19.774   2.295
15645W        W86245  10.070  28.453   1.182
15646W        W86246   7.000  29.928   4.099
15647W        W86247   0.250  10.707   0.801
15648W        W86248  26.060  37.424   4.129
15649W        W86249  11.113  15.511  12.594
15650W        W86250  20.253  23.669  12.409
15651W        W86251  21.530  14.415   0.041
15652W        W86252  15.366   1.282  12.873
15653W        W86253  18.826  39.532   2.870
15654W        W86254  20.281  17.651   3.434
15655W        W86255   6.795  44.181  12.843
15656W        W86256  12.842  19.073  13.910
15657W        W86257   5.346  32.141  12.923
15658W        W86258   2.343  35.923   3.681
15659W        W86259  38.249  18.891  14.103
15660W        W86260  32.836  37.334  10.674
15661W        W86261  42.005  42.291   1.817
15662W        W86262  38.360  24.899  13.827
15663W        W86263  34.614  30.620   2.212
15664W        W86264  20.230  15.253  14.638
15665W        W86265  18.229  21.517  14.908
15666W        W86266  38.566  17.229  14.777
15667W        W86267  42.759   7.332  14.390
15668W        W86268  35.709  37.060  10.723
15669W        W86269  16.250  16.675  13.917
15670W        W86270  39.738  10.718   1.460
15671W        W86271   9.456   0.952  10.622
15672W        W86272  14.585  44.988   0.243
15673W        W86273  13.335  16.451  13.332
15674W        W86274  39.908  42.995  10.134
15675W        W86275   8.394  12.750   0.715
15676W        W86276  19.174  15.834   1.757
15677W        W86277  28.674   5.821   2.429
15678W        W86278  15.416   9.962  12.128
15679W        W86279   8.241   0.783   1.665
15680W        W86280  39.325  13.328   2.732
15681W        W86281  27.058   7.042   2.868
15682W        W86282   9.763   2.992  11.185
15683W        W86283  43.566  13.674   1.634
15684W        W86284   8.888  40.750  13.893
15685W        W86285  43.065  34.721  13.653
15686W        W86286  11.393  20.287   2.371
15687W        W86287  38.291  11.720   0.308
15688W        W86288  26.364  26.999   3.809
15689W        W86289   2.263  18.319  10.647
15690W        W86290  15.016   4.293   0.521
15691W        W86291   8.208  29.949  11.598
15692W        W86292  19.309  36.901  11.263
15693W        W86293  17.337  16.702  13.114
15694W        W86294   1.055  31.126  14.060
15695W        W86295  29.905   9.778  14.906
15696W        W86296  38.283  26.018  11.212
15697W        W86297   1.775   8.810  12.111
15698W        W86298  29.994  28.396  14.018
15699W        W86299  21.429  37.122   1.763
15700W        W86300  38.138   9.885  11.835
15701W        W86301   6.857  43.645  11.161
15702W        W86302  26.669  36.475  13.213
15703W        W86303  20.916   8.413  12.613
15704W        W86304  11.110  10.682   2.473
15705W        W86305  39.579  33.610   0.865
15706W        W86306  14.133  10.113  13.920
15707W        W86307  40.043   8.870   3.219
15708W        W86308  22.095  19.133  11.979
15709W        W86309  23.327   1.018   2.121
15710W        W86310  15.451  35.014  12.962
15711W        W86311  12.250   8.412   2.376
15712W        W86312  12.065  10.832  14.887
15713W        W86313   6.882  20.812  13.306
15714W        W86314   3.716  37.735   3.811
15715W        W86315  41.055  35.167  14.700
15716W        W86316  30.463   5.753  14.363
15717W        W86317  17.784  44.288   2.890
15718W        W86318  31.856  31.640   3.664
15719W        W86319  18.826  17.219   3.711
15720W        W86320   9.484   0.315   0.858
15721W        W86321   6.677   3.208   2.684
15722W        W86322  11.848  38.520  11.187
15723W        W86323   4.959  33.649   2.313
15724W        W86324  19.238  11.478   0.874
15725W        W86325  33.418  36.475   3.867
15726W        W86326  23.249  10.341   2.659
15727W        W86327  32.175  34.975   3.082
15728W        W86328  13.687  24.120   0.759
15729W        W86329  26.954  37.199  11.514
15730W        W86330   8.885  10.102   4.099
15731W        W86331   6.217  18.670  14.967
15732W        W86332  40.599  12.270  11.986
15733W        W86333  20.479  28.018   2.412
15734W        W86334   5.805  11.816   0.231
15735W        W86335  37.328  39.306  11.858
15736W        W86336  36.178  10.699  14.828
15737W        W86337  26.703  13.197  12.836
15738W        W86338  13.894  33.999  13.536
15739W        W86339  25.027   1.525   2.487
15740W        W86340  34.936  28.501  12.529
15741W        W86341  41.050  17.231   3.803
15742W        W86342  24.943  27.511  13.109
15743W        W86343  10.641  34.326   1.850
15744W        W86344  15.113   5.628   2.413
15745W        W86345  38.350  12.578   2.141
15746W        W86346  39.501  35.978   2.200
15747W        W86347  36.438  21.464   1.729
15748W        W86348  20.489  32.056   2.862
15749W        W86349  36.492  15.208  10.627
15750W        W86350  41.095   3.815   5.048
15751W        W86351   0.908  35.264  13.315
15752W        W86352  26.963  40.905   1.454
15753W        W86353   4.181  16.034  14.597
15754W        W86354  26.316  16.103  11.158
15755W        W86355  35.656   8.821   1.697
15756W        W86356  25.000  38.701  13.610
15757W        W86357  32.686  43.331   2.641
15758W        W86358  21.716  34.830   1.964
15759W        W86359  36.182  39.630  11.215
15760W        W86360  11.702  19.072   0.388
15761W        W86361   5.910  19.781  14.285
15762W        W86362  27.925   9.473  10.962
15763W        W86363   8.199  33.526  12.950
15764W        W86364  35.775  16.107   1.582
15765W        W86365  13.697  18.319  12.003
15766W        W86366  28.529  15.316  13.874
15767W        W86367  29.736  27.698   4.595
15768W        W86368   4.505  29.949   4.098
15769W        W86369   2.020  21.836  13.382
15770W        W86370  25.654  42.990   5.059
15771W        W86371  16.816  16.152  14.362
15772W        W86372  25.653  33.974  13.642
15773W        W86373  42.402  40.299  11.539
15774W        W86374  11.710  25.239  12.655
15775W        W86375  21.745  27.063   0.002
15776W        W86376   8.888  15.653   4.225
15777W        W86377  22.615   0.862  14.091
15778W        W86378  25.210  34.195  14.857
15779W        W86379  35.016  27.878  11.644
15780W        W86380   4.142  30.095   2.200
15781W        W86381  34.008   1.738  14.782
15782W        W86382  34.021  44.499   4.617
15783W        W86383   2.300  44.879  14.915
15784W        W86384   8.358  33.144   0.992
15785W        W86385  11.276   5.287   0.295
15786W        W86386  30.167  29.185  11.193
15787W        W86387  25.992   8.274   4.280
15788W        W86388  36.612  18.271  13.545
15789W        W86389   2.679  40.763  12.070
15790W        W86390  44.564  30.167  14.380
15791W        W86391  34.836  10.336   3.139
15792W        W86392  19.137  14.178   0.369
15793W        W86393   3.950   2.193   4.906
15794W        W86394  20.440  27.336  12.078
15795W        W86395   0.553  26.664  14.930
15796W        W86396  38.062   7.243  12.782
15797W        W86397  29.781  41.406   1.129
15798W        W86398  42.740   7.924  13.558
15799W        W86399  24.061   8.861  14.666
15800W        W86400  21.429  29.888  14.394
15801W        W86401  41.834  23.060  13.337
15802W        W86402  22.311  17.361  12.368
15803W        W86403  27.593   4.342   4.863
15804W        W86404   8.927  27.563  11.434
15805W        W86405  29.685  19.516   5.044
15806W        W86406  20.733  26.731   2.585
15807W        W86407  20.897  42.797  11.482
15808W        W86408  33.992   9.188   4.109
15809W        W86409  36.455  40.929   2.563
15810W        W86410  43.566  31.670  12.869
15811W        W86411  36.902  18.490  14.819
15812W        W86412   3.878  10.813   2.221
15813W        W86413   5.209  42.199  14.954
15814W        W86414  18.565   0.521  12.894
15815W        W86415  15.173  27.371   1.969
15816W        W86416  19.687  15.319  12.136
15817W        W86417  24.255  23.054  11.006
15818W        W86418  40.861  21.271  11.666
15819W        W86419  22.783  39.991   4.530
15820W        W86420  37.466   5.463   3.250
15821W        W86421  17.295  10.386  11.255
15822W        W86422  15.906   3.999   2.856
15823W        W86423  30.103  17.509  13.173
15824W        W86424  18.105  15.312   1.865
15825W        W86425  10.289  13.706  13.985
15826W        W86426  42.316   2.911  12.922
15827W        W86427  30.862   7.310   0.864
15828W        W86428  41.710   8.736  12.367
15829W        W86429  15.187  24.489   4.479
15830W        W86430  29.618  43.194   1.770
15831W        W86431  40.544  40.076   3.860
15832W        W86432  12.783   2.030  12.414
15833W        W86433  44.006   9.622   2.340
15834W        W86434  12.489  43.242   2.212
15835W        W86435   3.414  19.064   0.620
15836W        W86436  14.875  11.603   1.787
15837W        W86437  26.868  31.251  13.473
15838W        W86438   9.160  28.751  13.340
15839W        W86439  10.407  24.472   3.606
15840W        W86440  12.185   8.167   4.354
15841W        W86441  19.328  28.506  12.956
15842W        W86442   9.362  10.229  12.935
15843W        W86443   8.416  12.850  12.227
15844W        W86444  16.344   1.644  11.043
15845W        W86445  12.153  41.291   0.771
15846W        W86446  36.110  39.386  12.521
15847W        W86447  11.777   5.236  12.546
15848W        W86448  26.901  20.674   3.120
15849W        W86449  13.583  26.212   3.756
15850W        W86450   0.409  34.339   3.454
15851W        W86451  32.584  23.580   2.368
15852W        W86452   0.243  27.124  14.025
15853W        W86453  20.069  19.069  14.466
15854W        W86454  26.526  40.674  11.348
15855W        W86455  13.193   6.932   0.779
15856W        W86456  17.035  38.422   0.183
15857W        W86457  40.733   5.494   0.924
15858W        W86458  27.983  42.382   3.377
15859W        W86459   7.653  28.127  10.680
15860W        W86460  30.042   0.464   2.017
15861W        W86461  30.405  14.818   3.180
15862W        W86462  42.000  10.938  11.080
15863W        W86463  42.621  34.940  14.092
15864W        W86464   7.111  11.754   0.006
15865W        W86465  37.499  17.150   4.556
15866W        W86466  38.849  30.574   5.124
15867W        W86467   1.078  17.461   0.478
15868W        W86468   4.480  29.936   3.252
15869W        W86469  39.020  27.703   0.769
15870W        W86470  42.570  22.101   2.873
15871W        W86471  27.592  30.165  10.943
15872W        W86472  32.116  32.941   1.836
15873W        W86473   6.225   0.900   3.258
15874W        W86474  44.991  39.918   1.261
15875W        W86475  16.536  38.414   1.238
15876W        W86476  44.469   7.945  12.722
15877W        W86477  19.370   5.186  13.468
15878W        W86478  11.309  29.038   3.566
15879W        W86479  32.927  27.926  12.600
15880W        W86480  25.961  18.717  11.402
15881W        W86481  10.614  35.882   0.794
15882W        W86482  42.326  37.222  14.251
15883W        W86483  35.081  33.896   3.639
15884W        W86484   9.459  36.700   4.176
15885W        W86485  10.856  38.359   4.923
15886W        W86486  31.555  15.571   0.309
15887W        W86487   7.437  17.293  11.867
15888W        W86488  24.346  34.079   4.257
15889W        W86489  41.056  41.631   4.273
15890W        W86490  13.560  25.435  11.560
15891W        W86491  20.301  21.583   3.230
15892W        W86492  22.825  28.715   0.308
15893W        W86493  13.592  39.812   3.539
15894W        W86494  35.872   8.272  12.443
15895W        W86495   2.743  28.663  13.839
15896W        W86496  35.488  16.673  14.922
15897W        W86497  28.105  38.658   2.077
15898W        W86498  22.318  17.843   1.922
15899W        W86499  15.769   7.825  11.561
15900W        W86500   9.672  37.870  11.297
15901W        W86501  24.711  13.148   3.655
15902W        W86502  39.289   4.210  13.884
15903W        W86503  42.901  13.587   0.814
15904W        W86504  32.511  44.434  13.985
15905W        W86505  27.055  21.802   2.327
15906W        W86506  35.723  29.835   0.935
15907W        W86507  23.301  20.784   4.356
15908W        W86508  32.295  23.670  12.849
15909W        W86509   4.770   3.866  12.269
15910W        W86510  25.654  18.201   4.544
15911W        W86511  22.030   4.019  13.083
15912W        W86512  18.647  41.711  14.140
15913W        W86513  29.656  37.824  11.754
15914W        W86514  15.268  38.267  11.174
15915W        W86515  34.061  20.602  13.483
15916W        W86516  13.237  31.222   1.616
15917W        W86517  13.313   2.197   1.922
15918W        W86518   2.694  19.333  10.792
15919W        W86519   7.719  23.783  12.447
15920W        W86520  19.634   8.768   2.590
15921W        W86521   0.647  39.117  10.591
15922W        W86522  42.816  37.146  14.087
15923W        W86523   0.275  24.588   4.204
15924W        W86524  32.745  28.831  13.566
15925W        W86525  24.774   9.974   1.074
15926W        W86526  36.504  24.685  14.897
15927W        W86527  17.401  23.257  14.393
15928W        W86528   5.814  34.903  14.888
15929W        W86529  10.351  41.320  10.212
15930W        W86530  15.836  36.516   3.593
15931W        W86531   4.935  27.995   0.310
15932W        W86532  26.575  31.439   0.979
15933W        W86533  16.372   8.202   3.703
15934W        W86534  34.125  44.548   3.715
15935W        W86535  23.529   1.273   0.100
15936W        W86536  19.614  12.701  14.540
15937W        W86537   2.940   0.797  12.090
15938W        W86538  35.602  27.225  14.980
15939W        W86539   8.627   2.650  10.501
15940W        W86540  13.811  34.071   1.828
15941W        W86541  24.744  13.332   4.754
15942W        W86542   1.432  14.380  14.865
15943W        W86543  43.295  43.730  14.862
15944W        W86544  41.562  35.462  12.550
15945W        W86545  41.421  23.988   2.900
15946W        W86546  21.043  11.229   0.058
15947W        W86547   6.751  22.525   0.456
15948W        W86548  44.795  36.639   1.735
15949W        W86549  12.320  34.683  13.905
15950W        W86550  41.947  37.070  11.730
15951W        W86551  30.645  42.385  12.746
15952W        W86552  39.980  36.297   2.419
15953W        W86553  38.387   0.711  14.015
15954W        W86554   0.724  44.926  12.147
15955W        W86555  36.110  38.608  13.990
15956W        W86556  21.252  39.181  10.753
15957W        W86557  34.169  35.921   2.714
15958W        W86558  36.291  17.747   2.292
15959W        W86559  11.895   9.367   0.377
15960W        W86560  22.033   4.753  14.683
15961W        W86561   7.400  14.421  10.498
15962W        W86562  26.959  41.532   1.854
15963W        W86563  37.694   1.831  14.490
15964W        W86564  29.506   2.185   3.794
15965W        W86565  25.997   2.931  13.726
15966W        W86566  27.509  12.327   2.158
15967W        W86567  32.021  12.685   0.927
15968W        W86568  43.395  13.006   1.352
15969W        W86569  36.023  33.567  13.843
15970W        W86570  41.074  31.671   0.448
15971W        W86571  23.544  27.079   4.174
15972W        W86572  44.798  34.295   1.408
15973W        W86573  33.929   9.192  13.624
15974W        W86574  26.156   2.041   0.214
15975W        W86575   7.888  43.583   1.376
15976W        W86576  36.521  39.905  14.451
15977W        W86577   0.792   6.314   1.793
15978W        W86578  38.897  20.879   1.302
15979W        W86579  16.286  43.865  10.567
15980W        W86580   5.209  38.302  11.672
15981W        W86581   6.285   3.020   4.858
15982W        W86582  17.230  30.410   0.305
15983W        W86583  23.308  16.461  11.159
15984W        W86584   3.872   6.613  11.542
15985W        W86585  19.539  29.064  14.716
15986W        W86586  23.458  31.112   2.803
15987W        W86587  33.488  11.771  13.991
15988W        W86588  16.651  28.106  10.651
15989W        W86589   3.621  21.074   2.862
15990W        W86590   6.594  16.234  13.536
15991W        W86591  13.792   4.661  12.087
15992W        W86592  33.256  33.888  10.025
15993W        W86593  15.813  39.012  11.527
15994W        W86594   7.368  28.927   4.077
15995W        W86595  33.887  28.529   2.781
15996W        W86596   5.258  11.627   2.429
15997W        W86597  32.126  39.498   2.131
15998W        W86598   4.797  16.983   3.219
15999W        W86599   7.459  36.167   2.775
16000W        W86600  29.992  39.360  14.031
16001W        W86601   8.890   4.779  10.944
16002W        W86602  30.452  30.173  14.926
16003W        W86603  29.054  22.503  11.424
16004W        W86604  22.837  38.955  13.625
16005W        W86605  30.580  42.958  10.258
16006W        W86606  30.918  33.168  14.304
16007W        W86607  27.570  30.163  10.439
16008W        W86608  41.926  44.904   4.284
16009W        W86609  39.390  42.637   4.922
16010W        W86610   4.615  36.338   1.340
16011W        W86611  37.914   4.338  12.032
16012W        W86612  21.370  21.149  12.507
16013W        W86613   7.305  34.103   0.621
16014W        W86614  37.008  13.798   4.461
16015W        W86615  35.914  44.968  12.028
16016W        W86616  36.373  36.896  11.973
16017W        W86617  12.573  41.892  11.111
16018W        W86618  42.028  23.044   1.367
16019W        W86619  28.145  12.186   1.385
16020W        W86620   3.985  34.725   0.333
16021W        W86621   2.874  15.083  14.383
16022W        W86622  29.238  11.305  11.028
16023W        W86623   3.228   8.039  10.895
16024W        W86624   5.738   5.930  14.559
16025W        W86625  28.251  13.761   2.563
16026W        W86626  32.308  19.601   0.295
16027W        W86627   0.502  18.319   3.161
16028W        W86628  41.751  34.053   2.266
16029W        W86629  19.304   9.962   3.813
16030W        W86630  24.281  24.305   5.174
16031W        W86631  17.259   0.741  11.556
16032W        W86632  30.240   8.631   3.113
16033W        W86633  17.879  12.662   2.495
16034W        W86634  22.051  12.039   0.959
16035W        W86635  27.690  15.407   4.227
16036W        W86636  35.541   9.238  12.894
16037W        W86637  23.944  28.510   1.419
16038W        W86638  25.287  41.745   4.137
16039W        W86639  12.186  43.675  13.018
16040W        W86640   2.149  21.665  11.187
16041W        W86641   7.230  14.867  13.931
16042W        W86642  42.958  13.501  14.857
16043W        W86643  43.434  24.825  12.481
16044W        W86644   6.989  26.797   4.713
16045W        W86645  36.910  32.561  10.720
16046W        W86646  14.695   9.213  13.384
16047W        W86647  44.323  34.618  11.519
16048W        W86648  33.563  30.987   1.945
16049W        W86649   6.635   4.437   0.882
16050W        W86650  16.367  15.198   3.720
16051W        W86651  25.613   2.332   0.368
16052W        W86652  24.675  17.866   3.145
16053W        W86653  44.835  42.434  14.963
16054W        W86654   5.179  13.373   2.220
16055W        W86655  27.152  10.691   1.123
16056W        W86656   9.478  10.678   1.320
16057W        W86657  44.340  39.466   0.884
16058W        W86658  41.850  39.530   1.730
16059W        W86659   0.577   6.399   0.443
16060W        W86660  37.435  12.758   2.636
16061W        W86661  16.847  10.912  13.868
16062W        W86662  10.709   3.605  11.932
16063W        W86663  30.131  41.700   0.260
16064W        W86664  43.368   8.471   4.577
16065W        W86665  11.292  43.801  13.589
16066W        W86666  27.198  22.173  11.511
16067W        W86667  19.102  31.914   2.521
16068W        W86668  40.192  10.826  10.469
16069W        W86669  30.615   5.007  13.847
16070W        W86670  10.683  40.292   1.471
16071W        W86671   9.973  24.902  13.919
16072W        W86672   6.656  13.598  14.006
16073W        W86673  34.299  19.042  11.796
16074W        W86674  40.815  13.684  10.788
16075W        W86675  42.826  25.284   2.749
16076W        W86676  31.615   1.293   3.757
16077W        W86677  16.309  24.167  10.681
16078W        W86678   0.543  19.988  12.932
16079W        W86679   1.761   1.972   0.265
16080W        W86680  17.130  12.163  13.538
16081W        W86681  18.813  37.832   0.024
16082W        W86682  13.608  29.458   1.275
16083W        W86683   5.229   4.929  11.539
16084W        W86684  21.520  42.583   2.806
16085W        W86685   9.926   9.354  14.759
16086W        W86686  32.541  28.203   4.817
16087W        W86687  30.012  16.246   2.261
16088W        W86688  31.143   4.335  13.820
16089W        W86689  20.372  17.841  13.122
16090W        W86690  32.363  24.291  13.917
16091W        W86691  37.420  29.985  11.332
16092W        W86692  22.746   1.828  14.857
16093W        W86693  41.718  14.351   1.307
16094W        W86694  20.694   4.396  12.538
16095W        W86695  16.602  25.768   4.123
16096W        W86696  13.661  21.673   2.950
16097W        W86697  11.365  42.990  13.030
16098W        W86698   2.467  21.750   0.760
16099W        W86699  37.044  44.696   4.625
16100W        W86700  32.347  41.922  13.845
16101W        W86701  15.387   4.495  11.380
16102W        W86702  28.691  10.859   1.823
16103W        W86703  17.054  31.076  10.691
16104W        W86704  27.741   4.665  14.470
16105W        W86705  32.913  10.289   0.871
16106W        W86706   5.789  17.646  13.021
16107W        W86707  23.771  43.564  11.904
16108W        W86708   7.204   9.588  14.735
16109W        W86709  19.177   2.699  13.414
16110W        W86710  34.969  25.568   2.488
16111W        W86711   9.940  16.590  14.462
16112W        W86712  41.922  35.854   0.431
16113W        W86713  28.262  22.119  14.309
16114W        W86714  38.591  13.909   4.187
16115W        W86715  25.215  43.847   1.164
16116W        W86716  26.863  43.478   0.675
16117W        W86717  10.887  34.520   4.200
16118W        W86718  24.197  18.642   4.650
16119W        W86719  24.805  26.227  13.337
16120W        W86720  40.677  39.014   0.366
16121W        W86721   8.260  27.993  11.911
16122W        W86722  12.123   5.973  11.990
16123W        W86723   0.887  37.072   1.816
16124W        W86724   1.525  44.495   4.948
16125W        W86725  23.242  39.951   0.794
16126W        W86726  27.139  14.368   2.440
16127W        W86727  10.224  21.004  11.194
16128W        W86728  34.634  15.115  10.695
16129W        W86729   4.525  15.469   0.513
16130W        W86730  11.896  34.502   0.378
16131W        W86731  27.245  13.672   2.771
16132W        W86732  33.139  27.943   2.869
16133W        W86733  21.369  37.521   3.634
16134W        W86734  30.542  23.564   2.301
16135W        W86735   8.560  23.771  14.999
16136W        W86736  24.496  15.595   2.186
16137W        W86737  35.384  43.338  11.933
16138W        W86738  29.958  32.944   2.669
16139W        W86739   1.797  15.356   0.667
16140W        W86740  41.754  44.368   4.161
16141W        W86741  15.725  29.905  13.148
16142W        W86742  40.735  25.800  13.466
16143W        W86743  12.241  39.745  11.421
16144W        W86744   5.333  41.948  11.192
16145W        W86745  30.001  33.816   0.789
16146W        W86746  41.003  10.553  12.808
16147W        W86747  34.979  34.695   3.289
16148W        W86748  23.815  19.059   4.608
16149W        W86749  26.980  40.238  13.734
16150W        W86750   6.349  24.397  10.844
16151W        W86751  15.837  41.103  13.352
16152W        W86752   0.769  23.594  13.167
16153W        W86753  31.407  39.054  14.572
16154W        W86754   7.867  30.196  12.868
16155W        W86755  30.964  39.024   3.085
16156W        W86756   8.712   2.490  12.572
16157W        W86757  39.380  42.185   2.808
16158W        W86758  16.612  14.518   3.214
16159W        W86759  30.261   4.438   4.212
16160W        W86760  20.062  19.571  10.931
16161W        W86761  32.988  39.110  12.123
16162W        W86762   6.851  33.670   2.053
16163W        W86763  44.362   2.857   1.410
16164W        W86764  37.263   0.225   1.823
16165W        W86765  30.679  42.946   4.648
16166W        W86766  12.402  21.618  12.034
16167W        W86767  11.916  43.817   1.372
16168W        W86768  23.456   2.941  13.852
16169W        W86769  38.006   3.926   4.543
16170W        W86770  16.260   2.573  12.580
16171W        W86771  20.465  27.489  14.693
16172W        W86772  38.041  14.534   0.349
16173W        W86773  16.633   1.866   2.862
16174W        W86774  38.462  42.917  14.576
16175W        W86775   0.401   1.976   1.765
16176W        W86776  43.025  24.402  14.464
16177W        W86777   0.184  43.906   1.853
16178W        W86778  38.820  42.673   0.756
16179W        W86779  24.215  34.512   2.157
16180W        W86780   2.414  22.765  13.884
16181W        W86781  14.287  43.797   4.446
16182W        W86782  11.764   9.886   3.286
16183W        W86783  29.603   7.846   0.687
16184W        W86784  25.030   2.894   4.699
16185W        W86785  44.940   1.947  14.569
16186W        W86786  32.033  27.148   3.117
16187W        W86787   6.413  26.530   0.927
16188W        W86788  18.223  31.597  14.210
16189W        W86789  33.089  42.000  11.186
16190W        W86790  30.033  25.907   2.734
16191W        W86791  21.525  39.124  14.803
16192W        W86792  19.026  25.720   1.690
16193W        W86793   3.436  13.583  12.049
16194W        W86794  21.941  25.643   4.852
16195W        W86795   5.193  18.749  13.421
16196W        W86796   0.728   6.813   1.802
16197W        W86797  38.080  35.552  14.934
16198W        W86798  22.797  28.710  13.037
16199W        W86799   0.833  20.053   1.910
16200W        W86800  13.835  28.404  11.950
16201W        W86801  37.992  40.026  10.848
16202W        W86802  17.151  29.193  13.987
16203W        W86803  41.018   5.121  13.470
16204W        W86804  29.837  43.538   2.238
16205W        W86805  15.737  41.682  11.178
16206W        W86806  17.556  18.644   1.267
16207W        W86807  32.086   2.462  12.289
16208W        W86808  36.875   6.831   0.500
16209W        W86809   0.505  25.554  13.949
16210W        W86810  25.311  35.147  14.814
16211W        W86811  33.992   3.353   2.603
16212W        W86812  18.916  27.068  10.744
16213W        W86813  15.709  19.771  11.425
16214W        W86814  24.698  32.453  10.729
16215W        W86815  43.653  10.653  13.025
16216W        W86816  34.779   8.736   1.173
16217W        W86817   7.035  17.681  11.541
16218W        W86818   4.753  15.116   1.957
16219W        W86819  41.326  28.762  10.491
16220W        W86820  13.300   9.908  13.485
16221W        W86821   2.410   1.195  14.986
16222W        W86822  36.526  12.202   2.867
16223W        W86823  11.857  22.654  13.842
16224W        W86824  18.444  31.999  14.461
16225W        W86825  41.993  19.604  14.564
16226W        W86826  32.471  41.543   2.929
16227W        W86827  22.749   5.836   3.770
16228W        W86828  42.835  37.375   2.289
16229W        W86829  23.418  22.150  12.850
16230W        W86830  13.843  15.803   1.272
16231W        W86831  44.750  22.503  14.004
16232W        W86832  44.070   2.525  13.817
16233W        W86833  11.941  16.020  14.451
16234W        W86834  21.326  24.924  14.231
16235W        W86835  19.636  12.279  10.751
16236W        W86836  42.408  24.414  13.322
16237W        W86837   4.171  33.368  12.428
16238W        W86838  11.602   6.615   2.369
16239W        W86839  13.228  16.676   0.009
16240W        W86840  26.361  41.028  13.771
16241W        W86841  29.815  38.004   2.241
16242W        W86842   5.898  24.123   3.424
16243W        W86843  12.801  11.861   0.983
16244W        W86844  41.907  11.906  10.051
16245W        W86845  14.782   5.342  11.214
16246W        W86846  36.290  30.962   0.513
16247W        W86847  27.022  36.503   3.412
16248W        W86848   2.451  25.246  11.365
16249W        W86849  23.750  26.371   1.724
16250W        W86850  30.623  25.182   3.684
16251W        W86851  12.627  20.700  14.336
16252W        W86852  35.330  35.989   1.220
16253W        W86853  41.275  23.960  14.336
16254W        W86854  42.020  31.845  11.195
16255W        W86855  37.268  11.758   4.592
16256W        W86856  36.689  30.981   4.345
16257W        W86857  38.312  21.276  14.029
16258W        W86858  24.984  24.935   0.876
16259W        W86859   1.037  39.966  14.361
16260W        W86860  18.083   0.361   3.283
16261W        W86861  14.134   0.775   3.357
16262W        W86862  11.415   2.846  12.957
16263W        W86863  29.008  36.836   1.864
16264W        W86864  13.040  33.026   2.273
16265W        W86865  24.153  16.971   2.154
16266W        W86866  14.316  24.512  13.413
16267W        W86867  32.442  37.093  14.383
16268W        W86868  37.882   5.433  13.139
16269W        W86869  11.361  41.122   4.542
16270W        W86870   7.223   1.454  14.411
16271W        W86871   3.607  15.947   3.256
16272W        W86872  17.141  30.117  14.404
16273W        W86873  21.047  25.488  13.437
16274W        W86874  43.834  38.825  11.579
16275W        W86875   3.107   6.837  12.388
16276W        W86876   2.253  21.647   2.310
16277W        W86877   4.788  35.652  13.530
16278W        W86878  20.589  15.308   2.740
16279W        W86879  44.073  44.403  12.456
16280W        W86880  19.282  15.064   4.139
16281W        W86881  16.073  26.602  11.570
16282W        W86882  43.482  22.286   0.866
16283W        W86883  14.361  28.759   3.304
16284W        W86884  42.771  44.934  13.250
16285W        W86885  22.237  22.688   0.237
16286W        W86886  19.248  31.580   0.947
16287W        W86887  28.267  35.300  11.585
16288W        W86888   8.247  19.792  13.285
16289W        W86889  35.021   8.735   3.354
16290W        W86890   7.996  32.886  14.600
16291W        W86891  31.790  17.686   3.607
16292W        W86892  23.174  44.377   4.504
16293W        W86893  14.373  39.543   4.587
16294W        W86894   6.207  28.692  10.658
16295W        W86895  12.118  17.621   3.835
16296W        W86896   6.396   6.120  11.424
16297W        W86897  24.681  17.098  12.567
16298W        W86898  15.746  31.683   1.531
16299W        W86899   2.703  36.536   2.956
16300W        W86900  31.189  20.962  13.817
16301W        W86901  25.525  27.312   0.789
16302W        W86902  24.777  28.189   2.844
16303W        W86903   9.837  13.095  10.807
16304W        W86904  26.627  27.461   3.774
16305W        W86905  30.455   3.676  14.739
16306W        W86906  40.392  22.674   0.690
16307W        W86907  32.926  12.777  11.063
16308W        W86908  28.185  11.760  12.500
16309W        W86909  44.106  18.651   2.365
16310W        W86910  10.411  11.277  14.339
16311W        W86911  12.475   8.645  13.008
16312W        W86912   3.887  12.260  13.013
16313W        W86913  12.319  19.081  13.947
16314W        W86914  17.270  11.221   0.012
16315W        W86915  20.335  12.198   0.546
16316W        W86916  34.382  31.013  11.148
16317W        W86917  10.393  17.809  10.652
16318W        W86918  17.627   7.471  13.343
16319W        W86919  42.531  36.729  14.321
16320W        W86920  30.672  43.431  12.010
16321W        W86921   2.971  42.350  13.016
16322W        W86922  35.967  17.576   4.094
16323W        W86923   1.737  26.706  10.722
16324W        W86924   8.512  23.877  13.298
16325W        W86925  35.568   3.464  14.227
16326W        W86926  26.657  11.382  14.988
16327W        W86927  24.679  29.159  13.434
16328W        W86928  33.422  38.440  10.611
16329W        W86929  14.493   3.183  11.100
16330W        W86930  19.574  14.706   3.606
16331W        W86931   6.370   8.433  11.507
16332W        W86932  12.696   8.786  10.657
16333W        W86933  12.281  19.064   2.724
16334W        W86934   3.983  26.573   4.473
16335W        W86935   1.481  41.355  12.648
16336W        W86936  32.570  34.666   1.260
16337W        W86937  10.374  11.620   2.258
16338W        W86938  30.081  32.326  14.735
16339W        W86939  16.660  40.244  12.899
16340W        W86940  29.032  21.418  14.522
16341W        W86941  35.172   5.202   4.053
16342W        W86942  41.377   2.445  10.581
16343W        W86943  26.299   4.226  10.636
16344W        W86944   9.893   3.660  10.570
16345W        W86945  36.532   0.794   4.158
16346W        W86946   1.997  36.618  11.174
16347W        W86947   7.148  44.370   4.180
16348W        W86948  31.345  23.377  12.676
16349W        W86949  35.659  33.966  14.899
16350W        W86950  15.046  44.007  12.357
16351W        W86951  12.766   1.401   4.131
16352W        W86952  32.202  25.948  14.494
16353W        W86953   8.345  11.573   1.892
16354W        W86954  37.128  27.130   0.037
16355W        W86955  34.182  14.343   0.294
16356W        W86956  42.534  42.426   4.542
16357W        W86957  38.414  40.593   0.020
16358W        W86958  42.701   6.842  11.118
16359W        W86959  37.940   6.105  10.012
16360W        W86960  17.610   4.884   2.412
16361W        W86961   1.948  43.958  13.331
16362W        W86962  16.362  29.936  11.023
16363W        W86963  32.504  37.438   3.665
16364W        W86964   7.125  14.636  11.733
16365W        W86965  41.004  32.333  14.754
16366W        W86966  20.090   3.463   1.845
16367W        W86967  15.773  33.137  13.276
16368W        W86968  15.299  13.799  12.999
16369W        W86969  10.181  24.049  12.982
16370W        W86970  15.622  19.783  14.238
16371W        W86971  33.504  18.198   0.629
16372W        W86972  18.154  13.248  10.539
16373W        W86973  36.475  28.550   0.014
16374W        W86974  42.208  40.498   0.680
16375W        W86975  43.403  10.173  12.829
16376W        W86976  35.726   0.284   1.920
16377W        W86977  11.838   4.418   2.325
16378W        W86978  31.593  44.092   4.460
16379W        W86979  32.619   7.620  12.843
16380W        W86980  43.747  39.926   3.172
16381W        W86981  29.705  39.026  14.961
16382W        W86982   1.217  22.628  14.857
16383W        W86983   0.389  30.147   2.243
16384W        W86984  42.539   3.335   4.611
16385W        W86985   2.470   2.910   4.355
16386W        W86986  28.416  23.752  11.136
16387W        W86987   1.076  13.601   4.154
16388W        W86988  31.666   0.754  11.193
16389W        W86989  10.902  42.224   2.158
16390W        W86990  27.253  13.516   0.397
16391W        W86991   5.688  12.160   4.671
16392W        W86992   6.581  26.591  12.308
16393W        W86993  19.377   5.233   4.192
16394W        W86994  10.840  38.860   3.264
16395W        W86995   8.460  15.429   1.780
16396W        W86996  44.994  38.307  12.298
16397W        W86997  27.013  26.423  10.767
16398W        W86998  16.207   0.950   0.251
16399W        W86999  13.775  41.538  12.532
16400W        W87000  11.592   9.728   4.833
16401W        W87001   6.652  18.567   3.624
16402W        W87002  19.958  20.701   2.056
16403W        W87003  17.103  23.974   0.719
16404W        W87004  38.882  21.922  10.810
16405W        W87005  32.286  21.181   4.152
16406W        W87006  18.685  25.464  11.514
16407W        W87007  12.916  33.238   1.278
16408W        W87008   8.713  27.474   0.296
16409W        W87009   0.761   5.496  12.490
16410W        W87010  18.100  28.012   0.346
16411W        W87011  44.994  22.267   4.122
16412W        W87012   9.234  39.303  11.797
16413W        W87013  19.163  28.656  13.454
16414W        W87014   6.364  32.613   3.214
16415W        W87015  34.384  16.222  12.030
16416W        W87016  29.158   4.826   3.618
16417W        W87017  43.298  11.442  13.670
16418W        W87018  14.388  26.914  12.069
16419W        W87019  23.980  38.197  11.669
16420W        W87020  20.274  19.186   3.604
16421W        W87021  16.632  18.779   1.196
16422W        W87022  11.911  27.592  12.125
16423W        W87023  35.386   3.274  10.490
16424W        W87024  43.130  10.302   5.004
16425W        W87025  41.037  19.140   2.320
16426W        W87026  41.344  16.300  13.842
16427W        W87027  37.496   5.376  12.399
16428W        W87028  12.131  21.167  12.724
16429W        W87029  20.442  44.707   1.392
16430W        W87030   5.089  41.648  14.381
16431W        W87031   7.341  40.759   2.748
16432W        W87032   1.584  13.332   0.963
16433W        W87033  18.807   1.402   1.716
16434W        W87034  16.302  29.441  10.869
16435W        W87035   9.419   5.915  12.588
16436W        W87036   9.272  37.040  11.014
16437W        W87037  30.031  13.765   3.767
16438W        W87038  16.575  28.102   3.756
16439W        W87039  34.052  39.765  13.941
16440W        W87040  43.196  22.386  12.230
16441W        W87041   9.387   4.746   4.964
16442W        W87042  26.456  37.558   2.700
16443W        W87043  28.435  34.547   3.300
16444W        W87044   2.682  37.032  10.708
16445W        W87045  32.393  15.398   2.600
16446W        W87046  24.134  41.417   2.352
16447W        W87047  25.491   7.921  11.121
16448W        W87048  26.918  44.792   0.830
16449W        W87049  33.722   4.756   2.799
16450W        W87050  13.894  24.606  12.132
16451W        W87051  37.550  43.215  11.544
16452W        W87052  31.649   2.747   2.336
16453W        W87053  15.645  23.172  12.954
16454W        W87054  35.856  28.054  12.038
16455W        W87055  31.505  26.182   1.743
16456W        W87056  13.654  37.576  13.455
16457W        W87057  20.738  29.162  10.523
16458W        W87058  21.552  35.788   0.527
16459W        W87059  24.178   1.274  14.333
16460W        W87060  27.497  35.614  10.940
16461W        W87061  29.833   4.850   5.169
16462W        W87062   8.340  32.682   1.845
16463W        W87063  25.928  44.257  10.123
16464W        W87064  13.256   5.307  13.827
16465W        W87065  16.818  25.898  10.451
16466W        W87066   7.839   3.415   0.967
16467W        W87067   5.666  10.868  10.954
16468W        W87068  27.414  10.402  13.353
16469W        W87069  37.045  29.394  13.383
16470W        W87070  23.875   3.830  13.422
16471W        W87071   8.793   8.788   3.738
16472W        W87072  23.893  19.510   2.301
16473W        W87073   2.235  16.175  11.089
16474W        W87074   8.670  13.675  12.371
16475W        W87075  31.636  37.907   4.606
16476W        W87076  18.613  37.426   0.263
16477W        W87077  12.142  37.292   5.007
16478W        W87078  13.419  38.040  14.649
16479W        W87079  12.270  41.228   2.858
16480W        W87080  15.325  21.757   0.404
16481W        W87081  31.031  24.392   4.045
16482W        W87082  40.477  39.008   0.845
16483W        W87083  18.607  44.814  14.383
16484W        W87084  10.192  29.451   4.112
16485W        W87085   5.238  28.738   2.243
16486W        W87086  33.021   3.903  10.622
16487W        W87087   0.445  25.700   0.415
16488W        W87088  10.570  32.289  11.062
16489W        W87089  20.124   5.745   1.622
16490W        W87090  42.862  25.803   2.669
16491W        W87091  22.867  43.047   4.967
16492W        W87092  41.475  13.411  12.382
16493W        W87093  12.262  39.920   2.339
16494W        W87094  32.691  28.591   0.367
16495W        W87095  35.926  28.981  11.643
16496W        W87096  39.849   1.405  10.525
16497W        W87097  33.098   8.902  12.076
16498W        W87098  20.800  16.171  11.669
16499W        W87099   1.222  20.825  13.445
16500W        W87100  29.507  44.073   1.313
16501W        W87101  23.558  21.611   4.257
16502W        W87102  43.966   8.305  11.235
16503W        W87103  28.025  32.030  11.529
16504W        W87104  11.979  16.719   1.828
16505W        W87105  30.014   6.455   3.545
16506W        W87106  19.811  39.910  13.647
16507W        W87107   2.008  13.177   2.660
16508W        W87108  36.133  15.786  13.295
16509W        W87109  25.294   4.666  14.269
16510W        W87110  38.767  27.220  12.666
16511W        W87111  21.782  23.123  14.225
16512W        W87112   4.285  32.575   2.945
16513W        W87113   9.352   0.085   2.184
16514W        W87114  13.378  20.168  11.072
16515W        W87115  40.515  15.100   0.749
16516W        W87116  20.636  24.107  11.886
16517W        W87117  33.921   2.402   3.818
16518W        W87118  29.377   5.396  13.465
16519W        W87119  22.039  23.194   0.121
16520W        W87120  38.100  37.583  11.894
16521W        W87121  34.620  24.322   2.029
16522W        W87122  32.430  12.927  11.185
16523W        W87123  33.960  32.953   3.997
16524W        W87124  34.508  20.595   4.179
16525W        W87125  31.053  11.473   0.260
16526W        W87126  43.508  34.013   2.713
16527W        W87127  29.035  12.826  14.725
16528W        W87128   9.857   6.615   1.747
16529W        W87129  40.541  11.694   3.099
16530W        W87130  18.888  12.318  12.903
16531W        W87131  26.241   8.201  14.827
16532W        W87132  22.805  41.967   2.843
16533W        W87133   2.616  28.508   4.265
16534W        W87134  31.624  28.046  11.702
16535W        W87135  27.203  37.834   0.307
16536W        W87136   2.193   8.851   4.037
16537W        W87137  14.982  34.929  10.056
16538W        W87138   1.970  23.892  11.234
16539W        W87139  35.722  15.269  13.567
16540W        W87140   6.468   3.846   2.280
16541W        W87141   1.323   4.939   4.312
16542W        W87142  37.090  30.504  12.889
16543W        W87143  27.916  22.503  12.305
16544W        W87144  26.620  23.046  14.378
16545W        W87145  41.400  37.546   4.534
16546W        W87146   1.740  10.562   4.584
16547W        W87147  40.311  30.769   4.150
16548W        W87148  33.014   5.289  13.026
16549W        W87149  39.224  40.975   3.395
16550W        W87150   1.392  37.414   3.768
16551W        W87151  15.793  23.540  12.615
16552W        W87152  33.436   8.049  11.240
16553W        W87153   0.361   7.585   1.905
16554W        W87154  28.893  32.107   3.329
16555W        W87155   7.049  19.263   4.326
16556W        W87156  36.879  32.432   0.734
16557W        W87157   1.251  30.080   3.552
16558W        W87158  18.041  21.249   2.352
16559W        W87159  22.132  32.956  11.585
16560W        W87160  16.773  38.853   0.351
16561W        W87161  35.649  21.658  10.943
16562W        W87162  25.559  29.986   4.224
16563W        W87163  12.582  21.131  13.112
16564W        W87164  24.647  38.091   4.294
16565W        W87165  44.588   9.843   4.616
16566W        W87166  21.651   3.682  13.022
16567W        W87167   1.901  19.277   4.027
16568W        W87168  12.584   0.457  11.986
16569W        W87169  16.139  15.838  11.186
16570W        W87170   1.747   0.782   0.991
16571W        W87171   5.785  22.308  14.122
16572W        W87172  39.492  24.584   1.175
16573W        W87173  23.484   8.489   0.422
16574W        W87174  36.897  13.284   1.335
16575W        W87175  17.780  11.414  12.469
16576W        W87176  37.554  41.518   1.499
16577W        W87177  35.035  38.014   3.811
16578W        W87178  22.982  17.651  14.973
16579W        W87179  25.410  24.001  13.022
16580W        W87180  31.596  23.507  11.636
16581W        W87181   9.354  11.205   1.356
16582W        W87182   2.631  16.112  13.017
16583W        W87183  30.079  38.357   9.779
16584W        W87184  18.555  40.543  10.705
16585W        W87185  19.360   8.135  12.640
16586W        W87186  35.388  10.807  14.403
16587W        W87187  17.302  22.134   1.952
16588W        W87188   3.764  29.410   0.481
16589W        W87189  15.732  19.079  10.811
16590W        W87190  31.199   0.111  13.281
16591W        W87191  42.262  24.200  14.548
16592W        W87192   8.454  24.693  14.472
16593W        W87193   9.094  23.001  13.094
16594W        W87194  36.956  21.187  10.544
16595W        W87195  23.214  28.495  13.911
16596W        W87196  19.599  40.338  13.876
16597W        W87197  31.167  15.091   4.437
16598W        W87198  33.855  22.620  12.148
16599W        W87199  42.929  28.245   4.482
16600W        W87200  28.031  27.911   1.704
16601W        W87201   8.058  21.287  13.036
16602W        W87202  28.273  18.271  13.810
16603W        W87203  27.025  40.972   4.554
16604W        W87204  43.425  37.578   0.365
16605W        W87205  40.255  15.725  14.278
16606W        W87206  13.420   2.525  11.158
16607W        W87207  14.290   3.574   2.041
16608W        W87208  28.469  18.192  13.347
16609W        W87209  15.379  24.085  11.670
16610W        W87210  18.333  23.098  14.084
16611W        W87211  30.223   2.086  12.836
16612W        W87212  27.192  34.841   0.130
16613W        W87213   1.818   7.314  14.527
16614W        W87214  38.967   5.344   0.105
16615W        W87215  22.658   2.806  12.445
16616W        W87216  22.084  33.345  13.361
16617W        W87217  42.833  14.547  13.840
16618W        W87218  38.110   5.792   2.756
16619W        W87219  29.638  34.593   4.262
16620W        W87220  23.626  30.915  13.712
16621W        W87221  44.741   1.800   4.518
16622W        W87222  42.532  16.691   4.112
16623W        W87223  14.128  12.659  14.750
16624W        W87224  20.086   8.193  13.072
16625W        W87225  28.371   5.263  12.373
16626W        W87226  19.527  15.587  13.144
16627W        W87227  30.100  34.895   4.390
16628W        W87228  36.440   4.357   0.460
16629W        W87229  43.406  28.085   4.768
16630W        W87230  12.422  30.115   1.436
16631W        W87231  44.738  39.903  13.289
16632W        W87232  44.350  17.976   3.576
16633W        W87233  39.343  13.806   0.375
16634W        W87234  28.632  38.297  14.765
16635W        W87235  19.023  27.454  14.338
16636W        W87236  24.791  19.722  13.905
16637W        W87237  16.897   0.266   2.783
16638W        W87238  24.645  36.954  13.914
16639W        W87239  32.215  12.782   3.260
16640W        W87240   8.377   3.168  14.859
16641W        W87241  21.612   0.490  10.914
16642W        W87242  16.502   7.311   1.964
16643W        W87243   1.303  43.038   0.431
16644W        W87244  25.201  41.998   2.147
16645W        W87245  24.614  27.378   0.779
16646W        W87246   4.490  18.261   0.811
16647W        W87247  44.300  22.423  12.358
16648W        W87248  17.769   6.964   4.115
16649W        W87249  42.557  22.754   4.924
16650W        W87250  26.034  19.064   3.887
16651W        W87251  18.738  34.872  12.901
16652W        W87252  16.109  38.715  13.583
16653W        W87253  44.299  20.116   9.602
16654W        W87254  42.904  32.444  11.095
16655W        W87255   2.997   0.377   4.370
16656W        W87256  16.198  26.191   0.487
16657W        W87257  27.186  16.333   1.706
16658W        W87258  33.662  36.035   4.082
16659W        W87259  41.441  20.495  12.427
16660W        W87260   8.414  37.006   4.254
16661W        W87261  36.468  20.779  12.957
16662W        W87262  37.889  32.507   3.146
16663W        W87263  24.494  34.516  11.245
16664W        W87264  13.608  41.066   5.398
16665W        W87265  14.333   1.330  12.901
16666W        W87266  24.211  33.379  12.469
16667W        W87267  28.712  35.044   4.158
16668W        W87268  14.190   8.215   1.788
16669W        W87269  24.626   1.241   3.362
16670W        W87270  42.947   6.756  13.752
16671W        W87271   9.201  32.726  12.475
16672W        W87272  14.632  17.852  11.149
16673W        W87273  28.340  24.236  13.923
16674W        W87274  12.633  31.392   3.639
16675W        W87275  32.011  43.262   3.727
16676W        W87276  25.036  40.217   1.328
16677W        W87277  24.829   1.900   4.539
16678W        W87278   2.426  21.962   3.410
16679W        W87279  13.922  27.702   2.323
16680W        W87280  44.512  34.883  11.102
16681W        W87281  44.845  33.415  10.153
16682W        W87282  18.623  44.915   0.436
16683W        W87283   1.725   9.735  13.543
16684W        W87284  27.439  23.505  14.543
16685W        W87285  43.009  13.078   4.205
16686W        W87286  32.545  27.453  14.490
16687W        W87287   6.051   5.859  12.106
16688W        W87288   8.642  30.626  10.054
16689W        W87289  19.747  14.151  10.755
16690W        W87290  22.077   3.704  14.498
16691W        W87291  26.116  20.595   1.582
16692W        W87292   6.191  27.370   1.947
16693W        W87293  23.830  41.022   2.237
16694W        W87294  30.564  10.352  13.104
16695W        W87295  29.051  34.854   3.210
16696W        W87296  43.727  11.476  14.643
16697W        W87297  38.931  32.686   4.536
16698W        W87298   9.093  40.129   2.299
16699W        W87299  36.172  15.164   1.547
16700W        W87300   5.463   1.225   4.110
16701W        W87301   5.197  11.538   1.909
16702W        W87302  11.458   8.198   1.668
16703W        W87303  14.493   0.689   5.146
16704W        W87304   2.963   0.333   3.349
16705W        W87305  27.430  36.967  11.568
16706W        W87306  13.840  41.606   3.267
16707W        W87307  33.817  36.098   3.172
16708W        W87308  26.725  33.176  12.474
16709W        W87309  26.700  42.998  11.459
16710W        W87310  38.736  17.651   0.970
16711W        W87311  16.237  39.958  13.859
16712W        W87312   3.843  25.639  13.136
16713W        W87313  35.337  30.661  11.477
16714W        W87314  10.439  35.656   2.315
16715W        W87315  22.635   8.153  12.849
16716W        W87316  23.694  44.155  14.882
16717W        W87317  11.151   3.926  14.570
16718W        W87318  29.682   0.814  12.907
16719W        W87319   7.406  11.279   2.372
16720W        W87320   6.052  42.806  11.412
16721W        W87321  25.218   3.116   1.235
16722W        W87322   2.666  10.107   4.411
16723W        W87323  29.044   5.338   4.278
16724W        W87324  24.191  19.286  14.792
16725W        W87325  17.849   5.300   1.859
16726W        W87326  31.987  16.012   2.708
16727W        W87327  16.442  34.983  14.506
16728W        W87328  29.590  15.058   4.794
16729W        W87329  23.585  34.131   4.287
16730W        W87330  44.414  11.631  11.438
16731W        W87331  35.671   4.446  14.505
16732W        W87332  40.904  14.862   3.793
16733W        W87333  30.178  23.758   2.640
16734W        W87334  26.858   2.308   1.348
16735W        W87335  43.014  11.718   2.224
16736W        W87336  29.014   8.539  12.148
16737W        W87337  12.270  19.774   3.839
16738W        W87338  41.328   8.891  11.450
16739W        W87339  17.835   9.256   0.452
16740W        W87340  16.209  24.628  10.920
16741W        W87341  43.977  26.424   2.346
16742W        W87342  35.540  27.979   3.677
16743W        W87343  27.985  31.694   1.220
16744W        W87344  37.985  40.909   0.714
16745W        W87345  37.992  23.083  11.201
16746W        W87346  16.237  22.227   4.464
16747W        W87347  37.065  39.563   0.846
16748W        W87348  10.838  44.132   4.832
16749W        W87349  28.817  16.761  11.961
16750W        W87350  36.347  35.411   4.144
16751W        W87351  22.312  43.396  12.757
16752W        W87352  44.551  12.847   3.444
16753W        W87353   9.814  21.018   0.968
16754W        W87354  12.355  16.238  11.360
16755W        W87355   8.343  43.355  12.516
16756W        W87356  16.106  14.363   2.404
16757W        W87357  22.659  27.355  14.055
16758W        W87358  43.296   0.810  13.843
16759W        W87359  29.930  20.576  11.443
16760W        W87360  12.189  40.558  11.067
16761W        W87361  39.620  10.845   2.798
16762W        W87362  43.717  22.326  14.522
16763W        W87363  10.596  25.100   5.356
16764W        W87364  41.030  42.440   2.072
16765W        W87365  33.209  32.878  14.877
16766W        W87366  16.112  34.593   0.661
16767W        W87367  42.380  42.831   3.644
16768W        W87368  43.242  20.087  13.358
16769W        W87369  42.002   3.158  14.073
16770W        W87370   7.264   8.633   3.324
16771W        W87371  13.262  12.730  13.233
16772W        W87372  16.221   7.488  11.260
16773W        W87373   9.752  32.019   3.507
16774W        W87374   3.262  37.873   0.329
16775W        W87375   9.764  43.464   2.134
16776W        W87376   3.412  33.051  11.103
16777W        W87377  15.423  17.883   1.141
16778W        W87378  21.086  36.280  13.084
16779W        W87379  16.800  17.099  11.502
16780W        W87380  37.513  42.981   1.037
16781W        W87381  19.694  39.297  14.076
16782W        W87382  16.653  29.415   9.937
16783W        W87383  22.708   1.727   2.135
16784W        W87384  19.076  30.385  11.625
16785W        W87385  23.981  39.811   1.935
16786W        W87386  27.419  40.248   2.753
16787W        W87387   5.997   3.059  11.949
16788W        W87388  22.342  28.691   2.961
16789W        W87389  41.367  29.189   3.230
16790W        W87390  14.273  12.990   0.137
16791W        W87391  26.695  17.572   2.325
16792W        W87392  15.793  22.568  11.107
16793W        W87393  35.184  17.895   4.121
16794W        W87394  42.881  25.969  12.439
16795W        W87395  37.083  31.907  11.765
16796W        W87396  35.580  28.150  13.327
16797W        W87397  25.044   2.333   1.696
16798W        W87398  32.475  37.327  14.863
16799W        W87399  30.495  20.712   0.972
16800W        W87400  40.793  44.535  14.351
16801W        W87401  38.397  29.146  11.739
16802W        W87402  27.175   3.985   4.345
16803W        W87403  43.721  32.350   2.271
16804W        W87404  27.703  17.694  11.290
16805W        W87405   3.401   5.405   2.791
16806W        W87406   6.812  36.366   4.473
16807W        W87407  14.097   4.817   4.117
16808W        W87408   6.780   8.386   3.189
16809W        W87409   2.027  15.115   2.782
16810W        W87410   8.743  40.676   5.240
16811W        W87411  21.661  43.478   5.459
16812W        W87412  44.478   9.149  11.018
16813W        W87413  36.340  44.479  11.470
16814W        W87414  39.591  26.504  14.721
16815W        W87415  13.574  41.297  12.944
16816W        W87416   0.352   6.528   0.902
16817W        W87417  22.259  28.160  11.223
16818W        W87418  28.445  25.729   1.406
16819W        W87419   3.926  40.310  13.900
16820W        W87420  30.482  13.070  14.429
16821W        W87421  14.078  36.087   2.594
16822W        W87422   4.881  19.068   4.587
16823W        W87423  35.576  33.357   0.915
16824W        W87424  42.864   6.966   0.364
16825W        W87425  27.396  34.557   1.369
16826W        W87426   4.407  11.060  11.978
16827W        W87427   7.907  39.011  14.387
16828W        W87428  35.284  34.722   0.786
16829W        W87429  23.514  16.818  13.914
16830W        W87430   5.900  29.614   3.133
16831W        W87431  33.691  15.266   4.096
16832W        W87432  38.918  44.557  12.458
16833W        W87433  42.916  12.357   2.872
16834W        W87434  32.199  25.463  13.012
16835W        W87435  17.027  22.563  13.691
16836W        W87436  21.504   3.575  11.133
16837W        W87437  42.371   3.448   2.908
16838W        W87438  36.983  24.245   2.141
16839W        W87439  28.698  38.779  14.915
16840W        W87440  38.464   9.627  13.736
16841W        W87441  30.968  20.865   0.282
16842W        W87442  10.798   9.616  11.157
16843W        W87443   6.885  22.627  11.756
16844W        W87444  12.295  33.590  12.551
16845W        W87445  38.814  26.848  14.483
16846W        W87446  31.620  37.492  12.458
16847W        W87447   2.033  35.898   0.851
16848W        W87448  11.268  20.091  14.405
16849W        W87449  20.914  20.661  13.366
16850W        W87450  31.139  43.516  12.740
16851W        W87451  20.014  40.455   2.673
16852W        W87452  37.983   7.656  13.599
16853W        W87453  14.901  20.623  13.326
16854W        W87454  19.752   4.466   4.275
16855W        W87455  33.524  42.863  10.846
16856W        W87456  21.656  17.699   3.091
16857W        W87457  15.597  19.696   3.352
16858W        W87458  28.234  34.751   4.196
16859W        W87459  29.884  12.173  11.430
16860W        W87460  16.084   0.780  12.839
16861W        W87461   9.292  37.799  11.636
16862W        W87462  13.807  30.424  11.094
16863W        W87463  18.302  39.648   0.165
16864W        W87464  41.528   2.535   2.676
16865W        W87465  25.650  10.565  12.804
16866W        W87466  27.869  28.712  12.938
16867W        W87467   2.472  18.196  11.495
16868W        W87468  22.995   5.725   3.126
16869W        W87469   3.289  34.407   1.746
16870W        W87470  30.473  16.012   1.364
16871W        W87471  19.527  18.676   1.421
16872W        W87472  14.659   4.418  13.457
16873W        W87473  33.492   2.256  13.434
16874W        W87474  23.397  38.457  13.064
16875W        W87475  13.693   4.178   4.552
16876W        W87476   4.384   1.717   2.325
16877W        W87477  39.784  17.583  14.341
16878W        W87478  44.073   4.088  11.746
16879W        W87479  32.004  27.401   3.580
16880W        W87480   7.338  17.990  12.786
16881W        W87481   7.831   5.057   4.845
16882W        W87482  16.421  29.892   3.836
16883W        W87483  36.155   4.351   4.328
16884W        W87484  18.010  13.377   0.724
16885W        W87485  29.191  32.319   3.690
16886W        W87486  10.688  10.348  14.363
16887W        W87487   2.780  14.536  13.545
16888W        W87488  44.412  32.492   5.104
16889W        W87489  44.559   2.827  10.137
16890W        W87490  15.956  24.481   3.209
16891W        W87491  37.903   3.998  12.562
16892W        W87492  29.849   3.869   1.098
16893W        W87493  40.789  22.824   2.833
16894W        W87494  26.156  23.322  13.499
16895W        W87495  15.071  20.493   1.179
16896W        W87496  13.645  29.453   2.905
16897W        W87497  10.767   3.744   2.339
16898W        W87498  11.578   1.716   2.036
16899W        W87499  11.153  24.227  13.946
16900W        W87500  14.035  23.071   0.363
16901W        W87501  44.553  43.306  13.074
16902W        W87502  20.738  10.255   1.875
16903W        W87503   4.832  43.004   1.971
16904W        W87504  31.029  12.078  10.779
16905W        W87505  29.463  33.394   0.772
16906W        W87506  18.383  32.955  14.581
16907W        W87507  16.038  10.419   0.508
16908W        W87508  13.175  36.204  12.860
16909W        W87509  31.089  38.568  12.936
16910W        W87510  14.022  30.852  14.875
16911W        W87511  12.371  15.730  10.276
16912W        W87512  32.125  13.821  11.086
16913W        W87513  23.806   7.947  14.604
16914W        W87514  43.245  44.359   0.310
16915W        W87515  31.467   2.052   4.083
16916W        W87516  14.846  37.142   1.304
16917W        W87517  25.142  30.631  13.409
16918W        W87518  30.157  27.661   2.275
16919W        W87519  24.866  18.588   0.009
16920W        W87520  15.057  21.142  12.148
16921W        W87521   0.307  37.577  14.909
16922W        W87522  14.666  35.832  10.612
16923W        W87523   0.363  42.407  12.470
16924W        W87524   5.710  36.568  11.609
16925W        W87525  42.530  43.975  14.414
16926W        W87526  27.685  12.586   1.693
16927W        W87527  26.736  19.050   0.907
16928W        W87528   2.774  37.420   2.320
16929W        W87529  43.969  27.882   2.153
16930W        W87530  17.080  29.037  14.499
16931W        W87531  15.358   0.866   3.549
16932W        W87532   1.751   4.532  11.105
16933W        W87533  13.386  43.915   0.218
16934W        W87534  18.539  24.403   0.145
16935W        W87535   8.713   9.885  12.747
16936W        W87536  41.083  38.029   0.721
16937W        W87537  21.754   7.819   2.957
16938W        W87538  21.288  30.888   2.302
16939W        W87539  37.413  24.525   2.409
16940W        W87540  12.235  42.957   3.164
16941W        W87541   6.499  41.708   1.853
16942W        W87542  42.352  27.733  14.429
16943W        W87543  25.042  17.224   2.560
16944W        W87544  23.167   1.188  11.139
16945W        W87545  24.467   7.589   0.897
16946W        W87546   1.057  13.814   1.972
16947W        W87547   4.927  10.799   4.321
16948W        W87548  31.346  13.315  12.072
16949W        W87549  11.016   2.659   0.042
16950W        W87550   5.400  41.424   1.188
16951W        W87551  17.716  10.710  14.420
16952W        W87552  42.446  13.095  11.627
16953W        W87553   9.318  30.715   4.534
16954W        W87554   9.342  39.754  11.555
16955W        W87555   3.417   6.367   2.621
16956W        W87556  41.630   1.024  14.444
16957W        W87557  17.399   6.760  14.398
16958W        W87558  36.414  34.852   3.311
16959W        W87559  21.497  27.537   1.749
16960W        W87560  28.555  15.093  11.818
16961W        W87561  37.139  41.468   0.592
16962W        W87562  20.155   8.690   2.769
16963W        W87563  16.281  27.839  10.400
16964W        W87564  34.385  30.983   4.268
16965W        W87565  43.818  11.976  12.607
16966W        W87566  11.704   8.050  14.584
16967W        W87567  13.591  30.115   2.439
16968W        W87568  36.265   8.824  13.914
16969W        W87569  33.330   9.855  13.821
16970W        W87570   7.039  35.573  10.733
16971W        W87571   3.422   3.905   4.557
16972W        W87572  33.113  25.765  14.057
16973W        W87573   6.894   4.918   0.826
16974W        W87574  33.905   8.704  10.772
16975W        W87575  31.096  24.957   3.695
16976W        W87576  43.546  30.216  13.371
16977W        W87577  42.545  18.064  10.682
16978W        W87578  44.553   5.698   1.933
16979W        W87579  39.866   3.699   1.725
16980W        W87580  40.265   7.247  10.950
16981W        W87581  20.289   3.813  13.543
16982W        W87582  19.160  43.536   1.895
16983W        W87583  24.539  42.758   0.482
16984W        W87584  13.250  21.199   1.792
16985W        W87585  44.763  29.309  10.854
16986W        W87586  42.391  14.614  12.634
16987W        W87587  33.051  34.930   0.015
16988W        W87588  16.146  30.092   4.221
16989W        W87589  36.892   1.465  14.139
16990W        W87590  41.773   0.747   0.197
16991W        W87591  19.682  44.404   3.803
16992W        W87592   7.974  19.698   1.198
16993W        W87593  21.139   0.076  11.650
16994W        W87594  25.780  36.111  13.807
16995W        W87595   5.228  14.443   2.788
16996W        W87596   4.773  18.310   0.348
16997W        W87597   0.927   4.819  13.256
16998W        W87598  26.702  35.574   4.509
16999W        W87599   7.068   8.013  12.083
17000W        W87600  16.671   3.924   4.022
17001W        W87601  37.178  44.233   1.782
17002W        W87602  10.188  42.495   3.634
17003W        W87603  16.649  21.262   4.717
17004W        W87604  26.627   7.946  10.570
17005W        W87605  30.860   4.369  11.117
17006W        W87606  11.223  25.581   1.114
17007W        W87607   0.984  22.025   0.508
17008W        W87608  39.520   4.446   0.755
17009W        W87609  23.089   3.209  10.796
17010W        W87610  25.050  32.350   4.470
17011W        W87611  41.147  25.769   0.992
17012W        W87612  38.292  15.123  13.900
17013W        W87613  27.056  21.158   3.973
17014W        W87614   7.841   4.429  10.563
17015W        W87615  11.396  21.401  13.084
17016W        W87616  18.159  23.535   2.107
17017W        W87617  21.137  32.141   3.456
17018W        W87618  22.485   1.391   5.023
17019W        W87619  15.362  39.429  14.812
17020W        W87620  30.410   0.275  12.491
17021W        W87621  19.246  15.328   0.849
17022W        W87622  12.722  15.564  12.005
17023W        W87623   4.815  37.325  13.838
17024W        W87624  25.025  44.099  13.266
17025W        W87625  21.713  38.512   1.469
17026W        W87626  34.325  39.435  11.988
17027W        W87627  34.610  12.081  11.142
17028W        W87628  43.113  25.087   0.010
17029W        W87629   0.618  39.140  10.031
17030W        W87630  24.296  35.980   5.238
17031W        W87631  30.612  39.334   2.253
17032W        W87632  25.138  32.108   4.978
17033W        W87633  34.177   7.667  12.479
17034W        W87634  43.001  38.896  10.706
17035W        W87635  21.221  41.056   2.379
17036W        W87636  42.718  13.331   1.361
17037W        W87637  35.887  26.069  14.518
17038W        W87638  27.028   6.669  10.659
17039W        W87639  36.406  11.095   0.059
17040W        W87640  25.908  33.066   3.159
17041W        W87641   2.314  12.312   5.037
17042W        W87642   0.781  37.791  14.812
17043W        W87643  34.045  23.988  13.488
17044W        W87644  24.669  28.353  14.224
17045W        W87645  40.949  14.622  10.867
17046W        W87646  32.994  24.257   2.691
17047W        W87647  37.598  17.183   3.745
17048W        W87648  43.433  14.334   5.003
17049W        W87649  37.392  15.786   2.613
17050W        W87650  20.424   6.127   0.416
17051W        W87651  44.340   8.762  11.751
17052W        W87652   9.668  17.747   2.178
17053W        W87653   8.017  31.133  14.765
17054W        W87654  30.025   4.380  12.531
17055W        W87655  29.514  35.464  13.823
17056W        W87656   5.760  28.727  10.901
17057W        W87657  36.532  30.543   4.141
17058W        W87658  39.480  29.953   4.935
17059W        W87659  35.035  20.634   3.558
17060W        W87660  26.158  42.096   0.824
17061W        W87661  38.884  22.308  12.286
17062W        W87662  38.440  39.653   0.378
17063W        W87663  11.855   2.027  10.066
17064W        W87664  42.542  38.034  14.418
17065W        W87665  27.895   2.414  14.482
17066W        W87666   2.485  22.213   3.851
17067W        W87667  13.245   3.736  13.442
17068W        W87668  16.962  41.992   3.174
17069W        W87669  42.500  21.091  13.125
17070W        W87670   9.916  38.782  13.145
17071W        W87671   0.516  32.167   4.557
17072W        W87672  36.765  28.870  13.992
17073W        W87673  22.041  36.158   4.593
17074W        W87674  42.473   4.262   9.933
17075W        W87675  11.230  19.789   4.882
17076W        W87676  27.328  30.378   4.470
17077W        W87677   0.880  10.147   1.919
17078W        W87678  29.996   6.645   0.092
17079W        W87679  22.129   0.313   2.250
17080W        W87680   8.290  44.746   4.356
17081W        W87681  33.020  40.957   3.279
17082W        W87682  17.298  44.245   2.716
17083W        W87683  22.956  36.077  13.635
17084W        W87684  14.651   6.142  14.067
17085W        W87685   8.359  27.151   3.688
17086W        W87686  20.032  29.024   3.261
17087W        W87687  34.658  29.916   0.118
17088W        W87688  37.323   0.115   9.855
17089W        W87689  29.220  13.574  11.733
17090W        W87690  32.946   2.105  14.406
17091W        W87691   1.209  15.234   2.417
17092W        W87692  12.677   0.776  12.364
17093W        W87693   6.633  15.682  13.748
17094W        W87694  38.865  10.622  10.636
17095W        W87695  23.199  28.271  11.863
17096W        W87696  23.186  10.431  12.087
17097W        W87697  10.570  19.056  11.842
17098W        W87698  35.289   4.791   4.679
17099W        W87699   6.130  40.337  11.392
17100W        W87700  15.496  21.690   1.899
17101W        W87701  11.780  43.931  11.872
17102W        W87702  38.786  14.676  13.463
17103W        W87703   9.756  43.500  10.733
17104W        W87704  14.458  16.233   4.452
17105W        W87705   2.822  39.738  12.894
17106W        W87706   2.336  14.609   2.018
17107W        W87707  21.572  35.454   0.961
17108W        W87708  43.807  18.355  14.376
17109W        W87709  21.344  11.887   1.669
17110W        W87710  34.059  16.850  12.742
17111W        W87711  21.043  19.541   3.940
17112W        W87712  39.284  23.836   4.183
17113W        W87713  17.497   0.274  11.835
17114W        W87714  39.562  19.088  11.558
17115W        W87715  17.114  19.115   3.664
17116W        W87716  14.131  20.757  11.885
17117W        W87717  28.987   8.858  10.818
17118W        W87718  28.254  25.851  13.508
17119W        W87719  21.063  10.416  13.457
17120W        W87720   9.297  26.546   4.948
17121W        W87721  34.493   6.973  11.888
17122W        W87722  40.892  39.601   2.607
17123W        W87723  18.278  35.613  13.885
17124W        W87724  39.959  26.756  13.385
17125W        W87725  41.422  33.401   1.190
17126W        W87726  42.862  39.781  12.099
17127W        W87727   1.200  34.373  12.458
17128W        W87728  15.153   2.420  13.101
17129W        W87729  34.066  15.671   4.194
17130W        W87730  11.972  14.274   0.717
17131W        W87731  37.759  43.326   3.668
17132W        W87732  39.731  33.569  14.829
17133W        W87733  29.463  38.372   3.149
17134W        W87734  30.543   4.966  14.748
17135W        W87735  22.785  32.613  12.665
17136W        W87736  27.236   0.489  13.422
17137W        W87737  42.841  42.834  10.746
17138W        W87738  14.173   9.135  13.480
17139W        W87739  26.126  21.490  12.468
17140W        W87740  18.590   3.781  11.215
17141W        W87741  37.971  12.695   3.351
17142W        W87742   8.257   8.918   0.414
17143W        W87743   6.333  16.250   3.171
17144W        W87744  25.354  21.287  13.421
17145W        W87745  14.162  24.073   1.031
17146W        W87746  17.153  11.652   0.833
17147W        W87747   2.938   0.189  14.352
17148W        W87748   6.273  28.444   0.464
17149W        W87749  37.049  18.146  13.333
17150W        W87750  23.905  23.984   1.697
17151W        W87751   8.038   9.078  11.159
17152W        W87752  30.816  44.999   3.217
17153W        W87753  22.606  12.801  10.130
17154W        W87754  25.455  10.763   2.629
17155W        W87755  11.348   7.078  13.702
17156W        W87756  44.096  37.954  11.949
17157W        W87757  10.574  33.872   1.555
17158W        W87758   7.670  31.453   4.445
17159W        W87759   7.773  38.272   4.361
17160W        W87760  20.032  10.392  10.660
17161W        W87761  41.412   5.571   4.034
17162W        W87762  36.884  28.605  12.463
17163W        W87763  21.062  30.334   2.775
17164W        W87764  17.679  10.347  12.503
17165W        W87765  10.770  43.248  11.697
17166W        W87766  35.925  43.892   1.309
17167W        W87767   4.758   4.771   2.676
17168W        W87768  35.549  13.251   4.509
17169W        W87769  16.793  23.486  11.659
17170W        W87770   4.757  29.908   2.750
17171W        W87771   2.399   2.866  12.800
17172W        W87772  40.983  18.666  14.989
17173W        W87773  25.656  33.460   1.934
17174W        W87774   8.893  40.888   1.953
17175W        W87775  35.621  35.109  12.987
17176W        W87776  33.784  32.154   1.013
17177W        W87777  23.082  13.119   4.482
17178W        W87778  16.674  14.751  11.534
17179W        W87779  42.491  31.202  14.243
17180W        W87780  20.398   3.903   1.541
17181W        W87781  32.075  30.150   1.146
17182W        W87782  27.050   9.950   4.614
17183W        W87783   7.948  11.877  11.611
17184W        W87784   7.759   7.821   3.817
17185W        W87785  29.947  21.991   2.994
17186W        W87786  35.037  39.069  12.787
17187W        W87787   6.957  31.649   0.688
17188W        W87788  27.485  21.789   2.834
17189W        W87789  13.605  13.269  14.716
17190W        W87790  38.322  19.303   2.846
17191W        W87791  15.815  13.014  12.440
17192W        W87792   5.644   4.930   4.104
17193W        W87793  31.878  11.089   2.674
17194W        W87794  37.107   4.339   3.804
17195W        W87795  14.831   7.256  13.792
17196W        W87796   9.710  29.445   0.291
17197W        W87797  31.908   1.796   4.189
17198W        W87798  15.172  38.567   3.433
17199W        W87799  12.071  23.197   2.296
17200W        W87800   0.210   6.445  12.366
17201W        W87801  32.958   4.580   2.431
17202W        W87802  29.490   9.123  12.569
17203W        W87803  40.330  30.608   4.974
17204W        W87804  21.143  35.457  12.559
17205W        W87805  29.130  34.048   4.661
17206W        W87806  11.577  17.045   4.264
17207W        W87807  19.082   1.222   4.500
17208W        W87808  28.995  21.183  10.591
17209W        W87809   7.471   3.525   2.211
17210W        W87810   9.303  39.354  14.718
17211W        W87811  24.214  28.486   1.909
17212W        W87812  22.226  35.595  11.518
17213W        W87813   0.857  23.380  11.859
17214W        W87814  16.597  35.936  12.001
17215W        W87815   4.283  34.549   3.612
17216W        W87816  17.309   6.729  12.411
17217W        W87817  16.557  28.097  13.531
17218W        W87818  19.638  36.888  12.963
17219W        W87819   0.306  15.619   4.572
17220W        W87820  15.302   8.428  12.053
17221W        W87821  43.948   3.884  13.728
17222W        W87822  42.522  38.527  13.057
17223W        W87823  32.651  14.872  13.980
17224W        W87824  26.551   9.477   2.085
17225W        W87825   6.371  34.109   0.653
17226W        W87826   7.914  13.409  14.831
17227W        W87827  10.220  16.122   3.820
17228W        W87828  41.806   5.519   3.107
17229W        W87829  13.178  19.573  10.411
17230W        W87830   7.428   5.298  11.899
17231W        W87831  13.389  16.614   4.168
17232W        W87832  16.695   3.781  11.619
17233W        W87833  16.798   1.951   0.309
17234W        W87834  17.796  16.678  10.324
17235W        W87835  23.121  19.198   2.697
17236W        W87836  31.121   4.549   2.851
17237W        W87837   0.931  34.914   3.233
17238W        W87838  33.649  29.052  11.290
17239W        W87839   3.417  40.366  13.770
17240W        W87840  31.948   3.338   1.240
17241W        W87841   5.402  42.811   3.648
17242W        W87842  11.137  18.639  10.689
17243W        W87843  21.536  36.910  12.830
17244W        W87844  19.377  34.438  14.953
17245W        W87845  11.890  32.912  14.440
17246W        W87846  27.537  14.343   3.677
17247W        W87847  41.966   7.905  12.128
17248W        W87848   0.353   9.996  14.260
17249W        W87849  32.834  17.641   3.746
17250W        W87850  30.853  25.309  13.854
17251W        W87851   2.826  29.423   1.658
17252W        W87852  42.432  10.155   1.722
17253W        W87853  17.649  33.531  11.116
17254W        W87854  15.334  37.583   4.604
17255W        W87855  35.892  13.411  11.588
17256W        W87856   6.124  42.219  13.936
17257W        W87857  12.858  44.823   0.006
17258W        W87858  44.189  31.987  13.326
17259W        W87859  30.374  15.300  10.693
17260W        W87860  34.789  18.989  14.291
17261W        W87861  30.700  16.137   3.410
17262W        W87862  38.910  39.776  11.808
17263W        W87863  22.073  27.992  14.400
17264W        W87864  26.822  17.331  11.172
17265W        W87865  13.082  18.153   1.398
17266W        W87866   2.782  42.536  11.069
17267W        W87867  30.894   8.867  12.573
17268W        W87868  10.466  34.669  13.889
17269W        W87869   0.753   9.880   2.397
17270W        W87870  34.779  14.661   2.224
17271W        W87871   5.845  41.810  13.693
17272W        W87872  11.881  33.909   1.950
17273W        W87873   6.472   2.968   0.127
17274W        W87874  14.317  40.848   0.838
17275W        W87875  40.774   8.954   1.909
17276W        W87876  32.166  27.559  12.211
17277W        W87877  35.411  29.513  14.230
17278W        W87878  20.766   3.008   0.981
17279W        W87879  33.850   0.018   4.605
17280W        W87880   4.905  16.243  14.326
17281W        W87881  13.369  13.599  14.396
17282W        W87882  25.684  30.953   4.413
17283W        W87883  12.647  26.247   1.891
17284W        W87884  38.890  25.644  10.643
17285W        W87885   2.629  44.773  12.996
17286W        W87886  22.547  40.924  13.825
17287W        W87887  39.438  31.698   0.929
17288W        W87888   5.689  37.814  11.097
17289W        W87889  42.264  12.198   2.440
17290W        W87890  14.112   2.766   1.710
17291W        W87891  20.320  40.861  14.558
17292W        W87892  42.468  12.207  11.434
17293W        W87893   8.688  13.947   0.408
17294W        W87894   7.863  36.937  12.871
17295W        W87895  30.500  31.427   0.995
17296W        W87896  18.036  36.583   4.377
17297W        W87897  38.228   9.743   1.853
17298W        W87898  29.104  23.818  13.389
17299W        W87899  27.384   5.750  13.079
17300W        W87900  14.404  33.922  10.817
17301W        W87901  31.924  13.130  13.246
17302W        W87902  27.051  42.635   4.563
17303W        W87903   8.366   5.619   3.166
17304W        W87904  15.967  44.065   2.742
17305W        W87905  13.321   6.826  14.827
17306W        W87906  16.546  36.611   1.815
17307W        W87907  10.164   9.054  14.344
17308W        W87908  41.841  29.322  13.533
17309W        W87909  16.278   8.934  11.002
17310W        W87910  16.379  16.068   0.805
17311W        W87911  44.817  34.635   2.764
17312W        W87912  21.214   2.978   4.354
17313W        W87913  40.952  41.937   2.208
17314W        W87914   8.862   7.929  11.504
17315W        W87915   0.523  16.739  12.977
17316W        W87916  26.059   0.895  13.173
17317W        W87917  12.803  23.676   5.071
17318W        W87918   3.806  34.080   0.987
17319W        W87919   4.085   1.954  11.169
17320W        W87920   9.351  19.243   3.336
17321W        W87921  15.374  40.288   0.347
17322W        W87922   3.854  14.252   2.715
17323W        W87923  44.806  13.288   3.648
17324W        W87924  17.418  44.131   3.662
17325W        W87925  16.192   1.050   1.263
17326W        W87926  11.625  19.317   1.484
17327W        W87927  31.641  33.577   4.101
17328W        W87928  38.842  26.638  11.810
17329W        W87929  31.418  28.982   0.936
17330W        W87930   8.664  35.651  12.088
17331W        W87931  14.448   6.729  12.320
17332W        W87932  20.727  13.618   3.414
17333W        W87933  42.988  32.148   4.060
17334W        W87934   1.429  44.329  10.633
17335W        W87935  37.561  28.209  12.813
17336W        W87936  20.513  28.519   1.667
17337W        W87937  30.665   4.251   1.666
17338W        W87938   5.128   5.618  12.123
17339W        W87939  20.457  33.541   3.829
17340W        W87940  33.506  14.103   0.606
17341W        W87941  13.995  29.512   4.199
17342W        W87942  34.088  27.185   4.075
17343W        W87943  33.133  17.593   4.249
17344W        W87944  25.908  44.684   0.395
17345W        W87945  19.763   7.256  11.784
17346W        W87946  31.111  17.338   0.055
17347W        W87947  14.464  37.514  11.596
17348W        W87948  23.610  19.076   2.386
17349W        W87949   2.002  10.435   5.011
17350W        W87950   1.231  33.647   9.879
17351W        W87951  28.660  35.369  11.195
17352W        W87952   7.976   2.720   2.875
17353W        W87953  27.107  42.371   2.201
17354W        W87954  30.178  11.605   2.764
17355W        W87955  42.458  22.059   2.002
17356W        W87956  22.595  25.123   0.364
17357W        W87957  19.877  41.485   4.366
17358W        W87958  23.168  20.898   2.836
17359W        W87959  27.033   9.437   4.457
17360W        W87960   0.943  37.501   1.317
17361W        W87961  30.439  30.933   3.289
17362W        W87962  24.714   5.725   0.218
17363W        W87963   4.990   1.833   1.752
17364W        W87964   5.693  38.094  11.527
17365W        W87965  24.381  12.826   4.363
17366W        W87966  13.008  34.489   1.720
17367W        W87967  22.084  14.517   4.717
17368W        W87968   7.007   3.783   2.173
17369W        W87969   2.357   3.001   1.404
17370W        W87970   6.801  34.026  12.416
17371W        W87971  43.716  17.291  10.766
17372W        W87972  23.729   5.234  10.744
17373W        W87973  38.874  22.602  11.877
17374W        W87974  16.688  37.422   0.169
17375W        W87975   4.372   5.028   4.754
17376W        W87976  17.496  16.628  11.783
17377W        W87977   9.790   7.294  13.995
17378W        W87978  21.126  16.699   4.580
17379W        W87979  42.385  20.097  13.610
17380W        W87980   6.572   7.832   4.607
17381W        W87981  36.891   2.670   3.292
17382W        W87982  19.247  28.552   0.751
17383W        W87983   7.658  32.301   0.772
17384W        W87984  28.577  20.045   1.226
17385W        W87985  24.798  38.147  14.468
17386W        W87986  33.106  14.436   4.845
17387W        W87987  32.019  19.810   4.173
17388W        W87988  27.304  39.937   4.699
17389W        W87989   7.300  12.825  11.375
17390W        W87990  21.657  11.257  14.370
17391W        W87991  25.574  44.690  13.782
17392W        W87992  12.545   1.427   0.837
17393W        W87993  33.960   4.569   4.786
17394W        W87994   6.356  21.762  12.539
17395W        W87995  30.278  22.382   0.472
17396W        W87996  22.031  18.038   2.881
17397W        W87997   2.786   2.661  13.380
17398W        W87998  25.663  30.089  14.969
17399W        W87999  19.030  24.646  12.856
17400W        W88000   1.777  37.041  11.441
17401W        W88001   5.785  39.300   3.325
17402W        W88002  33.734   2.499  12.215
17403W        W88003  41.788   5.906   1.897
17404W        W88004  23.007   3.029   0.047
17405W        W88005  28.430  26.048  10.402
17406W        W88006   5.501  21.590  10.720
17407W        W88007   3.568  27.932   3.298
17408W        W88008  40.342  11.637   4.122
17409W        W88009  40.287  22.213   0.514
17410W        W88010  23.756  37.305   0.455
17411W        W88011  22.216  33.777  12.066
17412W        W88012   3.070  35.397   0.257
17413W        W88013  34.487   7.811   4.072
17414W        W88014  18.616  24.893  10.711
17415W        W88015   1.335  22.651   1.066
17416W        W88016  32.509   6.558   1.782
17417W        W88017  42.529   0.816   4.337
17418W        W88018  43.417   0.922  12.866
17419W        W88019  20.537  20.134  14.974
17420W        W88020  35.049  33.041   2.277
17421W        W88021  34.505  33.915   3.780
17422W        W88022  28.945  41.995  13.788
17423W        W88023   7.519   8.658  13.917
17424W        W88024  15.870  36.938   4.210
17425W        W88025  23.456  41.819   4.458
17426W        W88026  30.671  23.149  13.601
17427W        W88027  18.585  18.976   4.292
17428W        W88028  36.589  43.045  14.255
17429W        W88029  23.516  22.836  12.068
17430W        W88030  11.909   0.917   1.938
17431W        W88031  30.707  25.129   0.003
17432W        W88032  10.252  10.418   3.645
17433W        W88033   7.176   5.273  10.369
17434W        W88034  36.685  16.750  13.783
17435W        W88035  11.466  40.632  13.511
17436W        W88036   3.349  35.250   9.940
17437W        W88037  13.884  28.199   2.282
17438W        W88038  13.346  39.017   2.814
17439W        W88039  31.052  42.780   3.737
17440W        W88040  32.616  13.705  12.410
17441W        W88041  39.250  31.630  10.706
17442W        W88042  10.686  37.441  12.014
17443W        W88043   0.225  11.132  12.385
17444W        W88044   9.013  23.004  10.475
17445W        W88045   7.744  18.813   1.310
17446W        W88046  36.287  20.998  14.754
17447W        W88047  12.719  22.502   3.207
17448W        W88048  15.725  18.090   0.212
17449W        W88049  35.022  28.586   4.133
17450W        W88050  34.768  39.487  11.180
17451W        W88051  22.737  26.602   4.271
17452W        W88052  31.401   1.234   4.844
17453W        W88053   8.676  29.901   5.058
17454W        W88054  33.537  34.094   3.940
17455W        W88055   3.288  29.611   0.318
17456W        W88056  32.910  16.623   4.191
17457W        W88057   0.190  42.258   3.611
17458W        W88058   1.750   8.155   3.188
17459W        W88059  22.472  36.393  11.201
17460W        W88060  24.738  26.857   2.398
17461W        W88061  40.007  19.499  13.529
17462W        W88062  18.195  40.555   2.931
17463W        W88063  14.568  36.811  10.915
17464W        W88064  14.783  18.283  13.511
17465W        W88065  41.375  23.182  14.953
17466W        W88066  35.038  35.314  11.152
17467W        W88067   1.935  20.965  12.992
17468W        W88068   0.981  21.088   4.705
17469W        W88069  36.242  10.076   4.023
17470W        W88070  13.162   1.922   2.334
17471W        W88071   2.915  25.767  12.802
17472W        W88072  17.743  21.066   0.475
17473W        W88073  21.482  25.029  14.705
17474W        W88074  29.698  27.975   4.160
17475W        W88075  13.904  39.695   3.143
17476W        W88076   8.408  38.057   1.153
17477W        W88077  25.264  19.326   0.892
17478W        W88078  19.062  26.884   1.250
17479W        W88079  41.583  33.450   4.947
17480W        W88080  16.598  38.905   2.101
17481W        W88081  38.416   2.400   0.530
17482W        W88082  11.171  18.723   0.833
17483W        W88083  32.388  34.052  11.815
17484W        W88084  12.567  22.493  10.773
17485W        W88085  24.170  34.111  13.003
17486W        W88086  29.147  23.593   3.019
17487W        W88087  37.568   9.204   2.269
17488W        W88088  41.487   1.886  11.621
17489W        W88089  23.192  34.488  14.349
17490W        W88090  22.748   4.749  14.467
17491W        W88091  38.625  35.413  10.670
17492W        W88092  37.364   9.849   2.190
17493W        W88093  11.731  10.618   4.864
17494W        W88094  11.985   0.875  10.732
17495W        W88095  14.809  23.935   3.742
17496W        W88096  44.295  27.936   4.782
17497W        W88097  11.658   2.182   1.440
17498W        W88098  42.963  23.623   0.014
17499W        W88099  44.230   9.720  12.576
17500W        W88100  38.379  22.103   2.389
17501W        W88101  35.568  33.653  14.485
17502W        W88102  22.464   5.312   0.720
17503W        W88103  35.587  15.138  12.907
17504W        W88104  27.733  27.495   4.885
17505W        W88105  32.182  42.462  12.539
17506W        W88106  34.454  27.076  12.108
17507W        W88107  34.027  29.328   4.862
17508W        W88108   5.625  38.370   1.264
17509W        W88109  39.780  20.739  12.964
17510W        W88110  23.155  37.756   4.456
17511W        W88111  15.676  10.334   3.672
17512W        W88112  32.329  23.256  11.914
17513W        W88113   1.871  37.108  10.440
17514W        W88114  39.084  11.651   0.033
17515W        W88115  15.601  12.251  13.026
17516W        W88116   4.304   0.537  13.267
17517W        W88117  20.420  40.887  13.615
17518W        W88118  31.406  36.567  14.904
17519W        W88119  26.219  39.984   0.868
17520W        W88120  10.553  34.127   3.674
17521W        W88121  19.524   5.179   0.270
17522W        W88122   7.097  42.380  10.745
17523W        W88123  43.342  29.738  14.069
17524W        W88124  42.712  12.864   3.865
17525W        W88125  30.877  29.646  13.516
17526W        W88126  28.659  27.673   4.523
17527W        W88127   3.736  39.429  13.950
17528W        W88128  27.511   1.901  11.368
17529W        W88129  11.097  28.712  14.840
17530W        W88130  14.638  20.736   2.884
17531W        W88131   0.027  41.419  14.877
17532W        W88132  20.029  33.902  12.632
17533W        W88133   8.256  22.012   1.310
17534W        W88134  36.897  13.790  13.073
17535W        W88135  28.107  35.473   2.278
17536W        W88136   1.542  19.687  10.819
17537W        W88137  13.109  37.071   1.453
17538W        W88138  33.579  38.716  12.894
17539W        W88139  15.122  11.687   0.225
17540W        W88140  10.388  13.588  12.652
17541W        W88141  20.581  14.563   1.731
17542W        W88142  18.261   0.221  13.181
17543W        W88143  41.941  30.371  13.730
17544W        W88144  35.761   8.810  11.581
17545W        W88145  40.247  36.983   1.826
17546W        W88146  24.653   7.593  14.616
17547W        W88147   2.473  31.523  12.861
17548W        W88148   3.336   8.866  10.950
17549W        W88149  14.166  24.133  13.006
17550W        W88150   0.134  31.624   2.303
17551W        W88151   6.193  31.846   3.697
17552W        W88152  23.656  37.398  10.747
17553W        W88153   3.610  29.289  14.411
17554W        W88154   9.160   3.957  12.898
17555W        W88155  12.550  16.701  11.541
17556W        W88156  22.635  27.788  10.274
17557W        W88157  33.057  13.926  13.045
17558W        W88158  23.816  30.517   1.823
17559W        W88159   4.400  23.086  10.631
17560W        W88160  18.706  30.560  12.380
17561W        W88161   4.278  17.809   1.738
17562W        W88162  18.706   2.803   4.495
17563W        W88163  43.339  39.224   3.458
17564W        W88164  13.650  26.716   3.765
17565W        W88165  29.707  22.681   1.218
17566W        W88166  10.029   4.319  12.615
17567W        W88167  12.212   9.716   1.487
17568W        W88168  34.932  34.435  14.492
17569W        W88169   4.909  35.082   1.887
17570W        W88170  43.174   5.746   1.249
17571W        W88171  31.086  13.124  10.745
17572W        W88172  13.227  27.511  14.295
17573W        W88173   5.248  17.324  12.960
17574W        W88174   1.888   3.690   1.986
17575W        W88175  12.819  16.376  14.618
17576W        W88176   2.270  27.663   3.578
17577W        W88177  25.923  19.749  14.967
17578W        W88178   8.235  43.129   0.255
17579W        W88179  31.889  19.597   2.225
17580W        W88180  39.403  44.476   0.729
17581W        W88181  37.527  25.939   0.690
17582W        W88182  29.661   6.351  14.115
17583W        W88183  28.007  34.520   2.783
17584W        W88184  14.194  29.908  12.551
17585W        W88185  24.891  31.911   3.625
17586W        W88186   5.797  29.629  11.832
17587W        W88187  22.688  15.037   1.864
17588W        W88188  37.329  12.698  11.308
17589W        W88189  17.314   4.965  12.115
17590W        W88190  27.972  30.644   2.104
17591W        W88191  13.211  13.120  10.932
17592W        W88192   6.101  13.079  14.662
17593W        W88193  20.181  25.511  14.352
17594W        W88194   1.224  12.890   3.694
17595W        W88195  41.971   6.809   0.898
17596W        W88196   5.872  21.217   1.835
17597W        W88197  32.390  22.067  11.618
17598W        W88198   2.756  31.016  14.936
17599W        W88199   2.683  28.077   1.668
17600W        W88200  30.012  31.859  14.505
17601W        W88201  32.452  43.400   3.110
17602W        W88202  14.272  20.007  10.639
17603W        W88203  30.083  10.728  13.969
17604W        W88204  17.598   5.726  11.071
17605W        W88205  26.503   4.231  13.366
17606W        W88206  20.720  20.208   2.907
17607W        W88207  44.409  17.335  12.905
17608W        W88208   1.992   1.367   0.815
17609W        W88209  12.759  10.790  11.897
17610W        W88210  21.981  40.154  14.429
17611W        W88211  16.069  43.438   3.634
17612W        W88212  20.516  33.900  12.487
17613W        W88213  35.713  19.446   2.933
17614W        W88214   2.293  25.946  13.512
17615W        W88215  24.998  12.310  12.052
17616W        W88216  40.692   4.972   2.245
17617W        W88217  17.317  44.360  11.021
17618W        W88218  20.513  43.000  10.652
17619W        W88219  38.240  18.192   1.711
17620W        W88220  34.437  26.527   3.713
17621W        W88221  22.177   7.451  11.236
17622W        W88222  10.847  36.599  12.042
17623W        W88223  32.441  36.003  12.619
17624W        W88224  38.361  18.283   0.258
17625W        W88225  19.800  23.403   4.922
17626W        W88226  30.534  30.698   2.829
17627W        W88227  13.235  39.409   3.694
17628W        W88228  26.029  19.647   4.712
17629W        W88229   5.785  18.060   3.305
17630W        W88230  21.593  19.651   1.177
17631W        W88231  11.266  39.957   0.794
17632W        W88232  37.586  31.503  13.011
17633W        W88233  28.672  34.533   0.522
17634W        W88234  22.469  37.970  13.305
17635W        W88235  36.806  35.871  12.472
17636W        W88236  38.613  17.195   1.183
17637W        W88237  20.286  21.956  14.801
17638W        W88238  36.437   3.831   0.494
17639W        W88239   8.768  26.393   0.490
17640W        W88240   8.970  15.519  10.751
17641W        W88241  17.805  39.284   1.432
17642W        W88242  40.796  42.781  11.185
17643W        W88243  15.754   2.972  13.359
17644W        W88244  16.616   7.194   2.965
17645W        W88245  32.188   1.702  11.021
17646W        W88246   2.495  34.044   0.368
17647W        W88247  20.301  42.273   3.007
17648W        W88248  14.651  44.049  14.412
17649W        W88249  27.506  43.414   4.565
17650W        W88250  29.382   2.878  11.943
17651W        W88251  10.224   0.279   2.455
17652W        W88252  20.904  24.275  12.692
17653W        W88253  22.557  13.175   4.450
17654W        W88254  10.194  16.201   4.330
17655W        W88255  22.228  25.697   4.132
17656W        W88256  32.057  18.314  11.591
17657W        W88257  28.083   1.335  10.766
17658W        W88258  13.011  44.061   1.925
17659W        W88259  20.991  11.879   1.286
17660W        W88260  27.974   8.711   1.874
17661W        W88261  17.096  43.534  13.413
17662W        W88262  37.841  16.054  13.060
17663W        W88263  34.219  26.424  12.165
17664W        W88264   4.053  28.149   4.426
17665W        W88265  33.598  15.660   3.262
17666W        W88266  15.219   3.844  14.335
17667W        W88267   0.375   8.848  11.558
17668W        W88268   8.427   1.886   1.288
17669W        W88269   1.978  22.784  11.916
17670W        W88270  38.870  23.992  12.782
17671W        W88271  30.819  17.808   3.226
17672W        W88272  33.541   1.692  14.541
17673W        W88273  14.391  11.994   4.963
17674W        W88274  44.015  23.956   3.191
17675W        W88275  34.677   1.480  13.135
17676W        W88276  18.102  10.166   3.655
17677W        W88277  38.650  35.190  11.128
17678W        W88278   9.246  19.985  13.845
17679W        W88279  35.982  42.884  11.395
17680W        W88280  13.435  10.803   3.192
17681W        W88281  11.188  17.982   4.619
17682W        W88282  31.909  37.367   2.826
17683W        W88283  21.637   4.152  14.294
17684W        W88284  22.029  19.738  12.652
17685W        W88285  28.851   9.317  13.629
17686W        W88286  33.497  43.710  13.351
17687W        W88287   1.452   4.976  12.601
17688W        W88288  36.450   4.240   2.650
17689W        W88289  15.280  44.560   3.265
17690W        W88290  20.963  34.625   2.418
17691W        W88291   3.483  31.245   0.402
17692W        W88292  26.859   0.886   1.353
17693W        W88293  36.182  25.412   0.794
17694W        W88294  33.335   6.820   2.809
17695W        W88295  11.046  42.881   0.856
17696W        W88296  23.483  16.196   4.458
17697W        W88297  25.200   8.835   2.327
17698W        W88298  39.790   4.265  10.312
17699W        W88299  20.910  17.793  10.678
17700W        W88300  10.846  18.132   2.847
17701W        W88301  14.294  35.103   3.623
17702W        W88302  13.198   2.918   0.757
17703W        W88303  25.195   7.141   2.391
17704W        W88304   0.330   5.435   3.597
17705W        W88305   5.529   4.242  11.989
17706W        W88306  27.423  16.266   0.652
17707W        W88307   1.216  28.423   4.155
17708W        W88308  37.665  32.139   2.808
17709W        W88309  34.104  21.479   0.487
17710W        W88310   1.850  17.844   3.778
17711W        W88311  44.305  12.812   1.456
17712W        W88312  11.206  44.309   2.289
17713W        W88313  15.205  28.275   4.170
17714W        W88314   1.793  22.056  13.828
17715W        W88315  25.590  20.477   0.418
17716W        W88316  34.104  32.543   4.720
17717W        W88317  27.920  21.411  13.519
17718W        W88318   1.872   4.910  13.895
17719W        W88319  14.176  18.174   0.406
17720W        W88320  11.700  30.542   4.127
17721W        W88321  13.139  29.387   2.234
17722W        W88322  33.379  14.536   4.370
17723W        W88323  17.525  18.113  11.579
17724W        W88324  13.714  40.502   3.962
17725W        W88325  21.200   5.383   0.332
17726W        W88326  31.931  19.181  13.078
17727W        W88327   2.244  18.141   3.664
17728W        W88328  29.918   2.968  11.761
17729W        W88329  28.331  41.299  10.630
17730W        W88330  24.089   7.269   0.214
17731W        W88331  19.446   1.878  14.826
17732W        W88332  15.105   6.133   2.411
17733W        W88333  32.068  17.314  14.994
17734W        W88334  34.346  16.165   0.299
17735W        W88335   4.822  32.505   0.900
17736W        W88336   6.222   9.060   3.727
17737W        W88337  19.301  20.230   2.769
17738W        W88338  25.349  39.511  11.963
17739W        W88339  22.241  12.319   0.487
17740W        W88340  39.060  21.960   2.903
17741W        W88341  22.102  19.098   3.107
17742W        W88342  11.309  40.353   3.141
17743W        W88343  26.119  18.193   4.864
17744W        W88344  41.485  27.078  14.767
17745W        W88345  22.097  20.438   4.154
17746W        W88346   3.143  41.315   0.727
17747W        W88347  19.060  18.929   4.105
17748W        W88348  33.181  34.023   2.630
17749W        W88349  14.110   5.690   3.909
17750W        W88350  31.642  35.362   2.986
17751W        W88351  18.810   9.263   1.715
17752W        W88352  38.996  32.307   1.810
17753W        W88353   6.882  30.912   4.905
17754W        W88354  33.028   1.744  12.054
17755W        W88355  41.444  22.975  14.485
17756W        W88356  35.861  31.638   3.328
17757W        W88357  23.235  32.845   1.022
17758W        W88358  35.593  35.171   3.656
17759W        W88359  30.961  44.018  12.822
17760W        W88360  36.848  19.087   0.918
17761W        W88361  19.537  11.095  14.858
17762W        W88362   9.200  31.383   0.384
17763W        W88363   8.412  44.464   3.925
17764W        W88364  13.216   1.305  14.354
17765W        W88365  20.565   6.276  11.514
17766W        W88366  17.750  30.543   0.474
17767W        W88367  21.650  18.274   4.386
17768W        W88368  41.268   1.358  12.421
17769W        W88369  17.043   0.589  10.181
17770W        W88370  18.089  16.094  14.027
17771W        W88371  37.501  32.555  14.931
17772W        W88372   2.310  44.005   2.617
17773W        W88373   1.893  31.083   3.287
17774W        W88374  15.835  14.760   5.032
17775W        W88375  20.140  43.252  14.909
17776W        W88376  11.372  32.673   2.259
17777W        W88377  20.931  29.299   1.927
17778W        W88378  24.478   9.416  14.350
17779W        W88379   2.382  14.791  14.940
17780W        W88380  29.166  17.594  13.833
17781W        W88381  28.708  42.392   3.885
17782W        W88382  18.972   8.986   2.811
17783W        W88383  23.220  44.881   9.780
17784W        W88384   1.848  27.414   4.633
17785W        W88385   5.850  18.802   4.676
17786W        W88386  12.241  28.626  13.320
17787W        W88387  10.891   9.009  14.863
17788W        W88388  19.055   5.826   2.257
17789W        W88389  26.727  21.450   3.625
17790W        W88390  16.775  33.761  11.169
17791W        W88391  38.735   1.677   2.912
17792W        W88392  13.224  44.424  12.623
17793W        W88393  23.995  37.039   0.825
17794W        W88394  17.085  33.662   2.323
17795W        W88395  39.933  35.807   3.220
17796W        W88396   2.077  18.853  14.972
17797W        W88397  28.144  39.807   3.203
17798W        W88398  23.749   3.179   4.834
17799W        W88399  43.931  37.235  12.775
17800W        W88400  11.009  27.178  11.153
17801W        W88401  15.118  15.208   0.931
17802W        W88402   0.565  11.155   1.705
17803W        W88403  35.063  12.640  13.049
17804W        W88404  10.856   0.314   4.076
17805W        W88405  17.430  30.447   5.066
17806W        W88406   6.940  12.117   0.342
17807W        W88407  37.603  42.240  11.469
17808W        W88408  42.472   8.269   4.460
17809W        W88409  14.651  31.304  13.261
17810W        W88410   4.180  16.553   0.357
17811W        W88411  34.410  27.786   4.293
17812W        W88412  40.103   0.288  12.454
17813W        W88413  32.573  22.759  13.070
17814W        W88414   0.352   6.207  14.972
17815W        W88415  24.476  38.473  11.571
17816W        W88416  20.872   2.312   0.117
17817W        W88417   8.235  42.800   2.779
17818W        W88418   2.655  25.075   1.677
17819W        W88419   5.536  34.297  14.321
17820W        W88420  11.692   3.006  10.513
17821W        W88421   1.329   0.781  14.905
17822W        W88422  14.796  43.395  12.524
17823W        W88423   8.508  38.342  13.533
17824W        W88424  41.789  14.299  14.394
17825W        W88425  25.627   7.457   3.348
17826W        W88426  42.085  24.485   1.444
17827W        W88427   7.003  14.247  12.043
17828W        W88428  20.560  32.395  13.853
17829W        W88429  32.027  25.976  13.035
17830W        W88430  33.036   6.783   4.675
17831W        W88431  43.756   7.347  14.866
17832W        W88432  31.496  19.345  12.520
17833W        W88433  34.446   8.364   1.022
17834W        W88434  22.109  23.191   4.959
17835W        W88435  32.987  23.464  10.906
17836W        W88436  19.494  23.985   3.223
17837W        W88437   8.808  41.951  14.376
17838W        W88438  36.370  20.537   0.638
17839W        W88439  32.136   4.780   3.728
17840W        W88440  44.418  44.779  12.423
17841W        W88441  42.381  13.347  14.813
17842W        W88442  37.418  26.228   1.154
17843W        W88443  23.250  19.807   3.339
17844W        W88444   1.473  19.633  13.452
17845W        W88445   2.872  10.087   3.315
17846W        W88446  34.351  20.502  14.819
17847W        W88447  29.031  19.018  11.305
17848W        W88448  29.357  26.687  10.112
17849W        W88449  20.355  13.831  13.993
17850W        W88450   7.416  13.969  11.969
17851W        W88451  11.022   0.878   4.221
17852W        W88452  37.885   7.104   3.663
17853W        W88453  33.166  33.473  12.841
17854W        W88454  11.610  39.447  14.019
17855W        W88455  14.010  38.819   9.709
17856W        W88456  36.089   5.666   1.272
17857W        W88457  31.952  26.247  10.823
17858W        W88458  44.435   8.122  13.223
17859W        W88459   9.752  41.353   3.267
17860W        W88460   7.524  28.539   4.403
17861W        W88461   2.548  13.968   4.019
17862W        W88462  29.543  33.526  11.979
17863W        W88463  39.549   6.826   0.943
17864W        W88464  35.358  15.148   2.734
17865W        W88465  22.061   4.879   0.170
17866W        W88466  28.401  17.249  10.237
17867W        W88467  32.536  23.253  13.226
17868W        W88468   4.511   5.227  13.786
17869W        W88469  37.330  31.011  14.069
17870W        W88470  42.348  38.946   3.294
17871W        W88471  13.394  33.530  11.600
17872W        W88472  10.544  27.914   0.449
17873W        W88473  41.476   4.674  14.914
17874W        W88474  36.046  41.655  14.849
17875W        W88475   4.182  44.696   2.801
17876W        W88476   6.783  23.491   0.760
17877W        W88477  17.841  12.824  14.054
17878W        W88478  38.792  24.370  12.393
17879W        W88479  36.313  11.921   2.460
17880W        W88480  15.630  37.860  12.484
17881W        W88481  10.317  41.892   1.941
17882W        W88482  20.530  21.181   0.436
17883W        W88483  22.825  19.363  14.747
17884W        W88484  37.436  10.970   0.333
17885W        W88485   9.608  11.483   4.333
17886W        W88486  20.076  10.940   3.262
17887W        W88487  25.397  11.905  12.979
17888W        W88488  41.214   6.727   5.463
17889W        W88489   5.335  25.224   1.340
17890W        W88490  32.536  23.731  11.995
17891W        W88491   5.903  43.973  13.981
17892W        W88492  41.188   1.883   5.058
17893W        W88493   7.422  36.870   2.713
17894W        W88494  24.559  43.475   0.526
17895W        W88495  40.944  36.226  11.311
17896W        W88496  32.322  22.669   2.737
17897W        W88497  18.848   0.706   2.699
17898W        W88498  42.889   4.361   3.194
17899W        W88499  27.488  16.703   3.700
17900W        W88500  16.805  18.332  11.952
17901W        W88501  22.170  17.167   4.237
17902W        W88502  21.437  36.813   4.775
17903W        W88503  11.156   4.875  12.069
17904W        W88504  33.416  33.971   0.236
17905W        W88505  16.685  15.194   3.291
17906W        W88506   3.879  25.621   4.777
17907W        W88507  36.678  18.077  12.033
17908W        W88508   9.675   8.247   2.819
17909W        W88509  40.631  32.581   2.179
17910W        W88510  41.332  40.018  12.925
17911W        W88511  41.536   1.980  10.690
17912W        W88512   3.213  14.333   1.320
17913W        W88513  14.897  14.853   2.612
17914W        W88514  31.560  37.923  11.939
17915W        W88515  22.161  18.674  12.176
17916W        W88516  41.970  18.182   2.244
17917W        W88517  44.107  11.913   0.918
17918W        W88518  14.208  34.306  11.658
17919W        W88519  28.905  42.506   1.283
17920W        W88520   0.417  23.194  12.099
17921W        W88521  17.749  37.619   2.949
17922W        W88522  14.982  29.315  14.405
17923W        W88523   9.663  31.098   2.603
17924W        W88524  43.843  11.382  13.486
17925W        W88525   0.960  37.558   0.289
17926W        W88526   4.781  13.379  11.395
17927W        W88527  13.326   5.272   3.763
17928W        W88528  14.640   5.612   3.816
17929W        W88529  26.060  24.248  12.145
17930W        W88530  21.290  10.250  14.317
17931W        W88531  27.242  11.225   2.359
17932W        W88532   8.905  10.746  13.373
17933W        W88533  15.590  31.940  13.875
17934W        W88534  23.459  10.860   2.789
17935W        W88535   7.314  31.034  12.851
17936W        W88536  17.033  39.878   1.157
17937W        W88537  18.731  12.482   1.536
17938W        W88538  25.946  41.245   1.286
17939W        W88539   2.379  25.925  14.562
17940W        W88540  41.632   5.537  12.986
17941W        W88541  25.792  25.156   5.023
17942W        W88542  15.666   8.556   2.011
17943W        W88543   3.943   4.201   4.460
17944W        W88544  10.215   7.213   4.042
17945W        W88545  33.625  16.099  12.514
17946W        W88546  16.323  41.398   0.464
17947W        W88547  14.198  33.677   0.460
17948W        W88548  43.118  32.668   4.080
17949W        W88549  30.441  12.767  12.463
17950W        W88550  35.583  12.910  12.880
17951W        W88551  25.113  33.885   3.368
17952W        W88552  38.815  24.687   0.567
17953W        W88553  17.811   9.748  14.016
17954W        W88554  23.045  33.986  14.334
17955W        W88555   1.757  18.670  13.830
17956W        W88556   3.534  39.236   0.811
17957W        W88557  21.165  13.760  12.525
17958W        W88558   4.061  17.811  14.061
17959W        W88559  19.102  36.098   4.724
17960W        W88560  19.050  44.916  11.102
17961W        W88561  31.192  35.530   3.671
17962W        W88562  33.085   7.769   2.154
17963W        W88563  41.995  18.564   2.762
17964W        W88564  38.944   9.428   0.596
17965W        W88565  25.490   1.374  11.650
17966W        W88566   2.963   1.895  12.273
17967W        W88567  29.644  28.588   2.997
17968W        W88568   6.383   7.120   2.812
17969W        W88569  17.845   6.285   3.667
17970W        W88570   6.361  12.301   3.180
17971W        W88571  24.661   5.005  12.795
17972W        W88572   7.483   8.318   4.556
17973W        W88573   9.631  28.840   3.233
17974W        W88574  34.248  12.616  13.399
17975W        W88575  28.154  41.540  11.953
17976W        W88576   3.696  37.811  14.383
17977W        W88577  28.438  42.347   0.346
17978W        W88578  23.553  38.856   2.658
17979W        W88579  21.305  44.388   2.748
17980W        W88580  34.144  32.246   3.152
17981W        W88581  14.956  37.408   1.760
17982W        W88582  21.570   8.340   0.852
17983W        W88583  37.786  41.701   4.819
17984W        W88584  38.521  25.411  13.898
17985W        W88585  36.878  14.421   3.786
17986W        W88586   0.462   6.036  14.463
17987W        W88587   0.492  38.977   2.270
17988W        W88588  41.015  30.375   2.082
17989W        W88589  23.328  43.445  13.698
17990W        W88590  17.126  31.831  14.856
17991W        W88591  36.962  10.625   3.586
17992W        W88592  18.774   8.733   2.399
17993W        W88593  12.996  33.965  14.789
17994W        W88594  12.647  28.543  10.494
17995W        W88595  15.680  18.563   1.531
17996W        W88596  21.391  11.359  10.031
17997W        W88597  24.501   6.269   4.090
17998W        W88598  35.570  10.096  12.080
17999W        W88599   2.721  40.843  12.599
18000W        W88600  11.809  37.657  13.450
18001W        W88601  18.159   1.786  13.261
18002W        W88602  26.654  21.014   4.880
18003W        W88603  13.852  20.701  12.562
18004W        W88604  15.717  27.031  13.967
18005W        W88605   0.528  41.840  13.015
18006W        W88606   0.228  41.667  14.438
18007W        W88607   2.957  28.603   2.353
18008W        W88608  28.420  32.581  10.074
18009W        W88609  43.688   9.201  11.972
18010W        W88610  18.927   0.303   1.520
18011W        W88611  42.760  41.270   1.278
18012W        W88612   5.350   5.428  14.752
18013W        W88613  32.168  19.162   2.337
18014W        W88614  17.248  23.242  13.558
18015W        W88615  36.024  18.222   2.332
18016W        W88616  16.298  19.639  13.019
18017W        W88617   5.439  29.684  13.936
18018W        W88618  11.356  15.362   4.176
18019W        W88619  31.966  31.023   4.906
18020W        W88620   1.889  17.035   3.304
18021W        W88621  34.083  40.324   3.776
18022W        W88622  33.014  11.707  12.034
18023W        W88623   4.366  43.801   1.247
18024W        W88624   1.451  41.401   1.402
18025W        W88625  19.608  25.498   0.762
18026W        W88626   9.135   1.181   4.164
18027W        W88627  44.373  23.436  11.248
18028W        W88628  11.298   9.678   2.509
18029W        W88629  15.134  41.885   0.356
18030W        W88630  42.242  33.848   4.221
18031W        W88631  34.865   8.441   1.998
18032W        W88632   9.761  26.659  12.853
18033W        W88633  34.893  16.892   4.065
18034W        W88634  44.556  41.596   0.837
18035W        W88635  15.153  23.529   1.756
18036W        W88636  34.458  22.531   0.785
18037W        W88637  38.942  13.367  10.786
18038W        W88638  24.576  17.070   0.144
18039W        W88639   4.224  38.410  13.929
18040W        W88640  12.792  16.791  13.865
18041W        W88641  14.632   4.632   4.688
18042W        W88642  42.993  12.872   4.663
18043W        W88643  26.075  16.171  14.905
18044W        W88644  12.424   9.693   2.700
18045W        W88645  25.489   9.986  12.100
18046W        W88646  21.180  16.039   2.677
18047W        W88647  32.135   2.481   0.723
18048W        W88648   3.692  43.412  14.506
18049W        W88649  23.258  17.927   1.866
18050W        W88650  28.959  24.224  10.672
18051W        W88651   1.781  16.244  12.453
18052W        W88652  40.300   1.361  10.825
18053W        W88653  27.901   1.458  12.036
18054W        W88654  11.134  16.480  10.971
18055W        W88655   4.363  21.490   2.244
18056W        W88656  23.506  23.837  14.391
18057W        W88657   9.764   1.357  12.778
18058W        W88658  19.780  23.264   1.840
18059W        W88659  16.123  26.700   0.452
18060W        W88660   5.880  36.331  11.188
18061W        W88661  33.983   4.679  14.057
18062W        W88662  41.260  25.968  13.722
18063W        W88663  22.719   4.414   0.289
18064W        W88664  27.027  21.998   2.970
18065W        W88665   0.849  10.530  11.988
18066W        W88666   5.947  19.938  11.156
18067W        W88667  42.552   6.453  13.045
18068W        W88668  42.034   1.349  13.598
18069W        W88669  29.726  24.617  12.663
18070W        W88670  19.642  35.600   2.852
18071W        W88671  28.968  13.151  13.983
18072W        W88672  17.273  29.373  12.361
18073W        W88673   2.818  29.589   4.972
18074W        W88674  13.713  21.145   1.510
18075W        W88675   5.042  23.066   4.731
18076W        W88676  22.892  28.193  10.479
18077W        W88677  26.497   2.359  10.735
18078W        W88678  19.795   8.368  12.691
18079W        W88679  41.947   5.503  10.144
18080W        W88680  39.135  19.713  12.969
18081W        W88681  17.746  38.320  13.016
18082W        W88682   3.062  15.799   1.368
18083W        W88683   2.410  25.924   1.761
18084W        W88684  25.985  38.068  12.861
18085W        W88685  38.991  34.879   1.346
18086W        W88686   5.910  44.348  13.313
18087W        W88687  40.512  19.917  15.000
18088W        W88688   7.642  29.310   0.099
18089W        W88689  21.501  42.006  14.379
18090W        W88690  23.353  23.660  12.433
18091W        W88691  14.128   6.814  14.427
18092W        W88692  21.714  38.746  11.657
18093W        W88693  11.646  33.336  13.882
18094W        W88694   8.157  44.279   4.563
18095W        W88695  42.409   0.778  14.709
18096W        W88696  29.675  21.099  13.683
18097W        W88697  28.638  37.809  11.955
18098W        W88698   0.947  41.522   1.336
18099W        W88699  19.376  14.166   1.244
18100W        W88700  11.688  42.189   4.173
18101W        W88701  28.973  17.815   1.315
18102W        W88702  36.121   4.904   3.755
18103W        W88703  38.325  41.519  14.295
18104W        W88704  32.465  19.089  11.941
18105W        W88705  36.148   6.155   2.717
18106W        W88706   9.029  35.515   4.610
18107W        W88707  28.334   5.794  11.526
18108W        W88708  25.122   9.307   1.695
18109W        W88709  42.447  33.969   2.669
18110W        W88710  42.033   2.869  11.128
18111W        W88711  43.834   0.533   3.578
18112W        W88712  35.538  29.944   0.031
18113W        W88713   9.293   8.190   1.203
18114W        W88714  23.646  37.907  14.610
18115W        W88715   5.528  43.455  10.687
18116W        W88716  42.083   9.620   1.659
18117W        W88717   0.219  34.536  11.157
18118W        W88718  24.057  14.594  14.481
18119W        W88719  29.301  29.716  13.625
18120W        W88720   2.438  25.027  13.442
18121W        W88721  43.982   6.426  10.384
18122W        W88722   7.355  27.974  14.985
18123W        W88723  21.201  29.607  10.420
18124W        W88724  39.256  36.260   2.569
18125W        W88725  36.767  11.262   2.918
18126W        W88726   4.807   4.661  11.881
18127W        W88727   2.902  15.639  10.665
18128W        W88728  25.506  34.583  13.035
18129W        W88729  26.037  23.304  12.637
18130W        W88730  25.641  25.718  13.497
18131W        W88731  15.365  25.583   1.451
18132W        W88732   5.281   6.670  14.288
18133W        W88733  18.543  24.688   5.341
18134W        W88734  31.012  26.988  12.525
18135W        W88735  27.513  20.325   4.119
18136W        W88736  19.933  44.032   4.097
18137W        W88737  40.974   2.787  14.802
18138W        W88738  26.630  40.820   1.866
18139W        W88739  11.707  17.833  14.767
18140W        W88740   7.750  22.015   2.923
18141W        W88741  18.982   0.509   2.236
18142W        W88742  43.402  17.177  12.452
18143W        W88743  16.991   5.960  11.880
18144W        W88744  28.355  28.868  13.015
18145W        W88745  36.396  14.064  11.153
18146W        W88746   0.240   6.380  10.589
18147W        W88747  15.237  11.211  14.977
18148W        W88748  35.417   4.322   4.443
18149W        W88749   8.225  40.200  11.629
18150W        W88750  21.098  25.185   0.012
18151W        W88751  10.931  43.417  11.247
18152W        W88752  17.803  41.365  12.101
18153W        W88753  44.710  12.336  12.448
18154W        W88754  42.306  36.926  12.355
18155W        W88755  44.070  26.822  11.056
18156W        W88756   3.604  20.209  12.048
18157W        W88757  40.906  28.523  10.683
18158W        W88758  38.202  35.261  14.282
18159W        W88759   3.437  25.532  10.972
18160W        W88760   1.749  29.363   0.332
18161W        W88761  19.532  33.682   2.076
18162W        W88762  18.612  23.870  10.713
18163W        W88763  26.709  32.528  14.056
18164W        W88764  38.822  32.482  10.727
18165W        W88765  43.474  32.437  13.335
18166W        W88766  43.282  38.530   4.321
18167W        W88767  22.865  32.166   4.523
18168W        W88768  24.144  10.335   2.617
18169W        W88769  29.699   9.149   0.274
18170W        W88770   2.463   0.321   0.667
18171W        W88771  27.300  34.887  11.034
18172W        W88772  13.284  18.647   1.300
18173W        W88773  23.157   4.124   0.178
18174W        W88774  18.632  26.948  11.698
18175W        W88775  11.321  38.555  14.874
18176W        W88776  35.877  23.923  11.125
18177W        W88777  41.526  37.032   3.226
18178W        W88778  23.428  33.195   2.362
18179W        W88779  11.362  43.010  14.452
18180W        W88780  23.476  38.746   4.474
18181W        W88781  29.159   3.230  14.783
18182W        W88782  14.306  16.480   0.408
18183W        W88783  44.616   3.877   1.775
18184W        W88784  29.847  26.173  11.152
18185W        W88785  14.486  19.897  13.045
18186W        W88786   2.752  23.979   0.854
18187W        W88787  18.861  24.670   9.942
18188W        W88788  39.218  10.855  13.382
18189W        W88789  23.494  18.601  12.927
18190W        W88790  42.213  19.973  11.362
18191W        W88791   2.742   0.044  10.775
18192W        W88792  13.820  39.023  14.575
18193W        W88793  34.045  22.246   0.954
18194W        W88794   8.021   9.934   0.378
18195W        W88795  42.647  10.120  14.546
18196W        W88796  39.300  28.420   1.038
18197W        W88797   3.737  30.250   3.593
18198W        W88798  42.457  30.319   3.272
18199W        W88799  28.440  33.618  13.124
18200W        W88800  43.449  30.265  10.388
18201W        W88801  10.610  20.691  14.468
18202W        W88802  15.626  18.259   4.595
18203W        W88803   4.910  23.136   2.271
18204W        W88804   0.360  16.544  11.178
18205W        W88805   0.208   6.799   4.435
18206W        W88806  12.893  19.591  13.876
18207W        W88807   3.682  31.514  14.927
18208W        W88808  18.648  24.790   2.327
18209W        W88809  22.773  14.882  14.512
18210W        W88810  28.204  21.803   3.117
18211W        W88811  14.597   0.029   4.225
18212W        W88812  34.791  40.846  11.152
18213W        W88813  29.165   8.607  10.391
18214W        W88814  29.966  29.263   4.685
18215W        W88815  34.835  21.171  14.948
18216W        W88816  19.172  13.991  11.865
18217W        W88817   2.387  13.940  10.691
18218W        W88818  15.833  20.629   4.745
18219W        W88819   0.662  27.477  13.967
18220W        W88820  11.825  26.392  14.197
18221W        W88821   6.326  10.748  11.879
18222W        W88822  27.911  10.872   4.557
18223W        W88823  10.122   2.003  14.969
18224W        W88824  43.890   3.316   4.259
18225W        W88825   4.204  13.244  13.374
18226W        W88826  32.204   2.736   1.330
18227W        W88827  43.399  36.489   2.213
18228W        W88828  35.970  36.548  13.913
18229W        W88829   5.992  31.494   1.267
18230W        W88830   2.862  12.385   1.816
18231W        W88831   9.325  32.471  13.856
18232W        W88832   0.271   6.822   0.473
18233W        W88833   9.388   9.792   1.343
18234W        W88834  27.404  22.192   3.749
18235W        W88835   9.815   3.231   1.953
18236W        W88836  28.632  43.923   2.679
18237W        W88837  38.207  39.887   4.110
18238W        W88838  32.953   0.441   3.559
18239W        W88839  15.912   7.341  11.672
18240W        W88840  28.249  33.556  13.595
18241W        W88841   3.187  43.472  14.602
18242W        W88842  32.050  32.601  11.992
18243W        W88843  32.499   2.911  11.550
18244W        W88844  28.147  43.343  13.058
18245W        W88845  25.465  39.430  13.804
18246W        W88846  36.684  28.966  13.446
18247W        W88847  31.367  23.838   3.155
18248W        W88848   2.834  10.587   1.152
18249W        W88849   1.168   0.898  12.730
18250W        W88850  40.858   9.752  10.695
18251W        W88851  41.065  43.934   1.256
18252W        W88852  32.878  40.055   2.638
18253W        W88853  32.542  35.373   3.814
18254W        W88854  33.625  15.817  10.155
18255W        W88855  34.921  34.118   4.072
18256W        W88856  32.286   5.966   2.500
18257W        W88857  29.041   0.912  11.653
18258W        W88858  29.023  10.382  12.483
18259W        W88859  27.607   5.292   2.223
18260W        W88860   6.774  35.893  12.018
18261W        W88861  33.010  39.605  11.429
18262W        W88862  22.309  37.533  14.388
18263W        W88863  15.263  36.810   1.189
18264W        W88864  35.905  37.388   4.704
18265W        W88865  15.382  22.992  14.284
18266W        W88866  30.568  29.233   0.379
18267W        W88867   1.435  24.764   2.561
18268W        W88868   5.500  35.982  12.599
18269W        W88869  23.319  29.182  13.355
18270W        W88870   5.543  44.796  14.439
18271W        W88871  20.276  33.459   2.596
18272W        W88872  15.984  26.947   2.267
18273W        W88873  29.747   2.141  13.056
18274W        W88874  34.576  13.284  14.495
18275W        W88875  17.994  15.337  13.374
18276W        W88876   5.353  37.786  11.722
18277W        W88877  15.831  26.095  12.557
18278W        W88878  15.836  38.583  13.997
18279W        W88879   5.301  25.209  11.241
18280W        W88880  34.960  30.733  14.509
18281W        W88881  19.667   3.768   1.766
18282W        W88882  23.672  23.249  14.828
18283W        W88883   1.479  10.183   1.381
18284W        W88884  22.258   9.389   5.065
18285W        W88885  34.694   8.092   3.177
18286W        W88886   3.165  33.014   2.782
18287W        W88887   5.479  32.950  11.666
18288W        W88888  23.750  18.107  13.762
18289W        W88889   6.336  34.049  11.240
18290W        W88890   1.356   8.936   3.452
18291W        W88891  22.977  33.515  10.821
18292W        W88892  18.574  18.131   2.684
18293W        W88893  30.051  23.210  12.053
18294W        W88894  34.087   4.191  13.072
18295W        W88895  26.068  26.200   1.400
18296W        W88896  18.445  31.628   0.211
18297W        W88897  22.640  15.834  14.643
18298W        W88898  38.819  27.342  11.157
18299W        W88899  35.560   6.445  13.645
18300W        W88900  23.994   6.824  12.805
18301W        W88901  39.414  34.149  11.569
18302W        W88902  20.751  17.854   4.214
18303W        W88903  21.713  22.101  12.992
18304W        W88904  44.759  15.390  11.213
18305W        W88905   1.713  27.118  11.766
18306W        W88906  23.998  35.918  10.294
18307W        W88907  31.077  17.808   0.325
18308W        W88908  29.116  36.595   2.302
18309W        W88909  25.345  14.292  13.904
18310W        W88910  20.229  20.827   1.614
18311W        W88911   4.697  42.588   0.816
18312W        W88912   7.252   6.155   3.248
18313W        W88913   5.489  19.617  14.016
18314W        W88914  36.448  28.807   2.252
18315W        W88915  11.575  10.398  12.508
18316W        W88916  11.829  35.537  14.897
18317W        W88917  24.281   1.800  12.414
18318W        W88918  39.057   2.861   2.339
18319W        W88919  23.030  21.364  13.904
18320W        W88920  37.374  40.464  13.975
18321W        W88921  31.532  43.969   0.790
18322W        W88922   0.695  42.815  11.697
18323W        W88923   1.038  38.868   4.091
18324W        W88924  23.559  40.447   4.578
18325W        W88925   5.502  36.761   2.913
18326W        W88926  38.040  30.893  11.678
18327W        W88927  41.501   7.738  13.004
18328W        W88928  23.027  26.619   2.473
18329W        W88929  27.202  11.210   4.164
18330W        W88930  44.739  18.145   1.289
18331W        W88931  19.040   4.472  14.197
18332W        W88932  30.034  24.518  11.560
18333W        W88933  14.167  44.534  12.070
18334W        W88934  34.926  13.768  10.684
18335W        W88935  10.817   1.390  11.379
18336W        W88936  11.323  29.140  12.917
18337W        W88937  36.934   2.476  11.097
18338W        W88938  35.166   8.631   4.178
18339W        W88939  12.903   8.928  11.106
18340W        W88940   0.514  14.178   0.868
18341W        W88941  18.622   1.626  14.811
18342W        W88942   2.647  13.787   0.587
18343W        W88943  13.008  32.982  13.964
18344W        W88944  16.375  26.081  10.625
18345W        W88945  30.060  23.081   4.720
18346W        W88946  15.077  38.452  14.928
18347W        W88947  17.869  28.465   0.248
18348W        W88948   6.119  29.086   1.953
18349W        W88949  25.480  33.561  11.004
18350W        W88950   6.496   6.027  10.938
18351W        W88951   6.023  26.573   4.644
18352W        W88952  26.357  42.903   2.647
18353W        W88953  11.787  15.065  13.820
18354W        W88954  12.982  38.062   4.252
18355W        W88955  21.575   0.443  13.858
18356W        W88956  30.792  22.747  13.920
18357W        W88957   8.236  24.661   0.797
18358W        W88958  14.705  12.240  13.999
18359W        W88959  38.361   9.067  11.962
18360W        W88960  22.738  22.741  14.496
18361W        W88961  13.850  31.371  13.528
18362W        W88962  11.566  24.273  11.217
18363W        W88963  43.154  34.430   0.867
18364W        W88964  35.469  19.033  11.364
18365W        W88965   9.160  35.843  11.926
18366W        W88966  34.765  14.670  11.509
18367W        W88967   5.510  29.441  13.412
18368W        W88968   4.706  23.873  11.621
18369W        W88969  13.836  23.094   1.710
18370W        W88970   9.102  44.439   2.793
18371W        W88971   4.031  21.438   2.770
18372W        W88972   4.659  15.244  11.248
18373W        W88973  38.636   7.699  14.625
18374W        W88974  41.934  44.465   2.191
18375W        W88975  25.228  24.385   2.620
18376W        W88976  40.794  11.031  12.102
18377W        W88977  22.447  18.579  14.634
18378W        W88978  11.568  26.610  13.244
18379W        W88979  43.275  40.959   1.895
18380W        W88980  36.906  34.762  10.782
18381W        W88981  42.992  11.669  14.038
18382W        W88982   9.897  14.909  13.778
18383W        W88983  13.671   2.620  12.631
18384W        W88984  34.804  24.613  11.543
18385W        W88985  43.881  23.547  11.121
18386W        W88986   4.805  16.214   0.244
18387W        W88987  21.533  12.141  10.880
18388W        W88988  34.830  13.455   3.036
18389W        W88989  15.550  27.911   1.280
18390W        W88990  43.313  40.630   4.633
18391W        W88991  11.238  26.011  12.419
18392W        W88992   8.675  16.739  14.794
18393W        W88993  30.383  18.791   2.180
18394W        W88994  21.582  18.684  11.096
18395W        W88995   2.208  38.075   3.639
18396W        W88996  44.832  28.629   2.717
18397W        W88997   6.778  18.058   3.636
18398W        W88998  19.108  40.894  14.244
18399W        W88999  43.019   1.410  14.986
18400W        W89000  35.700  14.857  12.411
18401W        W89001  15.709   2.940   3.599
18402W        W89002   2.796  32.679   0.312
18403W        W89003  18.157   8.292   0.426
18404W        W89004  28.463  14.137  14.454
18405W        W89005  44.031  36.522  11.545
18406W        W89006  34.095  25.396  12.521
18407W        W89007   8.394  43.336   2.699
18408W        W89008  27.774  11.249  10.703
18409W        W89009  41.371  38.852  13.375
18410W        W89010  13.366   3.388   4.692
18411W        W89011  17.957  43.460   4.827
18412W        W89012  12.584   2.227  14.161
18413W        W89013  25.446  43.980  11.539
18414W        W89014  39.213   9.262  12.131
18415W        W89015   1.640  23.029   2.322
18416W        W89016   0.755  42.786   4.467
18417W        W89017  34.514  40.361  12.176
18418W        W89018  41.574   2.561   9.687
18419W        W89019  33.114  10.624   4.389
18420W        W89020  29.816  29.759  13.673
18421W        W89021   2.777  11.060   3.352
18422W        W89022  22.057  34.528   0.785
18423W        W89023  44.177  28.917  10.300
18424W        W89024  33.529  15.913  14.798
18425W        W89025  40.401  13.680  11.088
18426W        W89026   5.905  34.652   5.275
18427W        W89027  35.569  22.606  13.876
18428W        W89028  30.387  24.454  13.346
18429W        W89029  28.110  35.651   0.831
18430W        W89030   0.899   4.853   1.104
18431W        W89031  13.713  36.555  13.609
18432W        W89032  18.163  43.752   4.369
18433W        W89033  41.826  41.806   9.784
18434W        W89034  43.810  13.577  10.737
18435W        W89035  24.344  14.012  11.482
18436W        W89036  30.878  29.467  14.446
18437W        W89037  27.149  22.237  14.962
18438W        W89038  16.738  32.248   2.313
18439W        W89039  15.637  21.564  12.064
18440W        W89040  23.939  19.300   0.225
18441W        W89041  36.884   4.189   2.258
18442W        W89042  33.980   6.903   0.692
18443W        W89043  36.298   3.260   5.167
18444W        W89044   5.283  33.412  11.896
18445W        W89045  17.733  13.946  10.738
18446W        W89046  42.844  10.721   3.700
18447W        W89047  12.272  25.720  11.526
18448W        W89048  41.456  36.838  11.971
18449W        W89049   2.448  29.600   3.087
18450W        W89050  28.284   3.187  11.681
18451W        W89051   5.935   9.246   3.356
18452W        W89052   4.182   7.832   2.436
18453W        W89053  14.141  15.634   3.554
18454W        W89054  25.049  42.186  11.250
18455W        W89055  28.986  27.192  10.832
18456W        W89056  12.218  16.429   2.897
18457W        W89057   6.783  27.738   0.501
18458W        W89058  25.692   4.886  14.977
18459W        W89059  25.522  33.797  14.678
18460W        W89060  19.788  11.438  13.935
18461W        W89061  43.238  18.967   2.702
18462W        W89062   5.766  10.648  14.351
18463W        W89063  43.327  22.143  10.969
18464W        W89064   5.039  34.373  14.491
18465W        W89065  25.354  41.345   2.883
18466W        W89066  31.839  17.196  13.980
18467W        W89067   3.175  15.878   3.554
18468W        W89068   3.447  41.311  13.409
18469W        W89069  17.237  13.660  11.624
18470W        W89070  21.476  15.379  10.675
18471W        W89071   6.813  34.946   4.279
18472W        W89072   7.306  44.509  12.505
18473W        W89073  37.020  12.491  12.603
18474W        W89074   6.946  34.521  14.432
18475W        W89075  27.090  34.068   4.609
18476W        W89076  41.816   0.407   4.246
18477W        W89077   8.352  31.406  13.358
18478W        W89078   0.946   1.377  10.672
18479W        W89079  32.018   3.724  14.891
18480W        W89080  24.599  26.706   5.041
18481W        W89081  11.265  29.038   1.194
18482W        W89082   0.952  15.125  13.926
18483W        W89083  37.736  16.915   4.168
18484W        W89084  33.951   2.414   1.857
18485W        W89085  12.184   2.757  12.133
18486W        W89086  41.400  12.756   3.406
18487W        W89087   4.304  25.070   4.559
18488W        W89088  13.821   8.747  12.621
18489W        W89089   7.982  22.216  11.964
18490W        W89090  41.390  29.053   1.238
18491W        W89091  35.764   9.449  10.865
18492W        W89092   4.094  16.156  10.890
18493W        W89093  10.446  40.783  12.985
18494W        W89094  43.730   4.881  12.027
18495W        W89095   4.139   4.500   1.065
18496W        W89096  29.080  44.535  13.992
18497W        W89097   1.814  38.739   1.687
18498W        W89098  10.254  40.015   4.774
18499W        W89099  15.845   0.282   1.988
18500W        W89100  42.347  16.697   4.590
18501W        W89101  12.135  28.447  14.830
18502W        W89102   4.475   8.924  13.618
18503W        W89103  41.574  44.478  12.481
18504W        W89104  23.687  43.221   1.255
18505W        W89105  21.008  38.555   4.684
18506W        W89106  23.156  30.014   0.922
18507W        W89107  36.555  31.699  12.875
18508W        W89108  34.557   4.855   0.447
18509W        W89109  11.206   0.828   0.801
18510W        W89110  38.535  12.833   0.665
18511W        W89111  32.147   3.824  11.209
18512W        W89112  25.738  21.576   3.841
18513W        W89113  22.054  18.145   4.656
18514W        W89114  33.041  41.001  12.652
18515W        W89115  24.693   2.795   3.394
18516W        W89116  11.136  23.440   3.302
18517W        W89117  11.633  24.784  13.421
18518W        W89118  17.205  12.256   0.046
18519W        W89119  28.463  30.990  12.915
18520W        W89120  44.894   5.629  13.525
18521W        W89121  31.133   1.898  12.827
18522W        W89122  15.654  16.655  12.611
18523W        W89123  20.358   2.949   0.213
18524W        W89124  39.639  23.789  14.924
18525W        W89125  14.749  40.024   2.328
18526W        W89126   2.302  27.997   9.806
18527W        W89127  39.633  36.480   0.954
18528W        W89128  39.378  12.040   3.168
18529W        W89129   7.195  13.055   2.823
18530W        W89130   4.412  33.157  12.970
18531W        W89131   1.392  21.577   2.631
18532W        W89132   3.819  13.890  10.795
18533W        W89133  23.848  22.179  14.735
18534W        W89134   2.003  39.526  14.794
18535W        W89135  24.594   9.424  13.449
18536W        W89136   5.734  33.538  11.652
18537W        W89137  37.571  15.612  13.869
18538W        W89138  17.030  40.048  12.516
18539W        W89139  23.140  12.425   1.847
18540W        W89140  22.405  24.555   4.172
18541W        W89141   0.509  34.838   1.761
18542W        W89142  42.398   9.830   0.839
18543W        W89143  27.930   7.266  13.590
18544W        W89144  32.913   3.214   2.255
18545W        W89145  18.904  38.401  14.346
18546W        W89146  25.282  37.459   1.763
18547W        W89147  17.787  37.773   1.315
18548W        W89148   2.446   8.789  10.355
18549W        W89149  33.627  30.043  11.101
18550W        W89150  18.715  44.716   3.679
18551W        W89151  28.584  16.378  12.218
18552W        W89152  44.236  21.066  12.549
18553W        W89153  33.422  10.345   2.901
18554W        W89154  20.527  17.894   0.752
18555W        W89155   9.780  34.836   3.408
18556W        W89156  33.023  36.835  11.480
18557W        W89157   0.981  15.376  11.628
18558W        W89158  44.890  41.417   3.276
18559W        W89159  40.812   1.262   0.726
18560W        W89160  44.325  32.554   1.213
18561W        W89161  25.137  44.310   1.450
18562W        W89162   1.652  36.873  13.355
18563W        W89163  23.158  44.611   3.609
18564W        W89164  29.221   7.358   4.255
18565W        W89165  21.430   2.234   3.360
18566W        W89166  23.121  30.118  11.853
18567W        W89167  39.241  36.022   3.060
18568W        W89168  34.311  27.973   2.217
18569W        W89169  17.254   2.470  14.723
18570W        W89170  23.781  19.220  13.512
18571W        W89171  33.732  39.352  14.506
18572W        W89172  13.298  18.260   0.076
18573W        W89173  27.578  17.659   1.223
18574W        W89174  21.080  12.820  12.392
18575W        W89175  11.727  34.660   0.844
18576W        W89176  23.161  11.927   1.689
18577W        W89177  19.354  10.921  12.822
18578W        W89178  17.061   5.237  10.698
18579W        W89179  21.708  28.918   4.602
18580W        W89180  31.037   2.768  11.412
18581W        W89181  10.675  43.058   2.126
18582W        W89182   7.295   0.258  11.960
18583W        W89183  32.611  29.662   3.767
18584W        W89184  26.215  25.702   0.483
18585W        W89185  11.119  21.894   0.834
18586W        W89186  39.591  18.442   2.720
18587W        W89187  18.015   6.098  14.061
18588W        W89188  20.712  25.057  12.850
18589W        W89189   0.705  26.634   2.767
18590W        W89190  22.965   5.745   2.146
18591W        W89191  40.333  32.014  11.360
18592W        W89192  28.004  37.659  14.894
18593W        W89193  23.670  29.883   1.713
18594W        W89194  34.591  12.834   3.770
18595W        W89195  10.351  41.370   1.954
18596W        W89196   8.325  29.913   2.403
18597W        W89197   3.677  37.543   4.806
18598W        W89198  41.099   5.607  11.734
18599W        W89199   9.362   7.220  13.001
18600W        W89200  17.263   0.653   2.803
18601W        W89201  12.707  44.283  13.817
18602W        W89202  35.172  40.456  13.880
18603W        W89203   6.357  16.662  14.329
18604W        W89204  17.784  27.995   1.775
18605W        W89205  19.547  34.404   1.705
18606W        W89206   9.187  15.206  12.835
18607W        W89207  33.398  20.524  13.787
18608W        W89208  33.554   2.085   3.598
18609W        W89209  24.263  39.018  11.403
18610W        W89210   1.995  40.529   0.261
18611W        W89211  20.189  29.005   3.773
18612W        W89212  40.685  36.518   4.137
18613W        W89213   2.225  15.591   1.806
18614W        W89214  14.250  39.858   2.248
18615W        W89215  41.217  26.502  12.093
18616W        W89216  37.579  15.689  12.403
18617W        W89217  19.585  29.220   3.079
18618W        W89218  19.587  33.208  12.350
18619W        W89219   7.392   1.784  14.010
18620W        W89220  23.831  20.280   4.463
18621W        W89221  18.310  41.574  14.500
18622W        W89222  37.419  25.717  13.361
18623W        W89223  38.116   0.340   4.165
18624W        W89224  13.146   9.131   2.646
18625W        W89225  20.194   9.847   1.942
18626W        W89226  37.906  19.623   3.729
18627W        W89227  11.682  25.615   1.361
18628W        W89228   6.698  11.191   1.798
18629W        W89229  28.475  11.951   1.782
18630W        W89230   5.448  39.379   2.258
18631W        W89231  30.372  29.690   0.535
18632W        W89232  32.967   1.926  10.694
18633W        W89233   2.283  36.849   2.843
18634W        W89234  23.752  40.481   2.252
18635W        W89235  25.607   9.672   2.831
18636W        W89236  44.785  37.823   3.669
18637W        W89237  28.266  44.963   1.230
18638W        W89238  31.906  10.690  12.887
18639W        W89239  32.255  11.162  12.924
18640W        W89240  10.805  19.111   1.449
18641W        W89241  29.739  24.116  13.956
18642W        W89242  44.155  17.556  13.592
18643W        W89243   1.057  15.160  12.297
18644W        W89244  11.159  26.182   0.854
18645W        W89245  22.088  40.351   4.719
18646W        W89246  27.258   2.795   3.819
18647W        W89247  13.489  17.779   1.297
18648W        W89248  26.472   9.349   0.934
18649W        W89249  12.740  40.847   2.235
18650W        W89250  13.854  27.203  13.534
18651W        W89251   4.688  17.349  11.575
18652W        W89252  37.935  22.582  13.406
18653W        W89253  29.689  34.484   2.294
18654W        W89254  34.795  33.078   4.154
18655W        W89255   9.800  32.888   0.455
18656W        W89256  16.784  17.660  14.919
18657W        W89257   0.219  41.109   4.903
18658W        W89258  35.372   2.495   1.242
18659W        W89259  38.873  20.986  12.495
18660W        W89260  36.153   1.185  12.956
18661W        W89261  36.601  35.462   1.260
18662W        W89262  31.594   4.421   1.228
18663W        W89263  11.666  31.455   0.068
18664W        W89264  39.949  26.809  11.011
18665W        W89265  20.525  42.023   4.062
18666W        W89266  14.475   5.244  10.743
18667W        W89267  22.253  41.897   2.747
18668W        W89268  34.605  41.302   0.380
18669W        W89269  19.739  19.476  12.782
18670W        W89270  14.372  11.672  14.807
18671W        W89271  37.283  19.992  10.338
18672W        W89272  38.963  22.417  10.662
18673W        W89273  12.827  21.311  14.583
18674W        W89274  40.526  11.824   1.736
18675W        W89275   6.764  44.883  12.555
18676W        W89276  22.650  33.814   4.042
18677W        W89277  18.015  13.746  12.328
18678W        W89278  43.426   5.967  12.864
18679W        W89279  44.717  15.793   2.790
18680W        W89280   5.535  39.224  12.057
18681W        W89281  20.508  21.350  12.672
18682W        W89282  17.090  24.090   2.366
18683W        W89283  39.365   0.749  13.320
18684W        W89284  11.975  31.998  10.285
18685W        W89285   0.571  31.906   5.003
18686W        W89286  37.968  35.940  10.399
18687W        W89287  20.776  19.651   0.029
18688W        W89288   1.304  38.729   1.658
18689W        W89289  40.443  27.401   3.655
18690W        W89290   8.242   4.753  14.271
18691W        W89291  11.382  38.086   0.939
18692W        W89292  37.523  37.808  13.797
18693W        W89293   0.838  14.352   0.371
18694W        W89294  23.656  37.827   3.359
18695W        W89295  13.250  16.591  13.809
18696W        W89296  28.531  38.903   1.898
18697W        W89297   2.967  11.901  14.312
18698W        W89298  39.129  15.982   1.837
18699W        W89299  36.963  37.872   1.745
18700W        W89300  17.696  19.341   0.558
18701W        W89301  26.874  18.348  11.991
18702W        W89302  20.481  41.997  14.387
18703W        W89303  44.799   1.847  12.757
18704W        W89304  17.188  10.862   1.869
18705W        W89305  19.784  23.912   5.012
18706W        W89306  33.440  34.925   1.717
18707W        W89307  41.012  33.033  12.697
18708W        W89308  12.387  30.626   2.759
18709W        W89309  34.045  19.004  13.517
18710W        W89310  23.120  12.252  13.898
18711W        W89311   3.735  38.452  13.782
18712W        W89312  14.774  42.795   0.912
18713W        W89313  33.379  11.707  13.037
18714W        W89314  31.686  31.982   0.307
18715W        W89315  41.849   6.846  10.681
18716W        W89316  40.723  34.810   3.407
18717W        W89317  19.180   9.601  11.503
18718W        W89318  11.759  11.902   5.333
18719W        W89319  16.728  13.101   0.385
18720W        W89320  33.041  41.416  10.804
18721W        W89321   8.743  29.111  11.411
18722W        W89322  32.502  36.568  14.368
18723W        W89323  40.425  40.988  13.628
18724W        W89324   9.738  17.288   4.777
18725W        W89325  19.094   8.704  10.587
18726W        W89326  41.784  23.583  13.445
18727W        W89327  13.371   8.234   2.821
18728W        W89328   6.193  25.685   0.745
18729W        W89329  15.542  37.602  12.016
18730W        W89330  34.561  21.533  11.636
18731W        W89331   5.487   1.853   0.190
18732W        W89332  40.497  37.444   4.139
18733W        W89333   4.567   7.938  11.173
18734W        W89334  25.904  30.064   2.902
18735W        W89335  16.188  37.904  13.908
18736W        W89336  16.842   1.883   1.342
18737W        W89337  11.663  31.100   2.440
18738W        W89338  18.999   3.708   4.118
18739W        W89339  14.863  19.059  13.089
18740W        W89340  17.410   2.585  11.662
18741W        W89341  32.123   4.332   1.147
18742W        W89342  37.217   1.923  11.689
18743W        W89343  16.130   6.394   1.263
18744W        W89344  16.967  33.913  14.516
18745W        W89345  43.848   5.135  12.908
18746W        W89346   6.667  14.788   4.564
18747W        W89347  14.918  33.810   1.805
18748W        W89348   6.584  32.846  11.196
18749W        W89349  21.751  23.543   1.351
18750W        W89350  40.079  11.178   4.834
18751W        W89351  25.476   0.477  11.662
18752W        W89352  37.811   5.064  13.523
18753W        W89353  12.489  39.005   0.467
18754W        W89354   2.305  29.959   0.942
18755W        W89355  36.392  23.136   1.855
18756W        W89356  25.054  35.650   3.258
18757W        W89357  34.835  42.242  12.049
18758W        W89358  14.272  19.559   2.572
18759W        W89359   0.419   5.674  11.451
18760W        W89360   8.397  16.990  13.056
18761W        W89361  27.075   6.448  13.331
18762W        W89362  14.849  12.194  13.486
18763W        W89363   0.239  25.118  13.961
18764W        W89364  27.441  15.084   1.350
18765W        W89365  10.901  10.358   1.672
18766W        W89366  16.856  14.104  12.192
18767W        W89367   5.824  12.056  12.901
18768W        W89368   0.892  23.363   1.765
18769W        W89369  29.598  33.546   1.258
18770W        W89370  25.072   2.650   4.186
18771W        W89371   3.751  32.346   3.693
18772W        W89372  40.404  31.825   1.797
18773W        W89373  13.670   5.207   0.926
18774W        W89374  34.118   2.674   0.401
18775W        W89375  23.536  14.166  14.893
18776W        W89376  38.091  40.030   1.807
18777W        W89377  11.416  41.958   0.958
18778W        W89378  43.826   5.798   2.362
18779W        W89379   5.968  42.904   4.991
18780W        W89380  22.338  19.486  14.591
18781W        W89381  21.519  11.200  12.406
18782W        W89382   5.399  23.300  13.789
18783W        W89383  10.646   5.484  12.592
18784W        W89384  22.088  15.590   2.673
18785W        W89385   4.359   4.456   2.855
18786W        W89386  16.482  42.522  10.696
18787W        W89387  38.397  19.310   4.994
18788W        W89388  27.878  19.930   2.905
18789W        W89389  40.175   3.644   0.320
18790W        W89390  44.712  25.254  14.544
18791W        W89391  26.757  30.510   5.086
18792W        W89392  20.719  31.156  11.434
18793W        W89393  29.954  12.381  13.401
18794W        W89394  39.963   4.325   2.527
18795W        W89395  19.015  43.260   3.716
18796W        W89396  44.208  39.553  13.899
18797W        W89397  35.038  21.719  14.427
18798W        W89398  33.879  38.506  11.691
18799W        W89399  38.281   3.755   3.652
18800W        W89400  29.451  33.953   3.864
18801W        W89401  13.832   0.322  11.235
18802W        W89402  40.455  41.455  13.380
18803W        W89403  11.669  17.698   1.086
18804W        W89404   6.875   6.641  10.486
18805W        W89405  25.000  33.385   0.356
18806W        W89406   1.039  16.902   4.058
18807W        W89407  37.400  35.840   4.811
18808W        W89408  37.099   9.371   1.382
18809W        W89409  17.769  17.129  12.468
18810W        W89410   8.236   0.924  13.262
18811W        W89411  28.392  39.206  11.304
18812W        W89412   4.457  22.737  14.530
18813W        W89413  29.623  30.673   1.524
18814W        W89414  10.845  10.587  13.013
18815W        W89415  44.307   3.445   2.760
18816W        W89416  29.044  31.739   3.655
18817W        W89417  20.035  16.706  10.667
18818W        W89418  30.231  32.169   1.272
18819W        W89419  37.410  23.897  13.342
18820W        W89420  43.407   0.433  12.126
18821W        W89421  19.906  31.456  13.421
18822W        W89422  40.773  26.738   3.730
18823W        W89423   5.406  38.932   0.782
18824W        W89424   1.568  36.481  12.595
18825W        W89425  38.295  39.535  11.489
18826W        W89426  23.125  12.894  12.280
18827W        W89427   6.476  40.935   0.418
18828W        W89428  30.770  14.668  13.064
18829W        W89429   0.925  40.862  10.875
18830W        W89430  43.849  23.107   3.543
18831W        W89431   7.899  33.867   4.721
18832W        W89432  14.247  38.100   2.678
18833W        W89433   3.480  26.035  12.056
18834W        W89434   4.843   0.369   0.398
18835W        W89435  42.934  19.783   2.212
18836W        W89436  40.186  44.949  13.562
18837W        W89437  11.258   0.463  10.881
18838W        W89438  27.905  29.230  12.928
18839W        W89439  30.142  15.148  12.523
18840W        W89440  39.252   5.816   0.834
18841W        W89441  24.176  37.598  13.475
18842W        W89442  39.518  33.161  13.499
18843W        W89443  42.286  21.037  12.138
18844W        W89444  27.938  41.215   4.163
18845W        W89445  37.736   1.451  13.723
18846W        W89446  13.840  41.314   5.003
18847W        W89447  11.727  15.603  13.973
18848W        W89448   2.215  44.283  13.030
18849W        W89449  15.664  33.792  13.982
18850W        W89450  13.892   6.394  13.033
18851W        W89451  44.441  36.440   2.791
18852W        W89452  20.635  40.021   2.602
18853W        W89453  42.861   1.846  11.965
18854W        W89454  28.536  32.071  12.374
18855W        W89455  37.824  36.620  14.954
18856W        W89456  10.976  43.534  12.472
18857W        W89457  16.657  35.796   5.424
18858W        W89458   5.937  34.597   2.179
18859W        W89459   3.506   3.558  11.487
18860W        W89460  34.922  35.655  12.486
18861W        W89461  16.709  12.752  11.618
18862W        W89462  41.216   4.623  10.878
18863W        W89463  34.554  33.544  13.479
18864W        W89464  44.538  33.428   3.154
18865W        W89465   1.014  40.093   3.711
18866W        W89466   0.481  12.710  13.483
18867W        W89467  41.801  17.531  14.834
18868W        W89468  28.150  17.938   5.093
18869W        W89469  25.646  16.677  11.392
18870W        W89470  16.342  30.576   2.946
18871W        W89471  17.774  41.468   0.374
18872W        W89472  20.209  30.529   2.386
18873W        W89473  29.553  18.518   4.118
18874W        W89474  28.073  36.086   3.739
18875W        W89475  36.452   0.275   1.403
18876W        W89476  18.798  22.804   0.913
18877W        W89477  12.784  28.604   0.240
18878W        W89478  31.696  14.315   4.296
18879W        W89479  22.304  19.844  11.527
18880W        W89480  42.348  25.482  10.677
18881W        W89481  29.555  33.116  12.834
18882W        W89482   2.941  15.828   4.350
18883W        W89483  20.042   4.809   1.140
18884W        W89484  37.328  17.621   3.858
18885W        W89485   9.266  12.664   4.084
18886W        W89486  21.854  24.693  10.473
18887W        W89487   5.852  41.495   0.850
18888W        W89488  44.299  10.906  14.524
18889W        W89489  22.822  32.735   0.750
18890W        W89490  44.495  41.803   4.507
18891W        W89491   9.828  30.585  10.996
18892W        W89492  33.577  44.537   2.522
18893W        W89493  20.774  16.889   4.213
18894W        W89494  42.509   2.232  10.713
18895W        W89495  15.646  42.583   1.906
18896W        W89496  12.247  44.030  13.979
18897W        W89497  10.145  19.808  12.679
18898W        W89498  44.266  28.131   1.672
18899W        W89499  25.131  25.792   3.055
18900W        W89500  33.912  12.198  10.516
18901W        W89501  37.032   9.798  13.421
18902W        W89502  27.778  14.593  14.951
18903W        W89503  37.777  26.387  12.606
18904W        W89504  26.069  28.070  14.484
18905W        W89505  34.920  15.565  11.571
18906W        W89506  44.908   7.666   3.583
18907W        W89507  18.555  23.929  13.919
18908W        W89508  38.865  36.591   2.445
18909W        W89509   3.843  20.740  11.177
18910W        W89510  21.046  28.020  13.064
18911W        W89511  11.868  29.155   3.576
18912W        W89512  13.292   0.349  13.461
18913W        W89513  27.091  15.207  11.134
18914W        W89514   1.231  28.564  13.482
18915W        W89515  33.701  11.635  11.249
18916W        W89516   5.848   5.020  12.709
18917W        W89517  25.694  36.618  10.773
18918W        W89518  43.676  37.830  14.902
18919W        W89519  33.990   9.683   0.682
18920W        W89520  44.491  19.181   0.812
18921W        W89521  13.400  33.758   5.087
18922W        W89522  10.784  21.602  12.512
18923W        W89523  18.354  14.100   2.658
18924W        W89524  34.984  30.548  12.113
18925W        W89525  10.470  20.239   2.322
18926W        W89526   9.495  43.518   2.959
18927W        W89527  10.749  40.939   0.314
18928W        W89528   8.283   2.788  11.893
18929W        W89529  31.509   3.919  11.592
18930W        W89530  20.540   6.434  14.006
18931W        W89531  11.597  22.101   0.894
18932W        W89532  40.331  29.949   4.657
18933W        W89533  28.223  36.312   1.447
18934W        W89534  18.212   8.189  10.968
18935W        W89535  44.521   1.362  13.528
18936W        W89536  34.633  43.970   3.230
18937W        W89537   8.952  18.641   4.484
18938W        W89538  36.530  21.981  10.912
18939W        W89539  34.120  36.619  12.125
18940W        W89540  40.706  24.167   4.556
18941W        W89541   4.850  39.862  13.143
18942W        W89542  30.486  32.914  14.493
18943W        W89543  11.003  33.978  12.441
18944W        W89544  30.323  18.937  12.436
18945W        W89545  37.253  10.287  12.440
18946W        W89546  44.284  24.045   3.659
18947W        W89547   3.362  28.930   2.245
18948W        W89548  37.904  44.703   1.805
18949W        W89549  35.176  24.730   2.296
18950W        W89550  32.060  40.355  13.405
18951W        W89551  10.372  43.742   2.191
18952W        W89552  25.112  43.580  11.434
18953W        W89553   5.413   0.050   3.340
18954W        W89554  33.597  32.521  14.887
18955W        W89555  26.168  35.421   4.500
18956W        W89556  16.780  12.590  12.625
18957W        W89557  20.504  15.804  12.960
18958W        W89558  41.055  38.863   3.683
18959W        W89559  23.662  22.085   3.108
18960W        W89560  25.214   4.309  10.709
18961W        W89561  16.609  21.222  11.207
18962W        W89562  31.102  13.263  14.430
18963W        W89563  44.248  14.251  12.139
18964W        W89564  27.952   1.293   0.900
18965W        W89565  44.212   7.654   4.300
18966W        W89566  32.391  40.933   0.716
18967W        W89567  13.253  39.492   3.018
18968W        W89568   0.937  25.217  14.663
18969W        W89569  17.983  29.977  14.969
18970W        W89570  35.428  10.472  12.437
18971W        W89571  15.308  22.247  12.994
18972W        W89572  44.784  16.773   3.601
18973W        W89573  35.031  40.953  12.589
18974W        W89574  18.653  23.577   2.316
18975W        W89575  22.914  26.173  14.883
18976W        W89576  37.991   8.693   3.840
18977W        W89577  25.123  25.046   1.779
18978W        W89578  37.660  36.347   3.750
18979W        W89579  43.793   8.132   4.082
18980W        W89580  36.332  14.202   1.272
18981W        W89581  28.103   3.855   3.237
18982W        W89582   7.413   4.124   1.210
18983W        W89583  29.112  37.641   2.608
18984W        W89584  33.333  13.537  10.420
18985W        W89585  29.505  41.336  12.353
18986W        W89586  23.984   6.213  10.786
18987W        W89587  10.298  15.731   2.842
18988W        W89588  35.286  39.457   0.296
18989W        W89589   1.149  19.628   3.703
18990W        W89590  18.647   9.639  12.372
18991W        W89591   9.244  34.534  13.139
18992W        W89592  27.457  17.305   0.850
18993W        W89593  44.839  38.072   3.208
18994W        W89594  38.013  10.271   3.753
18995W        W89595  43.321  40.926  13.493
18996W        W89596  36.852  33.483  11.234
18997W        W89597  42.443  35.562   3.323
18998W        W89598  24.083  25.573   1.360
18999W        W89599  44.765  12.550  12.924
19000W        W89600  16.071  20.046  14.224
19001W        W89601  38.358  36.065   1.255
19002W        W89602   6.176  42.863   3.189
19003W        W89603  32.986   0.982   1.697
19004W        W89604  37.283  40.659  11.170
19005W        W89605  28.079  23.341   4.645
19006W        W89606  10.010  22.989  14.755
19007W        W89607  25.612  31.784   4.947
19008W        W89608  23.599  38.302   1.392
19009W        W89609  26.015  37.552  12.942
19010W        W89610  29.476   6.762   1.723
19011W        W89611  26.154  10.113   4.168
19012W        W89612   4.379   6.839   0.506
19013W        W89613  36.879  12.414   1.109
19014W        W89614  18.735  42.822   3.680
19015W        W89615  44.344   3.447  12.957
19016W        W89616  26.119  38.419  11.277
19017W        W89617   1.952   8.499   0.565
19018W        W89618   8.660  43.254   3.187
19019W        W89619  11.217  18.768  13.046
19020W        W89620   0.333  18.840  10.699
19021W        W89621  31.114  27.709   4.649
19022W        W89622  20.618  19.914  12.264
19023W        W89623  39.303  27.980   2.422
19024W        W89624  15.335  23.974   0.920
19025W        W89625  13.795  15.215   3.596
19026W        W89626  13.054  21.659   0.959
19027W        W89627  44.026  11.291  11.473
19028W        W89628  30.071   2.775   2.756
19029W        W89629  10.352  11.707  10.432
19030W        W89630   6.734  10.280   0.804
19031W        W89631  33.167  33.564  10.853
19032W        W89632  33.255   2.630  12.014
19033W        W89633  35.335  26.663  13.177
19034W        W89634  11.846  26.597   4.221
19035W        W89635  37.879  26.057   1.348
19036W        W89636  23.259  43.266   0.419
19037W        W89637  33.581  44.156  14.495
19038W        W89638  29.121  44.448   1.379
19039W        W89639  28.693  24.596   4.945
19040W        W89640  13.994  21.820   0.073
19041W        W89641   1.918  40.135  12.682
19042W        W89642   4.257  29.414   3.868
19043W        W89643  41.622  32.485  13.403
19044W        W89644  35.518  17.614   3.834
19045W        W89645  19.331   6.246   3.947
19046W        W89646  32.736  33.169  14.667
19047W        W89647  34.291  27.935  14.325
19048W        W89648  14.901  40.059   0.415
19049W        W89649  40.025  35.913  10.521
19050W        W89650  16.262   8.284   4.552
19051W        W89651   5.783  24.520  12.498
19052W        W89652  33.035  26.095   2.273
19053W        W89653  43.379  13.502  12.475
19054W        W89654  38.353  21.219   2.715
19055W        W89655  39.454  21.957   0.355
19056W        W89656   0.373  14.433   1.306
19057W        W89657  27.274  38.753   3.605
19058W        W89658  18.819  14.367   2.728
19059W        W89659   5.190  38.778  13.855
19060W        W89660  16.251  44.779  13.615
19061W        W89661   5.769   5.390   4.353
19062W        W89662  26.699  23.705   0.327
19063W        W89663  39.900  43.736   4.753
19064W        W89664  42.505  17.987  14.127
19065W        W89665  20.607  33.327   4.581
19066W        W89666   3.808  28.605   3.649
19067W        W89667  22.717  44.313  12.530
19068W        W89668  14.622  12.203   0.713
19069W        W89669  38.448   5.669  10.794
19070W        W89670  12.256  43.367  11.656
19071W        W89671  15.780  35.008  13.876
19072W        W89672   1.655   4.382  10.616
19073W        W89673  36.941  34.909   3.592
19074W        W89674  39.510  44.369  13.878
19075W        W89675  41.481  26.543  10.695
19076W        W89676  37.623   3.175   1.813
19077W        W89677   2.359  14.175   5.021
19078W        W89678   2.000  11.551   4.598
19079W        W89679  28.637  38.089  13.271
19080W        W89680  22.168   6.898   5.507
19081W        W89681  30.807   8.587  12.167
19082W        W89682  23.749  17.667   1.691
19083W        W89683  31.444   6.043   2.350
19084W        W89684  26.912  44.566   3.389
19085W        W89685   2.194  35.830  12.953
19086W        W89686   0.446  30.518  11.101
19087W        W89687  35.067  39.635   4.623
19088W        W89688  25.258  37.618  12.095
19089W        W89689  13.205  27.602  11.843
19090W        W89690  32.040   0.291  14.823
19091W        W89691  36.526  35.943  10.312
19092W        W89692   5.492  36.027   2.345
19093W        W89693  33.570  39.269   2.756
19094W        W89694  41.848  40.868  12.443
19095W        W89695  17.275  21.614   4.158
19096W        W89696  35.069  40.296  13.406
19097W        W89697  34.383  37.824   3.275
19098W        W89698  26.425  44.261   3.298
19099W        W89699  23.278  15.732   0.924
19100W        W89700  39.308  37.596   4.899
19101W        W89701   8.998   1.983   5.066
19102W        W89702   8.650  32.738   1.186
19103W        W89703  23.146  38.598   1.370
19104W        W89704   1.104  15.702   4.575
19105W        W89705  33.684  32.667   5.032
19106W        W89706  21.101  28.121  11.220
19107W        W89707   4.432  10.925   2.186
19108W        W89708   0.039  42.726   1.818
19109W        W89709  28.098  35.343  14.057
19110W        W89710  40.894  13.184  13.852
19111W        W89711   0.683  13.387   2.820
19112W        W89712  29.622  31.405   4.380
19113W        W89713  34.971   5.727  14.257
19114W        W89714  44.964  31.184  10.804
19115W        W89715  41.615  14.171   1.782
19116W        W89716  35.398  37.274  13.837
19117W        W89717  40.804  32.572   3.160
19118W        W89718  11.830  10.099  10.672
19119W        W89719  10.143  13.866   0.221
19120W        W89720  35.723  19.791   4.191
19121W        W89721  21.068  18.184  14.027
19122W        W89722  27.043  17.179  14.365
19123W        W89723  16.515  10.821  14.787
19124W        W89724  37.083  19.164   1.380
19125W        W89725   8.194  15.669   4.834
19126W        W89726   9.674  27.379   2.628
19127W        W89727  30.057   3.293  12.470
19128W        W89728  40.350  41.909  13.613
19129W        W89729  28.034  32.075  12.480
19130W        W89730  25.066  37.796   4.146
19131W        W89731  20.174   8.918  14.586
19132W        W89732  10.668  15.568  14.893
19133W        W89733  39.307  40.800  13.004
19134W        W89734  40.676   9.788  12.515
19135W        W89735  18.516  15.282  13.390
19136W        W89736   7.431   1.549  13.464
19137W        W89737  30.545   1.717   0.511
19138W        W89738  30.083  11.788  14.808
19139W        W89739  36.994  21.764  10.881
19140W        W89740   3.326  13.378   0.387
19141W        W89741  18.572  16.385  12.638
19142W        W89742   8.355   9.106  13.045
19143W        W89743  18.133  41.571  11.311
19144W        W89744   4.277  42.562  12.794
19145W        W89745  25.621  12.935  12.348
19146W        W89746  32.731  34.392   3.764
19147W        W89747  17.341  39.174  13.553
19148W        W89748  44.867   5.686   2.502
19149W        W89749   1.452  21.667  11.500
19150W        W89750   7.166   3.625  11.186
19151W        W89751  33.110  42.839   2.751
19152W        W89752  20.497  21.791   0.968
19153W        W89753  27.945  22.962  11.201
19154W        W89754  29.041   6.750   2.227
19155W        W89755  10.283  19.326  11.517
19156W        W89756  17.633  15.757   1.439
19157W        W89757  37.560  20.480   0.185
19158W        W89758  11.528  29.976  11.911
19159W        W89759  17.449  43.234  14.984
19160W        W89760  33.789  15.027   3.620
19161W        W89761  24.076  28.188   3.441
19162W        W89762   2.407  17.282  10.692
19163W        W89763  21.240  43.290   4.028
19164W        W89764  33.363  35.285  11.077
19165W        W89765  24.754  11.760   0.878
19166W        W89766   8.320  32.024  13.753
19167W        W89767  44.797   8.052   0.226
19168W        W89768   4.657  34.897  13.824
19169W        W89769  19.511   3.356   0.272
19170W        W89770  40.097  36.623   0.789
19171W        W89771   0.921  13.679   2.443
19172W        W89772  14.656  36.976   3.142
19173W        W89773   7.910   4.639   3.535
19174W        W89774  28.401  38.393   9.779
19175W        W89775  30.944  23.465  12.337
19176W        W89776  30.206  23.939   0.377
19177W        W89777  16.209   8.456  11.173
19178W        W89778  35.210  13.914  14.276
19179W        W89779  27.533  26.443   1.767
19180W        W89780  17.071  11.008   9.927
19181W        W89781  11.460  19.037  10.695
19182W        W89782  29.983  39.955   0.728
19183W        W89783  22.144  39.311   0.285
19184W        W89784  35.986  37.912   3.878
19185W        W89785   5.986  28.476   0.909
19186W        W89786  21.326  27.611  13.894
19187W        W89787  44.878  32.433   4.890
19188W        W89788  29.050  23.159  12.588
19189W        W89789  19.804  29.539   0.054
19190W        W89790  33.100  36.720   4.197
19191W        W89791  44.385  20.727  13.350
19192W        W89792  25.462  15.170  10.670
19193W        W89793   5.472  20.707   2.306
19194W        W89794  11.121  31.902  11.243
19195W        W89795  15.865  38.517   1.827
19196W        W89796   2.324  37.960  12.168
19197W        W89797  34.522   6.817   1.012
19198W        W89798  25.819   1.114   4.143
19199W        W89799  27.448  36.723   1.709
19200W        W89800  31.181   0.504   0.884
19201W        W89801  27.736  34.798  12.522
19202W        W89802  19.054   1.258  10.831
19203W        W89803  33.930  18.731   2.129
19204W        W89804  13.643   4.842  10.713
19205W        W89805  22.505  41.418   2.127
19206W        W89806  42.621  10.130   0.064
19207W        W89807  41.431   0.063   4.211
19208W        W89808  37.313   1.159   2.718
19209W        W89809  27.987  42.930   3.774
19210W        W89810  23.803   4.838   1.364
19211W        W89811  28.347  42.083  14.836
19212W        W89812  15.288  10.771   0.272
19213W        W89813  19.039  11.531  14.540
19214W        W89814  36.427  15.177  11.122
19215W        W89815  14.844  10.241   4.713
19216W        W89816  14.047   1.711   4.817
19217W        W89817  41.480  38.676  11.661
19218W        W89818  30.885  43.060   3.263
19219W        W89819  39.260  15.585   2.918
19220W        W89820  36.106  28.678   1.726
19221W        W89821  33.113  25.979   4.776
19222W        W89822  12.385  27.760  11.517
19223W        W89823  41.091  27.108   1.723
19224W        W89824  18.980  18.387  11.599
19225W        W89825  41.635  18.776  12.722
19226W        W89826  22.269   7.198  13.101
19227W        W89827   2.949  26.473  14.311
19228W        W89828  39.543   1.577  13.013
19229W        W89829  18.075  29.586  10.792
19230W        W89830   8.822  28.886   0.425
19231W        W89831   4.721  26.995  13.764
19232W        W89832  44.355  11.314  11.844
19233W        W89833  25.537   8.418  14.587
19234W        W89834  39.505  14.776   0.496
19235W        W89835  31.148  23.494   2.836
19236W        W89836   5.407  23.816   3.252
19237W        W89837  37.508  10.379  11.997
19238W        W89838  15.141  16.828   5.008
19239W        W89839  37.075  41.985  13.964
19240W        W89840  26.806  40.245  11.069
19241W        W89841  16.562   4.885   0.709
19242W        W89842  44.072  26.413  11.353
19243W        W89843  21.023   8.326  12.128
19244W        W89844  38.866  36.639  12.701
19245W        W89845  15.150  12.130  10.195
19246W        W89846  35.564  20.973   4.546
19247W        W89847  19.154   0.906  13.996
19248W        W89848  32.019  34.935  10.598
19249W        W89849  19.877   7.297   4.948
19250W        W89850  27.533  17.564   3.559
19251W        W89851  27.989  40.373  14.879
19252W        W89852  24.457  17.714   3.626
19253W        W89853  18.204  16.285   0.366
19254W        W89854  32.635  33.607   1.352
19255W        W89855  43.235  31.863   1.869
19256W        W89856  34.009  31.971  11.584
19257W        W89857   0.782  17.699  12.013
19258W        W89858  41.274  22.116   4.726
19259W        W89859  26.585   2.345  12.026
19260W        W89860  18.029   8.866  12.647
19261W        W89861  20.573  34.352  12.164
19262W        W89862  19.497  10.602   4.617
19263W        W89863   7.297  23.715  14.525
19264W        W89864   6.249  17.514   2.320
19265W        W89865  12.349  32.202  13.423
19266W        W89866  25.221  15.605   4.093
19267W        W89867   1.093  34.904  11.138
19268W        W89868  22.741  37.912   0.945
19269W        W89869  31.123  13.099   3.784
19270W        W89870  42.086  42.200   4.364
19271W        W89871  36.060  43.906   4.858
19272W        W89872  32.907  34.141  12.503
19273W        W89873  11.379  42.793  10.641
19274W        W89874  41.057   7.469  10.602
19275W        W89875  36.416  38.446   0.792
19276W        W89876  12.358  11.728   1.207
19277W        W89877   9.607  17.348  13.401
19278W        W89878  41.897  27.057  12.158
19279W        W89879  40.228  44.390   3.296
19280W        W89880  27.877  27.612  14.795
19281W        W89881   1.876   7.216  14.027
19282W        W89882  35.890  18.699  11.213
19283W        W89883   0.785  43.321  14.471
19284W        W89884  11.635   2.694   1.704
19285W        W89885  14.789   6.516   2.818
19286W        W89886   4.286  14.673  12.308
19287W        W89887  43.328   5.403   0.843
19288W        W89888  33.348  25.130   4.844
19289W        W89889  44.128  12.507   3.721
19290W        W89890  30.125  32.198  14.131
19291W        W89891  29.661  33.874  14.314
19292W        W89892  27.608  21.739   3.685
19293W        W89893   4.494  36.867   1.288
19294W        W89894  33.603  10.277  14.413
19295W        W89895   8.714  26.754  10.534
19296W        W89896   2.332  17.599   3.726
19297W        W89897   4.757   2.054   2.176
19298W        W89898   6.181  28.239   2.228
19299W        W89899   9.174  43.841  13.609
19300W        W89900  21.797  26.118  13.263
19301W        W89901  36.117  31.587  12.006
19302W        W89902  36.354  27.196   4.083
19303W        W89903  34.646  28.769  14.391
19304W        W89904  11.236  43.369   4.672
19305W        W89905  30.423  33.297  11.596
19306W        W89906  21.618  10.118   4.025
19307W        W89907  18.092  19.470  14.776
19308W        W89908  34.453  27.056   3.719
19309W        W89909   9.611  23.467  11.634
19310W        W89910  16.324  28.468  10.366
19311W        W89911  32.625   9.329  12.047
19312W        W89912   9.287  12.354  10.851
19313W        W89913  29.137   9.871   0.416
19314W        W89914  28.448  39.862  12.100
19315W        W89915  36.377   1.983  12.318
19316W        W89916  19.630  29.149   5.087
19317W        W89917  41.888  18.540  14.890
19318W        W89918  38.729   6.706   4.093
19319W        W89919   2.963  15.811  12.195
19320W        W89920  11.340   7.273   4.615
19321W        W89921  35.428  43.867   4.110
19322W        W89922  24.079  20.142  13.297
19323W        W89923  39.379   3.663   1.542
19324W        W89924   8.667  32.467   4.075
19325W        W89925   6.333  15.815  11.110
19326W        W89926   9.982   7.031   1.291
19327W        W89927  31.545  15.365  12.460
19328W        W89928  37.664  23.934  14.311
19329W        W89929  40.926   7.998   2.858
19330W        W89930   6.238  25.541  13.747
19331W        W89931  11.911  44.755   4.457
19332W        W89932  31.171  20.334   0.186
19333W        W89933  21.004  18.230   2.773
19334W        W89934   8.079  26.939   1.466
19335W        W89935  44.071  34.391   0.921
19336W        W89936  28.603  14.729   4.763
19337W        W89937  13.390   5.907  12.471
19338W        W89938  30.738  23.111  10.996
19339W        W89939  42.082  16.622   2.896
19340W        W89940  19.509   3.815  10.885
19341W        W89941  12.177  19.521   0.502
19342W        W89942  31.385  17.717  13.292
19343W        W89943   6.025  24.769   2.472
19344W        W89944  35.951  18.720   4.642
19345W        W89945  39.516  28.688   1.423
19346W        W89946  23.708  21.380  14.515
19347W        W89947  25.579  24.931  11.050
19348W        W89948  43.799   0.981  13.873
19349W        W89949  18.020  39.225   2.439
19350W        W89950  41.561  19.980   1.834
19351W        W89951  26.719   0.980  12.903
19352W        W89952  33.010   2.873  11.563
19353W        W89953   4.815  29.182   3.894
19354W        W89954  18.635  17.981  11.204
19355W        W89955   0.750  13.227   4.996
19356W        W89956  27.912  28.247   0.239
19357W        W89957   1.184   2.836  14.110
19358W        W89958  10.412  26.616   2.916
19359W        W89959  21.577  40.214   3.130
19360W        W89960   0.720  40.429   4.475
19361W        W89961  21.996  25.939  13.718
19362W        W89962  19.315  30.608   2.673
19363W        W89963   2.376  38.366   3.248
19364W        W89964   3.967   6.681   3.236
19365W        W89965  21.712  43.569   2.896
19366W        W89966   5.225  25.504   0.871
19367W        W89967  23.459   9.401  14.368
19368W        W89968   0.977  19.256  11.188
19369W        W89969  33.988  33.105   0.327
19370W        W89970  32.386  38.689   4.102
19371W        W89971  22.062  30.969   0.825
19372W        W89972  30.530   9.194   3.791
19373W        W89973  20.690  23.574   0.015
19374W        W89974  27.503  23.023   1.893
19375W        W89975  39.156  11.704  11.521
19376W        W89976  34.548  17.053  10.680
19377W        W89977  13.276  34.461  12.643
19378W        W89978  18.695  36.444  10.759
19379W        W89979  18.577  30.640  14.950
19380W        W89980  14.666  37.557   3.990
19381W        W89981  23.189  30.653   0.355
19382W        W89982  23.173  24.142  12.382
19383W        W89983  20.245  34.530  11.598
19384W        W89984  18.633  25.202   4.489
19385W        W89985   5.893  12.572  11.589
19386W        W89986  10.751  43.547   1.889
19387W        W89987  19.527  43.277   1.657
19388W        W89988   7.813   3.099   3.192
19389W        W89989  18.631  35.372  11.570
19390W        W89990  28.182  44.366   2.656
19391W        W89991   0.853  43.416  11.974
19392W        W89992   7.121  28.171   3.702
19393W        W89993   6.945  43.758   1.303
19394W        W89994  11.638  21.090  12.135
19395W        W89995  31.144  20.501   4.596
19396W        W89996  40.088  23.298  13.787
19397W        W89997  30.656  26.338   0.436
19398W        W89998  39.458  43.296   0.820
19399W        W89999  15.246  16.850   4.070
19400W        W90000  44.942  43.579  13.274
19401W        W90001   0.217  16.279   1.370
19402W        W90002  32.419  42.376  14.050
19403W        W90003  20.844   4.842  12.330
19404W        W90004  10.077   3.292  14.409
19405W        W90005  11.824   7.168  13.437
19406W        W90006  42.184  39.986  14.506
19407W        W90007   9.954  37.650   2.368
19408W        W90008  17.774  36.375   3.529
19409W        W90009  24.902  40.549   3.787
19410W        W90010  44.377   0.328  13.577
19411W        W90011  14.845  17.660   3.610
19412W        W90012  26.743  44.456  10.527
19413W        W90013   4.607  10.098  11.965
19414W        W90014  22.188   3.479  12.026
19415W        W90015  31.978  31.147   3.123
19416W        W90016   9.193  44.856  14.770
19417W        W90017  41.821  24.591  10.620
19418W        W90018  41.402  18.708  11.761
19419W        W90019  16.653  15.830  11.083
19420W        W90020  37.980   6.624  11.571
19421W        W90021   7.131  24.264   1.169
19422W        W90022  22.861   5.241  14.689
19423W        W90023  35.606  41.289   0.384
19424W        W90024   2.925  29.649  13.827
19425W        W90025  15.150   1.334   3.607
19426W        W90026  38.851  36.111  10.639
19427W        W90027  19.561  34.248  11.353
19428W        W90028  13.362  30.883   4.524
19429W        W90029  26.176  31.080   4.544
19430W        W90030  40.409   2.795  11.392
19431W        W90031  10.611  37.218   2.886
19432W        W90032  37.456  38.516   3.336
19433W        W90033   6.707  21.985   1.284
19434W        W90034  22.579  19.066  12.958
19435W        W90035  26.744  37.399   3.638
19436W        W90036   8.524   4.876  13.840
19437W        W90037  33.340   3.288   1.953
19438W        W90038  32.122   7.478   4.157
19439W        W90039  12.016  32.990  12.479
19440W        W90040  25.670  22.814   3.199
19441W        W90041  39.892  12.405   1.111
19442W        W90042  20.238  15.222  14.100
19443W        W90043  40.836  40.761  13.429
19444W        W90044  12.703   7.728   0.469
19445W        W90045   0.999  32.719   2.424
19446W        W90046  13.353  29.964   2.862
19447W        W90047  11.607  19.132  14.468
19448W        W90048  43.478  22.040   2.253
19449W        W90049   1.837  16.655   4.350
19450W        W90050  15.580   0.359   1.014
19451W        W90051  10.110  18.544  14.914
19452W        W90052  28.116   8.228   4.516
19453W        W90053   3.936  27.442  11.415
19454W        W90054  16.520   1.465   1.353
19455W        W90055  19.307   2.394  14.965
19456W        W90056  12.659  36.448  14.674
19457W        W90057  33.600  41.029  10.483
19458W        W90058  10.733  43.772  11.545
19459W        W90059   8.860  22.193   1.970
19460W        W90060  12.778  28.704   4.217
19461W        W90061  29.000  29.954  13.293
19462W        W90062  38.677  23.106   1.375
19463W        W90063  34.957  31.601   2.311
19464W        W90064  39.724  12.838   3.779
19465W        W90065   9.604  16.798   2.432
19466W        W90066   8.780   2.723   2.216
19467W        W90067  24.444  31.029   2.704
19468W        W90068   5.245  19.545   3.410
19469W        W90069  27.488  10.331  14.275
19470W        W90070  42.828  29.653   4.496
19471W        W90071  15.364  33.342  10.214
19472W        W90072  36.807  44.491   5.047
19473W        W90073  26.869  36.382  12.433
19474W        W90074  43.929  11.110  10.633
19475W        W90075   8.664  20.702   2.956
19476W        W90076   9.904  37.609   3.702
19477W        W90077  36.906  28.945   0.346
19478W        W90078  12.859  34.000   2.752
19479W        W90079  23.070  23.983  10.684
19480W        W90080  33.482  11.724   2.796
19481W        W90081  37.201  17.153   4.120
19482W        W90082  15.731  33.281  12.002
19483W        W90083  13.379   6.822  12.895
19484W        W90084  12.318   9.358  11.626
19485W        W90085  16.114  37.515  14.251
19486W        W90086  22.063  19.300  14.991
19487W        W90087  26.264   2.076   3.138
19488W        W90088  28.627  41.888   0.217
19489W        W90089  34.278  26.002   3.706
19490W        W90090   1.475  10.262  10.677
19491W        W90091  39.367  32.387   2.224
19492W        W90092  14.559  22.490   4.266
19493W        W90093   3.991  21.133   2.354
19494W        W90094  31.675  28.552  10.445
19495W        W90095  28.377  10.626   0.433
19496W        W90096  18.226  42.189   3.394
19497W        W90097  36.891  41.447  14.608
19498W        W90098   2.004   6.380   4.234
19499W        W90099  25.174  12.550   0.648
19500W        W90100   9.852  28.496   4.557
19501W        W90101  21.074  43.283  10.694
19502W        W90102   8.753  26.522   1.958
19503W        W90103   0.003   2.687   4.137
19504W        W90104  41.117   2.764  13.898
19505W        W90105  21.499  36.591  14.834
19506W        W90106  41.347  39.015   4.504
19507W        W90107  31.081  38.712   4.906
19508W        W90108  21.072  27.177  13.901
19509W        W90109   0.257  24.377  11.137
19510W        W90110  11.367   8.862  14.982
19511W        W90111  43.446   6.537  12.939
19512W        W90112  36.240  11.754   3.667
19513W        W90113  29.762  18.143  12.055
19514W        W90114  41.924  13.104  14.052
19515W        W90115  10.909   4.479  13.263
19516W        W90116  30.090  43.755  14.003
19517W        W90117   8.859   8.431   2.370
19518W        W90118  36.154   5.150   1.228
19519W        W90119  44.526  15.669   4.068
19520W        W90120  40.727  43.902  12.377
19521W        W90121   7.224  13.479  12.190
19522W        W90122  42.583  12.523  10.283
19523W        W90123   7.997  25.096   2.858
19524W        W90124   7.821  32.073  12.528
19525W        W90125   9.460  10.329  12.345
19526W        W90126   5.204  22.658  11.911
19527W        W90127  22.443  35.417  13.490
19528W        W90128  11.285  41.500   0.288
19529W        W90129  40.395  27.414   4.432
19530W        W90130  21.452  24.401   4.603
19531W        W90131  27.455  34.044  12.948
19532W        W90132  22.184   5.235   1.464
19533W        W90133  43.832  38.763   4.799
19534W        W90134  26.200  30.850  13.905
19535W        W90135  20.068   3.126  11.394
19536W        W90136  20.862  11.169   1.874
19537W        W90137  21.293   8.400  14.826
19538W        W90138  21.298   1.472   1.913
19539W        W90139  29.983  26.007  14.518
19540W        W90140  36.584  26.077  13.949
19541W        W90141   0.759  43.476  14.972
19542W        W90142   5.983   1.909  13.819
19543W        W90143  11.621  28.447   2.774
19544W        W90144  20.051  36.835   2.289
19545W        W90145  27.478  18.530   4.064
19546W        W90146  44.028  11.714   0.414
19547W        W90147  41.951  14.505  10.535
19548W        W90148   9.387  40.445  13.354
19549W        W90149  42.369   4.932   0.016
19550W        W90150  15.580  34.316  12.130
19551W        W90151   3.906  10.720  14.662
19552W        W90152  25.501  34.503   2.729
19553W        W90153  21.056   5.877  12.393
19554W        W90154  34.901  37.458   3.665
19555W        W90155   5.268  28.513   1.357
19556W        W90156  32.113  31.945  12.666
19557W        W90157   3.765  36.098   0.636
19558W        W90158  25.216  39.872  11.598
19559W        W90159  36.935  30.140  14.557
19560W        W90160  26.492  17.616  14.014
19561W        W90161  28.970   7.849  12.563
19562W        W90162  23.203  21.828   3.158
19563W        W90163  23.146  24.701   3.630
19564W        W90164  24.180  26.008   2.605
19565W        W90165   2.250  41.574   2.386
19566W        W90166  15.905   0.415   2.493
19567W        W90167  42.422  28.413   3.752
19568W        W90168  40.726  36.895   2.801
19569W        W90169  36.711  27.405   1.369
19570W        W90170  20.591   0.710  11.947
19571W        W90171  28.031  43.961  11.178
19572W        W90172  25.007  27.629  13.626
19573W        W90173   7.473   4.218   4.957
19574W        W90174   3.044  23.319   4.265
19575W        W90175  27.743   8.435   3.605
19576W        W90176  19.743   1.869  11.422
19577W        W90177  26.897   6.890  12.527
19578W        W90178  11.576  29.586   4.050
19579W        W90179  25.163   4.950   0.747
19580W        W90180  11.119   6.514   4.069
19581W        W90181  31.180  19.059  11.574
19582W        W90182   2.770   9.794  13.556
19583W        W90183  29.700   4.978   4.685
19584W        W90184  16.159  22.594   3.206
19585W        W90185  35.937  20.253   0.791
19586W        W90186  26.589   5.742  14.284
19587W        W90187  38.036  11.351  12.570
19588W        W90188  25.744   4.720   1.313
19589W        W90189  21.264  18.167  10.727
19590W        W90190  24.250  32.436  10.499
19591W        W90191  15.567   2.680   5.049
19592W        W90192  27.065   5.812   3.167
19593W        W90193  37.387   6.251   2.322
19594W        W90194  24.221   3.501  12.112
19595W        W90195  31.566  41.792  11.933
19596W        W90196  12.179  29.717  10.762
19597W        W90197   5.924  34.138  12.529
19598W        W90198   5.103  36.981  11.171
19599W        W90199  35.863  10.568   4.366
19600W        W90200  36.837  44.042   1.435
19601W        W90201  18.186   7.268  10.978
19602W        W90202  40.494  13.116  11.186
19603W        W90203  31.734  29.438  10.871
19604W        W90204  11.986  33.729  13.900
19605W        W90205   7.156  30.573   1.375
19606W        W90206  34.192   5.685  10.633
19607W        W90207   7.234  33.849  12.624
19608W        W90208   5.965  20.115  12.016
19609W        W90209  19.258  27.491  13.856
19610W        W90210  20.820  16.873   0.942
19611W        W90211  30.318  18.354  13.189
19612W        W90212  31.096  26.969  10.924
19613W        W90213  44.791   1.782   0.981
19614W        W90214   1.876   5.877   2.413
19615W        W90215   4.731   9.009  11.131
19616W        W90216  41.852  29.344   2.154
19617W        W90217  26.942  22.492   2.872
19618W        W90218  43.850  37.781  10.625
19619W        W90219  27.521   9.862  13.319
19620W        W90220  43.699  25.543   0.435
19621W        W90221  38.879   1.001  12.473
19622W        W90222  25.029  17.755  14.091
19623W        W90223  44.982   4.721  10.814
19624W        W90224  20.967  17.112  11.161
19625W        W90225  22.829  37.925   4.836
19626W        W90226  34.797  27.051   4.689
19627W        W90227  37.937  24.480   3.215
19628W        W90228  32.205   6.565   0.573
19629W        W90229  42.446  21.925  14.755
19630W        W90230  30.921   2.711   2.887
19631W        W90231  37.880  15.051   1.352
19632W        W90232  14.843  33.151   2.640
19633W        W90233  32.673  25.652  13.807
19634W        W90234  16.293  44.330   4.562
19635W        W90235   0.064  33.988  14.867
19636W        W90236   3.363   2.280  12.041
19637W        W90237   0.479  24.791   2.892
19638W        W90238  30.674  17.945   0.606
19639W        W90239  36.105  13.685   4.347
19640W        W90240  21.669  42.487  10.950
19641W        W90241  38.580   4.928  12.134
19642W        W90242  13.207   2.342  10.723
19643W        W90243  22.302   8.145  13.295
19644W        W90244  35.594   1.526   4.886
19645W        W90245  30.328  11.944   2.220
19646W        W90246  14.217  33.039  10.808
19647W        W90247  22.733  14.885  10.500
19648W        W90248  31.631  15.859  13.399
19649W        W90249  36.920   2.436   3.776
19650W        W90250  26.674  17.032   2.870
19651W        W90251   8.647  36.553   4.501
19652W        W90252  43.562   9.886   0.571
19653W        W90253   5.463  22.173   4.422
19654W        W90254   2.503  37.272   0.340
19655W        W90255  20.624  16.347  14.894
19656W        W90256   1.906  35.903  14.142
19657W        W90257  13.548  32.971   2.279
19658W        W90258  37.138  26.075   0.274
19659W        W90259   1.201  12.584  12.465
19660W        W90260  17.117  37.107  10.044
19661W        W90261  16.545  43.345   5.007
19662W        W90262  25.639  24.689  13.861
19663W        W90263   2.585   9.563  12.870
19664W        W90264  42.749  31.420  11.007
19665W        W90265  32.885  16.574  10.565
19666W        W90266  33.049  13.347  13.137
19667W        W90267  36.981  44.564   2.715
19668W        W90268  25.932  10.299   0.836
19669W        W90269   8.843  22.484  12.138
19670W        W90270  27.259   5.808   3.645
19671W        W90271  18.747  35.574   0.775
19672W        W90272  44.455  39.959  12.598
19673W        W90273  27.809  36.524   3.798
19674W        W90274  33.051  37.138  11.888
19675W        W90275   2.951  34.993  13.408
19676W        W90276   0.020  32.549   3.236
19677W        W90277  32.018  44.117   5.020
19678W        W90278  24.018  27.951   2.569
19679W        W90279  37.400  29.201  14.805
19680W        W90280  13.733  12.646   0.491
19681W        W90281  34.495  25.920  14.355
19682W        W90282  19.420   4.296   2.677
19683W        W90283   9.865  30.136   3.892
19684W        W90284  19.027  17.326  14.314
19685W        W90285  43.023  33.058  14.880
19686W        W90286   9.358   5.088   2.287
19687W        W90287   8.994   7.614  10.225
19688W        W90288  34.630  16.714  11.993
19689W        W90289  36.511  29.450  13.435
19690W        W90290  16.243  30.377   0.665
19691W        W90291   4.635  11.437  14.135
19692W        W90292  36.997  42.373   2.258
19693W        W90293   3.314  24.349  11.503
19694W        W90294  37.072  41.964  12.623
19695W        W90295  44.518  40.430   1.907
19696W        W90296   6.303  40.475  10.481
19697W        W90297  21.167  30.708   1.843
19698W        W90298  18.905  31.700   1.347
19699W        W90299  43.492  28.191   2.205
19700W        W90300  19.326  32.383  12.556
19701W        W90301  39.890  13.307   3.161
19702W        W90302   2.125  44.822   2.613
19703W        W90303  19.814  38.360   2.927
19704W        W90304  42.603  44.757  14.892
19705W        W90305  44.206  29.078  14.743
19706W        W90306  37.580  40.336   2.914
19707W        W90307  40.418  36.498   1.658
19708W        W90308  13.188   2.128  12.964
19709W        W90309  18.701  28.564   0.893
19710W        W90310   0.244   5.921   3.431
19711W        W90311  17.698   8.828  11.114
19712W        W90312  39.416  44.257  12.566
19713W        W90313  40.791   0.719   2.180
19714W        W90314   5.808  35.568  12.568
19715W        W90315   9.739  29.464   4.724
19716W        W90316   7.769  39.885  12.825
19717W        W90317  23.520  34.338   1.825
19718W        W90318  18.863  30.034  13.023
19719W        W90319  11.492   4.795  12.519
19720W        W90320  25.832  28.016   1.362
19721W        W90321  29.855   9.881  14.391
19722W        W90322  13.457  32.930   3.227
19723W        W90323  16.801   3.051   4.238
19724W        W90324  38.933   3.370   4.636
19725W        W90325  23.616  16.545  12.521
19726W        W90326   8.472  29.788  12.376
19727W        W90327  36.229  30.189   1.790
19728W        W90328  21.229  34.120  10.629
19729W        W90329  13.245   4.834  11.169
19730W        W90330  23.274  29.750  11.025
19731W        W90331  23.574  30.618   1.373
19732W        W90332  19.651   9.390   0.333
19733W        W90333  28.646  37.348  12.577
19734W        W90334  36.351  28.482  12.485
19735W        W90335   8.767   8.235  11.078
19736W        W90336   9.503   7.819   4.062
19737W        W90337   3.241  33.977  10.842
19738W        W90338  32.101   4.181  14.701
19739W        W90339  43.073  20.731  11.942
19740W        W90340  39.807  16.216   2.672
19741W        W90341  29.037  15.593   2.839
19742W        W90342  13.059  32.056   1.771
19743W        W90343  39.132  30.487   1.760
19744W        W90344  22.481  23.042   1.906
19745W        W90345  12.212  21.935  11.096
19746W        W90346  26.420  44.317  14.398
19747W        W90347  14.288  31.584  10.594
19748W        W90348   9.136  28.610  14.713
19749W        W90349  37.884   2.467   3.835
19750W        W90350  32.929   4.359  12.483
19751W        W90351   0.470  28.605   3.635
19752W        W90352   3.983  30.717   5.021
19753W        W90353  24.296  31.781   4.545
19754W        W90354  43.398   0.314  11.594
19755W        W90355   3.821  18.108  12.411
19756W        W90356  30.537   8.548   0.254
19757W        W90357  41.832  30.495  14.743
19758W        W90358  40.418  27.492  11.411
19759W        W90359  31.848  35.468  12.554
19760W        W90360  23.542  31.377   3.237
19761W        W90361  19.482   8.592   1.624
19762W        W90362  15.250  38.121  12.293
19763W        W90363  38.790  30.943  12.855
19764W        W90364  37.637  10.068  11.167
19765W        W90365  37.755   5.272   4.021
19766W        W90366  14.235  13.535  13.784
19767W        W90367  24.160  28.595   0.958
19768W        W90368  44.967  35.004  10.207
19769W        W90369  24.243   0.861  10.174
19770W        W90370  10.643  35.371   1.268
19771W        W90371  27.434  30.056  12.943
19772W        W90372  37.575  18.327   2.678
19773W        W90373   9.955  23.672  11.308
19774W        W90374  27.232   8.518  12.382
19775W        W90375   2.969   2.030  12.748
19776W        W90376  29.725  12.423  12.371
19777W        W90377  14.746  31.922  13.343
19778W        W90378  23.200  33.906  10.559
19779W        W90379  13.785   6.937  10.632
19780W        W90380  33.604  15.319   2.588
19781W        W90381  21.955  24.697   3.187
19782W        W90382  44.972  24.984   0.539
19783W        W90383  21.644  20.727  12.593
19784W        W90384  28.625  16.306  14.397
19785W        W90385  36.279   0.806   2.350
19786W        W90386   6.097  38.001   2.594
19787W        W90387  40.290  30.579  14.399
19788W        W90388  31.652  18.771  13.788
19789W        W90389  11.303  15.346  13.804
19790W        W90390  16.579  13.837  13.437
19791W        W90391  15.415  32.755  11.493
19792W        W90392  13.765  44.473   0.759
19793W        W90393  39.623  42.183   1.837
19794W        W90394  37.841  19.243  10.637
19795W        W90395   1.941   2.998  10.655
19796W        W90396  24.716  11.663  14.751
19797W        W90397  36.839   4.732   2.291
19798W        W90398  33.708  24.615   0.900
19799W        W90399  10.312  28.673  12.178
19800W        W90400  11.847  22.659  13.317
19801W        W90401  23.119  12.679  14.736
19802W        W90402  20.763  10.350   4.260
19803W        W90403  24.987  41.479   3.383
19804W        W90404   1.341   7.430   0.428
19805W        W90405   5.718  27.608   1.772
19806W        W90406   0.943  33.594   2.798
19807W        W90407  35.151  24.312  12.709
19808W        W90408  22.222  16.724  14.331
19809W        W90409  43.291  14.734   4.500
19810W        W90410  31.446  37.982  11.452
19811W        W90411  15.429  36.408  13.047
19812W        W90412  36.421  38.301  13.287
19813W        W90413  15.011  32.868   0.284
19814W        W90414  22.047  23.817   1.702
19815W        W90415   7.888  17.058  11.988
19816W        W90416  41.599  10.843   0.871
19817W        W90417  42.981   8.686   1.867
19818W        W90418  40.578   7.895   4.585
19819W        W90419   9.619  21.315   1.327
19820W        W90420  30.105  16.629  13.832
19821W        W90421  25.637  14.787   0.711
19822W        W90422  37.557  37.809   1.215
19823W        W90423  37.503   6.232  12.875
19824W        W90424  37.972  39.526   2.768
19825W        W90425  26.009  37.915  13.779
19826W        W90426  21.810   3.872   0.363
19827W        W90427  26.937  12.750   1.393
19828W        W90428  16.520  40.796   1.146
19829W        W90429   4.293  44.829   4.120
19830W        W90430  37.967  15.378  12.628
19831W        W90431   2.952   9.403   0.322
19832W        W90432  10.558  16.726   2.701
19833W        W90433  31.026  20.757   2.287
19834W        W90434  27.549  32.696   1.730
19835W        W90435  16.591  31.864  13.937
19836W        W90436  23.379  31.265  12.093
19837W        W90437  18.365   5.707  12.385
19838W        W90438  44.518  35.125   4.643
19839W        W90439   5.729   1.424   0.996
19840W        W90440  21.740   7.875  12.510
19841W        W90441   9.726   3.214   0.069
19842W        W90442  31.372  31.980   1.823
19843W        W90443  22.634   0.846   3.673
19844W        W90444  36.507  14.090  13.577
19845W        W90445   9.902  42.295   0.236
19846W        W90446  43.211  37.119   0.330
19847W        W90447  19.112  34.103  10.272
19848W        W90448  39.893  36.941  11.582
19849W        W90449  32.053  29.052  10.995
19850W        W90450  23.793  15.363  11.943
19851W        W90451  17.693  33.117  13.053
19852W        W90452  30.432  44.013   4.842
19853W        W90453  38.124   5.974   0.195
19854W        W90454   0.131  24.559  13.394
19855W        W90455   4.126  17.332   3.713
19856W        W90456  14.836  22.005   0.340
19857W        W90457  31.105   3.814  14.091
19858W        W90458   5.400  13.583  14.474
19859W        W90459  15.972  37.480   3.271
19860W        W90460  19.763  11.975  13.513
19861W        W90461  29.178  33.419  11.036
19862W        W90462  26.145  39.434  11.720
19863W        W90463   4.205   2.141   1.167
19864W        W90464  25.439  25.119  14.697
19865W        W90465  27.656  37.052   3.925
19866W        W90466  41.283   8.748   4.588
19867W        W90467  25.674   1.686  10.877
19868W        W90468  33.887  11.438  13.997
19869W        W90469   1.689   3.277  12.453
19870W        W90470   3.776  24.185   4.088
19871W        W90471  35.482  13.114   2.360
19872W        W90472  39.460  23.679  12.564
19873W        W90473   2.820   7.192  14.185
19874W        W90474  35.130  38.853   3.544
19875W        W90475  18.195  10.602   2.703
19876W        W90476  43.506   3.267   5.033
19877W        W90477  41.369  38.466   2.309
19878W        W90478   4.469  37.375   2.058
19879W        W90479  44.681  18.584  14.896
19880W        W90480   1.933  41.306   2.021
19881W        W90481  12.316  41.535   4.583
19882W        W90482  40.404  21.166  13.492
19883W        W90483  22.993  23.327   0.855
19884W        W90484  15.209   7.002  14.290
19885W        W90485  38.873   7.802   4.544
19886W        W90486  42.064  40.972  12.925
19887W        W90487  43.992  11.298   1.773
19888W        W90488  29.617  25.877  13.020
19889W        W90489   0.235   9.843   1.937
19890W        W90490  33.558  44.933  11.162
19891W        W90491  23.251  23.301  12.073
19892W        W90492   7.658   9.741   4.176
19893W        W90493  31.639  18.749  10.835
19894W        W90494  19.558  42.691  14.264
19895W        W90495  43.541  33.558   3.280
19896W        W90496  13.695  43.804  12.120
19897W        W90497  12.858  12.095  11.543
19898W        W90498  38.516   2.133  14.619
19899W        W90499  14.110  44.803   2.385
19900W        W90500  15.835  33.913   0.906
19901W        W90501  39.793   9.234  14.422
19902W        W90502   5.215  24.586   4.610
19903W        W90503   7.900  43.455  11.185
19904W        W90504  16.050  12.675   0.873
19905W        W90505   6.903  23.885  14.223
19906W        W90506  26.248  26.473  12.160
19907W        W90507  31.821  35.402   4.214
19908W        W90508  14.333  20.899  14.926
19909W        W90509  29.233  18.049  10.923
19910W        W90510  21.160  24.911   0.468
19911W        W90511   3.837  10.829   1.692
19912W        W90512  40.057  44.246   1.887
19913W        W90513   5.862  31.623  11.035
19914W        W90514   1.258  39.542  13.606
19915W        W90515  34.634  43.440  11.519
19916W        W90516  39.217  40.950   1.689
19917W        W90517  18.176  27.730   1.236
19918W        W90518   2.463   3.826  13.603
19919W        W90519  18.186   4.914   3.062
19920W        W90520  15.819  41.585  12.049
19921W        W90521   9.302  11.139  14.019
19922W        W90522  31.869  14.578   0.249
19923W        W90523  24.406  13.807   0.937
19924W        W90524  13.650   0.805   4.806
19925W        W90525  33.400  20.552   1.789
19926W        W90526  39.568  35.356   2.336
19927W        W90527  29.940  11.636   1.354
19928W        W90528  15.180  15.407   1.422
19929W        W90529   4.036  43.288   2.938
19930W        W90530  39.283   8.659  13.963
19931W        W90531  31.297   1.400  12.007
19932W        W90532   9.715  13.718   1.477
19933W        W90533  13.831  18.791   1.341
19934W        W90534  10.508  42.867   0.798
19935W        W90535  20.141  11.335  11.481
19936W        W90536  34.627  21.275   1.512
19937W        W90537  39.504  34.125   0.966
19938W        W90538  18.620  34.412  13.814
19939W        W90539  17.279  14.758  10.696
19940W        W90540  22.653  33.990  12.894
19941W        W90541  43.498  42.670   1.345
19942W        W90542   7.855  32.608  10.750
19943W        W90543  36.574  34.783   0.247
19944W        W90544  39.947   5.185  12.293
19945W        W90545  17.558  41.860  11.921
19946W        W90546  19.477  30.364  10.641
19947W        W90547  25.724  32.981  12.855
19948W        W90548  37.505   6.420  11.825
19949W        W90549   2.305  28.587  11.566
19950W        W90550  13.495   5.231   0.409
19951W        W90551   9.387  43.836  14.545
19952W        W90552   9.328  14.587   1.344
19953W        W90553  28.212  24.990  14.384
19954W        W90554   0.491  15.783   1.390
19955W        W90555   9.145  28.875  11.211
19956W        W90556   6.358  44.373  13.060
19957W        W90557  24.633  10.200   0.150
19958W        W90558  29.072  40.923  14.725
19959W        W90559  37.068  14.582  11.662
19960W        W90560  38.420  12.720   0.184
19961W        W90561  42.826  23.372  11.086
19962W        W90562  22.995  36.880  12.486
19963W        W90563   9.145  24.110   2.937
19964W        W90564  40.616  41.080   3.280
19965W        W90565   3.976  17.367   0.632
19966W        W90566  27.615  15.601  13.812
19967W        W90567  37.889   9.112  11.727
19968W        W90568  23.428   3.061   3.662
19969W        W90569   2.779  23.528  11.667
19970W        W90570  28.938  35.737   0.667
19971W        W90571  33.590   0.552   1.798
19972W        W90572  44.299  26.074  14.012
19973W        W90573  13.028  37.586   1.410
19974W        W90574  12.652  29.354  12.678
19975W        W90575  34.898  33.418   3.549
19976W        W90576  16.891  35.039   2.125
19977W        W90577  31.608  14.137   0.298
19978W        W90578   1.858  39.445   2.385
19979W        W90579  22.002  26.476  10.694
19980W        W90580   1.404  28.300  13.056
19981W        W90581  27.088   8.760  13.733
19982W        W90582   5.170  22.805   2.997
19983W        W90583  26.718  36.481   0.796
19984W        W90584  27.937  17.301  13.317
19985W        W90585  41.643  12.798  10.973
19986W        W90586  13.138   7.846   3.346
19987W        W90587  29.216  31.612   4.620
19988W        W90588  31.193  14.104   1.307
19989W        W90589  42.021  32.473   3.214
19990W        W90590  33.633  39.618  12.534
19991W        W90591  25.318  17.688   3.883
19992W        W90592  15.567  14.919  11.247
19993W        W90593   4.918  43.878   0.491
19994W        W90594  40.393   1.191  12.874
19995W        W90595  41.446   4.190  11.672
19996W        W90596  16.275  32.683   0.258
19997W        W90597  30.555  16.324  12.495
19998W        W90598   3.690  10.355   4.213
19999W        W90599  25.231  12.186   0.254
20000W        W90600  24.522  21.032   4.870
20001W        W90601  20.646  37.812  12.602
20002W        W90602   1.760  41.548  11.228
20003W        W90603  31.398  22.460  11.557
20004W        W90604  10.271  12.403   4.557
20005W        W90605  15.796   7.939   2.869
20006W        W90606  39.806  39.401  11.457
20007W        W90607  28.418  36.495  12.912
20008W        W90608  19.103  30.529   3.386
20009W        W90609  39.147  10.353   0.820
20010W        W90610  24.497   2.538  14.434
20011W        W90611  36.395  10.931   1.891
20012W        W90612  23.679   3.355   2.761
20013W        W90613   5.027  44.448   4.456
20014W        W90614  28.656  34.801  11.981
20015W        W90615  19.500  14.293  11.189
20016W        W90616  20.915  29.164  12.532
20017W        W90617  25.359  42.433   0.775
20018W        W90618  19.468   5.437  10.114
20019W        W90619  41.122   7.732  14.919
20020W        W90620   1.160  40.571  13.073
20021W        W90621  36.974  39.014   1.171
20022W        W90622   6.017  31.506  14.004
20023W        W90623   9.323  40.810   0.765
20024W        W90624  40.988  22.470  10.320
20025W        W90625  25.235   7.692   1.317
20026W        W90626  34.102  15.842   3.275
20027W        W90627  18.925   3.800   1.309
20028W        W90628  30.567  17.032   1.456
20029W        W90629   3.732  13.535   3.679
20030W        W90630  34.878  10.845  14.390
20031W        W90631  16.559  26.877   3.289
20032W        W90632  19.105  31.379   0.041
20033W        W90633  19.941  10.701   3.715
20034W        W90634  36.420  12.138   2.017
20035W        W90635  33.105  27.145   3.941
20036W        W90636   5.907  21.253   0.716
20037W        W90637  37.710  39.086   2.767
20038W        W90638  33.489  11.825   0.483
20039W        W90639  43.028  43.006  13.113
20040W        W90640  33.846  34.038   1.664
20041W        W90641  11.588  35.321   0.321
20042W        W90642  24.237   2.375   2.769
20043W        W90643  41.703  24.502  12.641
20044W        W90644  16.600  39.500   4.190
20045W        W90645  14.213  13.504   2.000
20046W        W90646  23.238  22.591  14.338
20047W        W90647  44.940  25.880  12.036
20048W        W90648  31.423  34.421   4.177
20049W        W90649  39.889   8.897   2.019
20050W        W90650  10.491  44.005   3.772
20051W        W90651  10.704  29.011  14.645
20052W        W90652  33.139  21.058   2.850
20053W        W90653  43.744  43.723   1.840
20054W        W90654  16.267  25.886   1.883
20055W        W90655  42.372   2.475   2.658
20056W        W90656  12.103   3.611   4.661
20057W        W90657  41.838  13.785  12.471
20058W        W90658  31.351  31.620  12.542
20059W        W90659   3.166  19.232  13.811
20060W        W90660   7.927  13.821   4.967
20061W        W90661   9.810  23.248  10.650
20062W        W90662  42.983  16.866   0.273
20063W        W90663  38.968  43.229  12.927
20064W        W90664  29.440   8.899  13.074
20065W        W90665  36.503  30.152   4.498
20066W        W90666   2.302  10.803   3.754
20067W        W90667  23.585  20.158  12.517
20068W        W90668  31.573   5.449  13.539
20069W        W90669  15.774  17.604   3.100
20070W        W90670  38.000  36.470  14.094
20071W        W90671  36.664   1.183  12.909
20072W        W90672  13.470  19.714  10.822
20073W        W90673  40.439  41.424  12.808
20074W        W90674  12.425  20.811  12.476
20075W        W90675  18.340   2.793  14.398
20076W        W90676   3.858  16.806  14.187
20077W        W90677  26.406   6.787   3.260
20078W        W90678   6.218  15.116   1.975
20079W        W90679   9.271  14.797  13.133
20080W        W90680  33.377  21.286   0.453
20081W        W90681  39.502  16.333  14.826
20082W        W90682  43.359  39.349  13.987
20083W        W90683   3.348  25.711  12.443
20084W        W90684  29.811   8.104   1.826
20085W        W90685  22.149  14.971   1.953
20086W        W90686  27.205   3.235  11.445
20087W        W90687  15.062  20.298   0.087
20088W        W90688  11.796  34.762  13.804
20089W        W90689   7.250  12.339  14.953
20090W        W90690  11.752  12.620  10.554
20091W        W90691  13.615  26.530   1.308
20092W        W90692  35.002   7.649   4.300
20093W        W90693  25.594  36.924  14.767
20094W        W90694  20.669  30.966   0.699
20095W        W90695  31.955  32.033  10.828
20096W        W90696  16.712  30.129   0.835
20097W        W90697   7.713   6.819   2.816
20098W        W90698  36.332   4.918  12.486
20099W        W90699   2.030  35.144   4.953
20100W        W90700  26.938   8.454   3.899
20101W        W90701  28.795  36.238   0.676
20102W        W90702  27.020  39.199   3.843
20103W        W90703  31.236  39.508   0.547
20104W        W90704   0.357  31.094  13.925
20105W        W90705  18.877  32.327   3.058
20106W        W90706  44.795  11.867  11.674
20107W        W90707   0.552   7.557  11.482
20108W        W90708  43.647  35.410  10.782
20109W        W90709  15.536   7.289  10.757
20110W        W90710  35.380  24.560  13.946
20111W        W90711  17.680  41.118   1.703
20112W        W90712   1.904  39.078  11.543
20113W        W90713  10.855  44.928   2.399
20114W        W90714  21.609  12.292   0.863
20115W        W90715  13.044  28.552  12.345
20116W        W90716  11.358  16.339   2.918
20117W        W90717  31.588  40.784  13.048
20118W        W90718  32.872  37.326   3.269
20119W        W90719   3.095  40.496  12.497
20120W        W90720   9.061  10.821  14.405
20121W        W90721  17.833  32.344   3.261
20122W        W90722  44.939  44.796  10.846
20123W        W90723  17.825  30.577   2.547
20124W        W90724  27.516  16.646   1.323
20125W        W90725   9.313  32.107   2.103
20126W        W90726  26.347  23.467   2.728
20127W        W90727  24.696  17.540  12.307
20128W        W90728  43.847  42.260   2.965
20129W        W90729   8.250  33.173  12.028
20130W        W90730  27.662  44.782  11.850
20131W        W90731  18.606  26.138   2.374
20132W        W90732  36.398   1.839   2.343
20133W        W90733  11.509  12.185   3.893
20134W        W90734  19.194  33.194  11.990
20135W        W90735  40.146  23.525   4.180
20136W        W90736  33.795  16.069   1.921
20137W        W90737  28.648  33.938   1.850
20138W        W90738  36.895  40.224  11.780
20139W        W90739  30.705   7.470   2.626
20140W        W90740  39.381  29.598  14.293
20141W        W90741  37.277  35.857   2.167
20142W        W90742   5.348  39.453  14.413
20143W        W90743  36.216  12.321  14.406
20144W        W90744  21.058  21.592  11.459
20145W        W90745  30.589  18.773  13.035
20146W        W90746  43.107  27.522   2.193
20147W        W90747  14.603  42.569   0.457
20148W        W90748  43.530  42.532  11.622
20149W        W90749  22.996   4.402   4.601
20150W        W90750  32.195   3.331   3.483
20151W        W90751  32.057  32.340   1.232
20152W        W90752  26.484   9.797  10.986
20153W        W90753  16.154   9.289  13.926
20154W        W90754  24.605  37.036   1.445
20155W        W90755  32.504  28.435   3.227
20156W        W90756  36.034  36.066   4.122
20157W        W90757  27.119  14.791   0.247
20158W        W90758  44.267  15.155  13.879
20159W        W90759  19.184  35.628   4.535
20160W        W90760  23.273  17.825   0.358
20161W        W90761  29.852  39.073   4.585
20162W        W90762   1.875  16.282  11.425
20163W        W90763  27.578  35.341  13.494
20164W        W90764  38.276  38.266  12.545
20165W        W90765  18.994  44.693  12.816
20166W        W90766   0.694   3.499  13.388
20167W        W90767  41.050  23.024   3.292
20168W        W90768   8.444  22.101  12.108
20169W        W90769  31.176  42.487  14.659
20170W        W90770   4.345  23.582   3.719
20171W        W90771  35.475  32.293   2.358
20172W        W90772  15.585  17.451  13.887
20173W        W90773  15.427  34.967  13.476
20174W        W90774  38.234  38.609   1.635
20175W        W90775  15.254  19.745   4.207
20176W        W90776  17.028  11.966  13.074
20177W        W90777  21.387  19.537   2.115
20178W        W90778  24.447  20.590   0.768
20179W        W90779  34.060  14.123  14.818
20180W        W90780   4.892  28.517   0.219
20181W        W90781  22.427  42.630  12.045
20182W        W90782  39.548   4.276   2.247
20183W        W90783  25.954  20.741   0.746
20184W        W90784  28.008  42.547   2.882
20185W        W90785  11.711  33.931  14.373
20186W        W90786   1.222  32.622  10.787
20187W        W90787   8.428  20.596  13.680
20188W        W90788  12.319  28.742   1.269
20189W        W90789  28.370  15.072   1.043
20190W        W90790   4.337  37.334  14.057
20191W        W90791  31.953  37.302  11.396
20192W        W90792  30.585  28.159   4.496
20193W        W90793  39.359  16.065   1.076
20194W        W90794  28.977  33.382  13.946
20195W        W90795  37.141  27.507  14.478
20196W        W90796  11.782  40.950  12.592
20197W        W90797  11.341   0.251   4.278
20198W        W90798  43.480   6.390  11.109
20199W        W90799  34.974  14.764  10.461
20200W        W90800   4.896  40.088  13.602
20201W        W90801   9.339  12.666   4.614
20202W        W90802  35.706   6.076   3.698
20203W        W90803  18.574   1.433   0.778
20204W        W90804   9.335  38.142   3.234
20205W        W90805  43.337  19.984  11.626
20206W        W90806   7.907  22.693   4.137
20207W        W90807  38.118   3.563  12.895
20208W        W90808   2.178  26.996  11.011
20209W        W90809  36.557   5.936  14.523
20210W        W90810  28.043   2.388  10.778
20211W        W90811  43.337  12.095   1.512
20212W        W90812  10.366  35.768  12.424
20213W        W90813  17.654  27.392  14.902
20214W        W90814  21.113  44.428  13.772
20215W        W90815  41.756  44.971  12.562
20216W        W90816   0.857  35.418   1.210
20217W        W90817  39.292  21.575   0.878
20218W        W90818   9.491   0.275  14.868
20219W        W90819  24.443   1.466   3.784
20220W        W90820  26.071  16.173  10.680
20221W        W90821  36.478  39.277   1.343
20222W        W90822  10.504  41.177   2.412
20223W        W90823  16.634  21.892   0.173
20224W        W90824  23.977   4.424  14.531
20225W        W90825  28.943  42.973   0.782
20226W        W90826  10.257  36.274   0.341
20227W        W90827  40.375  33.835   0.846
20228W        W90828  33.024  18.977   1.369
20229W        W90829   7.276   0.791  12.917
20230W        W90830  39.305   5.956  14.935
20231W        W90831  19.975  31.955   3.790
20232W        W90832  34.496   2.042   1.324
20233W        W90833  39.248  16.505   3.796
20234W        W90834  21.649  38.773  14.453
20235W        W90835  22.071  18.710   1.945
20236W        W90836  43.425  19.195   4.578
20237W        W90837  21.816  36.596  13.549
20238W        W90838  28.704  11.671   4.514
20239W        W90839  25.430  14.556  14.372
20240W        W90840  24.504   5.021   2.830
20241W        W90841  21.147  27.410  14.360
20242W        W90842  38.296  27.891   2.617
20243W        W90843  23.049  36.568   3.686
20244W        W90844  27.770   2.842   3.788
20245W        W90845   3.816  31.646   2.741
20246W        W90846  40.760   3.578   1.324
20247W        W90847  27.515   7.312  12.129
20248W        W90848  33.165  30.186  13.223
20249W        W90849   4.820  11.544   0.513
20250W        W90850  19.501  12.681   0.452
20251W        W90851  15.108  37.619  12.306
20252W        W90852  11.152  26.117   1.859
20253W        W90853  16.037  31.608  13.036
20254W        W90854  13.362  39.105  13.023
20255W        W90855  15.335  12.771  11.132
20256W        W90856  11.588  35.662   4.859
20257W        W90857  39.078  40.612  10.768
20258W        W90858  18.728   7.187   4.180
20259W        W90859  16.862  35.245  11.291
20260W        W90860  38.017  31.492  12.101
20261W        W90861  37.052  32.060  10.806
20262W        W90862  42.789  37.252   4.585
20263W        W90863  41.483  24.155  10.812
20264W        W90864  19.755  31.113   3.827
20265W        W90865   2.326  31.385   4.599
20266W        W90866   1.862   5.385  14.147
20267W        W90867  21.698  42.028  10.702
20268W        W90868  18.604  42.361  14.779
20269W        W90869  26.240  30.701   5.039
20270W        W90870  22.027  23.584  10.916
20271W        W90871  21.013   0.486   5.089
20272W        W90872  17.720  43.523   0.318
20273W        W90873  26.745  42.222  13.406
20274W        W90874  10.392  19.353   3.216
20275W        W90875  43.468  40.961  10.775
20276W        W90876  44.627  25.667  10.761
20277W        W90877  35.107  25.429  12.902
20278W        W90878  22.550  44.363  14.548
20279W        W90879   1.673   2.033  10.751
20280W        W90880   1.695  39.366  13.389
20281W        W90881  38.903  13.908  14.464
20282W        W90882  21.891   1.816   4.568
20283W        W90883  19.058   8.038  12.231
20284W        W90884  28.654   4.269  10.415
20285W        W90885  30.491  12.917  11.973
20286W        W90886  40.069  30.005   1.295
20287W        W90887  14.683  10.354  14.007
20288W        W90888  27.728   6.907  13.979
20289W        W90889  24.717  15.579  12.955
20290W        W90890  17.350  25.025   0.805
20291W        W90891  38.513  20.627  13.620
20292W        W90892  28.636  37.078  11.135
20293W        W90893  42.641  14.389  14.795
20294W        W90894  41.017  18.561  12.553
20295W        W90895  17.141   2.107  11.088
20296W        W90896  28.585  35.845   1.029
20297W        W90897  31.940   4.377  11.135
20298W        W90898  17.772  24.762  14.708
20299W        W90899  28.821  36.327   3.713
20300W        W90900   2.816  34.235   1.835
20301W        W90901   6.515   4.479  11.893
20302W        W90902   5.422  29.360  14.325
20303W        W90903  21.660  19.001  13.005
20304W        W90904   4.794  36.898   3.624
20305W        W90905   3.394  43.272  11.980
20306W        W90906  12.284  27.581  14.743
20307W        W90907  34.261  36.880  11.068
20308W        W90908  12.492  16.186  10.786
20309W        W90909   7.161  19.666   3.588
20310W        W90910  13.663   5.997  14.279
20311W        W90911  38.349   4.746  10.931
20312W        W90912  41.930  25.090   0.716
20313W        W90913  22.625   9.118  12.116
20314W        W90914  34.016   9.095   1.479
20315W        W90915   7.936  38.029  14.372
20316W        W90916  30.724  40.761   2.256
20317W        W90917   3.349  30.626   3.696
20318W        W90918  10.614   2.516  13.596
20319W        W90919  26.157  32.686   0.900
20320W        W90920  13.673  30.580   0.620
20321W        W90921  40.129  29.040  11.102
20322W        W90922   9.754  22.562  13.731
20323W        W90923  15.872  30.463  11.462
20324W        W90924  14.311  35.584  12.631
20325W        W90925  14.713  35.325   1.844
20326W        W90926   1.556   5.335  12.990
20327W        W90927  25.161  40.094   1.812
20328W        W90928  39.776  39.493  13.740
20329W        W90929   8.661   7.275   2.779
20330W        W90930  10.851  28.757   1.325
20331W        W90931  11.850  38.863  14.418
20332W        W90932   9.551   5.953  11.298
20333W        W90933   9.800   4.663   0.419
20334W        W90934  30.166  35.197  14.424
20335W        W90935  10.342  36.536  12.708
20336W        W90936  17.019  40.275   3.767
20337W        W90937   3.274  31.022  14.959
20338W        W90938  32.929   0.740   3.057
20339W        W90939  27.207  10.745   2.605
20340W        W90940  28.890   1.496  11.064
20341W        W90941   7.273   4.310   1.733
20342W        W90942  26.260  13.843  13.863
20343W        W90943  35.866   8.561   2.676
20344W        W90944  27.771  22.691   2.862
20345W        W90945   7.157  24.673   3.575
20346W        W90946  23.020  13.849   0.750
20347W        W90947  40.848   7.665   0.345
20348W        W90948  11.194  11.340  14.783
20349W        W90949  20.412  39.489   3.621
20350W        W90950   0.077  27.703  11.138
20351W        W90951  44.928   9.272   0.703
20352W        W90952   4.032  33.514   0.319
20353W        W90953  20.833  10.701   0.791
20354W        W90954  18.143  14.100   3.690
20355W        W90955  32.621  11.371  13.238
20356W        W90956  18.583  40.634  12.055
20357W        W90957  11.217  32.051   3.213
20358W        W90958  32.617  20.040   0.273
20359W        W90959  19.642   2.141   0.865
20360W        W90960   8.295   2.160   3.369
20361W        W90961  15.303   5.737   1.560
20362W        W90962  29.641  38.589  14.727
20363W        W90963  28.152  32.101   2.276
20364W        W90964  24.956  21.506   1.268
20365W        W90965  11.748  42.584  13.031
20366W        W90966   9.274  41.500  11.881
20367W        W90967  42.882  15.642   0.886
20368W        W90968   3.524  25.153   3.243
20369W        W90969  12.160  41.967   2.144
20370W        W90970  11.786   4.694   3.154
20371W        W90971  34.322  31.523  12.421
20372W        W90972  40.552   2.939   4.136
20373W        W90973  14.641  28.498   1.341
20374W        W90974  10.108   5.667   0.646
20375W        W90975   0.038   4.794   1.959
20376W        W90976  14.538  38.473  12.948
20377W        W90977  22.217   5.691  11.548
20378W        W90978  20.954   3.301  14.513
20379W        W90979   4.371  41.033   1.340
20380W        W90980   8.701  12.639  14.331
20381W        W90981  10.726  29.509   0.066
20382W        W90982  19.774  16.163   3.860
20383W        W90983  15.692  18.138  13.942
20384W        W90984   6.925  23.475   1.696
20385W        W90985  19.352  26.145   1.708
20386W        W90986  10.087  44.805  11.256
20387W        W90987  28.126  13.726  13.639
20388W        W90988  38.897  25.230   0.680
20389W        W90989  15.010  25.154  10.459
20390W        W90990  35.408   7.786  10.711
20391W        W90991  28.108  22.701   1.868
20392W        W90992  41.398  40.923   0.582
20393W        W90993  11.944  36.778   0.070
20394W        W90994  39.001  20.177  10.579
20395W        W90995  26.711  28.421   3.664
20396W        W90996  44.980  32.792   1.351
20397W        W90997   4.827  37.645   2.309
20398W        W90998  25.906  43.078   1.860
20399W        W90999  31.097  12.825  14.707
20400W        W91000  28.199   7.024  11.952
20401W        W91001  35.061  19.095   1.914
20402W        W91002  39.517  23.951  14.448
20403W        W91003  26.190  38.789   2.924
20404W        W91004  34.569  22.795   2.226
20405W        W91005   1.199   2.345   2.802
20406W        W91006  31.663  31.154   2.717
20407W        W91007  34.023  24.115  12.100
20408W        W91008  33.022  21.749   3.580
20409W        W91009   6.748  28.623   3.201
20410W        W91010  16.636   4.404   0.510
20411W        W91011   1.994  30.174   2.378
20412W        W91012  36.044  23.104  12.036
20413W        W91013  29.440   1.583   2.700
20414W        W91014  12.775  11.887   3.749
20415W        W91015   0.529  10.607   4.153
20416W        W91016  23.779  41.070  11.119
20417W        W91017  10.712  17.804   4.683
20418W        W91018  33.278  43.194   2.405
20419W        W91019   3.970  20.570   3.519
20420W        W91020   9.284  39.938   1.825
20421W        W91021  29.781  28.506   0.385
20422W        W91022   7.302  13.704   3.635
20423W        W91023  31.128  16.622  13.864
20424W        W91024  18.962  20.536   4.190
20425W        W91025  20.485   4.244   2.132
20426W        W91026  28.722   1.888   3.802
20427W        W91027  43.435  35.481   2.223
20428W        W91028   8.751  36.020  13.881
20429W        W91029   6.850  10.057   4.975
20430W        W91030  31.888  17.779  12.538
20431W        W91031  44.595  31.632  14.150
20432W        W91032  14.647   6.227  13.540
20433W        W91033  33.933   6.722   4.346
20434W        W91034  37.613   0.684  13.626
20435W        W91035  41.440  13.219  10.707
20436W        W91036  33.501  28.629   2.417
20437W        W91037  37.440  31.410   1.743
20438W        W91038  17.160  24.008   1.240
20439W        W91039  26.773  25.140  12.593
20440W        W91040   0.049  15.162  11.615
20441W        W91041  35.995   0.384  12.987
20442W        W91042  11.689  18.199  12.106
20443W        W91043   1.694  30.850   3.710
20444W        W91044  15.318  28.980  13.506
20445W        W91045  31.184  31.586  10.730
20446W        W91046  34.542  32.060  12.402
20447W        W91047  40.742  30.668   1.141
20448W        W91048  41.362  24.684   0.082
20449W        W91049   2.477  12.643   2.231
20450W        W91050   0.062  21.033  12.840
20451W        W91051   3.711  13.674   1.661
20452W        W91052  32.572  23.507  14.458
20453W        W91053  37.469  19.509   3.443
20454W        W91054  36.361  21.752   1.268
20455W        W91055  14.746  36.470   3.040
20456W        W91056  12.193  11.154  13.904
20457W        W91057   2.946  42.407  10.601
20458W        W91058  44.393   3.495   5.035
20459W        W91059   2.296  29.659  11.530
20460W        W91060  31.629  35.244   3.721
20461W        W91061  12.779  10.831   3.967
20462W        W91062  16.111   5.697   0.913
20463W        W91063  40.640   1.478   4.663
20464W        W91064  10.253  13.351   0.302
20465W        W91065  19.157  40.012  13.206
20466W        W91066  19.773   0.396  13.432
20467W        W91067  24.662   9.676   1.473
20468W        W91068  15.822  21.606  13.084
20469W        W91069   6.641  23.085   3.958
20470W        W91070  31.498  26.664  10.516
20471W        W91071   8.870  13.770   4.933
20472W        W91072  20.838  29.533  11.672
20473W        W91073  41.836   2.485  11.408
20474W        W91074   0.947  39.231  13.903
20475W        W91075  42.721  12.738   2.520
20476W        W91076  34.161   9.367   1.046
20477W        W91077  36.320  31.542  13.313
20478W        W91078  37.877   9.811   3.922
20479W        W91079   2.782  21.627   2.293
20480W        W91080  10.397  44.237  13.511
20481W        W91081   9.717  11.722   4.774
20482W        W91082  30.938  41.216   4.523
20483W        W91083  39.535  12.398   1.745
20484W        W91084   7.882  25.035  12.068
20485W        W91085  20.838  28.151   2.774
20486W        W91086  11.064   4.833  11.155
20487W        W91087  25.711   6.326   4.605
20488W        W91088  39.939  39.405  14.262
20489W        W91089   4.854  32.985   3.634
20490W        W91090  37.906  33.909   0.380
20491W        W91091  37.444  31.457  13.840
20492W        W91092  19.279   5.350   1.483
20493W        W91093  30.136  27.939   1.705
20494W        W91094  11.793  33.522  11.366
20495W        W91095  36.057  35.637   3.235
20496W        W91096   2.472  31.112  11.495
20497W        W91097  37.892  36.444   2.085
20498W        W91098  41.840  24.418   2.315
20499W        W91099  17.209  39.539  12.623
20500W        W91100  19.613  27.858   4.115
20501W        W91101   8.717  11.599   0.696
20502W        W91102  40.531   1.968   1.799
20503W        W91103  16.801  42.767  14.475
20504W        W91104  40.518  40.332  11.067
20505W        W91105  34.483  12.184  14.684
20506W        W91106  26.485  42.109  13.839
20507W        W91107  27.477  20.647   4.554
20508W        W91108  22.978  18.195  14.384
20509W        W91109  37.870  13.347   1.908
20510W        W91110  20.026   6.437   3.191
20511W        W91111  11.156  29.541   1.400
20512W        W91112  37.157  17.310  12.093
20513W        W91113  38.385  27.060  13.938
20514W        W91114   3.725  21.132  10.705
20515W        W91115  10.881  22.315  12.944
20516W        W91116  16.375  41.925  11.569
20517W        W91117   9.597  28.340  12.076
20518W        W91118  13.009  31.012   3.578
20519W        W91119  34.694   6.409   4.971
20520W        W91120  13.051  30.117   1.722
20521W        W91121  33.221  39.347  14.414
20522W        W91122  33.855  18.206  13.991
20523W        W91123  31.629  34.074   3.224
20524W        W91124   2.383  20.505  14.398
20525W        W91125  25.788   2.852   2.340
20526W        W91126  36.411  23.910   0.375
20527W        W91127  37.411  19.314  13.221
20528W        W91128  32.626  44.001  13.229
20529W        W91129  37.893   4.918  13.001
20530W        W91130  19.661  38.797   2.711
20531W        W91131  25.944  29.486   1.793
20532W        W91132   0.030   0.466   3.192
20533W        W91133  12.288  32.424   2.721
20534W        W91134  25.547   1.405   2.349
20535W        W91135  39.518   1.959   1.180
20536W        W91136  11.676   7.657  11.678
20537W        W91137  25.108  19.980   3.994
20538W        W91138  25.996  17.627   3.224
20539W        W91139   2.260   7.655  14.056
20540W        W91140  12.944  26.259  11.615
20541W        W91141   5.918  42.019  14.739
20542W        W91142  23.057  20.473  10.376
20543W        W91143  19.610   1.743   4.026
20544W        W91144   1.075  34.370   0.504
20545W        W91145  17.929  21.631  11.284
20546W        W91146  23.961   6.289  14.884
20547W        W91147  41.867  20.840   4.135
20548W        W91148  17.581  25.357  10.568
20549W        W91149  23.167   8.867  13.844
20550W        W91150  27.075  14.735  12.913
20551W        W91151  29.176   3.894  14.101
20552W        W91152  32.460  13.088   2.388
20553W        W91153  13.721  43.871  10.309
20554W        W91154  33.982  36.318  13.944
20555W        W91155  32.620  13.228  11.576
20556W        W91156   5.956  28.637  13.423
20557W        W91157  36.939  30.021   4.779
20558W        W91158  15.892  44.828  11.382
20559W        W91159  43.289   2.745  14.140
20560W        W91160  33.937  21.723   3.635
20561W        W91161  20.814   0.452  14.381
20562W        W91162   8.745   6.276   3.546
20563W        W91163  12.275  37.302   0.085
20564W        W91164  37.166  29.702  11.677
20565W        W91165  34.161  24.668  12.905
20566W        W91166  29.082  35.098  11.876
20567W        W91167   6.307   1.222  12.094
20568W        W91168  34.785  30.691   1.214
20569W        W91169   8.487  33.999   2.417
20570W        W91170  35.282  14.255   3.089
20571W        W91171   0.866  18.219   4.632
20572W        W91172   5.918  42.852   2.725
20573W        W91173  16.759   4.998  12.598
20574W        W91174  17.768  22.793  12.954
20575W        W91175  39.624  10.358   3.683
20576W        W91176  11.290  25.598   3.200
20577W        W91177   0.531   2.162   4.661
20578W        W91178  16.877  11.867  14.885
20579W        W91179   8.713  21.612  10.685
20580W        W91180  10.460   6.773  14.934
20581W        W91181  29.093  10.263  14.766
20582W        W91182  28.593  28.212   1.864
20583W        W91183  21.104  35.148  11.829
20584W        W91184   6.345  22.540  11.950
20585W        W91185  13.657  33.118   4.495
20586W        W91186  43.835  40.125   1.892
20587W        W91187  16.022  38.861   0.858
20588W        W91188   4.993  43.005   0.702
20589W        W91189  26.588  26.897  13.043
20590W        W91190  16.804  22.788   3.791
20591W        W91191   5.381  24.720  13.820
20592W        W91192  10.766  19.627   0.841
20593W        W91193  12.181   5.730   2.816
20594W        W91194   7.134  23.042  11.991
20595W        W91195   3.821  11.299   2.433
20596W        W91196  11.710  43.252   4.824
20597W        W91197  31.258  10.215   0.899
20598W        W91198  22.314   8.155  14.625
20599W        W91199   3.156  43.178   2.686
20600W        W91200  26.596   0.700  11.112
20601W        W91201  14.102  42.034   0.229
20602W        W91202  44.846  11.353  11.713
20603W        W91203   3.408  15.584   0.031
20604W        W91204  42.021   6.276  14.512
20605W        W91205  12.180  37.342  10.501
20606W        W91206  16.097  32.092   3.239
20607W        W91207  41.249   3.226  10.256
20608W        W91208  38.539  22.033  11.175
20609W        W91209  11.296  42.927   4.421
20610W        W91210  10.444   6.946   3.633
20611W        W91211  37.985  25.666  10.644
20612W        W91212  10.843  21.059   0.183
20613W        W91213  15.129  23.282  13.880
20614W        W91214  17.481   5.306  11.321
20615W        W91215   9.162  10.710   0.361
20616W        W91216  42.765  36.657  10.612
20617W        W91217  21.818  20.777  12.100
20618W        W91218  44.362  42.120  10.848
20619W        W91219  26.580  14.838  10.538
20620W        W91220  28.653  30.059   2.439
20621W        W91221  38.897  44.147  11.706
20622W        W91222  35.327  29.479   0.809
20623W        W91223  38.848  44.034   3.234
20624W        W91224  20.016  38.646   4.554
20625W        W91225   3.698  31.525   0.794
20626W        W91226  25.615  31.926   3.201
20627W        W91227  19.119   9.870   4.676
20628W        W91228  27.866  35.812  12.666
20629W        W91229  33.060   7.227   4.408
20630W        W91230   6.618  29.376   2.840
20631W        W91231   9.163  19.710   3.413
20632W        W91232  19.246  40.088  11.486
20633W        W91233  42.707  39.399   1.199
20634W        W91234  36.368  25.987   4.587
20635W        W91235  11.082  37.507  11.684
20636W        W91236   1.989  21.556  10.690
20637W        W91237  43.341  30.019   3.768
20638W        W91238  37.732  28.686  13.899
20639W        W91239   6.686  25.538   3.857
20640W        W91240  31.216   3.880   0.467
20641W        W91241  19.641  13.089   4.615
20642W        W91242  13.415  43.481   1.379
20643W        W91243   4.963  30.062   3.214
20644W        W91244   4.921  39.410   2.318
20645W        W91245  28.613   5.539   3.553
20646W        W91246  15.170  22.789  13.846
20647W        W91247  44.344  11.327   3.598
20648W        W91248  44.838  19.323  14.028
20649W        W91249   4.357   7.941  10.694
20650W        W91250   9.231  30.954   2.817
20651W        W91251  28.697  10.796  11.595
20652W        W91252  40.879  35.265   1.920
20653W        W91253  26.756  30.197  11.727
20654W        W91254  38.584  35.754  11.926
20655W        W91255  12.061  15.658   2.319
20656W        W91256  30.869  20.112  12.051
20657W        W91257  38.045  22.092   1.924
20658W        W91258   4.280  12.490   4.253
20659W        W91259  12.114  36.020   0.602
20660W        W91260  31.534   8.770   4.935
20661W        W91261  27.712  10.290   4.639
20662W        W91262  10.783  40.411  12.950
20663W        W91263  36.089  11.247   3.660
20664W        W91264  17.645  24.950   4.881
20665W        W91265  31.606  40.038  11.646
20666W        W91266  27.071  11.183  13.473
20667W        W91267  28.522  19.050  11.181
20668W        W91268   4.961  38.387   3.351
20669W        W91269   6.898  33.702  14.069
20670W        W91270  11.183  20.315  13.933
20671W        W91271  40.190  15.837  11.803
20672W        W91272  41.746  19.091   3.958
20673W        W91273  28.095  42.012  13.590
20674W        W91274  13.018  36.911   5.137
20675W        W91275  19.895   4.618  11.456
20676W        W91276  20.619  29.140   4.007
20677W        W91277  37.527  26.072   3.851
20678W        W91278  17.040  40.263   0.806
20679W        W91279  21.168  13.230  10.630
20680W        W91280  15.367   9.225   4.127
20681W        W91281  26.562  43.561   2.368
20682W        W91282  18.759  16.713   0.910
20683W        W91283  38.392  15.461  13.408
20684W        W91284  40.372  32.541  13.542
20685W        W91285  32.631  12.236  12.633
20686W        W91286  28.012  24.067   1.855
20687W        W91287   9.663  38.583  11.914
20688W        W91288  35.586   3.522   4.199
20689W        W91289   1.211  34.143  14.201
20690W        W91290   7.693  24.489  14.397
20691W        W91291   0.774  17.340   4.161
20692W        W91292   9.911   6.066   4.911
20693W        W91293  39.782  35.897  11.510
20694W        W91294  30.077  32.935  12.151
20695W        W91295  39.111  21.065  14.773
20696W        W91296  42.462  35.892  14.285
20697W        W91297  41.532  17.510  12.007
20698W        W91298  15.803  27.042   3.719
20699W        W91299  16.604  37.063   0.539
20700W        W91300  31.549  10.715  14.919
20701W        W91301  30.246  12.289  12.436
20702W        W91302  23.772  34.389   0.296
20703W        W91303  22.262  15.298  13.432
20704W        W91304   2.825  10.664   3.006
20705W        W91305  25.310  34.870  11.047
20706W        W91306   2.410   5.148  10.512
20707W        W91307  11.680  42.756  11.615
20708W        W91308  33.600  29.527   5.077
20709W        W91309  31.326  13.280  14.953
20710W        W91310  19.200   5.819  14.786
20711W        W91311  14.346  23.585   0.948
20712W        W91312  25.043  32.800  10.898
20713W        W91313  10.336   4.753   4.183
20714W        W91314  30.980  21.170  11.802
20715W        W91315   0.844  15.804   3.722
20716W        W91316  39.313   8.504   0.433
20717W        W91317  26.169  18.995  13.931
20718W        W91318  29.868  34.536   1.260
20719W        W91319   5.106   3.211  10.995
20720W        W91320  12.826  44.553  11.839
20721W        W91321  29.930  42.245   1.422
20722W        W91322   8.324   4.043   2.091
20723W        W91323  14.400  33.379  12.467
20724W        W91324  29.134  26.138   3.245
20725W        W91325  39.242  44.719   0.020
20726W        W91326   8.375  14.943   1.707
20727W        W91327  40.995  43.742  11.415
20728W        W91328   3.030  40.446  13.394
20729W        W91329  42.967  24.151  11.576
20730W        W91330   8.163  16.852  14.821
20731W        W91331   8.276  22.961   2.873
20732W        W91332  29.939  35.356   4.592
20733W        W91333   3.939   8.915  13.655
20734W        W91334  16.165   7.905  13.919
20735W        W91335  16.643  40.275  14.669
20736W        W91336  40.015  16.441   4.930
20737W        W91337  27.689  19.260   0.689
20738W        W91338  35.020  38.427  12.487
20739W        W91339  21.985   5.386   3.716
20740W        W91340   1.805  23.220  12.098
20741W        W91341  10.616  32.990  11.499
20742W        W91342  32.679   8.158  12.057
20743W        W91343  36.425  23.532   2.212
20744W        W91344   2.392  15.237   1.382
20745W        W91345  27.590  42.355   0.891
20746W        W91346  30.556   4.162  11.535
20747W        W91347  37.121   4.841  11.898
20748W        W91348   5.955   4.812  10.881
20749W        W91349  17.596  11.116  12.092
20750W        W91350  36.115  40.425   4.577
20751W        W91351  28.403  34.976   0.420
20752W        W91352   1.971  17.844   1.881
20753W        W91353   2.707  22.665  10.752
20754W        W91354  19.987  29.416   4.010
20755W        W91355  34.955  31.828  12.159
20756W        W91356  18.479  29.575   2.500
20757W        W91357   5.978  27.780   2.199
20758W        W91358  30.660   4.775   4.019
20759W        W91359   6.387   3.552   4.946
20760W        W91360  38.566   9.646   1.396
20761W        W91361   6.406   7.343   1.766
20762W        W91362  41.437  39.804   0.973
20763W        W91363  43.984   5.480  14.909
20764W        W91364  29.023  19.870  11.017
20765W        W91365  43.733  35.376   3.613
20766W        W91366  38.493  39.394  10.572
20767W        W91367  24.610  13.575  14.734
20768W        W91368  33.810  33.033   9.965
20769W        W91369  33.449  17.405  14.888
20770W        W91370  24.752  42.921   1.354
20771W        W91371  17.147  27.446   1.282
20772W        W91372   9.628  37.892   1.081
20773W        W91373  17.066  32.638   4.964
20774W        W91374  43.164  35.193   2.555
20775W        W91375  43.600   4.200   0.890
20776W        W91376  28.198  31.885   0.751
20777W        W91377  19.140   1.985   4.075
20778W        W91378  27.662   1.553  14.933
20779W        W91379  38.349  20.535   3.305
20780W        W91380  34.847  28.462   2.625
20781W        W91381  14.786   1.713   3.142
20782W        W91382  35.958  43.283  12.650
20783W        W91383  27.111  31.486   3.861
20784W        W91384  33.918  13.285  12.683
20785W        W91385   4.773  40.290   5.023
20786W        W91386  26.620  14.436   0.872
20787W        W91387  42.456   4.188   2.181
20788W        W91388   4.542  18.237   1.735
20789W        W91389  22.535  16.769   0.344
20790W        W91390  23.935  30.609  13.982
20791W        W91391  16.547   6.337   3.299
20792W        W91392  12.770  23.634  14.929
20793W        W91393  19.498  14.706  12.858
20794W        W91394  11.487  14.243   0.544
20795W        W91395  44.652  10.995  10.376
20796W        W91396   3.490  35.329  12.946
20797W        W91397   0.284  23.701   4.382
20798W        W91398  28.884  31.431  14.515
20799W        W91399   6.391  20.350   1.696
20800W        W91400  16.543  43.779  14.531
20801W        W91401  13.554  31.883  12.077
20802W        W91402  37.153  19.255   0.176
20803W        W91403   3.354  12.270   1.674
20804W        W91404  30.859   3.853   2.388
20805W        W91405  25.214  30.504   1.335
20806W        W91406  30.993  39.544   3.177
20807W        W91407   5.934  40.927   1.698
20808W        W91408   8.157  21.002   1.390
20809W        W91409  13.954  41.624  10.765
20810W        W91410  34.161  21.070   2.752
20811W        W91411  18.366  31.416  13.405
20812W        W91412  41.957  27.711  13.886
20813W        W91413  32.507  12.897   0.922
20814W        W91414   9.709  40.899  11.912
20815W        W91415   9.394   5.531  12.247
20816W        W91416  12.104  12.674   3.257
20817W        W91417  32.631   9.735   4.637
20818W        W91418  25.083  27.749  14.112
20819W        W91419  26.471  42.126   0.239
20820W        W91420   9.481  43.995   4.729
20821W        W91421  28.450   7.210   2.819
20822W        W91422  22.182  27.442   4.520
20823W        W91423  39.950  35.787   2.397
20824W        W91424  41.376  23.006  11.602
20825W        W91425  28.534   7.606   4.463
20826W        W91426  33.988  30.633   4.102
20827W        W91427   2.213  36.752   4.069
20828W        W91428  32.144  10.722   2.360
20829W        W91429  13.260  18.888  11.523
20830W        W91430  13.091   8.457  11.181
20831W        W91431  24.668  40.909   0.887
20832W        W91432  31.621   6.497  13.385
20833W        W91433  10.850  17.410   4.350
20834W        W91434  36.806  33.405   5.015
20835W        W91435  11.930  23.503  13.358
20836W        W91436  39.956  31.548   1.015
20837W        W91437  27.425  23.034  11.826
20838W        W91438  36.362   3.512   4.748
20839W        W91439  26.181  39.946  11.634
20840W        W91440   1.521  29.557  14.467
20841W        W91441  41.483  29.488  12.089
20842W        W91442   8.682  27.579   3.731
20843W        W91443  42.344  40.945  13.370
20844W        W91444   5.000  31.691   0.531
20845W        W91445  17.830  39.984  13.671
20846W        W91446  36.281  29.613   0.334
20847W        W91447  11.723  25.810  14.885
20848W        W91448  28.051  21.677   2.231
20849W        W91449  14.180  23.275  14.914
20850W        W91450  30.429  17.889  11.556
20851W        W91451  36.858  34.920   3.092
20852W        W91452  29.661  23.236  14.373
20853W        W91453  38.831  25.062  12.873
20854W        W91454  33.196  39.322   2.408
20855W        W91455  39.081   0.134   0.648
20856W        W91456   6.325  43.259   1.607
20857W        W91457   6.627  21.683  10.486
20858W        W91458  12.653  11.856  11.141
20859W        W91459  21.298  24.967   2.761
20860W        W91460  26.713  13.312  14.804
20861W        W91461  26.499  17.210   1.002
20862W        W91462  34.380  44.927   4.508
20863W        W91463   1.424  16.268  13.290
20864W        W91464  14.661  22.302   0.743
20865W        W91465  24.649   8.098   0.904
20866W        W91466  44.384  39.592   0.387
20867W        W91467  14.337   1.772   3.828
20868W        W91468  14.125  43.964  10.715
20869W        W91469   5.156  19.624  10.728
20870W        W91470  41.998  17.787  12.020
20871W        W91471  31.487  14.364  13.259
20872W        W91472  18.777  44.817   1.399
20873W        W91473  37.450  19.547   1.482
20874W        W91474   0.434  33.313   1.832
20875W        W91475   6.036  12.077   3.767
20876W        W91476  43.986  24.682   1.918
20877W        W91477  28.104   2.720   1.256
20878W        W91478   0.978  27.447   4.740
20879W        W91479   8.636  37.520  14.848
20880W        W91480  33.179  44.995  13.026
20881W        W91481  25.127  37.483  11.627
20882W        W91482  10.137  30.845  11.671
20883W        W91483  27.103   1.859   4.697
20884W        W91484   8.791  31.163  11.670
20885W        W91485   2.007  31.332  11.559
20886W        W91486  14.280  15.624   4.496
20887W        W91487  37.157  36.891  13.954
20888W        W91488  32.349  17.596  12.593
20889W        W91489  11.837  31.065  13.312
20890W        W91490  40.053  41.431  11.024
20891W        W91491  37.750  27.190   3.797
20892W        W91492  40.984  33.122   0.023
20893W        W91493  23.276  11.124  11.587
20894W        W91494  24.517  44.780  14.841
20895W        W91495  14.376  26.620  14.039
20896W        W91496  41.710  37.779   2.778
20897W        W91497  19.665   2.960   4.576
20898W        W91498  22.744   1.457   4.577
20899W        W91499  23.409  42.866   9.618
20900W        W91500  12.011  16.255   3.888
20901W        W91501   4.292   7.453   3.194
20902W        W91502  22.332  41.911  11.482
20903W        W91503   5.875  37.909   2.131
20904W        W91504  19.126   7.209  10.529
20905W        W91505  16.927  27.825   4.041
20906W        W91506   2.874  15.187  11.428
20907W        W91507  20.780  13.342  14.817
20908W        W91508  40.766  35.875  11.001
20909W        W91509  13.293  15.360   0.495
20910W        W91510   0.243  13.772   2.249
20911W        W91511  24.994  40.463   4.544
20912W        W91512  39.270  27.014   3.801
20913W        W91513   6.776  27.521   4.099
20914W        W91514  27.859   5.177  14.501
20915W        W91515  20.485   3.416   4.110
20916W        W91516  10.201  22.050   0.756
20917W        W91517   8.820  13.279   3.123
20918W        W91518  14.432  18.589  14.389
20919W        W91519  29.448  13.344   2.848
20920W        W91520  23.762  24.292  12.578
20921W        W91521  32.179  36.999  10.981
20922W        W91522  35.170  30.071   1.821
20923W        W91523  36.259   0.350  11.248
20924W        W91524   7.889   6.863  14.556
20925W        W91525  39.810   3.066  13.528
20926W        W91526   2.191  13.705  12.977
20927W        W91527  30.675  23.698   2.794
20928W        W91528  25.996  30.496  11.574
20929W        W91529  22.192  20.375  11.509
20930W        W91530   5.246  20.464  12.492
20931W        W91531  24.251  33.170  12.947
20932W        W91532  17.846  21.220   3.227
20933W        W91533  38.986  20.738   3.340
20934W        W91534  40.915  19.565   2.605
20935W        W91535  42.995  21.754  13.959
20936W        W91536   2.000  29.567   0.735
20937W        W91537  42.493  44.081  13.594
20938W        W91538  34.003  20.691   4.365
20939W        W91539  22.301  41.016   4.471
20940W        W91540  14.134   1.202   0.898
20941W        W91541  26.944  11.160   2.805
20942W        W91542  10.876   2.712  13.152
20943W        W91543  25.968   1.286  12.395
20944W        W91544  23.627  32.612  12.606
20945W        W91545  23.129  40.337   0.464
20946W        W91546   2.195  33.714  11.920
20947W        W91547  16.118  17.340  10.192
20948W        W91548  37.974  15.520  11.238
20949W        W91549  25.499   2.055  13.588
20950W        W91550  24.078  24.057  10.935
20951W        W91551  18.629  42.587  12.894
20952W        W91552  43.240  37.947  12.399
20953W        W91553  34.005  42.403   3.639
20954W        W91554  28.966   0.502  10.315
20955W        W91555  19.801  36.893  11.086
20956W        W91556  21.669  12.426  11.622
20957W        W91557   1.848  38.175   5.015
20958W        W91558  44.108  23.173   1.115
20959W        W91559  18.794  19.597  13.348
20960W        W91560   6.486  37.399  11.017
20961W        W91561  30.884  38.891   2.208
20962W        W91562  23.923  38.540  14.924
20963W        W91563  27.926  16.007   4.565
20964W        W91564  28.183  23.031  11.643
20965W        W91565  30.924  10.153  11.965
20966W        W91566  40.075  21.124   0.052
20967W        W91567  41.503   4.748   0.935
20968W        W91568  11.721   3.487  10.670
20969W        W91569  25.474  19.803   0.869
20970W        W91570  42.298   9.841   2.212
20971W        W91571  16.337  28.096   0.795
20972W        W91572  41.560  20.368   4.907
20973W        W91573   9.949  14.888  14.543
20974W        W91574  33.907  18.700  10.492
20975W        W91575  26.512   3.744   4.154
20976W        W91576  31.951  31.497  12.053
20977W        W91577  18.094   6.291   4.551
20978W        W91578  14.625  34.708  12.033
20979W        W91579  27.889   5.512   2.887
20980W        W91580   1.306  20.828  12.538
20981W        W91581  39.330   2.546   4.469
20982W        W91582  26.700  24.419  11.587
20983W        W91583  42.357  13.663   4.419
20984W        W91584  25.894  41.530  12.170
20985W        W91585  33.203  21.782  11.658
20986W        W91586  27.806  22.651   4.306
20987W        W91587   8.349  25.566  12.465
20988W        W91588   1.537  29.041   1.456
20989W        W91589  11.567  16.676  13.496
20990W        W91590  17.548  20.587  10.708
20991W        W91591   4.466  23.523  13.396
20992W        W91592  14.003   0.342   0.745
20993W        W91593  27.188  18.985  11.564
20994W        W91594  26.713  28.199   2.736
20995W        W91595  15.311  18.515   2.392
20996W        W91596  34.502  42.455   3.844
20997W        W91597   9.714  19.771  14.066
20998W        W91598  39.489  22.519   3.260
20999W        W91599  32.811  35.952  11.218
21000W        W91600  43.836  35.437  13.873
21001W        W91601  20.267  15.974  13.384
21002W        W91602  15.483  12.578   4.223
21003W        W91603  20.125  20.054  12.096
21004W        W91604  31.877  26.125  14.085
21005W        W91605  35.452  23.624   3.128
21006W        W91606  32.646  32.110   4.087
21007W        W91607  20.162  39.477   2.217
21008W        W91608  13.872  37.548   1.785
21009W        W91609  13.513   8.776  13.051
21010W        W91610  32.464  25.878   2.313
21011W        W91611  27.926  33.057  12.610
21012W        W91612  26.674  11.205  12.890
21013W        W91613  16.954  43.301   4.614
21014W        W91614  30.952  41.918   3.505
21015W        W91615  17.156  36.472  11.779
21016W        W91616   2.180  39.881  11.763
21017W        W91617  29.307   9.552   1.761
21018W        W91618  21.148  30.837   2.788
21019W        W91619  38.698  14.910   3.386
21020W        W91620  39.044   7.725  11.152
21021W        W91621  35.567  16.321   3.220
21022W        W91622  31.423  34.349   0.923
21023W        W91623   5.860  29.317  14.041
21024W        W91624  40.438   2.184   2.307
21025W        W91625  14.231  27.281  12.419
21026W        W91626   4.248  15.109  12.010
21027W        W91627   1.836  17.125  12.032
21028W        W91628  42.016  10.757   0.007
21029W        W91629  22.966  26.299   1.200
21030W        W91630   7.315   5.190  13.845
21031W        W91631  29.569  11.680  14.881
21032W        W91632   2.739   2.925   0.450
21033W        W91633   2.860  41.368   1.156
21034W        W91634  17.074  22.770  10.625
21035W        W91635   2.513  43.314   1.931
21036W        W91636  25.922   9.747  13.302
21037W        W91637  36.072  33.315   1.140
21038W        W91638   6.036   5.910  11.129
21039W        W91639  41.937  17.883   5.752
21040W        W91640  44.923  23.652   0.651
21041W        W91641  34.698  28.625   3.708
21042W        W91642   0.539  11.659   3.214
21043W        W91643  33.015  18.665  10.613
21044W        W91644   8.633  16.986  11.284
21045W        W91645  22.940  36.846   4.083
21046W        W91646  14.216   8.846   4.429
21047W        W91647  14.618  32.334   1.269
21048W        W91648  18.100  30.455  14.803
21049W        W91649  43.438   1.803   3.150
21050W        W91650  32.012  44.256  14.014
21051W        W91651  25.983   0.623  10.135
21052W        W91652  33.135  10.855   2.893
21053W        W91653  30.485  24.402  10.742
21054W        W91654   4.627  25.124   2.174
21055W        W91655  30.527  21.210   0.166
21056W        W91656  14.806  16.053   1.661
21057W        W91657  35.567   4.674  13.093
21058W        W91658   1.358  18.872   0.405
21059W        W91659  44.086  36.085   0.202
21060W        W91660  42.939  32.989   2.217
21061W        W91661  39.651  31.921  10.819
21062W        W91662   6.706  14.906   3.759
21063W        W91663   7.347  32.503  11.461
21064W        W91664  25.039  41.854  10.500
21065W        W91665  11.753  13.423   0.147
21066W        W91666  30.806  34.718   3.568
21067W        W91667   2.294  10.334  13.890
21068W        W91668  37.620  16.111  12.026
21069W        W91669  37.635  15.746  10.921
21070W        W91670  26.094   2.988   0.102
21071W        W91671  24.011   4.354  12.451
21072W        W91672  19.230  23.019  13.915
21073W        W91673  32.521  41.438  12.664
21074W        W91674  29.619  26.045   3.544
21075W        W91675  23.704  39.610  12.385
21076W        W91676   6.427  41.930  11.326
21077W        W91677  25.715  34.428   4.286
21078W        W91678  42.807  33.094  14.409
21079W        W91679  10.121  20.194   1.417
21080W        W91680  29.978   3.391   2.015
21081W        W91681   3.203  27.782   3.651
21082W        W91682  37.125  10.538  14.677
21083W        W91683   6.988  42.937  14.932
21084W        W91684  19.484  38.953   0.851
21085W        W91685  23.224  13.685   2.207
21086W        W91686  14.726  15.114  12.919
21087W        W91687   8.913  31.501  12.420
21088W        W91688  16.598  11.730   0.683
21089W        W91689  30.705   9.877   2.285
21090W        W91690   7.750  32.330  11.175
21091W        W91691   4.946  13.842  13.585
21092W        W91692  16.075  35.457   0.190
21093W        W91693   6.690  26.928   0.766
21094W        W91694   8.230  17.540   1.458
21095W        W91695  21.831  41.035   0.275
21096W        W91696   5.758  15.138   4.069
21097W        W91697  30.401  35.497   4.833
21098W        W91698  24.287  11.856  11.437
21099W        W91699  20.216  31.105  13.230
21100W        W91700  44.868  19.428   2.342
21101W        W91701  27.056   0.915  11.184
21102W        W91702  32.995  36.442  14.382
21103W        W91703  41.249  41.937  12.877
21104W        W91704   4.177  29.745  11.100
21105W        W91705  44.992  38.847  14.023
21106W        W91706   7.390  24.514  10.711
21107W        W91707  32.900  25.797  13.347
21108W        W91708  22.491  38.005  11.025
21109W        W91709  42.693  23.454  14.410
21110W        W91710  44.786  18.503  12.654
21111W        W91711   3.495   1.284   4.735
21112W        W91712   3.219  31.672   0.218
21113W        W91713   3.944  25.003   2.873
21114W        W91714  17.413  24.098  12.076
21115W        W91715  25.301  19.031   4.982
21116W        W91716  38.354   7.752   1.491
21117W        W91717   6.967  29.004   2.778
21118W        W91718  14.859  23.039  14.263
21119W        W91719   4.183  28.933  12.289
21120W        W91720  19.209  18.560  11.190
21121W        W91721  11.282  35.956  13.461
21122W        W91722  41.676  10.340  13.903
21123W        W91723  42.778  41.013   2.800
21124W        W91724  10.398  30.679   0.371
21125W        W91725  41.893  34.071  12.396
21126W        W91726  22.609  28.775  13.524
21127W        W91727  29.063  26.988   0.026
21128W        W91728  17.274   2.715   0.700
21129W        W91729  40.105  23.542   0.861
21130W        W91730  18.085  26.695   1.356
21131W        W91731  10.765  37.432  14.520
21132W        W91732  32.175  20.206   3.239
21133W        W91733  34.359  25.687   1.090
21134W        W91734  32.671  43.759  11.347
21135W        W91735  21.931   3.249  14.246
21136W        W91736  44.663  27.841   5.134
21137W        W91737   4.022  42.857  11.484
21138W        W91738  28.122  21.267  10.030
21139W        W91739  20.079  31.981   1.142
21140W        W91740  22.058   2.709   2.688
21141W        W91741  42.051  41.381  13.295
21142W        W91742  11.002  12.240   3.770
21143W        W91743   4.903  31.208   0.350
21144W        W91744   8.348  24.729   4.703
21145W        W91745  25.552   4.428  14.808
21146W        W91746  18.887  34.905  11.606
21147W        W91747  12.663  19.237  14.396
21148W        W91748  44.254  15.702  10.778
21149W        W91749  43.329  30.778   5.015
21150W        W91750  30.541   8.980   3.335
21151W        W91751  29.213  11.676   0.426
21152W        W91752  10.443  28.577   5.004
21153W        W91753  35.014   0.047  11.741
21154W        W91754  32.540  19.187   1.258
21155W        W91755  21.111  16.814   1.410
21156W        W91756  42.871   2.714   2.809
21157W        W91757  25.678  28.620   4.499
21158W        W91758  41.753  29.565   3.330
21159W        W91759   4.244   2.979  14.284
21160W        W91760  31.938  26.666   0.430
21161W        W91761   4.679  24.744  12.232
21162W        W91762  30.955  42.032  12.024
21163W        W91763  27.032  32.641  14.881
21164W        W91764  24.535  39.912  14.342
21165W        W91765  40.505  37.415   1.622
21166W        W91766   7.197  26.437   5.330
21167W        W91767  43.790  34.508   3.310
21168W        W91768  24.186  28.998   3.454
21169W        W91769  29.473  14.920   0.294
21170W        W91770  20.506   0.829   4.160
21171W        W91771   4.682  24.639   2.382
21172W        W91772  36.877  37.738  13.918
21173W        W91773  10.204  32.962  10.221
21174W        W91774  32.408   4.934  13.326
21175W        W91775   7.252  23.434   0.511
21176W        W91776  14.689  32.883   4.297
21177W        W91777  42.109  12.304   0.858
21178W        W91778  12.798  19.586  12.984
21179W        W91779  38.405  37.862   2.697
21180W        W91780   6.792  36.257   3.249
21181W        W91781   7.650  34.669  13.390
21182W        W91782  29.370  36.807   3.165
21183W        W91783  16.337  39.039   4.302
21184W        W91784  27.859  38.939  14.600
21185W        W91785  17.757  36.255   4.056
21186W        W91786  25.347  44.242   4.174
21187W        W91787  19.152  18.206  13.413
21188W        W91788  30.873  26.167  13.854
21189W        W91789  10.941  13.254   2.074
21190W        W91790   2.842   9.975  13.081
21191W        W91791  44.794  11.381  13.397
21192W        W91792  28.153  20.305   1.906
21193W        W91793  27.464  36.118  10.763
21194W        W91794  30.950  31.132  10.645
21195W        W91795  33.033   1.494  13.373
21196W        W91796  35.170   3.881   0.877
21197W        W91797  37.612   2.385  13.317
21198W        W91798  18.650  32.449   3.540
21199W        W91799  24.202  32.138  11.943
21200W        W91800  32.406  44.205   0.316
21201W        W91801   3.157  42.948  10.807
21202W        W91802  39.026  41.957  14.300
21203W        W91803   8.202  38.366  12.380
21204W        W91804  28.471  21.145  12.822
21205W        W91805   9.269  13.985   4.414
21206W        W91806  24.487  31.511  14.109
21207W        W91807  22.811  22.317  12.156
21208W        W91808  41.531  29.593   3.810
21209W        W91809  35.855   4.235  12.011
21210W        W91810  34.126  39.351  13.373
21211W        W91811   8.183   1.643  12.372
21212W        W91812  19.340  36.446   0.309
21213W        W91813  16.014   2.433   3.205
21214W        W91814  16.485  14.066  14.431
21215W        W91815  10.139  14.050  11.169
21216W        W91816  37.030   7.747  11.628
21217W        W91817   3.251  19.811  12.851
21218W        W91818  29.495  32.684  10.968
21219W        W91819  28.706  26.897  12.102
21220W        W91820  18.233  13.634   3.849
21221W        W91821  38.474  30.194   2.939
21222W        W91822  40.265  15.713   3.658
21223W        W91823  16.992  37.945   2.279
21224W        W91824  36.384  42.402  13.076
21225W        W91825  44.474  25.093  11.891
21226W        W91826  13.868  34.443   4.518
21227W        W91827  23.481  29.047   4.422
21228W        W91828  26.664   0.882  12.009
21229W        W91829   5.107  38.817   3.865
21230W        W91830   7.128  17.211  14.843
21231W        W91831   4.439   5.689   1.773
21232W        W91832  30.082   3.014   1.376
21233W        W91833  37.892  33.683  12.939
21234W        W91834  36.507   3.349  10.167
21235W        W91835  22.663  19.225   2.425
21236W        W91836   8.869   4.404  12.888
21237W        W91837  10.089  17.202  10.691
21238W        W91838  18.204   8.926   4.802
21239W        W91839  40.373  33.118   2.630
21240W        W91840  37.162  15.741   3.804
21241W        W91841  42.016  42.897  12.136
21242W        W91842  20.633  31.447  14.966
21243W        W91843  24.260  28.895  11.071
21244W        W91844  21.878  13.816   4.277
21245W        W91845  36.809   5.262  14.010
21246W        W91846   4.721  19.078   2.761
21247W        W91847  31.309  16.051  14.405
21248W        W91848  13.696  21.706  11.471
21249W        W91849  38.872  23.656   3.931
21250W        W91850   2.679  31.615  13.789
21251W        W91851   9.926  28.403   3.257
21252W        W91852  26.255  16.072  12.896
21253W        W91853  44.717   7.742  11.091
21254W        W91854  15.430  44.160  12.026
21255W        W91855  42.368  13.396  10.686
21256W        W91856  38.848  31.660  12.516
21257W        W91857   5.884  33.874  12.973
21258W        W91858  41.474  41.372   1.761
21259W        W91859  35.302   7.713  13.061
21260W        W91860  10.764  16.483   0.357
21261W        W91861  41.011   8.674   1.534
21262W        W91862  40.082  41.312   4.711
21263W        W91863  24.637  19.640   2.866
21264W        W91864  21.671   3.733   2.855
21265W        W91865  30.675  18.076   2.329
21266W        W91866  41.311  24.171  12.551
21267W        W91867  39.085  26.363  12.489
21268W        W91868  22.572  40.258   4.103
21269W        W91869  40.816  31.125  12.627
21270W        W91870   6.421  10.719  13.707
21271W        W91871  41.360   4.193  10.604
21272W        W91872  21.547  14.113  11.163
21273W        W91873   8.474  38.849   2.811
21274W        W91874   8.839  43.566  12.507
21275W        W91875   7.237   9.306   0.660
21276W        W91876  36.124  11.902   9.697
21277W        W91877   9.961  42.523   0.806
21278W        W91878  31.122   6.728   1.466
21279W        W91879  16.654  12.638   2.141
21280W        W91880  11.977  22.960   3.298
21281W        W91881  17.295  20.188   2.833
21282W        W91882  12.706   4.310   4.841
21283W        W91883  40.293  31.091  11.738
21284W        W91884  44.341  25.351   9.925
21285W        W91885  15.189  34.777   3.521
21286W        W91886  38.894  29.260  13.533
21287W        W91887  13.886  34.573   5.017
21288W        W91888  39.351  41.327  14.849
21289W        W91889  15.351  40.492   1.727
21290W        W91890  34.315  43.827  12.433
21291W        W91891  23.516  37.775  13.804
21292W        W91892  22.074  23.468  10.425
21293W        W91893  14.338  43.336  11.530
21294W        W91894  10.215  40.286  12.986
21295W        W91895  12.074  16.192   1.264
21296W        W91896  14.987  13.081   4.628
21297W        W91897   4.875  41.073   2.754
21298W        W91898   7.144   9.822  13.811
21299W        W91899  12.643  31.729   3.244
21300W        W91900  14.717  38.305   2.772
21301W        W91901  18.661   1.851   3.984
21302W        W91902  30.010   0.938  11.559
21303W        W91903  32.652   0.180   1.668
21304W        W91904  31.632  12.131   3.651
21305W        W91905  19.624   3.702   3.234
21306W        W91906  17.406  28.645  11.836
21307W        W91907  42.218   2.925   4.605
21308W        W91908  32.785  36.023   3.149
21309W        W91909  32.832   5.380   4.138
21310W        W91910  13.169  17.157   4.821
21311W        W91911  18.420  32.934  13.854
21312W        W91912  26.687  18.967   4.348
21313W        W91913   3.092  37.080  12.930
21314W        W91914  18.280  13.111   4.583
21315W        W91915  37.128   7.795  14.466
21316W        W91916  44.095   6.095  13.746
21317W        W91917  22.414  24.913   0.809
21318W        W91918  33.085  20.277  14.523
21319W        W91919   1.139  13.879   0.313
21320W        W91920  14.328  39.102   2.683
21321W        W91921  35.663  16.287  12.489
21322W        W91922   8.942  34.342  12.479
21323W        W91923  23.285  41.815  13.047
21324W        W91924  21.874  16.827   0.908
21325W        W91925  35.844   3.528   4.914
21326W        W91926  12.702   7.134   1.696
21327W        W91927   2.442  38.620  14.361
21328W        W91928   0.224  19.172  11.884
21329W        W91929  42.810  10.373   4.586
21330W        W91930  17.788  19.629  12.891
21331W        W91931  21.144   6.748   2.600
21332W        W91932   8.896  35.304   2.390
21333W        W91933  16.081  13.109  13.807
21334W        W91934  17.504  38.496   3.455
21335W        W91935   5.409   8.339   0.452
21336W        W91936  37.009  21.768  11.387
21337W        W91937   5.806   2.257  11.577
21338W        W91938  29.113  41.804   2.187
21339W        W91939  22.946  22.130   1.862
21340W        W91940  21.010  34.455   0.809
21341W        W91941  31.475   6.601  12.478
21342W        W91942  14.118   3.030   1.223
21343W        W91943  22.856   6.751  11.019
21344W        W91944  16.764   0.464  12.749
21345W        W91945  38.255  41.983   1.722
21346W        W91946  22.021  40.742  13.954
21347W        W91947  15.576  10.372  12.834
21348W        W91948  40.509   7.303   0.218
21349W        W91949  29.139  10.779  14.984
21350W        W91950   2.993  41.945   2.419
21351W        W91951  42.027  37.332   1.722
21352W        W91952  14.562  39.741  10.755
21353W        W91953   8.821  18.848   1.816
21354W        W91954  15.840  36.339   0.008
21355W        W91955  22.476  25.102  12.629
21356W        W91956  35.292  36.635   3.755
21357W        W91957  20.930  28.735   1.914
21358W        W91958   3.897   3.406   1.102
21359W        W91959  23.661  16.467   0.365
21360W        W91960   7.849   8.903  14.692
21361W        W91961  43.235  30.158  13.782
21362W        W91962   5.060   4.540  14.951
21363W        W91963  26.048   3.774  10.705
21364W        W91964  22.844  13.262   0.007
21365W        W91965  17.563  29.629  10.964
21366W        W91966  30.910  15.192   3.579
21367W        W91967  33.280  14.390   1.526
21368W        W91968  33.538  39.458   4.620
21369W        W91969  33.937  15.855   2.358
21370W        W91970   3.472  43.941  11.190
21371W        W91971  26.172  26.973  12.386
21372W        W91972  29.091  18.344   0.965
21373W        W91973   2.151  19.411   9.817
21374W        W91974   8.360  24.002  11.142
21375W        W91975  23.060   6.938   1.741
21376W        W91976   3.808  19.853  14.334
21377W        W91977   9.696  35.814   0.920
21378W        W91978  33.672  20.690  10.778
21379W        W91979  26.089  44.761   4.321
21380W        W91980  26.523  35.018   4.537
21381W        W91981   7.677  44.148  11.141
21382W        W91982  27.207   8.714  11.878
21383W        W91983  29.406  22.328  11.044
21384W        W91984  35.077  22.867   9.988
21385W        W91985  38.868  16.692  10.429
21386W        W91986  22.591   4.278  14.284
21387W        W91987  27.440  31.201   0.923
21388W        W91988   6.619  13.599   1.371
21389W        W91989   7.415  23.031   3.736
21390W        W91990  30.349   7.172  13.422
21391W        W91991   4.678   3.875  14.401
21392W        W91992  31.506  32.332   1.277
21393W        W91993  43.477  23.109   3.091
21394W        W91994   7.964  21.003   1.873
21395W        W91995  33.815  23.484   1.411
21396W        W91996  34.324   3.763   0.667
21397W        W91997  13.392  30.671  14.846
21398W        W91998  33.556  22.476   3.802
21399W        W91999  25.500  13.045  13.971
21400W        W92000  38.562  30.301   1.070
21401W        W92001   2.923   3.632   1.955
21402W        W92002   6.568  42.640  11.377
21403W        W92003  31.004  41.441   3.306
21404W        W92004  44.400   0.717  12.867
21405W        W92005  37.491  34.414   1.907
21406W        W92006  40.578  41.507   4.625
21407W        W92007  43.430  39.438   4.424
21408W        W92008  16.116  10.819  11.376
21409W        W92009  26.166  11.301   3.254
21410W        W92010   2.663  38.474  13.310
21411W        W92011  31.094  31.389  14.848
21412W        W92012  38.851  18.277  13.899
21413W        W92013  34.254  38.447  13.336
21414W        W92014  24.538  27.903  11.188
21415W        W92015  33.513   3.481  12.012
21416W        W92016  30.591  23.735   1.325
21417W        W92017  13.806  33.959  11.651
21418W        W92018  19.661  31.844  12.049
21419W        W92019   2.709  11.398  13.423
21420W        W92020   8.953  29.964  13.481
21421W        W92021  33.013  11.203   0.536
21422W        W92022   4.414  36.871  13.345
21423W        W92023   8.846  42.473  14.294
21424W        W92024  40.153  10.166   0.975
21425W        W92025   6.383  18.789   1.796
21426W        W92026  19.970  33.294   3.383
21427W        W92027  42.350  14.110  11.748
21428W        W92028   4.601  32.886  11.267
21429W        W92029   4.773   6.800  14.718
21430W        W92030  21.120   7.374  12.943
21431W        W92031  20.293   0.404   1.933
21432W        W92032  20.339   1.377  13.578
21433W        W92033  44.580  32.670   4.180
21434W        W92034  17.651   6.977  11.055
21435W        W92035  31.338  21.692  12.116
21436W        W92036  23.487   1.880   1.696
21437W        W92037   2.271  38.395   4.313
21438W        W92038  42.430   3.134  13.386
21439W        W92039  12.182  21.196  12.224
21440W        W92040  13.334  33.035   3.743
21441W        W92041   5.968  19.598   2.833
21442W        W92042  24.799   7.858  12.097
21443W        W92043   4.388  12.594  12.283
21444W        W92044  24.442  16.175   1.404
21445W        W92045  34.200  13.580   0.860
21446W        W92046  42.443   4.422  12.941
21447W        W92047   7.808  11.856  13.817
21448W        W92048  28.095  42.513  11.597
21449W        W92049  12.209  10.430  14.462
21450W        W92050  19.158  24.311  13.282
21451W        W92051  27.672  34.366   0.271
21452W        W92052  23.477   6.087   0.802
21453W        W92053   3.005  41.580  11.700
21454W        W92054  29.480  38.268   0.749
21455W        W92055  15.122   7.291   4.127
21456W        W92056  22.997  31.237   1.746
21457W        W92057  36.715  16.407   2.743
21458W        W92058  26.402  21.867  14.899
21459W        W92059  30.638  36.311   1.372
21460W        W92060  23.177  31.195  11.162
21461W        W92061   2.742  42.428  14.535
21462W        W92062  14.831  39.736   1.888
21463W        W92063  11.289   1.412  10.641
21464W        W92064  43.466  37.606   4.085
21465W        W92065   4.923  43.552   2.887
21466W        W92066  15.640  10.193  13.816
21467W        W92067  25.417  24.775  12.072
21468W        W92068  42.351  16.082  12.558
21469W        W92069   7.735   9.251   4.327
21470W        W92070  18.292  42.245   4.262
21471W        W92071  32.352  20.172  13.358
21472W        W92072   1.200  14.698   4.926
21473W        W92073  20.177  17.331  11.557
21474W        W92074  15.251  13.508   4.463
21475W        W92075  19.229  19.724  10.564
21476W        W92076  27.702  12.747  12.058
21477W        W92077  25.187  21.959   1.163
21478W        W92078  18.720  24.607   1.151
21479W        W92079   1.829   3.920   0.741
21480W        W92080  42.513  20.194   2.709
21481W        W92081  20.124  41.724   0.523
21482W        W92082  42.206   4.176   2.646
21483W        W92083   2.042  22.292   4.105
21484W        W92084  19.618  37.696  11.583
21485W        W92085  38.563  17.513  13.505
21486W        W92086   5.080  32.951   3.148
21487W        W92087  24.514  30.167  11.077
21488W        W92088  35.137  34.627  12.449
21489W        W92089  39.807   8.465  11.219
21490W        W92090  14.087   2.299  14.358
21491W        W92091   0.846  37.969   2.181
21492W        W92092   1.272  44.590  13.919
21493W        W92093  17.305  29.491  14.386
21494W        W92094  21.489  13.104  11.099
21495W        W92095  37.957  26.699   2.521
21496W        W92096  43.518  34.086   4.070
21497W        W92097  21.260  34.137  11.924
21498W        W92098   5.340   1.254  13.843
21499W        W92099  27.927  19.791  13.321
21500W        W92100  27.965  14.034  14.574
21501W        W92101  32.408   6.343  12.625
21502W        W92102  29.071  19.636   4.222
21503W        W92103   7.199  21.410   0.517
21504W        W92104  25.406  32.747  13.603
21505W        W92105  39.117  21.207   3.085
21506W        W92106   7.389  15.373  12.125
21507W        W92107  13.696  19.159   0.447
21508W        W92108  35.801  42.493  11.142
21509W        W92109   9.109  26.054  10.959
21510W        W92110  30.625  37.618   0.362
21511W        W92111   7.105  24.513  14.908
21512W        W92112   2.529   6.390   3.181
21513W        W92113   1.969  41.992  14.549
21514W        W92114   7.231   2.908   3.608
21515W        W92115  17.121  12.524   1.855
21516W        W92116  40.373  14.285  14.486
21517W        W92117  15.391  12.363  14.493
21518W        W92118   1.914  43.193   3.240
21519W        W92119  18.288  23.063   2.875
21520W        W92120  38.983  42.904  13.342
21521W        W92121  28.770  35.304  12.510
21522W        W92122  40.428   5.368  12.427
21523W        W92123  36.131  20.685  12.571
21524W        W92124  11.542  19.654  14.415
21525W        W92125  17.058   8.647  12.517
21526W        W92126  20.079  35.646   0.494
21527W        W92127  14.765  32.482   3.099
21528W        W92128  32.431  28.391   2.311
21529W        W92129  10.373  18.169   4.856
21530W        W92130  27.738  29.138  10.712
21531W        W92131   3.910  22.037   0.694
21532W        W92132   5.982  23.383  11.235
21533W        W92133   2.404   5.673  10.630
21534W        W92134  18.204  23.737   1.638
21535W        W92135  20.266  26.636   2.366
21536W        W92136  33.589  29.247  14.322
21537W        W92137  26.115  15.637  14.731
21538W        W92138  31.998  16.822  10.581
21539W        W92139  11.655  17.495   4.034
21540W        W92140  17.585  24.150   2.443
21541W        W92141   4.836  21.592   3.102
21542W        W92142  34.846   5.118  11.425
21543W        W92143  16.479  18.264  12.383
21544W        W92144  25.805  30.454   1.909
21545W        W92145  16.153  27.009  14.846
21546W        W92146  21.981  25.128   1.550
21547W        W92147  22.807  35.371   3.217
21548W        W92148  22.179  35.357   4.057
21549W        W92149  39.110  32.138  13.533
21550W        W92150  42.898   2.257  12.637
21551W        W92151  24.381  40.873  13.482
21552W        W92152   3.388   6.353   4.260
21553W        W92153  35.139   4.385   2.541
21554W        W92154   0.832  20.992  13.776
21555W        W92155  18.537  42.956   1.794
21556W        W92156   6.913  34.328  10.954
21557W        W92157  33.029  22.999  13.349
21558W        W92158  13.605   1.106  11.583
21559W        W92159  27.719  30.517  11.679
21560W        W92160  12.282  11.670  13.889
21561W        W92161  29.091   6.129  14.942
21562W        W92162  23.853   8.775  10.500
21563W        W92163   6.329  14.867   0.724
21564W        W92164   8.206   0.878   2.163
21565W        W92165  36.781   0.572   4.559
21566W        W92166   2.325  36.152  14.322
21567W        W92167  32.083   6.200  14.436
21568W        W92168  22.613  15.662  13.649
21569W        W92169   7.588  41.978   2.486
21570W        W92170  40.626  37.992   0.931
21571W        W92171  11.154   7.838   0.813
21572W        W92172  14.467  38.494   2.347
21573W        W92173  11.446  26.138  13.456
21574W        W92174  15.918   3.216  11.949
21575W        W92175  44.656  40.409   0.008
21576W        W92176  20.542  44.341  10.112
21577W        W92177   0.414  14.615   3.409
21578W        W92178  15.559  18.152  12.420
21579W        W92179  34.893   9.806   1.259
21580W        W92180  39.821   8.668  13.585
21581W        W92181  33.522   2.275   3.132
21582W        W92182  43.627  24.045  13.743
21583W        W92183  36.649  17.377  14.405
21584W        W92184  23.998  24.765   0.522
21585W        W92185  17.328   6.500  11.057
21586W        W92186  43.302  15.315   3.830
21587W        W92187  10.790  28.992   0.182
21588W        W92188  33.043  44.979   0.348
21589W        W92189  38.123  26.216   0.357
21590W        W92190  35.612  33.112   2.861
21591W        W92191  32.856   9.625  12.395
21592W        W92192  19.087  32.370   3.800
21593W        W92193   0.114   6.895  12.637
21594W        W92194  12.941  27.073   1.674
21595W        W92195  34.280  24.344   4.122
21596W        W92196  43.113  34.608  12.483
21597W        W92197  30.155  21.162  10.720
21598W        W92198  27.434   4.280  13.787
21599W        W92199  15.107  35.481   0.855
21600W        W92200  23.920  14.066   2.650
21601W        W92201  34.946   4.391   4.649
21602W        W92202  38.739  25.035   0.197
21603W        W92203  10.230   9.091  12.410
21604W        W92204  26.543   5.707  12.836
21605W        W92205  11.797  23.564  14.373
21606W        W92206  35.402  11.153   1.806
21607W        W92207  13.117  43.977  13.786
21608W        W92208  20.753  18.289  10.760
21609W        W92209  13.838  36.341  12.861
21610W        W92210   5.671  23.098   3.662
21611W        W92211  41.864  28.490   1.735
21612W        W92212  15.128  14.738   4.153
21613W        W92213  28.610  12.272  12.479
21614W        W92214  12.697  29.486  12.021
21615W        W92215  33.059  40.953  13.941
21616W        W92216  40.816  28.889   4.432
21617W        W92217  23.487  21.163   3.590
21618W        W92218  28.027  27.723  12.919
21619W        W92219  25.112  28.912  12.896
21620W        W92220   0.705   5.004   3.188
21621W        W92221   6.224   1.936  11.625
21622W        W92222  19.075  11.037  14.452
21623W        W92223  21.409   5.185  12.897
21624W        W92224  12.670  19.790   2.553
21625W        W92225  19.230  14.102   2.935
21626W        W92226   8.819  37.079  13.907
21627W        W92227  14.624   9.195   4.424
21628W        W92228  26.091  39.304   1.168
21629W        W92229  18.134  36.852   3.432
21630W        W92230  20.202  34.558   0.371
21631W        W92231  11.678  41.715   1.987
21632W        W92232  10.467  37.737   0.714
21633W        W92233  22.599  33.989   2.698
21634W        W92234   9.776  15.750   0.890
21635W        W92235  43.494  31.925   3.750
21636W        W92236  15.636  31.220   2.362
21637W        W92237  24.282  10.261  12.840
21638W        W92238  35.503  37.750   2.315
21639W        W92239  12.235   7.015  14.359
21640W        W92240  30.620   6.741  11.541
21641W        W92241  16.052  17.243  12.963
21642W        W92242  19.657  44.413  13.634
21643W        W92243  27.123  17.510   2.634
21644W        W92244  20.040  33.831  10.508
21645W        W92245  31.663  37.674  12.935
21646W        W92246   7.272  37.673  10.373
21647W        W92247  34.461  25.105   4.557
21648W        W92248  15.657  29.109  13.886
21649W        W92249  13.353  33.979  10.506
21650W        W92250  43.731  35.968  13.310
21651W        W92251   2.847  35.175  10.398
21652W        W92252  17.244  17.176  14.839
21653W        W92253  43.448  38.959   2.332
21654W        W92254   5.209   3.550   1.678
21655W        W92255  43.088  12.786  11.182
21656W        W92256  34.576  30.190  10.714
21657W        W92257  28.537  44.832  10.854
21658W        W92258  36.042   6.902  14.939
21659W        W92259   7.698  43.692   2.639
21660W        W92260   9.132  15.662  13.545
21661W        W92261  44.659  43.023  14.360
21662W        W92262  31.490   5.155   1.943
21663W        W92263   0.671  43.301  11.509
21664W        W92264  22.704  10.767  11.235
21665W        W92265  27.715  30.587   0.402
21666W        W92266  41.696  31.112  13.584
21667W        W92267  35.521  28.442   1.435
21668W        W92268  35.274   4.765  14.592
21669W        W92269  28.409  27.737   1.035
21670W        W92270   7.884  37.613  11.055
21671W        W92271  33.446   2.820  13.866
21672W        W92272   7.156  29.763  13.410
21673W        W92273  19.213  35.048  13.818
21674W        W92274   2.754  23.532  14.559
21675W        W92275  28.421  20.218  14.869
21676W        W92276  19.924  30.950   2.225
21677W        W92277  35.569   3.854   0.492
21678W        W92278  20.545  22.115   0.494
21679W        W92279  28.883  36.992  12.998
21680W        W92280  14.949  12.093   1.852
21681W        W92281  29.051  29.090   1.264
21682W        W92282  20.666  13.324  10.737
21683W        W92283  34.614  18.178   1.920
21684W        W92284  29.625  44.882   3.682
21685W        W92285  23.506  12.858   4.044
21686W        W92286  40.273  14.595  14.927
21687W        W92287  33.011   8.260   3.048
21688W        W92288  32.498  26.543   0.737
21689W        W92289  18.692  23.706  12.169
21690W        W92290  44.902  20.834   3.369
21691W        W92291  40.978  16.581   1.292
21692W        W92292  36.332  17.735   4.796
21693W        W92293  42.745  27.695  11.571
21694W        W92294  41.105  11.412  12.399
21695W        W92295   9.356   8.811   3.847
21696W        W92296  27.954   7.715   3.198
21697W        W92297   5.471  24.528  11.530
21698W        W92298  15.712  13.626   2.350
21699W        W92299  38.942  36.429   2.936
21700W        W92300  28.456  36.640   0.705
21701W        W92301  38.918  25.985  14.452
21702W        W92302  27.111  30.006   1.827
21703W        W92303   4.688  16.831   1.748
21704W        W92304  26.525  41.865   4.464
21705W        W92305  25.099  18.118   4.619
21706W        W92306   5.970   5.358  11.147
21707W        W92307  38.149  30.421   0.777
21708W        W92308  11.184  23.202   2.848
21709W        W92309  11.748  19.145   2.814
21710W        W92310  11.567  35.034   2.647
21711W        W92311  39.328  31.452   4.426
21712W        W92312  19.276  22.730   1.779
21713W        W92313  24.660  42.439  14.571
21714W        W92314  29.177  40.026  12.734
21715W        W92315  36.771  41.310   2.373
21716W        W92316  43.368  22.742  14.579
21717W        W92317  24.798  36.681  11.104
21718W        W92318  17.483  25.579  12.809
21719W        W92319  11.359   5.386   3.761
21720W        W92320  37.877  35.892   3.688
21721W        W92321  38.481   9.121  14.892
21722W        W92322   4.347   0.306   0.703
21723W        W92323  15.121  35.346   0.247
21724W        W92324  30.936  43.385   2.695
21725W        W92325  41.832  43.320  11.915
21726W        W92326  42.702  44.505   1.667
21727W        W92327   0.173   4.547   2.422
21728W        W92328  39.742  39.773  11.844
21729W        W92329  18.525   2.836  14.906
21730W        W92330  21.141  11.670   0.407
21731W        W92331  36.897  40.953  11.066
21732W        W92332  32.914  19.395  14.462
21733W        W92333  19.074   2.716   0.399
21734W        W92334  19.536  36.437  12.071
21735W        W92335  37.724   0.977  10.691
21736W        W92336  20.689   4.659   2.387
21737W        W92337  13.888   6.942  12.915
21738W        W92338  18.735  19.548  12.833
21739W        W92339  33.496  38.019  14.666
21740W        W92340  28.174  20.371  10.592
21741W        W92341  14.619  27.543  14.390
21742W        W92342  23.110   5.247   2.948
21743W        W92343  15.165   6.445   4.629
21744W        W92344   8.964  37.462  10.632
21745W        W92345  27.468   2.439  12.675
21746W        W92346   6.958   9.566   3.676
21747W        W92347  40.277   9.179  13.559
21748W        W92348  19.763  41.563   1.352
21749W        W92349  37.853   6.234  14.841
21750W        W92350  10.421  14.189  12.068
21751W        W92351   2.583  30.945  12.974
21752W        W92352  14.850  40.518   3.700
21753W        W92353  24.983  40.731   1.252
21754W        W92354  12.507  24.883  13.096
21755W        W92355  32.075  22.518   0.366
21756W        W92356   0.084  41.349   1.800
21757W        W92357  20.655  17.392   2.770
21758W        W92358  28.807  19.080   0.175
21759W        W92359  32.616  18.148  10.843
21760W        W92360  40.891  34.745  14.991
21761W        W92361  15.734  29.820   4.194
21762W        W92362  21.950   1.669  12.575
21763W        W92363   1.431   9.224   1.378
21764W        W92364  11.196  15.865   3.076
21765W        W92365   6.404  34.743   5.134
21766W        W92366   4.767   0.405   1.426
21767W        W92367   4.061  30.557   1.057
21768W        W92368  10.831   4.531   3.621
21769W        W92369  17.561   6.729   3.670
21770W        W92370  21.550  43.743  13.264
21771W        W92371  16.027  38.341   3.554
21772W        W92372   0.195  39.043  10.306
21773W        W92373  29.710   9.293  14.289
21774W        W92374  15.446  34.476  13.813
21775W        W92375  11.549  32.337  10.941
21776W        W92376   7.040  17.758  12.416
21777W        W92377  15.158  22.986  11.118
21778W        W92378  39.035   5.877   3.687
21779W        W92379   2.697   3.350  13.399
21780W        W92380  11.432  43.306  12.464
21781W        W92381  36.235   0.251   1.878
21782W        W92382  27.719  14.832   3.813
21783W        W92383  19.985  40.270  11.935
21784W        W92384   0.196   4.281   2.891
21785W        W92385   7.668  32.993   4.384
21786W        W92386   9.933  31.332  11.510
21787W        W92387   1.262  32.127  10.761
21788W        W92388  39.008   4.373   3.592
21789W        W92389   5.448  44.705  12.363
21790W        W92390   9.346  21.594  13.868
21791W        W92391  29.341   1.800  13.886
21792W        W92392  33.387  21.620  10.914
21793W        W92393  33.102  22.530   4.673
21794W        W92394  25.944  31.312  13.744
21795W        W92395  13.283  12.270   4.589
21796W        W92396  19.027   9.211   3.679
21797W        W92397  17.797  34.976  12.367
21798W        W92398  27.643  17.810   0.734
21799W        W92399  31.912  20.580   0.391
21800W        W92400  42.565   1.296   3.230
21801W        W92401  38.288  29.411   1.618
21802W        W92402  25.593  13.647  13.119
21803W        W92403  17.438   4.525   0.011
21804W        W92404  43.873   6.383   0.255
21805W        W92405  10.180  33.857   0.307
21806W        W92406  22.256  30.028   0.863
21807W        W92407  16.339   0.929   4.539
21808W        W92408   0.729  19.041  12.573
21809W        W92409  24.571   1.508   4.290
21810W        W92410  38.896  20.526   2.595
21811W        W92411  13.583   4.068  11.564
21812W        W92412  26.999   9.901  11.151
21813W        W92413  27.170   9.248   1.465
21814W        W92414  14.135  36.601  12.525
21815W        W92415  33.498  32.874   3.010
21816W        W92416  44.278  41.165  14.863
21817W        W92417  32.534   8.109  11.166
21818W        W92418  14.811   1.761   1.334
21819W        W92419  18.196   3.715  13.313
21820W        W92420  30.857  23.814  14.778
21821W        W92421  17.052  14.882  12.659
21822W        W92422  13.469  14.738  11.593
21823W        W92423  36.437  30.065   0.536
21824W        W92424   6.366  26.238   4.858
21825W        W92425   1.973   2.831  12.519
21826W        W92426  29.150  22.162   4.125
21827W        W92427  29.350  41.602   0.895
21828W        W92428  11.441  17.653  10.682
21829W        W92429  40.381   2.890  11.942
21830W        W92430  26.381  32.117  14.806
21831W        W92431  10.818  19.111  12.876
21832W        W92432   9.207   8.311  13.568
21833W        W92433  12.878  35.672  12.451
21834W        W92434  23.781   8.944   0.428
21835W        W92435  34.502  33.023  11.183
21836W        W92436  40.099  44.829  11.166
21837W        W92437  10.537  40.988  14.296
21838W        W92438  28.499   4.985  13.931
21839W        W92439  15.083  34.830  11.599
21840W        W92440  31.845  32.673  11.527
21841W        W92441  31.495  24.314   0.246
21842W        W92442  20.095  41.957   4.323
21843W        W92443  15.075  34.840  13.824
21844W        W92444   1.753  40.067   1.573
21845W        W92445   6.202  12.167   4.575
21846W        W92446   6.457   1.761  10.040
21847W        W92447  12.609   8.599   0.855
21848W        W92448  41.872  31.011  14.820
21849W        W92449  14.386  29.123   0.786
21850W        W92450   2.932  17.524   1.904
21851W        W92451  44.591  10.647  11.230
21852W        W92452  20.487  38.923   0.663
21853W        W92453  14.395  22.723   0.502
21854W        W92454   0.857  41.011  12.163
21855W        W92455  35.619  13.726   1.770
21856W        W92456  28.045  31.557  14.066
21857W        W92457  14.387  38.235   3.191
21858W        W92458  11.873  30.854  12.383
21859W        W92459   2.682  12.885  11.759
21860W        W92460  30.857  13.154   3.013
21861W        W92461  15.224  41.088  10.685
21862W        W92462   9.925   4.670  13.595
21863W        W92463  29.115   7.454  10.762
21864W        W92464   6.239  32.331   1.007
21865W        W92465  21.809  35.805  14.467
21866W        W92466   5.439  24.057  14.445
21867W        W92467  36.439  18.535  11.950
21868W        W92468   1.589  13.660   4.128
21869W        W92469  30.982  28.925   1.715
21870W        W92470  38.008  14.067  13.391
21871W        W92471  34.809   0.661   0.450
21872W        W92472   5.476  24.501   0.285
21873W        W92473  42.715  38.329   2.353
21874W        W92474  32.528   3.276   0.491
21875W        W92475   0.523  42.481  14.215
21876W        W92476  25.912  28.499  14.216
21877W        W92477  44.814  14.764   1.082
21878W        W92478  32.818  43.889  10.838
21879W        W92479   6.188   8.808   2.427
21880W        W92480  39.251  39.036  10.599
21881W        W92481   1.295   7.899   3.253
21882W        W92482  18.375  24.578   3.702
21883W        W92483  43.554  11.826  12.191
21884W        W92484  28.998  39.901   0.567
21885W        W92485  16.871  15.962   2.659
21886W        W92486  24.228  16.635  14.514
21887W        W92487  25.168  12.522  12.521
21888W        W92488  29.510   7.190  10.565
21889W        W92489  33.499  19.730  12.554
21890W        W92490  33.451   3.308   4.329
21891W        W92491   8.129  30.063  14.966
21892W        W92492  31.010  44.420  10.727
21893W        W92493   5.367  26.004   0.452
21894W        W92494  21.229  10.150   2.729
21895W        W92495  41.400  19.136  12.045
21896W        W92496   9.864  37.382  12.669
21897W        W92497  44.400  24.324   0.530
21898W        W92498  30.541  22.293   4.655
21899W        W92499  17.145  23.687  14.505
21900W        W92500  23.058  34.117  13.434
21901W        W92501  39.270  14.239  10.368
21902W        W92502  36.098  33.693   1.689
21903W        W92503  33.002   8.031  13.855
21904W        W92504   8.561   1.319  11.438
21905W        W92505   6.770  23.202   1.260
21906W        W92506  17.517  40.005   0.953
21907W        W92507  29.602  44.033   4.172
21908W        W92508  28.544  14.134   1.198
21909W        W92509  26.633  31.903   2.334
21910W        W92510  10.429  35.409  14.056
21911W        W92511  43.850   2.487   2.248
21912W        W92512   5.984  35.346  13.951
21913W        W92513  42.806  25.028  13.660
21914W        W92514  14.117  30.382  12.400
21915W        W92515  34.541   1.425   0.084
21916W        W92516  24.626  41.982  12.387
21917W        W92517  19.581  37.885   4.598
21918W        W92518  23.619  40.782   0.851
21919W        W92519  34.929  35.046  11.578
21920W        W92520  18.789  22.977   1.533
21921W        W92521  28.460  26.238   1.271
21922W        W92522  13.245  31.067  14.442
21923W        W92523  35.295  30.585   1.238
21924W        W92524  24.801   8.743  12.053
21925W        W92525  44.007  44.745  11.099
21926W        W92526  40.939  13.821   4.596
21927W        W92527  41.784  21.627  14.294
21928W        W92528   8.151  38.497  14.303
21929W        W92529  33.473  27.838   4.581
21930W        W92530  34.286  11.183  14.927
21931W        W92531  33.371  27.145   1.033
21932W        W92532  15.628  43.754  13.479
21933W        W92533  25.449   4.329   0.436
21934W        W92534  22.984  23.874   1.703
21935W        W92535  37.531  22.482   0.341
21936W        W92536  24.651  25.185  10.396
21937W        W92537  29.689  30.968  10.967
21938W        W92538   7.688   4.817  10.262
21939W        W92539  25.804  15.903   3.215
21940W        W92540  20.860  30.625   3.166
21941W        W92541  41.472  31.690   1.923
21942W        W92542   8.220  16.040   3.433
21943W        W92543  22.753  18.592  12.763
21944W        W92544  29.430  37.464  12.350
21945W        W92545  35.149   6.046   4.986
21946W        W92546  32.465  44.461  13.451
21947W        W92547   4.203  30.532   0.552
21948W        W92548  31.655   5.736  14.909
21949W        W92549  25.552  26.316  12.167
21950W        W92550   9.835  26.664  11.603
21951W        W92551   6.207  34.987   3.263
21952W        W92552  38.428  15.575  12.477
21953W        W92553  31.647  19.169   2.350
21954W        W92554   1.323  33.630  11.824
21955W        W92555  17.181  28.649   4.058
21956W        W92556   7.296  34.953  10.734
21957W        W92557  13.796   3.747  13.373
21958W        W92558   7.223   5.271  10.897
21959W        W92559   0.837  10.910  12.421
21960W        W92560   5.968  20.496   4.300
21961W        W92561  36.534  27.250  12.867
21962W        W92562  34.283  12.501  11.092
21963W        W92563  16.193  42.035   3.579
21964W        W92564  33.873  35.593  12.063
21965W        W92565   1.767  40.088  11.471
21966W        W92566  31.223  25.961   3.875
21967W        W92567  27.908  20.235  12.969
21968W        W92568  31.055  36.521   3.687
21969W        W92569  17.296  12.564  10.617
21970W        W92570  34.482  17.099  12.508
21971W        W92571   9.103  37.017   0.717
21972W        W92572  36.631   6.401   0.273
21973W        W92573   7.350  43.328  14.998
21974W        W92574  20.963   3.511   3.217
21975W        W92575  29.766   2.756   3.229
21976W        W92576   8.962   8.185   0.777
21977W        W92577  37.294  12.693  14.761
21978W        W92578  44.426  42.734   4.870
21979W        W92579  25.431  19.313  10.882
21980W        W92580  27.887  22.811   0.286
21981W        W92581  41.005  39.848   0.183
21982W        W92582  22.746   3.858  10.917
21983W        W92583  33.938  25.019   3.117
21984W        W92584  29.535   7.313  11.082
21985W        W92585  35.249   5.637  13.797
21986W        W92586  22.654  19.266   2.921
21987W        W92587  38.452  22.665   1.208
21988W        W92588   2.248  21.978  10.770
21989W        W92589  10.420  30.332  14.602
21990W        W92590  23.142  44.497  12.074
21991W        W92591  32.963   1.038  12.959
21992W        W92592  33.151  20.135  12.470
21993W        W92593  10.786   3.052   3.749
21994W        W92594  15.054  41.045  14.498
21995W        W92595  22.560  21.946  14.290
21996W        W92596  39.698  42.685  13.824
21997W        W92597  41.743  16.336  11.075
21998W        W92598   1.290  25.021  12.891
21999W        W92599   3.002  10.117   4.802
22000W        W92600  17.597   9.182   2.484
22001W        W92601   1.839   3.066   1.359
22002W        W92602  33.971   3.816   2.838
22003W        W92603  33.419  23.056  14.106
22004W        W92604  10.897  24.299   3.548
22005W        W92605   1.553   8.400  14.229
22006W        W92606  20.935  15.625  13.195
22007W        W92607   9.146  39.081   2.227
22008W        W92608  15.288  26.677   1.354
22009W        W92609  25.183  41.137  14.355
22010W        W92610  24.770   5.596   1.998
22011W        W92611  34.389  36.216  12.811
22012W        W92612  34.602  12.681   2.323
22013W        W92613  32.093  36.056  10.461
22014W        W92614   9.155  21.634   2.173
22015W        W92615  40.869   9.932   3.290
22016W        W92616   2.524  20.690  10.559
22017W        W92617   4.267   5.884  10.495
22018W        W92618  22.658  17.863  11.134
22019W        W92619  17.179  34.464  14.724
22020W        W92620  34.883  38.678   0.743
22021W        W92621  36.982  23.911  14.885
22022W        W92622  25.167  40.365  13.047
22023W        W92623  41.935   4.250   2.217
22024W        W92624  11.372  33.705   1.915
22025W        W92625  27.880  25.032   2.320
22026W        W92626  21.085   9.769   1.809
22027W        W92627  40.099  24.508  12.253
22028W        W92628  31.040  10.813  12.566
22029W        W92629  13.304  10.940   0.319
22030W        W92630  24.291   9.028   4.994
22031W        W92631  36.865  31.635   2.734
22032W        W92632  14.857  12.797   3.514
22033W        W92633  19.216  16.629   3.291
22034W        W92634  43.926  35.412   0.083
22035W        W92635  40.800  30.628  12.098
22036W        W92636  27.289  28.049  11.232
22037W        W92637   3.672  27.127   3.306
22038W        W92638  32.678  40.582   3.219
22039W        W92639  35.012  14.220   2.072
22040W        W92640  33.445  38.252   0.948
22041W        W92641  11.257  25.906   0.400
22042W        W92642  12.595  28.802   2.978
22043W        W92643  19.283  15.950  14.823
22044W        W92644  40.138   1.350   4.496
22045W        W92645  17.066   0.949   3.225
22046W        W92646  36.400  39.347  12.959
22047W        W92647   6.749  42.895   4.312
22048W        W92648  40.159  25.577   3.445
22049W        W92649   6.583  22.015  12.950
22050W        W92650   0.238  24.038   1.361
22051W        W92651  27.944  42.438  13.944
22052W        W92652  21.083  40.969  11.449
22053W        W92653  43.568  16.129  13.545
22054W        W92654  14.194  28.675   0.500
22055W        W92655  27.704  19.878  12.432
22056W        W92656  22.131  24.734   1.242
22057W        W92657  44.814   8.837   3.320
22058W        W92658  28.031  30.780   2.615
22059W        W92659   0.579  43.865   1.321
22060W        W92660  19.031  11.847  13.318
22061W        W92661  15.237   7.628   0.954
22062W        W92662   4.988   1.843  14.735
22063W        W92663  25.040  17.786  12.617
22064W        W92664  36.489  12.726   9.742
22065W        W92665  27.460  42.743   0.008
22066W        W92666  16.094  16.871   4.106
22067W        W92667  32.993  42.550  12.968
22068W        W92668   1.205  24.083  13.047
22069W        W92669  30.637   1.215   1.280
22070W        W92670   9.565   3.729   2.958
22071W        W92671  21.113  39.099   0.700
22072W        W92672  34.781  30.546   5.002
22073W        W92673   0.232  28.546  13.028
22074W        W92674   5.220   3.693  12.471
22075W        W92675  19.237  27.630   0.197
22076W        W92676   1.258  18.522  12.066
22077W        W92677  34.909  40.766   3.296
22078W        W92678  14.581  44.472   3.729
22079W        W92679  37.224  37.651   3.137
22080W        W92680  43.615  26.020  10.845
22081W        W92681  13.876   8.199   0.448
22082W        W92682  19.288  21.279  10.505
22083W        W92683  43.533  17.517   3.864
22084W        W92684  12.117   9.302  11.123
22085W        W92685   9.735  13.374  12.801
22086W        W92686  40.308  44.827   4.107
22087W        W92687  31.106  34.162  14.376
22088W        W92688  19.935   4.670  14.466
22089W        W92689  20.750  25.617  13.001
22090W        W92690  43.911  26.736  13.538
22091W        W92691   9.702  39.861   3.997
22092W        W92692   5.307   3.003   1.706
22093W        W92693  32.471  27.540   0.932
22094W        W92694  14.105   2.348  13.529
22095W        W92695  29.563  26.385   3.124
22096W        W92696   7.745   7.355   4.080
22097W        W92697  10.254   6.736  10.630
22098W        W92698  31.377  21.151  14.254
22099W        W92699  13.644  27.217   4.202
22100W        W92700  16.473  42.058   1.740
22101W        W92701  35.651   5.999  11.539
22102W        W92702  22.676   4.462   4.166
22103W        W92703   6.128  37.398   4.807
22104W        W92704  19.028  31.886  11.476
22105W        W92705  32.364  24.959   2.465
22106W        W92706  13.244  31.228  13.558
22107W        W92707  13.545   5.916   4.941
22108W        W92708  21.744  25.462  11.576
22109W        W92709  31.811   6.813  14.853
22110W        W92710  40.597  13.738  12.859
22111W        W92711  27.634  10.430  14.765
22112W        W92712  29.056   8.402   4.930
22113W        W92713  17.781  16.788   2.394
22114W        W92714  12.716  40.062   3.180
22115W        W92715  15.928  31.651   2.380
22116W        W92716  37.147  10.782   3.124
22117W        W92717  36.438  40.377  11.614
22118W        W92718  18.680  27.629   3.635
22119W        W92719  43.008  43.839  14.293
22120W        W92720  14.360  19.407  13.066
22121W        W92721  27.929  41.266  10.975
22122W        W92722  18.758  36.343  13.619
22123W        W92723  31.514  27.138  11.178
22124W        W92724  16.810  43.534   4.161
22125W        W92725  36.070  16.156   4.052
22126W        W92726  10.368  26.565  12.549
22127W        W92727  29.070  20.131   3.744
22128W        W92728  11.085  41.782   1.343
22129W        W92729  27.550  23.623  10.711
22130W        W92730  29.580   6.260  13.109
22131W        W92731  25.497  31.883   1.450
22132W        W92732  25.713  32.136  11.120
22133W        W92733  33.131  13.633   0.855
22134W        W92734  41.256   9.271  11.828
22135W        W92735  24.812  33.876  14.765
22136W        W92736  12.882   2.293   0.659
22137W        W92737  14.333   8.288  11.769
22138W        W92738   1.741  27.549  11.520
22139W        W92739  32.946  42.348   2.368
22140W        W92740  14.834  35.201   3.623
22141W        W92741  12.696   9.251   2.017
22142W        W92742  40.454  44.029  13.983
22143W        W92743  38.797  31.988  10.587
22144W        W92744  10.367  17.482   3.236
22145W        W92745  42.063  17.790  14.359
22146W        W92746   7.672  10.550  11.258
22147W        W92747  37.345  20.917  14.879
22148W        W92748   8.184  35.351  13.077
22149W        W92749   1.944   3.720  13.732
22150W        W92750  42.807  33.164  13.522
22151W        W92751  44.626  33.393  12.077
22152W        W92752  29.112  13.467  13.085
22153W        W92753  23.971  34.897  10.795
22154W        W92754  23.818  24.436   2.718
22155W        W92755  20.991  43.562  14.372
22156W        W92756  21.136  28.153   4.324
22157W        W92757  38.884  15.166   0.213
22158W        W92758  19.124   1.673   1.403
22159W        W92759  36.570  21.518  10.667
22160W        W92760  11.612  29.695   1.648
22161W        W92761  43.703  36.762   3.733
22162W        W92762  43.405  11.759   1.908
22163W        W92763  17.077   6.208  10.661
22164W        W92764  37.414  23.674  14.733
22165W        W92765  43.686  42.790  14.412
22166W        W92766  11.261   3.408  12.500
22167W        W92767   2.745  29.474  13.373
22168W        W92768  38.096  44.928  12.949
22169W        W92769  22.424  14.375   3.183
22170W        W92770  34.569   2.826  14.453
22171W        W92771  12.237  31.881   4.557
22172W        W92772  14.546  15.007  13.937
22173W        W92773  21.309  14.306  10.722
22174W        W92774  29.328  10.149   1.861
22175W        W92775  40.657  15.893   2.856
22176W        W92776  17.033  39.034   0.892
22177W        W92777  42.472   9.706   0.329
22178W        W92778  26.862   4.408  13.030
22179W        W92779  35.603  10.955  11.541
22180W        W92780  40.359  42.168   4.488
22181W        W92781   1.427  13.782   2.384
22182W        W92782   2.738   8.139   0.963
22183W        W92783  36.454  43.531  14.902
22184W        W92784  23.087  18.039  10.339
22185W        W92785  23.266  37.605  13.401
22186W        W92786  34.066  17.920   1.762
22187W        W92787  41.908   9.705   4.755
22188W        W92788  18.811  10.654   0.898
22189W        W92789  33.949  10.266   2.732
22190W        W92790  31.913  12.694  14.453
22191W        W92791  13.489  41.279   0.595
22192W        W92792   8.976  20.727  10.700
22193W        W92793  24.239  38.541  13.477
22194W        W92794  13.601  41.173   1.086
22195W        W92795  44.482  14.824  14.750
22196W        W92796  26.951  42.399   1.698
22197W        W92797   3.019  20.492  14.916
22198W        W92798  22.521   8.093  10.689
22199W        W92799  12.714  13.052   1.760
22200W        W92800  26.461  25.966  12.091
22201W        W92801   2.478   6.682   2.281
22202W        W92802   3.866  20.752  14.763
22203W        W92803   7.062  38.203  11.269
22204W        W92804  42.785  20.236  12.821
22205W        W92805  19.127  16.348   1.762
22206W        W92806  41.141  22.762  12.449
22207W        W92807  34.106  32.029   4.792
22208W        W92808  36.525   5.198  13.415
22209W        W92809  14.808  36.480  13.080
22210W        W92810  34.004  24.492  13.419
22211W        W92811   9.955   4.441  13.127
22212W        W92812   8.483   8.222  11.833
22213W        W92813  21.973   9.005   2.641
22214W        W92814  29.124  26.448  13.456
22215W        W92815  27.584  10.620   4.218
22216W        W92816  29.984  27.855  10.857
22217W        W92817  23.177  29.025  11.907
22218W        W92818  22.047  40.011   3.316
22219W        W92819  44.985  35.486  13.285
22220W        W92820  40.784  25.924  13.975
22221W        W92821  24.566   8.918  13.357
22222W        W92822  11.725   1.223  10.980
22223W        W92823  12.277  40.578   0.242
22224W        W92824  33.308   3.324  11.553
22225W        W92825  17.675   1.236   4.004
22226W        W92826  24.766  16.993   4.115
22227W        W92827   3.412  15.633   4.525
22228W        W92828  29.194  12.415  12.381
22229W        W92829  38.836   4.412  12.154
22230W        W92830   7.229  39.529  12.384
22231W        W92831  10.642  19.235  13.358
22232W        W92832  20.727  19.710  14.461
22233W        W92833  26.946  34.703   3.612
22234W        W92834  18.765   5.432   1.632
22235W        W92835  26.220  40.211   4.172
22236W        W92836   9.848  27.700  11.460
22237W        W92837   4.172  13.686  14.040
22238W        W92838   3.482  30.071  13.743
22239W        W92839   4.247  42.702   4.781
22240W        W92840  36.630   9.118  10.659
22241W        W92841   7.942  37.516   0.374
22242W        W92842   7.313  24.776  13.068
22243W        W92843  13.335  21.086   0.252
22244W        W92844  26.432  16.583  13.851
22245W        W92845  22.233  19.824  13.636
22246W        W92846   6.868   5.531  14.711
22247W        W92847  34.513   0.802  10.485
22248W        W92848  33.829  18.889  11.716
22249W        W92849  14.179  19.073  14.468
22250W        W92850  10.426  24.547   1.301
22251W        W92851   4.421  19.763   0.255
22252W        W92852  21.048   5.924   2.096
22253W        W92853  21.347  17.185  13.937
22254W        W92854  41.237  12.241   3.352
22255W        W92855  43.244  30.977  12.480
22256W        W92856  25.996  29.565  10.734
22257W        W92857   4.019   8.727  14.524
22258W        W92858  30.781  32.527  11.348
22259W        W92859   8.707  37.835  10.894
22260W        W92860  23.543  20.134  13.943
22261W        W92861  19.801   3.249  14.845
22262W        W92862  34.099  44.891   3.322
22263W        W92863   0.367  43.810  12.786
22264W        W92864   9.311   7.943   0.355
22265W        W92865   5.410  15.258   3.162
22266W        W92866  21.057   1.157  12.463
22267W        W92867  43.822  11.885  13.533
22268W        W92868   4.491  20.088  12.126
22269W        W92869  11.374  36.347   2.278
22270W        W92870  36.751   0.180   1.847
22271W        W92871  18.962  15.482  10.765
22272W        W92872  22.035  33.985   0.272
22273W        W92873  24.917  15.913   2.181
22274W        W92874  11.192  13.639  11.933
22275W        W92875  30.707  16.310  10.610
22276W        W92876   3.063  23.767  14.966
22277W        W92877   1.806  28.542   0.964
22278W        W92878  44.265  32.987   2.440
22279W        W92879  30.349   8.233  11.629
22280W        W92880  44.851  26.475   2.801
22281W        W92881  29.610  24.585   0.254
22282W        W92882  40.683  24.269  13.229
22283W        W92883   9.844  33.796   3.373
22284W        W92884  16.310  35.907  12.422
22285W        W92885  31.426  32.485   3.520
22286W        W92886   0.015   9.662  12.121
22287W        W92887  41.248  13.921   3.632
22288W        W92888  33.571  10.633  14.842
22289W        W92889  41.028   1.555   1.617
22290W        W92890  14.255  23.003  12.424
22291W        W92891   6.834  25.690  14.990
22292W        W92892  20.922   8.291   2.063
22293W        W92893  43.314  18.175  13.585
22294W        W92894  29.153  28.579   1.426
22295W        W92895  18.554  12.149  10.689
22296W        W92896  28.006  37.359   2.279
22297W        W92897  26.658   4.939  11.455
22298W        W92898  42.182  15.653   2.713
22299W        W92899  40.760  36.380  14.279
22300W        W92900  31.443  44.457  11.534
22301W        W92901   4.925  27.091  12.467
22302W        W92902  11.765   4.141   0.805
22303W        W92903  40.258  42.428   0.056
22304W        W92904  36.886  10.817   1.666
22305W        W92905  17.097  39.957  14.809
22306W        W92906  11.664  26.615  12.013
22307W        W92907  27.629   8.559  11.062
22308W        W92908  26.071  10.394   3.743
22309W        W92909  15.137  33.465  11.156
22310W        W92910   4.690  39.723   1.411
22311W        W92911  38.475  27.767   4.892
22312W        W92912  20.001  24.207  13.001
22313W        W92913  20.260  42.998   4.494
22314W        W92914  29.939   6.613  14.534
22315W        W92915  33.599   4.550   0.684
22316W        W92916   7.894  19.744  10.772
22317W        W92917  41.062  25.400   3.412
22318W        W92918  12.306  31.296  14.531
22319W        W92919  40.300  33.069   1.360
22320W        W92920   0.038  44.598   2.101
22321W        W92921  42.899  30.936  11.108
22322W        W92922  38.442  15.177   0.491
22323W        W92923  32.367   3.400   5.051
22324W        W92924   5.850  18.250   1.325
22325W        W92925  30.295  37.485   4.635
22326W        W92926  41.898  31.357   3.739
22327W        W92927  19.858  13.540  11.531
22328W        W92928   6.337  14.377  14.423
22329W        W92929  19.406   7.954  14.492
22330W        W92930  17.608  42.486  13.133
22331W        W92931  38.790  37.531  12.372
22332W        W92932  10.602  22.993  11.096
22333W        W92933  39.611  18.312   1.744
22334W        W92934  38.888  37.506  10.080
22335W        W92935  22.130  33.664  13.849
22336W        W92936  11.798  23.802   1.314
22337W        W92937  18.917  18.389  12.977
22338W        W92938  40.463  39.392  14.098
22339W        W92939  11.317  25.496   0.073
22340W        W92940  10.221   2.460   2.211
22341W        W92941   9.294  32.461   1.462
22342W        W92942  21.346  43.331  14.657
22343W        W92943  17.738   8.511  10.644
22344W        W92944   8.813   6.857  11.990
22345W        W92945  15.995  29.278  14.285
22346W        W92946   6.054  43.849  11.942
22347W        W92947  22.459  39.633   2.419
22348W        W92948  14.332  18.339   3.250
22349W        W92949  30.919  40.823  10.533
22350W        W92950  32.559  14.550   2.206
22351W        W92951  41.959  18.604   1.292
22352W        W92952   4.234  12.258   1.545
22353W        W92953  25.637   6.107   3.704
22354W        W92954  23.649   6.335   2.161
22355W        W92955  33.822   9.408   2.429
22356W        W92956  24.870   1.973   0.284
22357W        W92957  36.988   5.217  13.119
22358W        W92958  28.464  39.806   0.482
22359W        W92959   0.270  22.198  13.359
22360W        W92960   6.948  26.555  11.983
22361W        W92961  25.127   2.365   4.606
22362W        W92962  20.665  18.765  13.994
22363W        W92963  43.846  29.626  14.016
22364W        W92964  38.360  10.664  10.765
22365W        W92965  15.157  40.308   3.342
22366W        W92966   0.454   0.933  11.531
22367W        W92967  17.272  24.578   2.370
22368W        W92968  23.003   5.330   5.079
22369W        W92969  37.783  15.528  14.526
22370W        W92970  39.578   7.229   0.306
22371W        W92971   3.248   4.808   4.096
22372W        W92972  26.487  26.124   0.311
22373W        W92973  22.928  36.503  12.849
22374W        W92974  10.828  41.900   2.555
22375W        W92975  15.030  10.790   0.733
22376W        W92976   4.747  29.414  10.142
22377W        W92977  11.174   4.820  14.399
22378W        W92978  26.376  37.874   0.884
22379W        W92979   1.836  39.595  11.435
22380W        W92980  30.955  34.547   4.015
22381W        W92981  13.627   6.743  13.334
22382W        W92982  34.994  20.756   2.203
22383W        W92983  15.767   1.676  12.033
22384W        W92984  13.985   4.244  11.873
22385W        W92985  31.911   0.044  14.397
22386W        W92986  27.110   5.896  14.092
22387W        W92987  44.903  17.055  14.184
22388W        W92988   0.210  32.156  10.720
22389W        W92989  41.792  28.573  10.640
22390W        W92990  39.672  27.065  12.462
22391W        W92991  18.939   2.313   1.284
22392W        W92992  42.774  15.492   1.845
22393W        W92993  24.294   1.639  14.705
22394W        W92994   3.310  10.127  12.392
22395W        W92995   1.410  21.394   4.847
22396W        W92996  21.229   6.999  12.579
22397W        W92997   6.158   8.052   4.839
22398W        W92998  16.764   7.765   1.893
22399W        W92999   0.474  14.741   0.474
22400W        W93000  16.054  30.651   3.378
22401W        W93001  35.978  34.993   1.530
22402W        W93002   1.405  43.926   0.725
22403W        W93003  40.017  34.177   4.135
22404W        W93004  38.194   5.723   4.660
22405W        W93005   9.971  15.788  13.199
22406W        W93006   1.487  31.326  11.528
22407W        W93007  39.424  27.088   1.873
22408W        W93008  27.911  10.232  12.964
22409W        W93009  43.229  32.008   4.761
22410W        W93010  29.233  44.969  13.100
22411W        W93011   8.817  26.480   5.119
22412W        W93012  12.787  36.297   1.649
22413W        W93013   8.055   3.884  14.488
22414W        W93014  12.312  31.412  11.340
22415W        W93015  24.971   9.382   4.509
22416W        W93016  17.005  26.784  11.521
22417W        W93017  26.911  35.949   0.064
22418W        W93018  32.468  12.187  14.494
22419W        W93019  32.031  43.572  14.650
22420W        W93020  27.029  44.291   2.547
22421W        W93021  13.142  10.860   2.241
22422W        W93022   0.720   9.446  13.381
22423W        W93023   2.299   7.779  14.560
22424W        W93024   3.882  20.768   1.508
22425W        W93025  43.237  19.686   4.606
22426W        W93026  12.798   7.767   4.887
22427W        W93027  31.633   4.214  13.805
22428W        W93028  43.750  29.926  12.138
22429W        W93029   1.731  16.793  14.315
22430W        W93030  28.528  29.411  11.160
22431W        W93031  26.924  32.490   4.199
22432W        W93032   6.824  20.535   0.765
22433W        W93033   5.784  14.851  14.903
22434W        W93034   5.099  29.193  11.212
22435W        W93035  40.146  42.998  12.449
22436W        W93036  25.014  17.780  13.558
22437W        W93037   2.502   5.622  12.958
22438W        W93038   4.907   4.237  12.610
22439W        W93039   8.206  32.425  14.447
22440W        W93040   0.772  26.611   0.453
22441W        W93041  25.468  13.470   3.238
22442W        W93042   9.742  30.487  12.403
22443W        W93043   3.784  11.744   2.167
22444W        W93044  41.701   2.203  12.170
22445W        W93045  24.554  26.368  14.048
22446W        W93046   7.972   9.836   3.745
22447W        W93047   4.239  23.264  11.481
22448W        W93048   1.535  24.088   2.589
22449W        W93049  23.032  17.645   3.466
22450W        W93050   1.585  28.087  13.496
22451W        W93051  10.657  44.490   3.865
22452W        W93052  19.034  37.140   1.770
22453W        W93053  36.670  21.585  13.475
22454W        W93054  32.817  42.331   2.873
22455W        W93055   1.846  40.405   3.361
22456W        W93056  43.013  26.957   0.722
22457W        W93057   5.615  26.812   2.184
22458W        W93058  23.979  31.328  14.354
22459W        W93059  22.229  31.229  12.571
22460W        W93060  30.332   6.026   0.519
22461W        W93061  19.249  23.694   4.093
22462W        W93062  23.239  13.494   3.692
22463W        W93063  33.465  14.837   1.316
22464W        W93064  20.043  44.023   1.671
22465W        W93065   8.174   5.591   2.645
22466W        W93066  15.842   9.712  14.387
22467W        W93067  17.655  13.139   0.403
22468W        W93068  25.866  27.086   3.671
22469W        W93069  13.554   4.200  13.389
22470W        W93070  28.688  22.061   3.915
22471W        W93071  22.197  15.849  11.225
22472W        W93072   1.319   1.426  11.500
22473W        W93073   7.748   7.681   1.820
22474W        W93074  13.142  25.456   3.656
22475W        W93075  40.227  28.460  11.632
22476W        W93076  24.739   0.592   5.117
22477W        W93077  11.694  23.517  10.771
22478W        W93078  27.488  42.308   4.631
22479W        W93079  32.626  34.888   0.332
22480W        W93080  43.811  26.101  12.586
22481W        W93081  16.819  39.045   2.915
22482W        W93082   6.537  18.707  12.991
22483W        W93083   9.608  17.307  12.424
22484W        W93084  35.852  42.166   2.749
22485W        W93085  25.600  32.271   4.757
22486W        W93086  38.407  22.251   0.429
22487W        W93087  28.528  13.087  12.023
22488W        W93088   7.265  24.207   3.043
22489W        W93089  13.257  40.498   1.267
22490W        W93090  32.344  29.189  11.892
22491W        W93091   0.221  16.028   0.187
22492W        W93092  44.305  30.684   3.157
22493W        W93093  27.115  44.981   3.132
22494W        W93094  30.317   8.198   1.810
22495W        W93095  28.544  39.791   1.797
22496W        W93096  15.233   0.869   1.418
22497W        W93097  39.925   1.246   0.837
22498W        W93098   2.389   1.022  12.472
22499W        W93099  11.247  35.386  11.620
22500W        W93100  23.624  11.366   2.730
22501W        W93101  40.304  16.510   3.205
22502W        W93102  12.772  23.032   0.798
22503W        W93103  36.995   1.945  11.242
22504W        W93104  31.646  35.828  10.674
22505W        W93105  18.205  26.956   1.802
22506W        W93106  23.811  13.030  12.536
22507W        W93107  19.719  12.664   0.922
22508W        W93108   6.615  32.032  10.447
22509W        W93109  21.745  42.506  13.054
22510W        W93110  19.694  43.757   1.953
22511W        W93111  17.570  17.996  13.055
22512W        W93112  37.787  31.999   1.536
22513W        W93113  31.851  37.406  10.412
22514W        W93114  39.927   3.819  14.032
22515W        W93115  17.106  23.612   2.907
22516W        W93116  10.598  14.736  10.901
22517W        W93117   2.348  42.892   4.631
22518W        W93118  29.104   1.152   3.064
22519W        W93119  35.946   6.848  11.529
22520W        W93120  20.855  12.254   0.446
22521W        W93121   7.120  25.957   0.956
22522W        W93122  11.393   3.197   2.709
22523W        W93123  12.356  23.638   1.148
22524W        W93124  21.676  13.381  14.924
22525W        W93125  44.021  24.677  11.272
22526W        W93126  13.649  36.332   1.494
22527W        W93127   8.216  32.601   3.831
22528W        W93128  20.598  19.621   3.614
22529W        W93129  30.428  15.185   1.643
22530W        W93130  29.762  26.467   2.250
22531W        W93131  22.611  39.548   0.326
22532W        W93132   7.590  44.118  14.788
22533W        W93133   4.954  39.982  14.950
22534W        W93134  25.075  20.588  13.124
22535W        W93135  37.030  21.986  13.429
22536W        W93136  31.318  15.132  11.935
22537W        W93137  20.325  44.699  11.713
22538W        W93138  14.025  39.435   1.417
22539W        W93139  32.667  13.129  10.760
22540W        W93140  30.546   7.483  11.026
22541W        W93141  12.336  23.603   2.549
22542W        W93142  38.600   9.841  12.496
22543W        W93143   8.094  20.256  14.463
22544W        W93144  43.708  42.428   3.834
22545W        W93145   2.024  36.337  13.005
22546W        W93146  35.860   0.803  13.752
22547W        W93147  10.848  15.464  11.869
22548W        W93148  24.744  19.714   4.266
22549W        W93149  18.765   4.493   4.267
22550W        W93150  11.727  14.338  14.687
22551W        W93151   1.357   7.642  12.526
22552W        W93152  44.112  13.213   2.369
22553W        W93153   0.415  17.039  11.263
22554W        W93154   8.934  38.105   1.889
22555W        W93155  29.987   0.826  10.624
22556W        W93156   0.755  28.043  10.258
22557W        W93157  38.926   7.689  13.880
22558W        W93158  22.460  15.286  10.662
22559W        W93159  39.638  29.433  12.895
22560W        W93160   3.658  24.500   3.695
22561W        W93161  35.496  28.034  11.598
22562W        W93162  16.900  31.443   4.501
22563W        W93163  21.982  41.000  13.075
22564W        W93164  11.847  44.318  13.779
22565W        W93165   2.149  15.146  12.989
22566W        W93166   9.623   3.269   0.585
22567W        W93167  34.040  24.522   1.308
22568W        W93168  19.212  33.112  13.064
22569W        W93169  19.542  25.754  14.052
22570W        W93170   3.030  19.316  12.806
22571W        W93171  23.107   1.005  12.076
22572W        W93172  26.593   3.854   0.386
22573W        W93173  22.169  36.477  12.384
22574W        W93174  12.065  16.814   0.734
22575W        W93175   2.406   8.201   3.744
22576W        W93176  26.488  22.935  11.416
22577W        W93177  12.376  24.640   2.918
22578W        W93178  18.897   8.381   0.183
22579W        W93179  25.535  42.771   1.667
22580W        W93180  29.050   1.257   4.593
22581W        W93181   0.403  20.319  12.443
22582W        W93182  13.834  30.436  13.634
22583W        W93183  30.892  12.633   3.629
22584W        W93184  40.302  26.918   3.653
22585W        W93185   3.765  40.029   2.903
22586W        W93186   0.878  24.440  10.504
22587W        W93187  10.942  30.977  10.864
22588W        W93188  10.504   2.761   0.137
22589W        W93189   3.290  30.636   2.141
22590W        W93190  35.745  22.137   4.539
22591W        W93191  21.475  44.010  10.185
22592W        W93192   0.775  19.736   4.627
22593W        W93193  41.857  28.755  11.608
22594W        W93194   6.833  22.685   4.242
22595W        W93195   0.862  44.388   0.259
22596W        W93196  12.098  19.312   1.813
22597W        W93197  25.088   1.205  14.392
22598W        W93198  13.561  25.687   2.697
22599W        W93199  23.071  28.792   0.769
22600W        W93200  15.197  10.698  11.665
22601W        W93201  34.351  43.859   0.020
22602W        W93202  10.771  32.581   3.912
22603W        W93203  12.340  30.034   4.185
22604W        W93204  14.594  43.293  14.911
22605W        W93205  36.376  37.352  11.681
22606W        W93206   2.697  19.123  11.633
22607W        W93207  26.798   4.340  10.759
22608W        W93208  25.275  42.527  13.493
22609W        W93209  34.620   5.337   0.667
22610W        W93210  38.470  14.146   1.563
22611W        W93211  19.235  17.210   0.358
22612W        W93212  31.067  22.593   0.690
22613W        W93213  21.854  27.620  12.937
22614W        W93214  36.619  16.455  12.255
22615W        W93215  23.655  28.462  11.670
22616W        W93216   7.401   7.358   0.784
22617W        W93217  36.573  15.978  13.546
22618W        W93218  29.503  22.923   0.809
22619W        W93219  16.130   0.463   0.005
22620W        W93220  23.879  18.620  14.023
22621W        W93221  18.639  27.750  10.726
22622W        W93222  35.207  23.227   3.361
22623W        W93223  23.575  35.134   2.557
22624W        W93224   5.643  17.628  11.216
22625W        W93225  17.113  16.242  12.966
22626W        W93226  32.961  39.526   3.765
22627W        W93227  30.555  35.696  13.332
22628W        W93228  17.222  31.066  14.099
22629W        W93229  21.745   5.819  11.134
22630W        W93230   2.970  25.679   4.848
22631W        W93231  14.146  20.666   0.365
22632W        W93232   0.600   1.818  12.167
22633W        W93233  34.851  39.716   0.379
22634W        W93234  21.365  17.784  13.028
22635W        W93235  43.843  30.970   3.131
22636W        W93236  35.374  17.748   2.427
22637W        W93237  15.279  39.895  11.560
22638W        W93238   4.589  22.676   2.390
22639W        W93239  41.867  27.947  13.456
22640W        W93240  34.946  10.334   1.216
22641W        W93241  43.463  31.918   2.783
22642W        W93242  40.623  17.116   4.072
22643W        W93243  32.463  35.837  12.144
22644W        W93244  11.230   8.087  13.867
22645W        W93245  33.024  15.884   2.013
22646W        W93246  28.609  43.444  11.223
22647W        W93247  13.580  38.012  11.538
22648W        W93248  30.717  14.765   1.815
22649W        W93249  30.110   3.273  14.687
22650W        W93250  38.697  27.406   4.547
22651W        W93251  40.798  26.737  14.324
22652W        W93252  25.420  27.633  13.314
22653W        W93253  36.083  16.140  11.221
22654W        W93254  41.319  11.133   4.311
22655W        W93255  38.161  12.323  11.132
22656W        W93256  30.717  27.921   0.850
22657W        W93257  22.741  40.518   2.242
22658W        W93258   3.868  29.332  12.203
22659W        W93259  28.367  42.556   1.214
22660W        W93260  27.192  37.103  13.055
22661W        W93261  15.616  31.670   0.945
22662W        W93262  23.440  10.405   0.790
22663W        W93263   2.812  24.868   0.359
22664W        W93264  38.883  16.773   2.228
22665W        W93265  32.176  17.426  13.088
22666W        W93266  21.782   0.782  11.871
22667W        W93267  20.711   3.724  14.840
22668W        W93268   8.785  42.643   0.722
22669W        W93269  28.518  13.747  10.984
22670W        W93270  38.515  11.200  12.422
22671W        W93271  36.063   2.523   2.206
22672W        W93272  29.944  15.185  11.018
22673W        W93273  26.087   2.394   4.247
22674W        W93274  18.703  21.802  14.872
22675W        W93275  33.995   3.873   4.799
22676W        W93276  35.469  37.053   4.687
22677W        W93277   1.826  32.866  12.387
22678W        W93278  32.028   3.142  14.771
22679W        W93279  16.318  41.314  13.460
22680W        W93280  11.696  41.978  10.796
22681W        W93281   6.263  36.947  10.988
22682W        W93282   1.848  28.778   3.408
22683W        W93283  36.385  11.824  10.977
22684W        W93284  40.906   4.392   2.181
22685W        W93285  35.009  13.801  12.002
22686W        W93286  37.906  19.705   1.672
22687W        W93287   3.942  21.704  12.488
22688W        W93288  14.786  31.667  12.898
22689W        W93289  14.744   2.578   4.620
22690W        W93290  10.330   3.358  10.563
22691W        W93291  36.510  39.397  14.277
22692W        W93292  14.942  33.661   0.952
22693W        W93293  41.312  31.477  12.231
22694W        W93294  21.660  44.178  12.116
22695W        W93295  33.346  14.590   2.217
22696W        W93296   3.677  41.630  14.344
22697W        W93297  43.923   0.791  14.335
22698W        W93298  27.586  43.705  12.062
22699W        W93299   6.001  29.186   2.834
22700W        W93300  30.641  11.816   2.600
22701W        W93301  11.865  12.270  11.529
22702W        W93302  34.771  41.151   3.625
22703W        W93303  37.739  36.089  12.416
22704W        W93304  23.190  20.898  10.056
22705W        W93305  27.715   0.734   4.135
22706W        W93306  10.725  10.959   2.269
22707W        W93307  34.132  37.100  11.927
22708W        W93308  34.444   8.896  13.482
22709W        W93309   2.989  37.950   4.231
22710W        W93310  31.637  22.623  14.255
22711W        W93311  20.696  34.894  14.860
22712W        W93312   8.599  13.313   2.657
22713W        W93313  41.879   3.756   0.884
22714W        W93314  35.685  24.229   3.802
22715W        W93315  44.268   1.672   3.313
22716W        W93316  36.067   0.702   0.267
22717W        W93317  12.893  36.896  14.750
22718W        W93318   4.174   4.368   0.558
22719W        W93319  13.240  10.800  12.064
22720W        W93320  12.834   2.294   3.120
22721W        W93321  36.418  31.741   2.240
22722W        W93322   4.185  16.072  12.210
22723W        W93323  43.790  39.077  12.012
22724W        W93324  12.750  21.586   3.457
22725W        W93325  11.745  23.970   4.586
22726W        W93326  14.680  42.869   1.786
22727W        W93327   0.385  33.687   4.651
22728W        W93328  17.134  36.377   4.269
22729W        W93329  20.119   5.179   2.921
22730W        W93330   4.386  18.073  10.636
22731W        W93331  23.772  11.833  11.371
22732W        W93332  13.234  31.709  14.321
22733W        W93333  41.899  11.871  12.559
22734W        W93334   9.145   8.047   1.943
22735W        W93335  14.726  25.442  14.423
22736W        W93336  27.412  15.806  10.737
22737W        W93337  44.909   2.722   1.454
22738W        W93338  19.689  15.127   4.969
22739W        W93339  42.798   3.310   2.335
22740W        W93340  20.345   6.410   2.784
22741W        W93341  41.006  16.112   3.183
22742W        W93342   8.543   3.879   5.060
22743W        W93343  28.314  16.344   3.811
22744W        W93344  43.303  27.015  10.662
22745W        W93345  27.303  42.282  14.826
22746W        W93346  11.822  12.847   1.917
22747W        W93347  24.658  12.113  11.082
22748W        W93348   4.791  23.270   3.684
22749W        W93349  30.916  11.884  14.042
22750W        W93350  31.506  38.647   4.132
22751W        W93351  18.081  28.492  14.400
22752W        W93352  22.660  14.345  13.585
22753W        W93353  13.994  18.981   0.849
22754W        W93354  14.722  10.358   0.049
22755W        W93355  37.815  38.898  12.963
22756W        W93356  29.059   2.793   0.020
22757W        W93357  31.878  22.716   3.940
22758W        W93358   0.863  37.495  13.137
22759W        W93359  31.497  25.702  12.045
22760W        W93360  39.113  13.435  14.364
22761W        W93361  35.795  31.589  12.420
22762W        W93362  39.970  41.481   0.823
22763W        W93363  14.687   6.716   4.670
22764W        W93364  23.308  26.995   2.244
22765W        W93365  10.126  42.108  11.767
22766W        W93366  18.580  37.007  14.605
22767W        W93367  41.799  10.763   1.367
22768W        W93368  44.209  44.185  10.283
22769W        W93369   6.262   1.262  10.840
22770W        W93370  18.601  31.175   2.389
22771W        W93371  33.351  17.186   4.927
22772W        W93372  39.047  27.617  13.845
22773W        W93373  17.769  13.201   2.668
22774W        W93374  23.235  24.076  11.465
22775W        W93375  23.164  35.316   1.814
22776W        W93376  35.526   2.863   0.461
22777W        W93377  22.982  11.819  11.657
22778W        W93378  17.716  35.619  11.158
22779W        W93379  23.184   0.649   5.001
22780W        W93380  36.547   4.961  14.373
22781W        W93381  12.686  31.023  12.848
22782W        W93382  39.112  41.978  12.394
22783W        W93383  37.530  28.903   2.849
22784W        W93384   4.210  33.815  12.073
22785W        W93385  30.043  22.925  11.621
22786W        W93386  33.475   3.884   4.298
22787W        W93387  31.944   4.776   0.956
22788W        W93388   5.248   1.280   0.863
22789W        W93389  12.799  34.421   3.994
22790W        W93390  22.798   9.653  14.834
22791W        W93391  40.387  39.994  13.333
22792W        W93392   4.459  28.551  12.112
22793W        W93393  35.709  40.104  13.018
22794W        W93394  21.174  18.617   1.840
22795W        W93395  44.484  13.732   3.319
22796W        W93396  42.496  35.463  13.413
22797W        W93397   9.138  29.122  10.731
22798W        W93398  10.331  15.594  11.135
22799W        W93399  39.920  39.762  13.303
22800W        W93400  18.860  39.112   4.028
22801W        W93401   6.171   9.578  12.944
22802W        W93402   4.167   9.589  10.897
22803W        W93403  27.325  25.154   3.600
22804W        W93404  17.941  19.111  11.643
22805W        W93405  35.762   1.805   4.109
22806W        W93406  15.347  19.334  13.138
22807W        W93407  42.409   3.894   1.181
22808W        W93408  16.669  34.032   2.352
22809W        W93409   0.536  22.188   3.396
22810W        W93410   1.389   7.956   3.760
22811W        W93411  42.866  28.109   1.372
22812W        W93412  13.900  29.430  13.804
22813W        W93413   6.398  14.907  10.709
22814W        W93414   3.782  19.719   2.140
22815W        W93415  27.034  34.200   3.622
22816W        W93416  13.661  35.202  14.062
22817W        W93417  24.841  17.468   3.893
22818W        W93418  24.556  36.805  12.787
22819W        W93419  18.586  14.853   2.717
22820W        W93420  35.397  11.707   3.721
22821W        W93421  11.411  44.527  13.056
22822W        W93422  32.467   9.131  14.504
22823W        W93423  21.132  44.928   3.106
22824W        W93424  44.034   2.233   1.793
22825W        W93425  14.657  40.293  12.174
22826W        W93426  38.297   3.214  12.550
22827W        W93427   1.697  24.856  12.596
22828W        W93428  30.607  15.260   4.029
22829W        W93429  44.783  43.351  14.744
22830W        W93430  12.745  15.790  13.446
22831W        W93431   4.938  19.624  10.246
22832W        W93432   9.811   4.013   4.394
22833W        W93433   3.432  13.649   2.398
22834W        W93434  17.816  25.954   0.859
22835W        W93435  25.958  31.126   3.533
22836W        W93436  35.903  31.111   0.012
22837W        W93437  42.212  24.565  11.440
22838W        W93438  42.129  14.305  14.894
22839W        W93439  33.448  27.655  13.322
22840W        W93440  29.546  30.539   4.992
22841W        W93441  18.113  14.886   0.464
22842W        W93442  19.253  30.609  14.390
22843W        W93443  16.752  30.358  14.972
22844W        W93444  12.315  25.178  14.288
22845W        W93445  15.051  40.695   4.164
22846W        W93446  31.512   0.770   4.624
22847W        W93447  35.632  11.390  13.508
22848W        W93448   5.126  20.593  13.000
22849W        W93449  21.788  21.721   3.708
22850W        W93450   2.787  14.404   4.822
22851W        W93451  17.439   5.608   9.935
22852W        W93452   5.376  22.041  14.373
22853W        W93453   0.264  39.026   0.804
22854W        W93454   3.464  28.695   4.036
22855W        W93455  23.100  35.954   4.210
22856W        W93456  20.640  31.652  11.623
22857W        W93457  29.086  33.061  10.641
22858W        W93458  31.017  28.357  12.334
22859W        W93459  16.593  36.447  12.061
22860W        W93460  37.211  38.387  11.744
22861W        W93461  44.929   0.191  11.442
22862W        W93462  10.415   2.931   0.629
22863W        W93463  33.923  31.418  10.710
22864W        W93464  26.041  31.059  11.921
22865W        W93465  29.634  44.872  12.803
22866W        W93466  12.618  32.637   4.788
22867W        W93467   1.158  17.580  11.680
22868W        W93468  37.813   6.625   3.826
22869W        W93469   8.531  24.107   2.061
22870W        W93470  21.039  17.222  14.371
22871W        W93471  15.407  20.628  11.088
22872W        W93472  22.770  15.244  13.415
22873W        W93473  44.008  41.792   2.820
22874W        W93474  20.596  37.863  11.682
22875W        W93475  10.911  15.809  11.510
22876W        W93476   9.195   8.099  14.858
22877W        W93477  13.341   6.829   1.271
22878W        W93478  37.153  18.711   2.820
22879W        W93479  23.984  29.304  14.842
22880W        W93480  31.111  31.012   3.649
22881W        W93481   9.630  12.969  12.019
22882W        W93482  29.607  43.203  14.755
22883W        W93483  34.933  30.216   1.314
22884W        W93484  27.700  32.464  12.579
22885W        W93485  15.693  35.240   1.599
22886W        W93486  37.607   2.296  13.846
22887W        W93487  14.759   7.923   2.810
22888W        W93488  14.879  31.869  11.616
22889W        W93489  23.967   5.344  11.194
22890W        W93490  39.934  27.468  12.151
22891W        W93491   0.939  32.427   1.208
22892W        W93492  41.159  39.955   2.318
22893W        W93493   4.518  34.336  11.445
22894W        W93494  22.151  44.314  13.381
22895W        W93495  41.869  35.396  10.760
22896W        W93496  16.668   6.904  11.602
22897W        W93497  21.328   2.258   1.391
22898W        W93498  26.452  24.394   2.325
22899W        W93499  33.115  40.233   4.512
22900W        W93500  34.631  29.192   2.237
22901W        W93501  18.162   5.895   4.904
22902W        W93502  42.936  32.367   0.817
22903W        W93503  37.866  29.300  11.040
22904W        W93504  34.509  41.169  13.979
22905W        W93505   7.734   1.036   4.129
22906W        W93506  10.557   8.406   1.959
22907W        W93507  20.185  34.094   4.607
22908W        W93508  19.000  26.118  13.582
22909W        W93509   4.376  41.782   2.859
22910W        W93510  40.466   3.780  11.745
22911W        W93511   9.874  14.576   1.171
22912W        W93512  14.165  33.071  14.211
22913W        W93513  23.603  30.448  10.741
22914W        W93514  12.126  21.047   4.429
22915W        W93515  20.180   7.224  10.655
22916W        W93516  31.613  41.004   3.757
22917W        W93517  30.412  34.566   2.854
22918W        W93518  10.423  18.993  12.331
22919W        W93519  13.167  24.251  11.538
22920W        W93520  34.922   1.302   2.724
22921W        W93521  18.275  38.350  12.931
22922W        W93522  10.956   9.357   0.909
22923W        W93523   1.742  22.743  12.436
22924W        W93524  31.182  36.139  10.717
22925W        W93525   2.904  32.848  14.416
22926W        W93526  43.518  25.498   2.107
22927W        W93527  32.882  20.761  14.459
22928W        W93528  30.032  33.111   4.467
22929W        W93529   0.451  11.544  14.443
22930W        W93530  23.233  28.925   1.344
22931W        W93531  34.981  44.950   3.230
22932W        W93532  12.807  25.183  12.166
22933W        W93533   5.158  23.922   0.910
22934W        W93534  44.579  13.703   1.430
22935W        W93535   6.330   8.633   0.965
22936W        W93536  23.466  23.190   2.359
22937W        W93537   6.926  33.661  14.688
22938W        W93538  11.231   3.300   1.726
22939W        W93539  43.519   9.948  14.543
22940W        W93540  41.044  41.078  12.129
22941W        W93541  19.759  34.300  12.793
22942W        W93542  35.420  37.917  14.655
22943W        W93543  12.736  31.911   3.735
22944W        W93544  30.242  15.106  14.991
22945W        W93545  22.262  40.391   2.059
22946W        W93546  32.012   1.052  13.453
22947W        W93547  31.226  23.969   0.915
22948W        W93548  30.498  22.288   3.770
22949W        W93549   6.580   0.355   2.778
22950W        W93550  29.654   9.860   1.551
22951W        W93551   4.383  38.088   3.174
22952W        W93552  21.575  38.086  12.137
22953W        W93553  22.748  27.081  14.915
22954W        W93554  42.476  41.384  13.594
22955W        W93555  37.532  28.900   0.912
22956W        W93556  39.952  11.169  11.710
22957W        W93557  38.943  14.923  14.056
22958W        W93558  39.411  30.902  11.241
22959W        W93559   7.909   3.425  14.788
22960W        W93560  37.056   6.091  14.355
22961W        W93561   3.520  30.535  13.016
22962W        W93562  14.638  29.355  12.126
22963W        W93563  38.555  24.169  10.702
22964W        W93564   0.422  40.984   3.987
22965W        W93565  30.396  15.191  12.034
22966W        W93566  12.649  13.096  14.290
22967W        W93567  38.346   8.083   2.383
22968W        W93568  42.443  43.482   1.186
22969W        W93569   6.974  17.856  13.412
22970W        W93570  28.277  43.566   4.730
22971W        W93571  25.881  33.876   0.507
22972W        W93572  38.813  44.426  13.395
22973W        W93573  32.498  19.271  13.536
22974W        W93574  38.573  38.147   0.430
22975W        W93575  33.328  21.124  14.482
22976W        W93576  12.871  29.460   3.545
22977W        W93577  19.018  41.770  13.772
22978W        W93578  40.947  23.083   0.777
22979W        W93579   3.287  40.325   2.924
22980W        W93580  24.073  37.899   2.691
22981W        W93581  35.438  28.351  11.998
22982W        W93582  38.417  19.140   4.270
22983W        W93583  43.821  39.160  13.810
22984W        W93584  16.596  10.780  11.513
22985W        W93585  21.209  43.123   0.711
22986W        W93586  36.531  11.163  13.593
22987W        W93587  35.140  14.664   3.807
22988W        W93588   0.211  32.613   3.698
22989W        W93589  35.954   6.875  12.401
22990W        W93590  39.060  13.818  12.569
22991W        W93591  17.974   5.362  11.078
22992W        W93592  22.438  30.473   4.047
22993W        W93593   5.138  44.287  13.018
22994W        W93594  32.329   1.516  14.089
22995W        W93595   5.370   8.140  12.162
22996W        W93596  31.599  35.800   3.960
22997W        W93597  25.945  25.459   1.825
22998W        W93598  27.879   6.686  14.427
22999W        W93599  16.122  27.194   3.276
23000W        W93600   4.143   8.230  11.057
23001W        W93601  11.275  15.182  12.960
23002W        W93602  15.886  33.071   5.350
23003W        W93603  27.456  41.233   4.740
23004W        W93604   1.751  30.832   4.521
23005W        W93605  39.809  16.250  12.926
23006W        W93606  41.668  36.509   0.673
23007W        W93607  40.702  42.219  14.946
23008W        W93608  28.200  38.084  12.018
23009W        W93609  36.385   3.877  13.999
23010W        W93610  40.300  35.163   1.904
23011W        W93611  12.106  20.690   1.142
23012W        W93612  42.398  34.178  12.106
23013W        W93613  29.379  18.051   2.766
23014W        W93614   8.359  30.158   0.913
23015W        W93615  28.504  25.132  10.920
23016W        W93616  37.158  36.497   3.666
23017W        W93617   1.763  35.852   4.188
23018W        W93618  16.579   9.675   3.223
23019W        W93619  24.789  43.667  11.036
23020W        W93620   6.840  27.517  12.370
23021W        W93621   9.607   9.117  11.605
23022W        W93622  31.881   1.443  13.798
23023W        W93623   7.945  43.475  14.330
23024W        W93624   6.649   2.355   4.705
23025W        W93625  23.653  44.853  13.666
23026W        W93626  35.459  17.252  10.506
23027W        W93627  22.008  10.464   2.974
23028W        W93628   1.991  26.614   0.103
23029W        W93629  30.028  36.960   0.845
23030W        W93630  11.609  14.839   3.709
23031W        W93631  10.720   4.573   2.664
23032W        W93632  13.274  23.202  10.852
23033W        W93633  29.637  21.650  14.320
23034W        W93634  27.477  42.228  12.354
23035W        W93635  23.694   7.381  13.824
23036W        W93636  13.721  34.120  10.187
23037W        W93637  38.772   6.721   1.348
23038W        W93638  41.919   8.148  14.782
23039W        W93639  36.763  15.302   0.797
23040W        W93640   1.133  36.879  12.415
23041W        W93641   0.027   5.357   0.314
23042W        W93642   8.810   4.801  12.389
23043W        W93643  17.005  23.088   1.705
23044W        W93644  17.381   9.365  10.676
23045W        W93645  24.962  29.927   4.701
23046W        W93646  19.311   7.652  12.467
23047W        W93647  30.605  21.863  13.965
23048W        W93648  28.891  22.880   2.226
23049W        W93649   5.955  25.257  11.593
23050W        W93650  37.459   1.335   0.746
23051W        W93651  43.851   3.010   1.385
23052W        W93652  21.327  15.936  14.642
23053W        W93653  30.850  27.031  13.927
23054W        W93654   2.188  24.395   3.695
23055W        W93655   6.713  23.244   3.485
23056W        W93656  34.096  24.754   4.395
23057W        W93657   7.337  37.902  11.652
23058W        W93658  12.879   7.716  12.765
23059W        W93659  25.668  24.662   2.651
23060W        W93660  44.917  31.507   4.026
23061W        W93661  26.931   2.282   0.070
23062W        W93662  30.014  24.319   0.033
23063W        W93663   8.170  10.824   3.278
23064W        W93664  19.586  24.535  14.569
23065W        W93665  26.455  36.059   3.633
23066W        W93666   7.584   7.889  11.984
23067W        W93667  14.299  19.418   0.853
23068W        W93668  29.017  31.375   2.679
23069W        W93669  20.497  23.802  13.916
23070W        W93670  44.883  26.690   0.870
23071W        W93671  22.590  41.293  14.944
23072W        W93672  25.014  34.492   1.504
23073W        W93673  23.591   1.437   1.944
23074W        W93674  14.906  42.291  14.933
23075W        W93675   7.224  29.882   1.697
23076W        W93676  37.293  14.199   4.621
23077W        W93677   2.373   0.826   2.858
23078W        W93678  22.966  10.208  12.518
23079W        W93679  38.351  17.764  11.709
23080W        W93680  40.585  33.594   4.572
23081W        W93681  17.135  21.010  13.250
23082W        W93682  38.337  16.584  12.409
23083W        W93683  24.666  41.507  14.199
23084W        W93684  16.421  17.060  12.252
23085W        W93685  41.027  39.093   2.363
23086W        W93686  38.391  25.819   3.658
23087W        W93687  16.657  43.746   3.201
23088W        W93688  17.812  40.323   1.259
23089W        W93689  35.446   8.220  14.876
23090W        W93690  29.382   0.836   4.702
23091W        W93691  33.874   4.416  13.523
23092W        W93692  36.527  18.245   2.232
23093W        W93693  11.221  10.393  14.846
23094W        W93694  43.323  40.063  13.082
23095W        W93695  30.578  19.932  14.048
23096W        W93696  26.752  32.483  11.546
23097W        W93697  22.712  30.607   5.013
23098W        W93698  25.817  23.485  12.182
23099W        W93699   2.834  27.438   3.460
23100W        W93700  18.134  36.835  11.544
23101W        W93701  23.539  27.351   4.620
23102W        W93702  35.444  32.059   4.496
23103W        W93703   3.708  38.466   0.727
23104W        W93704  14.229  33.460  11.987
23105W        W93705   3.067  42.820  10.312
23106W        W93706   5.315  18.005  11.410
23107W        W93707  24.246   4.128  12.837
23108W        W93708  25.912  11.821   1.409
23109W        W93709  13.171  22.665   4.506
23110W        W93710  43.790  13.705   1.162
23111W        W93711  17.818   9.073  11.549
23112W        W93712   1.730  12.965  13.513
23113W        W93713  32.954  24.756  11.454
23114W        W93714   7.403  14.565   1.779
23115W        W93715  29.021  19.209  12.305
23116W        W93716   7.892   4.239   0.409
23117W        W93717  23.457  20.955   2.227
23118W        W93718  26.242  31.165   0.689
23119W        W93719   4.785  27.478  11.173
23120W        W93720   7.975  33.996   2.604
23121W        W93721  25.009   4.882  13.850
23122W        W93722  12.313  18.132   0.925
23123W        W93723   5.701  25.634   3.612
23124W        W93724  29.505  22.134   3.252
23125W        W93725  17.664  32.364   4.815
23126W        W93726  27.421  14.155  12.150
23127W        W93727  29.865   1.893   2.743
23128W        W93728  12.135   0.930   0.265
23129W        W93729  43.743  37.103  13.927
23130W        W93730   8.854   4.845   0.579
23131W        W93731  29.513  24.186  14.912
23132W        W93732  12.561  27.057   2.865
23133W        W93733  29.069  16.309  11.998
23134W        W93734  13.819  28.927  13.981
23135W        W93735  19.031  14.106   3.883
23136W        W93736   8.145  13.858  14.695
23137W        W93737   2.326  17.040  12.194
23138W        W93738  28.246   3.984  13.925
23139W        W93739  19.282  35.504  14.044
23140W        W93740  26.132  21.719  11.060
23141W        W93741  22.536  44.031   3.234
23142W        W93742  23.791  15.875  14.022
23143W        W93743  18.881  38.148  11.211
23144W        W93744  38.369   1.434   3.294
23145W        W93745  20.004  32.494   0.413
23146W        W93746  39.040  35.030  12.819
23147W        W93747  40.908  19.736  10.325
23148W        W93748  12.698  28.183   2.331
23149W        W93749   7.546  25.139  12.459
23150W        W93750  19.308  23.937   1.225
23151W        W93751  26.221  10.988  11.469
23152W        W93752   8.906  18.912  14.867
23153W        W93753  12.713  42.734  12.106
23154W        W93754  40.920  22.535  12.873
23155W        W93755  14.193  44.972  10.884
23156W        W93756  14.831  41.633  10.526
23157W        W93757  14.139  10.746  10.505
23158W        W93758  23.765  31.505  11.536
23159W        W93759   7.384  41.170  13.613
23160W        W93760   1.765  42.203  12.135
23161W        W93761  13.224   5.828  11.174
23162W        W93762  34.002  37.831  14.800
23163W        W93763  26.497  19.541   0.894
23164W        W93764   2.517  12.285  13.432
23165W        W93765  11.194   8.227  12.574
23166W        W93766  42.072  15.029  12.642
23167W        W93767   6.749   9.101   3.747
23168W        W93768   8.237  18.120   0.819
23169W        W93769  22.566  42.989   4.142
23170W        W93770   3.028  18.242   3.292
23171W        W93771  38.040  26.191  13.030
23172W        W93772  17.065  41.868  12.101
23173W        W93773   9.155  11.423   0.930
23174W        W93774  34.870  39.472   3.306
23175W        W93775  40.585  32.882  11.486
23176W        W93776  11.857   5.870   3.193
23177W        W93777  12.721  20.250   2.779
23178W        W93778  37.015   5.308   1.415
23179W        W93779  20.501  29.006  14.852
23180W        W93780   7.432  39.012  14.610
23181W        W93781   5.176  30.908  12.433
23182W        W93782  15.902  26.535  13.847
23183W        W93783   9.439  33.077   1.830
23184W        W93784   5.802  29.990   2.201
23185W        W93785  11.875  42.185   1.297
23186W        W93786  40.272  16.804   3.684
23187W        W93787   8.897   0.992  12.410
23188W        W93788  42.736  43.087   1.027
23189W        W93789  31.427  35.645  13.847
23190W        W93790   1.808  33.243  12.735
23191W        W93791   9.541   6.524  12.276
23192W        W93792  18.693   5.322  12.268
23193W        W93793  19.224   0.717   4.473
23194W        W93794  31.186  37.032  11.648
23195W        W93795  38.980   2.262   4.771
23196W        W93796  20.262  16.641  14.380
23197W        W93797  33.153   0.259   3.108
23198W        W93798  31.016   3.422   1.773
23199W        W93799  31.647   6.332   4.766
23200W        W93800  32.348  33.187  11.516
23201W        W93801  13.198   4.356   3.752
23202W        W93802  28.230  35.853  13.184
23203W        W93803  19.941  29.544  11.420
23204W        W93804  25.406  30.444  13.845
23205W        W93805  21.248  43.773  10.643
23206W        W93806  23.478  13.686  13.527
23207W        W93807  16.170  36.955  13.494
23208W        W93808  28.950  38.779  14.464
23209W        W93809  43.641   2.769  13.761
23210W        W93810  38.644  34.009   3.814
23211W        W93811  37.580  36.851   2.156
23212W        W93812  15.774  37.669  10.277
23213W        W93813  35.576  19.958   2.828
23214W        W93814   0.257  34.583   1.264
23215W        W93815  38.276  23.883  12.010
23216W        W93816  19.735   9.722  11.475
23217W        W93817   9.236   6.020  13.600
23218W        W93818  28.303  36.519  12.417
23219W        W93819   0.406   9.097   4.279
23220W        W93820  31.633  20.502   3.680
23221W        W93821  30.585   4.170  14.687
23222W        W93822  16.720  10.553  12.450
23223W        W93823  36.756  43.647  13.062
23224W        W93824  27.426   9.532   2.253
23225W        W93825   2.402  29.638  10.650
23226W        W93826  18.833  19.160   3.657
23227W        W93827   6.236  14.175   4.918
23228W        W93828   5.762  10.155  13.835
23229W        W93829  20.631  38.897   2.588
23230W        W93830  41.340  24.481   4.312
23231W        W93831   1.724  20.560   4.218
23232W        W93832   8.669  28.633  10.472
23233W        W93833   9.125  41.401  12.377
23234W        W93834  11.366   8.362  13.427
23235W        W93835   9.232  31.258   0.892
23236W        W93836   6.137  38.764  12.572
23237W        W93837  14.638  12.257  10.202
23238W        W93838  25.554   3.795   4.622
23239W        W93839  11.609  39.668  12.653
23240W        W93840  15.953  10.593   4.087
23241W        W93841  18.896  42.707   2.840
23242W        W93842  18.624   7.870  10.981
23243W        W93843  43.267  16.370  12.104
23244W        W93844  42.182  38.775   2.838
23245W        W93845  36.780  34.013   2.106
23246W        W93846  22.211   3.909   2.307
23247W        W93847  41.830   1.876   1.636
23248W        W93848  34.093  15.110   1.411
23249W        W93849  32.510  34.973  12.873
23250W        W93850   4.434  44.084  14.242
23251W        W93851   8.948   7.255  13.832
23252W        W93852   2.078  11.198  12.428
23253W        W93853  28.964  29.474   0.842
23254W        W93854  32.058   6.707  11.372
23255W        W93855  20.114  19.241   1.877
23256W        W93856  39.078  20.554  13.515
23257W        W93857  21.491  31.124   1.883
23258W        W93858  21.035  30.518  11.855
23259W        W93859  18.323  43.332  12.491
23260W        W93860  16.174   1.522   0.946
23261W        W93861  16.284  23.676   0.487
23262W        W93862  37.006  11.041  10.404
23263W        W93863  31.623  23.503  10.729
23264W        W93864  25.982  24.407   3.754
23265W        W93865  10.198  23.357   3.027
23266W        W93866   2.072  33.153   1.905
23267W        W93867  29.168  30.419   0.263
23268W        W93868  33.652  41.126   2.303
23269W        W93869  33.888  19.071   2.827
23270W        W93870  44.299  30.155   4.060
23271W        W93871  12.595  14.688  14.037
23272W        W93872  43.681  22.669   3.339
23273W        W93873  35.363  35.636   3.568
23274W        W93874   5.365  32.945  12.144
23275W        W93875  17.292  25.224  11.035
23276W        W93876   7.255   8.261  12.855
23277W        W93877  40.383  23.370  11.603
23278W        W93878   5.983   4.338  10.559
23279W        W93879  17.338  23.514  12.589
23280W        W93880  20.028  21.116   4.843
23281W        W93881  36.498  38.001   3.622
23282W        W93882  41.822  44.702  14.356
23283W        W93883  22.151   1.172   1.686
23284W        W93884  34.426  25.048  14.026
23285W        W93885  19.994  32.451   1.841
23286W        W93886  38.813  30.569  11.130
23287W        W93887  44.783  43.708  11.670
23288W        W93888  25.120  36.656   3.420
23289W        W93889   7.722   6.129  12.118
23290W        W93890  13.174  35.172  13.826
23291W        W93891  29.902  11.669   2.312
23292W        W93892  14.595  44.869  12.547
23293W        W93893  34.415  22.236   3.103
23294W        W93894  40.332  38.282  14.355
23295W        W93895  18.783  16.207  14.381
23296W        W93896  13.789  34.919   1.749
23297W        W93897   0.490   8.072   1.831
23298W        W93898   5.294  18.111   0.428
23299W        W93899   9.310  44.017  10.488
23300W        W93900   3.765   1.827  13.109
23301W        W93901  43.010  21.160   4.508
23302W        W93902  20.612  21.146   1.757
23303W        W93903  18.813  24.137  11.148
23304W        W93904  21.505  39.961  12.061
23305W        W93905  41.963   2.683   2.897
23306W        W93906  22.508  25.411   0.931
23307W        W93907  25.577   0.340  12.365
23308W        W93908  29.796   3.543  10.269
23309W        W93909   2.862  17.207   2.337
23310W        W93910  14.723  20.728   0.812
23311W        W93911  24.140  38.597   4.008
23312W        W93912  33.173  28.850  12.082
23313W        W93913   3.934  30.523  10.744
23314W        W93914  26.983  11.848  11.157
23315W        W93915  39.844   7.609  10.930
23316W        W93916   2.600  41.491   2.783
23317W        W93917  25.260   4.790   3.801
23318W        W93918   7.698  44.094  12.497
23319W        W93919  25.427  36.505   1.793
23320W        W93920  38.987  20.264   3.634
23321W        W93921  40.337   0.264   3.339
23322W        W93922  44.882  23.455  11.068
23323W        W93923  12.776  27.258  13.521
23324W        W93924   3.414  33.992   0.370
23325W        W93925  21.655   2.874   0.449
23326W        W93926  32.086  20.992   3.699
23327W        W93927  31.879   8.431   2.209
23328W        W93928   9.530   5.183  12.611
23329W        W93929  29.208  16.477   3.188
23330W        W93930  43.530  21.344   3.117
23331W        W93931   8.631  25.714   2.606
23332W        W93932  21.292  35.883   2.186
23333W        W93933  32.896  30.602   4.987
23334W        W93934  24.538  35.864  12.133
23335W        W93935  20.034  11.086   0.043
23336W        W93936  35.000  12.375   3.163
23337W        W93937   5.512  30.948   1.805
23338W        W93938   8.725  22.776   4.644
23339W        W93939  29.052  41.254  13.354
23340W        W93940  40.030  16.114  12.397
23341W        W93941  31.195  40.490   0.589
23342W        W93942  44.982   2.152  13.755
23343W        W93943   5.634  15.270   0.693
23344W        W93944   6.529   3.789   0.428
23345W        W93945  22.715  25.254   2.296
23346W        W93946  23.675  39.397   1.904
23347W        W93947   8.457  20.260   3.165
23348W        W93948  38.337  36.615   0.698
23349W        W93949  23.778  39.945  10.963
23350W        W93950   2.806  13.484   3.123
23351W        W93951  15.267  18.781  12.946
23352W        W93952  31.412  38.937   2.222
23353W        W93953  18.085  33.074   4.850
23354W        W93954  14.682  17.518   4.057
23355W        W93955  44.774  42.008   4.912
23356W        W93956   8.244   8.698   4.473
23357W        W93957  44.557  26.972  11.115
23358W        W93958   3.789   6.493   3.965
23359W        W93959  13.466  32.868   0.493
23360W        W93960  28.052  16.306  13.411
23361W        W93961  10.458  12.834   2.661
23362W        W93962   7.797  27.182  12.859
23363W        W93963   5.766   4.393   4.112
23364W        W93964   3.871  44.487   1.144
23365W        W93965  18.816   9.223  10.746
23366W        W93966  19.252  24.985   0.325
23367W        W93967   2.671  15.034  13.604
23368W        W93968  29.990  30.342   1.728
23369W        W93969   1.710  31.517   2.357
23370W        W93970  19.752  21.710   0.521
23371W        W93971   5.877   5.802   4.037
23372W        W93972  13.820  10.374   3.233
23373W        W93973   5.000  35.648   3.633
23374W        W93974  10.215   3.492  12.863
23375W        W93975  32.927   2.898  12.414
23376W        W93976  28.667  26.022  12.426
23377W        W93977  44.144   0.930  11.496
23378W        W93978  25.618  16.216   2.847
23379W        W93979   7.219   6.299   0.305
23380W        W93980   0.346  13.213  13.399
23381W        W93981  24.033  44.298   2.408
23382W        W93982   1.399   3.900  10.624
23383W        W93983  36.633  13.207  11.177
23384W        W93984  31.447  44.717   2.056
23385W        W93985  27.504   9.355  13.496
23386W        W93986  39.974  39.367   3.435
23387W        W93987  36.768  43.539  12.039
23388W        W93988  23.007  38.903  14.919
23389W        W93989  42.461  42.303   3.637
23390W        W93990   9.729  18.543  12.529
23391W        W93991  29.740  39.911  12.011
23392W        W93992  36.145  24.749   2.112
23393W        W93993   6.688  44.489   4.378
23394W        W93994  38.397  30.668   3.723
23395W        W93995   3.410  19.667  11.721
23396W        W93996  40.794  14.374  13.540
23397W        W93997   4.364  10.318   4.812
23398W        W93998  23.779  36.060   3.594
23399W        W93999  40.478  31.104   1.238
23400W        W94000   6.322  42.020  13.524
23401W        W94001  19.598   8.037  13.087
23402W        W94002  10.735  44.958   3.687
23403W        W94003  29.945   4.928  12.633
23404W        W94004  21.674   3.336  13.802
23405W        W94005  29.740   7.305   4.257
23406W        W94006  44.595  22.199   3.809
23407W        W94007  17.042   6.770  13.417
23408W        W94008   2.326  19.178  13.347
23409W        W94009  26.633  20.065   0.766
23410W        W94010  16.994  11.733   3.647
23411W        W94011   2.722  20.509  13.991
23412W        W94012  35.977  10.284  10.490
23413W        W94013   4.095  25.090   4.063
23414W        W94014  32.310  33.326   4.586
23415W        W94015  32.999   2.285   1.484
23416W        W94016   6.135  24.494   3.736
23417W        W94017   9.404  18.421   4.627
23418W        W94018  21.227  17.667   4.940
23419W        W94019  11.458  34.818   0.424
23420W        W94020   5.140   5.817   0.973
23421W        W94021  22.377  28.631   9.886
23422W        W94022  22.634   1.019   1.043
23423W        W94023  24.514  10.710  13.071
23424W        W94024  18.482  23.631   0.706
23425W        W94025  15.708  10.090  13.279
23426W        W94026  12.730  10.904   3.454
23427W        W94027  22.155  31.603  11.079
23428W        W94028  15.803  42.432  12.333
23429W        W94029  33.511  44.264  12.499
23430W        W94030   6.922  24.622   3.124
23431W        W94031  19.624   4.028   4.555
23432W        W94032  17.356  42.661   2.700
23433W        W94033  25.902  39.303  11.289
23434W        W94034   6.713  40.623  14.483
23435W        W94035   8.275  43.810  13.490
23436W        W94036  10.679  25.759   3.332
23437W        W94037   6.290   3.551   2.682
23438W        W94038  28.959   5.897   1.696
23439W        W94039  17.654  33.485  12.019
23440W        W94040   0.475  25.150  11.785
23441W        W94041  12.500  29.655   3.865
23442W        W94042  39.614   9.883  11.620
23443W        W94043  15.708  19.287  14.368
23444W        W94044  37.982  38.524   4.154
23445W        W94045  41.486  39.158   0.323
23446W        W94046  11.872  13.799  11.117
23447W        W94047  30.638  40.560   0.865
23448W        W94048   0.268  18.077   1.242
23449W        W94049  28.903   0.394  11.830
23450W        W94050  29.552   3.489  12.531
23451W        W94051  13.359  44.703   3.052
23452W        W94052  13.369  16.986   3.813
23453W        W94053   0.527  19.040  11.131
23454W        W94054  17.070  36.758   1.693
23455W        W94055   5.815  25.781  10.762
23456W        W94056  31.693  31.530   1.816
23457W        W94057  30.383  33.895  11.553
23458W        W94058  35.959  16.801  14.258
23459W        W94059  27.559   6.992   2.896
23460W        W94060   1.499  25.921  14.794
23461W        W94061  11.257  25.013  11.588
23462W        W94062  25.149  14.257  12.216
23463W        W94063  10.779  30.462   1.410
23464W        W94064  29.052  41.960   4.614
23465W        W94065   1.494  15.060  10.672
23466W        W94066  29.816  36.425   0.314
23467W        W94067  22.457  23.731   3.080
23468W        W94068   7.422  43.703  12.815
23469W        W94069  25.482  28.983  12.527
23470W        W94070   8.093  11.084   3.725
23471W        W94071   3.311  32.692  13.609
23472W        W94072  33.986   8.134  12.418
23473W        W94073   4.437   9.200   1.423
23474W        W94074  19.769  23.544  12.480
23475W        W94075  41.620  43.968  13.705
23476W        W94076  23.497  17.028   3.427
23477W        W94077  44.740  10.598   0.824
23478W        W94078  11.888  28.138  10.697
23479W        W94079  34.865  41.274  13.541
23480W        W94080  29.683   2.151  14.010
23481W        W94081  11.432  13.638  12.405
23482W        W94082  25.619   5.570   1.163
23483W        W94083  19.431  11.942  11.636
23484W        W94084  34.029  40.525   4.638
23485W        W94085  40.128  17.218  12.783
23486W        W94086  24.288  37.295  14.441
23487W        W94087  20.042  23.658  14.358
23488W        W94088  25.938  10.674   4.163
23489W        W94089  26.052  40.268  12.640
23490W        W94090  43.587  42.217  11.210
23491W        W94091  22.444   3.918  10.490
23492W        W94092  40.615  36.052  13.690
23493W        W94093   5.182  41.895   2.965
23494W        W94094   9.856   5.574  12.579
23495W        W94095  31.131  28.619   0.231
23496W        W94096  16.352  40.359   4.205
23497W        W94097   3.275  18.527   1.270
23498W        W94098  39.757  15.664  14.103
23499W        W94099  18.655  39.936   1.810
23500W        W94100  27.857   9.940  11.144
23501W        W94101  44.543  17.502  11.075
23502W        W94102  21.129  15.051  14.188
23503W        W94103  32.640  41.843   4.618
23504W        W94104  39.345   9.735  10.750
23505W        W94105  16.007  18.420  12.311
23506W        W94106  40.510   1.988  13.885
23507W        W94107  13.057   8.616  13.975
23508W        W94108  13.472   9.266   1.725
23509W        W94109  43.057   6.159  11.624
23510W        W94110  23.792   7.268  12.962
23511W        W94111  17.208  35.303   1.799
23512W        W94112  26.304  35.003  13.900
23513W        W94113  41.304  21.214   4.719
23514W        W94114  23.952  29.148  11.528
23515W        W94115  10.773  26.743   1.224
23516W        W94116  10.231  43.501   3.646
23517W        W94117  17.787  34.076   1.577
23518W        W94118  32.194  33.569  11.898
23519W        W94119   3.695  40.983  12.164
23520W        W94120   7.264   7.457   1.681
23521W        W94121   1.035  27.657   1.317
23522W        W94122  19.718  44.872  13.349
23523W        W94123  41.091  12.641   4.808
23524W        W94124  39.590  16.920  13.802
23525W        W94125  22.346  16.256   0.345
23526W        W94126  32.982  39.673  12.790
23527W        W94127  27.970   0.791  10.761
23528W        W94128  17.710  15.383   4.161
23529W        W94129  11.718  10.093   0.799
23530W        W94130  34.747   7.956  14.339
23531W        W94131  41.262  12.978   2.600
23532W        W94132  26.178   6.391   4.362
23533W        W94133  17.111  20.170  11.893
23534W        W94134  10.144  26.269   1.786
23535W        W94135  42.810  15.621  13.986
23536W        W94136  38.186  40.561  11.082
23537W        W94137   8.358   2.345  13.066
23538W        W94138  34.615  18.907   3.294
23539W        W94139  44.495  18.367  13.895
23540W        W94140  36.903  25.076   3.222
23541W        W94141  27.718  25.593  11.024
23542W        W94142  18.598  38.643   4.187
23543W        W94143  41.576  29.984  10.757
23544W        W94144  39.370  33.374   4.562
23545W        W94145  12.452  34.510  14.360
23546W        W94146  36.811  30.514   1.218
23547W        W94147  31.133  11.835  11.233
23548W        W94148   9.110  35.075  12.502
23549W        W94149   9.411  34.226   1.818
23550W        W94150  24.443   3.427   2.031
23551W        W94151  44.026  26.199   1.857
23552W        W94152   9.133  38.354   0.668
23553W        W94153  41.899  43.014   3.661
23554W        W94154  40.831  40.376  11.682
23555W        W94155  14.370   6.800   1.896
23556W        W94156  12.801  13.171   2.722
23557W        W94157  37.611   8.721   2.010
23558W        W94158   0.171   0.279  14.450
23559W        W94159   7.131  30.149   2.693
23560W        W94160  26.355  25.413  10.481
23561W        W94161   3.263  32.654   0.049
23562W        W94162  43.744   2.729   2.709
23563W        W94163  23.905   6.658   3.304
23564W        W94164   3.670   9.692  13.031
23565W        W94165  15.397  32.963   1.538
23566W        W94166  10.957  35.058  11.061
23567W        W94167   8.199  15.314   1.299
23568W        W94168  33.959  28.679   1.537
23569W        W94169  16.658   0.967   0.490
23570W        W94170  19.617   8.825   4.485
23571W        W94171  36.662  35.110  13.002
23572W        W94172  35.785   6.179  13.076
23573W        W94173  26.972  30.040   1.285
23574W        W94174  18.144  40.360  11.900
23575W        W94175  23.054  27.597  13.794
23576W        W94176  15.259  19.663   2.554
23577W        W94177  33.878  13.139   2.851
23578W        W94178   2.846  37.289  11.115
23579W        W94179  44.152  15.230   4.277
23580W        W94180  28.740  33.621   4.574
23581W        W94181   7.135   4.909   2.857
23582W        W94182   0.867  20.795   1.268
23583W        W94183  23.174  13.318  13.901
23584W        W94184  17.537  12.711   3.939
23585W        W94185  18.129  19.681  11.554
23586W        W94186   8.671   6.789  14.711
23587W        W94187  28.098  41.729  10.817
23588W        W94188  14.668   2.185   3.401
23589W        W94189  40.841  10.024  12.030
23590W        W94190   3.756   7.381  11.061
23591W        W94191  17.050  42.193  11.297
23592W        W94192  31.887   9.081  10.797
23593W        W94193  11.972  31.795   5.031
23594W        W94194  14.012   5.441   3.466
23595W        W94195  18.564  21.276   0.767
23596W        W94196   9.862  26.171  11.402
23597W        W94197  21.254   3.415  12.831
23598W        W94198  28.967  14.579  13.767
23599W        W94199  22.742  31.104  13.442
23600W        W94200  30.637  40.370  13.112
23601W        W94201   3.286  38.582  12.575
23602W        W94202  15.566  33.454   2.832
23603W        W94203  33.500  11.994  10.748
23604W        W94204  20.221  25.674   2.168
23605W        W94205  33.355   4.980   2.313
23606W        W94206  41.836   6.109   1.401
23607W        W94207   2.609  27.099  11.290
23608W        W94208  38.458  20.719   4.161
23609W        W94209  12.113  14.923  14.355
23610W        W94210  37.989   0.595  13.281
23611W        W94211  28.228   5.120   4.864
23612W        W94212  35.597  21.201  13.997
23613W        W94213   1.947   9.627  14.012
23614W        W94214  22.099  26.011   1.469
23615W        W94215  24.141   6.302  14.391
23616W        W94216  35.231  40.801  14.301
23617W        W94217  10.255  24.186   5.353
23618W        W94218  42.036  15.254  14.836
23619W        W94219  10.345  16.160   4.822
23620W        W94220   5.192  14.870  11.978
23621W        W94221  37.423  18.399  12.570
23622W        W94222  11.226  18.034  13.737
23623W        W94223  13.405  17.289  12.157
23624W        W94224  10.875  17.078  13.865
23625W        W94225  14.627  14.762   3.196
23626W        W94226  26.766  37.529   1.725
23627W        W94227  41.260  40.109   0.563
23628W        W94228   9.665   7.818  13.958
23629W        W94229   8.170  35.574  13.545
23630W        W94230  27.076  31.524  11.000
23631W        W94231  15.318   2.190  13.554
23632W        W94232  37.434  12.122   1.238
23633W        W94233  12.775  38.633   0.199
23634W        W94234  35.668  20.443  14.412
23635W        W94235  26.139   8.908  12.572
23636W        W94236  38.087  17.177  10.570
23637W        W94237  29.014  26.223  13.929
23638W        W94238  18.277   5.386  12.968
23639W        W94239  19.163  12.703  13.124
23640W        W94240  39.201  29.655   2.719
23641W        W94241  39.011  34.919  11.818
23642W        W94242  44.534  34.592   0.975
23643W        W94243  24.911  13.798   0.998
23644W        W94244  38.269   5.925   1.182
23645W        W94245  29.512  38.114  14.851
23646W        W94246   5.426  37.030   4.233
23647W        W94247   3.733  19.009   2.856
23648W        W94248  26.512  34.420   2.725
23649W        W94249  21.512  34.876  13.079
23650W        W94250  33.966   3.850  11.880
23651W        W94251  37.435   1.949   1.307
23652W        W94252  19.140   1.147   1.311
23653W        W94253  38.006  40.043   2.716
23654W        W94254   0.903  32.332  14.295
23655W        W94255  37.319  28.228  14.890
23656W        W94256  16.610  28.995   1.866
23657W        W94257   5.249  17.502   2.144
23658W        W94258  44.762  14.687   4.258
23659W        W94259  12.944  15.759  11.572
23660W        W94260   0.487  37.084   4.559
23661W        W94261  39.101  19.546  13.969
23662W        W94262  42.886  42.024   3.753
23663W        W94263  43.034  17.300   2.162
23664W        W94264  20.725  39.509  12.081
23665W        W94265  37.287  21.881  13.891
23666W        W94266  42.361  19.032   1.370
23667W        W94267  24.149  19.272   2.685
23668W        W94268  36.637   5.703  10.566
23669W        W94269  31.383  43.300   4.133
23670W        W94270   2.158   0.727  11.577
23671W        W94271  25.906  43.437  14.167
23672W        W94272   6.704  44.012   0.026
23673W        W94273  28.861  13.072  10.692
23674W        W94274  44.570  12.742  14.421
23675W        W94275   5.416  13.800   0.934
23676W        W94276  13.258   4.671  12.081
23677W        W94277  44.687  39.306   4.527
23678W        W94278  18.096   9.849   1.343
23679W        W94279  15.695   9.286   4.524
23680W        W94280  38.835  20.014   4.617
23681W        W94281  33.640  23.694   9.996
23682W        W94282  34.548  33.928  12.127
23683W        W94283  42.400  43.473  14.395
23684W        W94284  13.673  16.479  12.693
23685W        W94285  22.636  21.143  10.756
23686W        W94286  24.566  34.898   2.347
23687W        W94287  27.478   7.655  14.568
23688W        W94288  35.179  38.498   4.723
23689W        W94289  39.439  22.475   0.653
23690W        W94290  23.939  16.488   2.280
23691W        W94291  38.548  29.847  14.421
23692W        W94292  28.894  36.174   4.491
23693W        W94293  34.487  40.222   0.990
23694W        W94294  27.565  16.296  10.678
23695W        W94295  40.922  43.788   2.104
23696W        W94296  12.982   3.740   2.743
23697W        W94297  37.551  26.018  12.937
23698W        W94298  16.095  22.188  11.360
23699W        W94299  26.524   3.752   4.654
23700W        W94300  35.498  26.248  10.987
23701W        W94301  34.957  23.451   3.755
23702W        W94302  19.842  37.097  13.768
23703W        W94303   2.419  13.099   0.746
23704W        W94304   6.698  29.989  13.421
23705W        W94305  39.393  21.736   4.241
23706W        W94306   9.076  31.489   2.601
23707W        W94307   6.443   9.903   2.875
23708W        W94308  30.985  11.865  14.883
23709W        W94309  18.608  36.151  11.173
23710W        W94310  42.866  12.833   1.332
23711W        W94311  15.591   7.319  13.461
23712W        W94312  35.090  24.069   0.202
23713W        W94313  21.689  21.019  13.859
23714W        W94314  36.127  33.793  11.148
23715W        W94315  11.143  24.973  13.340
23716W        W94316  40.791   5.276  12.044
23717W        W94317  35.511  35.890   2.214
23718W        W94318   9.607  37.096  14.844
23719W        W94319   4.272   2.000  13.518
23720W        W94320  19.053  21.449   0.688
23721W        W94321   0.941   1.780  12.564
23722W        W94322  38.285  37.448   2.329
23723W        W94323   9.034  28.014   4.493
23724W        W94324  33.967  21.686  11.809
23725W        W94325  37.007  20.455  11.610
23726W        W94326   5.810  25.469   1.305
23727W        W94327  22.002  11.012   0.981
23728W        W94328   1.766  40.941  12.498
23729W        W94329  19.578   6.804  11.632
23730W        W94330  30.429  27.322  13.397
23731W        W94331  20.640   8.802  12.980
23732W        W94332  10.655   7.309  13.795
23733W        W94333  16.582  19.239  13.170
23734W        W94334  44.631  23.238   2.389
23735W        W94335  14.965  25.656  12.580
23736W        W94336   3.329  43.008  14.424
23737W        W94337   4.755  12.425   1.631
23738W        W94338  44.481   7.149   0.306
23739W        W94339  10.481  27.512  13.477
23740W        W94340  43.192  43.540   2.793
23741W        W94341  26.043  29.891   1.476
23742W        W94342  16.561  17.200   0.951
23743W        W94343  34.373  27.213  11.096
23744W        W94344   4.839  22.299  13.269
23745W        W94345  18.327   5.670  14.270
23746W        W94346   0.839  35.894   1.416
23747W        W94347  40.508  33.900   3.357
23748W        W94348  27.189  37.175   0.871
23749W        W94349  10.776  19.963  12.118
23750W        W94350  23.988  10.372  12.419
23751W        W94351  20.726  23.976   0.358
23752W        W94352  30.912   2.823  10.410
23753W        W94353   7.213  11.724   4.100
23754W        W94354   3.936   6.554   0.117
23755W        W94355  15.898  12.356  14.580
23756W        W94356  22.308  10.767   0.642
23757W        W94357   1.046  29.590  14.267
23758W        W94358  25.290   3.333   1.711
23759W        W94359  25.699  33.449   0.778
23760W        W94360  24.825  12.185   0.559
23761W        W94361  16.317  44.283   2.388
23762W        W94362  12.229  35.832   3.897
23763W        W94363   9.083   1.286  11.632
23764W        W94364  32.896   0.279  10.637
23765W        W94365  26.277  16.589  12.952
23766W        W94366  27.269  33.493   1.398
23767W        W94367   8.029  35.207  10.628
23768W        W94368  42.007  10.790   3.227
23769W        W94369   2.039   7.277  13.451
23770W        W94370   2.460  33.873  13.974
23771W        W94371  22.838  42.779   5.465
23772W        W94372  15.787  16.167  14.419
23773W        W94373   7.394  27.741   1.394
23774W        W94374  23.339  41.845   0.458
23775W        W94375   8.344   4.407  13.508
23776W        W94376   4.547  22.547  11.300
23777W        W94377  13.209   2.634   3.231
23778W        W94378  10.846  13.353   3.248
23779W        W94379  11.142  14.020  12.603
23780W        W94380  36.719  15.604  11.212
23781W        W94381  33.076  24.999   3.162
23782W        W94382  19.864  38.279  12.885
23783W        W94383  36.958   6.491   1.628
23784W        W94384  22.104  27.588  13.392
23785W        W94385  27.053   6.768  11.648
23786W        W94386  25.616  21.476  12.292
23787W        W94387  43.018  39.366  12.856
23788W        W94388  28.552  10.071   4.647
23789W        W94389   1.679  34.141  13.419
23790W        W94390  32.071  21.594  13.497
23791W        W94391  33.629  16.996   2.539
23792W        W94392  10.948  24.299  12.990
23793W        W94393  20.654  29.854   4.626
23794W        W94394  39.770  22.452   2.684
23795W        W94395   2.255  41.590  14.973
23796W        W94396  41.961  26.637  13.886
23797W        W94397  26.084  42.980   0.843
23798W        W94398   2.436  42.399  10.709
23799W        W94399  14.317  21.975  13.563
23800W        W94400  13.093  25.300   2.802
23801W        W94401  25.700  19.008  13.098
23802W        W94402  37.847  16.312  13.537
23803W        W94403  12.717  18.557   3.397
23804W        W94404  37.551   2.639   4.411
23805W        W94405  23.326   1.983  12.078
23806W        W94406  28.620  23.842  12.915
23807W        W94407  14.271  29.035   4.688
23808W        W94408   3.668   7.773   4.869
23809W        W94409   8.395   2.675   2.586
23810W        W94410   1.545  26.086   4.564
23811W        W94411  38.444  15.949   2.424
23812W        W94412   0.963  23.070   4.157
23813W        W94413  28.289   5.318  14.235
23814W        W94414  14.760  44.036   5.400
23815W        W94415  30.105  28.571  13.545
23816W        W94416  22.178  11.658   4.085
23817W        W94417   9.031  26.771  14.666
23818W        W94418  38.015  16.271  14.052
23819W        W94419  24.024  37.733   1.277
23820W        W94420   9.421  38.564   3.532
23821W        W94421  29.437  43.335  11.712
23822W        W94422  28.558  15.200  13.291
23823W        W94423  13.173  38.580   1.350
23824W        W94424  23.556  36.442   4.598
23825W        W94425  38.373  22.549   4.191
23826W        W94426  30.843  37.333  11.913
23827W        W94427  35.651  36.370   0.418
23828W        W94428  31.002  21.743  13.531
23829W        W94429   6.933  40.802   1.933
23830W        W94430  13.141  28.170  13.133
23831W        W94431  35.460  24.898   4.400
23832W        W94432  13.336  41.831  13.833
23833W        W94433  28.506  40.950   3.624
23834W        W94434   4.346  19.358   5.037
23835W        W94435  18.598  17.730  12.059
23836W        W94436  18.163   2.457  11.913
23837W        W94437   1.468   4.432   4.428
23838W        W94438  42.309  35.062   4.069
23839W        W94439   4.905  25.525   1.297
23840W        W94440   3.348  32.746   3.162
23841W        W94441   4.379  44.517  13.492
23842W        W94442  33.011   0.974  13.477
23843W        W94443   2.795  41.354   1.668
23844W        W94444  12.074  17.706   0.713
23845W        W94445  37.479  24.436  11.699
23846W        W94446  36.360  44.516  13.104
23847W        W94447  39.447  38.563  14.296
23848W        W94448  15.738  40.734   2.701
23849W        W94449  34.866  16.162   0.362
23850W        W94450  10.118  42.597   1.409
23851W        W94451   7.374   3.935  11.634
23852W        W94452  41.967  20.335   1.198
23853W        W94453  34.162  14.436  13.068
23854W        W94454   1.339  19.573  14.918
23855W        W94455  13.042  41.803   1.660
23856W        W94456   0.672  28.012   5.245
23857W        W94457  26.647  30.988  11.119
23858W        W94458  22.317  10.564  14.016
23859W        W94459  17.228  44.791  10.688
23860W        W94460  19.624   3.282   1.982
23861W        W94461   3.301  38.062   3.791
23862W        W94462  24.588   4.402  12.539
23863W        W94463  14.552   3.771   3.799
23864W        W94464   1.482  28.574  14.321
23865W        W94465   5.199   6.856  12.735
23866W        W94466  11.370  23.657   0.211
23867W        W94467  30.073  44.859  10.631
23868W        W94468   2.873  17.726  14.859
23869W        W94469  33.691   5.789  11.381
23870W        W94470  10.757   4.592   0.498
23871W        W94471  29.193  16.207   0.710
23872W        W94472  19.640  25.100   4.783
23873W        W94473  44.941  35.422   4.680
23874W        W94474  32.658   1.487  11.571
23875W        W94475  41.141  41.200   2.098
23876W        W94476  30.582  21.677  10.615
23877W        W94477  13.290  36.578  14.811
23878W        W94478  25.101   5.838   2.334
23879W        W94479  19.439   4.497  14.533
23880W        W94480   4.727  34.019  13.724
23881W        W94481  39.301  34.931  14.644
23882W        W94482  30.418  29.194  10.716
23883W        W94483  20.734  33.992   0.720
23884W        W94484   0.297  40.452  12.710
23885W        W94485  12.719  18.367   4.701
23886W        W94486  43.562  38.009   2.366
23887W        W94487  44.824  22.517  11.110
23888W        W94488  24.811  35.289   1.923
23889W        W94489  44.332  40.131  13.064
23890W        W94490  21.894  30.226   1.820
23891W        W94491   1.273  11.729  12.809
23892W        W94492  22.146   7.765  14.941
23893W        W94493   1.747  38.304  11.516
23894W        W94494  39.375  31.548  12.503
23895W        W94495  25.579  41.418   2.344
23896W        W94496  30.842  32.534   2.850
23897W        W94497  32.963   1.003   4.242
23898W        W94498  17.734  30.400  11.504
23899W        W94499   6.382  44.868  13.809
23900W        W94500  22.672  12.763   0.123
23901W        W94501  32.973  26.916  13.243
23902W        W94502  44.252   3.509   0.477
23903W        W94503  39.490  10.530  11.133
23904W        W94504   7.720   1.548  11.107
23905W        W94505   0.718  36.582  12.303
23906W        W94506   8.751  22.063   0.474
23907W        W94507  32.929  41.267  14.333
23908W        W94508   2.545   3.965   1.891
23909W        W94509  10.529  35.393  13.535
23910W        W94510  25.409  32.486  13.173
23911W        W94511   7.256   9.277   4.497
23912W        W94512  20.630  15.203  11.120
23913W        W94513  39.311  15.162  12.487
23914W        W94514   4.843  14.111   2.651
23915W        W94515  15.350   5.254  11.570
23916W        W94516  34.896  41.278  14.295
23917W        W94517  26.236  16.818   4.927
23918W        W94518   0.319  10.020  13.337
23919W        W94519   2.313  39.542   4.056
23920W        W94520  18.541  44.453  12.640
23921W        W94521   9.395  42.703  11.579
23922W        W94522  29.923  40.604  14.978
23923W        W94523  27.109   5.172   1.483
23924W        W94524  27.049   4.135  14.477
23925W        W94525  40.282  32.530  10.663
23926W        W94526  26.007   7.613   3.837
23927W        W94527   8.857  17.206   3.246
23928W        W94528  27.396  10.970   4.576
23929W        W94529  24.647  30.109  14.702
23930W        W94530  26.007   6.161   0.737
23931W        W94531   4.774   5.629  11.554
23932W        W94532  43.316   7.111   0.567
23933W        W94533  13.164  39.113   0.744
23934W        W94534  38.495  14.402   4.326
23935W        W94535  17.567  23.074  11.150
23936W        W94536   2.277  20.712  12.708
23937W        W94537  20.131  35.601  11.095
23938W        W94538  21.393  37.146   0.341
23939W        W94539  19.176   9.108  13.938
23940W        W94540  36.521   4.381  14.537
23941W        W94541  14.520  42.610   4.602
23942W        W94542  38.844   5.195  11.537
23943W        W94543   2.958  40.956  13.473
23944W        W94544  29.545  25.384  10.728
23945W        W94545  36.971   8.749  14.235
23946W        W94546  37.938  24.111  13.888
23947W        W94547  37.248  37.700  11.187
23948W        W94548  16.768  29.432  13.731
23949W        W94549  27.265  36.419  11.178
23950W        W94550  18.777   8.723  11.499
23951W        W94551  13.844  42.193   1.882
23952W        W94552  17.621  41.475   3.805
23953W        W94553   9.147  29.093  14.926
23954W        W94554   5.886  36.939   4.658
23955W        W94555   3.907  42.808  10.696
23956W        W94556  27.612  39.772   1.862
23957W        W94557  24.977  43.319   3.617
23958W        W94558   3.972   8.497   4.587
23959W        W94559  27.687   9.817  10.627
23960W        W94560  21.149  24.086  14.520
23961W        W94561  42.561  22.541  12.910
23962W        W94562  31.966   4.839  11.752
23963W        W94563   9.139  15.318   2.110
23964W        W94564  28.219   4.522  12.300
23965W        W94565   5.654  20.921  14.956
23966W        W94566  19.218   0.483  12.550
23967W        W94567  39.481   3.032   2.779
23968W        W94568  29.894  15.725   0.265
23969W        W94569  23.776  43.240  13.772
23970W        W94570  41.708  33.028  10.712
23971W        W94571  18.322  31.839  11.257
23972W        W94572  15.482  28.091   5.168
23973W        W94573  29.161  23.700   2.531
23974W        W94574  14.887  18.688   1.105
23975W        W94575  16.223   8.211  10.722
23976W        W94576  24.550  38.346   3.193
23977W        W94577  29.565  17.089   2.476
23978W        W94578  11.162  18.301   3.218
23979W        W94579  25.912  38.835  10.559
23980W        W94580  39.612  11.499  11.406
23981W        W94581  33.159  14.600  10.624
23982W        W94582  23.703   2.275  13.081
23983W        W94583  30.158  29.420   1.794
23984W        W94584  44.954  37.409  13.274
23985W        W94585  30.955  33.772  11.032
23986W        W94586   5.830   5.213  13.579
23987W        W94587   3.755   5.675   4.245
23988W        W94588  38.649  26.851  11.373
23989W        W94589  38.877   3.948   0.593
23990W        W94590  36.169   8.992   0.867
23991W        W94591  35.640  21.716  13.411
23992W        W94592  34.713  36.267  11.107
23993W        W94593   7.179  10.397  14.428
23994W        W94594  43.245   6.147   4.209
23995W        W94595  33.904   0.960   1.697
23996W        W94596   4.138  32.854   4.283
23997W        W94597  33.037  22.149   0.317
23998W        W94598  22.312  43.407   1.055
23999W        W94599  37.348  35.333  11.179
24000W        W94600  22.289  23.590   0.372
24001W        W94601  38.464  36.774  14.321
24002W        W94602  20.561  39.989  14.683
24003W        W94603  27.977   8.197  11.180
24004W        W94604   8.662  44.383  12.964
24005W        W94605  24.026  21.801   1.389
24006W        W94606  22.248  14.142  13.045
24007W        W94607  23.803  35.079  14.838
24008W        W94608  44.869  26.156   4.923
24009W        W94609  32.832  33.010   2.582
24010W        W94610  12.526  17.366   1.437
24011W        W94611  26.290  12.257   3.199
24012W        W94612  44.421  37.697  14.928
24013W        W94613  30.285  24.551   4.090
24014W        W94614  13.827   1.114  12.920
24015W        W94615   1.442   7.094   2.303
24016W        W94616  21.244  17.685  14.537
24017W        W94617  21.035  19.147  11.057
24018W        W94618  15.780  40.311   4.034
24019W        W94619   4.459  21.606  10.558
24020W        W94620  37.374  27.734   3.325
24021W        W94621  44.396  23.082   3.563
24022W        W94622  12.842  29.117   3.918
24023W        W94623  32.853  25.456  12.424
24024W        W94624  26.526  39.819  11.254
24025W        W94625  13.162  17.212   0.207
24026W        W94626  43.788   1.955  10.874
24027W        W94627  10.143  31.005   2.727
24028W        W94628  10.683  22.972   4.627
24029W        W94629  27.647  29.639  10.936
24030W        W94630   5.942  43.386   2.553
24031W        W94631  44.139  24.844  13.349
24032W        W94632   2.752  10.124  14.500
24033W        W94633  24.028  39.930   0.847
24034W        W94634  23.083   7.224   3.340
24035W        W94635  17.935  38.105   0.517
24036W        W94636  20.674  16.448   4.647
24037W        W94637  20.889  23.509  11.568
24038W        W94638   4.259  19.729   2.988
24039W        W94639  19.490   0.209   2.242
24040W        W94640  41.021  16.980   4.985
24041W        W94641  18.065  20.078   3.895
24042W        W94642  37.811  23.430  10.552
24043W        W94643  19.738   7.116   2.224
24044W        W94644  14.154  42.198  14.429
24045W        W94645  41.751  15.533   1.852
24046W        W94646  25.708  27.908  10.057
24047W        W94647  39.920  24.152  11.930
24048W        W94648  28.684  32.707  12.944
24049W        W94649   8.922  11.310  12.719
24050W        W94650  38.634  44.468  12.010
24051W        W94651  31.547  41.088   2.666
24052W        W94652  18.065  38.927   0.780
24053W        W94653  18.966  43.786   2.280
24054W        W94654  33.416  38.026  12.381
24055W        W94655  29.480  40.961  13.503
24056W        W94656  17.166   1.364   0.778
24057W        W94657  39.713  21.130  13.969
24058W        W94658  35.809  38.562   2.763
24059W        W94659  34.374  42.337   2.708
24060W        W94660   2.642  43.746  12.450
24061W        W94661  17.217  17.751  12.450
24062W        W94662  37.979  13.099  12.978
24063W        W94663  11.492  25.358   1.779
24064W        W94664  11.168   9.318   1.820
24065W        W94665  38.595  16.767  13.984
24066W        W94666  21.209   0.855   2.960
24067W        W94667  30.018  43.762   4.074
24068W        W94668  34.981  25.492  11.435
24069W        W94669   5.603   2.436   4.818
24070W        W94670  15.529   0.866  10.815
24071W        W94671  11.866  11.766   3.120
24072W        W94672  18.757  31.442   3.384
24073W        W94673  29.190   2.870  14.041
24074W        W94674  35.601  34.651   3.695
24075W        W94675  32.872  42.320  14.353
24076W        W94676  31.001  35.547   0.764
24077W        W94677   0.928   5.927   1.472
24078W        W94678  20.244   0.307   3.739
24079W        W94679   6.154  23.776  12.188
24080W        W94680   4.727  22.574   0.294
24081W        W94681  16.096   6.770   2.912
24082W        W94682  39.011   4.940   1.796
24083W        W94683  34.433   9.022  12.978
24084W        W94684  31.090  39.862   2.746
24085W        W94685  26.685  39.442  13.325
24086W        W94686   6.904  40.315   1.724
24087W        W94687  42.699  26.694  11.224
24088W        W94688  44.047   9.854   0.788
24089W        W94689  11.087  39.797  14.337
24090W        W94690   1.728  34.808  10.336
24091W        W94691   1.086   8.380  11.465
24092W        W94692  37.091  40.073  10.465
24093W        W94693  33.948  26.211  14.699
24094W        W94694  27.228  22.693  11.519
24095W        W94695  15.608  36.585   1.709
24096W        W94696  43.910  24.550  10.773
24097W        W94697  12.898   8.653   0.367
24098W        W94698   7.027  16.024  14.464
24099W        W94699   1.669  32.127   1.262
24100W        W94700  14.037  16.729  14.394
24101W        W94701   0.693  12.401   4.685
24102W        W94702  36.819  31.348   1.048
24103W        W94703   3.314  38.507   2.343
24104W        W94704   5.410  20.412   3.166
24105W        W94705  43.347   4.315   1.350
24106W        W94706  27.418  25.072  14.828
24107W        W94707   5.974   9.603  14.284
24108W        W94708  33.492  25.545  14.338
24109W        W94709  20.829  13.325   4.192
24110W        W94710  31.291  18.299  12.051
24111W        W94711   9.181  30.380  13.148
24112W        W94712  34.837   4.932  14.819
24113W        W94713  12.689  39.335   1.248
24114W        W94714  29.972  24.467   1.101
24115W        W94715   9.353  16.287   1.170
24116W        W94716  13.711  13.558   0.751
24117W        W94717  22.077  25.662  10.991
24118W        W94718  23.523  44.188   1.769
24119W        W94719   1.853  25.706  14.456
24120W        W94720  25.503  34.864   1.208
24121W        W94721  35.816  33.535  13.383
24122W        W94722  24.271  33.205  11.119
24123W        W94723   6.726  31.076  11.378
24124W        W94724  38.846  23.524   1.107
24125W        W94725  35.856  10.698  13.441
24126W        W94726  20.372  37.478  12.000
24127W        W94727   9.756   1.671   3.677
24128W        W94728  14.261  39.280  14.496
24129W        W94729  42.209  26.707  14.353
24130W        W94730  11.599  15.346   3.712
24131W        W94731  23.779  27.437  11.700
24132W        W94732   7.209  42.293   3.587
24133W        W94733  13.354   0.869   3.707
24134W        W94734  28.762   4.901  14.360
24135W        W94735  35.998  17.152   3.128
24136W        W94736   4.268  40.683  13.815
24137W        W94737  31.913  24.636   1.919
24138W        W94738  24.293  38.942  14.889
24139W        W94739   0.486  38.126   3.001
24140W        W94740  38.197   3.693  11.102
24141W        W94741  24.801  13.098  14.945
24142W        W94742  33.771  43.906  13.757
24143W        W94743  11.143  13.208  12.377
24144W        W94744  35.103  11.673  13.981
24145W        W94745  25.685  12.273   2.019
24146W        W94746   4.866   9.284  10.720
24147W        W94747  20.879   1.304   2.219
24148W        W94748  12.702  17.288  11.614
24149W        W94749  23.047   3.378  13.474
24150W        W94750  21.358  19.558  14.780
24151W        W94751  27.608  39.657   5.020
24152W        W94752  19.859  10.822  12.864
24153W        W94753  14.810  20.662   4.406
24154W        W94754  44.391   5.707  11.386
24155W        W94755  32.633  31.153   3.741
24156W        W94756  26.376  12.779  11.537
24157W        W94757   1.577  34.649  13.328
24158W        W94758  41.829   2.383   1.765
24159W        W94759  29.155  40.074   2.831
24160W        W94760  33.192  28.655   1.684
24161W        W94761  36.354  37.537   3.799
24162W        W94762  18.323  30.175   0.343
24163W        W94763   8.317  20.412   0.618
24164W        W94764  12.379  26.280  11.601
24165W        W94765   3.323  44.382   3.284
24166W        W94766   5.850  14.548  13.767
24167W        W94767  36.994  34.449   3.399
24168W        W94768  41.852  16.959  12.480
24169W        W94769  38.630  13.235   1.383
24170W        W94770   3.904   1.477  10.476
24171W        W94771   5.118  10.305   2.796
24172W        W94772  27.382  20.544   3.289
24173W        W94773  28.886   0.949  13.549
24174W        W94774   2.459  29.518  12.872
24175W        W94775   8.076  31.118   4.354
24176W        W94776  25.715  32.456  10.474
24177W        W94777   3.747  26.121   4.602
24178W        W94778   4.169  24.581   2.376
24179W        W94779   9.650  14.333   2.754
24180W        W94780   2.749  18.198   3.720
24181W        W94781  33.269  28.881   3.777
24182W        W94782  30.599  34.624   0.053
24183W        W94783  18.141  24.745  10.627
24184W        W94784  28.124  33.960   4.651
24185W        W94785  35.636  28.599   4.562
24186W        W94786   9.108   7.081  14.496
24187W        W94787  12.250  37.397   3.575
24188W        W94788  35.441  24.104   2.264
24189W        W94789  39.991  34.711  14.226
24190W        W94790   6.417  11.303  14.300
24191W        W94791  36.735  40.759   4.462
24192W        W94792  28.947   1.443   3.473
24193W        W94793  38.680  30.940   0.241
24194W        W94794  32.516   8.372  11.614
24195W        W94795  35.504  27.752   4.140
24196W        W94796  25.095  27.601   0.807
24197W        W94797  43.435  34.300  12.736
24198W        W94798  17.943  27.863  13.410
24199W        W94799  22.220   5.874  10.248
24200W        W94800  10.964   9.208   3.623
24201W        W94801   3.301  44.857   4.919
24202W        W94802  42.463  38.095   0.910
24203W        W94803   2.282  31.559   0.157
24204W        W94804  15.087  15.682  13.070
24205W        W94805  39.218   2.502  11.129
24206W        W94806  21.971   6.287   3.632
24207W        W94807  28.507  17.190  14.340
24208W        W94808  28.165  40.298   3.332
24209W        W94809  39.915   4.178  14.457
24210W        W94810  12.824  40.376  12.164
24211W        W94811  35.245  30.711   0.433
24212W        W94812  23.090   5.307   1.467
24213W        W94813  32.055  24.072  14.843
24214W        W94814  37.368  19.134  10.955
24215W        W94815  44.728   1.775   0.003
24216W        W94816   2.828   7.727  14.282
24217W        W94817  42.809  32.139   3.169
24218W        W94818   7.291  22.313   3.645
24219W        W94819   1.401  41.266   2.230
24220W        W94820  34.724  13.453  11.104
24221W        W94821   1.268  42.035  12.123
24222W        W94822  25.982   6.019  10.617
24223W        W94823  22.943  11.236  12.518
24224W        W94824  20.325  16.593  12.082
24225W        W94825  29.958  35.045   1.321
24226W        W94826  41.953  18.034  14.815
24227W        W94827  28.433  13.218   4.270
24228W        W94828   3.519  13.276   2.861
24229W        W94829  40.924   7.929   4.999
24230W        W94830  37.140  36.353  10.713
24231W        W94831  42.940  22.988  14.383
24232W        W94832  10.878  13.638  14.544
24233W        W94833  34.855  23.807  14.282
24234W        W94834  30.423  22.535   4.226
24235W        W94835  21.154   1.789   3.435
24236W        W94836  21.679   2.695  14.961
24237W        W94837  17.027   5.266  11.579
24238W        W94838  28.432  15.699  10.674
24239W        W94839  37.374  34.554  13.594
24240W        W94840  29.535   0.849   2.303
24241W        W94841  35.088  30.073  10.860
24242W        W94842  29.393  38.966   4.343
24243W        W94843  12.808  34.609  11.382
24244W        W94844  44.839  30.026   2.860
24245W        W94845  43.026  41.822  14.957
24246W        W94846   3.881  38.181  11.066
24247W        W94847   1.362  32.386  11.242
24248W        W94848   3.237  38.287   2.822
24249W        W94849  20.736  43.598  10.448
24250W        W94850  36.466  33.046   3.776
24251W        W94851  37.444  42.428   4.688
24252W        W94852   9.756  13.120   0.429
24253W        W94853  31.018  24.450   2.986
24254W        W94854  34.437  40.734  14.812
24255W        W94855  44.797  12.850   0.749
24256W        W94856  26.157  41.895   3.181
24257W        W94857  42.353  20.701   2.747
24258W        W94858  22.690   0.385  14.313
24259W        W94859  30.401  13.709  13.551
24260W        W94860  29.927  21.906  13.448
24261W        W94861  33.290  34.957   3.490
24262W        W94862  37.464  40.989  14.839
24263W        W94863  27.129   2.610   3.316
24264W        W94864  26.916   2.670   0.973
24265W        W94865  44.241   9.400   3.763
24266W        W94866  39.475   1.048  13.726
24267W        W94867  30.874   8.209   0.444
24268W        W94868  26.673  39.298   4.633
24269W        W94869  20.069  27.504   4.939
24270W        W94870  39.977   6.453   0.854
24271W        W94871   8.921  39.291  12.207
24272W        W94872  35.776  26.671   1.283
24273W        W94873  35.688   8.727   4.194
24274W        W94874  10.567  35.198  11.411
24275W        W94875  42.951  25.171   3.247
24276W        W94876  27.367  27.992   1.163
24277W        W94877  14.028   0.808  11.363
24278W        W94878  12.738  12.770   0.516
24279W        W94879  37.074  44.004  13.410
24280W        W94880  38.406   8.966  12.510
24281W        W94881  25.555  15.032  12.497
24282W        W94882  36.999   3.466   3.644
24283W        W94883  44.728  27.966   0.259
24284W        W94884  23.491  31.939  12.863
24285W        W94885   9.704  34.538   3.816
24286W        W94886  37.632  39.228  13.322
24287W        W94887  27.718  27.520   1.998
24288W        W94888  42.113   8.118  12.962
24289W        W94889  35.965  22.042   1.449
24290W        W94890  10.407  14.224   0.520
24291W        W94891   1.550  18.572   2.503
24292W        W94892  21.006  24.887   4.061
24293W        W94893  41.908  21.172  12.577
24294W        W94894  21.900   0.030  13.809
24295W        W94895  14.077  18.090  11.216
24296W        W94896   3.715  20.538   4.369
24297W        W94897   3.967  12.881  13.647
24298W        W94898  29.574  23.883   3.723
24299W        W94899  33.471  29.519  11.203
24300W        W94900   7.933  27.213   1.878
24301W        W94901   2.085  37.502  12.082
24302W        W94902   0.423   3.531   2.433
24303W        W94903  34.457  31.316  14.939
24304W        W94904  15.186   9.113   2.395
24305W        W94905  33.856  29.640   1.982
24306W        W94906   2.068  31.516   4.169
24307W        W94907   3.278   7.853   4.071
24308W        W94908   8.846   5.909  10.831
24309W        W94909  21.145   2.490   1.821
24310W        W94910   6.885  13.376  14.434
24311W        W94911   6.267  37.163   1.154
24312W        W94912   7.927  24.201  13.950
24313W        W94913  42.244   8.152   9.660
24314W        W94914  28.729  36.898   2.434
24315W        W94915  31.670  32.402  11.127
24316W        W94916  36.730  39.865   3.167
24317W        W94917  18.600   7.351   0.639
24318W        W94918  41.564  27.469  11.076
24319W        W94919   8.121  24.899  11.228
24320W        W94920  20.790  34.501  11.701
24321W        W94921  28.415  19.627  13.342
24322W        W94922  31.354  30.729   2.777
24323W        W94923   8.597  39.075   3.465
24324W        W94924  41.421  33.894  14.880
24325W        W94925  12.716  34.127  12.084
24326W        W94926  25.265  39.995  14.899
24327W        W94927  19.743   3.864  11.867
24328W        W94928  10.729  33.391   3.308
24329W        W94929  43.048  25.731  14.209
24330W        W94930  32.300  42.902   3.147
24331W        W94931  35.528  20.541  11.505
24332W        W94932   6.724  41.957  14.111
24333W        W94933  16.304  25.805   3.271
24334W        W94934   7.600  30.900  14.997
24335W        W94935  23.935  10.809   3.896
24336W        W94936   1.540  39.444  10.833
24337W        W94937  15.676  23.364   1.723
24338W        W94938  21.737  30.590  11.163
24339W        W94939  27.665  39.637   0.951
24340W        W94940   7.791   3.435  12.833
24341W        W94941  40.272  42.018   2.763
24342W        W94942  10.694   8.920   0.763
24343W        W94943  27.578  43.927  14.593
24344W        W94944  22.632  31.486   1.421
24345W        W94945   6.869  25.278  11.574
24346W        W94946  29.888  10.029   4.701
24347W        W94947  10.637  18.656   0.819
24348W        W94948   4.282  11.157   1.746
24349W        W94949  10.202  34.841   5.023
24350W        W94950  28.551  38.820  11.010
24351W        W94951  33.373  25.354   1.304
24352W        W94952  30.517  26.717   2.768
24353W        W94953  11.846   5.352   0.976
24354W        W94954  33.324  27.969   3.750
24355W        W94955  24.172   2.756   3.630
24356W        W94956  18.230   9.733  10.623
24357W        W94957  11.189   5.211  11.503
24358W        W94958   7.794   1.065   2.464
24359W        W94959  27.574   3.029  14.932
24360W        W94960  30.679  29.179   2.443
24361W        W94961   3.986  16.732  13.432
24362W        W94962   9.210  36.312  11.712
24363W        W94963  28.118  21.374  14.433
24364W        W94964  30.003  29.262   1.312
24365W        W94965   0.913  17.462   4.808
24366W        W94966  16.813  31.192  12.551
24367W        W94967   0.356  28.713   0.370
24368W        W94968  10.394   6.276  11.503
24369W        W94969   9.263  15.585   2.854
24370W        W94970  23.118  20.434  12.950
24371W        W94971  31.096  14.157   0.443
24372W        W94972  10.662   3.751  12.964
24373W        W94973  34.326  10.273   3.709
24374W        W94974  15.730  18.835   0.045
24375W        W94975  43.391  27.060   2.106
24376W        W94976  40.765  29.665   4.744
24377W        W94977  37.914  12.605   0.229
24378W        W94978  31.515  16.438  12.585
24379W        W94979  28.543  18.444  14.380
24380W        W94980   3.687   9.458   4.737
24381W        W94981  16.185  19.888   4.540
24382W        W94982   3.180   8.420   0.968
24383W        W94983  31.502  11.887  10.747
24384W        W94984   8.263  22.150   3.604
24385W        W94985  38.101  19.765  13.769
24386W        W94986   7.160  25.879  12.002
24387W        W94987  14.585  31.097   1.903
24388W        W94988   3.463  26.044  13.582
24389W        W94989   1.482  36.480   0.333
24390W        W94990   7.463   9.775  12.002
24391W        W94991  16.438   9.286  12.910
24392W        W94992  33.833  27.731  11.578
24393W        W94993   6.359  11.345  12.869
24394W        W94994   5.645  25.059   2.249
24395W        W94995  10.869   3.168   2.865
24396W        W94996   5.719  44.276   0.803
24397W        W94997  22.190  18.698  14.161
24398W        W94998  34.816  34.543   0.541
24399W        W94999  11.255   5.611  14.889
24400W        W95000  12.420  34.816  12.595
24401W        W95001  39.080  10.155  12.964
24402W        W95002   9.713  18.186  12.909
24403W        W95003  23.039  17.778   2.968
24404W        W95004  40.533   7.749  12.968
24405W        W95005  37.851   6.898   3.176
24406W        W95006  44.287  29.111   1.830
24407W        W95007  18.595  11.266  14.432
24408W        W95008  22.137  42.381  11.678
24409W        W95009   0.563  16.775   3.975
24410W        W95010  24.144   2.338   0.216
24411W        W95011   9.816  44.962  13.949
24412W        W95012  29.906  24.100  10.664
24413W        W95013  28.251  24.884  13.531
24414W        W95014  29.130  36.502  14.034
24415W        W95015   8.811   5.325   3.197
24416W        W95016  38.941  29.239   2.924
24417W        W95017  27.543  16.089  13.594
24418W        W95018  22.733  20.611   9.958
24419W        W95019  22.069  39.236   2.333
24420W        W95020  33.601   4.792   5.069
24421W        W95021  22.046  10.177   5.039
24422W        W95022   0.942   9.744   4.399
24423W        W95023  23.196  34.711  13.862
24424W        W95024   5.437  36.590  13.309
24425W        W95025  39.471   7.611   1.728
24426W        W95026  19.664  44.916  11.936
24427W        W95027  38.323   2.844  13.889
24428W        W95028  15.940   9.222  11.853
24429W        W95029  31.644  29.451   3.928
24430W        W95030   8.649  10.770   0.317
24431W        W95031  29.623  23.699   1.198
24432W        W95032   0.198   6.807  11.126
24433W        W95033   4.236  24.087  11.828
24434W        W95034   5.637  20.533  11.974
24435W        W95035  18.977   9.230  14.782
24436W        W95036  14.737  30.260   4.694
24437W        W95037  42.397  31.603   2.332
24438W        W95038  40.102  40.733  11.962
24439W        W95039   6.827   4.728  13.540
24440W        W95040  11.746   5.477  13.014
24441W        W95041  38.915  16.034   0.827
24442W        W95042   0.201  13.428  11.220
24443W        W95043   7.727  17.608   1.482
24444W        W95044  12.882  14.132   3.887
24445W        W95045  29.939  11.124   1.389
24446W        W95046  37.103  34.560  11.219
24447W        W95047  24.481  15.024   1.408
24448W        W95048  38.857  25.620   2.342
24449W        W95049  43.534  17.312   3.243
24450W        W95050  23.567  41.986  13.491
24451W        W95051  15.258  39.409   1.794
24452W        W95052   7.336  29.447  13.027
24453W        W95053  16.382   7.979   2.181
24454W        W95054  10.782  12.216   4.639
24455W        W95055  12.705  40.363  10.870
24456W        W95056  38.821  17.005   2.677
24457W        W95057  11.172  17.357   3.558
24458W        W95058  26.939  39.960   1.342
24459W        W95059   7.881   3.834   2.344
24460W        W95060   6.754  42.285   3.269
24461W        W95061  44.333  13.403   4.856
24462W        W95062  33.132  16.198  12.612
24463W        W95063  40.289  10.309  13.986
24464W        W95064  33.955  41.830   4.386
24465W        W95065  15.705   5.123  14.928
24466W        W95066   0.829   9.535  11.113
24467W        W95067  44.801  11.135  14.357
24468W        W95068  44.156  34.454   4.297
24469W        W95069   1.577  10.823   3.110
24470W        W95070   0.332  41.043   1.464
24471W        W95071   6.235   1.416   0.985
24472W        W95072  13.592  27.471  12.144
24473W        W95073   0.852  11.901  10.729
24474W        W95074   0.796  22.459   0.691
24475W        W95075  29.568  18.790  14.969
24476W        W95076  23.998  23.159   2.318
24477W        W95077  16.052  21.565   3.749
24478W        W95078  25.000  13.326   1.773
24479W        W95079   1.793  25.005  12.102
24480W        W95080  20.098  42.287   3.903
24481W        W95081  32.427  38.311  12.979
24482W        W95082   7.198  19.022   0.431
24483W        W95083   8.582   5.128   4.141
24484W        W95084   2.619  34.579  13.408
24485W        W95085  22.982  36.310   0.454
24486W        W95086  20.133  38.493   5.054
24487W        W95087  41.835  27.922  12.006
24488W        W95088  23.995   7.447  13.403
24489W        W95089  34.866  22.684   0.214
24490W        W95090  17.697  23.566   2.719
24491W        W95091  18.236  36.231   2.346
24492W        W95092   7.638   9.397  10.685
24493W        W95093   9.180   2.426   2.586
24494W        W95094  12.155  29.637   1.739
24495W        W95095  27.671   4.728  12.997
24496W        W95096  18.788  19.108  13.125
24497W        W95097  25.189  24.242  13.849
24498W        W95098  42.550  11.659   3.073
24499W        W95099  12.435  17.011  11.950
24500W        W95100  37.036   0.766  14.345
24501W        W95101  35.634  15.703  13.947
24502W        W95102  39.859  32.543   4.335
24503W        W95103  27.255  41.308  13.510
24504W        W95104  10.202   9.334  12.904
24505W        W95105  16.818  23.563  12.535
24506W        W95106   9.651  23.206   1.318
24507W        W95107  18.664  11.534  12.481
24508W        W95108  25.237  31.538   2.736
24509W        W95109   5.191  11.863   3.436
24510W        W95110   2.757   9.698  10.784
24511W        W95111  39.403  32.860  13.052
24512W        W95112  36.825   3.375  11.697
24513W        W95113  20.635  30.702   1.140
24514W        W95114  20.194  21.076   3.370
24515W        W95115  33.621  13.999  10.293
24516W        W95116  15.752  16.612  14.005
24517W        W95117  41.034   9.164  14.124
24518W        W95118  42.940  41.726   4.175
24519W        W95119  37.794   2.410  14.338
24520W        W95120  34.443  30.733  13.830
24521W        W95121  36.230  19.615  12.599
24522W        W95122  27.912  25.790   4.674
24523W        W95123   4.212  18.331   4.619
24524W        W95124  20.876  38.947  10.490
24525W        W95125  16.192  12.703   3.492
24526W        W95126  26.912  43.413   1.935
24527W        W95127  11.708  35.806   0.381
24528W        W95128  34.407  30.949   1.446
24529W        W95129   1.777   3.721   3.769
24530W        W95130  24.646  44.419  13.432
24531W        W95131  34.930  19.626   3.768
24532W        W95132  23.035  19.102  10.907
24533W        W95133  14.792  32.510  13.968
24534W        W95134  35.273  24.112   3.096
24535W        W95135  32.968  12.373  11.386
24536W        W95136  31.769  36.947   0.166
24537W        W95137  16.562  12.460   4.217
24538W        W95138  27.039  20.757  11.917
24539W        W95139  11.601  25.906   2.909
24540W        W95140   5.182  43.458   0.853
24541W        W95141  43.939  43.383   3.608
24542W        W95142  24.818  42.754   2.207
24543W        W95143   5.419   9.418  11.590
24544W        W95144  12.726   0.779   4.759
24545W        W95145  15.253  21.289   0.173
24546W        W95146  36.382  13.566  11.934
24547W        W95147  36.482  39.129   1.835
24548W        W95148   0.575  18.171   2.665
24549W        W95149  12.232  31.397   4.746
24550W        W95150  39.974  19.964  11.443
24551W        W95151  42.304  12.834  14.828
24552W        W95152  17.527   6.775   1.846
24553W        W95153  11.641  18.061   1.481
24554W        W95154  29.713   3.162  10.612
24555W        W95155   8.721  31.837  14.467
24556W        W95156  16.630  22.211  14.246
24557W        W95157   6.033   1.431   2.406
24558W        W95158  38.333  33.137   4.097
24559W        W95159  17.018  12.238   3.358
24560W        W95160   1.925  31.475  14.522
24561W        W95161  27.568  20.287   1.037
24562W        W95162  39.009  32.424  10.231
24563W        W95163   8.854  34.818   3.280
24564W        W95164  30.936  32.645  14.337
24565W        W95165  19.553   4.628   2.253
24566W        W95166  34.465  27.042   1.944
24567W        W95167  32.009   6.255  11.674
24568W        W95168  33.093  40.408   1.693
24569W        W95169  10.712   7.214   1.875
24570W        W95170  22.034  33.972   4.429
24571W        W95171  11.869  42.320  14.922
24572W        W95172  14.632   9.369  13.992
24573W        W95173   0.247   1.359   0.340
24574W        W95174  36.082  26.441   0.954
24575W        W95175  32.379  43.894   2.721
24576W        W95176  39.451  14.133  13.750
24577W        W95177   6.588  15.812   4.419
24578W        W95178  41.960  32.622   3.744
24579W        W95179   9.896  38.450  10.538
24580W        W95180   6.909   9.851   1.049
24581W        W95181  44.326  35.357   3.330
24582W        W95182  26.917  12.626  10.742
24583W        W95183  11.742  25.502  10.615
24584W        W95184  23.966  30.309   4.941
24585W        W95185  26.195  20.306   0.574
24586W        W95186  27.560  44.286   0.394
24587W        W95187   4.834  23.962  10.247
24588W        W95188  29.143  26.980  13.456
24589W        W95189  35.399  18.548  10.494
24590W        W95190  20.489  30.472  14.015
24591W        W95191  10.717   1.721  13.986
24592W        W95192   0.484  19.740  11.536
24593W        W95193   9.305   7.785   0.849
24594W        W95194  28.651  38.072   0.705
24595W        W95195   8.269  11.736   4.268
24596W        W95196  23.537   9.183  11.999
24597W        W95197  13.274  16.434   3.179
24598W        W95198  34.273  31.020  10.647
24599W        W95199  24.692  24.176   1.300
24600W        W95200  43.983  15.691  12.850
24601W        W95201   3.682  20.132   3.499
24602W        W95202  27.791   8.224   0.801
24603W        W95203  11.646  19.072  13.151
24604W        W95204  17.317  30.770  12.226
24605W        W95205  14.158  26.267   1.850
24606W        W95206  44.305  29.075  11.671
24607W        W95207  26.088  44.802   1.393
24608W        W95208  18.290  27.890   1.751
24609W        W95209  12.619  23.144  13.481
24610W        W95210  34.184  41.379  11.011
24611W        W95211   8.711  19.043  10.785
24612W        W95212  38.763   1.797  14.958
24613W        W95213  12.365   7.378  10.583
24614W        W95214   4.249  44.856  14.881
24615W        W95215   3.882  12.784   4.050
24616W        W95216   1.815   6.771  11.619
24617W        W95217  20.176  35.194   3.077
24618W        W95218  27.477  43.972   4.642
24619W        W95219  22.653  28.508  12.580
24620W        W95220  20.113  38.338  14.929
24621W        W95221  12.717   9.230  13.597
24622W        W95222   5.832  43.807   1.058
24623W        W95223   8.416   4.571  11.973
24624W        W95224  31.606   3.735  14.023
24625W        W95225  15.356   2.413  10.754
24626W        W95226  11.790   6.887  14.022
24627W        W95227  19.486  15.770  11.477
24628W        W95228  37.429  27.659  10.609
24629W        W95229  17.617  18.794   2.185
24630W        W95230  40.798  33.582  14.786
24631W        W95231  18.677   4.883  12.011
24632W        W95232  19.815  43.976  11.855
24633W        W95233   9.610  39.324  11.429
24634W        W95234  10.591  27.117   2.796
24635W        W95235  42.266  36.113   4.829
24636W        W95236  38.042   6.833   4.828
24637W        W95237  36.880   3.143  12.519
24638W        W95238  26.706  41.566   0.244
24639W        W95239  22.971  20.294   3.795
24640W        W95240   5.482  32.627   2.973
24641W        W95241  10.542  15.759   5.082
24642W        W95242   5.455  21.994   0.824
24643W        W95243  19.241  43.396   4.655
24644W        W95244  44.762  20.737   4.672
24645W        W95245  11.236   8.622  13.847
24646W        W95246  30.679  20.760   4.659
24647W        W95247  21.774  21.482   2.292
24648W        W95248  32.521  14.858   2.602
24649W        W95249  33.890  12.758  12.884
24650W        W95250  17.043   2.943  11.572
24651W        W95251  22.836  14.830   5.207
24652W        W95252  31.974  41.854   1.273
24653W        W95253   1.260  25.184  13.821
24654W        W95254  12.159  27.297  11.611
24655W        W95255  31.659  24.106   1.665
24656W        W95256   2.016  41.272  13.690
24657W        W95257  43.344  18.029   3.852
24658W        W95258   0.447  19.235   2.953
24659W        W95259  34.156   4.339   2.213
24660W        W95260  30.083  15.806   4.596
24661W        W95261  26.110  10.350   4.616
24662W        W95262  37.052  24.046  12.792
24663W        W95263  20.274   7.472   5.207
24664W        W95264  30.281   4.225  12.960
24665W        W95265  23.138  44.925  11.678
24666W        W95266  12.878  21.580   4.435
24667W        W95267  24.978  19.028   3.342
24668W        W95268  35.406  27.721   0.980
24669W        W95269  11.795   9.383   1.297
24670W        W95270  15.839  13.746  11.907
24671W        W95271  35.277  23.375   0.446
24672W        W95272  11.390  41.429  11.968
24673W        W95273   9.237   9.857   0.828
24674W        W95274   4.672  33.852   1.557
24675W        W95275  28.927   4.880   0.733
24676W        W95276  32.940  29.566   1.823
24677W        W95277   1.107  28.794  13.053
24678W        W95278  28.253   6.662  11.104
24679W        W95279  10.930   5.913   3.031
24680W        W95280  30.931  31.977   5.023
24681W        W95281  21.082  10.775   3.724
24682W        W95282  40.925  28.181  13.070
24683W        W95283  41.582   6.824  11.117
24684W        W95284  18.264   3.182  12.524
24685W        W95285   1.915  19.213  11.212
24686W        W95286   6.106  44.522  11.805
24687W        W95287  19.209  15.182   2.223
24688W        W95288  14.704  30.872   1.435
24689W        W95289  42.554   3.314   0.931
24690W        W95290  19.642   1.770   1.603
24691W        W95291  41.648   1.573  13.293
24692W        W95292  17.343  42.044   5.002
24693W        W95293   5.709  31.517  12.979
24694W        W95294  35.627  30.791   2.153
24695W        W95295   4.190  41.085  12.322
24696W        W95296  13.654  39.593  13.370
24697W        W95297  35.385  35.260  11.543
24698W        W95298  34.627  15.254   2.213
24699W        W95299   9.457  42.019  14.391
24700W        W95300  41.465  35.318  12.070
24701W        W95301   9.956  17.820   4.123
24702W        W95302  40.113  24.191   3.133
24703W        W95303   8.836  39.718  11.036
24704W        W95304  16.692  19.458   3.684
24705W        W95305  41.060  10.949   1.795
24706W        W95306  15.186  11.012  13.914
24707W        W95307  38.661  12.602  11.866
24708W        W95308  20.712  15.826   2.845
24709W        W95309  17.925  18.083  12.651
24710W        W95310  17.489  26.892  14.965
24711W        W95311  22.647  12.844  14.017
24712W        W95312  18.133  35.685  13.405
24713W        W95313  17.257  38.035   3.585
24714W        W95314  22.011  33.854  13.360
24715W        W95315  26.670  27.468   0.479
24716W        W95316  18.181  18.128   0.883
24717W        W95317   0.313  27.071   1.298
24718W        W95318  33.088  19.819   2.596
24719W        W95319  39.258  41.822   3.811
24720W        W95320  44.580  28.343   0.871
24721W        W95321  14.071  19.522   5.004
24722W        W95322  40.501  18.044  11.302
24723W        W95323  24.100  23.617  13.565
24724W        W95324   2.968  30.909  14.477
24725W        W95325  17.542  33.116  12.552
24726W        W95326  39.781  15.263  12.909
24727W        W95327   7.260  32.624   3.357
24728W        W95328  35.729   9.726   4.674
24729W        W95329  29.217  15.121  14.867
24730W        W95330  24.109   7.752   3.138
24731W        W95331   2.827   4.054   3.203
24732W        W95332  18.682  39.419   1.457
24733W        W95333  17.312   0.313   0.379
24734W        W95334  29.911  17.224  11.432
24735W        W95335  39.912  29.704   4.428
24736W        W95336  24.742  35.989  13.915
24737W        W95337  37.026  30.843   2.242
24738W        W95338   6.876  43.886  14.071
24739W        W95339   9.601  42.682  12.439
24740W        W95340  36.653   4.044   1.772
24741W        W95341  36.365  17.160  14.909
24742W        W95342  12.126  40.974   1.608
24743W        W95343  30.935   8.616  13.029
24744W        W95344  13.780   6.265   4.644
24745W        W95345  39.105  38.367   1.978
24746W        W95346   4.206   7.375  12.826
24747W        W95347  20.684  44.297  14.051
24748W        W95348  18.184  35.716  10.343
24749W        W95349   0.829  29.871   0.540
24750W        W95350   0.493  20.602  11.985
24751W        W95351  21.841   6.884  13.970
24752W        W95352  11.189   7.743  12.364
24753W        W95353   3.448   6.317   1.141
24754W        W95354  36.860  35.545   2.341
24755W        W95355   5.460  12.547   2.160
24756W        W95356  22.655  40.543   0.466
24757W        W95357  13.750   7.121  11.146
24758W        W95358  16.156   3.680  12.404
24759W        W95359  41.884   0.567  11.646
24760W        W95360  14.771  33.521  13.939
24761W        W95361   2.833   3.894  10.792
24762W        W95362  34.843  36.921   3.593
24763W        W95363  43.746  13.256   3.372
24764W        W95364  24.457  14.658  11.139
24765W        W95365  38.289  27.759   0.336
24766W        W95366  16.700   0.475   1.409
24767W        W95367  14.355  20.561  11.480
24768W        W95368  33.443  13.595   0.427
24769W        W95369  17.493  31.022  13.434
24770W        W95370   4.644  29.161   3.412
24771W        W95371   7.223  18.930   0.929
24772W        W95372  34.079  40.346  14.782
24773W        W95373   0.448  12.596   3.296
24774W        W95374  38.369  40.455   1.999
24775W        W95375   5.944   5.634   0.401
24776W        W95376   0.559   9.742   3.402
24777W        W95377  15.847  14.649   0.708
24778W        W95378  32.953  12.882  11.995
24779W        W95379  25.254  20.074  13.061
24780W        W95380  14.687   4.875   1.448
24781W        W95381   1.709  14.630   1.232
24782W        W95382   6.916  16.539   1.586
24783W        W95383   8.922  44.713   2.247
24784W        W95384   4.840  16.481   0.687
24785W        W95385  16.310   1.935   1.213
24786W        W95386   8.580   1.787   3.622
24787W        W95387  23.258  11.500   4.876
24788W        W95388  12.594  30.861   0.858
24789W        W95389  43.771  42.124   0.352
24790W        W95390  25.213  11.811   4.179
24791W        W95391   6.760  20.715   1.826
24792W        W95392  26.138  25.178   1.387
24793W        W95393  19.223  22.655   3.209
24794W        W95394  29.976   0.330  10.388
24795W        W95395   6.400  13.509   3.828
24796W        W95396  15.475  33.385   5.363
24797W        W95397   4.845   9.307   3.434
24798W        W95398   1.898   5.816  11.489
24799W        W95399   3.920   0.986  10.655
24800W        W95400  22.034  41.258   1.838
24801W        W95401   9.245  40.752  14.808
24802W        W95402  28.531   9.144  12.638
24803W        W95403  29.011  28.538   4.249
24804W        W95404   7.455   6.309   5.128
24805W        W95405   1.745  21.564   0.423
24806W        W95406  42.575   9.585   3.210
24807W        W95407  36.598  21.481   2.275
24808W        W95408  14.092   4.320  13.353
24809W        W95409  12.150   1.980   0.733
24810W        W95410  12.727  22.740   2.075
24811W        W95411  22.609   4.812  12.529
24812W        W95412   1.957  29.162  14.898
24813W        W95413  34.976  24.267  14.034
24814W        W95414   4.787  33.604   2.797
24815W        W95415  43.028   9.124   0.852
24816W        W95416  39.443   4.437   3.317
24817W        W95417  28.630  21.214   4.525
24818W        W95418  41.316  21.501  11.536
24819W        W95419  39.599  19.944   2.642
24820W        W95420  23.648  26.525  12.123
24821W        W95421  17.138  28.859   0.528
24822W        W95422  39.438  33.785  11.970
24823W        W95423  11.200  27.740  13.110
24824W        W95424  22.844  41.937  11.559
24825W        W95425  44.669  31.696  10.202
24826W        W95426  32.058  28.268  14.836
24827W        W95427  31.870  12.791   0.418
24828W        W95428  13.076  13.587   2.814
24829W        W95429  25.548  10.399  14.863
24830W        W95430  36.724   2.027   2.709
24831W        W95431  16.370  40.724   5.097
24832W        W95432  42.186  16.349   9.085
24833W        W95433  26.818  36.829  12.827
24834W        W95434  25.994   4.667   0.863
24835W        W95435   3.447  43.761  12.919
24836W        W95436  17.332   8.314  10.892
24837W        W95437  43.418   6.831   2.893
24838W        W95438   3.890   9.738   2.291
24839W        W95439  24.999   2.317  11.650
24840W        W95440  19.317  40.026   4.584
24841W        W95441  34.929  18.968  12.972
24842W        W95442  11.881  30.615   0.461
24843W        W95443  11.831  34.007   4.603
24844W        W95444  20.622  26.038   4.321
24845W        W95445  40.531  22.953  11.257
24846W        W95446   7.725  25.579   0.258
24847W        W95447   7.347  25.020  10.721
24848W        W95448  26.767  32.912   2.783
24849W        W95449  21.933  12.273  11.166
24850W        W95450  42.456  24.068  11.623
24851W        W95451  34.692   6.810   3.223
24852W        W95452  42.964  10.429   0.325
24853W        W95453  29.085   6.447  13.434
24854W        W95454  43.036  23.285  13.124
24855W        W95455   7.120  34.955   5.037
24856W        W95456   1.005  25.484  14.192
24857W        W95457  29.916  38.563  11.087
24858W        W95458  21.530  12.620  14.487
24859W        W95459  23.374  31.947  14.472
24860W        W95460  42.848   9.181   1.877
24861W        W95461  25.711  41.570   3.843
24862W        W95462   3.869  11.688   0.251
24863W        W95463   3.271  20.151  12.460
24864W        W95464  40.263  15.290   2.281
24865W        W95465  26.605   2.982  14.375
24866W        W95466  35.022  40.719   1.813
24867W        W95467  20.276  12.200   3.833
24868W        W95468  44.322  27.409   2.485
24869W        W95469  10.017   1.715  11.939
24870W        W95470  29.842  24.056   2.397
24871W        W95471  16.055   7.972  11.171
24872W        W95472  17.410  41.575  10.815
24873W        W95473   1.011   1.394  12.939
24874W        W95474  44.502  25.817  13.292
24875W        W95475  22.800   6.919  10.202
24876W        W95476  10.497  31.544  13.415
24877W        W95477  16.375   7.433  13.766
24878W        W95478  43.495  35.445  14.794
24879W        W95479   5.696  31.814   1.958
24880W        W95480   2.311   6.820  13.400
24881W        W95481  33.879  23.585   0.042
24882W        W95482   1.959  42.299   4.152
24883W        W95483   0.014  31.506   1.823
24884W        W95484  26.189   0.396  10.940
24885W        W95485   4.270   2.222   2.210
24886W        W95486  28.376  37.608  13.440
24887W        W95487  24.934  44.977  12.226
24888W        W95488   7.547  20.588  12.886
24889W        W95489  27.914  34.321  10.752
24890W        W95490  35.869  28.432   0.710
24891W        W95491  30.501  25.709   2.797
24892W        W95492  36.523  18.681   0.831
24893W        W95493  40.022  31.829   2.660
24894W        W95494   7.632  39.277  11.639
24895W        W95495  11.112  35.470  14.690
24896W        W95496  25.153  25.150   3.321
24897W        W95497   1.785  22.480  12.901
24898W        W95498  33.461  30.866   0.986
24899W        W95499  39.092  26.667   3.129
24900W        W95500  18.146  44.179   0.401
24901W        W95501  16.653   4.704  14.744
24902W        W95502   6.660   2.259  11.560
24903W        W95503  19.218  40.408  14.424
24904W        W95504   5.655  35.577   2.151
24905W        W95505  40.645  23.548   0.765
24906W        W95506  22.681  22.648   1.217
24907W        W95507  14.797  25.138  12.899
24908W        W95508  26.462  11.169  11.896
24909W        W95509  40.071  29.105  13.000
24910W        W95510  32.993  18.181   1.966
24911W        W95511  42.335  12.124  14.450
24912W        W95512  36.059  40.809   2.861
24913W        W95513  43.913   6.929  13.634
24914W        W95514  36.824  22.326  12.121
24915W        W95515  38.287  10.616   2.189
24916W        W95516  23.210  39.247   3.345
24917W        W95517  44.267  24.231   4.537
24918W        W95518   0.884  37.108  10.584
24919W        W95519   2.992  37.916  14.882
24920W        W95520   8.753  40.914  14.360
24921W        W95521   2.772  33.615   1.287
24922W        W95522   4.181  31.577   1.752
24923W        W95523  37.395  10.753  13.426
24924W        W95524   3.571  13.227  10.720
24925W        W95525   7.853  39.252   4.110
24926W        W95526  14.913   8.424   2.699
24927W        W95527  40.436  29.400   1.325
24928W        W95528  26.201  27.354  11.596
24929W        W95529  24.557   1.340   2.354
24930W        W95530  35.623   5.568   3.816
24931W        W95531  22.965  42.055  14.297
24932W        W95532  11.155  41.605  12.378
24933W        W95533  21.272  32.817  13.015
24934W        W95534  36.866   8.224   3.561
24935W        W95535   2.717  36.528  10.778
24936W        W95536   9.087   2.732   1.782
24937W        W95537  24.213  31.583  10.504
24938W        W95538  22.834  29.641   4.558
24939W        W95539  43.602   8.792   2.635
24940W        W95540  19.825  32.910   4.163
24941W        W95541  11.564  16.982  14.297
24942W        W95542  26.385  44.650  14.022
24943W        W95543  19.964   8.345  11.476
24944W        W95544  23.179  28.470  11.280
24945W        W95545  11.550  21.590   0.811
24946W        W95546  10.288   9.853  13.005
24947W        W95547   6.361  39.510   3.052
24948W        W95548  15.604  41.824  13.019
24949W        W95549  24.718  29.649   2.889
24950W        W95550   1.505  16.447  13.798
24951W        W95551  23.544  18.277  12.370
24952W        W95552  44.278  18.725   0.292
24953W        W95553  20.268   0.446   2.797
24954W        W95554   8.646  15.276   3.535
24955W        W95555  39.758  10.468  14.916
24956W        W95556  23.200   3.357   4.482
24957W        W95557  39.316  42.923   2.330
24958W        W95558  38.966  31.004   2.334
24959W        W95559  25.970  44.955  14.008
24960W        W95560   8.253  29.150   3.269
24961W        W95561  43.630  27.400  11.187
24962W        W95562  42.096  35.526  14.294
24963W        W95563   1.136  30.852  14.508
24964W        W95564  23.147  18.627   0.080
24965W        W95565  33.894   1.533  12.149
24966W        W95566  28.508  12.646  11.667
24967W        W95567  16.138  40.046  12.870
24968W        W95568  23.331  35.165   3.109
24969W        W95569   4.870  35.599   1.816
24970W        W95570  27.978  43.225  13.521
24971W        W95571  32.419  16.807   2.860
24972W        W95572  33.351  36.753   1.054
24973W        W95573  27.052  44.808   3.967
24974W        W95574  42.507   3.148  12.496
24975W        W95575   6.935   3.475   0.885
24976W        W95576  13.690  16.570   3.753
24977W        W95577  38.869   7.708   0.075
24978W        W95578  29.478   7.969  13.131
24979W        W95579  22.552   2.695  13.877
24980W        W95580   1.466  40.453   1.791
24981W        W95581   5.173  35.979  13.811
24982W        W95582  37.427  44.507   5.066
24983W        W95583   5.143   9.638  13.954
24984W        W95584   9.116  16.873  11.159
24985W        W95585  20.829  33.086   0.172
24986W        W95586   6.000  18.669  11.244
24987W        W95587  38.048   1.414  10.623
24988W        W95588  21.154  42.471  12.194
24989W        W95589  10.306  34.959  14.304
24990W        W95590  28.601  44.340   2.979
24991W        W95591  33.472  29.702  14.605
24992W        W95592  31.648  16.715  13.964
24993W        W95593  16.822   0.914   4.333
24994W        W95594  36.377   9.156   3.199
24995W        W95595  30.116  19.242   2.331
24996W        W95596  43.032  12.791  12.503
24997W        W95597  26.020  41.822  14.009
24998W        W95598   3.367  22.475  11.981
24999W        W95599  35.585   3.631   1.019
25000W        W95600  25.552  30.063   3.300
25001W        W95601  24.640  33.620  13.671
25002W        W95602  24.689  11.018  13.501
25003W        W95603  28.191   1.285   1.369
25004W        W95604  20.497  12.373   4.256
25005W        W95605  19.548   3.502   0.841
25006W        W95606  26.911  36.905   3.722
25007W        W95607  14.260  32.016  11.435
25008W        W95608  35.706  30.906  10.643
25009W        W95609  34.438  23.465  14.395
25010W        W95610  40.330  10.069  13.455
25011W        W95611   9.868  14.867   0.150
25012W        W95612  24.478  17.656  13.328
25013W        W95613  43.863   1.502  10.662
25014W        W95614  20.960  40.526   2.612
25015W        W95615   7.725  10.622   4.592
25016W        W95616  24.450  31.195  14.516
25017W        W95617  44.975  25.753   3.631
25018W        W95618  24.524  26.540   3.765
25019W        W95619  23.589  20.642   4.754
25020W        W95620  18.505  25.195  13.457
25021W        W95621  16.814  33.431   4.617
25022W        W95622  23.322  18.484   3.068
25023W        W95623  37.427  22.064   3.100
25024W        W95624   7.310  15.678   3.857
25025W        W95625  29.227  14.278   0.800
25026W        W95626  18.020  32.886  14.945
25027W        W95627  39.813   6.850   4.128
25028W        W95628  23.170  30.723  14.378
25029W        W95629  16.351  15.721  11.674
25030W        W95630  17.555   4.466   4.607
25031W        W95631  31.838   0.833  12.549
25032W        W95632  21.798  34.956   0.939
25033W        W95633  15.045  37.013   0.288
25034W        W95634  14.812  20.710  14.854
25035W        W95635  34.575  15.404   3.749
25036W        W95636  34.678  40.200   2.684
25037W        W95637   1.782  33.642  13.092
25038W        W95638  37.050  23.218  11.662
25039W        W95639  17.662   7.385  12.818
25040W        W95640  15.712   9.044   1.819
25041W        W95641  37.658  42.381   3.238
25042W        W95642  41.053  28.207   3.475
25043W        W95643  18.241  30.533   1.794
25044W        W95644  25.658  44.376   2.836
25045W        W95645  32.309  30.516  14.948
25046W        W95646  18.095  30.035   1.688
25047W        W95647  26.076  20.823  11.759
25048W        W95648  25.673  38.617  14.883
25049W        W95649  14.120  28.333  13.525
25050W        W95650  35.963  22.544   3.577
25051W        W95651  10.101  13.830   3.265
25052W        W95652   8.569  44.302  10.861
25053W        W95653   0.444  44.739  10.728
25054W        W95654  35.817   3.295   0.715
25055W        W95655   9.009  36.605  12.098
25056W        W95656  34.744  29.080   3.147
25057W        W95657   3.485  16.753   1.366
25058W        W95658  19.295  28.558   5.548
25059W        W95659  24.009  14.966   0.754
25060W        W95660  31.487  37.456  11.560
25061W        W95661  12.750  44.428  14.289
25062W        W95662  30.554   9.973  14.018
25063W        W95663  44.974   1.428   2.801
25064W        W95664  31.253  34.086   2.205
25065W        W95665  24.130  21.876   3.142
25066W        W95666  22.653   1.803   3.888
25067W        W95667  39.581  25.097  11.678
25068W        W95668   8.640   6.532   1.189
25069W        W95669  26.750  26.383  12.098
25070W        W95670   8.266   3.213   1.726
25071W        W95671  27.499  43.446   2.749
25072W        W95672   0.187  28.661   4.083
25073W        W95673   4.321  25.489   0.218
25074W        W95674  30.005   0.019   0.573
25075W        W95675  34.938  35.010   2.257
25076W        W95676  18.811   2.090  12.933
25077W        W95677  18.577  37.842  14.008
25078W        W95678   6.835  14.065   1.493
25079W        W95679  30.383  22.968   1.686
25080W        W95680   4.243  10.406   3.762
25081W        W95681  43.405   4.291  10.536
25082W        W95682  32.618   2.876   1.626
25083W        W95683   3.152  17.089   3.821
25084W        W95684  23.203   9.428   2.188
25085W        W95685  39.350  23.719  11.175
25086W        W95686  13.839   7.325   3.164
25087W        W95687  38.946  29.521  14.546
25088W        W95688  23.794  24.218   4.927
25089W        W95689  33.516   8.445  10.474
25090W        W95690  13.576  11.144   3.835
25091W        W95691   5.249  38.926  14.374
25092W        W95692  41.819  44.576  11.640
25093W        W95693  26.090  17.338   2.781
25094W        W95694  13.507  32.546   3.620
25095W        W95695  15.173  25.740  14.379
25096W        W95696   8.152  42.991  13.900
25097W        W95697  29.143  30.503   1.420
25098W        W95698  16.839  19.779  11.029
25099W        W95699  44.977  40.118  14.417
25100W        W95700   9.132  18.122   2.377
25101W        W95701   1.984   0.315   0.890
25102W        W95702   2.969  32.418   3.370
25103W        W95703  27.561   0.466   1.328
25104W        W95704  23.194  26.727  14.378
25105W        W95705  33.680  32.966  11.329
25106W        W95706  38.579  28.448  10.368
25107W        W95707  33.564   9.642   0.968
25108W        W95708  23.547  32.581   3.769
25109W        W95709  12.833  30.141   4.141
25110W        W95710  12.210  15.924   2.764
25111W        W95711  36.901  13.156   2.779
25112W        W95712  21.983  36.292   1.331
25113W        W95713  38.188  23.373  12.054
25114W        W95714  32.871  26.308  13.246
25115W        W95715  41.453  12.103   2.901
25116W        W95716  41.252  12.400   0.716
25117W        W95717   4.685   0.423   2.463
25118W        W95718  17.955   5.233   0.535
25119W        W95719  30.320  31.038   4.114
25120W        W95720  32.219  37.409  13.547
25121W        W95721  13.908  29.496  11.591
25122W        W95722   0.953  31.719  10.719
25123W        W95723  42.783   6.393   4.237
25124W        W95724  17.188  28.687  11.384
25125W        W95725   7.071  30.974   4.081
25126W        W95726  39.565   9.363   0.399
25127W        W95727  18.995  40.956  14.743
25128W        W95728  29.654  42.964  11.052
25129W        W95729  35.972  15.688   1.238
25130W        W95730  23.168   1.519   5.513
25131W        W95731  28.433  21.311  13.901
25132W        W95732   5.430   5.791   4.326
25133W        W95733  28.973  41.303   2.157
25134W        W95734  29.033  44.886   1.682
25135W        W95735  31.843  41.925  13.963
25136W        W95736   1.974  21.917   3.153
25137W        W95737  36.005  41.372   4.187
25138W        W95738  10.679  34.912   0.971
25139W        W95739  18.533  25.206  14.904
25140W        W95740  25.927  24.949  11.432
25141W        W95741  27.067  35.335   0.160
25142W        W95742  20.280  30.272  12.990
25143W        W95743   4.308  21.273  12.470
25144W        W95744  39.388  25.415  12.945
25145W        W95745   0.817   4.927   4.053
25146W        W95746   4.076  37.650   1.204
25147W        W95747  44.853  10.129   2.346
25148W        W95748   9.474  12.155  11.818
25149W        W95749  37.207  43.452   3.637
25150W        W95750  31.833   2.674  11.110
25151W        W95751   7.240   7.754  13.621
25152W        W95752   3.807  35.567  13.385
25153W        W95753  14.259  31.179   0.286
25154W        W95754  13.713  29.825   3.248
25155W        W95755  33.471  19.504  13.024
25156W        W95756   1.699  40.779   4.226
25157W        W95757  38.925   8.926   3.974
25158W        W95758  33.901  30.936   0.177
25159W        W95759  23.598  30.936   0.206
25160W        W95760  40.005  17.618  12.444
25161W        W95761  35.408  43.950   2.761
25162W        W95762  18.219  15.320   4.262
25163W        W95763   5.493  13.654  11.061
25164W        W95764   2.104  32.811  10.130
25165W        W95765  27.593   7.833  10.489
25166W        W95766  43.612  35.949  13.823
25167W        W95767  27.093   2.204   4.282
25168W        W95768  35.494   8.773  10.723
25169W        W95769  18.338  28.187  13.309
25170W        W95770  39.370  11.113  13.845
25171W        W95771  26.402  29.484   2.325
25172W        W95772  12.929  41.974  11.474
25173W        W95773  42.357  16.187   2.798
25174W        W95774  30.924  24.519   0.951
25175W        W95775  11.229  26.492   1.262
25176W        W95776   8.415   7.787  14.256
25177W        W95777   8.998  34.282   0.255
25178W        W95778  30.580   1.924  13.542
25179W        W95779  23.206  37.162   3.723
25180W        W95780  16.046  36.471  13.308
25181W        W95781  10.191   5.349   2.842
25182W        W95782  25.175   1.970  13.971
25183W        W95783  15.267  15.859  12.611
25184W        W95784  16.232  26.109  11.634
25185W        W95785  17.715  38.997  11.929
25186W        W95786  18.754  24.236  12.157
25187W        W95787  33.096  28.488   4.699
25188W        W95788  37.622  15.012  14.542
25189W        W95789  29.202  11.696   4.624
25190W        W95790   7.063  29.640   2.842
25191W        W95791   2.201  16.350   3.349
25192W        W95792  36.808  20.928   1.219
25193W        W95793  16.780  16.495   2.749
25194W        W95794  18.370  38.056  11.142
25195W        W95795  40.731  10.460   0.195
25196W        W95796  30.581  27.212  14.343
25197W        W95797  37.466  16.634   1.687
25198W        W95798  37.822   4.467   2.797
25199W        W95799  30.660  20.490  12.813
25200W        W95800  39.868  38.030  12.076
25201W        W95801   8.717  14.280   0.822
25202W        W95802  39.848  25.062  14.441
25203W        W95803  42.340   9.184  14.422
25204W        W95804  29.133  26.053   1.385
25205W        W95805   7.866  26.956  13.319
25206W        W95806  36.760  42.850   2.262
25207W        W95807  42.489  15.134   4.084
25208W        W95808  43.929  40.413   3.085
25209W        W95809  33.414  26.008   3.996
25210W        W95810  10.256  41.653   4.534
25211W        W95811  25.550  35.512  10.721
25212W        W95812  20.795  20.712   4.736
25213W        W95813   3.988   7.394   4.135
25214W        W95814  28.584  20.128  11.085
25215W        W95815  14.629  17.579  11.603
25216W        W95816  26.957  29.500   1.940
25217W        W95817   7.675  30.559   1.341
25218W        W95818  29.597  10.649   3.192
25219W        W95819  43.860  40.940  14.669
25220W        W95820  27.966  12.822   1.195
25221W        W95821  13.213  30.537   5.135
25222W        W95822  33.531  30.926  12.385
25223W        W95823  16.543  19.080   0.792
25224W        W95824   5.682  39.915   4.544
25225W        W95825   3.959   8.264   3.676
25226W        W95826   4.671  30.850  14.851
25227W        W95827  19.550  42.357   3.646
25228W        W95828   7.781  11.786  11.156
25229W        W95829  13.654  17.542   2.680
25230W        W95830  20.530  35.564   0.196
25231W        W95831  38.340   3.987  11.999
25232W        W95832  42.260  36.068   3.295
25233W        W95833  17.161  38.809  11.261
25234W        W95834  33.298  40.929  13.489
25235W        W95835  11.776  42.597  14.450
25236W        W95836  21.540  29.637  13.978
25237W        W95837  38.264  40.989   1.892
25238W        W95838   1.373   7.887  14.571
25239W        W95839   0.007  42.878  14.744
25240W        W95840  43.810  27.709  13.223
25241W        W95841  29.747  11.802   1.837
25242W        W95842  39.842  24.615  11.700
25243W        W95843  40.764   1.306   1.243
25244W        W95844  22.945  27.151   2.629
25245W        W95845  34.792  43.008   0.050
25246W        W95846  25.336  12.591   3.226
25247W        W95847   6.129  17.394   0.015
25248W        W95848  24.807  15.081   2.687
25249W        W95849  28.181  34.471  12.575
25250W        W95850  32.271  38.538  11.664
25251W        W95851  42.925  22.892   3.876
25252W        W95852   9.581  10.464   4.583
25253W        W95853   1.269   3.210  12.159
25254W        W95854  34.172   4.176   0.381
25255W        W95855  35.779  24.728  14.281
25256W        W95856  42.837  29.874  14.077
25257W        W95857  11.356  15.876  14.975
25258W        W95858  34.091  44.924   1.213
25259W        W95859  32.473  44.659   3.563
25260W        W95860  15.906  32.511   3.782
25261W        W95861  15.792   7.965   0.725
25262W        W95862  18.799  22.515   1.853
25263W        W95863  24.258  22.309   2.268
25264W        W95864  33.576  44.424   4.356
25265W        W95865  40.812  35.714  11.514
25266W        W95866  27.759  42.777  13.588
25267W        W95867  17.283  15.143   2.521
25268W        W95868   3.811  41.941   3.985
25269W        W95869  18.299  24.199   1.390
25270W        W95870  16.355  29.226  11.611
25271W        W95871  23.658  20.509  11.208
25272W        W95872  28.752  33.339  13.441
25273W        W95873  37.814   1.451   0.068
25274W        W95874  35.081   7.689   0.477
25275W        W95875  17.279  11.633   1.353
25276W        W95876   7.915  37.112  10.911
25277W        W95877   0.687  10.040  11.974
25278W        W95878  10.748  39.109  11.022
25279W        W95879  27.746  24.074  12.432
25280W        W95880  28.281   0.788   5.058
25281W        W95881  40.493  36.091  13.172
25282W        W95882  18.584  10.888  14.790
25283W        W95883   8.435   2.522   3.762
25284W        W95884   0.960   8.233   1.557
25285W        W95885   9.182   4.680  14.177
25286W        W95886  37.069   7.831   0.896
25287W        W95887  26.651  38.115  11.881
25288W        W95888   6.347  44.832  13.296
25289W        W95889   3.508  38.955  11.663
25290W        W95890   3.825  18.786   1.322
25291W        W95891  40.023  41.766  11.966
25292W        W95892  40.070  15.219  14.313
25293W        W95893  16.166  26.665  14.360
25294W        W95894  37.982  23.152  13.656
25295W        W95895   6.510  15.785   0.304
25296W        W95896  13.142   5.133   0.782
25297W        W95897  37.487  44.348  13.426
25298W        W95898  19.921  25.909   3.256
25299W        W95899  16.205   4.848   1.206
25300W        W95900  11.294  32.374   2.732
25301W        W95901  28.670  42.749   2.656
25302W        W95902  20.716  11.812   0.699
25303W        W95903   4.007  13.192   0.607
25304W        W95904  37.629  35.358  12.157
25305W        W95905  43.283  16.503   1.454
25306W        W95906  28.520   5.654  11.063
25307W        W95907  17.534  10.173   2.219
25308W        W95908  40.763  43.263   3.977
25309W        W95909  20.602  28.665   3.789
25310W        W95910  11.988  35.859   1.289
25311W        W95911  24.833  11.394   4.146
25312W        W95912   4.694  33.375   1.939
25313W        W95913  15.056  43.120  10.070
25314W        W95914  39.014  14.810   2.384
25315W        W95915  42.265  32.075  12.950
25316W        W95916  42.265  35.063   2.132
25317W        W95917  19.806  38.794   0.038
25318W        W95918   2.008   7.384  12.557
25319W        W95919  38.343   8.212   0.298
25320W        W95920   9.283  28.135   4.054
25321W        W95921  37.962  20.811  11.485
25322W        W95922  26.506  21.706  12.009
25323W        W95923  36.253  33.299   4.178
25324W        W95924  17.520  32.839  14.030
25325W        W95925  29.146  28.654  11.019
25326W        W95926  41.955  22.198   1.853
25327W        W95927   7.434  16.271  12.923
25328W        W95928  19.525  35.523  12.094
25329W        W95929  34.565  39.318   3.781
25330W        W95930   8.043   4.667  13.816
25331W        W95931  16.508  26.862  11.407
25332W        W95932  39.902  21.419  11.213
25333W        W95933  31.490   7.811  12.938
25334W        W95934  15.905  35.656  14.729
25335W        W95935   1.887  34.544   4.297
25336W        W95936  42.062  36.474   2.710
25337W        W95937  32.795  15.301  11.151
25338W        W95938   8.374   0.701   0.671
25339W        W95939  30.101  13.437   3.355
25340W        W95940  39.911  42.420   4.170
25341W        W95941  37.871  39.461   1.209
25342W        W95942  25.632  22.539  13.040
25343W        W95943   2.705  20.129   3.576
25344W        W95944  24.106   8.354  12.281
25345W        W95945  23.592  33.919   0.431
25346W        W95946  23.679  17.174  10.987
25347W        W95947  44.817  34.552  10.815
25348W        W95948  40.444  29.212   2.662
25349W        W95949  24.674  32.345  11.979
25350W        W95950  39.890  12.805   2.947
25351W        W95951  38.493  15.740   4.501
25352W        W95952  20.260  13.405   2.312
25353W        W95953  21.539  25.693  13.436
25354W        W95954  28.176  43.501  13.911
25355W        W95955  32.095  12.633  14.969
25356W        W95956   5.164   9.353  11.134
25357W        W95957   2.469  14.541   2.842
25358W        W95958  42.596  25.014  10.656
25359W        W95959  37.341  12.131  12.415
25360W        W95960  30.384  18.159  14.658
25361W        W95961  39.299  15.933  13.994
25362W        W95962  42.752  43.567   3.622
25363W        W95963   1.754  37.025   4.987
25364W        W95964   1.956  15.338   4.478
25365W        W95965  13.047  41.639  11.015
25366W        W95966   2.481  30.233   2.255
25367W        W95967  22.692  43.810  11.145
25368W        W95968   6.493  35.328  14.036
25369W        W95969  28.646  11.341  14.025
25370W        W95970  20.868  40.845   3.317
25371W        W95971   5.427  25.550  12.967
25372W        W95972   6.590  16.076   1.242
25373W        W95973  21.654  18.759   3.709
25374W        W95974  15.810   0.345   3.811
25375W        W95975  24.521  10.866  11.620
25376W        W95976   9.079  19.365   3.777
25377W        W95977   5.419  38.483   4.182
25378W        W95978   5.467  34.499  11.237
25379W        W95979  34.868  37.177  14.046
25380W        W95980  21.471  29.998   4.847
25381W        W95981  18.722  16.293   3.590
25382W        W95982  32.644   0.088   3.824
25383W        W95983   7.677   4.450   0.838
25384W        W95984   6.355   4.817  13.781
25385W        W95985  42.761  25.942   4.302
25386W        W95986  43.488  30.684  11.131
25387W        W95987  30.915  26.030   4.308
25388W        W95988  43.662  23.132   4.371
25389W        W95989   1.483  31.411   1.885
25390W        W95990  14.807  27.523  12.509
25391W        W95991  19.946   1.262   0.921
25392W        W95992  29.885  14.978   0.909
25393W        W95993  14.296   1.739   3.308
25394W        W95994  15.227  18.105  14.375
25395W        W95995  27.634   9.859   0.424
25396W        W95996   3.304  27.310   2.390
25397W        W95997  44.469  12.629   2.462
25398W        W95998   8.310  39.486   4.208
25399W        W95999  43.501  28.696   3.157
25400W        W96000   9.115  12.219   3.854
25401W        W96001  14.318   6.297  12.583
25402W        W96002  11.581  15.144  12.531
25403W        W96003  22.823  29.558   0.320
25404W        W96004  42.427  42.757  11.415
25405W        W96005   9.739  15.264  14.825
25406W        W96006  13.423  11.502  14.362
25407W        W96007  32.146  19.538   3.710
25408W        W96008  43.490  44.748  11.058
25409W        W96009  44.559  35.522   0.915
25410W        W96010  17.145  41.443  12.402
25411W        W96011  44.911   0.518   4.552
25412W        W96012  18.238   7.143  14.066
25413W        W96013   9.471  12.787  10.067
25414W        W96014  33.667  11.530   3.813
25415W        W96015  41.878  29.524  10.671
25416W        W96016  29.643  30.703   2.808
25417W        W96017   2.998   2.900  11.562
25418W        W96018  44.888  32.029   1.973
25419W        W96019  22.454  23.587  14.872
25420W        W96020  15.712  26.121   2.726
25421W        W96021   0.795   0.913   2.442
25422W        W96022  27.940  40.549   2.030
25423W        W96023   8.319  41.727  11.660
25424W        W96024  35.296  41.452   2.970
25425W        W96025  33.089  36.842   3.383
25426W        W96026  15.658  21.002  10.416
25427W        W96027  35.110   0.449   3.633
25428W        W96028  26.159  38.988   5.038
25429W        W96029  19.229   2.770   4.329
25430W        W96030  12.937  29.009   0.885
25431W        W96031  32.515  12.162   2.508
25432W        W96032   3.729   9.642   3.657
25433W        W96033   1.945   3.798  14.244
25434W        W96034  30.368  40.515  12.206
25435W        W96035  36.945  16.200   3.939
25436W        W96036  28.482  16.850  12.362
25437W        W96037  17.671  33.131   1.346
25438W        W96038  11.364  21.493  11.656
25439W        W96039  39.258  31.928   0.492
25440W        W96040  37.193  20.230   0.458
25441W        W96041  17.316  10.329   3.147
25442W        W96042  24.066  32.389  13.725
25443W        W96043   4.414  30.868   4.316
25444W        W96044  42.891  13.335   2.738
25445W        W96045  32.894  40.468  11.343
25446W        W96046  24.641  21.435  14.419
25447W        W96047  34.078   1.237  14.941
25448W        W96048   7.314   1.236  12.012
25449W        W96049  40.621  38.597  12.122
25450W        W96050  28.858  39.099   0.283
25451W        W96051  34.429  32.161  12.887
25452W        W96052  34.066  41.108   1.666
25453W        W96053  44.166   3.129  14.313
25454W        W96054  28.825   3.949  11.201
25455W        W96055  38.516  39.616   1.691
25456W        W96056  15.070  24.979   0.114
25457W        W96057  37.807   0.967  11.477
25458W        W96058   6.736  39.049  11.624
25459W        W96059   0.012  10.603  12.081
25460W        W96060   0.427  28.278   4.847
25461W        W96061   3.322  11.542   2.025
25462W        W96062  42.962  41.726  12.475
25463W        W96063  23.572  20.878  11.612
25464W        W96064  44.937  20.505  12.079
25465W        W96065  25.438  10.445   2.177
25466W        W96066   0.706  35.890  11.535
25467W        W96067  42.083   2.867  12.332
25468W        W96068  34.580  11.626   2.243
25469W        W96069  37.520   4.145   4.570
25470W        W96070  28.234  10.372   3.251
25471W        W96071  26.973  17.302   1.205
25472W        W96072  30.601  43.519  14.789
25473W        W96073  28.163   4.550  12.806
25474W        W96074  43.343  30.523  12.009
25475W        W96075  14.971  21.541  10.992
25476W        W96076  41.633  41.812  12.549
25477W        W96077  22.497  13.197   0.435
25478W        W96078  12.959  30.914   1.250
25479W        W96079  10.192  33.527   0.858
25480W        W96080  13.177   7.338  14.855
25481W        W96081  16.187  42.087   2.689
25482W        W96082  42.831  11.749  13.537
25483W        W96083   9.663  38.377   4.692
25484W        W96084   3.445  24.173  14.323
25485W        W96085   0.784  38.521  14.238
25486W        W96086  42.541  17.842  11.962
25487W        W96087  17.220  11.771   3.191
25488W        W96088  36.421  43.035  11.615
25489W        W96089  32.062  14.677   1.033
25490W        W96090  38.508   1.623  14.487
25491W        W96091  31.425  10.664  13.863
25492W        W96092  31.878   8.806  12.863
25493W        W96093  28.434   3.725  13.519
25494W        W96094  19.715  18.804  11.198
25495W        W96095  21.758   6.341   9.892
25496W        W96096  41.467   8.434  13.972
25497W        W96097   3.827  13.581  14.417
25498W        W96098  14.225  18.260  13.816
25499W        W96099   6.886  33.461   3.523
25500W        W96100  39.457  34.615  13.648
25501W        W96101  33.903  37.897   1.133
25502W        W96102  42.681  33.919  11.196
25503W        W96103  26.969  37.415   0.470
25504W        W96104  43.088   3.910  11.665
25505W        W96105   3.343  11.641  13.343
25506W        W96106  28.531   1.436   4.019
25507W        W96107   0.671  12.669  10.343
25508W        W96108  25.272  16.320   1.337
25509W        W96109  25.473  23.754  10.252
25510W        W96110  17.018  23.082  12.544
25511W        W96111  32.968  12.139   1.746
25512W        W96112  10.249   7.944   3.678
25513W        W96113   2.274  25.444   4.650
25514W        W96114   4.649  28.915   1.839
25515W        W96115  32.967  20.115   4.335
25516W        W96116  16.101  41.335  14.327
25517W        W96117  35.673  39.010   3.045
25518W        W96118  22.956  14.272  10.562
25519W        W96119  14.279  28.129   1.925
25520W        W96120   1.883  36.742  14.487
25521W        W96121  41.772  22.695   4.296
25522W        W96122  44.388  32.830   4.707
25523W        W96123  43.453  43.998  13.998
25524W        W96124  30.455   2.370   3.647
25525W        W96125  28.679  44.988  12.407
25526W        W96126  32.422  35.359   4.728
25527W        W96127  30.023  10.161  11.938
25528W        W96128  10.436  23.520  11.397
25529W        W96129   4.842  30.660  14.371
25530W        W96130  24.721  35.502  14.259
25531W        W96131  41.841   2.426   4.304
25532W        W96132   5.287   6.357   2.576
25533W        W96133  36.180  25.746   5.040
25534W        W96134  26.008  34.889   4.562
25535W        W96135  33.532  37.584  14.998
25536W        W96136   1.874  15.133   1.250
25537W        W96137  40.539  43.996  13.121
25538W        W96138  23.188  44.904   2.307
25539W        W96139   6.973  19.647   1.273
25540W        W96140   6.210  44.336  11.005
25541W        W96141   7.904  32.799  14.115
25542W        W96142  26.487  39.585  12.070
25543W        W96143  42.885  15.653  11.974
25544W        W96144  31.570  43.545  11.581
25545W        W96145  20.621  23.556   2.255
25546W        W96146  14.302  17.390   3.161
25547W        W96147   2.501  34.228  14.350
25548W        W96148  40.288  19.381  13.097
25549W        W96149  24.598  30.099  13.912
25550W        W96150  26.457  11.690   3.012
25551W        W96151  26.287  13.287  12.071
25552W        W96152  37.228  31.396   0.758
25553W        W96153  35.148  24.652   3.182
25554W        W96154  18.322   2.953   4.132
25555W        W96155  16.123  17.790  13.029
25556W        W96156  31.711  22.986  10.699
25557W        W96157  21.856  22.564   3.390
25558W        W96158  16.755  44.207  12.826
25559W        W96159  25.448   7.365  14.090
25560W        W96160  11.986  15.461  14.559
25561W        W96161  32.844  10.174   4.250
25562W        W96162  31.199  32.918  13.101
25563W        W96163   5.329  30.499   2.075
25564W        W96164  42.761  44.795   3.494
25565W        W96165  17.134  23.522   1.004
25566W        W96166  10.072  19.358  10.635
25567W        W96167  23.974  19.609  13.226
25568W        W96168  34.158   1.754   0.308
25569W        W96169  17.008  38.766  13.562
25570W        W96170   8.243   2.170   1.689
25571W        W96171  14.181  17.330   0.511
25572W        W96172  12.258  33.996   4.315
25573W        W96173   5.867  33.594   3.670
25574W        W96174  12.014  31.658   0.921
25575W        W96175  25.118   3.824   3.711
25576W        W96176  44.454  28.106  13.862
25577W        W96177  41.077  35.378  12.438
25578W        W96178  19.870  34.268  14.911
25579W        W96179  37.840  29.920   4.961
25580W        W96180   2.847  17.741   1.437
25581W        W96181   2.287   7.430  10.774
25582W        W96182   5.177  25.749   4.335
25583W        W96183  21.068  24.701  14.723
25584W        W96184   2.242  20.143   3.354
25585W        W96185  38.537  10.404  11.177
25586W        W96186   4.541   4.385  14.865
25587W        W96187  40.023  43.799  13.078
25588W        W96188   4.479   6.660   3.250
25589W        W96189  33.085  21.481   3.148
25590W        W96190  30.640  13.232   4.770
25591W        W96191  17.717   9.331   3.817
25592W        W96192  25.635  21.003   0.413
25593W        W96193  27.404   7.684   3.372
25594W        W96194  29.013  41.561   4.127
25595W        W96195  16.059  19.061   0.876
25596W        W96196  19.791  32.963  11.474
25597W        W96197  30.583  44.180   3.326
25598W        W96198   6.088  41.320   4.149
25599W        W96199  36.519  31.263  13.843
25600W        W96200  41.371  28.495  10.936
25601W        W96201  39.250   1.341  12.093
25602W        W96202  34.288  32.686  11.538
25603W        W96203  18.137  19.056  12.960
25604W        W96204  30.960  42.102   5.033
25605W        W96205  20.986  15.142  12.345
25606W        W96206  32.424  21.023  13.331
25607W        W96207  23.767  17.625   2.696
25608W        W96208   1.863  34.905   0.828
25609W        W96209  24.984  32.352  12.879
25610W        W96210  20.942  22.697   0.183
25611W        W96211   9.411  31.951  12.930
25612W        W96212  34.088  39.142   3.904
25613W        W96213  41.464  35.410   3.375
25614W        W96214  35.163  37.886   1.310
25615W        W96215  16.801   8.181   2.747
25616W        W96216  31.944   4.344   0.659
25617W        W96217   4.437  18.879   0.038
25618W        W96218  12.267   0.220  14.945
25619W        W96219  17.571  41.289  13.955
25620W        W96220  38.342  26.065  10.678
25621W        W96221  22.459  16.251  14.406
25622W        W96222  21.167  38.125   1.825
25623W        W96223  15.853  32.655  14.962
25624W        W96224  13.565  42.783  14.051
25625W        W96225  35.854  39.067  14.757
25626W        W96226   8.120  18.206   3.586
25627W        W96227  11.146   1.188  14.888
25628W        W96228  44.196  40.794   2.845
25629W        W96229  10.267  31.877   2.294
25630W        W96230  21.661  44.998   0.288
25631W        W96231  36.783  10.286   1.393
25632W        W96232  17.343  42.956  13.292
25633W        W96233  22.009   4.392   2.324
25634W        W96234   2.043   5.325  12.058
25635W        W96235  30.024  26.493  13.368
25636W        W96236  12.179  13.860  14.273
25637W        W96237  41.477   3.714  10.392
25638W        W96238  40.384  27.367   2.713
25639W        W96239  20.582  26.007   1.739
25640W        W96240   7.144  16.225   3.757
25641W        W96241  12.702  38.910   0.954
25642W        W96242  15.869  14.657  14.876
25643W        W96243  16.779   7.712  10.707
25644W        W96244   1.118   4.062   4.148
25645W        W96245  26.163  10.742  14.421
25646W        W96246   9.184  22.214  12.464
25647W        W96247  16.668  22.010   4.230
25648W        W96248   6.348  19.558  10.447
25649W        W96249  31.598   3.898  13.058
25650W        W96250   7.814  32.152  14.848
25651W        W96251  21.074  19.784   1.168
25652W        W96252  24.079  25.990  12.900
25653W        W96253   0.969  37.146   3.504
25654W        W96254  34.627  14.473   4.247
25655W        W96255   3.988  11.386   2.902
25656W        W96256   8.166  23.734   2.799
25657W        W96257  11.591  35.409  12.634
25658W        W96258  38.725  22.979   4.201
25659W        W96259  40.888  26.742   2.543
25660W        W96260  17.875  37.276  14.286
25661W        W96261  42.511  40.068   0.804
25662W        W96262  44.794  28.712   4.420
25663W        W96263  17.636  31.129  14.706
25664W        W96264  20.355  13.337  11.626
25665W        W96265  15.778  26.504   1.279
25666W        W96266  28.609  22.211  14.712
25667W        W96267  31.356  42.428   2.689
25668W        W96268  31.621  31.798   2.269
25669W        W96269   3.315  23.002  12.025
25670W        W96270  28.572   5.785  14.287
25671W        W96271  28.223  26.149   3.839
25672W        W96272  15.694  32.186   1.733
25673W        W96273  41.952   2.004   4.647
25674W        W96274   3.886   6.259   1.468
25675W        W96275  41.309   1.451   0.689
25676W        W96276  17.865  18.975  11.139
25677W        W96277  23.060  42.099  14.835
25678W        W96278  34.999  14.116  14.870
25679W        W96279  39.268  20.717   2.897
25680W        W96280   9.152  14.036  13.397
25681W        W96281  27.982  30.844  11.180
25682W        W96282  10.419  27.408   3.692
25683W        W96283  40.806  16.663  11.454
25684W        W96284  27.046  41.599   3.689
25685W        W96285  44.590  30.471   2.727
25686W        W96286  23.060  12.156   0.036
25687W        W96287  11.929  32.014  14.540
25688W        W96288  36.923  29.921  10.661
25689W        W96289  32.971  35.942   1.228
25690W        W96290  10.899  24.282   1.249
25691W        W96291  30.022  28.350  14.945
25692W        W96292  28.060  38.273  11.551
25693W        W96293  25.512   0.712  13.944
25694W        W96294  37.500  22.420  12.553
25695W        W96295  19.299  22.163  14.122
25696W        W96296   6.672  33.947   2.832
25697W        W96297  20.205  44.680  14.733
25698W        W96298  17.886   5.877  14.521
25699W        W96299  17.249  17.798   2.841
25700W        W96300  27.777  10.816   3.758
25701W        W96301  34.960   3.848  11.021
25702W        W96302  44.469  18.664   1.318
25703W        W96303  37.382  33.057  12.598
25704W        W96304   0.974  12.349   2.930
25705W        W96305  20.982  27.616   1.811
25706W        W96306  29.345  12.232   4.414
25707W        W96307   2.974  24.730   1.881
25708W        W96308  15.770  21.603  12.559
25709W        W96309  23.796  31.095  11.236
25710W        W96310   7.189  13.492  13.990
25711W        W96311   5.732  40.513   0.056
25712W        W96312   1.263  39.341  14.585
25713W        W96313  41.498  44.303  14.983
25714W        W96314   4.755  28.048   1.825
25715W        W96315  40.625   5.484  11.589
25716W        W96316  37.423   2.174   4.558
25717W        W96317  34.108  42.834  12.465
25718W        W96318  33.481  33.402  12.106
25719W        W96319   8.371  28.156  13.555
25720W        W96320  10.700  38.557   2.608
25721W        W96321  18.247  17.081  11.138
25722W        W96322  36.401   7.434   4.307
25723W        W96323  35.649  41.009  11.935
25724W        W96324  12.100  28.400   3.658
25725W        W96325  23.512   9.410   0.476
25726W        W96326  23.049   8.274   0.928
25727W        W96327  27.741  24.859  13.602
25728W        W96328  13.527  16.048  13.846
25729W        W96329  41.814  24.945   2.371
25730W        W96330  22.473  42.006  12.370
25731W        W96331  23.558   1.793   2.792
25732W        W96332  15.897  12.505  12.365
25733W        W96333  34.847  13.095   1.212
25734W        W96334  36.645  14.674   1.682
25735W        W96335  42.766  27.090   1.171
25736W        W96336  27.993   5.991  12.035
25737W        W96337  39.384  33.089  10.658
25738W        W96338   8.961  24.447   0.369
25739W        W96339  17.678  19.436  11.314
25740W        W96340  35.347   9.888   2.428
25741W        W96341  36.335  35.778   0.328
25742W        W96342  13.012  30.638   4.212
25743W        W96343   5.782  20.193   2.819
25744W        W96344  43.736  15.684  12.390
25745W        W96345  22.706   9.437  11.699
25746W        W96346   6.939  36.764  13.245
25747W        W96347   5.669  12.184   2.472
25748W        W96348  35.392  26.191   3.226
25749W        W96349  42.922  10.393   1.822
25750W        W96350  24.027  18.299  13.333
25751W        W96351  14.145  33.113   1.875
25752W        W96352   6.421  21.530  13.008
25753W        W96353   1.791  27.923   3.694
25754W        W96354   7.221  14.677  12.864
25755W        W96355   6.932  17.344  13.446
25756W        W96356  36.155  17.925   0.235
25757W        W96357   8.791  16.135  10.945
25758W        W96358  28.181   1.893   2.845
25759W        W96359  37.522  25.440  10.515
25760W        W96360  21.755  27.711   2.618
25761W        W96361  10.057  25.732  12.060
25762W        W96362  26.648   2.557  11.544
25763W        W96363   9.922   7.725  11.527
25764W        W96364   3.704  22.515  12.384
25765W        W96365  30.146   5.211  13.944
25766W        W96366  13.374  36.327   4.985
25767W        W96367   2.293  19.194   2.826
25768W        W96368  27.449  10.387   1.850
25769W        W96369   9.355  15.333  11.046
25770W        W96370  26.519  12.008   4.807
25771W        W96371  43.465  20.523   2.713
25772W        W96372  10.718  21.534  11.119
25773W        W96373  16.533  40.834  12.016
25774W        W96374  12.094  10.594   0.362
25775W        W96375   5.175  33.000  13.471
25776W        W96376  22.338   9.075  12.708
25777W        W96377  13.711  15.367  11.814
25778W        W96378  34.505  43.915   1.403
25779W        W96379  10.188  42.776  12.004
25780W        W96380  32.377   8.348  13.473
25781W        W96381  14.619  24.703   0.927
25782W        W96382  23.251   0.259  14.038
25783W        W96383   4.226  26.530  10.407
25784W        W96384  24.610  11.085  11.144
25785W        W96385  33.042  27.958  13.137
25786W        W96386  17.283  43.285   0.507
25787W        W96387  13.274  44.360  13.476
25788W        W96388   2.660   0.977   2.323
25789W        W96389   2.069  24.149   4.943
25790W        W96390  31.969   4.316   3.611
25791W        W96391  34.085  21.744  14.738
25792W        W96392  21.564  37.856  12.601
25793W        W96393  24.626  19.812   0.482
25794W        W96394  14.384  15.376  10.201
25795W        W96395  21.793  35.041   4.226
25796W        W96396  34.758  30.890   0.321
25797W        W96397  21.119  18.284  14.532
25798W        W96398  42.507  32.659  14.558
25799W        W96399   6.662  28.387   3.871
25800W        W96400  30.652  15.866  14.981
25801W        W96401  34.908  33.367  11.252
25802W        W96402  36.178   9.820  14.913
25803W        W96403  13.105  12.274  13.737
25804W        W96404  30.964  11.293  11.326
25805W        W96405  23.320   9.349  13.849
25806W        W96406   1.504  27.195  12.475
25807W        W96407  41.791  36.997   4.513
25808W        W96408  41.066  24.051   4.201
25809W        W96409  32.205  16.089  10.990
25810W        W96410  10.245  26.719  14.483
25811W        W96411  18.332  17.695   1.814
25812W        W96412  35.072   2.431  10.955
25813W        W96413  39.760  16.985   1.974
25814W        W96414  28.509  11.856  14.033
25815W        W96415  29.009  10.664   3.666
25816W        W96416   7.240  19.931  10.791
25817W        W96417  12.831  11.358  14.626
25818W        W96418   1.981   5.402   2.224
25819W        W96419  18.010  36.683  14.893
25820W        W96420  23.056  40.403   4.348
25821W        W96421  27.657  10.519   2.377
25822W        W96422  23.490  22.328  11.113
25823W        W96423   4.200  28.997  14.020
25824W        W96424  19.186  16.211  11.536
25825W        W96425  38.034  29.219   2.769
25826W        W96426  28.015  22.547  10.899
25827W        W96427  14.619  16.176   2.629
25828W        W96428  34.902   3.418   2.213
25829W        W96429   3.482   2.301  11.139
25830W        W96430   5.315  19.954   2.712
25831W        W96431  24.466  16.009   2.959
25832W        W96432  12.379  12.147   4.203
25833W        W96433   2.786   4.957  12.538
25834W        W96434  17.069  39.568  11.673
25835W        W96435   9.469  16.863  12.600
25836W        W96436  17.028  29.959  13.539
25837W        W96437  14.825  20.645   3.893
25838W        W96438  37.820  23.541  13.343
25839W        W96439  25.433  36.058   0.032
25840W        W96440  16.205  28.495   3.665
25841W        W96441   9.814  19.689  12.011
25842W        W96442   4.405  41.553  12.297
25843W        W96443  27.652  16.360  11.588
25844W        W96444  25.613  38.082  14.810
25845W        W96445  15.670  28.937   3.782
25846W        W96446  34.882  44.529  10.982
25847W        W96447  32.184  33.868   1.350
25848W        W96448  28.080  30.309  11.983
25849W        W96449  32.505  24.113  12.983
25850W        W96450  28.156  15.656   0.358
25851W        W96451  11.047   1.873   3.094
25852W        W96452   0.009  31.096  12.489
25853W        W96453  13.041   4.194  13.206
25854W        W96454  31.860  24.164   3.189
25855W        W96455   1.116   8.700   2.124
25856W        W96456   6.941  33.555   4.692
25857W        W96457   0.066  34.439  11.687
25858W        W96458   9.842   5.402   2.330
25859W        W96459   7.544  17.714  11.600
25860W        W96460   2.377  42.927  13.377
25861W        W96461  41.141   6.805   0.037
25862W        W96462  27.713  22.132  11.455
25863W        W96463  10.331  25.131  12.984
25864W        W96464  21.046   4.371  12.134
25865W        W96465  26.646  11.647  14.359
25866W        W96466  19.728   9.602   1.717
25867W        W96467   5.325  43.236   3.128
25868W        W96468  21.102  14.882   0.461
25869W        W96469  40.972  26.045  11.977
25870W        W96470  20.482   6.824   0.957
25871W        W96471  18.333  36.918   2.967
25872W        W96472  23.443  33.512   3.813
25873W        W96473  41.790   1.252  12.432
25874W        W96474  42.465   3.185  14.326
25875W        W96475   8.918   1.143  10.647
25876W        W96476  44.961   1.022  14.077
25877W        W96477   3.825  31.932  11.684
25878W        W96478  32.525  40.410  11.734
25879W        W96479  39.901  16.698   1.078
25880W        W96480   3.829  13.999  11.300
25881W        W96481  14.824  35.605   1.423
25882W        W96482   9.440  40.300  11.556
25883W        W96483   7.284  18.045   3.719
25884W        W96484  27.160   5.004  11.579
25885W        W96485  18.448  33.524  13.382
25886W        W96486  40.670  41.835   1.793
25887W        W96487  17.348  34.058   3.548
25888W        W96488  41.769  18.029  11.622
25889W        W96489  12.719  14.027   9.562
25890W        W96490  40.532  10.803   1.821
25891W        W96491  14.355  35.459   3.232
25892W        W96492  42.815  34.059   0.729
25893W        W96493  40.946  28.964  13.577
25894W        W96494  38.526  44.224   0.150
25895W        W96495  29.689  39.405   0.306
25896W        W96496  34.855  18.614  12.038
25897W        W96497  44.289  11.353   2.233
25898W        W96498  11.410  35.460  12.133
25899W        W96499  26.100  44.898  10.776
25900W        W96500  19.358   0.452  14.913
25901W        W96501  22.521  11.361  11.135
25902W        W96502   8.158   2.436  14.417
25903W        W96503   7.300  14.187   4.410
25904W        W96504   1.295  23.459  11.562
25905W        W96505   3.054  24.666   4.856
25906W        W96506   7.608  32.090  10.754
25907W        W96507  40.985  26.587  11.631
25908W        W96508   6.205  40.592  11.845
25909W        W96509  39.898  35.395  11.668
25910W        W96510  44.417  34.885   2.213
25911W        W96511  31.755  11.541   2.353
25912W        W96512  11.792  12.608  13.424
25913W        W96513  26.539  37.983  13.744
25914W        W96514  32.941  43.037   1.551
25915W        W96515  11.832   0.132   0.462
25916W        W96516  15.597  21.620  14.954
25917W        W96517  31.426  28.900  13.544
25918W        W96518  10.648  31.981  10.473
25919W        W96519  17.705  34.715   2.324
25920W        W96520  34.918  32.498   3.493
25921W        W96521  42.018  20.278   0.012
25922W        W96522  12.364  15.825   0.994
25923W        W96523   8.891  38.003  12.950
25924W        W96524   0.276  37.229  14.391
25925W        W96525  35.512  31.054   4.747
25926W        W96526  34.914   6.126   3.683
25927W        W96527   1.991  17.626   2.376
25928W        W96528  21.794  13.080  11.950
25929W        W96529  14.367   3.936  12.528
25930W        W96530   2.483  27.955   2.684
25931W        W96531  26.894  24.688   2.285
25932W        W96532  28.997   0.405   1.186
25933W        W96533  39.866  39.380  12.875
25934W        W96534   9.701   3.767   2.468
25935W        W96535  14.143  33.952  14.482
25936W        W96536  37.029  43.024   4.196
25937W        W96537  25.096  15.636  11.525
25938W        W96538  27.999  33.230   4.195
25939W        W96539   8.437  21.004  11.733
25940W        W96540  25.456  24.101   1.811
25941W        W96541  39.889  15.694   2.259
25942W        W96542  28.023  28.966   2.223
25943W        W96543  31.077  18.676   4.393
25944W        W96544   8.250  28.229  11.445
25945W        W96545  41.993  35.981  14.487
25946W        W96546   3.227   8.166   2.375
25947W        W96547  12.742  44.068  10.180
25948W        W96548   6.804  43.452  11.630
25949W        W96549   3.316  14.567   0.867
25950W        W96550  38.628  37.499  10.559
25951W        W96551  13.288   4.265   0.953
25952W        W96552   1.418  19.021   1.397
25953W        W96553  18.813  12.392  11.225
25954W        W96554  20.084  25.624   4.472
25955W        W96555   4.223  16.036   4.083
25956W        W96556  36.384  21.773  14.353
25957W        W96557  39.113  26.734  14.921
25958W        W96558  18.902  27.913   2.322
25959W        W96559  40.667  33.985  10.594
25960W        W96560  13.794  41.855  12.959
25961W        W96561  44.262  25.991   2.278
25962W        W96562  17.337  26.685   1.837
25963W        W96563  10.568   0.673   4.294
25964W        W96564   4.016   4.702  12.955
25965W        W96565  42.212   9.489  13.989
25966W        W96566  24.477  22.598   3.757
25967W        W96567  42.889  24.695  11.439
25968W        W96568  25.482  36.529  13.894
25969W        W96569  22.796  13.320   2.848
25970W        W96570  37.219   0.477  11.911
25971W        W96571  43.195   0.763   2.285
25972W        W96572  42.910  17.882  14.430
25973W        W96573  22.728  36.558   0.842
25974W        W96574  34.528  25.393   2.690
25975W        W96575   8.849  29.749  13.963
25976W        W96576  44.735  34.410  11.301
25977W        W96577   0.446  44.912   4.166
25978W        W96578  20.495  15.158   3.261
25979W        W96579  24.206   3.298   2.754
25980W        W96580  31.338  22.648  12.072
25981W        W96581  17.517  32.989  12.072
25982W        W96582   0.777  32.461  14.785
25983W        W96583  14.128  13.393   0.468
25984W        W96584  41.442  11.279   2.833
25985W        W96585   4.200  17.589  13.595
25986W        W96586  29.577  19.624   1.715
25987W        W96587  43.268  32.996  12.948
25988W        W96588  34.381  42.342  14.143
25989W        W96589   9.158  13.076   5.117
25990W        W96590  34.171  28.429   1.945
25991W        W96591  28.697  40.304   0.467
25992W        W96592  10.335  27.563   2.315
25993W        W96593  15.590  27.641  11.168
25994W        W96594  41.867  25.231   1.737
25995W        W96595   5.751   3.133   1.405
25996W        W96596   6.797  38.338  12.098
25997W        W96597   5.046  25.240  11.695
25998W        W96598   1.682  27.526  14.376
25999W        W96599  19.615  44.610  14.110
26000W        W96600  30.321  27.061  13.854
26001W        W96601  34.611  17.131  13.489
26002W        W96602  14.239  36.323   3.045
26003W        W96603  12.558  15.746  12.453
26004W        W96604  20.210  31.579   1.813
26005W        W96605   0.663  30.852  11.905
26006W        W96606   3.524  43.047  10.447
26007W        W96607   9.670  10.697   0.290
26008W        W96608  39.582  37.159   1.330
26009W        W96609  37.586  16.086   3.200
26010W        W96610   3.051   5.750   4.639
26011W        W96611  31.676   1.518   3.288
26012W        W96612  42.544   6.816  14.718
26013W        W96613  32.737  30.162   3.804
26014W        W96614  11.712  19.421  10.898
26015W        W96615   7.125  26.140   2.722
26016W        W96616   0.978  29.676   3.754
26017W        W96617   9.310  17.389   3.057
26018W        W96618   6.432   6.656   1.299
26019W        W96619  10.872  33.140  11.923
26020W        W96620  24.666  11.768   3.795
26021W        W96621  29.160  31.462   4.116
26022W        W96622  38.584  11.951   1.802
26023W        W96623  14.525  30.297   0.451
26024W        W96624   6.544  28.756   1.879
26025W        W96625  25.220  14.729  11.526
26026W        W96626  25.475   6.433   4.120
26027W        W96627  21.266  30.618   0.361
26028W        W96628  25.909  11.303   3.735
26029W        W96629   0.292  34.905  11.532
26030W        W96630  31.259  21.997  14.838
26031W        W96631   2.397  26.926   2.722
26032W        W96632  27.903  22.815   1.275
26033W        W96633  33.638   5.290  11.184
26034W        W96634  34.477  24.979  12.549
26035W        W96635   0.330  20.678   2.144
26036W        W96636  41.873  37.606   2.302
26037W        W96637   9.785   1.971  11.538
26038W        W96638  22.020  31.687   3.601
26039W        W96639  17.795  23.457   1.738
26040W        W96640  28.150  26.474  11.618
26041W        W96641  20.350   0.978   2.720
26042W        W96642  14.256  30.212  11.178
26043W        W96643  31.877  13.922  11.553
26044W        W96644  16.600  19.784   2.369
26045W        W96645  29.477  41.009  14.409
26046W        W96646  11.722  40.785   4.664
26047W        W96647  23.997  26.214  11.089
26048W        W96648  42.014  33.653   2.453
26049W        W96649  29.059  19.055  13.396
26050W        W96650  39.438  40.065  10.654
26051W        W96651  36.748  35.029   4.684
26052W        W96652   9.782  38.385  14.395
26053W        W96653  11.884  18.322  14.875
26054W        W96654  21.362  28.280  14.760
26055W        W96655  24.469  27.687  12.959
26056W        W96656  38.820  40.766  11.615
26057W        W96657  32.644  42.344  13.567
26058W        W96658  30.801  15.300   0.861
26059W        W96659  40.970  32.775   4.527
26060W        W96660  21.103  26.488  14.578
26061W        W96661  10.612  42.849  13.373
26062W        W96662  12.663  11.298   0.106
26063W        W96663  16.361   9.545  11.911
26064W        W96664  27.189   3.115  10.833
26065W        W96665  41.814  44.074   1.686
26066W        W96666  40.111   5.752   2.220
26067W        W96667  24.181  27.348  14.961
26068W        W96668  20.345  42.954   3.672
26069W        W96669  20.815  40.761   4.687
26070W        W96670  41.761  14.060   3.597
26071W        W96671  28.364  42.767  12.368
26072W        W96672  39.530  13.378  10.998
26073W        W96673  40.271  39.931  10.283
26074W        W96674  21.813   1.408   2.015
26075W        W96675  40.725  38.485   3.841
26076W        W96676  40.269  28.032  10.151
26077W        W96677   2.353   6.144  14.443
26078W        W96678  16.263  23.682  10.945
26079W        W96679  14.228  29.899  10.773
26080W        W96680  29.865  41.760   1.683
26081W        W96681  25.046   2.411   3.270
26082W        W96682   9.283   8.914   2.640
26083W        W96683  23.314  41.242   0.893
26084W        W96684   8.282  44.328  13.360
26085W        W96685  32.646  18.779  11.006
26086W        W96686  44.785  17.781  12.008
26087W        W96687  29.056  21.886   1.327
26088W        W96688  40.932  33.780  13.921
26089W        W96689  42.761   0.951  10.933
26090W        W96690   7.073   0.306   0.474
26091W        W96691  42.391  32.650  12.008
26092W        W96692  29.994  41.268   1.585
26093W        W96693  18.959  24.423   2.126
26094W        W96694  15.187   1.153  11.579
26095W        W96695  41.982   6.899   1.791
26096W        W96696   1.280  38.313  10.679
26097W        W96697  20.178  12.346  10.581
26098W        W96698   9.743  41.699   2.853
26099W        W96699  29.237  38.718  12.689
26100W        W96700  19.973  30.327  14.940
26101W        W96701  42.374  33.905  12.562
26102W        W96702  39.345  22.250   2.253
26103W        W96703   3.193  21.629   0.470
26104W        W96704  20.699  12.801  10.862
26105W        W96705  10.579  24.192   1.677
26106W        W96706  37.013   2.219   0.053
26107W        W96707   3.902  20.006   4.423
26108W        W96708  36.673  16.244   1.772
26109W        W96709  38.004  33.117   4.502
26110W        W96710  14.776  41.151   4.142
26111W        W96711   2.774  11.832   0.892
26112W        W96712  39.339  15.561  11.223
26113W        W96713  34.100  40.074   1.790
26114W        W96714  19.996  24.615  11.398
26115W        W96715  12.245  40.790  10.617
26116W        W96716   0.942  44.180  12.569
26117W        W96717  25.874  41.314   3.061
26118W        W96718  42.237  35.058  10.599
26119W        W96719  36.928  24.054  12.293
26120W        W96720  27.885   5.789   4.845
26121W        W96721  27.182  13.507  14.046
26122W        W96722  13.841   5.713  10.566
26123W        W96723  17.291  37.515   2.186
26124W        W96724   1.687  12.632  11.580
26125W        W96725   5.236  15.567  10.737
26126W        W96726  10.282  33.486  12.088
26127W        W96727  18.147  32.144  14.016
26128W        W96728   3.356  29.986   0.710
26129W        W96729  43.506  24.528   1.183
26130W        W96730  23.475  30.474  11.690
26131W        W96731  41.957  16.720  12.015
26132W        W96732  11.734  40.501   4.211
26133W        W96733  20.578  17.560   0.353
26134W        W96734   3.907  41.116   2.708
26135W        W96735  40.963  31.898  13.829
26136W        W96736   2.500  11.715   1.731
26137W        W96737   9.821   7.938   3.216
26138W        W96738  39.979  38.953  11.697
26139W        W96739  33.513  34.590  13.546
26140W        W96740  12.328   6.611  13.896
26141W        W96741   1.491  44.804  13.348
26142W        W96742  27.174  25.325   5.080
26143W        W96743   0.035   8.621   2.910
26144W        W96744  35.708  10.139   4.076
26145W        W96745  15.246  30.153   3.412
26146W        W96746   3.262  22.211   2.867
26147W        W96747  21.264   7.702   2.895
26148W        W96748  22.956   3.083  11.258
26149W        W96749  38.152   0.983   0.450
26150W        W96750  23.607  34.883   0.317
26151W        W96751  23.793  33.031  11.152
26152W        W96752  17.262  14.844  11.232
26153W        W96753  30.118  11.871  13.373
26154W        W96754  39.950  10.237   0.488
26155W        W96755  17.313   8.196  11.385
26156W        W96756  10.241   2.593  11.864
26157W        W96757  19.550  26.464  14.502
26158W        W96758  31.937  16.333   0.072
26159W        W96759  32.094  28.424  13.018
26160W        W96760  42.965  22.139   2.150
26161W        W96761  38.154  40.812   3.198
26162W        W96762   0.889  43.494  13.988
26163W        W96763  44.962   4.828  13.069
26164W        W96764  32.089  13.497  12.362
26165W        W96765  22.528   0.055   3.121
26166W        W96766  44.916  31.845   0.232
26167W        W96767  30.449  14.015   2.989
26168W        W96768   1.171   3.419  10.690
26169W        W96769   3.450  10.637   1.942
26170W        W96770  12.729  35.062  11.148
26171W        W96771  32.876  26.552   0.023
26172W        W96772  40.530  14.846   2.154
26173W        W96773   2.211  28.659  13.782
26174W        W96774   1.371  22.832   4.664
26175W        W96775  33.300   9.331   1.983
26176W        W96776   5.688  15.777  12.132
26177W        W96777  15.111  25.432  14.835
26178W        W96778  20.064  31.473   2.337
26179W        W96779  15.223  13.154  11.449
26180W        W96780  11.685  42.331   0.423
26181W        W96781  33.221  43.393   0.128
26182W        W96782  22.638  19.318   3.790
26183W        W96783  44.523  11.353   1.777
26184W        W96784  10.821  28.555  14.420
26185W        W96785  41.044   3.765  12.981
26186W        W96786   9.129  30.966  13.890
26187W        W96787  11.638  10.259  11.119
26188W        W96788  35.721  10.723  10.671
26189W        W96789  37.398  28.190  13.997
26190W        W96790  16.692  41.340   2.832
26191W        W96791   9.056   3.287  13.389
26192W        W96792  15.106  14.118  12.387
26193W        W96793   4.979   7.260  12.451
26194W        W96794  26.595  15.998   3.389
26195W        W96795  15.712  41.183  11.303
26196W        W96796  37.490  13.827   0.908
26197W        W96797  35.974  21.741  10.514
26198W        W96798   9.887  31.832   1.285
26199W        W96799  24.050  32.915  12.375
26200W        W96800  41.270  15.147  10.814
26201W        W96801   9.322  31.990   2.616
26202W        W96802   2.584  23.463   0.054
26203W        W96803  15.892  31.372   1.928
26204W        W96804  43.454   2.381  10.850
26205W        W96805  14.904   7.848   0.499
26206W        W96806   3.838  23.749  13.997
26207W        W96807  20.671  30.985   3.914
26208W        W96808  28.159   2.381  13.013
26209W        W96809  30.958  33.925   4.571
26210W        W96810  26.410  27.455   3.300
26211W        W96811  27.243  41.109  13.017
26212W        W96812  22.985  17.707  14.001
26213W        W96813   2.988  22.571   1.003
26214W        W96814  38.535  43.367   3.260
26215W        W96815  40.589  24.942  13.854
26216W        W96816  28.133   9.076   2.509
26217W        W96817  31.437   3.134   2.035
26218W        W96818  20.990  37.963  13.906
26219W        W96819   6.393  13.211  14.248
26220W        W96820   6.485  30.046  13.892
26221W        W96821   7.110  11.299   1.454
26222W        W96822   1.035  33.857  11.019
26223W        W96823  13.712  11.121  14.552
26224W        W96824   6.864  31.808  14.341
26225W        W96825  24.441  17.189   3.740
26226W        W96826  27.472  37.383   3.159
26227W        W96827  13.168  13.211   4.425
26228W        W96828  13.940  28.177  10.703
26229W        W96829  10.104   7.182  12.626
26230W        W96830  39.393   8.425  12.488
26231W        W96831  29.848  32.387   1.832
26232W        W96832  43.394  39.741  11.595
26233W        W96833  10.722   8.880  12.362
26234W        W96834  28.525  32.802   3.548
26235W        W96835   6.630  35.836  13.304
26236W        W96836  18.377  12.133  13.585
26237W        W96837   6.209  17.287  13.003
26238W        W96838  41.077  10.842   3.088
26239W        W96839  15.279  31.542   1.367
26240W        W96840   4.459  16.131   3.125
26241W        W96841  21.970  42.188  13.501
26242W        W96842  18.238  36.108  13.139
26243W        W96843  11.460  27.087  12.060
26244W        W96844  42.795  25.473   0.207
26245W        W96845  21.010  21.132   4.495
26246W        W96846  12.298  23.075   4.640
26247W        W96847   8.947  41.428   3.440
26248W        W96848   7.434  41.942   1.994
26249W        W96849   0.847  27.109  10.679
26250W        W96850  31.464  44.343  13.373
26251W        W96851  24.660  25.652   0.303
26252W        W96852  38.543  25.166  10.710
26253W        W96853  44.411  40.784   2.342
26254W        W96854   4.014  28.022  11.074
26255W        W96855  34.156   2.870  13.627
26256W        W96856  18.752  10.971   0.465
26257W        W96857  42.721   8.819  12.451
26258W        W96858  44.345  35.439  13.963
26259W        W96859   3.375  42.222   2.996
26260W        W96860  39.520  20.294  13.412
26261W        W96861   9.663   5.406  10.630
26262W        W96862  13.259  34.951   1.759
26263W        W96863  27.582  14.651  12.080
26264W        W96864   7.589  19.258   2.370
26265W        W96865  24.910  31.982  10.729
26266W        W96866  15.362  37.951   3.178
26267W        W96867   4.338  23.267   1.293
26268W        W96868  29.643  35.570  12.350
26269W        W96869  30.369   9.806   2.690
26270W        W96870  44.573  31.979   4.881
26271W        W96871  37.095   9.788  12.446
26272W        W96872  17.018  24.183   4.626
26273W        W96873  43.002  44.082   2.779
26274W        W96874  34.165   6.070  11.618
26275W        W96875  21.267  38.700   0.362
26276W        W96876  21.718  24.224   3.791
26277W        W96877  19.108  23.046  11.515
26278W        W96878   2.502   6.359   0.898
26279W        W96879   2.481  44.321  10.803
26280W        W96880  19.310  34.602  11.631
26281W        W96881   2.962  25.175  14.975
26282W        W96882   0.393  38.449   3.794
26283W        W96883   8.610  20.178   1.728
26284W        W96884  31.179  35.280   0.338
26285W        W96885  42.238  37.803  12.623
26286W        W96886   7.951  28.705   0.913
26287W        W96887  32.826  40.010   1.020
26288W        W96888  38.997  19.920   4.120
26289W        W96889  11.106  43.821   0.917
26290W        W96890   4.987  14.341   4.219
26291W        W96891  28.077   8.899  12.890
26292W        W96892  26.324   3.970   0.832
26293W        W96893  13.313  35.447   1.057
26294W        W96894  15.080  39.361  13.865
26295W        W96895  37.004  30.338   2.276
26296W        W96896   2.992  11.232  14.947
26297W        W96897  33.133   8.706   0.884
26298W        W96898  40.994   4.200   3.594
26299W        W96899  15.860  26.687   1.815
26300W        W96900   2.833   7.921   3.786
26301W        W96901  32.012  17.247  11.625
26302W        W96902  38.826  35.882   1.435
26303W        W96903  41.111   2.342  13.045
26304W        W96904  25.664  31.928  13.983
26305W        W96905  30.439  29.508  11.974
26306W        W96906   4.711   1.566   4.863
26307W        W96907  37.404  12.428   0.268
26308W        W96908  24.301   9.281  12.441
26309W        W96909  43.730   9.344   4.644
26310W        W96910  42.283  20.984   3.703
26311W        W96911  25.647  12.604   4.160
26312W        W96912  40.905  40.838   0.423
26313W        W96913  44.463  43.462   2.245
26314W        W96914  39.065  24.404   0.926
26315W        W96915  44.381   1.455   3.755
26316W        W96916   3.785   0.939  13.056
26317W        W96917  11.857   0.373  12.890
26318W        W96918   4.878   3.243  11.477
26319W        W96919   2.757  40.918   1.956
26320W        W96920  15.363  31.271  14.606
26321W        W96921   3.960  39.863   3.381
26322W        W96922   9.182  14.584   2.732
26323W        W96923  44.906   5.710   3.774
26324W        W96924  10.096  41.300   4.211
26325W        W96925  29.432   3.832  12.107
26326W        W96926  19.741  22.536   4.576
26327W        W96927  30.399  35.870   3.245
26328W        W96928   4.345   6.881  14.988
26329W        W96929  41.851   2.753  12.772
26330W        W96930  22.608  44.554   0.591
26331W        W96931  21.010  32.640   3.500
26332W        W96932  43.704  23.700  14.502
26333W        W96933  15.411  27.584   5.182
26334W        W96934  31.574   1.939   4.566
26335W        W96935  18.830  25.364   0.315
26336W        W96936  28.502  34.806   1.921
26337W        W96937   6.925   8.189   3.668
26338W        W96938  39.592   6.009  14.516
26339W        W96939   4.315  28.492  14.091
26340W        W96940  39.480  22.325  13.430
26341W        W96941  40.109  12.875   3.420
26342W        W96942   2.946  25.392  11.191
26343W        W96943  42.132  26.628   2.720
26344W        W96944  38.372  42.943   0.105
26345W        W96945   5.718  43.760   2.851
26346W        W96946  40.721   3.245  14.721
26347W        W96947  25.636  16.626  12.491
26348W        W96948  27.853  14.526  12.496
26349W        W96949  42.986  15.166  10.670
26350W        W96950  28.393  13.118  11.524
26351W        W96951   6.467  40.316   1.215
26352W        W96952   8.687  27.290  13.897
26353W        W96953  32.694  40.015  13.842
26354W        W96954  15.126  28.180   2.940
26355W        W96955  37.509  23.961   3.732
26356W        W96956  20.249   9.679  10.670
26357W        W96957   7.154  32.612   0.487
26358W        W96958  35.533   7.929   0.305
26359W        W96959  17.860  33.089   2.755
26360W        W96960  40.605  37.357  11.935
26361W        W96961   5.681  39.435   2.752
26362W        W96962  31.685  28.884  14.473
26363W        W96963   8.852   2.001   4.563
26364W        W96964   4.222  27.588   4.542
26365W        W96965  23.120  14.757  12.158
26366W        W96966   0.882  33.827   2.330
26367W        W96967  30.229   4.748  14.111
26368W        W96968  40.223  32.875   4.676
26369W        W96969  22.953  25.519  12.895
26370W        W96970  24.043  21.457   4.130
26371W        W96971  24.475  22.354   2.724
26372W        W96972  29.235  13.751   2.125
26373W        W96973   4.186  20.338   1.539
26374W        W96974  29.398  35.782   3.195
26375W        W96975  11.965  12.666  14.907
26376W        W96976  15.581  33.923   0.444
26377W        W96977   5.441  36.117  12.101
26378W        W96978  29.447  42.220   2.323
26379W        W96979  43.269  23.562   1.373
26380W        W96980   4.724  40.567  14.130
26381W        W96981  22.112  33.879   2.927
26382W        W96982  27.120   1.730  13.825
26383W        W96983  40.760   9.400   3.185
26384W        W96984  21.946  12.290  14.517
26385W        W96985  37.050   9.153   2.232
26386W        W96986  27.075  42.066   0.829
26387W        W96987  23.910   8.191  13.853
26388W        W96988  11.390   4.639  14.908
26389W        W96989  34.801  20.566   1.329
26390W        W96990  28.255  24.284   4.928
26391W        W96991  22.665   9.783   3.092
26392W        W96992  20.663  13.180  14.340
26393W        W96993  12.193   5.449  13.270
26394W        W96994   4.528   5.669  14.118
26395W        W96995   0.409  32.624  10.751
26396W        W96996  39.334  23.085  11.578
26397W        W96997  36.362  26.575   0.193
26398W        W96998  43.456  37.319  14.913
26399W        W96999  34.975  42.993  14.057
26400W        W97000  20.062  15.195   1.334
26401W        W97001  15.831  23.435  13.409
26402W        W97002  40.702  39.555  13.373
26403W        W97003  19.173  28.076   2.775
26404W        W97004  41.456  24.274  11.702
26405W        W97005  18.537   9.376   3.637
26406W        W97006   0.351  23.230  13.066
26407W        W97007   6.404   9.199   0.762
26408W        W97008  43.427  29.267   0.395
26409W        W97009  34.741  22.991   4.622
26410W        W97010  30.971  15.919   4.206
26411W        W97011  28.510  24.202  14.764
26412W        W97012   3.751  15.260  12.917
26413W        W97013  37.832  39.405  11.667
26414W        W97014  39.998  43.382  10.499
26415W        W97015  25.966  25.439  13.785
26416W        W97016  10.629  22.251  13.922
26417W        W97017  13.924   6.768  13.742
26418W        W97018  23.298  29.545   4.314
26419W        W97019  19.558   7.087  11.190
26420W        W97020  26.469  42.334  10.709
26421W        W97021  14.350  34.373   1.364
26422W        W97022  10.226  31.185   3.183
26423W        W97023  22.659   4.015   2.895
26424W        W97024  27.998  30.401   0.801
26425W        W97025  26.386  41.375   9.746
26426W        W97026   2.718  21.052  12.631
26427W        W97027  42.555  37.127   3.273
26428W        W97028  43.163   7.750   0.824
26429W        W97029  16.596   7.208   0.508
26430W        W97030  12.952  11.459  14.121
26431W        W97031  39.663  19.441  13.077
26432W        W97032   5.197  17.825   0.858
26433W        W97033  39.514  17.586   4.455
26434W        W97034  40.985  33.980  11.921
26435W        W97035   7.713   6.737   4.318
26436W        W97036   4.552   1.469   3.044
26437W        W97037  23.879   5.464   3.072
26438W        W97038   0.757  17.147   3.671
26439W        W97039  31.059  20.454  13.792
26440W        W97040  38.923   5.345  12.039
26441W        W97041  42.017   9.496   0.769
26442W        W97042  30.846  33.785  13.524
26443W        W97043   4.036  31.575   3.198
26444W        W97044  34.549   9.191  11.105
26445W        W97045   3.464  36.101   3.101
26446W        W97046  21.000  16.306  14.503
26447W        W97047  16.205  10.838   1.818
26448W        W97048  39.604  41.984   4.169
26449W        W97049  38.824   4.798  11.191
26450W        W97050  23.062   1.287   0.896
26451W        W97051  44.540  35.054   0.659
26452W        W97052  30.212  13.379   1.296
26453W        W97053  23.066  16.000  10.939
26454W        W97054  14.057  20.355  14.024
26455W        W97055  33.947   3.213  12.655
26456W        W97056   8.056  14.371  10.544
26457W        W97057  27.646  31.008  11.528
26458W        W97058  13.880   6.072   0.370
26459W        W97059   8.611   6.369  11.988
26460W        W97060  23.519   7.175  13.387
26461W        W97061  16.412  17.255  10.683
26462W        W97062  23.784   1.426   1.469
26463W        W97063   0.017  35.100   2.883
26464W        W97064  17.559   4.910   0.359
26465W        W97065  18.295  33.464   0.776
26466W        W97066   0.728  40.484   3.973
26467W        W97067   6.754  32.639   4.689
26468W        W97068   0.266  39.481  10.607
26469W        W97069  28.752  26.562  14.996
26470W        W97070  35.551  44.251  13.368
26471W        W97071   9.789  13.730  11.432
26472W        W97072  40.907   4.388   0.333
26473W        W97073   9.858  44.310   4.535
26474W        W97074  10.652  19.873  12.606
26475W        W97075   5.446  21.826  13.899
26476W        W97076  10.277  17.706  14.908
26477W        W97077  38.472  11.213   0.244
26478W        W97078  40.490  38.496  12.949
26479W        W97079  33.859  23.004  11.474
26480W        W97080  44.856  12.924   2.696
26481W        W97081   6.602  25.979   3.447
26482W        W97082  37.901  40.570   1.795
26483W        W97083  37.195  13.288   3.222
26484W        W97084   1.878  40.968  11.572
26485W        W97085   0.938  35.645   3.694
26486W        W97086  38.531   6.858   3.560
26487W        W97087  25.910  21.295  14.310
26488W        W97088   7.279  22.159   4.133
26489W        W97089  30.403  33.794   4.952
26490W        W97090  22.125  29.284  12.354
26491W        W97091  37.057  19.260   3.214
26492W        W97092  22.907  28.650  12.164
26493W        W97093  39.037  10.771  12.374
26494W        W97094  26.245   1.279  12.856
26495W        W97095  36.946  18.118   4.090
26496W        W97096  35.461  44.636  10.816
26497W        W97097  14.813  37.008  12.984
26498W        W97098  33.444  42.016   0.884
26499W        W97099  19.897  43.863  10.650
26500W        W97100   9.524  20.783   4.946
26501W        W97101  29.646  43.390  10.750
26502W        W97102   7.647  33.147   2.754
26503W        W97103  39.955  15.169   2.714
26504W        W97104  32.442   1.991  14.309
26505W        W97105  39.003  43.750  12.987
26506W        W97106  17.653  24.509  11.519
26507W        W97107  31.068  31.500   4.911
26508W        W97108  17.682  13.015  12.281
26509W        W97109  14.807  19.341   2.265
26510W        W97110  17.164  41.166   2.726
26511W        W97111   6.999   4.961  14.983
26512W        W97112  28.708  43.578  12.044
26513W        W97113  14.404  23.976  14.349
26514W        W97114  37.426  33.462  13.002
26515W        W97115   9.760   0.047  11.579
26516W        W97116  33.398  33.949  11.105
26517W        W97117   6.649  37.763  13.350
26518W        W97118  22.923  25.094   0.960
26519W        W97119  33.561   2.278   2.218
26520W        W97120   0.583  26.250  12.932
26521W        W97121  25.130  32.323  11.026
26522W        W97122  30.657  12.344   2.777
26523W        W97123   4.372  16.705   0.802
26524W        W97124   5.014  42.819  11.125
26525W        W97125  22.790  40.552   3.167
26526W        W97126  34.371  40.383   0.206
26527W        W97127  34.343  17.698   3.850
26528W        W97128  35.553   5.196   4.428
26529W        W97129  39.119  39.336   4.569
26530W        W97130   2.424   3.897  10.467
26531W        W97131   4.228   4.853  10.881
26532W        W97132  33.010  25.782  14.568
26533W        W97133   3.960  37.525   2.953
26534W        W97134   5.519   8.543  11.234
26535W        W97135   8.144  15.023   2.658
26536W        W97136  20.300  12.413  12.880
26537W        W97137  35.647  28.031  11.121
26538W        W97138  17.886  25.522   2.764
26539W        W97139  22.178  14.539  13.908
26540W        W97140  17.358  42.073  10.928
26541W        W97141  23.773  28.890   0.563
26542W        W97142  39.846  37.657   4.864
26543W        W97143  21.631   7.539   1.994
26544W        W97144  29.675  21.633   3.267
26545W        W97145  31.437  12.230  11.137
26546W        W97146  40.524   5.826   3.281
26547W        W97147  29.403   2.245   0.347
26548W        W97148  37.378  18.698  14.859
26549W        W97149   3.967   3.729   3.710
26550W        W97150  10.749  18.844   4.397
26551W        W97151  21.937  41.856   2.325
26552W        W97152  15.711  34.863   3.735
26553W        W97153  26.289  10.501  11.538
26554W        W97154  26.112   7.277  14.865
26555W        W97155  33.174  25.106   1.924
26556W        W97156  43.576  26.130   4.612
26557W        W97157  36.043   0.384  14.430
26558W        W97158  24.480   0.451   2.813
26559W        W97159  21.204  39.943   4.386
26560W        W97160  38.662  24.100   0.731
26561W        W97161   0.598  10.157   3.721
26562W        W97162  23.177  35.563  10.758
26563W        W97163  38.851  38.422  13.407
26564W        W97164  22.638  20.374  12.253
26565W        W97165  40.395  20.858   3.346
26566W        W97166  37.829  33.516  14.373
26567W        W97167  38.517  14.344   4.866
26568W        W97168  35.754  19.130   1.260
26569W        W97169  10.317  25.603  14.073
26570W        W97170  43.321  12.049   4.702
26571W        W97171  40.331  34.258  12.840
26572W        W97172  41.547   2.756   4.015
26573W        W97173  30.162  38.117  11.145
26574W        W97174   0.083   3.057  11.944
26575W        W97175   9.937  18.769   4.756
26576W        W97176   8.461  10.054  14.052
26577W        W97177  18.584  36.967   0.960
26578W        W97178  39.473  13.143  14.067
26579W        W97179   9.687  21.509  13.440
26580W        W97180   1.304  39.910  10.758
26581W        W97181  22.534   2.219   2.133
26582W        W97182   3.629  18.747  13.005
26583W        W97183  22.621   2.242  14.569
26584W        W97184   6.795   6.402   3.380
26585W        W97185   9.317  27.542   4.626
26586W        W97186   7.014  39.857  14.001
26587W        W97187  16.976  36.743   9.689
26588W        W97188  14.879  22.001   3.554
26589W        W97189   5.784  38.288   1.769
26590W        W97190  25.915  40.124  13.485
26591W        W97191  28.524  17.270  10.754
26592W        W97192  37.910  41.269  14.836
26593W        W97193  33.669  12.162  13.005
26594W        W97194  20.558  19.785  11.768
26595W        W97195  32.367  43.922  14.851
26596W        W97196   7.431   4.404  10.914
26597W        W97197  16.126   9.347   3.690
26598W        W97198  16.557   1.469   4.089
26599W        W97199  14.282  36.838   4.779
26600W        W97200  20.254  43.280  11.129
26601W        W97201  23.163   3.171   2.813
26602W        W97202  30.697  35.875  10.724
26603W        W97203  19.017  36.545   4.325
26604W        W97204  28.745   5.920   0.314
26605W        W97205   4.135  12.100   4.597
26606W        W97206  25.673   8.661   4.399
26607W        W97207   8.165   1.391   2.272
26608W        W97208  11.728   2.623  10.860
26609W        W97209  17.429  33.202  10.699
26610W        W97210  33.377  35.490   2.719
26611W        W97211  39.498  15.843   0.047
26612W        W97212   4.922  26.264   1.852
26613W        W97213   5.185   8.865  10.939
26614W        W97214   7.395  31.168   0.403
26615W        W97215   7.765  35.109  11.048
26616W        W97216  22.260  13.805  11.337
26617W        W97217  20.948  35.881  11.146
26618W        W97218  37.840  32.815   3.609
26619W        W97219  11.226  16.061  10.691
26620W        W97220  19.259   2.966   3.834
26621W        W97221  19.226  34.420   1.281
26622W        W97222   7.168  31.847   1.794
26623W        W97223  15.930  44.328   3.195
26624W        W97224  20.198  44.447  12.453
26625W        W97225  28.759   9.458   4.119
26626W        W97226  14.372  43.266   4.604
26627W        W97227  37.198  33.751  13.362
26628W        W97228  29.021  35.758   1.853
26629W        W97229   4.518  40.552   3.248
26630W        W97230  41.337   0.373  11.004
26631W        W97231  42.898  19.445   0.853
26632W        W97232   1.225  38.853  12.223
26633W        W97233   4.676  21.598  13.775
26634W        W97234   7.605  10.299   4.202
26635W        W97235   1.764  19.248  13.609
26636W        W97236  15.155   5.356   2.840
26637W        W97237  10.195   4.749  11.375
26638W        W97238  33.992  15.042   2.765
26639W        W97239  27.096  36.435  14.004
26640W        W97240  20.591  28.192   0.345
26641W        W97241  22.689  21.341  13.479
26642W        W97242  14.081  18.385  11.654
26643W        W97243   2.434   6.737   4.880
26644W        W97244  26.417  34.525   0.337
26645W        W97245  20.102  35.470   1.887
26646W        W97246  32.708  32.364  11.159
26647W        W97247  15.768  28.007  12.871
26648W        W97248  12.882  21.156   1.338
26649W        W97249  22.579   6.653   0.920
26650W        W97250   3.345   9.201   2.359
26651W        W97251  11.543  10.540   2.722
26652W        W97252  42.346  26.860  11.549
26653W        W97253   0.915   5.822  11.630
26654W        W97254  42.266  41.057   4.052
26655W        W97255   6.156   9.200  11.103
26656W        W97256  13.739  36.385  11.891
26657W        W97257  19.523  43.160  14.494
26658W        W97258  17.996  21.553   3.600
26659W        W97259  31.075  21.528   4.751
26660W        W97260  16.554   8.059   3.238
26661W        W97261  11.151  42.874  12.349
26662W        W97262  31.851  25.055  12.953
26663W        W97263  29.013  18.761   3.330
26664W        W97264  38.514  22.991  11.136
26665W        W97265  40.902  28.381  11.168
26666W        W97266  17.619  32.624  14.731
26667W        W97267  34.935  12.344  12.624
26668W        W97268  19.950  20.062   3.579
26669W        W97269   6.112   3.652  14.445
26670W        W97270  40.371  21.156  12.095
26671W        W97271  17.654  27.702  12.978
26672W        W97272  23.181  34.790   1.801
26673W        W97273   8.817  34.669  12.868
26674W        W97274  24.288  30.161   0.967
26675W        W97275  16.904  29.032   3.585
26676W        W97276  39.568  43.175   2.721
26677W        W97277  28.234  44.440  13.531
26678W        W97278  33.512  41.534   0.467
26679W        W97279  25.121   2.308   2.208
26680W        W97280  18.551  32.425  12.973
26681W        W97281  11.843   6.061  14.406
26682W        W97282  17.175  36.862   0.778
26683W        W97283  28.490  42.763  11.877
26684W        W97284  32.108  44.072  13.287
26685W        W97285   5.023  13.712  12.198
26686W        W97286  27.623  11.362  12.905
26687W        W97287  32.618  25.330  13.394
26688W        W97288  33.601  25.060   1.654
26689W        W97289  18.702  34.218   3.622
26690W        W97290  34.370   0.379  10.790
26691W        W97291  37.613  35.918  12.936
26692W        W97292  36.865  32.020   2.342
26693W        W97293  26.967  30.175  14.001
26694W        W97294  27.430  44.024   1.379
26695W        W97295  34.801  17.987   3.686
26696W        W97296  11.962  21.126   3.216
26697W        W97297  25.119  23.791  11.921
26698W        W97298   7.133  20.664  11.205
26699W        W97299  28.865  29.360   4.202
26700W        W97300   0.020  10.507   1.382
26701W        W97301  39.617  10.670  13.042
26702W        W97302  24.504  40.346   4.441
26703W        W97303  22.122   9.113  13.159
26704W        W97304  14.215  42.236  12.935
26705W        W97305  38.496  42.300  10.655
26706W        W97306  40.308  25.170   1.351
26707W        W97307  23.982  13.037  14.419
26708W        W97308   2.919   6.813  10.885
26709W        W97309   8.668  15.567  13.341
26710W        W97310  16.227  15.412   3.263
26711W        W97311  35.523  37.317   3.064
26712W        W97312  39.422   2.392   2.050
26713W        W97313  37.466  10.438   0.371
26714W        W97314  19.187  32.820  14.525
26715W        W97315   1.734  41.605   2.430
26716W        W97316  21.468  14.198  13.902
26717W        W97317   4.822  13.208   2.591
26718W        W97318  37.831  30.671  10.876
26719W        W97319  20.007  30.540  13.869
26720W        W97320   7.621   1.823  11.594
26721W        W97321   1.149   0.484  12.399
26722W        W97322  14.078   5.317   4.279
26723W        W97323   6.118  27.981   0.987
26724W        W97324  39.670  34.995   3.152
26725W        W97325  39.835   9.450   3.178
26726W        W97326  21.503  29.696   1.320
26727W        W97327  24.004   6.265   4.198
26728W        W97328  24.055  12.279   0.926
26729W        W97329  13.181  23.459  13.925
26730W        W97330  44.258  41.312   4.126
26731W        W97331  33.810  12.914  13.368
26732W        W97332  12.864  21.545  12.926
26733W        W97333  30.153   7.402   0.240
26734W        W97334   4.444   2.927  12.517
26735W        W97335  14.208  26.559   4.526
26736W        W97336  10.515  29.173  11.139
26737W        W97337  15.470   8.777  14.067
26738W        W97338  35.898  21.643   4.594
26739W        W97339  39.745  26.201   4.086
26740W        W97340  38.856  35.912  11.513
26741W        W97341  12.715   3.880  11.644
26742W        W97342  20.773  42.860   0.634
26743W        W97343  10.861  10.155   3.389
26744W        W97344  32.433  13.410   1.044
26745W        W97345  26.069  31.545  12.698
26746W        W97346  41.543  12.778  10.453
26747W        W97347  27.513  20.816  14.004
26748W        W97348  35.940  44.384   0.521
26749W        W97349  12.188  13.854  13.311
26750W        W97350  26.290  26.560  13.572
26751W        W97351  42.229  17.689   1.563
26752W        W97352  44.276  16.145   3.200
26753W        W97353  24.518  14.910  11.591
26754W        W97354   6.368  28.685   3.566
26755W        W97355  27.991  27.360   4.428
26756W        W97356  10.259   8.250   4.130
26757W        W97357  21.338  35.469  10.535
26758W        W97358  23.962  44.439  11.601
26759W        W97359  36.591  30.855   2.504
26760W        W97360   6.954   0.392  11.034
26761W        W97361  13.075   1.537  13.902
26762W        W97362   3.430  15.642  12.487
26763W        W97363   6.671  28.435   4.439
26764W        W97364   6.788  38.606  13.080
26765W        W97365  20.189  31.034   4.118
26766W        W97366  32.200  38.035   3.304
26767W        W97367  15.371  30.492  11.530
26768W        W97368  26.481  21.586  10.674
26769W        W97369   8.763  37.274  10.164
26770W        W97370   1.051  42.266  13.464
26771W        W97371  18.746  34.040   4.112
26772W        W97372   6.087  18.977   4.163
26773W        W97373  26.209  13.349  12.581
26774W        W97374  40.600  27.103   4.061
26775W        W97375  22.809  32.374  11.687
26776W        W97376  30.588  24.296   0.465
26777W        W97377  44.268   1.922   0.922
26778W        W97378  33.149  16.128  11.255
26779W        W97379  10.886   0.908  11.565
26780W        W97380   8.788   3.475  12.364
26781W        W97381  30.995  30.626  10.639
26782W        W97382  30.467  23.660  13.251
26783W        W97383  28.776  23.764  14.776
26784W        W97384   4.346  10.764  14.967
26785W        W97385  25.896  24.211   4.229
26786W        W97386  24.498  25.994   4.066
26787W        W97387  30.232  21.116   1.793
26788W        W97388  29.903  35.900   3.115
26789W        W97389  15.136   4.504  12.712
26790W        W97390  11.422  12.559   0.982
26791W        W97391  39.662   2.973  11.704
26792W        W97392  34.115  29.697  12.602
26793W        W97393  17.626  39.293  13.964
26794W        W97394  37.278  42.748   3.116
26795W        W97395  15.187  43.567   0.736
26796W        W97396  38.160   4.266   9.775
26797W        W97397  14.795  38.503   0.373
26798W        W97398  28.544   4.861  12.675
26799W        W97399   4.721  40.266   0.980
26800W        W97400  10.209  25.626  10.756
26801W        W97401  19.678  18.784  14.109
26802W        W97402   0.377  29.701   3.203
26803W        W97403  44.468  31.493  11.617
26804W        W97404   1.300  29.500   1.303
26805W        W97405  26.860   8.061   3.108
26806W        W97406   0.463  35.865   3.767
26807W        W97407  32.576   4.470   1.353
26808W        W97408  37.460  36.526  12.421
26809W        W97409   9.997   9.694   3.823
26810W        W97410  29.621  16.289  11.219
26811W        W97411  12.260   3.994   0.639
26812W        W97412  42.416  30.980  10.904
26813W        W97413  28.457  29.993  13.914
26814W        W97414   7.937  23.267   1.115
26815W        W97415  21.605  40.225  12.501
26816W        W97416   0.454   5.225  12.178
26817W        W97417  14.408  28.974  11.588
26818W        W97418  28.898   3.875   4.140
26819W        W97419  33.460  17.157   4.411
26820W        W97420  30.597  10.922  12.764
26821W        W97421  33.078  29.442  10.856
26822W        W97422   7.545  12.164   2.890
26823W        W97423   2.080  31.529  10.697
26824W        W97424   1.842  25.162  14.470
26825W        W97425  35.794  15.596   1.719
26826W        W97426  15.187  27.584   4.734
26827W        W97427  23.123   0.589   0.029
26828W        W97428   0.405  32.370   0.750
26829W        W97429  24.039   9.410  12.013
26830W        W97430  25.598  13.849   2.864
26831W        W97431  31.903  26.027  12.098
26832W        W97432  22.808   4.240   1.190
26833W        W97433   4.657  28.687   3.772
26834W        W97434  12.819   2.751   2.849
26835W        W97435  19.692  25.979  13.614
26836W        W97436   6.339  38.995  11.021
26837W        W97437  31.707  14.283   3.377
26838W        W97438  39.249  36.641  13.484
26839W        W97439  36.191  32.209   0.816
26840W        W97440  44.967  33.961  10.434
26841W        W97441  13.168  24.109  12.678
26842W        W97442   4.487  26.412   4.415
26843W        W97443   5.340  23.729   2.751
26844W        W97444  43.352  29.893  11.325
26845W        W97445  29.118  17.084   2.755
26846W        W97446   6.290  32.380   3.656
26847W        W97447  32.348  26.425  14.364
26848W        W97448   4.223  39.880  10.205
26849W        W97449  34.471  35.630   4.074
26850W        W97450  23.017  44.283  12.932
26851W        W97451  31.239  42.490  10.673
26852W        W97452  18.065   6.772   3.630
26853W        W97453   9.774  15.672   2.798
26854W        W97454  16.591  36.736  12.550
26855W        W97455   1.491   5.169  12.127
26856W        W97456  35.891   3.229  12.077
26857W        W97457  34.336  30.534   1.781
26858W        W97458  31.509  29.737   1.651
26859W        W97459   4.178  29.188   1.140
26860W        W97460  26.083  37.096  14.056
26861W        W97461   4.791  37.807   3.641
26862W        W97462  39.792  20.453  10.318
26863W        W97463  14.634  32.635  14.452
26864W        W97464  33.299   1.783   4.071
26865W        W97465   5.564   8.838   4.533
26866W        W97466  21.497  14.229  12.358
26867W        W97467   6.761  32.583   3.766
26868W        W97468  41.503  14.276  13.965
26869W        W97469  27.179  43.577  10.673
26870W        W97470  31.561  29.002  12.677
26871W        W97471  15.990  16.213   3.631
26872W        W97472   8.985  34.335  14.443
26873W        W97473  11.147  12.287   0.292
26874W        W97474  18.378  11.034  13.059
26875W        W97475   7.110  24.601  13.495
26876W        W97476  19.445   6.311  12.344
26877W        W97477  44.560  16.757   2.647
26878W        W97478  18.769   4.878   3.614
26879W        W97479  42.978  19.270  12.957
26880W        W97480  16.049  10.386  10.162
26881W        W97481  24.582   1.406  12.176
26882W        W97482  31.914  33.722   2.944
26883W        W97483   4.009  24.580   1.850
26884W        W97484  37.306  10.166   4.102
26885W        W97485  17.151  23.617  12.111
26886W        W97486  30.621  10.013   5.022
26887W        W97487  28.275   1.468   2.208
26888W        W97488   3.878  16.534  11.149
26889W        W97489  39.361  15.777  12.639
26890W        W97490  21.493   0.283   5.088
26891W        W97491  19.560  11.631   2.215
26892W        W97492  35.162  43.510  14.725
26893W        W97493   7.385  15.288  10.501
26894W        W97494   9.819   1.921  12.399
26895W        W97495  11.145  12.861   1.326
26896W        W97496  11.368  28.444   3.242
26897W        W97497  43.449  36.687   0.453
26898W        W97498  15.201  40.600  11.482
26899W        W97499  37.449   3.162  13.934
26900W        W97500  10.920   8.530  14.635
26901W        W97501  14.187  39.607   2.711
26902W        W97502   1.171  25.133   0.895
26903W        W97503   5.451  24.143  12.592
26904W        W97504  17.777   8.196  11.723
26905W        W97505  37.940  22.940   4.614
26906W        W97506  15.932  26.924  11.186
26907W        W97507  10.145  24.206  13.510
26908W        W97508  16.514  11.765  14.506
26909W        W97509  13.372   3.236   0.322
26910W        W97510   7.728  22.260   4.428
26911W        W97511   1.223   1.989  10.479
26912W        W97512  42.257  37.785   1.804
26913W        W97513  15.498  25.430   3.082
26914W        W97514  18.812  26.705   2.767
26915W        W97515  32.792   2.416  10.697
26916W        W97516  42.264  14.511  14.447
26917W        W97517  23.634  37.805   0.518
26918W        W97518  31.954   0.932  11.581
26919W        W97519  24.714  43.493   3.223
26920W        W97520  18.799   6.482  14.259
26921W        W97521  30.103  24.986   1.827
26922W        W97522  13.350  11.200   0.817
26923W        W97523  14.237  20.077  12.627
26924W        W97524  12.574   5.243  12.026
26925W        W97525   3.416  21.323  13.036
26926W        W97526   1.346  36.182   4.156
26927W        W97527   1.434  39.104  14.057
26928W        W97528   1.297  36.596  13.606
26929W        W97529  16.909  19.335   0.558
26930W        W97530  37.505  28.410   2.638
26931W        W97531  17.289   8.989  12.811
26932W        W97532   5.288   6.203  14.591
26933W        W97533  37.286  37.418  14.047
26934W        W97534  31.930  25.532  10.690
26935W        W97535  18.674   1.678  14.083
26936W        W97536  10.294  16.447   3.114
26937W        W97537  20.547  23.125  11.456
26938W        W97538  28.067  21.699  11.943
26939W        W97539  32.046  28.960  13.953
26940W        W97540  23.132  35.032   1.256
26941W        W97541  22.634  12.077  14.313
26942W        W97542  29.141  38.024  11.985
26943W        W97543  24.631   9.882   2.826
26944W        W97544  38.021   1.138   3.088
26945W        W97545   6.425  31.976  12.036
26946W        W97546  31.924  41.939   0.774
26947W        W97547   9.623   7.712   2.780
26948W        W97548  32.626   5.535   0.895
26949W        W97549   9.390  30.212  14.346
26950W        W97550   2.700  21.575   0.340
26951W        W97551  32.125  44.708   4.002
26952W        W97552  26.736  26.797  13.987
26953W        W97553  34.867  25.609   9.920
26954W        W97554  31.712  18.252   1.457
26955W        W97555  22.704  20.684   1.376
26956W        W97556  24.843  29.656  14.027
26957W        W97557  32.060  24.998   0.999
26958W        W97558   8.842  40.328  11.073
26959W        W97559  24.140   4.013  14.268
26960W        W97560  26.675  43.063   2.247
26961W        W97561  31.518  39.736   1.492
26962W        W97562  19.270  10.396   3.530
26963W        W97563  30.104  23.262   2.395
26964W        W97564  34.358  35.002  13.541
26965W        W97565   8.416  35.344   2.177
26966W        W97566  43.021  25.466  12.505
26967W        W97567  30.630  37.995   2.692
26968W        W97568   5.308   1.035   3.579
26969W        W97569  32.517   1.196   1.829
26970W        W97570  26.712  10.956  14.681
26971W        W97571  13.811  36.166   0.652
26972W        W97572  40.815  29.048   3.915
26973W        W97573  15.026  26.040  12.222
26974W        W97574  20.171  29.140  13.496
26975W        W97575   0.095  44.043   3.290
26976W        W97576  30.602   2.999   4.501
26977W        W97577  24.240   5.841  14.721
26978W        W97578   2.516  42.867  13.871
26979W        W97579  33.333  22.597   0.888
26980W        W97580  12.144  33.546   4.099
26981W        W97581   8.706  30.721  13.776
26982W        W97582  40.439  22.122   3.673
26983W        W97583  17.870  40.827   2.615
26984W        W97584  29.563  15.775   0.676
26985W        W97585  36.911  29.905   0.450
26986W        W97586  31.641  36.573  14.434
26987W        W97587  42.479  32.128  13.836
26988W        W97588  28.630   8.686  12.453
26989W        W97589  22.618  35.058   4.050
26990W        W97590  36.811  31.960   4.579
26991W        W97591  33.700  21.681  12.680
26992W        W97592  37.707  33.605  13.435
26993W        W97593  41.880  22.204  13.034
26994W        W97594  35.064  25.376   0.834
26995W        W97595  32.885  11.731  12.970
26996W        W97596  25.982  15.092  12.101
26997W        W97597  38.492  27.557   1.789
26998W        W97598  27.556   6.446  11.487
26999W        W97599  11.237  11.062   1.517
27000W        W97600  34.807  43.069   1.949
27001W        W97601  44.796  40.386   1.362
27002W        W97602   6.261  25.706   1.252
27003W        W97603  13.087  42.968  13.457
27004W        W97604   1.425  39.258   4.564
27005W        W97605  18.745  34.492   2.729
27006W        W97606   4.970  28.019   4.532
27007W        W97607  44.119  17.665   0.040
27008W        W97608   2.722   4.993  11.698
27009W        W97609  25.166  44.987  10.125
27010W        W97610   7.430   0.014  12.531
27011W        W97611  10.846  34.999  13.349
27012W        W97612  20.284  12.114  13.329
27013W        W97613  26.753   5.280   0.496
27014W        W97614   1.011  33.810   0.509
27015W        W97615  30.876  42.802  12.478
27016W        W97616  22.675   6.197   3.017
27017W        W97617   5.311  17.570   0.414
27018W        W97618  38.489  31.960   4.556
27019W        W97619   6.302   8.209   4.329
27020W        W97620  26.503  37.414  11.630
27021W        W97621  37.929  37.905   2.901
27022W        W97622  15.315   3.158   1.731
27023W        W97623  20.341  12.828  10.499
27024W        W97624   5.037   3.692  13.326
27025W        W97625  42.255  17.044   2.618
27026W        W97626  36.843  11.754   0.496
27027W        W97627  39.282  38.845  11.964
27028W        W97628  28.468  33.922   5.070
27029W        W97629  28.797  44.247  10.221
27030W        W97630   8.899   4.855   4.451
27031W        W97631  22.201  31.404  10.611
27032W        W97632  22.536  15.750   4.574
27033W        W97633  41.443   9.947  12.754
27034W        W97634   7.353   3.289   3.295
27035W        W97635  18.805  26.201   1.754
27036W        W97636   5.903  32.681   2.203
27037W        W97637  38.049  40.417   0.853
27038W        W97638  27.800  21.802  14.410
27039W        W97639  37.489   7.143  12.412
27040W        W97640   3.238  12.698   2.845
27041W        W97641  36.222  17.094   3.986
27042W        W97642  17.981   9.435  14.966
27043W        W97643   0.805   6.854   0.268
27044W        W97644  43.994  41.033  12.514
27045W        W97645  27.669  29.137   0.498
27046W        W97646  42.203   5.139   0.460
27047W        W97647  31.837   6.691  12.940
27048W        W97648  12.687  35.596   3.874
27049W        W97649   8.893  31.638  10.777
27050W        W97650  35.578  19.039   0.248
27051W        W97651  18.526  33.454   4.323
27052W        W97652  25.691  43.402   2.236
27053W        W97653   8.260  21.146  13.511
27054W        W97654   7.742  27.024   3.226
27055W        W97655  12.850  33.088  12.013
27056W        W97656   2.837  31.814   1.668
27057W        W97657  33.926   4.789   4.314
27058W        W97658  24.295  30.609  10.316
27059W        W97659  10.487  44.561   0.814
27060W        W97660  28.933   4.581   2.055
27061W        W97661  28.493   4.347   0.002
27062W        W97662   1.623   4.943  11.412
27063W        W97663   7.019  36.163  12.406
27064W        W97664  23.940  23.646   3.323
27065W        W97665   7.446  35.835  10.946
27066W        W97666  12.061  28.122   2.810
27067W        W97667   8.457  42.952  10.475
27068W        W97668  30.932  18.716   3.196
27069W        W97669  17.890   9.414   1.514
27070W        W97670  31.353  33.185  11.561
27071W        W97671  42.848  40.789  10.948
27072W        W97672   4.789  17.545  14.844
27073W        W97673  42.560  28.431   2.836
27074W        W97674  30.080   3.553   4.688
27075W        W97675  35.050  18.376   2.681
27076W        W97676  14.643  43.957   3.076
27077W        W97677  33.215  27.182   0.547
27078W        W97678  23.733  36.733  11.553
27079W        W97679  41.440  21.066   0.974
27080W        W97680  13.078  40.794   1.840
27081W        W97681   4.007   1.907  14.093
27082W        W97682  27.612  39.055   4.354
27083W        W97683  22.540  34.870   0.356
27084W        W97684  31.082   5.790   2.057
27085W        W97685  23.560  21.495  13.661
27086W        W97686  32.128  23.248  14.356
27087W        W97687  27.212  10.786   3.858
27088W        W97688   4.092   4.934   1.354
27089W        W97689  34.029  13.971   4.543
27090W        W97690  10.314   0.931   4.660
27091W        W97691  39.050  14.735  10.380
27092W        W97692  19.288  11.723   2.666
27093W        W97693   7.966   2.280   2.555
27094W        W97694  20.313   0.850  10.153
27095W        W97695   0.726  32.076  13.882
27096W        W97696   4.399   1.933  12.460
27097W        W97697  44.237   3.411   3.603
27098W        W97698  14.400  16.738   1.283
27099W        W97699  15.228  21.992   2.821
27100W        W97700  19.865  44.966  13.822
27101W        W97701  25.722  43.937   0.935
27102W        W97702  41.405  20.109   3.259
27103W        W97703   2.469  36.075   3.192
27104W        W97704   3.472  43.900  13.909
27105W        W97705   7.017  32.220  13.512
27106W        W97706  10.717   6.882   4.071
27107W        W97707  18.763  30.192   4.242
27108W        W97708   3.343  28.712  11.611
27109W        W97709  25.572   0.028   0.193
27110W        W97710  22.330  31.159   0.023
27111W        W97711   8.362  14.006   3.722
27112W        W97712   0.666  23.574  12.665
27113W        W97713   7.915  28.517  14.005
27114W        W97714  28.643   9.503   3.210
27115W        W97715  15.051  32.069   3.399
27116W        W97716  25.757  20.254   0.848
27117W        W97717  35.118   8.957   0.842
27118W        W97718  34.725  21.018  12.124
27119W        W97719  22.058  41.022  14.790
27120W        W97720  20.208  34.828  13.948
27121W        W97721  30.645  22.583  10.444
27122W        W97722  26.465  33.103   0.397
27123W        W97723  10.655   4.667  11.997
27124W        W97724   3.838  22.208  13.908
27125W        W97725  32.051  29.001   4.601
27126W        W97726  33.125  14.330   3.433
27127W        W97727  35.704  18.034   4.069
27128W        W97728   5.457  14.160   4.089
27129W        W97729  21.044  39.682   2.360
27130W        W97730  28.411  37.905  10.594
27131W        W97731  29.772  36.188   1.842
27132W        W97732  35.810  24.691   1.696
27133W        W97733  27.243  33.071  14.684
27134W        W97734  11.890  30.613   2.629
27135W        W97735   8.099  23.507   0.033
27136W        W97736  26.577  44.596   1.418
27137W        W97737   0.044  35.362   0.794
27138W        W97738  40.982  36.933  13.376
27139W        W97739  41.354  23.963  11.266
27140W        W97740  35.644   9.188   3.890
27141W        W97741  30.415  15.698  13.856
27142W        W97742   5.910  22.647  10.639
27143W        W97743  14.121   4.409   2.367
27144W        W97744  13.796  25.631   4.010
27145W        W97745   1.824  23.218   1.427
27146W        W97746   7.790  15.553   0.907
27147W        W97747  38.089  22.146  12.990
27148W        W97748  14.678   8.396   3.614
27149W        W97749  43.025   0.577   0.795
27150W        W97750  14.645  14.339   2.337
27151W        W97751  25.219   0.938  11.731
27152W        W97752  35.883  17.256  13.039
27153W        W97753  38.104  22.537  13.893
27154W        W97754  38.952  33.971  11.407
27155W        W97755  39.445  20.531   3.660
27156W        W97756  14.464   3.822  10.716
27157W        W97757  28.556  14.231   4.559
27158W        W97758  35.927  40.961   3.360
27159W        W97759  42.350  20.163  13.094
27160W        W97760  35.039   6.605   3.561
27161W        W97761  33.098  39.518   3.282
27162W        W97762  18.520  32.958   4.559
27163W        W97763   0.493  33.981   3.818
27164W        W97764  12.601  12.203   4.671
27165W        W97765  17.739   4.155  14.134
27166W        W97766  12.149  15.208   1.258
27167W        W97767  12.665  17.295  12.573
27168W        W97768  28.452   0.460   0.025
27169W        W97769   6.887  31.056  13.153
27170W        W97770  17.786  28.009   3.614
27171W        W97771  32.104  16.848   0.233
27172W        W97772  38.657  39.079   3.213
27173W        W97773   8.925  29.612  10.657
27174W        W97774  43.078  19.188   0.423
27175W        W97775  42.566  33.403   1.829
27176W        W97776   7.284   7.247   0.301
27177W        W97777  18.577  34.130   2.354
27178W        W97778  19.003  16.369  14.857
27179W        W97779  15.338  12.168  12.567
27180W        W97780   8.478  22.092  10.796
27181W        W97781  38.657   7.955   3.225
27182W        W97782  25.703   7.062   1.345
27183W        W97783  21.178   7.083  11.475
27184W        W97784   0.571  33.967  14.878
27185W        W97785  19.470  22.116  10.426
27186W        W97786   8.895  42.871   2.201
27187W        W97787  19.125  43.246  10.713
27188W        W97788  40.443  13.393   0.051
27189W        W97789  16.488  35.850   2.944
27190W        W97790  16.647  25.810  11.527
27191W        W97791   4.373  22.872   0.765
27192W        W97792   8.928  26.258  14.961
27193W        W97793  11.898  19.316  13.555
27194W        W97794  34.629  25.654   2.093
27195W        W97795  10.626  39.947  12.806
27196W        W97796  22.592   9.575   4.562
27197W        W97797  39.864  37.219   4.092
27198W        W97798  31.553  44.490   0.821
27199W        W97799  18.995  29.376  10.244
27200W        W97800  19.810  36.396  14.357
27201W        W97801  20.042  11.403   4.907
27202W        W97802  10.823  44.765  10.607
27203W        W97803  39.051   7.418  12.084
27204W        W97804  20.580   9.325  14.079
27205W        W97805  22.178  32.939   3.685
27206W        W97806  38.925  16.499   2.695
27207W        W97807  28.517  41.803  11.441
27208W        W97808  36.902  34.783  11.656
27209W        W97809  38.408  29.951   0.735
27210W        W97810  40.467  34.861   4.476
27211W        W97811   6.524   5.739  12.987
27212W        W97812  39.686  17.693  13.835
27213W        W97813  24.760  37.134   0.255
27214W        W97814  39.681  36.050   2.790
27215W        W97815  40.524  26.453  14.679
27216W        W97816  42.509   9.632   4.284
27217W        W97817  22.705  44.884  11.398
27218W        W97818   7.753  20.030   4.535
27219W        W97819  10.215  40.482   1.397
27220W        W97820  19.145  35.517   3.051
27221W        W97821  35.588  14.603   4.026
27222W        W97822  18.064  28.389   0.759
27223W        W97823  37.398  21.644   3.391
27224W        W97824  36.071  40.386   3.158
27225W        W97825  18.613  23.494  11.711
27226W        W97826  36.781  27.972  11.957
27227W        W97827   9.797  26.416  14.398
27228W        W97828  23.714  16.254  14.352
27229W        W97829  29.958  35.403   1.822
27230W        W97830  35.029  14.513   0.238
27231W        W97831  38.225  25.308   3.638
27232W        W97832  33.369  31.627  12.104
27233W        W97833   4.348  19.970   4.147
27234W        W97834   5.281  40.349  13.350
27235W        W97835  39.692  14.072  11.641
27236W        W97836  34.512  31.609   3.618
27237W        W97837  37.222  15.534  11.114
27238W        W97838  16.370   2.303   2.804
27239W        W97839   2.682   9.406   3.892
27240W        W97840   1.727  11.525  11.522
27241W        W97841   0.712  11.206  14.172
27242W        W97842  24.247  23.484  12.196
27243W        W97843   4.683   6.652  10.647
27244W        W97844   8.267   7.308  13.020
27245W        W97845  20.505  31.712   1.305
27246W        W97846   9.557  26.520   3.332
27247W        W97847  31.919  21.241  10.655
27248W        W97848  37.514  31.901   1.958
27249W        W97849  40.329  25.505   1.789
27250W        W97850  44.398  30.690  13.011
27251W        W97851  41.052  22.504  12.007
27252W        W97852  41.796  14.076   4.587
27253W        W97853   0.571  15.074  14.281
27254W        W97854  27.620  23.431   0.813
27255W        W97855  11.403  13.617   3.660
27256W        W97856  41.463  30.504   3.435
27257W        W97857  27.147  29.873  11.658
27258W        W97858  26.642  24.171   1.473
27259W        W97859  29.190  16.557  12.883
27260W        W97860   7.088  29.406  14.393
27261W        W97861   1.942  25.159  13.388
27262W        W97862   5.932  17.637  11.645
27263W        W97863  15.286  32.568  13.795
27264W        W97864  13.694  11.263   4.696
27265W        W97865   7.475   8.718   4.188
27266W        W97866   1.492   9.172   2.357
27267W        W97867   3.858  15.653  13.374
27268W        W97868  19.203  17.166  10.693
27269W        W97869  37.339  35.437  14.115
27270W        W97870  30.578  23.832   4.570
27271W        W97871  11.729  31.100  14.347
27272W        W97872  23.022  33.375   2.081
27273W        W97873   6.501  34.596   1.726
27274W        W97874  44.890  39.500   3.564
27275W        W97875   2.785  38.401  12.804
27276W        W97876  40.437  10.287   1.907
27277W        W97877  34.104   3.516   1.271
27278W        W97878  18.521  13.399  12.106
27279W        W97879   4.370  14.744   3.553
27280W        W97880  36.922  39.886   4.546
27281W        W97881  22.580   3.860   3.372
27282W        W97882  23.036   9.146  14.260
27283W        W97883   3.288  18.212   2.860
27284W        W97884   8.273  30.989  10.658
27285W        W97885  15.925  20.875   1.385
27286W        W97886   5.424  12.541  14.519
27287W        W97887  42.804  31.529  12.575
27288W        W97888  15.813  19.228   3.188
27289W        W97889  16.749  40.576   2.093
27290W        W97890  21.467  18.204   2.356
27291W        W97891  23.669  10.937   2.334
27292W        W97892   7.119   6.722  14.989
27293W        W97893  39.629  17.629  11.110
27294W        W97894  12.755  37.474   3.387
27295W        W97895  31.753   8.812  10.373
27296W        W97896  32.498  32.192   3.093
27297W        W97897  43.175  43.023  13.869
27298W        W97898  30.058  22.558   4.758
27299W        W97899  30.926  13.592  13.727
27300W        W97900  43.548  41.401   1.737
27301W        W97901  30.483   2.723  11.118
27302W        W97902   7.447  37.505  13.457
27303W        W97903   5.905  27.427   1.288
27304W        W97904  44.260   9.134   1.457
27305W        W97905  20.049  23.296   1.380
27306W        W97906   2.749  14.584  14.418
27307W        W97907   8.813  36.013  14.872
27308W        W97908   9.671   7.947  14.958
27309W        W97909  11.003   0.940  14.321
27310W        W97910  12.182  36.089  12.889
27311W        W97911  27.258  16.712  13.064
27312W        W97912  14.431  37.389   1.841
27313W        W97913  16.638  33.365  13.051
27314W        W97914  11.902  22.329  12.370
27315W        W97915  38.814  33.659  14.825
27316W        W97916  31.447  15.662  11.179
27317W        W97917  22.192  29.687   3.631
27318W        W97918   4.367  30.418  13.102
27319W        W97919  19.137  15.710   0.487
27320W        W97920  14.316  23.761  14.818
27321W        W97921  22.216   7.174  12.577
27322W        W97922  43.988  15.255  10.738
27323W        W97923  10.298  30.538   1.599
27324W        W97924  44.013  18.592  13.967
27325W        W97925   7.774  28.646  11.997
27326W        W97926  23.375  10.647  14.918
27327W        W97927   9.642  44.297   0.230
27328W        W97928  21.199  13.575   0.862
27329W        W97929   7.492  11.027  14.955
27330W        W97930  41.433  35.698   0.284
27331W        W97931  32.122  36.293   0.378
27332W        W97932  31.425  28.181   0.378
27333W        W97933  10.253   2.814  14.365
27334W        W97934  24.234  31.286   2.227
27335W        W97935  22.517  11.788   4.473
27336W        W97936  30.486  37.151   3.280
27337W        W97937  16.787  39.636   4.647
27338W        W97938   0.245  43.305  13.593
27339W        W97939  11.812  17.488  12.925
27340W        W97940  12.743  23.919  12.925
27341W        W97941  37.800  38.029  10.577
27342W        W97942  28.958  13.771  14.861
27343W        W97943   3.321  39.301   2.770
27344W        W97944  18.366  17.344  13.827
27345W        W97945  19.036  14.837  10.594
27346W        W97946  26.093  11.938   0.808
27347W        W97947  39.342   2.041   4.426
27348W        W97948  30.213   6.820   1.461
27349W        W97949  27.996  43.025  12.095
27350W        W97950  22.258  42.997   2.786
27351W        W97951  11.117  37.520  14.119
27352W        W97952  29.163  18.858   1.020
27353W        W97953  42.311   4.145  12.506
27354W        W97954  30.749  31.823   0.698
27355W        W97955  10.517   7.757   4.092
27356W        W97956  37.962  32.009   3.269
27357W        W97957   0.602  24.436   2.369
27358W        W97958  14.085  36.917   4.321
27359W        W97959  17.132  44.878   1.769
27360W        W97960  17.285  28.963   2.426
27361W        W97961  36.404  41.369  14.423
27362W        W97962  20.614  37.289  13.490
27363W        W97963  32.787   9.838   1.483
27364W        W97964  20.578  30.325   2.064
27365W        W97965  19.122  30.306  10.268
27366W        W97966  43.389  38.529  10.801
27367W        W97967  35.101  13.816   4.378
27368W        W97968   0.274  40.530   0.815
27369W        W97969  25.638  37.476  11.687
27370W        W97970   2.921  27.615  12.931
27371W        W97971  29.621   4.244   0.780
27372W        W97972   2.696  42.989   0.258
27373W        W97973  15.238  24.408  14.505
27374W        W97974  17.671   3.688  13.938
27375W        W97975   2.885  39.802   4.179
27376W        W97976  23.586   5.390   1.285
27377W        W97977  11.277  43.096  11.482
27378W        W97978  36.606  36.814   0.990
27379W        W97979  41.217  15.111  12.949
27380W        W97980  21.911  11.803  10.766
27381W        W97981  38.990  19.704  11.941
27382W        W97982  31.459  28.168  13.160
27383W        W97983  43.948  28.942  12.049
27384W        W97984   2.235  40.979  13.306
27385W        W97985  20.611  24.524   2.092
27386W        W97986  40.992  19.540   4.031
27387W        W97987  20.710  35.826   2.756
27388W        W97988  34.094  42.141   0.329
27389W        W97989  32.912  41.404  12.349
27390W        W97990  26.407  20.563   4.834
27391W        W97991  43.370  13.567  12.993
27392W        W97992  42.736  36.165   5.021
27393W        W97993  35.943   4.377  12.856
27394W        W97994   9.413  32.238  12.494
27395W        W97995   1.630   7.561   0.845
27396W        W97996  26.230   1.247  10.532
27397W        W97997   2.353   9.248   4.827
27398W        W97998  44.473  29.533  14.826
27399W        W97999  22.492  32.062  11.945
27400W        W98000  22.799  12.390   0.475
27401W        W98001  25.707  29.627   3.093
27402W        W98002   9.247  23.651   1.718
27403W        W98003  11.492   6.186   0.654
27404W        W98004  13.065   7.681  13.638
27405W        W98005  12.756  44.515  13.354
27406W        W98006   1.106   7.719  10.619
27407W        W98007  10.941  28.938   0.691
27408W        W98008   7.074  37.531  12.442
27409W        W98009  29.008  38.170  14.446
27410W        W98010  21.253  10.377  11.315
27411W        W98011  39.554  11.350  10.898
27412W        W98012  21.573   2.726   2.512
27413W        W98013   9.717  17.560  10.757
27414W        W98014  14.286  14.828   1.428
27415W        W98015   6.413  32.762   0.770
27416W        W98016   3.758   4.734   0.200
27417W        W98017  14.284   2.843   4.624
27418W        W98018  18.745  22.897  13.829
27419W        W98019   3.332  43.886   4.772
27420W        W98020  28.900   5.346   0.995
27421W        W98021  11.300  13.580  14.871
27422W        W98022  25.980  17.231  14.749
27423W        W98023   8.397  40.896   3.626
27424W        W98024   6.622  12.756   1.449
27425W        W98025   2.404  12.888   3.832
27426W        W98026  10.103  23.637   4.173
27427W        W98027  12.108  29.407  11.194
27428W        W98028  44.481   0.856  11.865
27429W        W98029  24.143  11.798   3.593
27430W        W98030  24.667  31.592   1.864
27431W        W98031  19.577  18.806   4.094
27432W        W98032  22.767  31.743   0.743
27433W        W98033  31.109  43.682  14.917
27434W        W98034  40.421   8.995   2.280
27435W        W98035  22.577  33.589  14.591
27436W        W98036  23.755   7.974   0.482
27437W        W98037   2.169  31.695  13.756
27438W        W98038  39.487  10.020  11.152
27439W        W98039  23.892  21.028   4.959
27440W        W98040  18.137   1.933  10.931
27441W        W98041  27.498  22.934   0.929
27442W        W98042  10.850  35.445   0.237
27443W        W98043  18.302  36.514   0.344
27444W        W98044  41.523  25.633  14.563
27445W        W98045  44.349   0.028   3.626
27446W        W98046  35.910   4.126   4.720
27447W        W98047   9.722  16.870   3.819
27448W        W98048  41.987  36.849   0.359
27449W        W98049  31.437  18.365   1.888
27450W        W98050  40.064  44.885  11.812
27451W        W98051  43.354  23.390  11.055
27452W        W98052  21.731  13.793  13.688
27453W        W98053   0.407  25.910  10.987
27454W        W98054  24.115   7.687  13.870
27455W        W98055  42.686  18.370  14.463
27456W        W98056   3.895  26.378   0.281
27457W        W98057  37.575  26.788  14.929
27458W        W98058   6.902  43.684   0.373
27459W        W98059  15.032  39.441  11.630
27460W        W98060   8.112  32.991   0.320
27461W        W98061  18.146  44.267  13.064
27462W        W98062  14.176  23.947  11.627
27463W        W98063  36.520  29.009   3.632
27464W        W98064  17.148   6.382   5.025
27465W        W98065  10.167  10.745  11.172
27466W        W98066  24.185  27.717   0.830
27467W        W98067  36.858   2.667  13.780
27468W        W98068  22.699  26.731   4.831
27469W        W98069  32.706   5.899   1.307
27470W        W98070   9.959  21.234   0.077
27471W        W98071  30.021  23.618   3.109
27472W        W98072  19.816  13.071   4.141
27473W        W98073  18.131  37.168   2.279
27474W        W98074   8.606  21.205   2.767
27475W        W98075  37.739  22.891  12.586
27476W        W98076  21.113  37.083   3.659
27477W        W98077  10.678   9.817  14.318
27478W        W98078  41.935  35.919  10.725
27479W        W98079   6.012  12.305   0.365
27480W        W98080   9.222  36.800   1.690
27481W        W98081  30.272  36.527  12.144
27482W        W98082  16.715  13.536   0.798
27483W        W98083  43.373  30.207  10.904
27484W        W98084  26.011   3.135   4.971
27485W        W98085  40.034  23.130   3.261
27486W        W98086   8.353  33.628   4.662
27487W        W98087   3.510  19.832  10.802
27488W        W98088  22.662  12.644   1.772
27489W        W98089   3.422  22.048  12.260
27490W        W98090  22.638   7.683   1.817
27491W        W98091   6.248  28.601  14.420
27492W        W98092  10.224  30.436   4.126
27493W        W98093  43.836  21.766   4.440
27494W        W98094  11.179  42.483   3.636
27495W        W98095  38.908  23.089   0.704
27496W        W98096   7.226   8.773   1.352
27497W        W98097  21.570  18.258   3.821
27498W        W98098   2.708  31.707   0.430
27499W        W98099  11.777  35.482   3.428
27500W        W98100  13.241  31.944  13.850
27501W        W98101  23.500  28.813  12.992
27502W        W98102  28.373  44.435   4.642
27503W        W98103  21.794  29.690  12.535
27504W        W98104  30.922   9.390  11.611
27505W        W98105   2.831  11.590   1.360
27506W        W98106  44.190  22.655   3.326
27507W        W98107  38.891  24.243  11.122
27508W        W98108  13.602  12.053   1.862
27509W        W98109   2.692  35.968   1.707
27510W        W98110   5.708  27.506  14.482
27511W        W98111  16.006  34.946   1.905
27512W        W98112  11.820  33.403  12.739
27513W        W98113  26.292  15.581   3.346
27514W        W98114  25.415  35.340  11.197
27515W        W98115  38.925  24.506  11.898
27516W        W98116  43.858   5.813  14.108
27517W        W98117   5.246  19.785   1.550
27518W        W98118   7.912  44.971   0.173
27519W        W98119  34.364  27.572   3.833
27520W        W98120  21.750  43.637   3.914
27521W        W98121  10.638  33.021  12.404
27522W        W98122  11.784  22.313   1.339
27523W        W98123  10.228  42.241   3.203
27524W        W98124  19.105   3.023  13.905
27525W        W98125   1.571  17.351   2.429
27526W        W98126  39.960  42.319   1.455
27527W        W98127   7.617  30.307  14.175
27528W        W98128  11.605  27.909   2.823
27529W        W98129  40.675   2.357   2.751
27530W        W98130  35.336  25.999   1.830
27531W        W98131  16.046  23.725  13.013
27532W        W98132  33.494  15.687  13.363
27533W        W98133  18.702  39.864   3.923
27534W        W98134  44.816  38.765  11.110
27535W        W98135  40.949  14.503  11.373
27536W        W98136  33.483  19.720   0.397
27537W        W98137  39.190  22.857   1.919
27538W        W98138  26.819  34.951  12.463
27539W        W98139  28.234  44.461   0.513
27540W        W98140  18.354  14.100  12.476
27541W        W98141  44.196  10.492   1.675
27542W        W98142   1.160  32.413   2.034
27543W        W98143  28.105  43.982   4.966
27544W        W98144   7.938  16.780   3.627
27545W        W98145  36.583  39.081   4.644
27546W        W98146   2.922  16.642  10.726
27547W        W98147  19.770  33.935   4.344
27548W        W98148  27.266  33.134  11.162
27549W        W98149  34.923  13.704   0.464
27550W        W98150  43.250  38.426  12.080
27551W        W98151  27.718   8.082  13.337
27552W        W98152   2.961   0.407  14.837
27553W        W98153  23.229  22.339   3.170
27554W        W98154  35.216  17.283   4.099
27555W        W98155  39.434  36.359   1.806
27556W        W98156  33.516  25.536   1.795
27557W        W98157  40.343  24.155   1.415
27558W        W98158  41.375  40.561  14.227
27559W        W98159  23.647  23.907  11.202
27560W        W98160  20.653   8.685   0.285
27561W        W98161  33.401  16.293  10.294
27562W        W98162  35.384  25.213   1.282
27563W        W98163  37.553   4.428   5.006
27564W        W98164   6.453   3.946   0.923
27565W        W98165   6.837   8.670  11.513
27566W        W98166  22.245   4.944   2.817
27567W        W98167   5.847  16.793   4.010
27568W        W98168  26.736   8.291  14.958
27569W        W98169   0.238  34.826  10.644
27570W        W98170   1.447   7.923  11.579
27571W        W98171  44.519  20.287  11.359
27572W        W98172  34.898  19.666  12.736
27573W        W98173  30.985  31.249   3.196
27574W        W98174  27.793   7.817   3.683
27575W        W98175  41.405  33.928  12.241
27576W        W98176   9.137  33.294  14.936
27577W        W98177  28.116  41.041  11.849
27578W        W98178  24.281  39.011   2.146
27579W        W98179  27.488  26.855   3.630
27580W        W98180  11.623  25.877   1.797
27581W        W98181  37.112  15.926  13.508
27582W        W98182  39.613   2.166   3.563
27583W        W98183   7.583  16.608   2.297
27584W        W98184  43.891  17.822  10.749
27585W        W98185  41.942  33.899  14.904
27586W        W98186  39.960   5.125   2.860
27587W        W98187  17.703  34.431   0.538
27588W        W98188  42.537  20.356   0.051
27589W        W98189  21.362  18.248  12.807
27590W        W98190   0.635  32.606  13.925
27591W        W98191  20.375  17.931  10.733
27592W        W98192   4.778  11.752  10.725
27593W        W98193  42.572  14.552   1.916
27594W        W98194  24.606  23.799  13.509
27595W        W98195  37.518  16.508   2.889
27596W        W98196  19.200   0.973  11.259
27597W        W98197  39.282  35.877  11.107
27598W        W98198   2.805  28.011  11.245
27599W        W98199  40.298  42.943   1.794
27600W        W98200  33.307  28.131   4.987
27601W        W98201   5.407   1.821  12.045
27602W        W98202  25.657   9.448  14.882
27603W        W98203  38.297  24.542  12.455
27604W        W98204  39.991  38.925  12.617
27605W        W98205  16.346  43.330   3.229
27606W        W98206   9.539  17.084  10.663
27607W        W98207   2.080  27.122  14.278
27608W        W98208  28.968  44.790   2.533
27609W        W98209  15.687  19.037  12.859
27610W        W98210  27.981  40.578  13.513
27611W        W98211  41.387  16.390   0.434
27612W        W98212   3.547  23.730  11.945
27613W        W98213  27.546  36.895   3.435
27614W        W98214  12.303  17.805   2.215
27615W        W98215  33.955  19.715  12.309
27616W        W98216  11.401  29.984   3.756
27617W        W98217  28.935  44.546  10.991
27618W        W98218  17.037  39.436   1.452
27619W        W98219   9.702  26.233  10.428
27620W        W98220  38.114  26.341  14.360
27621W        W98221   2.998   5.457   3.663
27622W        W98222  30.826  12.852   0.160
27623W        W98223  27.248  40.040   0.926
27624W        W98224  10.780  18.217  10.664
27625W        W98225   2.481  29.913  13.449
27626W        W98226  21.860   9.704   1.458
27627W        W98227   4.373  43.537   3.290
27628W        W98228   8.241  38.002   2.721
27629W        W98229   5.846  19.102  11.026
27630W        W98230   3.411  19.806   4.574
27631W        W98231  34.403  26.252   3.257
27632W        W98232  41.525  11.438   4.965
27633W        W98233  42.968  12.161  13.828
27634W        W98234  15.640   6.094   3.083
27635W        W98235  32.489  20.221   2.806
27636W        W98236   7.771  24.608   1.702
27637W        W98237  29.441  23.357   4.678
27638W        W98238   0.405   6.255  13.261
27639W        W98239  33.094  10.781  13.840
27640W        W98240  25.478  20.509   2.311
27641W        W98241  25.054   4.346   3.584
27642W        W98242  16.338  29.660  14.376
27643W        W98243   4.204  40.299   4.658
27644W        W98244   8.187   9.439   0.353
27645W        W98245  21.452  23.537   3.222
27646W        W98246   3.326   6.762  10.580
27647W        W98247  17.350  43.830  13.019
27648W        W98248   2.119   7.370   0.888
27649W        W98249  29.051  34.856  12.352
27650W        W98250   7.660  44.550   0.929
27651W        W98251  39.696  24.136  13.374
27652W        W98252   5.893  10.800   3.838
27653W        W98253   4.721   3.540   2.289
27654W        W98254  39.021  13.306   3.716
27655W        W98255  43.036   9.914   0.349
27656W        W98256  24.855   1.891  10.850
27657W        W98257  29.572  25.091  14.887
27658W        W98258   3.409  29.732  14.542
27659W        W98259  37.355  11.421  10.726
27660W        W98260  22.291  39.032   1.172
27661W        W98261  38.949  17.841   1.397
27662W        W98262   5.234   2.934   3.619
27663W        W98263   8.155  27.282  12.410
27664W        W98264  23.267  31.611  11.517
27665W        W98265  11.748  32.391   4.230
27666W        W98266  34.519  44.815   3.010
27667W        W98267  19.264  22.504  12.517
27668W        W98268  28.492  25.740   2.226
27669W        W98269   8.071  12.247   3.016
27670W        W98270   8.149  15.533   2.878
27671W        W98271  12.073  17.238   4.186
27672W        W98272  34.414  38.917   1.055
27673W        W98273  26.964  23.207   3.108
27674W        W98274  17.839  24.062   2.875
27675W        W98275  33.176  36.060  11.596
27676W        W98276  24.499   7.163  11.534
27677W        W98277  34.387   0.217  12.403
27678W        W98278  42.797  38.139   1.757
27679W        W98279  30.086  21.928  11.944
27680W        W98280  43.815  22.038   1.846
27681W        W98281  38.090  13.881  12.468
27682W        W98282  15.877  29.641  10.580
27683W        W98283  34.253   8.864   1.041
27684W        W98284  31.846  32.126  14.438
27685W        W98285  30.124  29.923   0.953
27686W        W98286  37.384  42.941  10.333
27687W        W98287  20.655  36.338   2.730
27688W        W98288   1.519   4.625  12.224
27689W        W98289   5.960  23.485   0.290
27690W        W98290  19.331  11.828  13.835
27691W        W98291   9.213  23.271   3.268
27692W        W98292   2.020  28.438  11.142
27693W        W98293   6.941  16.105  12.889
27694W        W98294  11.297   6.681  14.007
27695W        W98295   2.436   2.662  11.427
27696W        W98296  38.380  28.199  12.773
27697W        W98297   1.995  42.146   3.220
27698W        W98298  35.297  41.876   3.720
27699W        W98299  36.380  14.905   2.062
27700W        W98300  44.993  20.763  11.117
27701W        W98301  37.040   9.271  14.968
27702W        W98302   6.882  30.386   4.329
27703W        W98303  12.823  43.662   2.281
27704W        W98304   3.766  33.701  14.043
27705W        W98305  11.775  29.154  13.164
27706W        W98306  39.058  41.314   3.775
27707W        W98307  11.403  41.190   3.126
27708W        W98308  41.854  14.031  12.948
27709W        W98309  35.027   9.237   1.289
27710W        W98310  39.265   5.779   5.164
27711W        W98311   7.799   5.212   2.681
27712W        W98312  20.731  28.442  13.150
27713W        W98313  39.594   2.498  13.874
27714W        W98314   9.359  20.478  14.688
27715W        W98315  26.573  27.622   1.030
27716W        W98316   2.902   2.414  11.446
27717W        W98317  24.605  31.043   4.349
27718W        W98318  13.860   2.040   4.085
27719W        W98319  30.352   9.778   0.896
27720W        W98320  21.677  15.652  14.023
27721W        W98321  13.913  35.806  14.449
27722W        W98322  25.696  34.214  12.705
27723W        W98323  37.482  14.699  12.470
27724W        W98324  13.885  17.708   2.200
27725W        W98325  43.539  32.655   3.179
27726W        W98326  28.794   6.197  12.303
27727W        W98327  44.009  11.305   4.625
27728W        W98328  24.919  19.193   1.257
27729W        W98329  27.031  27.203   4.826
27730W        W98330  28.506  37.386  14.527
27731W        W98331   2.049  17.097   0.837
27732W        W98332  32.440  37.807   1.663
27733W        W98333  22.112  44.443   0.818
27734W        W98334  18.629  25.145  12.110
27735W        W98335  40.834  36.060  12.272
27736W        W98336  42.073  11.058   1.726
27737W        W98337  22.086  23.942  12.513
27738W        W98338  26.588  28.197   4.143
27739W        W98339  44.655   2.851  11.161
27740W        W98340  22.511   7.435  12.126
27741W        W98341  14.770   8.301  10.967
27742W        W98342  13.957  39.390   4.331
27743W        W98343  35.542   4.334  14.015
27744W        W98344   8.652   5.899  11.793
27745W        W98345  14.700  24.641   4.499
27746W        W98346  12.132  25.566  10.989
27747W        W98347   1.054  29.564  10.758
27748W        W98348  20.583  36.346  12.161
27749W        W98349  38.010  31.874   3.768
27750W        W98350  12.120  22.735  11.485
27751W        W98351  28.586  27.068   0.240
27752W        W98352  19.214  15.536  12.324
27753W        W98353  17.019   7.334   2.082
27754W        W98354   3.028   2.048   4.175
27755W        W98355  35.753  22.405   0.415
27756W        W98356   8.842  34.666  10.700
27757W        W98357  22.692  35.542   1.870
27758W        W98358  37.602  43.379   1.377
27759W        W98359  44.047  26.191   4.953
27760W        W98360  29.220  39.589  13.428
27761W        W98361   2.270   6.189   2.211
27762W        W98362  17.677  34.985   1.882
27763W        W98363   6.159  40.011  13.593
27764W        W98364  31.327  20.943   4.029
27765W        W98365  19.165   4.336   0.534
27766W        W98366  42.421  37.211   1.386
27767W        W98367  25.162  24.328  11.965
27768W        W98368  42.989  18.744  13.880
27769W        W98369  19.727  17.614   3.789
27770W        W98370  29.974  13.072  14.628
27771W        W98371  27.999  39.333   2.072
27772W        W98372  34.857  22.700  14.710
27773W        W98373  10.585  17.259  12.453
27774W        W98374   4.119  24.037   1.844
27775W        W98375  20.275  16.270  11.601
27776W        W98376  43.785  29.659  11.188
27777W        W98377  26.162  39.403  13.297
27778W        W98378  16.498   2.438  12.156
27779W        W98379  29.125   5.907  10.491
27780W        W98380  42.781  26.880  10.720
27781W        W98381  27.680  12.448   0.303
27782W        W98382  40.229  22.183   4.571
27783W        W98383  24.488  32.920   4.897
27784W        W98384  18.276  12.601  11.535
27785W        W98385  21.520  31.989   3.153
27786W        W98386  36.824  27.435   3.603
27787W        W98387   2.408  17.435   0.642
27788W        W98388  36.314  37.645   0.716
27789W        W98389  31.805   8.430  12.525
27790W        W98390  28.469  32.302  14.816
27791W        W98391  38.989  22.594   0.940
27792W        W98392   5.840  25.986   1.373
27793W        W98393  30.327  32.685  14.055
27794W        W98394   7.294  16.386   4.759
27795W        W98395  21.204   7.127  13.452
27796W        W98396  34.195  26.607  10.883
27797W        W98397   7.259  24.969  13.838
27798W        W98398   2.243  43.843   1.724
27799W        W98399  25.017  19.032   1.741
27800W        W98400  18.165  12.671   3.321
27801W        W98401  13.551  31.537   3.182
27802W        W98402  14.021   4.806  13.926
27803W        W98403  38.762  20.546   0.936
27804W        W98404  14.737  21.190   3.124
27805W        W98405  36.454  32.213  12.899
27806W        W98406   2.790   3.894  12.615
27807W        W98407  11.774   2.027   3.722
27808W        W98408  43.798   2.499   1.387
27809W        W98409  18.790   6.670   4.526
27810W        W98410  20.289  18.256   3.347
27811W        W98411   9.373  13.687  10.564
27812W        W98412   0.552  17.690   2.125
27813W        W98413   4.199   0.380  14.752
27814W        W98414  36.569  23.028  13.518
27815W        W98415  14.523   3.840  11.407
27816W        W98416  37.347  23.199  12.447
27817W        W98417  12.886  31.541   2.807
27818W        W98418  25.688  15.177   2.762
27819W        W98419  14.558  27.704  11.138
27820W        W98420  17.695  42.512   0.406
27821W        W98421  16.710  37.022  14.324
27822W        W98422  19.525  25.586   3.464
27823W        W98423  19.486  10.116  14.883
27824W        W98424  21.711  44.390  12.580
27825W        W98425  30.516   2.134   3.191
27826W        W98426  11.426  21.110   3.141
27827W        W98427  39.057  36.191   4.711
27828W        W98428  15.175  42.447   2.127
27829W        W98429   1.199  27.216   0.392
27830W        W98430   8.975   9.875   3.616
27831W        W98431   9.024  35.795   4.170
27832W        W98432  32.152   5.878  12.517
27833W        W98433  42.382  12.132  12.561
27834W        W98434   7.805  20.632   2.707
27835W        W98435  10.176  31.940   1.768
27836W        W98436  10.208  31.162   4.424
27837W        W98437  13.474  21.033  11.160
27838W        W98438  31.421  29.928   1.019
27839W        W98439   8.295  25.711  13.006
27840W        W98440   5.071  41.473  12.095
27841W        W98441  40.918  38.253   1.815
27842W        W98442  11.850  29.221  11.633
27843W        W98443  12.516  35.731   0.442
27844W        W98444  17.522  35.892   3.543
27845W        W98445   6.851   3.679  13.492
27846W        W98446  22.665  42.706   3.701
27847W        W98447  42.334  11.228  10.788
27848W        W98448   3.503  33.620  11.144
27849W        W98449  18.132  12.630   4.609
27850W        W98450  43.227  16.696   0.986
27851W        W98451   8.554  18.072  14.305
27852W        W98452   1.701  22.637   3.889
27853W        W98453  15.066  20.666  10.720
27854W        W98454  31.254  21.813  11.180
27855W        W98455  21.882  21.184  12.425
27856W        W98456  38.459  34.020   3.340
27857W        W98457  22.728  25.663   4.144
27858W        W98458   0.006  29.676   1.888
27859W        W98459   9.315  18.502  14.102
27860W        W98460  34.264  25.469  13.527
27861W        W98461  41.498  14.982   3.109
27862W        W98462   2.461   4.020  14.620
27863W        W98463  33.800  25.948   2.658
27864W        W98464   2.971  17.040  14.680
27865W        W98465  35.532   5.916   4.690
27866W        W98466   8.823  38.313  12.522
27867W        W98467   3.802  44.230   3.093
27868W        W98468   7.125  25.374   1.039
27869W        W98469  32.936  14.834  11.038
27870W        W98470   2.684  40.808  13.897
27871W        W98471  24.077  44.145   0.281
27872W        W98472  26.781   5.871   1.716
27873W        W98473   1.014  16.157   1.765
27874W        W98474  32.461  35.532  14.278
27875W        W98475  30.023  36.326  12.542
27876W        W98476   0.929  41.085   2.264
27877W        W98477  39.472  21.538  11.895
27878W        W98478  41.315  12.562  13.937
27879W        W98479  18.797  20.558  11.020
27880W        W98480  18.331  40.821   0.519
27881W        W98481  39.108  37.933   3.963
27882W        W98482  42.258  26.517   4.601
27883W        W98483  33.508  37.085  13.593
27884W        W98484  11.108   8.873  13.420
27885W        W98485   5.871  37.580   0.890
27886W        W98486  19.492   0.426   4.852
27887W        W98487   4.209  23.280   0.213
27888W        W98488  31.033   5.247  10.649
27889W        W98489  19.110  30.264   5.301
27890W        W98490  29.288  33.518   4.603
27891W        W98491  13.608  42.839  12.070
27892W        W98492   6.520  23.057   1.715
27893W        W98493  42.770  10.176   0.747
27894W        W98494  37.345  17.194  14.982
27895W        W98495  19.167  29.160   3.622
27896W        W98496   1.579   8.899  14.453
27897W        W98497  37.704  38.474  11.659
27898W        W98498   7.819  40.919   3.654
27899W        W98499  40.147   6.264   4.954
27900W        W98500  40.897  29.169   0.380
27901W        W98501  44.449  21.884   1.509
27902W        W98502   1.208  30.098  12.664
27903W        W98503  31.126  19.783  11.749
27904W        W98504  14.668   9.163   0.011
27905W        W98505  43.005  24.728   3.712
27906W        W98506  36.478   5.230   2.728
27907W        W98507  34.001  32.745   3.054
27908W        W98508  26.492  44.733   5.086
27909W        W98509  28.594   8.025  13.838
27910W        W98510   8.410  38.924  12.147
27911W        W98511   6.718  17.574   4.186
27912W        W98512  20.613  27.470  13.383
27913W        W98513  30.363  44.354   1.599
27914W        W98514  15.974  21.206   3.386
27915W        W98515  33.195  13.636   4.589
27916W        W98516  32.571  22.907   0.427
27917W        W98517  35.422  31.774   4.906
27918W        W98518  23.681  10.324   2.391
27919W        W98519   6.029  44.617  14.588
27920W        W98520   3.699  11.758   2.679
27921W        W98521   7.212  19.849   1.731
27922W        W98522  41.272  41.522  13.713
27923W        W98523  34.332  28.345   2.584
27924W        W98524   0.922  10.042  11.126
27925W        W98525  38.087  32.039  13.451
27926W        W98526  27.931   6.209  11.050
27927W        W98527  16.308  28.501   2.654
27928W        W98528  24.721  37.617  14.343
27929W        W98529   3.809  43.758  13.527
27930W        W98530  31.670   5.846   1.323
27931W        W98531  29.667  36.408  11.469
27932W        W98532  31.086  29.456   1.756
27933W        W98533  43.398  39.327  12.525
27934W        W98534  12.858  36.007   4.122
27935W        W98535  25.211  36.978   2.595
27936W        W98536   0.875  10.114  14.286
27937W        W98537   4.956  34.860   2.347
27938W        W98538  10.612  24.054   2.692
27939W        W98539   9.752  20.998   2.203
27940W        W98540  32.136  18.589  12.790
27941W        W98541  17.416  20.959   3.508
27942W        W98542   0.904  39.382   0.498
27943W        W98543   4.338  28.445   2.302
27944W        W98544  29.152  43.396   1.629
27945W        W98545  44.724  42.988  10.581
27946W        W98546  24.152  21.272   4.600
27947W        W98547  11.715  25.463  14.050
27948W        W98548  31.709   2.522   3.218
27949W        W98549  25.636   5.968  14.201
27950W        W98550  10.072  14.847  11.569
27951W        W98551  10.935  23.599   0.486
27952W        W98552  34.495  24.653  13.323
27953W        W98553  43.859  44.286   4.152
27954W        W98554   8.636  33.893  14.407
27955W        W98555   9.197  22.729   3.295
27956W        W98556  33.677   8.849  12.434
27957W        W98557  40.977  37.916   0.225
27958W        W98558  31.880   6.115  13.077
27959W        W98559  25.617  12.270  10.799
27960W        W98560   2.396  11.299   3.611
27961W        W98561  44.397  20.182   4.051
27962W        W98562  20.320   5.471  14.764
27963W        W98563  29.328  14.225   2.704
27964W        W98564  36.252   8.765   4.179
27965W        W98565   9.043   2.623  11.670
27966W        W98566  13.623  28.468  14.820
27967W        W98567   6.322  40.598   3.619
27968W        W98568   0.195  21.752   0.601
27969W        W98569  26.633  33.369   0.818
27970W        W98570  27.702   8.353   0.270
27971W        W98571  29.196   4.155   2.733
27972W        W98572  41.831  16.146   4.625
27973W        W98573  39.556  44.007  14.298
27974W        W98574  35.488  15.439  11.626
27975W        W98575  23.752   0.247  11.052
27976W        W98576  18.631  40.815  14.394
27977W        W98577  40.018   0.932  10.717
27978W        W98578  20.490  34.139  14.378
27979W        W98579  27.837   1.429   0.422
27980W        W98580  31.945  43.295   3.200
27981W        W98581  13.869   0.261   2.626
27982W        W98582  40.578  41.399   3.798
27983W        W98583  33.936  10.964  11.067
27984W        W98584   3.044   4.379  11.575
27985W        W98585  21.305  28.022   1.746
27986W        W98586  35.714  30.061   1.847
27987W        W98587   2.039   6.904  14.705
27988W        W98588  17.342  39.974  11.487
27989W        W98589  38.349  11.140   1.218
27990W        W98590  19.951  10.717  14.282
27991W        W98591   1.335   1.347   1.455
27992W        W98592   8.067  12.740   1.301
27993W        W98593  27.173  11.186  10.660
27994W        W98594  40.876   8.201  14.790
27995W        W98595  24.760  39.287   3.703
27996W        W98596  12.631  38.368  13.694
27997W        W98597  30.937  42.537   1.381
27998W        W98598  11.636   8.638  10.322
27999W        W98599  12.247   0.574   4.590
28000W        W98600  42.818   3.236  11.193
28001W        W98601  10.884  24.018   2.227
28002W        W98602  24.550  22.585   4.612
28003W        W98603  22.652  10.018   1.209
28004W        W98604   2.862  14.139   2.786
28005W        W98605  25.972  37.192   4.673
28006W        W98606  28.615   0.928  12.509
28007W        W98607   6.636  24.362  13.469
28008W        W98608   5.195  10.270   0.951
28009W        W98609   7.951  36.608  13.266
28010W        W98610  22.701  29.935   2.290
28011W        W98611  42.539  21.863  11.774
28012W        W98612  38.761   3.369  14.773
28013W        W98613  34.126  11.804   3.226
28014W        W98614  43.123  43.207   4.068
28015W        W98615   9.306  42.706  12.903
28016W        W98616  43.495  15.055  10.749
28017W        W98617   1.034  43.406  11.160
28018W        W98618  23.726  28.401  13.930
28019W        W98619  14.818  14.788   0.798
28020W        W98620  38.583  38.034  11.113
28021W        W98621  27.862  11.824   3.764
28022W        W98622  15.276  35.962  12.614
28023W        W98623  12.607  25.524   2.801
28024W        W98624   7.816  13.856   4.205
28025W        W98625   5.327  24.711   1.259
28026W        W98626  40.411  42.302  12.780
28027W        W98627  44.539  36.043  12.187
28028W        W98628  21.252  39.829  12.490
28029W        W98629  15.318  16.655   4.550
28030W        W98630  18.068  24.649   2.751
28031W        W98631  38.032  28.226   3.734
28032W        W98632  24.106  18.268  12.430
28033W        W98633  16.593   5.144  11.877
28034W        W98634  31.485  22.695  13.360
28035W        W98635  41.732   2.993  11.523
28036W        W98636  11.260  23.515  12.368
28037W        W98637  29.967  35.555  14.069
28038W        W98638  27.511  24.151  14.981
28039W        W98639   0.824   6.724   0.779
28040W        W98640  24.230  30.513   2.685
28041W        W98641  34.091  19.124  13.016
28042W        W98642  19.654  17.765  11.166
28043W        W98643  26.047  41.006  14.569
28044W        W98644  34.381  21.121  10.935
28045W        W98645  15.479  18.797   1.975
28046W        W98646  33.521  26.141   3.042
28047W        W98647   6.607   6.258   4.975
28048W        W98648  19.542  18.078  12.398
28049W        W98649  20.476  22.079   4.692
28050W        W98650  14.229  40.940  13.554
28051W        W98651  42.078  18.371   4.124
28052W        W98652  24.015   0.818  11.747
28053W        W98653   5.902  29.131  13.565
28054W        W98654  10.928  16.830  12.283
28055W        W98655   4.228  21.704   1.395
28056W        W98656  24.159  10.396  11.386
28057W        W98657  43.746  22.338  10.765
28058W        W98658  23.446   6.914   3.168
28059W        W98659  17.361  28.997   1.034
28060W        W98660  38.317   8.301   3.904
28061W        W98661   2.242  37.386  11.605
28062W        W98662   2.719  22.345  11.173
28063W        W98663  28.023  34.247   3.241
28064W        W98664  25.066  22.295  12.456
28065W        W98665  25.589  30.075  12.033
28066W        W98666  34.216  41.039  14.405
28067W        W98667  34.814  21.245   2.318
28068W        W98668  12.116  34.961   3.908
28069W        W98669  42.573   1.306  13.545
28070W        W98670  13.265  43.200  14.135
28071W        W98671  39.024   9.915   0.434
28072W        W98672  14.273  20.843  11.045
28073W        W98673  34.992  37.265   2.630
28074W        W98674  11.185  20.632  12.123
28075W        W98675  43.164  14.283  13.524
28076W        W98676   6.783  34.550  12.357
28077W        W98677  34.189  16.678   0.209
28078W        W98678  26.706  21.010  13.617
28079W        W98679  40.581  21.586  10.038
28080W        W98680  17.987  22.242  14.501
28081W        W98681  25.675   9.327   3.770
28082W        W98682  13.617  35.024  13.199
28083W        W98683  17.782   8.483   3.080
28084W        W98684  16.142  13.570  14.075
28085W        W98685   3.364   6.766   0.815
28086W        W98686   3.766  25.207   2.434
28087W        W98687  12.069  28.768  11.685
28088W        W98688  30.680  30.079  12.671
28089W        W98689  41.188  43.130   0.257
28090W        W98690   8.279  26.406   4.204
28091W        W98691  35.560  29.870   3.441
28092W        W98692   2.201  29.450  11.970
28093W        W98693  17.000   0.003   3.741
28094W        W98694  18.642   6.502  14.745
28095W        W98695  38.053  41.515   1.698
28096W        W98696  10.743   8.782  13.800
28097W        W98697  17.251  36.309  14.460
28098W        W98698  36.306  38.662   2.736
28099W        W98699  38.941  11.374   0.437
28100W        W98700  37.454  19.616   0.006
28101W        W98701  25.612   9.689  13.977
28102W        W98702  34.522  31.941   4.026
28103W        W98703   4.974  21.014  13.268
28104W        W98704  44.646  10.959  13.015
28105W        W98705  21.756  12.538  13.559
28106W        W98706  39.116  39.085   3.485
28107W        W98707  21.153   5.809   2.753
28108W        W98708   1.225  25.202   2.738
28109W        W98709   0.918  30.009   2.329
28110W        W98710  32.583   2.824   2.153
28111W        W98711  19.551  37.393   4.331
28112W        W98712  15.460  34.624  12.526
28113W        W98713  28.910   7.736   0.258
28114W        W98714  36.629   7.429  11.634
28115W        W98715  31.601  43.449   0.664
28116W        W98716  14.293  26.503   1.390
28117W        W98717  31.686  26.054  14.571
28118W        W98718  37.861  25.197  11.990
28119W        W98719   9.588  44.177  13.864
28120W        W98720  10.491  30.146  10.528
28121W        W98721  33.474  41.991   4.222
28122W        W98722  31.841  35.560  14.910
28123W        W98723  22.024  15.032  13.056
28124W        W98724   4.490  38.982  11.838
28125W        W98725  39.317  17.350  13.954
28126W        W98726  33.725  31.610   4.121
28127W        W98727  42.914  31.543   4.640
28128W        W98728  13.943   5.468   9.916
28129W        W98729  21.523  33.613   0.916
28130W        W98730  20.123  28.488  14.181
28131W        W98731  33.832  38.333   4.468
28132W        W98732  22.235  31.535   2.796
28133W        W98733   8.493   7.654   1.461
28134W        W98734  36.480  29.663  10.797
28135W        W98735  40.961  16.465   5.010
28136W        W98736   2.817  29.231   3.184
28137W        W98737  21.555  13.334  13.861
28138W        W98738  17.625  31.411  13.919
28139W        W98739  36.482  30.969   1.006
28140W        W98740  34.002  28.183   3.171
28141W        W98741  30.819  13.607  10.678
28142W        W98742  27.174  26.985   3.116
28143W        W98743  20.831  12.441  12.680
28144W        W98744   6.875  19.733   0.249
28145W        W98745  11.229  12.781   2.245
28146W        W98746  37.570  24.873   0.923
28147W        W98747  24.030  30.357   4.398
28148W        W98748  20.647  15.880   0.764
28149W        W98749  16.048  35.564   0.693
28150W        W98750   6.373  42.787   1.898
28151W        W98751  38.690  23.491  12.054
28152W        W98752  24.873   6.341  14.844
28153W        W98753  35.640  30.975   1.185
28154W        W98754  10.111  11.650   9.647
28155W        W98755  13.358  30.474  13.361
28156W        W98756  39.076   5.806   2.390
28157W        W98757  35.876  27.549   0.864
28158W        W98758  44.481  29.712   3.125
28159W        W98759  15.643  38.019   4.658
28160W        W98760  24.237   2.552  12.225
28161W        W98761  24.987  17.083  14.735
28162W        W98762  29.380   2.183  14.505
28163W        W98763  29.864  42.575   4.665
28164W        W98764   0.409   8.329   2.717
28165W        W98765  35.634   9.762  13.560
28166W        W98766  25.500  15.176  11.987
28167W        W98767  41.643   4.866  14.365
28168W        W98768  27.925  32.521   3.243
28169W        W98769   8.770  33.211  10.910
28170W        W98770  34.537   7.846   1.822
28171W        W98771   7.455  36.325  10.719
28172W        W98772  10.895  14.245   3.337
28173W        W98773   2.940  30.667   3.366
28174W        W98774   6.835  33.059   4.383
28175W        W98775  36.976  31.077  14.483
28176W        W98776   8.111  34.522  13.604
28177W        W98777  18.347   8.886   4.313
28178W        W98778  36.882  36.540  11.135
28179W        W98779  19.138   8.214   1.503
28180W        W98780  20.683  14.612   0.332
28181W        W98781  10.853  26.231  12.034
28182W        W98782  29.287  14.817  14.078
28183W        W98783  20.203  34.520  13.481
28184W        W98784  33.414  43.399   1.900
28185W        W98785  23.142  29.374  14.897
28186W        W98786  17.249  39.627  14.432
28187W        W98787  37.498  42.765   4.137
28188W        W98788  29.501  37.337  11.856
28189W        W98789  26.445   8.727  14.828
28190W        W98790  20.265  35.164  14.902
28191W        W98791   4.612   9.153   0.822
28192W        W98792  24.283  28.781   3.930
28193W        W98793  43.921  20.969   3.747
28194W        W98794  28.548  16.688   2.335
28195W        W98795  19.320   8.014   4.916
28196W        W98796  37.312  17.481  14.440
28197W        W98797  35.628   2.385   3.414
28198W        W98798  11.880  44.313   1.179
28199W        W98799  15.798  23.462  10.767
28200W        W98800  27.146  20.556   3.744
28201W        W98801   0.804  43.991  13.028
28202W        W98802   8.130   5.859  12.490
28203W        W98803  10.852  15.634  13.892
28204W        W98804  15.920   0.192   0.454
28205W        W98805   2.286  23.680  11.615
28206W        W98806  36.548  35.049  14.779
28207W        W98807   0.443  17.286   4.566
28208W        W98808  42.867  43.757  13.434
28209W        W98809   6.525  29.950  12.089
28210W        W98810   7.192  13.334  10.506
28211W        W98811  35.396   8.764   4.619
28212W        W98812  35.437   2.552  14.459
28213W        W98813  29.942  17.249   4.625
28214W        W98814  43.040  37.122  10.619
28215W        W98815  25.572   7.916  14.426
28216W        W98816  31.184  36.118   0.267
28217W        W98817  24.499  39.152   0.397
28218W        W98818  43.951  24.538   1.425
28219W        W98819  11.019  41.289  11.093
28220W        W98820  41.775   1.256   0.964
28221W        W98821  35.096  27.389  10.809
28222W        W98822  36.678   7.202  13.402
28223W        W98823  35.597  13.630  13.436
28224W        W98824   4.623  10.954  11.068
28225W        W98825  14.571   9.835   1.004
28226W        W98826   8.902  26.935  13.573
28227W        W98827   1.257   5.486   3.549
28228W        W98828   5.282  16.215  11.474
28229W        W98829   9.750  11.466  13.979
28230W        W98830  19.052  12.489   0.855
28231W        W98831   9.724   4.792   0.936
28232W        W98832   7.949  14.394  12.570
28233W        W98833   3.397  11.432  13.834
28234W        W98834   9.885  16.712  10.677
28235W        W98835   3.972  25.951  14.445
28236W        W98836  30.636  36.342   3.959
28237W        W98837  16.650  33.293  10.931
28238W        W98838   1.712   5.857  13.113
28239W        W98839  23.045  22.625  10.315
28240W        W98840  25.744  11.801  11.690
28241W        W98841   0.244  33.514   1.026
28242W        W98842  43.301  28.654  12.490
28243W        W98843  18.179   9.963  11.657
28244W        W98844  15.847  29.110   0.744
28245W        W98845  31.006  40.246  11.659
28246W        W98846   1.666   1.779   0.754
28247W        W98847  43.907   4.933   3.506
28248W        W98848  36.642   8.882   3.779
28249W        W98849  37.535  22.037   2.049
28250W        W98850  15.896  13.111   1.826
28251W        W98851  22.995  32.967   1.466
28252W        W98852   4.231  36.978  11.535
28253W        W98853  32.459  15.907  13.075
28254W        W98854  17.560  42.477  11.439
28255W        W98855   9.837   7.143   1.783
28256W        W98856  41.903  26.791   0.708
28257W        W98857  39.823  11.085  14.493
28258W        W98858  38.035  30.291   4.604
28259W        W98859  32.818  11.056   4.290
28260W        W98860   3.188  38.843  12.086
28261W        W98861  15.800  21.158   4.575
28262W        W98862  11.451  10.894  14.869
28263W        W98863  44.868  38.246  13.887
28264W        W98864   9.762  43.209  12.326
28265W        W98865  42.426  24.435   0.760
28266W        W98866  43.582  20.011  14.988
28267W        W98867  35.354  25.182   2.455
28268W        W98868  38.515  11.606   4.715
28269W        W98869  31.368  11.208   2.425
28270W        W98870  12.460  25.929   4.982
28271W        W98871  23.963  34.561  11.212
28272W        W98872  22.488  38.259  11.494
28273W        W98873  18.665  37.913  11.664
28274W        W98874  29.544  10.802   4.355
28275W        W98875  14.266   7.266  13.060
28276W        W98876  37.001  24.629   1.656
28277W        W98877  25.397  42.772   2.699
28278W        W98878  37.076   5.794   3.848
28279W        W98879  27.237  19.963  11.273
28280W        W98880  27.511  21.199  12.419
28281W        W98881  34.808  11.265  14.860
28282W        W98882  23.977   2.426  14.343
28283W        W98883  15.846   7.919  12.461
28284W        W98884  15.986  18.741   1.898
28285W        W98885   0.728  33.095  11.398
28286W        W98886  38.900  39.827   4.609
28287W        W98887   3.469  22.146   4.870
28288W        W98888  17.666  29.655   2.624
28289W        W98889   5.774  16.304  11.510
28290W        W98890  33.653  13.758   1.693
28291W        W98891   1.462  22.287   3.576
28292W        W98892  40.854  34.536  14.522
28293W        W98893   8.874  20.208   0.825
28294W        W98894   0.314  26.183  11.420
28295W        W98895  16.190  29.953   4.732
28296W        W98896  31.897  31.215   2.234
28297W        W98897   3.417   8.130   3.158
28298W        W98898   7.228  24.246  11.108
28299W        W98899  19.534   8.447  10.726
28300W        W98900  26.601  27.036  11.672
28301W        W98901  30.039  17.608   0.917
28302W        W98902  40.501   7.720   3.619
28303W        W98903  41.637  10.223   2.269
28304W        W98904  38.017  33.550   4.180
28305W        W98905  17.125  39.428  13.971
28306W        W98906   0.830   6.364  14.215
28307W        W98907  10.825   1.409  10.871
28308W        W98908  42.391  20.627  13.317
28309W        W98909  12.946  40.227  13.496
28310W        W98910   8.364  31.533  10.730
28311W        W98911  14.688   7.336  12.769
28312W        W98912   1.364  37.220   4.355
28313W        W98913  31.145  18.221   3.236
28314W        W98914  41.260  10.758  13.849
28315W        W98915   0.519  17.597   1.154
28316W        W98916  21.831  32.840  11.130
28317W        W98917  38.422   6.350   4.310
28318W        W98918  27.097  36.415  12.910
28319W        W98919  23.492  35.570   2.817
28320W        W98920  17.969  24.478  13.507
28321W        W98921  34.907  22.972  12.785
28322W        W98922  41.045  37.494  11.694
28323W        W98923  20.748  22.777  12.466
28324W        W98924  37.801   3.836  12.056
28325W        W98925   5.912  33.434   0.211
28326W        W98926  12.689  38.361   1.238
28327W        W98927  17.727   3.674  13.052
28328W        W98928  27.050   9.545   1.903
28329W        W98929   6.762   1.748   2.405
28330W        W98930  15.954  11.227   2.248
28331W        W98931  43.515   8.022  11.920
28332W        W98932   6.221  17.226  11.616
28333W        W98933   6.861   6.931   2.906
28334W        W98934  38.051  15.840  11.673
28335W        W98935  25.814  39.557   2.899
28336W        W98936  12.470  18.986  10.766
28337W        W98937  41.507  20.348   2.760
28338W        W98938  18.650  15.159   1.711
28339W        W98939  24.342  26.842  14.079
28340W        W98940  30.597  30.861  14.267
28341W        W98941   2.377   1.756   2.731
28342W        W98942  15.032  37.301   4.281
28343W        W98943   8.372  36.644  12.937
28344W        W98944   6.184  43.254  13.976
28345W        W98945  29.255  24.672  14.873
28346W        W98946  12.280  28.590   0.319
28347W        W98947  13.182  18.603   0.792
28348W        W98948   4.523  31.571  10.584
28349W        W98949  26.205  10.875   3.757
28350W        W98950   2.436  41.472   4.207
28351W        W98951  15.764  30.112   0.922
28352W        W98952  44.806   6.687   2.637
28353W        W98953  24.647  41.752  11.926
28354W        W98954  16.239  15.884  13.570
28355W        W98955  34.825  15.404   0.153
28356W        W98956   9.648  24.921  12.446
28357W        W98957  17.131   4.650   2.238
28358W        W98958  42.355  29.527   0.262
28359W        W98959   1.376  27.760   2.099
28360W        W98960  36.886  23.677   0.369
28361W        W98961  39.648   5.357  12.663
28362W        W98962  15.792  40.761   0.810
28363W        W98963  18.201  35.604   1.679
28364W        W98964  26.949  11.286   3.707
28365W        W98965  44.747  25.475   2.772
28366W        W98966  17.669  40.573   4.701
28367W        W98967   8.406  19.620  13.745
28368W        W98968  29.154  26.673  10.883
28369W        W98969  32.319  21.001   0.293
28370W        W98970  43.932  36.633  14.373
28371W        W98971  21.026   2.450  13.034
28372W        W98972  29.639  10.478  12.098
28373W        W98973  32.367  27.342  12.664
28374W        W98974  24.111  41.038  10.728
28375W        W98975  12.681  22.875  13.036
28376W        W98976   6.885  18.527   1.781
28377W        W98977   1.219  34.461  10.301
28378W        W98978  28.170  24.714   3.180
28379W        W98979   6.521  39.587  12.868
28380W        W98980  23.872  17.152  11.469
28381W        W98981  25.805   0.671   3.039
28382W        W98982  17.732  31.853   4.863
28383W        W98983  24.140  17.230   4.745
28384W        W98984  40.264   7.862  11.670
28385W        W98985  41.474  42.254   1.854
28386W        W98986  39.005  16.829   1.424
28387W        W98987  30.707   2.724   3.377
28388W        W98988  30.391  16.137   2.646
28389W        W98989  16.799  26.716  14.223
28390W        W98990   8.345  31.487  14.503
28391W        W98991  20.737  33.663   1.381
28392W        W98992   4.854  15.858  10.595
28393W        W98993  39.024   7.567   1.034
28394W        W98994  12.682  21.717  11.232
28395W        W98995  17.392  13.781  14.438
28396W        W98996  31.911   5.180   0.627
28397W        W98997  29.613  39.920   1.921
28398W        W98998  42.107  30.455  10.452
28399W        W98999   9.302  31.013  12.946
28400W        W99000  20.777  14.955   4.190
28401W        W99001  17.228  25.239   0.349
28402W        W99002   7.779  42.126   3.741
28403W        W99003  19.603  16.207  11.203
28404W        W99004  11.244  23.158   0.330
28405W        W99005  36.715  11.686   2.217
28406W        W99006   7.413   8.941  12.615
28407W        W99007  38.420   3.712   0.524
28408W        W99008   6.460   7.309   2.326
28409W        W99009  26.793  34.166  14.340
28410W        W99010  17.971  17.059   0.949
28411W        W99011   5.400  34.791  10.786
28412W        W99012  42.314  27.596   3.144
28413W        W99013   1.682   5.782   3.427
28414W        W99014  29.393  43.947  14.400
28415W        W99015  23.021  36.156  12.049
28416W        W99016  10.923  27.598   0.037
28417W        W99017  19.455  31.017   2.975
28418W        W99018  16.052  38.735   3.206
28419W        W99019   0.548   4.706   0.763
28420W        W99020  21.676  19.557   0.224
28421W        W99021  16.188  15.277  11.481
28422W        W99022  20.489  19.241  11.093
28423W        W99023  12.058  27.568  13.381
28424W        W99024  39.471  25.383   1.643
28425W        W99025  11.597  42.081   2.907
28426W        W99026  16.975  13.934   1.949
28427W        W99027  34.297  15.896   1.882
28428W        W99028  24.364  41.082   0.518
28429W        W99029  21.185   4.884   4.666
28430W        W99030  28.108  18.301  12.955
28431W        W99031  18.216   9.148  13.836
28432W        W99032  29.528  22.950  12.603
28433W        W99033  32.401  31.436  14.295
28434W        W99034  38.033   8.139  14.830
28435W        W99035   3.919  30.970   0.734
28436W        W99036  21.604  36.955   0.801
28437W        W99037   5.828  18.770  14.155
28438W        W99038  39.220  16.076  12.119
28439W        W99039   4.738  25.726   0.845
28440W        W99040  40.286  43.327   0.145
28441W        W99041  14.066   7.788  14.436
28442W        W99042  39.772  14.283  11.168
28443W        W99043   4.777  18.476  13.536
28444W        W99044  41.111  34.526   3.187
28445W        W99045  43.299  11.681   4.297
28446W        W99046  40.282  24.664   2.957
28447W        W99047  27.905   3.378  12.926
28448W        W99048  30.434  30.913  12.102
28449W        W99049  11.022   6.988  11.679
28450W        W99050   4.807   1.820  10.465
28451W        W99051   8.651  44.834   0.880
28452W        W99052  20.190  30.898  10.645
28453W        W99053  30.083  30.095   0.457
28454W        W99054   9.704  25.452   2.396
28455W        W99055  39.730  14.624  13.581
28456W        W99056  23.632  34.501   0.819
28457W        W99057  22.244  21.369   2.003
28458W        W99058   2.747  21.622  12.006
28459W        W99059  14.725  36.039  11.962
28460W        W99060   7.327   2.966  14.331
28461W        W99061   5.161  27.234   2.183
28462W        W99062   0.609  42.346  13.193
28463W        W99063  25.792  41.902   4.222
28464W        W99064  17.280   1.889  14.023
28465W        W99065  32.350   6.721   4.028
28466W        W99066  10.344  14.625   5.151
28467W        W99067  40.916  25.143   1.765
28468W        W99068  36.487  12.153   3.873
28469W        W99069  36.829   9.830   0.670
28470W        W99070   6.654  22.473  14.930
28471W        W99071  10.671  40.468   0.537
28472W        W99072  13.155  38.052  11.231
28473W        W99073  20.828   1.170  12.008
28474W        W99074  18.695  40.866   1.936
28475W        W99075  10.737  25.259   3.400
28476W        W99076   6.963   4.827   2.233
28477W        W99077  14.285  31.826   2.170
28478W        W99078  21.421  30.904  13.065
28479W        W99079  26.741  18.617   1.269
28480W        W99080   7.935   6.666   0.474
28481W        W99081   9.074  44.835  14.282
28482W        W99082  37.383   9.084  11.157
28483W        W99083  31.491  26.759   4.886
28484W        W99084  32.350  29.142  10.159
28485W        W99085  39.473  42.552   1.380
28486W        W99086   4.472  32.146   3.171
28487W        W99087  42.944   5.160  13.038
28488W        W99088  36.293  27.678  12.006
28489W        W99089   1.796  36.000   1.389
28490W        W99090   3.093  32.413   2.313
28491W        W99091  23.634  19.900  13.488
28492W        W99092  39.849  32.531   1.870
28493W        W99093   9.059  30.685   2.400
28494W        W99094   0.257  31.045   0.247
28495W        W99095  32.610  14.733  13.479
28496W        W99096  28.758   3.687  13.113
28497W        W99097  37.351  26.053   4.344
28498W        W99098  39.300  39.550  10.639
28499W        W99099   4.017  34.984   1.963
28500W        W99100  30.476   7.752  11.774
28501W        W99101  30.587   7.910  11.310
28502W        W99102  27.687  31.100   0.316
28503W        W99103  35.965  28.848  14.337
28504W        W99104   9.848   9.415  11.253
28505W        W99105  22.689  34.488  13.525
28506W        W99106  22.271  17.546   2.411
28507W        W99107   6.782  38.432  12.594
28508W        W99108  11.605   0.186  11.116
28509W        W99109  12.159  40.318  11.508
28510W        W99110  21.662  33.615  14.133
28511W        W99111   1.894   8.431   2.161
28512W        W99112  39.287  41.705   2.696
28513W        W99113  15.115  38.042   4.711
28514W        W99114  18.881  19.307   5.158
28515W        W99115  15.825  22.502   3.762
28516W        W99116  32.469   3.849  14.505
28517W        W99117  18.118  29.465   2.829
28518W        W99118  29.533  20.784   0.318
28519W        W99119  18.603  11.320   0.087
28520W        W99120  17.093   0.777   0.299
28521W        W99121  20.187  20.129   3.128
28522W        W99122  39.352  19.924   4.499
28523W        W99123  39.724   7.682   4.463
28524W        W99124   2.331  22.460  14.317
28525W        W99125  38.233   8.897  11.417
28526W        W99126   1.606  37.667  12.189
28527W        W99127  24.152  14.260  11.095
28528W        W99128  14.095  16.764   2.611
28529W        W99129  19.536  27.536  14.277
28530W        W99130   8.145  37.587  12.854
28531W        W99131  33.392   5.750  10.470
28532W        W99132  14.280  32.865   3.915
28533W        W99133  24.148  42.245  11.457
28534W        W99134   2.768  12.158   4.094
28535W        W99135  22.075  28.573   0.854
28536W        W99136  38.365  44.326  10.573
28537W        W99137   4.958  42.040   1.667
28538W        W99138  39.626  32.711  14.978
28539W        W99139  21.269  34.528   4.213
28540W        W99140  30.053   9.260   4.013
28541W        W99141  14.117  35.014  13.030
28542W        W99142   1.672   5.508  13.500
28543W        W99143  37.672  16.807  13.488
28544W        W99144   7.865   6.316  11.641
28545W        W99145   5.641  41.376   1.682
28546W        W99146  41.357   2.800  12.921
28547W        W99147  15.360  11.842  10.581
28548W        W99148  26.083   3.346   4.048
28549W        W99149  33.898  15.609  11.588
28550W        W99150  36.381   4.012   1.311
28551W        W99151  19.223  18.161   0.352
28552W        W99152  37.698   9.593   1.883
28553W        W99153   9.763   7.777  12.015
28554W        W99154   9.255   0.272   4.830
28555W        W99155  13.585  25.162   2.693
28556W        W99156  16.683  26.716   1.198
28557W        W99157  39.083   0.464   4.149
28558W        W99158   5.312   0.420   0.619
28559W        W99159  33.845  21.010   0.495
28560W        W99160   9.609   8.931   4.685
28561W        W99161  13.546  36.011  13.174
28562W        W99162   9.757  33.980  13.417
28563W        W99163   2.113  40.378   5.141
28564W        W99164  37.424  23.462  14.270
28565W        W99165  21.504  29.076  14.835
28566W        W99166   6.887  13.344   3.711
28567W        W99167  38.940   1.562  12.419
28568W        W99168  21.430  30.526   4.799
28569W        W99169  38.350  16.760  14.491
28570W        W99170  11.657  38.981  11.036
28571W        W99171   9.641  38.405  12.908
28572W        W99172   8.021  20.819  12.779
28573W        W99173  38.468  20.030  14.945
28574W        W99174   9.264  31.107   3.349
28575W        W99175  14.171  43.563  11.095
28576W        W99176  31.615  18.183  13.400
28577W        W99177   2.406  34.446  13.881
28578W        W99178  12.523  41.082   3.313
28579W        W99179  23.674   0.464  14.481
28580W        W99180  44.206  14.382  13.024
28581W        W99181  29.621  29.774   1.074
28582W        W99182  40.432   7.790  14.316
28583W        W99183   2.320  38.334   4.832
28584W        W99184  41.129  41.320  12.812
28585W        W99185   7.878  10.757  13.370
28586W        W99186   5.609   9.071  11.168
28587W        W99187  37.571   1.245  11.918
28588W        W99188  32.044  17.566   1.899
28589W        W99189  31.918  23.164   3.384
28590W        W99190  33.611  30.600  11.294
28591W        W99191  36.305  29.145  12.959
28592W        W99192  27.525  39.296   0.548
28593W        W99193  41.018  24.461   3.837
28594W        W99194  43.190  44.001   4.468
28595W        W99195  22.966   3.722  14.826
28596W        W99196  21.808  28.030  13.452
28597W        W99197   5.521  41.795   0.015
28598W        W99198  39.855  10.932  14.007
28599W        W99199  37.115  38.098   1.303
28600W        W99200   1.020  23.209   4.638
28601W        W99201  24.691  17.264   4.666
28602W        W99202   9.030  14.085  10.588
28603W        W99203   6.427  22.538   2.389
28604W        W99204  15.588   2.375   3.546
28605W        W99205   3.053  13.975   3.248
28606W        W99206  28.216  37.960  10.069
28607W        W99207  10.302  33.614   3.161
28608W        W99208   9.586  17.751   0.505
28609W        W99209  29.999   8.204  14.837
28610W        W99210   6.191  37.809  11.056
28611W        W99211  17.867  32.075   4.070
28612W        W99212  14.070  32.880   2.382
28613W        W99213  13.298  43.463  13.675
28614W        W99214  10.912  36.179  11.729
28615W        W99215  40.224   1.753   0.009
28616W        W99216  23.406  24.416  13.369
28617W        W99217  30.622  44.975  13.937
28618W        W99218  19.508   7.169  14.160
28619W        W99219  41.555  20.179  13.883
28620W        W99220  30.357  42.042   9.974
28621W        W99221  12.857  44.197   2.413
28622W        W99222  11.957  42.001   3.309
28623W        W99223  23.601   2.378  11.001
28624W        W99224   7.609  19.811   0.826
28625W        W99225  40.825  20.579  10.657
28626W        W99226  35.899   0.332  14.938
28627W        W99227  17.772   7.404   2.418
28628W        W99228  25.285   4.234  12.109
28629W        W99229  15.511  24.301   5.019
28630W        W99230  39.741   5.702  13.047
28631W        W99231  33.031  14.454  12.902
28632W        W99232   0.035  22.308   0.342
28633W        W99233  44.465  24.810   0.704
28634W        W99234  20.050  22.069  13.321
28635W        W99235  38.200  37.854  13.121
28636W        W99236   5.856  29.988   4.281
28637W        W99237  39.930   4.879   0.909
28638W        W99238  43.629  19.515  13.759
28639W        W99239  24.651  26.976  10.930
28640W        W99240  13.062  23.749   3.155
28641W        W99241   9.642  42.370   3.642
28642W        W99242  42.857  17.318   1.282
28643W        W99243   8.217  41.299  14.897
28644W        W99244   8.119  32.052  11.395
28645W        W99245   1.977  25.656  12.692
28646W        W99246  43.622   7.867   1.821
28647W        W99247  32.837  24.888   2.242
28648W        W99248  40.715  29.864  14.889
28649W        W99249  40.848  24.773  10.583
28650W        W99250   9.658   3.398   1.070
28651W        W99251   8.389  15.014   0.283
28652W        W99252  32.212   2.852  11.966
28653W        W99253  32.253  11.740   2.402
28654W        W99254  21.056  14.415  11.963
28655W        W99255  11.699   7.811  13.114
28656W        W99256  11.028   2.262  13.448
28657W        W99257  22.681   2.200  14.047
28658W        W99258  41.523  41.875  14.893
28659W        W99259  12.453   1.183  12.155
28660W        W99260  29.964  33.083  13.149
28661W        W99261  25.864  22.090   3.695
28662W        W99262  23.253  25.646  12.503
28663W        W99263  31.738  16.387  10.586
28664W        W99264   5.407   1.728   4.225
28665W        W99265  36.135  13.833   3.354
28666W        W99266  43.357  13.748  13.878
28667W        W99267  26.455  37.835  12.841
28668W        W99268  13.089  41.470  11.499
28669W        W99269   4.147   5.334  14.149
28670W        W99270   8.033   4.597   4.702
28671W        W99271  20.189  25.729  10.169
28672W        W99272  34.893  43.859   2.779
28673W        W99273  36.034  30.102  13.392
28674W        W99274   9.333  32.002   3.178
28675W        W99275   0.422   0.640  13.327
28676W        W99276  37.066  44.744  12.554
28677W        W99277   1.679  16.187   1.293
28678W        W99278  35.933  30.435  10.689
28679W        W99279  25.028  33.692  12.893
28680W        W99280   6.967  20.102  11.180
28681W        W99281   8.863  44.488  13.426
28682W        W99282   6.926  43.809   2.201
28683W        W99283   8.324  32.633  12.888
28684W        W99284  38.098  32.289  13.934
28685W        W99285  18.235  41.773  13.495
28686W        W99286  20.080  34.524  11.084
28687W        W99287  20.375  19.036  12.080
28688W        W99288  24.983  34.643  13.802
28689W        W99289  12.310  13.377   4.618
28690W        W99290  39.799   5.155   0.339
28691W        W99291  19.573   6.647   2.395
28692W        W99292  44.337  24.941   3.341
28693W        W99293   2.781  10.412   3.990
28694W        W99294  26.668   7.417  12.763
28695W        W99295  34.474  18.067   0.934
28696W        W99296  28.457  24.838   0.221
28697W        W99297   8.258  35.631  12.641
28698W        W99298  29.497  11.183   0.070
28699W        W99299  10.711  41.856   4.642
28700W        W99300  12.613  22.231  11.233
28701W        W99301   8.128  44.536  14.031
28702W        W99302  44.732  12.718  13.935
28703W        W99303  19.071  14.592  11.477
28704W        W99304  16.453  28.034   1.467
28705W        W99305  42.517  23.213   3.724
28706W        W99306  38.485  17.115   2.271
28707W        W99307  28.475   3.677   2.881
28708W        W99308  17.067  23.200   4.839
28709W        W99309   9.251  37.542   1.249
28710W        W99310  33.569  15.385  14.840
28711W        W99311  12.191  21.162   0.441
28712W        W99312  24.138   9.217  13.364
28713W        W99313  31.966  20.453   1.318
28714W        W99314  17.298  32.457   0.774
28715W        W99315  17.354  24.515  14.876
28716W        W99316  35.525   2.358   2.237
28717W        W99317  42.949  25.070   9.953
28718W        W99318  18.350  10.319   3.131
28719W        W99319  44.148  43.892   0.686
28720W        W99320   9.670  24.507  14.061
28721W        W99321  17.181  39.790   0.633
28722W        W99322  31.520   7.723   4.592
28723W        W99323  18.240   8.446  11.884
28724W        W99324  13.200  16.552  10.416
28725W        W99325  43.916  18.010   3.213
28726W        W99326  42.137   7.320   3.082
28727W        W99327   1.262  11.310  10.812
28728W        W99328  28.180   8.205  14.534
28729W        W99329  30.167  43.010   4.569
28730W        W99330  10.163  13.725   1.738
28731W        W99331  42.504   6.496   3.817
28732W        W99332  36.817  19.142   1.855
28733W        W99333  20.536  41.811   3.123
28734W        W99334  30.081   1.378   3.712
28735W        W99335  42.899  39.005   3.271
28736W        W99336  39.843   0.478  13.475
28737W        W99337   1.396  42.816  14.484
28738W        W99338   9.101  27.093   2.417
28739W        W99339  18.068  43.723   0.652
28740W        W99340  44.379  13.282  13.582
28741W        W99341  25.016  12.831  10.767
28742W        W99342   3.526  21.592   2.820
28743W        W99343   6.078  26.147   0.938
28744W        W99344  30.565   7.927   2.392
28745W        W99345   9.521  15.866   1.452
28746W        W99346  40.731  43.846   0.859
28747W        W99347  12.905  10.408   2.334
28748W        W99348  37.837  33.948  13.935
28749W        W99349  15.929   4.316   4.614
28750W        W99350  30.045  26.508   4.011
28751W        W99351   6.660  19.046   2.978
28752W        W99352  44.696  42.299   1.876
28753W        W99353  23.528  22.913   2.817
28754W        W99354  40.805   6.466  11.499
28755W        W99355  16.363  17.607   3.752
28756W        W99356   1.293  27.367  14.695
28757W        W99357  13.506  27.096  13.945
28758W        W99358  22.130  38.066   1.564
28759W        W99359   6.528  19.700   3.571
28760W        W99360  41.709  19.510   1.711
28761W        W99361  30.629  25.469   2.355
28762W        W99362  35.292  21.575  13.799
28763W        W99363  21.322  28.201  13.441
28764W        W99364  15.375  22.497   2.812
28765W        W99365  35.546  38.476  13.303
28766W        W99366  22.170  19.476   4.968
28767W        W99367  24.054  42.905   0.806
28768W        W99368  39.980  32.957   0.979
28769W        W99369  34.922  17.174   3.105
28770W        W99370  43.012   0.972   1.738
28771W        W99371  32.975   4.880  12.431
28772W        W99372  28.180   0.019  13.835
28773W        W99373  10.932  11.782  14.956
28774W        W99374  42.873  36.967   0.688
28775W        W99375  15.759  44.831  11.868
28776W        W99376  20.295  34.105  10.877
28777W        W99377  24.271   3.783  14.718
28778W        W99378   0.260  41.750   3.529
28779W        W99379  40.399  44.355   0.975
28780W        W99380  39.408  37.104   0.489
28781W        W99381  32.073  29.966   0.676
28782W        W99382  41.012  33.169  11.657
28783W        W99383  38.708  15.577   0.697
28784W        W99384  31.463  23.273   1.257
28785W        W99385  15.916  20.789  13.565
28786W        W99386  13.711  43.470   0.900
28787W        W99387   6.875  14.657   3.322
28788W        W99388  17.989   7.722  11.685
28789W        W99389  35.860  22.624  12.080
28790W        W99390   5.916  10.435  10.740
28791W        W99391   8.071   7.769   1.206
28792W        W99392  28.550  29.129   1.468
28793W        W99393  30.744  43.846   2.960
28794W        W99394   6.241  27.635   3.415
28795W        W99395  32.195   4.745  12.878
28796W        W99396  28.626  21.542   3.292
28797W        W99397   7.241  40.000   3.186
28798W        W99398  31.014  43.001   0.424
28799W        W99399  44.476  27.680  12.924
28800W        W99400  40.026  19.739  11.947
28801W        W99401  21.716   2.360  14.177
28802W        W99402   2.130   5.349  13.693
28803W        W99403  20.070  33.617   2.128
28804W        W99404  36.148   6.551   1.844
28805W        W99405   4.896  13.222   0.251
28806W        W99406  36.416  37.453   3.301
28807W        W99407  24.477   1.318  13.918
28808W        W99408  37.381  14.295  13.948
28809W        W99409   2.374   4.748  13.909
28810W        W99410  43.898  33.614   4.568
28811W        W99411   4.709  17.670   2.808
28812W        W99412   2.930  29.956   1.519
28813W        W99413  15.168  29.966  13.386
28814W        W99414  11.627  20.404   0.494
28815W        W99415   4.026  43.999  13.913
28816W        W99416  28.519  42.709  14.060
28817W        W99417  23.911  25.391  13.918
28818W        W99418  13.159  27.490  13.788
28819W        W99419  21.427  26.082  14.732
28820W        W99420  17.470  24.329   0.966
28821W        W99421  39.047  24.493  12.856
28822W        W99422  36.694  19.721  13.397
28823W        W99423  35.635   4.988   0.376
28824W        W99424   8.082   6.853   3.459
28825W        W99425  29.515  12.649   3.304
28826W        W99426   1.763   0.802  13.544
28827W        W99427  10.290  30.488   2.613
28828W        W99428  10.446  22.509   0.456
28829W        W99429  38.943   8.390  13.044
28830W        W99430  22.543  22.266  13.117
28831W        W99431   7.724  37.400  14.868
28832W        W99432  12.812  36.416  11.271
28833W        W99433  30.861  37.916   3.146
28834W        W99434  38.116  33.175  10.440
28835W        W99435  31.065   3.958   3.689
28836W        W99436   6.346  42.537  13.541
28837W        W99437   7.299  41.046  11.304
28838W        W99438  19.307  39.003  13.852
28839W        W99439  27.562  16.371   4.885
28840W        W99440  36.467  16.097   3.711
28841W        W99441  31.612  16.236   2.068
28842W        W99442  18.676  39.165  12.744
28843W        W99443  35.960  20.166  11.149
28844W        W99444  13.654   3.820  14.754
28845W        W99445  14.118  16.253   2.465
28846W        W99446  19.071  32.558  11.268
28847W        W99447  22.932  14.460   3.394
28848W        W99448   9.648  39.354   4.708
28849W        W99449  19.471   9.705   3.148
28850W        W99450  13.035  40.747  13.516
28851W        W99451  21.451   3.627   0.643
28852W        W99452  18.811  15.554   4.678
28853W        W99453  24.595  39.755  12.907
28854W        W99454   8.187  34.664   1.357
28855W        W99455   6.419  33.900   2.298
28856W        W99456   3.200  37.515  14.608
28857W        W99457  28.146   6.814   1.264
28858W        W99458  13.660  31.198   1.921
28859W        W99459  21.313  43.304   2.521
28860W        W99460  21.018   2.892  10.705
28861W        W99461  21.727   6.265   1.614
28862W        W99462  22.287  39.815  10.734
28863W        W99463   9.227  18.860   3.710
28864W        W99464  31.738  10.969   2.164
28865W        W99465  33.623   3.333  11.138
28866W        W99466  12.571  27.511   1.739
28867W        W99467  43.712   9.716   1.878
28868W        W99468  19.718  30.638   1.788
28869W        W99469  38.585  16.719  14.957
28870W        W99470  38.380  42.180  11.760
28871W        W99471   8.831  10.342  13.019
28872W        W99472  21.260  12.665  13.969
28873W        W99473  11.616   7.453  14.449
28874W        W99474   9.771   4.482  10.566
28875W        W99475  31.021   7.651  11.148
28876W        W99476  12.660  15.536   4.308
28877W        W99477  18.557  10.183   4.569
28878W        W99478  34.885  44.110  11.979
28879W        W99479  43.917   3.841   4.234
28880W        W99480  41.951  19.513  13.101
28881W        W99481  44.828   4.350   1.705
28882W        W99482  32.139  31.662   2.257
28883W        W99483  33.585  43.225  11.738
28884W        W99484  22.679   1.123   3.246
28885W        W99485  22.257  28.234  14.833
28886W        W99486  28.920   8.939  11.808
28887W        W99487   7.501  17.506   0.086
28888W        W99488  41.273  19.176  13.380
28889W        W99489  19.182   7.493  14.363
28890W        W99490  18.569  15.050   0.270
28891W        W99491  20.290  30.411   1.418
28892W        W99492  35.160  16.253   4.138
28893W        W99493   0.780  30.621  11.477
28894W        W99494  34.909  28.013   3.354
28895W        W99495  17.136  39.773  10.255
28896W        W99496   8.374  24.168   2.547
28897W        W99497   1.183  41.528  10.775
28898W        W99498  44.059  26.582   2.826
28899W        W99499  24.978  23.490  14.301
28900W        W99500  24.428  27.802   3.457
28901W        W99501  42.939  25.439  14.651
28902W        W99502  35.470  25.380   4.601
28903W        W99503  38.568  42.331   0.398
28904W        W99504  26.171   2.929   0.625
28905W        W99505  22.623  15.218   3.667
28906W        W99506  14.693  19.165   1.200
28907W        W99507   6.356  35.422   4.795
28908W        W99508  32.335  32.413   2.652
28909W        W99509  19.024  41.746  12.910
28910W        W99510  21.247  12.460  13.450
28911W        W99511   2.205  35.152   2.348
28912W        W99512  19.804  21.369  14.370
28913W        W99513   6.098  22.143  11.728
28914W        W99514  16.100  24.750   2.765
28915W        W99515  42.939  30.937   0.873
28916W        W99516  16.210   4.487   0.238
28917W        W99517  13.551   5.458   4.221
28918W        W99518  16.317  19.694   1.939
28919W        W99519  27.691  37.159  12.870
28920W        W99520  17.788  28.927   4.044
28921W        W99521   1.672  12.803   4.432
28922W        W99522   8.686  21.555  11.528
28923W        W99523  44.640  17.520  13.408
28924W        W99524  25.698   6.193  11.020
28925W        W99525  24.542  10.335  14.661
28926W        W99526   0.262  28.675  11.498
28927W        W99527   1.871  30.377   0.362
28928W        W99528  16.654  35.125   3.560
28929W        W99529  32.627  37.817  14.939
28930W        W99530  38.467  44.525   0.592
28931W        W99531  11.880  43.470  14.985
28932W        W99532   1.965  38.842  14.256
28933W        W99533  29.343  42.348   0.048
28934W        W99534   8.759  33.350   4.580
28935W        W99535  38.960  11.925  14.099
28936W        W99536  16.731  36.515  14.476
28937W        W99537  41.521   9.669   0.899
28938W        W99538   6.693  19.800   2.389
28939W        W99539  34.134  20.628   3.352
28940W        W99540  23.559  35.088   1.556
28941W        W99541  25.802  12.376   3.057
28942W        W99542  35.802   4.836  14.852
28943W        W99543   0.259  39.465   2.206
28944W        W99544   5.784  38.574  11.637
28945W        W99545  41.560   7.950   2.296
28946W        W99546  44.375   0.309   1.612
28947W        W99547   8.611  16.704   2.369
28948W        W99548   1.927  29.405   4.976
28949W        W99549  44.669  35.398  10.998
28950W        W99550  22.054  25.699   3.640
28951W        W99551  31.998  32.095   2.946
28952W        W99552  29.905   7.331   2.006
28953W        W99553  39.202   3.173  14.974
28954W        W99554   0.490   8.365   3.755
28955W        W99555  11.790   2.284   4.601
28956W        W99556  32.956   1.269   2.143
28957W        W99557  14.249   9.149   0.372
28958W        W99558  16.207  29.329   1.806
28959W        W99559  21.244  33.784   3.281
28960W        W99560  21.533  32.340  11.155
28961W        W99561  23.976  39.540   4.147
28962W        W99562  36.991  13.061  10.626
28963W        W99563  42.009  13.867   5.050
28964W        W99564  29.714  17.503   4.234
28965W        W99565  18.107  21.128  11.115
28966W        W99566  30.478  31.385  10.644
28967W        W99567   6.890  22.837  13.367
28968W        W99568   4.295  11.704   3.178
28969W        W99569  29.134  26.004   4.726
28970W        W99570   2.730  41.571   2.184
28971W        W99571  18.095  36.469   3.103
28972W        W99572  11.732  11.327  14.795
28973W        W99573  35.977  16.024   3.187
28974W        W99574  11.071  23.034  14.838
28975W        W99575  21.707  14.121  12.828
28976W        W99576   5.687  27.691   0.911
28977W        W99577  12.391   3.206   4.533
28978W        W99578   4.884  15.679   0.217
28979W        W99579   2.774  16.853   4.073
28980W        W99580  14.095  25.695   1.867
28981W        W99581  12.312  24.236  11.668
28982W        W99582  28.614  36.374   1.122
28983W        W99583  21.773  25.569   2.275
28984W        W99584   8.125  19.750   3.693
28985W        W99585  26.089  16.791  14.486
28986W        W99586  11.264  10.487  13.423
28987W        W99587  39.014  38.295   2.943
28988W        W99588  20.213  37.385  14.548
28989W        W99589  34.320  44.397   3.244
28990W        W99590  37.004  28.013   4.389
28991W        W99591  30.738  33.214   3.803
28992W        W99592  40.561  15.117   3.172
28993W        W99593  44.336  39.997   0.744
28994W        W99594  14.588  33.025   0.527
28995W        W99595  38.163  40.125  12.366
28996W        W99596  44.734   8.959  11.472
28997W        W99597  30.655  20.163   2.264
28998W        W99598  30.436  16.765  10.742
28999W        W99599  41.730   0.428   2.355
29000W        W99600  26.664  14.041  11.034
29001W        W99601  35.982  34.284  12.294
29002W        W99602  14.914  32.081  10.481
29003W        W99603  24.583  17.072   2.824
29004W        W99604  44.723   4.714   5.118
29005W        W99605  14.448  25.731  12.586
29006W        W99606   8.974   2.448  12.136
29007W        W99607  14.166  44.033  11.969
29008W        W99608  36.305  10.713   0.736
29009W        W99609   8.223  16.445   4.305
29010W        W99610  34.987  14.759  11.041
29011W        W99611   9.793   9.431   2.069
29012W        W99612  30.373  22.161  11.131
29013W        W99613  40.128   5.337  12.877
29014W        W99614  38.547  21.971  12.069
29015W        W99615  20.312   4.365  14.288
29016W        W99616  16.090  35.471  12.565
29017W        W99617   5.276  32.580   0.026
29018W        W99618  24.098  29.179  12.969
29019W        W99619  16.110  40.457  13.955
29020W        W99620  43.525   1.244   4.883
29021W        W99621  33.510  38.036   4.150
29022W        W99622  15.225  24.990   3.063
29023W        W99623  13.253   9.886   0.585
29024W        W99624  20.900  29.994  14.315
29025W        W99625  22.174  14.374  14.415
29026W        W99626  21.514  42.960  14.317
29027W        W99627  26.719  17.657   0.297
29028W        W99628   4.059  10.643  12.895
29029W        W99629   1.843  27.920   0.800
29030W        W99630   7.936  20.753  10.598
29031W        W99631  21.063  25.249   1.704
29032W        W99632  28.969  35.321  10.485
29033W        W99633   3.804   7.347   4.609
29034W        W99634  36.793  27.783   2.624
29035W        W99635  32.460   0.502  10.423
29036W        W99636  30.391  24.704  11.169
29037W        W99637  42.372  19.773  10.225
29038W        W99638   7.573  25.376   2.878
29039W        W99639  43.946  34.613  11.874
29040W        W99640  22.429  42.432   0.806
29041W        W99641  35.687  20.587   1.721
29042W        W99642  34.133  20.711   1.966
29043W        W99643  19.347  22.987   3.681
29044W        W99644  21.071  24.834   1.345
29045W        W99645  44.298  32.175   4.089
29046W        W99646  44.391  28.977  12.572
29047W        W99647  38.496   2.320  11.527
29048W        W99648  35.367  12.558  14.483
29049W        W99649  19.659  27.711   1.431
29050W        W99650  21.826  41.970  11.606
29051W        W99651  34.168   2.520  11.929
29052W        W99652  14.564  31.996  14.030
29053W        W99653  36.104   8.399  13.335
29054W        W99654  13.990  41.097   3.170
29055W        W99655  29.956  20.638  12.563
29056W        W99656  41.789   3.346  11.155
29057W        W99657  32.885  17.703   1.303
29058W        W99658  21.816   2.031   3.588
29059W        W99659  33.918  14.556  13.960
29060W        W99660  11.405   5.360   2.421
29061W        W99661   4.242  26.600   4.002
29062W        W99662  35.340   1.798  12.082
29063W        W99663  43.027  16.018   1.793
29064W        W99664  14.676   1.209  13.906
29065W        W99665  23.191   6.139   1.882
29066W        W99666  37.866  20.060  12.074
29067W        W99667   0.888  27.484  11.646
29068W        W99668  44.745  11.857  13.668
29069W        W99669   6.013   7.760  14.882
29070W        W99670  31.015  31.873  11.183
29071W        W99671  17.816   6.629  12.360
29072W        W99672   1.239  44.984  12.511
29073W        W99673  33.850  17.309  13.089
29074W        W99674   5.830   7.823   3.078
29075W        W99675  39.441  26.826  13.277
29076W        W99676  40.816  18.890   1.101
29077W        W99677  26.885  20.964   3.531
29078W        W99678   3.279  30.136   2.270
29079W        W99679  19.932   8.115  11.940
29080W        W99680  22.513  10.072  14.085
29081W        W99681  33.542  14.194  12.304
29082W        W99682  24.105  11.274  12.091
29083W        W99683  29.572  17.161  12.202
29084W        W99684  16.024  25.471   0.817
29085W        W99685  28.887  15.034   3.105
29086W        W99686  42.267  39.440   1.455
29087W        W99687  24.065  12.638   3.983
29088W        W99688   6.500   4.667   3.287
29089W        W99689  33.023  35.254  13.602
29090W        W99690  16.633  10.765   1.034
29091W        W99691   0.707  30.379  13.881
29092W        W99692  38.475   2.285  12.557
29093W        W99693  44.926  26.153  11.082
29094W        W99694  29.209  12.626  11.931
29095W        W99695  43.477  40.428  10.809
29096W        W99696  13.699  14.152   1.948
29097W        W99697  22.392  36.515  12.846
29098W        W99698  42.825  27.581   1.289
29099W        W99699   7.201   7.686   1.176
29100W        W99700  22.721  30.044  12.630
29101W        W99701   3.856  42.966  14.335
29102W        W99702  13.084   9.587   4.703
29103W        W99703   2.236  13.226  12.833
29104W        W99704  25.234  40.852  12.043
29105W        W99705  17.313  14.325   0.023
29106W        W99706  19.817  28.116   4.533
29107W        W99707  18.313  12.574  13.357
29108W        W99708  31.583   7.704   2.742
29109W        W99709  28.201  38.463   3.682
29110W        W99710  14.180   7.539  11.170
29111W        W99711  44.560  21.306   3.201
29112W        W99712  36.996  29.961  14.082
29113W        W99713  37.383   8.177   4.318
29114W        W99714  11.701  19.766  14.891
29115W        W99715  21.144  43.615  10.149
29116W        W99716  33.253  23.258  11.634
29117W        W99717  31.962  36.068   3.320
29118W        W99718  33.079  28.434   2.136
29119W        W99719  31.000   4.334   0.354
29120W        W99720  24.475   8.223   4.228
29121W        W99721  15.598  15.084   1.425
29122W        W99722  38.075  41.969  14.317
29123W        W99723   1.262   0.349   4.111
29124W        W99724  12.030  35.086   1.018
29125W        W99725  40.096  10.882   4.116
29126W        W99726  44.686  43.880   2.004
29127W        W99727  33.370  33.000   1.042
29128W        W99728   5.173   9.865  11.708
29129W        W99729  14.542  20.694  10.627
29130W        W99730   8.967   0.486  11.217
29131W        W99731  44.866  21.561   4.437
29132W        W99732  35.173  13.906  13.387
29133W        W99733  12.083  15.701   1.410
29134W        W99734  16.137  35.382  14.347
29135W        W99735  18.399  41.059  10.841
29136W        W99736   9.780   2.776  13.134
29137W        W99737   2.150  17.443   4.844
29138W        W99738  12.783  27.068  13.053
29139W        W99739  13.304  12.896   0.298
29140W        W99740  19.970  38.895  12.072
29141W        W99741  23.418  23.632   3.279
29142W        W99742  23.285  13.803  14.042
29143W        W99743  37.905  44.404  14.897
29144W        W99744  34.977  16.996   3.575
29145W        W99745  11.073  16.282  14.825
29146W        W99746   6.118   9.373   4.111
29147W        W99747   9.171  21.600  14.861
29148W        W99748  18.689  27.817   5.007
29149W        W99749  26.946   5.330   3.604
29150W        W99750  17.522   9.130  11.968
29151W        W99751  42.600  21.629   1.421
29152W        W99752  33.188   1.425  10.714
29153W        W99753  14.390  43.018  11.127
29154W        W99754   3.106  33.993   2.313
29155W        W99755  35.588  19.988   4.694
29156W        W99756  29.656  28.529   1.506
29157W        W99757  34.633  34.312   2.917
29158W        W99758  39.506   5.650  13.517
29159W        W99759   4.139  38.460   4.371
29160W        W99760  41.881  37.615  11.650
29161W        W99761  19.149  14.379   4.861
29162W        W99762  14.095  26.400  11.679
29163W        W99763   4.693  23.035   2.769
29164W        W99764   7.440  32.474  10.436
29165W        W99765   7.281   7.932   1.955
29166W        W99766  37.941  25.655  13.002
29167W        W99767  44.535  38.672   3.735
29168W        W99768  19.992   3.188  14.342
29169W        W99769  27.119  41.300   1.135
29170W        W99770  40.913   8.499   2.714
29171W        W99771  16.158  44.958   2.395
29172W        W99772  30.577  44.719   2.376
29173W        W99773  34.529  20.209  10.756
29174W        W99774  44.791  24.341   3.310
29175W        W99775  41.903  35.113   2.517
29176W        W99776  15.285  38.990  11.534
29177W        W99777  34.590   1.742  11.422
29178W        W99778   0.971  17.655   1.398
29179W        W99779  28.239   5.916   2.167
29180W        W99780   7.410  37.334  13.974
29181W        W99781   4.772   2.006   4.592
29182W        W99782  27.527  17.974   0.241
29183W        W99783  16.964   5.603   0.729
29184W        W99784   6.927   5.900   1.379
29185W        W99785  28.661   6.237   4.123
29186W        W99786  31.787   2.457   1.109
29187W        W99787  31.115  35.027   3.176
29188W        W99788  36.477  19.897  10.446
29189W        W99789  39.807  29.960  13.893
29190W        W99790  19.469  21.609   3.609
29191W        W99791   8.830   7.493  14.300
29192W        W99792  19.225  43.022   1.177
29193W        W99793  21.887  12.294  12.473
29194W        W99794  32.286   6.452  13.127
29195W        W99795  40.928  44.458  12.027
29196W        W99796  20.797  35.899   4.165
29197W        W99797  44.508   2.411   1.691
29198W        W99798   2.812  12.874  14.408
29199W        W99799  25.547  39.652  10.400
29200W        W99800  32.440   2.439  10.320
29201W        W99801  23.029  10.657   3.796
29202W        W99802  42.914   7.977  11.021
29203W        W99803  12.055  24.118  11.241
29204W        W99804   2.976  28.772  14.873
29205W        W99805  24.725   8.826   5.182
29206W        W99806  15.069  38.464   3.934
29207W        W99807  17.370   3.668   2.200
29208W        W99808  17.752  21.256  12.908
29209W        W99809  29.394  14.292   2.190
29210W        W99810  42.713  15.666  12.500
29211W        W99811  34.070  11.781  11.693
29212W        W99812  26.654   2.172  13.865
29213W        W99813  37.888  37.378  14.364
29214W        W99814   4.403  12.397  13.265
29215W        W99815  44.806  11.115   2.123
29216W        W99816  11.060   1.805   3.665
29217W        W99817  43.758  31.889  12.401
29218W        W99818  35.064  18.557  13.359
29219W        W99819   5.991  17.543  13.854
29220W        W99820  32.186  11.171  13.958
29221W        W99821  41.973  35.508   5.127
29222W        W99822  29.876   0.533   0.593
29223W        W99823  20.236  36.084   0.214
29224W        W99824  12.428  36.604  13.858
29225W        W99825   4.756  19.608  11.638
29226W        W99826  12.175   8.403   3.873
29227W        W99827   3.539  14.178   3.164
29228W        W99828  39.044  32.074  11.493
29229W        W99829  35.269  26.392  11.945
29230W        W99830  25.307  32.963  14.905
29231W        W99831  33.961  22.749   3.617
29232W        W99832   1.828  40.968  14.505
29233W        W99833   5.141  35.648   2.277
29234W        W99834   3.980  44.955  12.880
29235W        W99835  32.864   8.509   0.458
29236W        W99836  38.996  11.773   4.820
29237W        W99837  10.773  42.269   3.882
29238W        W99838  36.141  24.635   3.112
29239W        W99839   9.798   5.918   4.411
29240W        W99840  37.201  30.856   0.379
29241W        W99841  31.473  25.232   3.971
29242W        W99842  10.248  17.851   0.988
29243W        W99843  30.899  15.362  12.069
29244W        W99844  43.765   4.258   2.907
29245W        W99845  16.178  32.061  10.341
29246W        W99846  15.454  17.298  12.293
29247W        W99847   7.734  13.501   0.878
29248W        W99848  43.255  20.399  14.859
29249W        W99849  33.489  19.232   1.398
29250W        W99850   4.068  38.025   0.690
29251W        W99851  12.140  39.082   4.375
29252W        W99852  31.764  13.583   2.857
29253W        W99853  14.701  39.856  12.979
29254W        W99854   1.347  26.414  14.979
29255W        W99855  23.418   6.193  14.949
29256W        W99856  39.389  16.705  11.137
29257W        W99857  40.249  29.681   0.933
29258W        W99858   9.426  12.838  10.997
29259W        W99859  26.898  29.422  10.162
29260W        W99860  10.617   3.440  11.431
29261W        W99861  40.323  15.683  12.544
29262W        W99862  18.797  25.493   3.558
29263W        W99863  37.026  44.311   2.269
29264W        W99864  14.187  30.496   2.830
29265W        W99865  42.329  28.119   0.238
29266W        W99866  31.373   1.701   2.141
29267W        W99867   9.732   9.464   3.422
29268W        W99868  16.264  27.330  10.512
29269W        W99869   0.322   0.970   3.230
29270W        W99870  26.543  41.274   0.655
29271W        W99871  41.554   9.759  11.555
29272W        W99872  34.865  36.314  14.460
29273W        W99873  11.580  32.485  11.909
29274W        W99874  10.232   6.490  11.083
29275W        W99875   5.424  40.957   3.420
29276W        W99876  31.103   7.574   4.175
29277W        W99877  29.422  34.009  11.270
29278W        W99878  35.467  23.977  11.667
29279W        W99879   4.358   0.319   4.587
29280W        W99880  14.638  11.626   0.504
29281W        W99881  41.067  24.952  14.693
29282W        W99882  15.320   8.239  14.312
29283W        W99883   5.497   3.824   2.022
29284W        W99884  29.944  20.068  11.287
29285W        W99885   8.739  27.441   1.625
29286W        W99886  15.268  27.520   0.009
29287W        W99887  37.400   1.872  12.150
29288W        W99888  11.693  27.639  10.797
29289W        W99889   1.211  32.060  14.600
29290W        W99890   1.767  18.371   3.736
29291W        W99891  36.410   4.385   2.155
29292W        W99892   1.446  36.950   2.990
29293W        W99893  33.861  28.607   4.157
29294W        W99894   9.253  36.930   4.619
29295W        W99895   8.431  16.540  13.553
29296W        W99896  17.661  22.790   2.279
29297W        W99897  15.892  21.176   4.062
29298W        W99898   8.358  31.856  12.461
29299W        W99899  16.898  14.756  10.162
29300W        W99900  37.864   6.313   2.117
29301W        W99901   1.351  41.319   3.200
29302W        W99902  32.447  19.150  14.435
29303W        W99903   8.783  11.447   4.104
29304W        W99904  24.753  31.872   0.536
29305W        W99905  37.886  10.819   1.024
29306W        W99906  10.783  23.962   4.541
29307W        W99907   1.319  25.039  10.982
29308W        W99908  21.726   3.208   0.819
29309W        W99909  44.502  42.461  14.046
29310W        W99910  42.581  11.145   1.770
29311W        W99911  12.215  26.521   3.654
29312W        W99912  15.504  24.088  14.859
29313W        W99913  17.588  28.963   0.270
29314W        W99914  13.087  25.453   4.612
29315W        W99915  39.050  44.553   4.083
29316W        W99916  32.586  29.514  13.489
29317W        W99917   0.879  17.754   2.766
29318W        W99918  41.817  22.229   3.360
29319W        W99919  25.571  12.721  13.419
29320W        W99920   8.228  40.302  10.828
29321W        W99921  18.065  43.902  14.261
29322W        W99922  18.079   0.706  12.338
29323W        W99923  37.380  25.036   0.206
29324W        W99924  36.515   5.876   0.308
29325W        W99925  40.430  43.929   3.515
29326W        W99926  36.119  14.869  10.852
29327W        W99927  18.835  23.532   4.891
29328W        W99928   6.845  41.247  11.956
29329W        W99929  33.479  14.376   1.052
29330W        W99930  28.077  38.649  13.365
29331W        W99931  29.105   6.268   0.929
29332W        W99932  41.482  27.963   5.047
29333W        W99933  18.981  38.633   4.533
29334W        W99934  28.389  14.039   2.134
29335W        W99935  14.343  10.257   4.546
29336W        W99936  35.477  17.318   3.228
29337W        W99937   5.269  35.844  13.040
29338W        W99938  27.708  24.786   2.918
29339W        W99939   9.817  24.779  10.757
29340W        W99940  11.143  22.228  13.880
29341W        W99941  17.820  35.871  13.927
29342W        W99942  26.165  27.071   0.425
29343W        W99943  41.780  30.265  12.986
29344W        W99944  16.225  34.480   2.059
29345W        W99945  14.417   8.094  13.391
29346W        W99946  14.278  33.415  13.835
29347W        W99947  22.409  25.487  10.618
29348W        W99948  15.237   0.590   3.122
29349W        W99949  21.610  15.676   0.444
29350W        W99950   5.960  30.654  11.412
29351W        W99951  13.720   0.914   0.167
29352W        W99952  35.812  19.532   4.649
29353W        W99953  30.226  11.840   4.702
29354W        W99954  40.449  35.510   1.147
29355W        W99955  10.181  19.340   0.687
29356W        W99956  40.476  30.027  11.519
29357W        W99957  32.829  25.198  11.665
29358W        W99958  36.148  19.495  13.093
29359W        W99959  26.052  33.949  12.449
29360W        W99960   4.395  22.783   4.181
29361W        W99961  34.937  21.136  12.577
29362W        W99962  11.786  22.017  11.874
29363W        W99963  18.355   9.272  13.361
29364W        W99964  16.393  33.328   5.358
29365W        W99965  22.498  10.928   3.804
29366W        W99966  27.202  31.175  14.561
29367W        W99967  33.599  21.696   4.239
29368W        W99968  14.968  33.500   4.119
29369W        W99969  16.319  23.031   1.139
29370W        W99970  44.546  26.755  12.006
29371W        W99971  40.779  28.725   1.713
29372W        W99972  20.237  31.351  11.569
29373W        W99973  30.110  39.753  13.250
29374W        W99974   1.523   9.361  13.902
29375W        W99975  36.400  36.595   1.822
29376W        W99976  33.394  26.972  13.693
29377W        W99977  19.117  21.050   4.300
29378W        W99978  43.235  42.914   0.950
29379W        W99979   2.443   7.909   3.326
29380W        W99980  13.248  40.696  10.230
29381W        W99981  16.116  24.772  13.584
29382W        W99982   0.276   0.884  12.866
29383W        W99983  33.085  26.126  11.556
29384W        W99984  18.772  21.713  11.479
29385W        W99985  11.004  41.293   2.376
29386W        W99986  26.504  21.167  14.885
29387W        W99987  13.876   0.982  12.006
29388W        W99988  29.501  17.500  11.620
29389W        W99989  27.538  40.065   2.283
29390W        W99990  34.691   7.474  11.012
29391W        W99991   1.958  23.373  10.637
29392W        W99992   7.669  36.996   3.591
29393W        W99993  23.279   9.809  14.057
29394W        W99994  15.744   1.388  10.753
29395W        W99995  22.617  12.107  12.210
29396W        W99996  13.195   2.934  12.477
29397W        W99997  10.596  23.376  14.392
29398W        W99998  32.450  30.996  10.602
29399W        W99999  29.006  36.828  14.905
29400W        W    0  31.283  26.162  11.454
29401W        W    1  39.055  25.432   3.296
29402W        W    2  20.638  37.119  11.048
29403W        W    3  23.776  16.133   4.047
29404W        W    4  13.876  13.703  14.481
29405W        W    5  24.540  22.858  10.594
29406W        W    6   9.158  17.642   2.196
29407W        W    7  20.600  18.286  13.804
29408W        W    8  25.619   5.589   3.646
29409W        W    9  26.453  37.037   0.893
29410W        W   10   4.913  14.973   1.257
29411W        W   11   5.180  37.272   2.240
29412W        W   12   7.144  24.004  14.927
29413W        W   13  37.369  11.647  11.195
29414W        W   14   5.399  27.997   4.248
29415W        W   15  22.574  40.080   3.205
29416W        W   16  11.318  10.199  10.713
29417W        W   17  35.814  21.460   0.502
29418W        W   18  18.171  32.065  12.967
29419W        W   19   7.217  37.329   2.404
29420W        W   20  44.902   4.323  12.907
29421W        W   21  35.069  40.373  10.981
29422W        W   22  44.524   6.160  14.026
29423W        W   23  26.108  38.123   2.129
29424W        W   24  41.504  15.522  13.090
29425W        W   25  42.769   2.148   0.248
29426W        W   26   8.159  16.201   1.317
29427W        W   27  21.689  39.531   0.163
29428W        W   28  28.428  14.774   3.287
29429W        W   29   2.342  34.881   2.778
29430W        W   30  13.403  33.389   0.594
29431W        W   31  11.070  11.373   3.845
29432W        W   32  16.973   4.155   2.791
29433W        W   33  33.822  42.812   4.523
29434W        W   34  33.178  28.058  13.999
29435W        W   35  33.087   4.730   1.402
29436W        W   36  10.145  25.178  14.326
29437W        W   37  25.161  39.034  11.813
29438W        W   38  19.448  12.131   4.222
29439W        W   39  44.972   4.524  11.533
29440W        W   40  39.040  16.034   3.660
29441W        W   41   9.116   3.874   2.683
29442W        W   42  37.276  10.833  12.107
29443W        W   43  43.845   1.473   2.200
29444W        W   44  33.398   1.285   2.425
29445W        W   45  44.635  26.566  12.629
29446W        W   46   2.582  29.534  14.286
29447W        W   47  23.072  32.969  12.414
29448W        W   48  43.839  32.383   1.281
29449W        W   49  40.539   0.504  11.169
29450W        W   50  22.135  44.824   0.480
29451W        W   51  27.416  18.071  13.367
29452W        W   52  37.536  44.340  10.795
29453W        W   53  13.280  43.682   3.594
29454W        W   54  31.193   6.381   2.679
29455W        W   55  10.785  44.531   2.077
29456W        W   56  19.587  11.670   4.862
29457W        W   57  31.177   5.742  10.431
29458W        W   58   5.238  41.760   4.942
29459W        W   59  15.457  17.139   3.683
29460W        W   60  24.111   8.345  14.794
29461W        W   61  16.874  21.433  13.434
29462W        W   62  29.685   1.875  13.502
29463W        W   63  17.102  29.663   1.928
29464W        W   64  29.026   6.910  12.528
29465W        W   65  22.171  36.813   0.089
29466W        W   66  43.231  12.331   3.347
29467W        W   67  22.307  33.483  12.483
29468W        W   68   9.953  42.287  11.208
29469W        W   69  32.114  30.463   0.435
29470W        W   70  18.072   3.621   3.328
29471W        W   71  19.654  10.893   0.322
29472W        W   72  36.138  35.095  13.040
29473W        W   73   4.771  24.124  13.898
29474W        W   74  17.993  36.828   3.927
29475W        W   75  38.981  43.950  10.271
29476W        W   76  22.193  19.671  14.129
29477W        W   77   4.608  32.622  12.981
29478W        W   78  43.540  43.917   0.276
29479W        W   79  23.296  11.352  10.738
29480W        W   80  30.247  11.330   4.069
29481W        W   81  23.509  38.475  11.736
29482W        W   82  23.208  41.303  13.064
29483W        W   83   3.229  20.378   5.102
29484W        W   84  19.208  36.291   1.450
29485W        W   85   8.847   4.952  11.406
29486W        W   86  30.753  40.698  12.487
29487W        W   87  23.739  36.413   0.894
29488W        W   88  31.699  42.547  13.442
29489W        W   89   1.449  11.135   1.863
29490W        W   90   3.879  25.511   1.414
29491W        W   91  28.069   8.625  13.345
29492W        W   92  30.627  44.050  11.073
29493W        W   93  10.688  26.490  12.934
29494W        W   94  23.003  43.691   1.834
29495W        W   95  16.225  26.932  13.907
29496W        W   96   0.817  10.835  10.691
29497W        W   97  29.119  24.461  13.497
29498W        W   98  28.460  20.128  11.982
29499W        W   99  43.426   3.182   4.047
29500W        W  100  18.808  13.821   2.780
29501W        W  101  34.082  21.616   4.119
29502W        W  102  41.442  36.057  12.842
29503W        W  103  17.835  21.461  13.656
29504W        W  104  42.996  38.941   0.070
29505W        W  105  16.811  33.771  11.677
29506W        W  106  11.193  16.262  13.309
29507W        W  107  25.496  37.757   0.418
29508W        W  108  37.481  29.196  10.652
29509W        W  109   3.304   7.155   2.232
29510W        W  110  27.911  21.161  13.998
29511W        W  111  41.781  37.101   2.276
29512W        W  112  40.918  23.241  11.020
29513W        W  113   9.150  41.246  12.872
29514W        W  114  32.364   6.867   2.584
29515W        W  115   6.007   2.223   1.365
29516W        W  116   2.788   8.582  14.996
29517W        W  117  43.323  27.864   0.319
29518W        W  118   9.676  12.299  12.694
29519W        W  119  39.514  29.975  13.468
29520W        W  120  35.319  22.659  14.400
29521W        W  121  12.787  36.928   3.221
29522W        W  122  38.934  25.209   2.826
29523W        W  123  37.517  43.463   3.228
29524W        W  124   9.216  17.078  14.143
29525W        W  125  28.616  43.512  12.924
29526W        W  126  18.992  17.034   5.004
29527W        W  127  44.496  44.701   3.150
29528W        W  128   0.204  41.736  12.645
29529W        W  129  24.707  34.104  12.933
29530W        W  130  28.401  39.558  11.691
29531W        W  131  20.188  43.882  11.457
29532W        W  132   2.662  12.985   3.098
29533W        W  133  35.080  16.217  11.243
29534W        W  134  15.903  33.848  14.477
29535W        W  135  27.798  35.037   4.848
29536W        W  136  40.765  31.658   4.645
29537W        W  137  20.643  23.160  12.804
29538W        W  138  28.963  21.447   0.471
29539W        W  139  22.761  43.726  12.935
29540W        W  140  10.834   0.489  11.136
29541W        W  141  36.809  11.772   2.781
29542W        W  142  24.663  28.656   0.013
29543W        W  143  44.817  15.547  12.470
29544W        W  144  42.558  44.908  10.644
29545W        W  145  36.486  44.505  14.701
29546W        W  146  22.029  44.983   2.935
29547W        W  147  43.789  44.396  13.936
29548W        W  148  44.252  22.694   2.173
29549W        W  149   4.855  32.522  12.514
29550W        W  150  13.162  24.427   4.634
29551W        W  151  43.187  31.959  13.067
29552W        W  152  27.202  14.782   3.725
29553W        W  153  17.779  40.589   3.266
29554W        W  154  11.276  39.258  12.539
29555W        W  155   5.806  13.172  12.437
29556W        W  156  13.755  42.529   3.457
29557W        W  157  16.243  40.170   3.323
29558W        W  158  11.765  38.424   0.840
29559W        W  159  40.709   7.768  13.466
29560W        W  160  32.817  22.573   1.242
29561W        W  161  27.911   2.405   0.247
29562W        W  162   7.677  42.095   1.175
29563W        W  163  20.048  23.261  11.479
29564W        W  164  36.838  12.930  11.606
29565W        W  165  10.398  18.171  14.663
29566W        W  166  32.061   6.064   3.618
29567W        W  167  12.936  36.967   0.966
29568W        W  168  34.377   0.843  11.880
29569W        W  169   3.857  32.026   0.873
29570W        W  170   5.876   8.135   2.660
29571W        W  171   4.461   0.819   1.359
29572W        W  172  26.553  24.798   2.699
29573W        W  173   4.415  20.678   4.775
29574W        W  174  17.095  38.994   1.835
29575W        W  175  24.829   7.397   4.759
29576W        W  176  14.753  13.284  14.387
29577W        W  177  37.502   1.644   2.614
29578W        W  178   9.331  12.188  13.181
29579W        W  179  11.239   3.263   3.808
29580W        W  180   9.839   9.199   3.895
29581W        W  181  30.484  22.094  11.628
29582W        W  182  26.224  39.289   4.213
29583W        W  183  18.495  22.135  14.489
29584W        W  184  11.370   6.927  13.217
29585W        W  185  37.059  16.605   3.086
29586W        W  186  42.919   1.310  12.571
29587W        W  187  11.223  37.424  12.590
29588W        W  188  26.830  11.266   9.860
29589W        W  189  34.615  36.357   0.518
29590W        W  190  31.159   9.181  11.216
29591W        W  191   7.895  12.625  14.382
29592W        W  192   3.080  38.400  11.862
29593W        W  193  43.754  23.684  10.653
29594W        W  194   0.121  22.958  11.022
29595W        W  195  17.669  22.234   4.603
29596W        W  196  20.641  42.507  14.467
29597W        W  197  20.729  28.168   3.465
29598W        W  198  18.512  30.935  13.556
29599W        W  199   6.458   7.621  12.983
29600W        W  200  44.236  33.528   4.173
29601W        W  201  22.642  40.477  12.569
29602W        W  202  42.283  44.227   1.852
29603W        W  203   7.319  24.269   1.661
29604W        W  204  38.764  24.737   4.969
29605W        W  205   9.641   5.136   0.534
29606W        W  206  40.825   9.238  11.323
29607W        W  207   0.590  13.369   2.199
29608W        W  208  37.493  44.762   3.795
29609W        W  209  15.464  10.876  12.958
29610W        W  210  16.374   7.137   3.826
29611W        W  211  44.417  19.811  13.743
29612W        W  212  26.782  28.035  13.400
29613W        W  213   4.712  13.926  10.688
29614W        W  214  28.522   4.875  14.825
29615W        W  215  17.753  33.744   2.137
29616W        W  216   6.371  18.819   4.590
29617W        W  217  38.947   3.836  14.023
29618W        W  218  39.750  30.329  11.907
29619W        W  219  27.229  35.637  14.767
29620W        W  220  25.305  17.611   1.759
29621W        W  221  10.229  12.830  13.057
29622W        W  222  22.548  44.797   1.602
29623W        W  223  17.556  33.151  10.196
29624W        W  224  41.249  43.201  13.025
29625W        W  225  17.624  26.702  12.014
29626W        W  226  43.875  21.071  13.422
29627W        W  227   0.044   6.459  12.894
29628W        W  228  24.253  25.500   4.070
29629W        W  229   3.980  18.719  13.895
29630W        W  230  22.263  39.851  12.476
29631W        W  231  39.372  41.500   3.426
29632W        W  232  10.734   2.316  14.790
29633W        W  233  27.453  11.625   4.005
29634W        W  234   6.434   1.611   4.976
29635W        W  235  20.768   4.336   1.713
29636W        W  236   8.890  43.090  12.994
29637W        W  237  42.452   6.448  11.305
29638W        W  238  24.720  33.716   4.284
29639W        W  239   0.382  37.955   0.760
29640W        W  240  41.616  14.260  14.877
29641W        W  241  31.854  17.470  14.402
29642W        W  242  39.621  14.722  12.651
29643W        W  243  24.836  30.081   1.958
29644W        W  244  36.016  21.033  13.035
29645W        W  245  21.701   5.737  11.648
29646W        W  246  11.628  14.790   4.561
29647W        W  247  39.968   0.181   0.376
29648W        W  248  30.697   2.677  12.376
29649W        W  249  23.532   4.202  12.057
29650W        W  250   3.790   1.964   2.954
29651W        W  251  37.052  39.789  11.560
29652W        W  252  10.183   3.966  13.087
29653W        W  253  14.531  25.654  10.410
29654W        W  254   3.503  28.236  13.718
29655W        W  255   3.236  37.800   2.963
29656W        W  256  22.317   6.613  11.497
29657W        W  257  28.022  37.146  14.801
29658W        W  258  24.409  20.225  10.676
29659W        W  259   5.774  22.157  10.781
29660W        W  260   5.955   9.715   0.740
29661W        W  261  44.479  41.136  14.379
29662W        W  262  30.060  24.663   4.548
29663W        W  263  10.316  41.891   4.980
29664W        W  264  10.639  17.761   0.644
29665W        W  265  44.662  27.948  12.501
29666W        W  266  23.985  16.525   3.675
29667W        W  267  33.432   0.923   0.270
29668W        W  268   2.304  38.276  12.996
29669W        W  269   4.258   0.287   2.181
29670W        W  270  28.375  27.026  13.703
29671W        W  271  28.196  39.861  10.233
29672W        W  272   0.297  22.722   2.019
29673W        W  273  10.195  26.174   2.717
29674W        W  274   1.750  44.787  13.825
29675W        W  275  28.212  10.945  14.156
29676W        W  276  36.116  31.131  13.553
29677W        W  277  38.479  18.580   3.286
29678W        W  278  28.503   4.893  11.657
29679W        W  279  31.412  43.918  12.544
29680W        W  280  32.876  15.197  13.406
29681W        W  281   0.379  25.207  12.884
29682W        W  282  15.054   6.707  10.745
29683W        W  283  13.921  17.174   3.656
29684W        W  284  38.904   2.566  12.485
29685W        W  285   7.749   4.414  12.819
29686W        W  286   3.545  18.236   3.327
29687W        W  287  24.903  38.831   2.782
29688W        W  288  37.406  28.155  10.715
29689W        W  289  22.750  26.718  11.143
29690W        W  290  13.140   6.090  12.086
29691W        W  291  27.625  36.334   0.865
29692W        W  292  18.981  29.096  14.839
29693W        W  293  39.467  21.747   2.227
29694W        W  294   4.166   9.325  13.412
29695W        W  295  32.398  19.762   3.078
29696W        W  296  25.186  31.573  13.313
29697W        W  297  10.776  40.019   1.902
29698W        W  298   0.433  33.684  13.052
29699W        W  299  39.812  27.070  14.377
29700W        W  300  21.562  29.084   3.051
29701W        W  301  40.539  32.478   4.552
29702W        W  302  32.130  30.008   0.178
29703W        W  303  31.365   8.872   1.334
29704W        W  304  28.354  18.743   2.049
29705W        W  305  23.458  16.351  12.043
29706W        W  306  24.607  12.716   3.915
29707W        W  307  26.391  35.528  14.423
29708W        W  308  34.729  41.646  13.925
29709W        W  309  30.101   8.372  12.054
29710W        W  310   9.838  29.868  11.564
29711W        W  311  11.610   1.332   3.272
29712W        W  312  12.530  40.369   2.345
29713W        W  313  13.435  19.824   4.265
29714W        W  314  29.527  40.792  12.100
29715W        W  315  15.497   5.485  14.335
29716W        W  316  32.666   6.857   2.167
29717W        W  317  12.632   6.200  11.048
29718W        W  318   0.255  42.948   2.378
29719W        W  319   3.390   8.607   0.443
29720W        W  320  25.004   5.812   2.877
29721W        W  321  32.555  17.841  11.752
29722W        W  322  11.762  27.247   0.370
29723W        W  323  23.349  28.676   0.341
29724W        W  324  24.084  40.629   1.463
29725W        W  325  26.944   1.163   0.938
29726W        W  326  26.020  26.977  14.933
29727W        W  327  22.197   9.988  10.801
29728W        W  328  13.702  32.642  11.872
29729W        W  329  35.554  16.566   0.927
29730W        W  330  29.003   4.831  11.842
29731W        W  331   0.779  23.612   4.453
29732W        W  332  16.612  22.669  14.497
29733W        W  333  21.467   8.371  14.342
29734W        W  334  37.463  23.665   4.159
29735W        W  335  19.304  30.712   1.320
29736W        W  336  21.040  16.618  12.924
29737W        W  337   8.862  20.679   3.854
29738W        W  338  43.746  13.767   0.651
29739W        W  339  14.753  27.012   3.293
29740W        W  340  43.290  11.571  11.840
29741W        W  341  43.720  29.489  10.702
29742W        W  342  28.682  18.469   4.106
29743W        W  343  26.443  30.095   1.222
29744W        W  344  32.893  36.974   1.200
29745W        W  345  36.562  33.159  11.527
29746W        W  346  32.551  12.127  11.580
29747W        W  347  24.014  15.227   3.325
29748W        W  348  23.183  32.364   0.844
29749W        W  349  36.427  10.265  14.843
29750W        W  350  24.691  26.126  12.357
29751W        W  351  40.030  42.485   1.949
29752W        W  352  28.093  27.502   0.261
29753W        W  353  33.011  44.004   4.509
29754W        W  354  37.978  32.822   1.859
29755W        W  355  26.702  30.661   3.370
29756W        W  356  30.097  13.360  13.160
29757W        W  357   8.385   6.078   2.314
29758W        W  358  31.639   0.925  14.548
29759W        W  359  26.844   1.290  13.698
29760W        W  360   2.855   8.085  13.873
29761W        W  361  38.313   0.953  13.479
29762W        W  362   4.380  41.114  10.427
29763W        W  363  31.933  36.666  12.056
29764W        W  364  38.920  44.271   0.522
29765W        W  365  14.319  35.830  14.119
29766W        W  366  41.961  23.882  14.851
29767W        W  367  10.843  32.623   4.426
29768W        W  368  29.995   9.628   4.393
29769W        W  369  37.271  34.377  11.672
29770W        W  370  14.296  20.267  11.085
29771W        W  371  29.601   5.850  13.838
29772W        W  372  27.401  25.468  11.888
29773W        W  373  23.730  22.252   2.266
29774W        W  374  10.056  28.654   0.708
29775W        W  375  20.000  42.403   0.258
29776W        W  376  32.124   3.698   4.713
29777W        W  377   7.960  35.336   1.951
29778W        W  378  38.536  11.623   4.173
29779W        W  379   0.289  16.195  13.754
29780W        W  380   6.241  41.499  13.514
29781W        W  381  19.945  40.394   0.669
29782W        W  382  41.645   2.394  13.072
29783W        W  383  10.082   4.953  13.210
29784W        W  384  11.357  18.513  13.493
29785W        W  385  39.495   4.286   0.254
29786W        W  386  12.151   8.225  14.787
29787W        W  387  25.602  18.652   4.300
29788W        W  388  36.469  38.380  10.665
29789W        W  389  27.750  37.633   1.887
29790W        W  390  10.802  29.242   1.098
29791W        W  391  16.996  43.417   2.397
29792W        W  392  13.710  21.078  14.057
29793W        W  393  10.023  21.622  11.636
29794W        W  394  18.500   8.310  14.878
29795W        W  395  35.349  41.399  12.864
29796W        W  396  20.542  26.268   1.246
29797W        W  397  26.012   7.360   0.996
29798W        W  398  15.306  25.167   0.548
29799W        W  399  38.621  34.874   4.131
29800W        W  400  27.411  17.975   2.730
29801W        W  401  37.504  11.373   0.026
29802W        W  402  42.741   6.474   3.377
29803W        W  403   4.336  42.890  10.430
29804W        W  404   7.292  19.661  13.582
29805W        W  405  29.559  34.858   3.359
29806W        W  406  32.680  16.129  13.530
29807W        W  407  20.751  18.361   4.067
29808W        W  408  43.611   8.256  13.196
29809W        W  409  28.524  18.003   4.220
29810W        W  410  13.481  41.618  13.340
29811W        W  411  14.325  15.196   0.473
29812W        W  412  39.769   3.291   1.074
29813W        W  413  26.974  20.219   3.359
29814W        W  414  23.993   2.712  10.171
29815W        W  415  44.455  37.947   9.688
29816W        W  416  35.246   0.516  10.442
29817W        W  417  11.059  42.090  10.063
29818W        W  418  31.147   4.795  11.234
29819W        W  419  15.375  43.307  11.710
29820W        W  420  36.625  41.337   1.880
29821W        W  421  23.832  13.320   2.883
29822W        W  422  19.814  41.438   2.732
29823W        W  423  41.965  43.721  13.402
29824W        W  424  28.407  36.307  13.390
29825W        W  425  13.871  28.552   4.218
29826W        W  426  41.139  11.898   1.640
29827W        W  427  11.260  33.367   4.618
29828W        W  428  16.035   1.404  11.592
29829W        W  429   2.404  10.361   3.473
29830W        W  430  24.202  41.034   1.835
29831W        W  431   3.777   9.304  11.520
29832W        W  432  29.187  44.251  12.686
29833W        W  433   3.978   6.623  12.068
29834W        W  434  39.032  44.551  13.859
29835W        W  435  40.882   7.594  14.486
29836W        W  436  36.864   6.358   1.152
29837W        W  437  33.857  30.569  12.618
29838W        W  438  13.919  19.579   2.191
29839W        W  439   7.677  28.679  12.851
29840W        W  440  40.610  21.225   1.853
29841W        W  441  33.272  27.609   1.271
29842W        W  442  38.760  31.507  10.793
29843W        W  443  27.082  35.930   4.321
29844W        W  444  31.084  17.768   4.930
29845W        W  445  26.374  25.634   3.069
29846W        W  446  41.008  17.539  12.580
29847W        W  447  19.070  39.530   4.341
29848W        W  448  12.648   3.925   1.829
29849W        W  449  18.345  10.351  12.021
29850W        W  450   1.506  42.026  13.016
29851W        W  451  27.369  16.461  12.077
29852W        W  452   2.411  37.504  12.454
29853W        W  453  20.484  38.396  14.535
29854W        W  454  34.830   1.807  11.893
29855W        W  455  13.069  26.153  13.977
29856W        W  456  18.082  28.593  10.742
29857W        W  457  38.257  37.598  10.946
29858W        W  458  42.853  26.982   0.212
29859W        W  459  19.133   8.660   3.227
29860W        W  460  35.512   7.775   4.662
29861W        W  461  27.925  28.858  11.901
29862W        W  462  44.402  17.093  12.446
29863W        W  463  28.517  17.766   2.722
29864W        W  464  14.839  22.235  11.230
29865W        W  465   2.534   7.248   1.248
29866W        W  466  13.270  24.298   2.915
29867W        W  467  26.287  43.917  14.841
29868W        W  468   5.304  28.400  12.005
29869W        W  469   2.672  23.599   1.189
29870W        W  470  15.629  40.499  14.226
29871W        W  471  15.478  36.925   3.887
29872W        W  472   8.415  38.828   0.782
29873W        W  473  44.994   2.274   1.748
29874W        W  474  36.012  36.889  13.253
29875W        W  475  29.517  40.348   1.322
29876W        W  476   1.293  23.710   4.603
29877W        W  477   9.769  34.137  10.575
29878W        W  478  43.907   6.390  11.368
29879W        W  479  30.529  11.097  14.793
29880W        W  480  43.668  36.444   1.019
29881W        W  481  22.205  27.545   4.009
29882W        W  482  37.414   2.306   4.018
29883W        W  483  44.492   6.327  13.498
29884W        W  484  27.047  36.417   0.380
29885W        W  485  22.427  34.273  11.191
29886W        W  486  13.345  24.662  14.627
29887W        W  487   1.565  39.440   2.820
29888W        W  488  30.393  42.015  10.479
29889W        W  489  29.729  23.082   0.374
29890W        W  490  24.674  35.882  14.957
29891W        W  491  29.531  41.134   0.757
29892W        W  492   9.344  26.142   3.705
29893W        W  493  14.155  35.255  11.574
29894W        W  494  15.228  36.286  14.010
29895W        W  495  44.155  24.223   2.319
29896W        W  496  24.932  31.223   0.298
29897W        W  497  28.360  30.630   4.345
29898W        W  498  30.048  29.405   0.817
29899W        W  499  34.099  15.789  12.027
29900W        W  500  16.024   9.819  11.623
29901W        W  501   9.422   1.794   2.875
29902W        W  502   7.950  31.940   3.262
29903W        W  503   7.868  18.673  10.354
29904W        W  504  34.778  14.109   3.139
29905W        W  505  14.717  10.598  11.827
29906W        W  506   1.752  12.112  10.807
29907W        W  507  30.283  15.800   2.218
29908W        W  508  30.190   0.865  14.375
29909W        W  509   5.010  10.787  13.270
29910W        W  510  43.117  41.552   4.733
29911W        W  511  39.543  31.396  11.099
29912W        W  512  26.167  20.000  13.983
29913W        W  513   6.405  31.345   3.805
29914W        W  514   4.968  13.843   2.215
29915W        W  515   6.665  32.416   0.406
29916W        W  516  10.702  37.105   1.495
29917W        W  517  25.185  25.135  14.245
29918W        W  518  10.722   0.239   4.568
29919W        W  519  22.741  37.544  13.423
29920W        W  520  44.279   7.052   1.712
29921W        W  521  32.063  10.767  14.929
29922W        W  522  41.315  22.666   2.627
29923W        W  523  41.961  40.031   0.838
29924W        W  524  16.664  41.964   4.488
29925W        W  525  27.509  37.548  13.175
29926W        W  526  26.181  35.453  14.955
29927W        W  527  26.771  12.325   1.132
29928W        W  528  28.729  44.462  12.601
29929W        W  529  14.756  19.031   0.252
29930W        W  530  44.960  25.531  11.674
29931W        W  531   4.720  26.708  10.136
29932W        W  532  17.055   5.316   0.307
29933W        W  533  40.953  24.925   3.598
29934W        W  534   3.765  15.278   0.279
29935W        W  535  10.298  28.125   0.868
29936W        W  536  28.967  33.717   5.045
29937W        W  537  34.594   5.077   2.621
29938W        W  538  14.296  42.854  13.260
29939W        W  539  12.029  34.319   1.666
29940W        W  540  28.154  33.998   1.388
29941W        W  541  31.702  41.729   4.150
29942W        W  542  34.002  12.549   1.462
29943W        W  543  36.816  33.506   2.261
29944W        W  544  18.581  15.676  14.339
29945W        W  545  15.106   2.238   3.739
29946W        W  546  34.813  31.501  13.357
29947W        W  547   1.650  24.214  14.351
29948W        W  548   6.259  37.071  13.353
29949W        W  549  42.716   1.503   3.699
29950W        W  550  24.247  13.363  12.664
29951W        W  551  26.527  38.489   3.174
29952W        W  552  37.247   1.358  13.783
29953W        W  553  11.104  26.517  10.739
29954W        W  554  44.588  36.255  11.016
29955W        W  555  28.482  35.842   4.558
29956W        W  556   2.888  13.543   0.194
29957W        W  557  30.829   0.539  11.718
29958W        W  558  32.991  27.864  12.042
29959W        W  559  21.094  25.647  12.002
29960W        W  560  11.505   2.282  11.243
29961W        W  561  29.488  30.121  13.328
29962W        W  562  14.185   9.124  11.224
29963W        W  563  17.660  10.708  11.117
29964W        W  564  30.099  31.586   4.356
29965W        W  565  30.966  14.650   4.623
29966W        W  566   3.335  41.305  12.891
29967W        W  567   7.956   9.311   2.446
29968W        W  568  16.273  38.570   4.534
29969W        W  569  39.491  18.053  11.394
29970W        W  570  15.895   6.760   0.476
29971W        W  571  11.045  42.889   3.346
29972W        W  572   4.297  41.025   0.192
29973W        W  573  15.774  28.260  14.025
29974W        W  574  15.618   9.808  14.950
29975W        W  575  19.800   8.854  12.882
29976W        W  576  37.854  20.397   3.254
29977W        W  577  24.736  24.957   3.075
29978W        W  578  20.731  35.713  12.406
29979W        W  579  32.140   1.267  12.480
29980W        W  580  36.935   5.416   0.908
29981W        W  581  35.308  13.831  12.869
29982W        W  582  20.383  37.535   1.951
29983W        W  583  28.388   3.753   0.822
29984W        W  584  19.385  42.491   1.125
29985W        W  585  16.052  18.730  13.055
29986W        W  586  28.005  24.199  12.860
29987W        W  587  25.935  38.905  13.380
29988W        W  588   1.919   9.076  14.076
29989W        W  589  10.593   7.609   2.820
29990W        W  590  43.231  36.502  10.816
29991W        W  591  43.781  15.751   1.283
29992W        W  592  42.900   3.962  14.492
29993W        W  593  17.346   1.238  13.112
29994W        W  594   2.358  29.072   3.440
29995W        W  595  12.062  40.016   4.792
29996W        W  596   9.243   8.902   0.422
29997W        W  597   2.229  35.114  10.301
29998W        W  598  43.784   7.715  11.044
29999W        W  599  17.713  10.196  14.318
30000W        W  600  30.340  25.893   2.300
30001W        W  601   4.920  32.611   0.391
30002W        W  602  28.542   7.680   1.695
30003W        W  603  33.083   7.804  14.808
30004W        W  604  44.046  18.106   4.300
30005W        W  605  33.977  38.044   2.339
30006W        W  606   2.187  36.057   1.740
30007W        W  607  24.610   1.002  14.398
30008W        W  608  32.236  28.528  12.122
30009W        W  609   7.177  22.509  13.979
30010W        W  610  13.754   6.722   2.767
30011W        W  611  10.413  42.364   1.032
30012W        W  612   6.352   1.893   3.236
30013W        W  613   0.791  27.638  13.371
30014W        W  614  40.554  13.055   0.418
30015W        W  615   3.840  43.227  12.683
30016W        W  616  34.595  15.160  11.588
30017W        W  617  12.918  11.334  13.585
30018W        W  618   0.702  44.327  14.400
30019W        W  619   6.665  20.192  13.946
30020W        W  620  39.952  17.406   1.737
30021W        W  621  18.968  25.094  10.298
30022W        W  622  33.962   9.002  12.809
30023W        W  623   5.501   4.164  14.423
30024W        W  624  35.979   5.203  13.631
30025W        W  625  35.116  32.667   4.969
30026W        W  626  38.393   1.791  10.731
30027W        W  627  39.779  31.535   4.671
30028W        W  628   8.298  31.049   0.399
30029W        W  629  28.878  30.414  11.218
30030W        W  630  37.338  40.229   1.587
30031W        W  631  15.343   7.237   2.456
30032W        W  632  38.583  28.269  11.470
30033W        W  633   1.375  14.749   2.435
30034W        W  634  36.127  14.654   1.656
30035W        W  635  36.534  42.174   2.404
30036W        W  636  13.691  39.975  10.596
30037W        W  637   6.004  12.029  10.558
30038W        W  638   6.717  44.562  11.903
30039W        W  639  26.986   2.649   2.765
30040W        W  640  22.112   7.474   2.809
30041W        W  641  37.280  21.164   1.181
30042W        W  642  36.898  21.234   1.948
30043W        W  643  36.891   2.988   0.251
30044W        W  644  29.040  20.983   1.731
30045W        W  645  43.650  14.797  13.376
30046W        W  646  12.689  30.002  10.584
30047W        W  647  43.690   2.240  11.686
30048W        W  648  44.773  21.528   1.920
30049W        W  649  37.563  11.820   2.654
30050W        W  650  28.043   8.351  11.669
30051W        W  651  32.383  18.918  13.175
30052W        W  652  38.488  34.645  14.981
30053W        W  653  27.242  39.861  12.417
30054W        W  654   3.306  39.803  13.082
30055W        W  655   1.342  31.439   2.851
30056W        W  656  29.439  25.129  11.549
30057W        W  657   5.211  29.898   1.407
30058W        W  658  33.480  21.159  10.179
30059W        W  659  34.477  42.580  10.714
30060W        W  660  42.191  34.315  13.060
30061W        W  661  28.497   1.413  13.060
30062W        W  662   5.357  16.989   2.156
30063W        W  663   5.197  12.400   2.602
30064W        W  664  26.115   6.087  12.426
30065W        W  665  44.338  31.638   4.059
30066W        W  666   0.410  35.124   2.187
30067W        W  667  10.961  13.573   4.570
30068W        W  668  22.473   6.922  11.903
30069W        W  669   5.613   9.290  12.515
30070W        W  670  40.868  15.908  12.573
30071W        W  671  10.034  14.166   1.488
30072W        W  672   4.459  13.442   3.233
30073W        W  673  20.609  41.262  14.797
30074W        W  674   2.977   1.576  10.434
30075W        W  675  35.904  32.302   2.659
30076W        W  676  19.182  16.699   1.306
30077W        W  677   0.760  44.509  13.084
30078W        W  678   7.310  41.423   0.073
30079W        W  679  40.852   0.467  13.588
30080W        W  680   1.891  17.560   3.339
30081W        W  681  17.623  15.471  14.421
30082W        W  682  39.410  26.397  12.939
30083W        W  683  29.897  30.123  14.047
30084W        W  684  42.995   8.270   0.710
30085W        W  685  18.988  25.686  13.895
30086W        W  686  11.664  32.115   2.135
30087W        W  687  33.861  17.707  13.390
30088W        W  688   6.302   4.233  12.448
30089W        W  689  33.646  33.524  10.128
30090W        W  690  25.596  43.579   1.375
30091W        W  691   3.862  42.470  13.095
30092W        W  692   8.764   0.459  10.757
30093W        W  693  42.448  26.946   4.979
30094W        W  694   6.975  11.596   1.051
30095W        W  695  16.179  35.327   2.693
30096W        W  696  10.977   7.700   4.416
30097W        W  697  27.229  23.487   1.803
30098W        W  698   0.480   9.196   3.290
30099W        W  699  35.443  25.634   2.675
30100W        W  700  42.441  24.951   0.782
30101W        W  701   9.712  44.543  11.642
30102W        W  702  13.316   1.725   1.736
30103W        W  703  26.982  28.704  10.650
30104W        W  704  24.459   6.149   0.058
30105W        W  705  39.579   4.383  13.509
30106W        W  706  20.319  19.631  13.907
30107W        W  707  31.887  19.183   1.889
30108W        W  708  15.858  16.267   4.966
30109W        W  709  36.259  26.262   2.928
30110W        W  710  16.680   8.411  12.845
30111W        W  711  32.412   3.213  12.355
30112W        W  712  25.291  31.923   0.927
30113W        W  713  43.298  19.141  14.893
30114W        W  714   1.024  36.619  13.133
30115W        W  715  37.517  35.811  11.951
30116W        W  716  28.487  21.471   2.795
30117W        W  717  27.814  18.699   2.144
30118W        W  718  41.351  28.876   0.498
30119W        W  719  24.785  33.186  11.113
30120W        W  720  12.286  19.725   1.489
30121W        W  721  23.159   9.687   3.278
30122W        W  722  29.337  40.059   2.329
30123W        W  723  13.827  41.851  13.659
30124W        W  724  33.409  17.324  11.478
30125W        W  725  12.206  31.166   3.787
30126W        W  726  11.133   1.837  10.896
30127W        W  727   9.805  12.226   4.720
30128W        W  728  25.182  35.988  12.991
30129W        W  729   2.409  42.363  13.737
30130W        W  730  19.259  34.183  11.947
30131W        W  731   8.452  34.374  12.656
30132W        W  732   8.757  41.251  13.241
30133W        W  733  42.313  41.296  11.216
30134W        W  734  37.552  43.569   2.284
30135W        W  735   1.086   2.679   1.807
30136W        W  736  12.952   5.530   2.130
30137W        W  737   9.820  36.568  14.024
30138W        W  738  41.357  22.642   1.237
30139W        W  739  23.303  31.595   1.924
30140W        W  740  10.574   5.829  13.538
30141W        W  741  17.302   3.511   1.384
30142W        W  742  42.865  19.619   4.967
30143W        W  743  30.449  36.718   3.630
30144W        W  744   6.632  42.642  11.888
30145W        W  745  10.359  32.975   2.283
30146W        W  746   4.942  44.780  10.677
30147W        W  747  12.805   7.231   0.631
30148W        W  748  16.608  13.631   2.192
30149W        W  749  16.500  18.748  13.336
30150W        W  750   0.296   0.747  10.654
30151W        W  751  14.540  23.034   4.105
30152W        W  752  15.519   7.860  14.615
30153W        W  753  21.125   5.393   3.480
30154W        W  754  15.650  26.566   5.160
30155W        W  755  29.791  38.834  13.527
30156W        W  756  13.104  20.057   2.388
30157W        W  757  30.208  44.476  10.962
30158W        W  758  26.903  35.942   1.252
30159W        W  759  35.382  35.962   0.669
30160W        W  760  36.089  14.742   0.423
30161W        W  761  27.158   0.912   0.522
30162W        W  762   2.395  42.709  12.481
30163W        W  763  44.536  16.827  13.901
30164W        W  764  39.613  39.438   2.339
30165W        W  765  23.364   8.909   2.788
30166W        W  766  43.888  39.442  14.744
30167W        W  767  11.468  12.678   4.055
30168W        W  768   3.558   3.036   4.233
30169W        W  769  43.867  13.253   1.414
30170W        W  770   3.798  38.513   1.239
30171W        W  771  33.652  27.889  13.725
30172W        W  772   4.621  36.715   3.166
30173W        W  773  21.704   9.825  11.796
30174W        W  774  29.383   1.713  12.989
30175W        W  775  39.858   7.648   0.354
30176W        W  776   0.657   6.834   4.722
30177W        W  777  12.652  32.879   1.034
30178W        W  778  20.054   6.391  13.813
30179W        W  779  40.346   2.500   3.929
30180W        W  780  40.438  38.600   3.043
30181W        W  781  25.080  23.925   4.078
30182W        W  782  33.033   6.303  14.870
30183W        W  783  36.140  26.718   3.182
30184W        W  784   3.302   8.331  14.812
30185W        W  785  23.235   0.164  11.180
30186W        W  786   6.152   1.733   3.704
30187W        W  787  10.818   1.768   0.401
30188W        W  788  15.104  30.106   4.293
30189W        W  789  17.723  42.319   2.832
30190W        W  790  14.235   6.120   3.027
30191W        W  791  39.874  32.236   2.967
30192W        W  792  16.648  42.502   2.514
30193W        W  793  37.372  10.235  13.472
30194W        W  794   5.430   3.247  13.537
30195W        W  795  29.979  36.579  10.658
30196W        W  796  33.872  24.798   2.635
30197W        W  797  35.147  12.835  12.561
30198W        W  798  37.101  12.893  12.955
30199W        W  799  34.959  42.316  10.645
30200W        W  800  27.495  14.877   3.311
30201W        W  801  35.535  34.448  13.399
30202W        W  802  15.669  28.295  10.975
30203W        W  803   4.866   3.204  10.513
30204W        W  804  11.779  18.156   0.851
30205W        W  805  20.040   1.868  14.320
30206W        W  806  19.378  43.714  10.708
30207W        W  807  31.913   8.506  13.968
30208W        W  808  22.555  21.607  12.978
30209W        W  809  31.851  26.585  14.398
30210W        W  810   5.026  20.016  12.345
30211W        W  811  16.254  17.292   1.405
30212W        W  812  14.591  11.943   1.472
30213W        W  813  35.480  30.889  14.769
30214W        W  814   1.473   5.469   1.150
30215W        W  815  34.251  27.904  12.501
30216W        W  816  30.911  33.545   1.965
30217W        W  817  20.259   0.879   4.636
30218W        W  818  19.083   4.434  12.620
30219W        W  819  11.288   9.876   0.026
30220W        W  820  31.172  35.627  11.540
30221W        W  821   7.922   6.634  12.946
30222W        W  822  35.778  42.054   3.650
30223W        W  823   3.425   4.196  11.238
30224W        W  824  12.267  34.384  10.685
30225W        W  825   9.409   2.785   1.349
30226W        W  826  19.556  25.298  12.154
30227W        W  827  28.341  17.660   3.234
30228W        W  828  29.223  11.643   0.956
30229W        W  829  13.625  31.849   4.240
30230W        W  830  27.060   2.510  13.603
30231W        W  831  12.903   4.599   4.456
30232W        W  832  19.203  15.891   9.933
30233W        W  833  18.983  40.095   0.771
30234W        W  834  25.558  23.981  11.098
30235W        W  835  44.860  15.705  14.893
30236W        W  836  13.994  27.675  11.275
30237W        W  837   3.369  15.020  11.948
30238W        W  838  24.112  41.761  14.926
30239W        W  839  13.880  29.645  14.277
30240W        W  840  27.650  13.351  14.308
30241W        W  841  15.281  19.496  11.457
30242W        W  842  35.804  35.326   1.885
30243W        W  843   9.176  23.212  13.548
30244W        W  844   0.329   3.522   4.135
30245W        W  845  25.717  39.648  13.394
30246W        W  846   4.742  36.962  12.841
30247W        W  847  35.922  12.513  12.999
30248W        W  848  13.587  36.549   3.847
30249W        W  849  33.395  17.523  13.302
30250W        W  850   8.042   1.749   3.716
30251W        W  851  26.681  26.644   1.901
30252W        W  852  22.472  19.017  14.907
30253W        W  853   7.057   8.849   2.358
30254W        W  854  42.285  27.725   1.806
30255W        W  855  20.748   6.905  13.954
30256W        W  856  15.557  13.216   3.723
30257W        W  857  19.705  10.932   1.221
30258W        W  858   4.457   8.222  13.237
30259W        W  859   2.749   1.349   1.364
30260W        W  860  18.603   7.822   0.879
30261W        W  861   5.866  35.333  11.118
30262W        W  862  41.437   4.679  12.628
30263W        W  863  10.261   1.728   3.837
30264W        W  864   8.249  30.983   3.338
30265W        W  865  39.397   1.056   4.509
30266W        W  866  13.550  13.730   2.707
30267W        W  867  34.434  38.462   2.739
30268W        W  868   5.501  27.925  11.536
30269W        W  869  11.263  14.839   4.167
30270W        W  870   3.634  18.631   0.842
30271W        W  871  19.393   2.103   1.320
30272W        W  872   8.357  28.118   1.634
30273W        W  873  23.810  30.884   2.203
30274W        W  874  22.694  14.669  14.012
30275W        W  875   9.293   5.597   2.337
30276W        W  876  23.899  26.389  14.849
30277W        W  877  43.697  11.404   0.154
30278W        W  878  12.447  13.862  12.505
30279W        W  879   3.315  16.178  11.921
30280W        W  880  33.680  25.563  12.929
30281W        W  881   6.910  30.950   0.294
30282W        W  882  22.380  41.778  12.819
30283W        W  883   0.187  16.836  10.797
30284W        W  884   0.458  29.071  13.824
30285W        W  885  36.214   3.768   1.783
30286W        W  886  39.027  21.631  14.357
30287W        W  887  17.652  39.412   4.433
30288W        W  888  41.272  35.158  10.563
30289W        W  889  21.604  32.657  10.722
30290W        W  890  35.815  19.048  12.138
30291W        W  891  19.173   4.905   3.263
30292W        W  892  22.456  25.292  10.112
30293W        W  893  37.396   5.288   2.755
30294W        W  894  34.444  22.762  12.951
30295W        W  895  31.680  20.675  12.124
30296W        W  896  33.028  34.963  14.494
30297W        W  897  12.969  17.067   1.528
30298W        W  898  24.156  29.336   4.526
30299W        W  899  25.036  29.064   3.930
30300W        W  900   4.698  44.276  12.206
30301W        W  901  21.275  29.701  11.416
30302W        W  902   9.159  32.891  11.984
30303W        W  903  16.761   5.185  14.552
30304W        W  904  19.522  37.780  10.732
30305W        W  905  21.117  13.728   1.790
30306W        W  906  36.702   3.008  12.038
30307W        W  907  27.703  34.323  14.252
30308W        W  908   8.810  26.188   2.828
30309W        W  909  11.397  35.528   2.583
30310W        W  910  10.655  42.596  14.370
30311W        W  911   4.909  13.420  13.906
30312W        W  912  31.154   2.913   0.402
30313W        W  913   0.889  15.293   3.643
30314W        W  914  16.767   5.948  12.345
30315W        W  915  26.987  24.540  14.114
30316W        W  916   5.310  38.378   0.490
30317W        W  917   7.839   3.153   2.012
30318W        W  918  22.058  26.557  13.171
30319W        W  919  31.710  24.482  11.283
30320W        W  920   1.429  11.752   3.974
30321W        W  921  14.770  29.634  14.753
30322W        W  922   9.319  31.231   4.485
30323W        W  923  38.628  23.098  14.925
30324W        W  924  16.303  25.578  13.946
30325W        W  925   0.044  35.099   1.816
30326W        W  926  16.700  10.774   2.051
30327W        W  927   9.350   9.601  13.943
30328W        W  928  24.537  33.641  11.735
30329W        W  929  32.934  39.205  13.034
30330W        W  930   7.460   5.289  12.931
30331W        W  931   1.188  34.609   1.418
30332W        W  932  22.980  44.762   3.150
30333W        W  933   8.815  11.320  14.530
30334W        W  934  31.965  35.007   4.506
30335W        W  935  11.389   6.383   4.493
30336W        W  936  19.610  39.305   2.785
30337W        W  937  10.160  41.360  11.257
30338W        W  938  41.983  40.272  13.010
30339W        W  939  29.860   4.097   3.366
30340W        W  940  26.575  43.353  12.323
30341W        W  941  25.105   8.557   2.757
30342W        W  942   9.783  35.189  12.031
30343W        W  943  32.062  29.469   0.847
30344W        W  944  26.113   1.205   2.351
30345W        W  945  27.426   9.251  12.084
30346W        W  946  39.501  41.624  13.101
30347W        W  947   7.792  17.140   1.277
30348W        W  948  31.643  24.891  10.961
30349W        W  949  31.187  39.958   1.857
30350W        W  950   3.414   0.362  14.595
30351W        W  951  39.431  32.875  11.128
30352W        W  952   3.263  26.460  13.908
30353W        W  953  21.153   8.516   0.320
30354W        W  954  11.289   1.846  11.386
30355W        W  955  20.233   8.484   0.561
30356W        W  956  43.698  40.590  11.560
30357W        W  957  11.233  19.074   2.795
30358W        W  958  39.432   7.750  14.073
30359W        W  959  37.967  29.066  13.006
30360W        W  960  34.332   7.989  11.900
30361W        W  961  31.952  14.257   3.841
30362W        W  962  17.757  32.980   0.436
30363W        W  963  22.659  38.554  10.517
30364W        W  964  41.378  37.554   1.427
30365W        W  965   4.017   0.069  11.025
30366W        W  966  36.700  18.157   3.149
30367W        W  967   7.959  39.521  12.003
30368W        W  968  31.557  43.439  12.428
30369W        W  969  25.261  34.966   2.799
30370W        W  970  34.099   5.334  10.982
30371W        W  971  41.820  33.336  11.127
30372W        W  972  39.243  41.558  13.530
30373W        W  973  32.620  38.328   3.188
30374W        W  974   4.172   3.987  14.277
30375W        W  975   9.940  37.752   0.668
30376W        W  976  27.611  16.634   0.339
30377W        W  977  40.960  36.275   0.615
30378W        W  978  43.799  23.522   1.351
30379W        W  979  42.354  34.660   4.430
30380W        W  980  17.245  30.319   3.174
30381W        W  981  16.487  11.743  13.975
30382W        W  982  44.723  36.332  14.840
30383W        W  983  38.481  26.484  11.022
30384W        W  984  17.276  34.446  13.858
30385W        W  985  21.193  31.762   3.805
30386W        W  986  15.553   6.804  10.939
30387W        W  987  31.669  43.078   1.440
30388W        W  988   9.716  31.412   0.398
30389W        W  989   8.745  33.868   4.990
30390W        W  990   2.312   3.713   3.715
30391W        W  991  34.816  38.881  12.331
30392W        W  992  37.699  43.069   2.252
30393W        W  993   6.655  29.907   2.681
30394W        W  994  42.383  41.557  12.542
30395W        W  995   0.732   4.420   4.077
30396W        W  996  33.556   7.729   1.949
30397W        W  997  22.124  32.577  10.749
30398W        W  998  42.986   8.723  14.386
30399W        W  999  23.120  11.377  14.382
30400W        W 1000   5.345  18.469   3.984
30401W        W 1001  19.075  37.625  13.916
30402W        W 1002  15.982  43.983  11.544
30403W        W 1003  20.066  33.563  12.245
30404W        W 1004  15.266  42.557  14.023
30405W        W 1005  10.094  22.167  12.538
30406W        W 1006  23.867   2.825  11.112
30407W        W 1007  33.521  37.245   1.005
30408W        W 1008  19.556   1.450   1.213
30409W        W 1009  19.305  28.678  12.058
30410W        W 1010  43.947  16.847  10.595
30411W        W 1011  29.067   3.360   3.963
30412W        W 1012   5.362  36.319   0.644
30413W        W 1013  13.368  30.581  10.841
30414W        W 1014   2.477  25.480   2.002
30415W        W 1015   2.442   6.304   2.679
30416W        W 1016  28.444   6.347   0.457
30417W        W 1017   2.966   8.646  11.671
30418W        W 1018  22.445  26.478   3.785
30419W        W 1019  31.638  36.958   2.699
30420W        W 1020  30.796  18.163  11.964
30421W        W 1021  27.403  24.903  12.929
30422W        W 1022  41.097   9.270   0.843
30423W        W 1023  19.284  37.083   3.127
30424W        W 1024  16.797   7.676   0.453
30425W        W 1025  10.248   1.480  13.957
30426W        W 1026  20.274  24.995   2.844
30427W        W 1027   2.872   7.602   3.343
30428W        W 1028  36.921   0.965  13.882
30429W        W 1029  44.444  33.413  10.484
30430W        W 1030   6.358  24.550  14.456
30431W        W 1031   6.826  35.330   1.630
30432W        W 1032  24.525  18.824   3.467
30433W        W 1033  18.617  15.883   2.893
30434W        W 1034  17.016   1.374   1.258
30435W        W 1035   2.425  38.802   1.237
30436W        W 1036   4.656  40.035   4.589
30437W        W 1037  43.259  31.690   3.222
30438W        W 1038   7.143  11.393   3.656
30439W        W 1039  41.751  26.448  14.339
30440W        W 1040  27.897  28.009   5.049
30441W        W 1041  40.531   1.517   0.356
30442W        W 1042  28.982  12.802   2.295
30443W        W 1043  35.307  30.180   2.666
30444W        W 1044  23.214   1.061   3.740
30445W        W 1045  17.265  18.042  12.017
30446W        W 1046  14.155  24.954   3.719
30447W        W 1047   8.348  37.196  12.017
30448W        W 1048  12.254  37.786  11.195
30449W        W 1049  13.855  33.963  14.945
30450W        W 1050  25.958  18.633   0.819
30451W        W 1051   4.452   5.416  11.213
30452W        W 1052  17.477  29.148  13.146
30453W        W 1053  34.641  41.364  12.060
30454W        W 1054   9.339  21.965   2.879
30455W        W 1055  38.883  22.203   2.480
30456W        W 1056  16.371  24.538  14.765
30457W        W 1057  40.473   2.557   0.139
30458W        W 1058   6.790   2.235   0.462
30459W        W 1059  39.899  15.978   1.786
30460W        W 1060  38.583  31.056   2.661
30461W        W 1061  11.919   9.336   4.535
30462W        W 1062   2.676  11.885  12.965
30463W        W 1063  10.886   5.239  14.099
30464W        W 1064  26.628   0.999   3.526
30465W        W 1065   1.573  23.563  12.407
30466W        W 1066  30.087  33.701  14.540
30467W        W 1067  12.314   4.987   1.268
30468W        W 1068  12.893   5.401  14.517
30469W        W 1069  19.694  28.061   2.840
30470W        W 1070   6.804  24.387  14.280
30471W        W 1071   4.927   0.625  11.123
30472W        W 1072  37.053   0.309  14.053
30473W        W 1073  31.615  27.409   4.191
30474W        W 1074  12.866  38.349  13.231
30475W        W 1075  37.367  21.036   4.490
30476W        W 1076  31.484  19.154   0.064
30477W        W 1077   0.940  27.910  13.883
30478W        W 1078  40.323  11.174  10.818
30479W        W 1079  37.792  44.911   4.178
30480W        W 1080  28.120  19.059  13.806
30481W        W 1081   9.386  11.419  11.169
30482W        W 1082   6.189  20.776  13.828
30483W        W 1083  42.671  25.591  12.142
30484W        W 1084  32.155  31.874  10.386
30485W        W 1085   9.159  39.629   2.244
30486W        W 1086   8.871   0.055  11.484
30487W        W 1087  29.015  24.715   0.747
30488W        W 1088  26.058  31.025   4.035
30489W        W 1089   5.428   9.799  11.230
30490W        W 1090  42.839  10.369   2.695
30491W        W 1091  12.947  11.712   0.013
30492W        W 1092  33.360  32.446   1.813
30493W        W 1093   7.094   8.002   0.775
30494W        W 1094  37.154  18.725  10.562
30495W        W 1095  42.462  31.580  13.871
30496W        W 1096  25.301   4.465   2.622
30497W        W 1097  12.042   4.324   4.192
30498W        W 1098  17.020  32.384  11.091
30499W        W 1099  44.026  43.997  13.220
30500W        W 1100  28.712  16.087   3.622
30501W        W 1101  12.419  42.101   5.274
30502W        W 1102  43.851  42.782  12.111
30503W        W 1103  26.602  18.185   3.087
30504W        W 1104  20.268  24.995   0.427
30505W        W 1105   1.222  25.376   3.913
30506W        W 1106  34.539  32.529  11.067
30507W        W 1107  10.339  32.998  11.971
30508W        W 1108  44.582  41.381   1.747
30509W        W 1109  30.494  36.458  11.586
30510W        W 1110  16.576  35.546   3.977
30511W        W 1111  16.312   7.697  12.495
30512W        W 1112  22.398  23.418   3.503
30513W        W 1113  27.977  16.659  10.757
30514W        W 1114  16.812  27.767  11.610
30515W        W 1115   8.300  11.372   4.648
30516W        W 1116   9.665  41.608   0.983
30517W        W 1117  31.911   6.321   2.364
30518W        W 1118  19.100   5.345   2.450
30519W        W 1119  40.112  41.069   3.133
30520W        W 1120   0.244   5.708  14.826
30521W        W 1121  34.672  36.124   4.136
30522W        W 1122  37.364   1.834   4.938
30523W        W 1123  37.787  41.451  12.563
30524W        W 1124  24.118  25.979  11.971
30525W        W 1125  13.718  15.986   1.730
30526W        W 1126  31.904   2.196   4.883
30527W        W 1127  37.144   8.418  14.892
30528W        W 1128  19.674  30.464   2.289
30529W        W 1129  21.590  20.331  12.112
30530W        W 1130  21.948  30.604  13.852
30531W        W 1131  11.331  30.776   3.737
30532W        W 1132  40.115  34.225   3.165
30533W        W 1133  11.289  15.529   1.786
30534W        W 1134  12.156  37.426   0.593
30535W        W 1135  28.543  43.365  10.706
30536W        W 1136   7.160  13.646   0.390
30537W        W 1137   6.391  25.077  14.513
30538W        W 1138   7.873  17.944   2.738
30539W        W 1139  29.199  21.178   3.894
30540W        W 1140  30.148   4.348  10.644
30541W        W 1141  14.614  12.255  11.586
30542W        W 1142  23.623  39.685   0.571
30543W        W 1143  20.161  31.075   0.862
30544W        W 1144  34.351  15.561  10.734
30545W        W 1145   8.841  15.490   1.167
30546W        W 1146  42.961  34.818  12.925
30547W        W 1147  29.314  44.268  11.178
30548W        W 1148  38.809  29.107  14.881
30549W        W 1149  36.574  17.865   0.511
30550W        W 1150  33.871   3.529   0.799
30551W        W 1151   4.473   2.522  14.408
30552W        W 1152  42.992  12.136   4.237
30553W        W 1153  30.908  28.860  14.810
30554W        W 1154  40.457   1.061   3.748
30555W        W 1155  13.465  33.590   1.849
30556W        W 1156  19.031  43.409   0.865
30557W        W 1157  32.884  19.686   2.118
30558W        W 1158  35.072  12.851   2.218
30559W        W 1159  31.633  29.131   0.342
30560W        W 1160  15.124  30.582   4.528
30561W        W 1161  13.343  25.146   0.841
30562W        W 1162  42.852   0.686   1.325
30563W        W 1163  25.798  26.718  13.472
30564W        W 1164  32.111   0.320   3.051
30565W        W 1165  42.865   2.792   2.285
30566W        W 1166   3.623  31.737   5.025
30567W        W 1167  24.426   1.688   3.159
30568W        W 1168  36.078  23.483  13.807
30569W        W 1169   8.720  41.630  14.806
30570W        W 1170   8.910   6.201  13.985
30571W        W 1171  21.100  16.614   0.528
30572W        W 1172  36.401  34.497  12.497
30573W        W 1173  38.110   7.079  11.842
30574W        W 1174  36.377  18.227  10.658
30575W        W 1175   7.875  27.250   2.789
30576W        W 1176  14.236   2.183   0.729
30577W        W 1177  34.303  40.518   2.502
30578W        W 1178  17.591  17.679   0.399
30579W        W 1179  31.179  17.793  11.964
30580W        W 1180   9.666  19.096   0.983
30581W        W 1181  35.266  15.208  14.970
30582W        W 1182  18.615  37.440   2.385
30583W        W 1183   1.489   8.840  13.923
30584W        W 1184  17.399  18.094  14.015
30585W        W 1185   8.139  43.910  11.205
30586W        W 1186   7.641  12.261  11.739
30587W        W 1187  19.932  42.545  13.931
30588W        W 1188  14.406  11.340   4.191
30589W        W 1189  27.877  42.994  10.743
30590W        W 1190   8.871  41.245  10.530
30591W        W 1191  44.798  33.559  11.172
30592W        W 1192  20.592  34.035   3.671
30593W        W 1193  43.188  38.951  13.329
30594W        W 1194  20.597  19.199  13.710
30595W        W 1195  18.228  42.868  11.959
30596W        W 1196  34.418   9.726   4.200
30597W        W 1197  11.727  23.225  11.215
30598W        W 1198  10.627  34.900  12.872
30599W        W 1199  15.658  18.444  13.243
30600W        W 1200   2.033  12.505   3.656
30601W        W 1201   6.015   4.154  14.342
30602W        W 1202  31.093  11.965   1.760
30603W        W 1203   5.710   4.727  11.736
30604W        W 1204   8.861  42.403   0.263
30605W        W 1205  15.146  34.301  11.575
30606W        W 1206   1.039   5.603  10.805
30607W        W 1207  31.624  44.865  13.454
30608W        W 1208  16.835  24.903  11.116
30609W        W 1209  12.866  22.054  13.557
30610W        W 1210  17.021  42.885   1.859
30611W        W 1211  26.000  13.379   3.286
30612W        W 1212  30.692  28.132   2.683
30613W        W 1213  42.374  23.559  11.950
30614W        W 1214  15.086   7.953  11.208
30615W        W 1215  31.413  39.428   1.888
30616W        W 1216  26.554  10.650  11.972
30617W        W 1217  37.541  31.524   3.920
30618W        W 1218   0.429   7.038   0.920
30619W        W 1219  30.910  22.589   4.360
30620W        W 1220  43.338  43.164   1.414
30621W        W 1221  29.705  31.789   4.002
30622W        W 1222  21.076  37.056  13.529
30623W        W 1223   8.928  12.100  10.569
30624W        W 1224  39.206  23.604  12.085
30625W        W 1225  30.915   9.887  13.639
30626W        W 1226   7.931  28.688   1.998
30627W        W 1227   6.214   7.096   3.332
30628W        W 1228  23.049  31.686  11.071
30629W        W 1229  33.647  30.401  13.270
30630W        W 1230  25.142   3.728  14.346
30631W        W 1231  18.262   5.238   4.777
30632W        W 1232  10.451   4.947   0.256
30633W        W 1233  43.849  31.118  11.450
30634W        W 1234   7.926  37.653  13.355
30635W        W 1235  17.139  28.358   0.627
30636W        W 1236  12.040  16.246  10.972
30637W        W 1237  33.492  18.631   5.168
30638W        W 1238  38.012  20.683  12.856
30639W        W 1239  25.139  36.805  12.662
30640W        W 1240  34.695  32.105  14.486
30641W        W 1241   1.296  24.281   3.857
30642W        W 1242  21.595  15.228   1.377
30643W        W 1243   7.127  21.714  10.695
30644W        W 1244   7.723   5.253   4.119
30645W        W 1245  40.652  14.307   5.062
30646W        W 1246   4.193  24.388  13.491
30647W        W 1247  42.135  15.370  13.010
30648W        W 1248  24.651  24.402  12.120
30649W        W 1249  34.179  16.540   4.561
30650W        W 1250  17.443  19.015  11.475
30651W        W 1251  34.997   6.403   2.688
30652W        W 1252  16.768   2.947   3.366
30653W        W 1253  42.203  32.858  10.653
30654W        W 1254   9.270  43.504   3.806
30655W        W 1255  41.293  13.255   3.596
30656W        W 1256  12.596  25.473  11.221
30657W        W 1257  14.111   1.777   0.291
30658W        W 1258  33.126  42.251  12.567
30659W        W 1259  40.092  35.290   2.354
30660W        W 1260   2.276  16.619   0.826
30661W        W 1261  27.982  18.598  12.536
30662W        W 1262  16.613  20.566  10.421
30663W        W 1263  22.064  28.145   3.849
30664W        W 1264  40.392  14.199   0.915
30665W        W 1265  26.182  39.304  12.369
30666W        W 1266   0.283   1.680   4.977
30667W        W 1267  33.387  16.481  12.263
30668W        W 1268  11.598  39.088  14.843
30669W        W 1269  31.706   2.167   2.840
30670W        W 1270  43.822   7.179   0.826
30671W        W 1271  32.270  25.535   2.849
30672W        W 1272  19.135  29.441   2.268
30673W        W 1273  32.721  34.306  13.603
30674W        W 1274  11.212  12.260   2.282
30675W        W 1275  23.739   1.666   3.339
30676W        W 1276  26.714  33.275   4.644
30677W        W 1277   7.284  23.487   4.884
30678W        W 1278  32.166  29.638  11.063
30679W        W 1279  40.139  22.605  14.326
30680W        W 1280   7.196   6.103  12.469
30681W        W 1281   0.829  13.222  13.603
30682W        W 1282  21.997   6.799   9.917
30683W        W 1283  25.522  42.914   2.177
30684W        W 1284   6.283  42.353   3.078
30685W        W 1285  22.904  14.882  13.093
30686W        W 1286   4.721  44.059   1.521
30687W        W 1287   3.968   2.826  11.560
30688W        W 1288  34.613  43.214   3.594
30689W        W 1289  20.558  23.540  10.688
30690W        W 1290   7.395  22.642  11.610
30691W        W 1291   7.184   5.025  13.332
30692W        W 1292  20.613  29.531   0.047
30693W        W 1293  31.452   1.888  14.106
30694W        W 1294  18.942  12.020   4.241
30695W        W 1295  14.157  29.689  12.076
30696W        W 1296   9.191  28.094  14.497
30697W        W 1297  30.056  27.601   4.128
30698W        W 1298  27.717  20.518  14.396
30699W        W 1299  30.047  20.517   0.773
30700W        W 1300  42.846   4.471  14.478
30701W        W 1301  17.571  16.573   3.305
30702W        W 1302  14.366  38.011   1.156
30703W        W 1303  22.690  18.576  14.175
30704W        W 1304  40.030  23.321   2.757
30705W        W 1305  43.837  23.143   0.682
30706W        W 1306  17.214   0.529   5.027
30707W        W 1307  29.207  23.503   3.945
30708W        W 1308  22.455  38.478  11.966
30709W        W 1309  17.668   3.459   4.603
30710W        W 1310  23.198  13.377  12.071
30711W        W 1311  37.778  31.327  12.541
30712W        W 1312  42.779   8.398  14.726
30713W        W 1313  31.538   5.386  13.019
30714W        W 1314  44.379  24.885  10.139
30715W        W 1315  31.678  41.421  14.083
30716W        W 1316  14.046   3.854  11.546
30717W        W 1317  33.144  24.748  13.958
30718W        W 1318  36.688  24.096   4.111
30719W        W 1319  21.274   4.027  11.102
30720W        W 1320   9.944   2.921   2.813
30721W        W 1321  41.932  36.055   2.421
30722W        W 1322   6.870  41.561   3.699
30723W        W 1323  26.030  42.067   3.668
30724W        W 1324  25.426  44.118  10.190
30725W        W 1325  36.322  31.686   2.755
30726W        W 1326  31.433  15.727   4.302
30727W        W 1327  12.628  38.184  11.965
30728W        W 1328   2.517   5.699  13.507
30729W        W 1329  14.688   7.881  11.572
30730W        W 1330  31.334  30.080   4.663
30731W        W 1331  13.683  17.533   1.729
30732W        W 1332  11.033  28.448  11.609
30733W        W 1333   3.176  36.062   4.728
30734W        W 1334   6.737   0.527   4.251
30735W        W 1335   4.895  34.915   0.757
30736W        W 1336  37.088  37.065  13.150
30737W        W 1337  43.266  13.933  12.157
30738W        W 1338  25.583  28.082  14.173
30739W        W 1339   8.375  28.620  13.273
30740W        W 1340  43.844  42.002  11.592
30741W        W 1341  10.895  29.159  13.795
30742W        W 1342  40.235  23.971   4.519
30743W        W 1343   4.970  20.098  14.897
30744W        W 1344  29.038  43.758   2.406
30745W        W 1345  37.561  39.848  11.693
30746W        W 1346  17.110  37.551   1.349
30747W        W 1347   6.678  37.964   2.708
30748W        W 1348  14.006  18.182  12.439
30749W        W 1349  20.595  35.982  14.836
30750W        W 1350   9.852  34.422  14.988
30751W        W 1351   2.251  41.625   0.885
30752W        W 1352  34.011  42.719  14.152
30753W        W 1353  44.934   7.197   2.781
30754W        W 1354  41.984  40.926  13.724
30755W        W 1355  29.637   6.839  13.908
30756W        W 1356  37.149   5.409   0.271
30757W        W 1357   4.212  36.074  11.565
30758W        W 1358  42.935  28.167   3.954
30759W        W 1359  12.115   4.828   4.123
30760W        W 1360   7.412  23.007  14.055
30761W        W 1361   6.916  26.257   1.343
30762W        W 1362   1.262  40.847  13.506
30763W        W 1363   6.371   0.844   2.745
30764W        W 1364  31.303  17.187  13.127
30765W        W 1365   8.701  12.943   0.298
30766W        W 1366  17.723  20.981   2.773
30767W        W 1367  14.044  30.228   1.911
30768W        W 1368  11.230  11.174  13.912
30769W        W 1369  15.258  16.354  12.454
30770W        W 1370   2.434   5.750   0.391
30771W        W 1371  34.434  27.822  14.815
30772W        W 1372  16.489  10.617   4.052
30773W        W 1373  15.831   7.810   1.247
30774W        W 1374  18.732  18.085   0.169
30775W        W 1375  30.485  41.872   3.290
30776W        W 1376  16.634   5.168  10.430
30777W        W 1377  20.587   6.667   2.415
30778W        W 1378  29.243   2.402   0.920
30779W        W 1379  11.309  10.783  12.970
30780W        W 1380  39.816  35.034   1.797
30781W        W 1381  12.188  27.487   2.115
30782W        W 1382  36.486  34.046  14.237
30783W        W 1383  41.913   8.736   2.530
30784W        W 1384  12.208  18.286  13.051
30785W        W 1385  30.193  22.885   0.281
30786W        W 1386  36.690  15.231   4.177
30787W        W 1387  32.454  24.997  10.690
30788W        W 1388  19.482  39.990   1.736
30789W        W 1389  22.793  40.204   0.894
30790W        W 1390  33.797  38.953  12.505
30791W        W 1391  13.174  30.611   3.310
30792W        W 1392  22.165   2.677  14.229
30793W        W 1393   7.669  36.398  11.644
30794W        W 1394  14.812   2.727  11.219
30795W        W 1395  18.810  33.012  12.302
30796W        W 1396  13.134  29.179  10.481
30797W        W 1397  43.567  26.892  11.186
30798W        W 1398  35.019  15.494   1.185
30799W        W 1399  30.545  39.003  13.406
30800W        W 1400  35.963   4.871  12.835
30801W        W 1401  40.582   3.259   3.724
30802W        W 1402  11.761  34.560  10.681
30803W        W 1403  31.567  15.388  10.690
30804W        W 1404  19.837  27.537  13.874
30805W        W 1405  25.492  17.081   2.185
30806W        W 1406  39.424  33.121   0.918
30807W        W 1407   5.625  32.952  14.896
30808W        W 1408  18.462  25.144  10.282
30809W        W 1409  40.871   4.509   1.210
30810W        W 1410  16.252  19.110  13.798
30811W        W 1411  43.981  42.523  10.714
30812W        W 1412   4.401  44.746  11.790
30813W        W 1413  10.785   3.190   2.342
30814W        W 1414   3.738  27.642  10.402
30815W        W 1415  21.911  27.004   3.392
30816W        W 1416   0.806  19.754   1.062
30817W        W 1417   0.816  25.680   4.837
30818W        W 1418  37.674  22.938   1.465
30819W        W 1419  30.390  37.930  13.120
30820W        W 1420  36.081  35.804   4.595
30821W        W 1421  10.130  19.549   4.452
30822W        W 1422  28.541  33.533  11.673
30823W        W 1423  20.106  28.553   4.065
30824W        W 1424  44.994  13.818   1.756
30825W        W 1425   3.055  13.644  11.223
30826W        W 1426   7.147  18.074   1.390
30827W        W 1427  25.653   9.807   0.820
30828W        W 1428  32.961  30.258  12.433
30829W        W 1429  21.525  17.318   3.879
30830W        W 1430  31.027  36.958  13.087
30831W        W 1431  13.893  13.739   1.648
30832W        W 1432  39.821  42.936   2.181
30833W        W 1433  27.574  17.759   2.242
30834W        W 1434   3.951  43.817   0.335
30835W        W 1435  22.341  10.425  11.058
30836W        W 1436  26.618  14.062   0.353
30837W        W 1437  40.099  41.930   4.091
30838W        W 1438  15.552  38.938  11.090
30839W        W 1439   0.246   1.351   2.276
30840W        W 1440  43.368  34.421   1.376
30841W        W 1441  35.867   0.934   3.631
30842W        W 1442  31.111  30.720  12.582
30843W        W 1443  43.871  18.706  12.582
30844W        W 1444  15.102  10.807   3.071
30845W        W 1445   1.207  16.168   0.358
30846W        W 1446  33.977  43.079  10.971
30847W        W 1447  23.778  42.365  14.841
30848W        W 1448  23.009  12.033   3.150
30849W        W 1449  43.041  44.355  11.658
30850W        W 1450  22.290  43.461  11.904
30851W        W 1451  26.647  22.039  13.578
30852W        W 1452  24.726  18.751  11.031
30853W        W 1453   9.087  33.291  12.543
30854W        W 1454  41.485  44.413   2.482
30855W        W 1455  22.475  37.004  14.446
30856W        W 1456   6.203  19.841   0.868
30857W        W 1457  28.582  19.385  12.517
30858W        W 1458  34.662  11.115  13.040
30859W        W 1459  39.782   8.932  10.498
30860W        W 1460  12.797  44.632   4.247
30861W        W 1461  11.222   7.965   0.297
30862W        W 1462   4.899   5.906   3.661
30863W        W 1463   6.018   8.705  11.209
30864W        W 1464   5.672  11.677   2.117
30865W        W 1465  44.792  28.074   4.654
30866W        W 1466  37.046   6.458   3.143
30867W        W 1467  44.858  11.310   0.215
30868W        W 1468  13.045  13.761  14.788
30869W        W 1469  43.459  12.566  12.821
30870W        W 1470   1.063   9.659   2.782
30871W        W 1471  32.429  11.220   2.950
30872W        W 1472  19.611  42.817   1.452
30873W        W 1473   0.388  31.038  11.164
30874W        W 1474  32.571  18.165   1.435
30875W        W 1475  31.472  36.397   1.895
30876W        W 1476  40.967  24.354   2.189
30877W        W 1477  41.380  31.104   0.359
30878W        W 1478  27.680  35.064   3.411
30879W        W 1479  43.084  27.164  12.770
30880W        W 1480  19.276  17.341   1.275
30881W        W 1481   8.732  26.009   0.882
30882W        W 1482  44.105   1.227  11.991
30883W        W 1483  22.821  32.535   2.695
30884W        W 1484  12.497  30.564  11.700
30885W        W 1485  17.867  14.116  13.749
30886W        W 1486  26.495   2.464  14.330
30887W        W 1487  14.536  40.609   5.406
30888W        W 1488   1.322  15.596   3.643
30889W        W 1489   3.740  29.004   0.926
30890W        W 1490  14.532  10.589  12.865
30891W        W 1491  18.315  33.427   2.593
30892W        W 1492  41.790  17.685   3.293
30893W        W 1493  20.466   1.956  14.919
30894W        W 1494  31.084  31.499  13.020
30895W        W 1495   1.504  43.566  11.353
30896W        W 1496  23.094  21.680  13.507
30897W        W 1497  32.489  17.250   3.737
30898W        W 1498   5.153  17.092  12.482
30899W        W 1499   6.127  34.347  13.023
30900W        W 1500  44.531  41.305   4.570
30901W        W 1501  25.501  20.941  13.064
30902W        W 1502   9.786   8.306  11.931
30903W        W 1503  20.223  34.780   3.410
30904W        W 1504  32.890  36.524   1.972
30905W        W 1505  11.723  31.556   4.636
30906W        W 1506  21.141  13.841   0.398
30907W        W 1507  20.535  22.676  12.951
30908W        W 1508   3.398  34.427  12.808
30909W        W 1509  36.362  17.814  14.471
30910W        W 1510  28.836   8.344  10.688
30911W        W 1511   8.657  22.954  11.903
30912W        W 1512   5.121  32.597  12.939
30913W        W 1513  36.499  28.306   2.439
30914W        W 1514  30.134  44.480   4.816
30915W        W 1515  39.146   8.102   4.206
30916W        W 1516  44.174  21.548  12.765
30917W        W 1517  20.567   7.823   0.026
30918W        W 1518  26.168  22.247   2.466
30919W        W 1519  28.200  23.213   9.887
30920W        W 1520  35.190   2.561   0.746
30921W        W 1521   8.640  26.369  14.118
30922W        W 1522  35.116  10.930   3.777
30923W        W 1523  16.610  30.902  12.939
30924W        W 1524  17.614   7.340   3.258
30925W        W 1525   5.926   1.914  11.183
30926W        W 1526  13.608   7.627  11.233
30927W        W 1527  44.869  19.533   4.219
30928W        W 1528   7.184  12.521  10.971
30929W        W 1529  20.031   6.523  11.585
30930W        W 1530  29.109   1.379  11.884
30931W        W 1531   0.897  14.532   4.192
30932W        W 1532  35.762   8.636  12.944
30933W        W 1533  20.330  44.058   0.375
30934W        W 1534  20.860  33.299   4.116
30935W        W 1535   3.290  19.747  14.477
30936W        W 1536  10.350  42.402  13.557
30937W        W 1537  36.555   1.638   0.334
30938W        W 1538  13.844  21.196   0.991
30939W        W 1539  16.704  13.189   2.885
30940W        W 1540  40.671  35.700   3.660
30941W        W 1541  25.219  29.398   0.272
30942W        W 1542  12.245   2.174  12.974
30943W        W 1543  14.132  44.379  11.567
30944W        W 1544  43.401  10.716   4.095
30945W        W 1545   7.155  10.311  13.455
30946W        W 1546   0.479   3.430   1.366
30947W        W 1547  26.326  32.155  12.412
30948W        W 1548  39.802   5.272  11.792
30949W        W 1549  14.476   7.482   2.771
30950W        W 1550  21.319   5.132  10.767
30951W        W 1551  25.440  41.324  10.710
30952W        W 1552  10.817  13.098   4.734
30953W        W 1553  38.531  37.345   0.061
30954W        W 1554  42.966  34.117   1.641
30955W        W 1555  25.114  36.751  11.636
30956W        W 1556  36.577  17.115  10.383
30957W        W 1557  19.106  39.184   1.657
30958W        W 1558   9.435  12.606  12.366
30959W        W 1559   3.939  13.326   2.574
30960W        W 1560   8.205  32.553   2.913
30961W        W 1561  17.708   1.569  11.345
30962W        W 1562   6.643  24.958   1.786
30963W        W 1563  39.801  15.119  12.389
30964W        W 1564  33.544  36.839  14.960
30965W        W 1565   4.422  31.676   4.118
30966W        W 1566  37.994  14.305  10.696
30967W        W 1567  43.958  11.400   0.821
30968W        W 1568   3.235  27.972   4.515
30969W        W 1569  33.513  32.941  10.857
30970W        W 1570  17.280  23.609   2.404
30971W        W 1571  31.839  25.860   2.909
30972W        W 1572  13.748  26.139  10.921
30973W        W 1573   9.463  34.969   0.593
30974W        W 1574  15.884  43.934   3.646
30975W        W 1575  21.163  28.074  14.318
30976W        W 1576   4.174  25.254  10.548
30977W        W 1577  29.428  23.841  12.047
30978W        W 1578  39.985  43.375   2.456
30979W        W 1579  44.323  21.557  14.832
30980W        W 1580  38.269  41.455  11.621
30981W        W 1581  35.170   5.846  11.698
30982W        W 1582  21.542  11.807   3.507
30983W        W 1583  14.694  29.155  11.089
30984W        W 1584  20.004  22.754  14.379
30985W        W 1585  20.214  16.215   4.805
30986W        W 1586   0.852  23.138  12.872
30987W        W 1587   2.845  37.572   3.223
30988W        W 1588  35.992  40.714  10.705
30989W        W 1589  43.930  11.560  13.979
30990W        W 1590  35.475   8.928  13.681
30991W        W 1591  25.551  24.986  12.954
30992W        W 1592  23.461  41.190   5.108
30993W        W 1593  20.215  40.301  12.544
30994W        W 1594  42.074  24.745  12.947
30995W        W 1595  37.630  35.089   4.111
30996W        W 1596   4.447  25.692  14.278
30997W        W 1597  37.845   7.854  12.179
30998W        W 1598  12.202  36.386  12.478
30999W        W 1599  35.165  20.867  10.771
31000W        W 1600   7.695  23.021   3.308
31001W        W 1601  25.111  20.094  12.043
31002W        W 1602  38.124  10.273  14.301
31003W        W 1603  38.767   7.632   2.413
31004W        W 1604  41.927   7.892   3.967
31005W        W 1605   3.180  35.383  12.526
31006W        W 1606  26.032  27.446  12.476
31007W        W 1607  18.309  31.525   0.684
31008W        W 1608  34.074   0.512  12.126
31009W        W 1609  40.776  11.419  10.738
31010W        W 1610  28.974  36.730   0.808
31011W        W 1611   0.201  42.157   3.074
31012W        W 1612  13.332  18.924  13.898
31013W        W 1613  44.917  35.833   1.159
31014W        W 1614  26.969   0.374   0.002
31015W        W 1615  17.981  10.691  12.923
31016W        W 1616   4.714  42.407   2.254
31017W        W 1617   0.603   8.294   0.814
31018W        W 1618  15.284  41.447   1.276
31019W        W 1619   3.727  31.655  12.617
31020W        W 1620  34.506  19.059  13.815
31021W        W 1621  36.776   9.410  11.081
31022W        W 1622   8.461  15.771   1.392
31023W        W 1623  27.623  44.086  13.952
31024W        W 1624  12.628   4.695   2.813
31025W        W 1625  23.010  15.010   4.572
31026W        W 1626  30.796  19.177  10.647
31027W        W 1627  37.420   1.278   3.572
31028W        W 1628  18.289  16.514  13.745
31029W        W 1629   0.233  38.974  11.317
31030W        W 1630  21.536  32.122  11.667
31031W        W 1631  16.325   2.795   1.164
31032W        W 1632  29.717  21.061   4.576
31033W        W 1633  36.980   2.540  10.591
31034W        W 1634  32.565   7.914   4.644
31035W        W 1635   1.926  11.895  11.246
31036W        W 1636  10.589  37.595  11.034
31037W        W 1637  23.702  33.368   5.032
31038W        W 1638   4.243  30.313  11.137
31039W        W 1639  39.146  23.455  13.785
31040W        W 1640   6.711   6.792   2.421
31041W        W 1641  21.746  39.796  13.614
31042W        W 1642  43.171  20.062   4.972
31043W        W 1643   4.680  34.903   3.237
31044W        W 1644  22.494   0.520  13.112
31045W        W 1645  34.865  27.459  11.936
31046W        W 1646   5.044   7.709  14.805
31047W        W 1647  12.354  31.447   1.861
31048W        W 1648   5.238  39.268   4.073
31049W        W 1649  36.612  31.718  11.970
31050W        W 1650   7.948  33.966  12.047
31051W        W 1651  35.925  37.860   0.411
31052W        W 1652  21.264  33.663   4.049
31053W        W 1653  28.910  15.217  12.895
31054W        W 1654  17.022  21.153   0.893
31055W        W 1655  38.936  36.604   4.440
31056W        W 1656  39.668  37.434  12.076
31057W        W 1657  25.158  19.877  12.559
31058W        W 1658  32.294  44.298   3.228
31059W        W 1659  28.127  29.178  10.360
31060W        W 1660  34.101  31.852  13.137
31061W        W 1661   7.678  22.742   4.583
31062W        W 1662  37.907   6.175   3.096
31063W        W 1663   5.941  17.699   4.618
31064W        W 1664  44.412   9.901   2.168
31065W        W 1665  41.427  27.718   0.894
31066W        W 1666  25.713   8.423   3.589
31067W        W 1667  39.863  44.230   0.695
31068W        W 1668  36.946  40.498  14.309
31069W        W 1669  31.541  32.649   4.007
31070W        W 1670  33.800  26.623  14.983
31071W        W 1671  38.509  28.457  14.925
31072W        W 1672  23.572  29.021   4.939
31073W        W 1673  21.095  33.361   2.364
31074W        W 1674  11.865  41.357  12.895
31075W        W 1675  30.414   9.671   4.690
31076W        W 1676  26.361  12.884  12.375
31077W        W 1677  35.283  35.103  14.236
31078W        W 1678  41.416   3.635   1.933
31079W        W 1679  36.192  28.220   4.977
31080W        W 1680  22.219  15.887   4.974
31081W        W 1681  17.286  35.200  12.062
31082W        W 1682  36.682  36.160  10.767
31083W        W 1683  41.971   3.741   1.386
31084W        W 1684   4.960  41.748   1.237
31085W        W 1685  29.565  30.464  14.451
31086W        W 1686  26.389  27.922  11.261
31087W        W 1687   3.886  41.651  13.534
31088W        W 1688  14.612  36.816  12.529
31089W        W 1689  16.096   4.677   0.730
31090W        W 1690  39.549   0.295  12.443
31091W        W 1691  14.654  37.386  12.132
31092W        W 1692   5.636  31.200  12.544
31093W        W 1693  43.301   2.404  13.590
31094W        W 1694   0.379  14.407  12.008
31095W        W 1695   1.731   1.497   4.137
31096W        W 1696  32.035   9.583   0.404
31097W        W 1697  35.570  34.997   0.446
31098W        W 1698   5.647   6.372  13.008
31099W        W 1699  28.981   5.790   0.760
31100W        W 1700   8.377  44.019   4.186
31101W        W 1701  32.754  35.372   0.139
31102W        W 1702   0.206   3.824   3.746
31103W        W 1703  28.056  10.349  14.394
31104W        W 1704  25.133  33.157   1.651
31105W        W 1705  32.392  21.082  14.338
31106W        W 1706   4.237  39.132  10.843
31107W        W 1707  24.897   8.911   1.920
31108W        W 1708   2.803   8.245  10.676
31109W        W 1709  26.579   1.800  10.667
31110W        W 1710   9.987  34.839   0.361
31111W        W 1711  23.074  11.215   2.695
31112W        W 1712   8.877  15.102   1.690
31113W        W 1713  26.953  16.757   3.771
31114W        W 1714  10.218  12.103   2.256
31115W        W 1715  26.054  23.284  11.752
31116W        W 1716   0.882  11.401   0.623
31117W        W 1717  29.349  13.769  12.611
31118W        W 1718  16.192   9.261   1.803
31119W        W 1719  39.064   4.706   0.888
31120W        W 1720   2.711   2.380  12.339
31121W        W 1721  19.000   7.884  13.421
31122W        W 1722   6.854  18.618  13.859
31123W        W 1723  25.507  36.236  12.058
31124W        W 1724  36.620   7.380   1.225
31125W        W 1725  29.751  24.599   4.133
31126W        W 1726  11.688  10.028   2.748
31127W        W 1727  40.989   4.785   0.805
31128W        W 1728  27.695  32.135   2.774
31129W        W 1729  15.520  30.648   3.237
31130W        W 1730  23.597  28.178  11.230
31131W        W 1731  43.695  24.864   4.076
31132W        W 1732  36.209  43.454   1.231
31133W        W 1733   1.529  15.607  11.664
31134W        W 1734  25.052   5.409  14.908
31135W        W 1735  13.112  33.828   4.247
31136W        W 1736  31.934  13.643  14.015
31137W        W 1737  34.574   8.355  13.566
31138W        W 1738  26.271   4.723   3.630
31139W        W 1739  38.943   8.031  11.562
31140W        W 1740   8.275  29.066   2.727
31141W        W 1741  41.590  18.446  13.948
31142W        W 1742  16.713  23.187  13.815
31143W        W 1743  43.200  40.706   2.787
31144W        W 1744  20.434  27.924   0.941
31145W        W 1745   8.254  34.586  14.122
31146W        W 1746   5.670  43.530   2.140
31147W        W 1747   0.024  10.356  14.881
31148W        W 1748  17.472  23.508   4.162
31149W        W 1749   1.920  35.515   4.609
31150W        W 1750  34.735   3.754  11.480
31151W        W 1751  31.260  37.855  12.506
31152W        W 1752  38.764  35.314   0.256
31153W        W 1753   0.909  30.582   3.548
31154W        W 1754  42.283  39.284   0.534
31155W        W 1755  26.169   6.429  10.351
31156W        W 1756  19.640   1.874  10.918
31157W        W 1757  21.555   2.039   0.147
31158W        W 1758  23.545   3.798   0.314
31159W        W 1759  40.778  31.055   4.193
31160W        W 1760  42.886  43.814  10.635
31161W        W 1761   3.962  40.378  12.999
31162W        W 1762  16.455  20.108  11.913
31163W        W 1763  21.506   1.393  12.604
31164W        W 1764  38.018  24.531  13.098
31165W        W 1765  43.491  26.074  12.153
31166W        W 1766  14.929   8.865  10.277
31167W        W 1767  44.571   1.235  14.761
31168W        W 1768  16.665  12.412  13.381
31169W        W 1769  21.550   0.779   2.597
31170W        W 1770  22.897  38.553  11.637
31171W        W 1771  37.419   4.759   1.872
31172W        W 1772  11.810  14.504   4.956
31173W        W 1773  36.901  23.715  13.374
31174W        W 1774   0.208  29.068   2.718
31175W        W 1775  17.943   8.850   3.987
31176W        W 1776   5.307  35.935   1.857
31177W        W 1777  35.074  28.123  13.422
31178W        W 1778  37.508  36.533  14.312
31179W        W 1779  24.716  33.898  10.553
31180W        W 1780  37.920   7.187  13.811
31181W        W 1781  29.123  34.356  11.604
31182W        W 1782  12.111  21.189   3.925
31183W        W 1783   3.051  39.066  13.496
31184W        W 1784  13.641   1.197  11.066
31185W        W 1785  32.581  21.102  13.822
31186W        W 1786  42.475  34.595   2.186
31187W        W 1787  42.148  43.974   4.638
31188W        W 1788  17.642  38.376  10.658
31189W        W 1789  34.867  26.824  11.920
31190W        W 1790  14.706   5.140   4.740
31191W        W 1791  17.210  29.755   1.440
31192W        W 1792   9.673  30.698   3.733
31193W        W 1793  38.914   6.752  12.871
31194W        W 1794  26.038  20.502  13.832
31195W        W 1795  12.761  29.495  13.155
31196W        W 1796  28.866  13.663  11.370
31197W        W 1797  41.864  26.119   3.939
31198W        W 1798   0.686  16.141  14.904
31199W        W 1799  22.738  19.539  14.261
31200W        W 1800  33.954  38.427  10.734
31201W        W 1801  34.898   5.926  14.845
31202W        W 1802  19.330  31.661  13.496
31203W        W 1803   4.454  12.433  14.428
31204W        W 1804  25.480  26.047   2.276
31205W        W 1805   2.795  36.500   3.464
31206W        W 1806  21.293  22.542   4.661
31207W        W 1807  40.556  31.039  14.333
31208W        W 1808  40.146   8.573   2.359
31209W        W 1809   2.914  11.908  13.416
31210W        W 1810   3.712  26.348   1.501
31211W        W 1811  16.736  26.114  12.547
31212W        W 1812  15.680   6.060  10.257
31213W        W 1813  28.211  40.373  13.971
31214W        W 1814   6.468   5.632   1.337
31215W        W 1815   4.937  28.517  12.370
31216W        W 1816   3.641   2.835  11.158
31217W        W 1817  33.867  17.209  13.953
31218W        W 1818  16.786   8.726   1.481
31219W        W 1819  16.237  37.443  13.704
31220W        W 1820   1.287  22.139  12.223
31221W        W 1821  10.685  42.253  12.623
31222W        W 1822  13.453  19.491  12.462
31223W        W 1823   3.509  16.849  11.312
31224W        W 1824  14.363   9.218  12.977
31225W        W 1825  31.973  24.988  11.918
31226W        W 1826  29.018   8.386  12.641
31227W        W 1827  40.361   2.941  12.959
31228W        W 1828  31.474  41.532  13.550
31229W        W 1829  18.183  23.229  13.055
31230W        W 1830  24.109  27.900   3.881
31231W        W 1831  32.915  35.009  11.213
31232W        W 1832  34.460  13.413  13.302
31233W        W 1833  31.900  34.937  14.908
31234W        W 1834   8.277   7.190  14.441
31235W        W 1835  42.048   5.215  12.971
31236W        W 1836  43.726  15.003   2.565
31237W        W 1837  23.202  24.936   4.686
31238W        W 1838  36.588  33.523   1.798
31239W        W 1839  34.926  31.997   3.690
31240W        W 1840  19.756  23.004  10.867
31241W        W 1841  28.495  26.431  13.019
31242W        W 1842  38.357  23.489  11.135
31243W        W 1843   2.214  32.538  10.694
31244W        W 1844   2.345  32.626   4.598
31245W        W 1845   1.978  11.338  12.934
31246W        W 1846  37.288   7.308   4.867
31247W        W 1847  27.884   0.886   1.458
31248W        W 1848  32.993   4.123   4.659
31249W        W 1849  15.586   1.623   2.714
31250W        W 1850  31.094  34.948   4.838
31251W        W 1851  26.927  15.797  13.422
31252W        W 1852  32.990  27.328  10.695
31253W        W 1853  30.817  13.745   0.177
31254W        W 1854   8.227  38.038   4.487
31255W        W 1855  31.262  38.246   5.127
31256W        W 1856  16.977  36.284   1.866
31257W        W 1857   4.330  22.958  12.894
31258W        W 1858  38.921  11.805  11.068
31259W        W 1859  15.770  31.784  13.424
31260W        W 1860   4.473  30.902   1.936
31261W        W 1861  35.029  44.338   4.603
31262W        W 1862  19.498  42.931  10.886
31263W        W 1863   4.660  39.440  12.012
31264W        W 1864  37.925  36.591  12.635
31265W        W 1865  41.899  30.585   3.186
31266W        W 1866  20.606  37.831   0.822
31267W        W 1867  35.028  34.078   2.186
31268W        W 1868   2.353   4.523   4.617
31269W        W 1869  18.125  19.396  12.553
31270W        W 1870  26.134  17.224   4.628
31271W        W 1871  11.849  35.351  11.867
31272W        W 1872  24.714  37.003   3.401
31273W        W 1873  42.596  39.520  12.574
31274W        W 1874  38.367  13.777   2.874
31275W        W 1875  18.943  10.268   1.743
31276W        W 1876  26.397  44.362  11.465
31277W        W 1877   5.750  40.226   2.302
31278W        W 1878  40.362  35.639  10.799
31279W        W 1879  14.223  36.425  11.178
31280W        W 1880  40.275  38.506  12.470
31281W        W 1881   6.172  35.905   0.732
31282W        W 1882   5.905  23.468   4.021
31283W        W 1883  44.509  42.390  11.486
31284W        W 1884  25.885  10.277  14.472
31285W        W 1885   2.871  18.275  14.157
31286W        W 1886  10.132   9.812   0.590
31287W        W 1887  21.805   4.999  13.178
31288W        W 1888  40.527   7.970   3.179
31289W        W 1889  15.696  36.754   2.566
31290W        W 1890  14.134  40.553  12.443
31291W        W 1891  35.110   4.870  13.243
31292W        W 1892   4.707  38.611  13.884
31293W        W 1893  34.015  24.298  13.918
31294W        W 1894  17.149  20.821   1.751
31295W        W 1895   3.825   5.197   0.491
31296W        W 1896  10.130  29.439   0.655
31297W        W 1897  33.440   7.204   3.754
31298W        W 1898   8.548   1.158   5.009
31299W        W 1899  25.566  42.616   3.177
31300W        W 1900   7.937   3.888   4.891
31301W        W 1901   5.699  28.039  10.761
31302W        W 1902  38.808  12.837   3.873
31303W        W 1903  28.537   7.688  12.889
31304W        W 1904  39.899  34.882   0.693
31305W        W 1905  24.137  17.787  12.945
31306W        W 1906   1.177   7.607   4.126
31307W        W 1907  31.943  12.792  11.081
31308W        W 1908  35.950  30.363   2.193
31309W        W 1909  41.015  21.482  12.916
31310W        W 1910  16.892  16.765   2.294
31311W        W 1911   4.256  41.527   3.885
31312W        W 1912  10.737   7.851   3.389
31313W        W 1913  26.523  15.675   3.806
31314W        W 1914  17.197  32.965   3.131
31315W        W 1915  24.435  36.222   0.238
31316W        W 1916  40.330   9.252  11.438
31317W        W 1917  32.423  11.646   3.788
31318W        W 1918   8.698   0.472  14.219
31319W        W 1919   0.312  30.203   3.118
31320W        W 1920  19.642  30.869   0.807
31321W        W 1921  36.012   2.181   1.776
31322W        W 1922  12.319  42.327   0.952
31323W        W 1923  35.809  12.053   3.668
31324W        W 1924  40.934  40.173   4.230
31325W        W 1925  11.342   6.875   3.744
31326W        W 1926  23.457  22.414   3.638
31327W        W 1927   8.679  17.776   2.331
31328W        W 1928  42.958   7.498   1.304
31329W        W 1929  30.038   1.916  12.376
31330W        W 1930  36.912  17.775  12.979
31331W        W 1931  23.640  37.419   2.326
31332W        W 1932  25.131  13.344   3.873
31333W        W 1933  27.055  27.717  13.011
31334W        W 1934  22.572  15.071  14.939
31335W        W 1935  35.318  43.130   1.227
31336W        W 1936  37.414  15.213   3.733
31337W        W 1937   9.277   3.728  11.577
31338W        W 1938  30.744  34.779  13.707
31339W        W 1939  34.127  40.412  10.768
31340W        W 1940  44.407   3.709   0.024
31341W        W 1941  31.580  17.368  12.451
31342W        W 1942  34.204  19.240  12.504
31343W        W 1943  12.976  23.610  11.230
31344W        W 1944  29.307  44.435  12.207
31345W        W 1945  31.779  12.037   4.688
31346W        W 1946   1.447  19.439  11.264
31347W        W 1947  30.170  12.536  12.939
31348W        W 1948  39.560  22.709   2.252
31349W        W 1949  40.530  42.337   1.906
31350W        W 1950   5.303   7.018  10.820
31351W        W 1951  30.369  27.193   4.116
31352W        W 1952  14.795  29.567   1.848
31353W        W 1953  27.690   0.698  13.624
31354W        W 1954  32.813  34.472   0.020
31355W        W 1955  44.290  19.190   3.797
31356W        W 1956  39.872  43.447  14.248
31357W        W 1957  41.311  23.168   1.180
31358W        W 1958  41.814   2.515  14.546
31359W        W 1959  29.515  44.834   0.774
31360W        W 1960  18.072   3.428   2.224
31361W        W 1961  11.405   0.991   3.607
31362W        W 1962   5.941  24.160  11.675
31363W        W 1963  20.809  27.540  12.926
31364W        W 1964  29.550  21.848   4.256
31365W        W 1965  16.626  35.677  10.705
31366W        W 1966  30.449  25.104   0.944
31367W        W 1967   7.327  44.861   4.527
31368W        W 1968  33.395  11.815   4.116
31369W        W 1969   9.329   8.715   1.178
31370W        W 1970   8.499  41.733   2.891
31371W        W 1971  22.730  21.201  12.659
31372W        W 1972   4.335  12.799   3.806
31373W        W 1973  21.210  24.333   1.262
31374W        W 1974  33.898  22.717   0.047
31375W        W 1975  33.363  16.618  13.411
31376W        W 1976  27.602  17.059  11.541
31377W        W 1977  16.256   1.365  10.631
31378W        W 1978  43.358   0.438   1.507
31379W        W 1979  39.830   3.660  14.533
31380W        W 1980  35.784  35.329  13.890
31381W        W 1981  38.091  42.168   2.175
31382W        W 1982  29.907  14.737  12.751
31383W        W 1983  11.773   3.521  13.826
31384W        W 1984   2.012  27.726   2.738
31385W        W 1985  24.173  36.508   1.879
31386W        W 1986  20.886   4.685   0.512
31387W        W 1987  17.004  10.154  13.067
31388W        W 1988   0.214  41.132  11.223
31389W        W 1989  22.183   8.004   2.712
31390W        W 1990   8.760  35.998   1.792
31391W        W 1991  38.478  31.959   4.030
31392W        W 1992  44.347  20.206   2.310
31393W        W 1993  43.997  19.678  12.383
31394W        W 1994  32.702   8.600  12.349
31395W        W 1995  20.677  20.930   1.283
31396W        W 1996  44.062  21.282   0.343
31397W        W 1997   3.094  11.193  12.570
31398W        W 1998  35.668  13.704  12.511
31399W        W 1999  40.018   2.663   0.359
31400W        W 2000  39.265  36.790   2.702
31401W        W 2001  31.081   9.414   4.528
31402W        W 2002   1.794  36.042  11.615
31403W        W 2003  29.184  32.100   1.286
31404W        W 2004  25.709   3.353   1.377
31405W        W 2005  11.345   0.166  14.895
31406W        W 2006  35.041  28.534   0.745
31407W        W 2007  32.162  27.730  10.201
31408W        W 2008   4.731  23.283  12.989
31409W        W 2009  43.812  27.154  11.587
31410W        W 2010  20.453   4.736   1.925
31411W        W 2011   8.773  25.427  14.461
31412W        W 2012  13.605   1.683   2.184
31413W        W 2013   3.910  30.913   4.149
31414W        W 2014   1.885  31.086   0.538
31415W        W 2015   2.556  34.436  12.422
31416W        W 2016  25.068   9.888  13.022
31417W        W 2017  19.943  12.715   2.654
31418W        W 2018  27.029  27.911   4.063
31419W        W 2019  37.481  27.822  11.117
31420W        W 2020  39.180  35.099   3.279
31421W        W 2021   5.909   1.674  14.286
31422W        W 2022   0.034  10.176   0.921
31423W        W 2023  43.493  11.726   0.516
31424W        W 2024   0.384  40.901   3.462
31425W        W 2025   7.615  13.757  11.549
31426W        W 2026  25.160   9.952   4.685
31427W        W 2027   3.306  34.963   0.075
31428W        W 2028  13.854  31.108   4.569
31429W        W 2029  25.326   4.396   5.051
31430W        W 2030  34.328  32.040  10.030
31431W        W 2031   3.883   1.109   0.812
31432W        W 2032   1.805  33.649  13.608
31433W        W 2033  27.702  37.828  11.167
31434W        W 2034  28.210  23.452   5.140
31435W        W 2035  20.590  27.995  12.871
31436W        W 2036  22.179  39.523  13.460
31437W        W 2037   0.951  17.350   0.985
31438W        W 2038  28.871  27.738  13.826
31439W        W 2039  31.168  38.459   1.432
31440W        W 2040  17.729  10.113   4.487
31441W        W 2041   0.296  23.798   2.920
31442W        W 2042  19.923  14.557  11.081
31443W        W 2043  43.970  16.302   1.920
31444W        W 2044  18.257  27.214   1.325
31445W        W 2045  35.215  19.579   2.849
31446W        W 2046  13.398  41.915  11.275
31447W        W 2047  44.782  15.590   4.559
31448W        W 2048  35.831  23.462  14.800
31449W        W 2049   8.779  17.072  12.053
31450W        W 2050  17.073  20.812  14.615
31451W        W 2051  10.313   2.181  12.200
31452W        W 2052  15.450  31.844  11.595
31453W        W 2053  39.354  28.650   1.911
31454W        W 2054   2.809   6.370  14.339
31455W        W 2055  26.023  22.568   1.225
31456W        W 2056  44.965   1.835   1.492
31457W        W 2057  20.289  33.276   5.397
31458W        W 2058   8.200  38.743  10.640
31459W        W 2059   9.268  39.971  13.527
31460W        W 2060  19.097  12.302  11.646
31461W        W 2061  23.901  13.953   0.922
31462W        W 2062  21.769  40.503  10.743
31463W        W 2063  42.467  35.041  12.070
31464W        W 2064  11.713  15.860  10.821
31465W        W 2065  39.350  22.703  12.106
31466W        W 2066  40.827  42.447  11.595
31467W        W 2067  33.414  27.939  11.049
31468W        W 2068   3.394  29.980   1.750
31469W        W 2069  15.136   3.934   4.602
31470W        W 2070  34.707  19.616  11.075
31471W        W 2071  38.599  25.498   0.342
31472W        W 2072  26.557  24.133  12.040
31473W        W 2073  36.877  30.345  13.324
31474W        W 2074  24.488  12.319   2.318
31475W        W 2075  31.282  34.590   3.424
31476W        W 2076  36.521  24.059  12.613
31477W        W 2077  33.382  15.176  13.406
31478W        W 2078   8.790  39.066   0.447
31479W        W 2079   1.494  31.232  14.343
31480W        W 2080  19.782  21.527  13.052
31481W        W 2081  35.672  44.925  14.714
31482W        W 2082  20.189   2.265  10.865
31483W        W 2083   6.373   4.888   0.942
31484W        W 2084  32.277  41.327   3.773
31485W        W 2085  40.532  10.665   4.293
31486W        W 2086  12.820  34.630   4.486
31487W        W 2087  25.231  30.630  12.592
31488W        W 2088  26.494  18.751   1.707
31489W        W 2089  36.910  10.866  14.331
31490W        W 2090  40.364  32.192   2.772
31491W        W 2091   6.383  21.026  10.594
31492W        W 2092  31.312  40.509  13.384
31493W        W 2093  38.054  11.882   1.813
31494W        W 2094  13.745  37.946  12.501
31495W        W 2095  13.250  37.652   2.222
31496W        W 2096  10.434  24.683  14.355
31497W        W 2097  40.962  35.270   3.672
31498W        W 2098   6.488  37.039  11.815
31499W        W 2099  26.919  42.911   1.791
31500W        W 2100  19.781  30.594   0.351
31501W        W 2101  26.535   8.366   2.273
31502W        W 2102  38.538  32.419   4.306
31503W        W 2103  27.217  38.469  12.310
31504W        W 2104   1.758  17.144   1.247
31505W        W 2105  24.908  29.686  12.194
31506W        W 2106  20.283  22.105  11.937
31507W        W 2107   9.406  12.751  13.378
31508W        W 2108  22.166  31.976  12.964
31509W        W 2109  19.643  31.985  14.705
31510W        W 2110  39.435  12.130  14.001
31511W        W 2111  17.627  44.530  14.322
31512W        W 2112  44.723   6.566  12.453
31513W        W 2113  25.429  41.308  14.790
31514W        W 2114  23.179  40.819  13.889
31515W        W 2115  30.532  26.955   4.567
31516W        W 2116   8.882  40.616   0.974
31517W        W 2117  11.745  17.025   2.250
31518W        W 2118  39.859  23.169  14.208
31519W        W 2119  36.889  10.851  13.424
31520W        W 2120  11.947  23.672   2.892
31521W        W 2121  42.330  25.367  11.172
31522W        W 2122  33.159  10.246   1.318
31523W        W 2123   7.490   2.464   2.706
31524W        W 2124  19.244  28.648  14.855
31525W        W 2125  36.936  39.635  13.869
31526W        W 2126  21.090   5.401  11.659
31527W        W 2127  16.555  31.056   2.885
31528W        W 2128  30.169  20.977  13.788
31529W        W 2129  31.605   7.777  10.932
31530W        W 2130  25.080  41.790  14.016
31531W        W 2131  19.281  37.875   4.164
31532W        W 2132  28.094  37.578  12.103
31533W        W 2133  34.399  36.550  14.568
31534W        W 2134   6.668  31.894   4.507
31535W        W 2135  22.193  26.192   0.945
31536W        W 2136  28.150  31.311   2.622
31537W        W 2137  20.540  11.567  12.840
31538W        W 2138  34.572  32.771  14.641
31539W        W 2139   1.409  41.357  14.381
31540W        W 2140   5.192  24.194  10.755
31541W        W 2141  37.506  33.506   4.052
31542W        W 2142   0.557  42.925  13.880
31543W        W 2143  37.556  27.601   1.298
31544W        W 2144  12.486   6.112   2.635
31545W        W 2145  33.911   3.690   0.304
31546W        W 2146  28.216   1.932   5.012
31547W        W 2147   1.656   5.713  11.024
31548W        W 2148  16.941  35.822   2.652
31549W        W 2149  18.471  27.407   1.768
31550W        W 2150   3.418   5.378   3.300
31551W        W 2151   1.903  39.673   0.289
31552W        W 2152  21.004  11.061  12.082
31553W        W 2153  18.224   4.358   4.201
31554W        W 2154  20.355  30.674   3.077
31555W        W 2155   5.121  43.178   1.549
31556W        W 2156  25.526  16.128  14.432
31557W        W 2157  17.606   3.916  12.629
31558W        W 2158  37.089  19.024  13.860
31559W        W 2159   6.353   6.710  14.040
31560W        W 2160   7.151  41.030   3.226
31561W        W 2161  24.201  43.452   3.209
31562W        W 2162   9.703  39.395   0.976
31563W        W 2163  20.585   5.685   1.359
31564W        W 2164  40.043  11.338  14.875
31565W        W 2165   1.814  29.411   1.207
31566W        W 2166  31.912  43.506  12.828
31567W        W 2167   5.132  20.620   1.926
31568W        W 2168  17.822  34.045   2.893
31569W        W 2169   6.660  25.491   1.771
31570W        W 2170  26.744  13.484   3.448
31571W        W 2171  23.691  34.932   3.390
31572W        W 2172   5.009   3.241  13.837
31573W        W 2173  41.098  15.720   4.053
31574W        W 2174  11.331  31.806   3.663
31575W        W 2175  30.416  37.026  12.957
31576W        W 2176   8.965  20.380  12.037
31577W        W 2177  14.652  17.974  13.934
31578W        W 2178   9.885   4.469   1.339
31579W        W 2179  13.338  40.379  10.667
31580W        W 2180   0.014  31.382  14.296
31581W        W 2181  40.803  41.302  13.775
31582W        W 2182  35.374   6.173  14.914
31583W        W 2183   2.938  25.089  13.527
31584W        W 2184  33.232  15.369   4.629
31585W        W 2185   5.257  37.891   0.350
31586W        W 2186  42.819  25.644   0.844
31587W        W 2187   1.517  13.526  12.441
31588W        W 2188  10.721  36.302   1.080
31589W        W 2189  11.712   6.464  14.702
31590W        W 2190  15.587  44.853  14.233
31591W        W 2191  37.822   2.840   3.501
31592W        W 2192  23.198   3.332  10.303
31593W        W 2193   3.676  27.545   3.678
31594W        W 2194   4.426  24.250   3.867
31595W        W 2195  13.093   1.284   2.911
31596W        W 2196   5.436   0.925  12.447
31597W        W 2197   1.060  14.912  11.861
31598W        W 2198  17.341  13.564  11.129
31599W        W 2199  16.936   4.447   0.084
31600W        W 2200   3.336  13.916   3.676
31601W        W 2201  13.790  11.202   3.326
31602W        W 2202  32.537  31.198  13.771
31603W        W 2203   5.650  30.378   3.879
31604W        W 2204   9.256  24.219  12.057
31605W        W 2205  34.413   4.389  14.012
31606W        W 2206  42.331  17.233  10.996
31607W        W 2207  22.050  21.609  13.092
31608W        W 2208  36.707  30.642   0.296
31609W        W 2209  44.892  44.561  12.325
31610W        W 2210  26.052  27.542   0.262
31611W        W 2211  28.502  17.650   1.146
31612W        W 2212  27.468  41.546  13.062
31613W        W 2213  14.127  42.253   4.558
31614W        W 2214  42.968  19.634  14.305
31615W        W 2215  23.168   1.155   4.483
31616W        W 2216  20.528  15.112   0.301
31617W        W 2217  37.255  11.854  14.142
31618W        W 2218  22.286  10.448   4.664
31619W        W 2219  37.079  24.961   2.760
31620W        W 2220  26.413  28.960   2.332
31621W        W 2221   2.549  38.443   2.056
31622W        W 2222  11.549  33.001   4.144
31623W        W 2223  39.052  33.152  13.973
31624W        W 2224   4.716  29.600  12.843
31625W        W 2225  18.511  16.026   1.250
31626W        W 2226  19.780   5.856  10.158
31627W        W 2227  35.450  30.105   1.389
31628W        W 2228  42.936  24.236  13.135
31629W        W 2229  39.315  16.504  10.677
31630W        W 2230  42.074  35.445  12.515
31631W        W 2231  31.445   5.717  13.988
31632W        W 2232   0.844   2.024   1.309
31633W        W 2233  33.376  30.283   2.725
31634W        W 2234  18.651   3.817   0.859
31635W        W 2235  25.409   9.784  11.100
31636W        W 2236  26.621   7.708   4.579
31637W        W 2237  33.739  39.394   5.072
31638W        W 2238  16.352  35.582  13.908
31639W        W 2239  33.669  12.258   4.090
31640W        W 2240  23.663   0.634  13.990
31641W        W 2241   2.785  39.470   3.361
31642W        W 2242   6.339   1.085   5.003
31643W        W 2243  36.290  26.539   3.639
31644W        W 2244  16.395  19.473   4.868
31645W        W 2245  40.505  28.046  14.960
31646W        W 2246  21.914   2.073   4.083
31647W        W 2247  15.658   9.083  10.733
31648W        W 2248  15.139  30.231   0.319
31649W        W 2249  34.127  20.702   1.023
31650W        W 2250  33.326  40.818   0.230
31651W        W 2251  21.540  40.789  14.869
31652W        W 2252  43.373  37.627  12.013
31653W        W 2253   3.508  24.637  13.030
31654W        W 2254   4.828  43.778   3.345
31655W        W 2255   6.930  14.385   1.918
31656W        W 2256   1.267  20.518   1.378
31657W        W 2257   7.309  11.916  12.386
31658W        W 2258  18.669   2.017  14.490
31659W        W 2259  43.475  39.062  14.402
31660W        W 2260   9.738  25.474   1.875
31661W        W 2261   0.710   5.901  11.096
31662W        W 2262  30.560  35.619  11.164
31663W        W 2263   1.744  43.137  11.499
31664W        W 2264  44.332  35.114  13.310
31665W        W 2265   7.616   5.000  11.092
31666W        W 2266  27.950  42.572   4.734
31667W        W 2267   6.912  13.335   1.738
31668W        W 2268  24.689   2.875  13.111
31669W        W 2269  35.145  25.185  10.669
31670W        W 2270   1.882  31.071  10.765
31671W        W 2271  33.400  39.949  13.471
31672W        W 2272  17.664   4.477   3.319
31673W        W 2273  30.410  13.033  12.914
31674W        W 2274  41.559   6.044   4.995
31675W        W 2275  19.367  14.104  14.908
31676W        W 2276   3.207  31.528  13.573
31677W        W 2277   1.849  20.238   3.818
31678W        W 2278  10.835   3.910  11.515
31679W        W 2279   9.092   8.418   2.828
31680W        W 2280  36.592  17.883  12.601
31681W        W 2281   7.796   3.790   3.840
31682W        W 2282  28.147  22.231  12.675
31683W        W 2283  14.356   0.845  11.764
31684W        W 2284  26.664   1.712  13.448
31685W        W 2285  24.935   5.989  10.636
31686W        W 2286  39.927   7.821  14.852
31687W        W 2287   5.927  23.278  14.411
31688W        W 2288   8.483  41.057   0.268
31689W        W 2289  19.091  17.127   3.245
31690W        W 2290  31.099  29.960  13.854
31691W        W 2291  19.655  10.664  11.459
31692W        W 2292  19.740  17.774  13.582
31693W        W 2293   3.953  35.502   3.576
31694W        W 2294   4.674  27.737  12.006
31695W        W 2295  16.829  17.178  10.999
31696W        W 2296  11.585  41.840  14.943
31697W        W 2297   6.297  27.685   3.914
31698W        W 2298  24.124  18.537  11.948
31699W        W 2299  28.027  44.524   1.331
31700W        W 2300  27.433  38.434   1.722
31701W        W 2301   8.702  24.584   4.321
31702W        W 2302   7.257  27.473   2.660
31703W        W 2303  14.840  15.237   0.482
31704W        W 2304  43.810  41.422   3.144
31705W        W 2305  39.268   8.625   4.244
31706W        W 2306  16.036   8.257   4.091
31707W        W 2307  14.294  19.944   0.961
31708W        W 2308  23.532  23.572  10.804
31709W        W 2309   1.966  12.410  12.017
31710W        W 2310  21.590  15.115  11.086
31711W        W 2311  41.321  13.703  10.651
31712W        W 2312  23.502   6.617  13.450
31713W        W 2313  12.166  29.251   1.326
31714W        W 2314   1.722  12.096  11.686
31715W        W 2315   3.946   5.622  13.322
31716W        W 2316   1.203   1.482   4.155
31717W        W 2317  43.233  25.756   1.729
31718W        W 2318  23.635  33.568  11.901
31719W        W 2319  13.709  25.235   3.609
31720W        W 2320  24.033  40.483   4.326
31721W        W 2321  29.400  14.817   2.274
31722W        W 2322  30.058   1.302   1.925
31723W        W 2323  20.498  16.166  14.423
31724W        W 2324  31.173  38.051   1.815
31725W        W 2325  43.947  32.679   0.836
31726W        W 2326  33.430  22.781  13.639
31727W        W 2327  20.180   2.191  11.403
31728W        W 2328   4.032  22.982  14.333
31729W        W 2329  20.231  42.487  13.520
31730W        W 2330   3.518  35.612   4.838
31731W        W 2331  33.509  35.157  10.606
31732W        W 2332  39.920  19.045  13.260
31733W        W 2333  23.536  44.843  12.638
31734W        W 2334  10.608  22.288   2.760
31735W        W 2335  41.902   5.388  13.431
31736W        W 2336  17.147  32.646   0.322
31737W        W 2337  40.562  30.384  13.975
31738W        W 2338   2.402  24.628  11.487
31739W        W 2339  19.192  34.223   2.714
31740W        W 2340   3.364  11.450   4.608
31741W        W 2341  36.661  29.859   2.997
31742W        W 2342  11.189   2.087  12.311
31743W        W 2343   3.056   4.529   3.234
31744W        W 2344  17.834  38.999  10.483
31745W        W 2345  15.350  31.866  10.667
31746W        W 2346  37.638  16.111  14.384
31747W        W 2347  15.218  25.025  11.940
31748W        W 2348  30.654  37.974   5.621
31749W        W 2349   5.424  30.217  13.953
31750W        W 2350  11.313  40.560  12.182
31751W        W 2351  19.421  19.275   4.231
31752W        W 2352  25.456  17.723   4.602
31753W        W 2353   2.696  44.064   3.783
31754W        W 2354  35.084   5.552   0.716
31755W        W 2355  12.357  43.864  14.469
31756W        W 2356  28.425   7.228   1.955
31757W        W 2357  10.833   3.539   5.070
31758W        W 2358  20.135   3.878   2.845
31759W        W 2359  19.772  11.655   1.734
31760W        W 2360  30.997   2.231   3.961
31761W        W 2361  11.711  15.378  12.096
31762W        W 2362  14.760  15.321   2.368
31763W        W 2363  22.782  19.289   0.891
31764W        W 2364  44.984   7.377  13.818
31765W        W 2365  20.638  16.846   2.803
31766W        W 2366  21.040  25.166   2.368
31767W        W 2367  23.177  19.357  13.774
31768W        W 2368  11.615  29.582  12.930
31769W        W 2369  41.374  36.462  14.787
31770W        W 2370   2.812  39.548  11.603
31771W        W 2371  34.685  35.327  11.947
31772W        W 2372  40.522  17.293  10.780
31773W        W 2373   3.888  17.183  11.479
31774W        W 2374  12.677   0.946  13.316
31775W        W 2375  38.860  35.447  13.689
31776W        W 2376   1.251  33.078  12.499
31777W        W 2377  39.703  15.633   0.919
31778W        W 2378  10.905  27.063   0.166
31779W        W 2379   4.750  37.490  12.046
31780W        W 2380  39.141  39.360   0.916
31781W        W 2381   7.475  12.177  13.560
31782W        W 2382  42.407  22.246  14.317
31783W        W 2383  12.709  38.841   1.471
31784W        W 2384  18.396  42.859   2.670
31785W        W 2385  39.990  36.585  11.164
31786W        W 2386   1.689   9.413  14.402
31787W        W 2387  10.676  10.676  11.102
31788W        W 2388  19.685  23.957   4.076
31789W        W 2389   4.609  20.064   1.395
31790W        W 2390  34.161   8.537   3.673
31791W        W 2391   4.070  32.031  13.496
31792W        W 2392   5.174  29.565   2.723
31793W        W 2393  12.339  34.425   4.641
31794W        W 2394   6.690  37.810   1.716
31795W        W 2395  33.886   5.698   4.327
31796W        W 2396  29.700  26.418  12.950
31797W        W 2397  22.228  24.519  14.904
31798W        W 2398   4.485  26.919  14.949
31799W        W 2399   8.458   4.148  13.071
31800W        W 2400  42.447  25.499  14.802
31801W        W 2401  23.402   1.435   0.550
31802W        W 2402  34.001  39.071   4.402
31803W        W 2403  17.771  20.255   0.005
31804W        W 2404  25.088  33.854   3.874
31805W        W 2405  37.532  28.441   4.860
31806W        W 2406  20.152  42.747  12.172
31807W        W 2407   1.350  35.397   2.691
31808W        W 2408  29.267   4.231   4.100
31809W        W 2409   1.503  44.205   2.348
31810W        W 2410  21.744   9.672   0.596
31811W        W 2411  38.412  12.957   4.213
31812W        W 2412  10.755   2.832   3.281
31813W        W 2413  19.050  14.100  13.873
31814W        W 2414  43.996   7.580   4.787
31815W        W 2415  23.830   6.432  13.073
31816W        W 2416  16.130  21.713  12.181
31817W        W 2417  30.515   7.034   0.250
31818W        W 2418   8.783  39.109   1.867
31819W        W 2419  16.989  10.860   3.284
31820W        W 2420  17.193  23.073   2.213
31821W        W 2421  34.430  25.635   1.597
31822W        W 2422  11.125  44.963  11.013
31823W        W 2423   8.261  28.878  10.680
31824W        W 2424  33.602  37.584   1.423
31825W        W 2425   4.676  34.102  14.237
31826W        W 2426   2.290  27.473   4.075
31827W        W 2427  21.871  14.289  10.777
31828W        W 2428  10.887  35.911   1.392
31829W        W 2429   0.266  34.154   1.544
31830W        W 2430  39.068  13.716   4.163
31831W        W 2431  37.717  25.997  14.349
31832W        W 2432   7.898  17.773  14.362
31833W        W 2433  10.886  41.294  13.839
31834W        W 2434   9.962  15.886  13.816
31835W        W 2435  44.831  25.932  14.104
31836W        W 2436   0.292   1.842  11.243
31837W        W 2437  34.621  13.428   1.918
31838W        W 2438  19.031  14.630  13.074
31839W        W 2439  32.927   9.629   2.291
31840W        W 2440  39.495   7.296   2.636
31841W        W 2441   9.760   7.944   1.424
31842W        W 2442  41.897   7.309   0.841
31843W        W 2443   1.508  23.033   4.178
31844W        W 2444  35.057  38.360   4.214
31845W        W 2445  25.515  23.299   3.382
31846W        W 2446  43.376   6.118   0.298
31847W        W 2447  13.091  26.326  12.980
31848W        W 2448   0.553  39.007   0.343
31849W        W 2449  38.335   1.482  11.805
31850W        W 2450   9.420  43.044  10.721
31851W        W 2451   8.395  34.235  12.137
31852W        W 2452   2.344  29.711   5.071
31853W        W 2453  10.143  23.178   2.552
31854W        W 2454  21.718  12.572   1.841
31855W        W 2455  13.230  29.627   3.226
31856W        W 2456   5.197  10.540   0.484
31857W        W 2457  27.984  11.269   2.842
31858W        W 2458   4.998  35.409  13.126
31859W        W 2459  17.910  33.293   2.286
31860W        W 2460  19.033  15.115   2.707
31861W        W 2461   2.356  10.861  13.897
31862W        W 2462  25.127  28.680   0.999
31863W        W 2463  12.844  18.109  10.750
31864W        W 2464  23.754  31.514  12.939
31865W        W 2465  19.653  42.024   5.009
31866W        W 2466  22.157  31.125  11.900
31867W        W 2467  44.752  24.582   4.282
31868W        W 2468  24.599  13.473   1.320
31869W        W 2469  36.508  39.692  12.557
31870W        W 2470  40.335  11.696  10.696
31871W        W 2471   7.029  41.942  10.435
31872W        W 2472  37.707  16.540  13.053
31873W        W 2473  37.915  16.613   2.604
31874W        W 2474  44.932   1.309   0.753
31875W        W 2475  38.221  39.831   1.320
31876W        W 2476  12.861  37.762   2.547
31877W        W 2477  18.000  13.317  14.746
31878W        W 2478   5.923   2.558  12.006
31879W        W 2479  31.202   2.742  12.272
31880W        W 2480   6.366   2.214   3.734
31881W        W 2481  26.259  29.473  12.842
31882W        W 2482   9.095  19.901   3.885
31883W        W 2483  35.914  42.533   1.921
31884W        W 2484  20.829  26.386   0.807
31885W        W 2485  38.847  44.698  12.948
31886W        W 2486  27.009   1.336  14.178
31887W        W 2487  26.197   6.849  13.959
31888W        W 2488  27.868   1.246  14.515
31889W        W 2489  10.628   4.449   1.815
31890W        W 2490  36.027   2.362  12.024
31891W        W 2491   9.678  24.968  14.346
31892W        W 2492  10.099  34.399  13.564
31893W        W 2493  23.481  33.818  13.539
31894W        W 2494  35.966  26.288  10.726
31895W        W 2495  18.310   9.468  14.219
31896W        W 2496  43.046  34.996   4.575
31897W        W 2497  32.134   8.244   3.195
31898W        W 2498  10.031  43.034   0.686
31899W        W 2499   7.799  23.637   0.443
31900W        W 2500  19.720  42.479  10.696
31901W        W 2501  23.241  21.610   3.615
31902W        W 2502   9.233  27.092  13.962
31903W        W 2503  17.713  29.792  10.044
31904W        W 2504  12.394  12.763  13.977
31905W        W 2505  24.615   1.500  11.105
31906W        W 2506   7.453   6.854  14.030
31907W        W 2507  25.452  15.096  14.316
31908W        W 2508  44.777  42.433   4.596
31909W        W 2509  28.419  19.275   1.877
31910W        W 2510  13.488  29.891   1.978
31911W        W 2511   4.976  30.095  11.997
31912W        W 2512  30.424   3.224   1.800
31913W        W 2513  20.012   9.216  14.982
31914W        W 2514  30.121  28.161  12.356
31915W        W 2515   5.358  21.771   4.761
31916W        W 2516  19.317  26.255   0.842
31917W        W 2517  30.693  15.577  12.948
31918W        W 2518  44.363  13.713  13.871
31919W        W 2519  12.631   3.438  10.677
31920W        W 2520   3.678  40.648   2.793
31921W        W 2521  30.151   1.556  12.864
31922W        W 2522  33.964   9.369   0.243
31923W        W 2523   9.057   0.701  10.402
31924W        W 2524  22.087  28.405   1.549
31925W        W 2525   1.949  24.882   4.210
31926W        W 2526  18.294  40.441  12.449
31927W        W 2527  23.454  40.252  10.684
31928W        W 2528  33.077  22.666  11.614
31929W        W 2529  22.971  16.171   4.531
31930W        W 2530  12.922  24.547  13.747
31931W        W 2531  20.951  32.228   3.927
31932W        W 2532  26.561  43.770   0.361
31933W        W 2533  31.051   9.354   0.450
31934W        W 2534  21.979  27.065  10.715
31935W        W 2535  38.322  18.823   4.708
31936W        W 2536  22.619  31.083   3.156
31937W        W 2537   6.669  11.776   4.054
31938W        W 2538  38.278  40.486  14.020
31939W        W 2539  28.479  29.215  13.393
31940W        W 2540  44.825  26.451   1.341
31941W        W 2541  17.809   5.483   4.685
31942W        W 2542   0.347  34.104  13.476
31943W        W 2543  11.241   4.770   0.425
31944W        W 2544  32.703  26.702  11.992
31945W        W 2545  12.735  44.512   1.385
31946W        W 2546   1.730  41.854  11.719
31947W        W 2547   3.753  15.242  14.750
31948W        W 2548  20.688   4.751  13.228
31949W        W 2549  14.284  43.278  12.593
31950W        W 2550  36.743  29.441   0.285
31951W        W 2551  24.485  21.698  13.339
31952W        W 2552  37.533  28.162   3.627
31953W        W 2553  21.233   2.279   0.494
31954W        W 2554   1.765  40.943  14.002
31955W        W 2555  14.276  27.500  13.343
31956W        W 2556  22.443  30.588   0.829
31957W        W 2557  12.289  18.881   3.248
31958W        W 2558   0.839   1.449  13.423
31959W        W 2559   5.948  29.500   2.266
31960W        W 2560   3.795  18.521   4.886
31961W        W 2561  11.864  19.534  14.026
31962W        W 2562  37.034  29.962  12.141
31963W        W 2563  41.686  41.386  14.919
31964W        W 2564  33.521   7.424   4.210
31965W        W 2565  11.057  37.001  10.405
31966W        W 2566  23.935  22.157  11.330
31967W        W 2567  12.289  13.900   1.741
31968W        W 2568   4.818  32.374  10.666
31969W        W 2569   6.670   7.365  14.084
31970W        W 2570  25.488   1.266   0.811
31971W        W 2571   8.745  26.208  10.631
31972W        W 2572   4.545  44.960   1.285
31973W        W 2573   0.427  37.526  11.911
31974W        W 2574  13.577  17.527  11.749
31975W        W 2575  21.285  32.178  14.708
31976W        W 2576  39.790  35.842   0.720
31977W        W 2577  28.633  28.899   4.216
31978W        W 2578  12.868  24.131   1.743
31979W        W 2579  43.182  30.826   1.806
31980W        W 2580   6.322   7.678   1.199
31981W        W 2581  17.247  39.899   3.464
31982W        W 2582  40.516   8.377   4.445
31983W        W 2583  37.761  28.087   1.302
31984W        W 2584  40.915  39.872   3.584
31985W        W 2585  30.555  25.828  13.629
31986W        W 2586  24.586  33.143  11.567
31987W        W 2587  43.906  36.833   0.733
31988W        W 2588  35.223  14.127   0.498
31989W        W 2589   2.625  11.057  14.297
31990W        W 2590  40.039  13.266   3.745
31991W        W 2591   0.367  21.351   4.064
31992W        W 2592  11.319  29.060   4.086
31993W        W 2593  23.910  26.724  11.159
31994W        W 2594  34.563  33.876   2.168
31995W        W 2595  42.306  15.074   2.618
31996W        W 2596  44.948   4.771  14.647
31997W        W 2597  28.521  19.867   0.721
31998W        W 2598  35.424  13.641  11.545
31999W        W 2599  16.069  28.000   3.764
32000W        W 2600  25.010  29.948   4.167
32001W        W 2601  13.857   0.858   3.792
32002W        W 2602  44.448  31.681  13.655
32003W        W 2603  16.484  36.007   4.992
32004W        W 2604   4.373  24.876   3.176
32005W        W 2605   8.094   8.926   1.653
32006W        W 2606  37.013  39.127  13.874
32007W        W 2607  40.926   8.235  13.302
32008W        W 2608   3.526   9.454   1.187
32009W        W 2609   2.526   4.329  11.568
32010W        W 2610  18.215  24.717   0.441
32011W        W 2611  43.953  25.629  11.661
32012W        W 2612  16.322  21.300   4.313
32013W        W 2613  44.511  15.159   4.632
32014W        W 2614  42.965   5.662   0.009
32015W        W 2615  21.379  40.290  14.963
32016W        W 2616  25.280  30.529  12.087
32017W        W 2617   8.806  11.413  12.139
32018W        W 2618  20.357   8.928   5.432
32019W        W 2619  37.803  21.626   1.831
32020W        W 2620  30.257  17.921  12.904
32021W        W 2621  15.502  10.578  10.923
32022W        W 2622  16.091  35.892  14.295
32023W        W 2623  34.849  33.032   4.683
32024W        W 2624  30.803   8.053   1.919
32025W        W 2625  11.159   8.198   1.217
32026W        W 2626  33.242  17.764   0.218
32027W        W 2627  25.456  18.873  10.591
32028W        W 2628  33.155  30.578  12.023
32029W        W 2629  20.724   7.248   5.058
32030W        W 2630  10.418  40.404   1.918
32031W        W 2631  37.301  27.952  12.031
32032W        W 2632   1.389  19.992  11.230
32033W        W 2633  14.314   8.850   1.205
32034W        W 2634  13.326   5.620  10.725
32035W        W 2635   9.951   0.165  14.667
32036W        W 2636   1.592  11.656   1.817
32037W        W 2637   6.592  26.888  14.006
32038W        W 2638  22.283  36.130  10.783
32039W        W 2639  12.564  33.091   4.432
32040W        W 2640  35.677  17.657  13.906
32041W        W 2641  36.830  16.076  11.664
32042W        W 2642  22.932  40.822  11.327
32043W        W 2643   6.354   4.526  11.091
32044W        W 2644   7.426   9.926   5.065
32045W        W 2645  29.900  10.431  14.387
32046W        W 2646  21.710  17.305   0.882
32047W        W 2647   7.247  33.944  10.877
32048W        W 2648  33.106  43.934  14.463
32049W        W 2649  19.089  43.582   2.842
32050W        W 2650  17.300  35.064  11.583
32051W        W 2651   7.146  18.083   4.416
32052W        W 2652   0.722  20.950  10.625
32053W        W 2653   9.074  27.452   0.689
32054W        W 2654  34.848  41.382   4.592
32055W        W 2655  39.380  21.541  14.738
32056W        W 2656  34.018  13.375   2.381
32057W        W 2657  22.701   8.180   1.901
32058W        W 2658  19.792  32.168  12.456
32059W        W 2659  11.859  37.669  14.858
32060W        W 2660   5.255  27.530   2.605
32061W        W 2661  24.930   5.271   0.396
32062W        W 2662  21.117  33.017  11.646
32063W        W 2663  10.105  15.122   3.752
32064W        W 2664  12.269  14.086  14.769
32065W        W 2665  21.531  14.316   3.199
32066W        W 2666  25.688   9.649  12.538
32067W        W 2667  33.065   7.254   4.921
32068W        W 2668  37.130  36.783   0.888
32069W        W 2669  36.657   4.844  12.109
32070W        W 2670  36.669  19.274   0.338
32071W        W 2671  35.589  15.757   0.431
32072W        W 2672  14.934   1.358  11.191
32073W        W 2673  27.130  36.443   4.326
32074W        W 2674  23.351  37.001  10.805
32075W        W 2675  23.127  31.949  12.518
32076W        W 2676   1.023  44.746  14.359
32077W        W 2677  43.003  33.690  14.392
32078W        W 2678  17.121  36.595  14.876
32079W        W 2679   5.682  21.587   3.977
32080W        W 2680   2.285  16.800   4.148
32081W        W 2681  12.636  44.967  12.087
32082W        W 2682  14.688  33.206   0.984
32083W        W 2683   5.403  28.084   1.098
32084W        W 2684  41.320  19.908   0.452
32085W        W 2685  36.989  20.437   4.075
32086W        W 2686  15.642  37.357   5.058
32087W        W 2687  12.602  17.561   3.386
32088W        W 2688  37.428  30.020  14.344
32089W        W 2689  25.641  22.060  10.975
32090W        W 2690  41.817  44.735   4.977
32091W        W 2691   1.839  24.911   2.268
32092W        W 2692  14.040  38.517  14.076
32093W        W 2693  14.376  19.351  11.457
32094W        W 2694   0.399   6.035   4.999
32095W        W 2695  24.467  39.832  13.473
32096W        W 2696  37.935  40.943  12.699
32097W        W 2697  41.480  37.834   0.979
32098W        W 2698   2.036   3.430   2.821
32099W        W 2699   6.172  25.397   1.677
32100W        W 2700  28.076  14.044   1.733
32101W        W 2701  28.456  26.025  10.913
32102W        W 2702  19.286  10.429  11.147
32103W        W 2703   9.597  24.275   3.146
32104W        W 2704  33.097  25.032  13.447
32105W        W 2705  26.377  32.960   4.912
32106W        W 2706  33.902  20.242   1.014
32107W        W 2707  35.617  22.977   3.612
32108W        W 2708  19.048  28.710   2.631
32109W        W 2709  12.791  12.231  13.345
32110W        W 2710   3.622  28.097  12.513
32111W        W 2711  24.158  14.348  14.009
32112W        W 2712   2.091  34.516  13.321
32113W        W 2713  11.567  27.218   4.062
32114W        W 2714  11.510   0.818  14.347
32115W        W 2715  22.656   3.475   3.712
32116W        W 2716  18.779  22.043   2.182
32117W        W 2717   7.000  26.570  13.098
32118W        W 2718  29.359  41.385   2.476
32119W        W 2719   4.743  15.690  12.993
32120W        W 2720   2.296  12.960  10.808
32121W        W 2721  28.287   5.134   3.633
32122W        W 2722  41.934  19.074  14.857
32123W        W 2723  36.073   9.517   2.976
32124W        W 2724   7.846  10.809   2.669
32125W        W 2725  29.531  16.506  14.507
32126W        W 2726  10.226  32.103  11.642
32127W        W 2727  19.109  35.444  11.752
32128W        W 2728  26.493  27.438   2.385
32129W        W 2729  29.189   9.769  12.997
32130W        W 2730  28.127  38.373  10.623
32131W        W 2731  20.489  13.701  12.237
32132W        W 2732  32.843  19.984   3.853
32133W        W 2733  41.538  22.076  14.877
32134W        W 2734  14.483  26.976   4.662
32135W        W 2735  20.285  31.390  13.776
32136W        W 2736  39.391  26.100   0.467
32137W        W 2737  32.077  15.568  13.788
32138W        W 2738  12.034  20.132   4.149
32139W        W 2739  39.083  44.697   2.069
32140W        W 2740  40.417  42.558   1.465
32141W        W 2741  14.310  31.969   0.937
32142W        W 2742  22.605  41.583  11.857
32143W        W 2743   9.123  30.384   4.925
32144W        W 2744  33.640  34.699  12.352
32145W        W 2745   7.135   0.410  11.500
32146W        W 2746   0.227  42.943  11.495
32147W        W 2747  11.331  28.588  11.997
32148W        W 2748   2.670   1.489   2.355
32149W        W 2749  17.413   4.685  10.818
32150W        W 2750  24.658   7.886  10.597
32151W        W 2751  39.500  43.270   4.579
32152W        W 2752   9.437  27.066   1.741
32153W        W 2753  10.788   3.074  10.504
32154W        W 2754  11.145  27.679   2.830
32155W        W 2755  35.552  31.649  11.131
32156W        W 2756  37.453   9.578  11.163
32157W        W 2757  33.205  26.983  14.579
32158W        W 2758  40.371  15.762   2.085
32159W        W 2759   3.698  36.028  11.624
32160W        W 2760   9.587  32.828   2.808
32161W        W 2761  16.623   6.315   0.399
32162W        W 2762  18.321  43.979  11.888
32163W        W 2763  21.530  31.263   4.160
32164W        W 2764  24.756   8.757   3.703
32165W        W 2765  36.140  31.901  14.547
32166W        W 2766   6.592  35.574   4.359
32167W        W 2767  22.628  19.154  10.555
32168W        W 2768  28.442   5.783   1.689
32169W        W 2769   5.662  32.007  11.597
32170W        W 2770  23.962  28.682   2.327
32171W        W 2771  37.427  17.737  10.741
32172W        W 2772  18.771  41.314   2.803
32173W        W 2773  12.617  15.300  13.353
32174W        W 2774  26.071   5.208   0.738
32175W        W 2775  10.384  20.550   3.762
32176W        W 2776  34.630  10.241  13.018
32177W        W 2777  41.143  43.919   3.581
32178W        W 2778  11.702  24.936   2.719
32179W        W 2779   3.971   9.713   1.787
32180W        W 2780  22.861  21.585   1.422
32181W        W 2781  10.959  36.800   1.155
32182W        W 2782  11.349   4.334  12.674
32183W        W 2783   6.764   2.195   3.306
32184W        W 2784  12.213  34.834   4.941
32185W        W 2785  44.476   8.140   3.237
32186W        W 2786  22.533  17.643   4.121
32187W        W 2787  24.972  28.921  12.400
32188W        W 2788  40.696  15.890   0.698
32189W        W 2789  35.768  43.355  10.674
32190W        W 2790  38.909   3.880  12.489
32191W        W 2791  34.428  42.968  11.637
32192W        W 2792   0.987   3.303  11.520
32193W        W 2793  12.394  39.412   0.159
32194W        W 2794   9.903  29.159   3.800
32195W        W 2795  27.095   8.921   3.627
32196W        W 2796  43.003  27.299   4.415
32197W        W 2797  30.440  32.254  11.629
32198W        W 2798  39.626  40.632   4.262
32199W        W 2799   2.481  10.556  14.334
32200W        W 2800  12.324   5.942  13.313
32201W        W 2801  29.219  14.409  13.326
32202W        W 2802  26.021   3.735   4.370
32203W        W 2803  39.822  30.121   4.083
32204W        W 2804   1.253   5.802   4.340
32205W        W 2805  29.094  41.097  12.076
32206W        W 2806  14.475  42.589  14.400
32207W        W 2807  29.257  10.306   0.746
32208W        W 2808  10.540  11.815   0.897
32209W        W 2809  32.087  27.495   4.485
32210W        W 2810  31.590   2.182  11.484
32211W        W 2811  38.998  20.854  12.969
32212W        W 2812  43.487  11.865   3.383
32213W        W 2813  39.166  38.493  10.660
32214W        W 2814   9.611   7.179  14.491
32215W        W 2815  32.953  32.949  13.954
32216W        W 2816  34.391  19.711  10.654
32217W        W 2817  30.281  37.097  14.335
32218W        W 2818  17.008  10.374  12.078
32219W        W 2819   6.728  23.076  11.164
32220W        W 2820   0.616   2.452   4.207
32221W        W 2821  14.750   3.233  14.490
32222W        W 2822  41.066  23.985  13.021
32223W        W 2823  43.036  24.627   1.402
32224W        W 2824   9.869  43.666  12.094
32225W        W 2825   8.173  10.894   4.527
32226W        W 2826  36.090   7.305  10.665
32227W        W 2827  11.565  39.377   0.308
32228W        W 2828  34.571  35.731   2.002
32229W        W 2829  26.768  18.879   2.166
32230W        W 2830  20.177  11.326   0.478
32231W        W 2831  22.710  34.837   2.098
32232W        W 2832  23.988  42.312   3.716
32233W        W 2833  21.999  13.893  10.409
32234W        W 2834  26.231  23.221   2.281
32235W        W 2835  41.612  41.163  13.441
32236W        W 2836  41.965  35.953   1.390
32237W        W 2837  29.082  11.690   3.328
32238W        W 2838   1.388  44.948  10.690
32239W        W 2839  39.835  34.732  12.364
32240W        W 2840  12.217  42.218  14.500
32241W        W 2841  23.482   5.626  13.389
32242W        W 2842  41.857  22.968  14.758
32243W        W 2843   6.107  11.866   3.268
32244W        W 2844  22.560  22.948   2.402
32245W        W 2845  35.874   0.980   3.126
32246W        W 2846  37.559  26.363   4.981
32247W        W 2847  25.682  10.748   0.711
32248W        W 2848  12.445  13.871   4.552
32249W        W 2849  21.198  17.811   1.365
32250W        W 2850  38.761   3.875   2.366
32251W        W 2851  24.401  36.988  14.913
32252W        W 2852  24.560   3.395  13.387
32253W        W 2853   0.128  26.234   3.704
32254W        W 2854   4.029  37.115   1.257
32255W        W 2855  35.614   0.350   3.680
32256W        W 2856  10.308  36.068   4.595
32257W        W 2857  32.296  26.046   2.769
32258W        W 2858  18.980  19.188   4.585
32259W        W 2859  37.359  26.577   2.450
32260W        W 2860  29.684  35.492  11.451
32261W        W 2861  28.447  43.486   2.910
32262W        W 2862  16.874  30.620   1.741
32263W        W 2863   1.039  42.954   1.675
32264W        W 2864  16.418   9.154   1.343
32265W        W 2865  38.660  11.670  13.760
32266W        W 2866  18.054  31.708  13.741
32267W        W 2867  37.904  28.971  13.516
32268W        W 2868  42.295  23.041  12.069
32269W        W 2869  15.180  31.546   3.560
32270W        W 2870  32.477  18.542  13.692
32271W        W 2871  13.540  19.015  12.680
32272W        W 2872   5.439  38.359  13.588
32273W        W 2873  27.619  40.890   1.824
32274W        W 2874  40.728  32.312  11.509
32275W        W 2875  10.309   0.345   3.993
32276W        W 2876  37.579   4.245  10.746
32277W        W 2877   0.856  34.782  12.393
32278W        W 2878   2.298  21.241   0.428
32279W        W 2879  38.046  33.964   0.934
32280W        W 2880  44.553  19.646  10.123
32281W        W 2881   1.089  27.405   2.630
32282W        W 2882  31.566  12.849   4.773
32283W        W 2883  31.372   5.910   4.709
32284W        W 2884  17.269   8.385   2.861
32285W        W 2885  23.686  33.600   0.848
32286W        W 2886  20.401   2.192   3.759
32287W        W 2887   0.548  29.084   1.257
32288W        W 2888  31.640  16.692   2.328
32289W        W 2889  25.599   7.258   5.350
32290W        W 2890  19.179  31.910  14.996
32291W        W 2891  36.388  42.554  10.675
32292W        W 2892  20.394  17.742  14.913
32293W        W 2893  25.778   1.011   3.624
32294W        W 2894  12.187  24.692  14.439
32295W        W 2895  39.967  15.588  10.672
32296W        W 2896  25.143  30.673  14.354
32297W        W 2897   1.208  40.427   4.265
32298W        W 2898  41.551  18.205   1.659
32299W        W 2899  31.052  38.022  12.059
32300W        W 2900   4.851  25.009  11.001
32301W        W 2901  39.622  37.678   1.366
32302W        W 2902  31.183  30.108   2.318
32303W        W 2903  40.428   5.775  12.068
32304W        W 2904  42.971  32.553  14.351
32305W        W 2905  41.465  44.067   2.858
32306W        W 2906  22.266  37.366   2.164
32307W        W 2907  17.338   6.228   3.677
32308W        W 2908  35.009  39.359   2.168
32309W        W 2909  16.283  28.959  14.031
32310W        W 2910  36.980   4.806  11.424
32311W        W 2911  35.345  19.351  10.999
32312W        W 2912  28.865  30.395  12.059
32313W        W 2913  14.702   6.924   0.087
32314W        W 2914  34.174  36.984  10.566
32315W        W 2915  28.124  12.139  13.316
32316W        W 2916  18.741  14.165   1.785
32317W        W 2917  12.398  16.727   0.348
32318W        W 2918   0.516  18.337   0.267
32319W        W 2919  28.047   3.061  13.517
32320W        W 2920   8.607   5.322  14.453
32321W        W 2921  17.671  38.022  11.075
32322W        W 2922   5.206  17.065  14.105
32323W        W 2923  36.873  44.204   4.598
32324W        W 2924  14.790   2.512   0.011
32325W        W 2925  16.709  40.897   1.624
32326W        W 2926  18.553   3.398   2.427
32327W        W 2927  38.608  15.775   1.707
32328W        W 2928  37.251  20.212   5.110
32329W        W 2929  10.250  40.856  14.974
32330W        W 2930  38.916  33.601   2.345
32331W        W 2931   5.269  23.696  10.961
32332W        W 2932  31.088  11.669  13.115
32333W        W 2933  38.553  28.947   4.767
32334W        W 2934   7.759  19.335   3.746
32335W        W 2935  40.380  33.875  11.923
32336W        W 2936  40.332  15.436   4.551
32337W        W 2937   4.400   1.085  11.533
32338W        W 2938  31.924  43.684  10.807
32339W        W 2939  36.866   7.672   4.886
32340W        W 2940  30.442   7.415  13.918
32341W        W 2941  24.578  37.869   3.401
32342W        W 2942  35.617   6.922   3.064
32343W        W 2943  28.073  25.395   4.310
32344W        W 2944   7.558   7.455  12.303
32345W        W 2945  44.473   1.711  14.562
32346W        W 2946  14.557  35.169   9.871
32347W        W 2947   6.483  29.605   0.084
32348W        W 2948  21.158  18.600   3.855
32349W        W 2949  28.513  14.434  14.019
32350W        W 2950  44.086  24.770   2.929
32351W        W 2951   6.751  32.482  10.700
32352W        W 2952  24.910   0.887   3.042
32353W        W 2953  39.257  41.807   1.734
32354W        W 2954  21.591   4.206  12.278
32355W        W 2955   4.988  12.871  11.580
32356W        W 2956  13.767  10.702   0.337
32357W        W 2957  17.913  18.061  13.974
32358W        W 2958  17.010   8.902  10.359
32359W        W 2959  23.058  21.122  11.638
32360W        W 2960  35.309  35.930  11.875
32361W        W 2961  12.249  25.267  13.319
32362W        W 2962   8.146  16.728  12.635
32363W        W 2963   0.089  41.598  11.358
32364W        W 2964  35.540  20.543  10.597
32365W        W 2965  32.866  14.969   2.204
32366W        W 2966  36.855  20.535   0.870
32367W        W 2967  38.162  44.694   3.376
32368W        W 2968  34.930  10.154   1.694
32369W        W 2969  12.247   4.752  14.281
32370W        W 2970  27.402  41.329   1.597
32371W        W 2971  40.927   6.119   3.372
32372W        W 2972  25.160  44.675   0.238
32373W        W 2973   1.550  25.881  12.435
32374W        W 2974  12.396  21.709  14.762
32375W        W 2975   6.960  10.873  13.338
32376W        W 2976  44.691  14.770  11.636
32377W        W 2977   5.446  38.930   1.297
32378W        W 2978  15.039  41.476  11.429
32379W        W 2979  32.100  32.402  12.451
32380W        W 2980   9.690  14.722   2.167
32381W        W 2981  33.103  27.467  14.372
32382W        W 2982  12.162  28.559  13.822
32383W        W 2983  19.298  33.621   0.834
32384W        W 2984  35.999  42.478   0.457
32385W        W 2985  40.342  41.874  13.069
32386W        W 2986   7.780   4.889   1.092
32387W        W 2987   5.227  29.346   4.823
32388W        W 2988   2.255  24.235  12.882
32389W        W 2989  23.581  41.099  12.376
32390W        W 2990  33.058  38.725  11.151
32391W        W 2991   6.765   1.710  14.392
32392W        W 2992  31.473  23.617   3.652
32393W        W 2993  35.179  29.936   4.256
32394W        W 2994   9.790  32.981   3.792
32395W        W 2995   2.525  19.433   0.915
32396W        W 2996   5.412  14.173  12.895
32397W        W 2997  14.256  38.356  11.059
32398W        W 2998  24.663  11.419   2.847
32399W        W 2999   0.986   1.266   4.586
32400W        W 3000  24.602  29.276   1.610
32401W        W 3001   1.730  23.205   3.181
32402W        W 3002  38.721  15.401   1.183
32403W        W 3003  37.725  18.163   1.683
32404W        W 3004  21.893  32.886   4.127
32405W        W 3005  21.078  30.240  13.381
32406W        W 3006  25.052   3.797  10.662
32407W        W 3007  15.756  40.629  14.766
32408W        W 3008   7.185   6.890  13.555
32409W        W 3009   9.403  30.178  12.641
32410W        W 3010  29.801  32.054  12.607
32411W        W 3011  10.898  38.386   1.112
32412W        W 3012  21.911  30.268  13.470
32413W        W 3013  11.273  37.934   2.217
32414W        W 3014   6.890  34.771   3.800
32415W        W 3015  11.963  16.735   4.114
32416W        W 3016  33.145  23.264  12.456
32417W        W 3017   7.080  33.937   1.459
32418W        W 3018  30.172  43.283  12.777
32419W        W 3019  42.922  12.368   4.712
32420W        W 3020  34.088  20.538  12.583
32421W        W 3021  25.923   8.287  13.589
32422W        W 3022  16.349  39.511  12.086
32423W        W 3023   6.706  12.334   4.540
32424W        W 3024  29.820  27.039  14.520
32425W        W 3025  19.696   8.598   0.756
32426W        W 3026  18.048  44.090  11.460
32427W        W 3027  17.103  16.717  12.643
32428W        W 3028  14.547  37.098   0.525
32429W        W 3029  20.431  11.072  12.089
32430W        W 3030   4.634  15.050   0.814
32431W        W 3031  33.183  19.310  12.583
32432W        W 3032  36.017   1.327  11.198
32433W        W 3033   7.216  32.849  12.451
32434W        W 3034  22.666  15.750  10.482
32435W        W 3035  14.168  43.877  12.897
32436W        W 3036  31.083  19.667   1.790
32437W        W 3037  32.892  38.867   2.514
32438W        W 3038  16.727  27.866   4.518
32439W        W 3039  17.818  25.457   3.665
32440W        W 3040  44.822  25.743  14.675
32441W        W 3041  13.064   2.305  14.366
32442W        W 3042  29.700   8.109   3.199
32443W        W 3043   7.420   3.265  14.748
32444W        W 3044  26.551  38.111  14.782
32445W        W 3045  23.294  23.039  11.630
32446W        W 3046  15.277  27.074   3.450
32447W        W 3047  22.686   5.959   4.293
32448W        W 3048  14.705  41.698  12.231
32449W        W 3049   6.414  28.400  13.598
32450W        W 3050   1.798  37.997  14.089
32451W        W 3051   8.664   9.274  14.493
32452W        W 3052  31.224  19.114  13.980
32453W        W 3053  33.843   0.342  10.770
32454W        W 3054  21.645  38.615   4.028
32455W        W 3055   9.103   9.814   1.785
32456W        W 3056  39.385  18.514  11.594
32457W        W 3057   5.013  15.288   3.487
32458W        W 3058  13.900   0.960  14.654
32459W        W 3059  13.579  12.194   0.342
32460W        W 3060   1.073  42.224  11.373
32461W        W 3061   4.716   0.743  14.001
32462W        W 3062  14.885  39.540   0.495
32463W        W 3063   0.914  11.645   4.635
32464W        W 3064  31.105   2.731   1.943
32465W        W 3065   2.426  29.222   1.352
32466W        W 3066  35.489  41.539  10.740
32467W        W 3067  23.674   3.469   3.858
32468W        W 3068  10.320  24.982  11.649
32469W        W 3069  14.280  12.665   2.153
32470W        W 3070  42.533  15.815  10.712
32471W        W 3071  26.031  42.744   2.262
32472W        W 3072  30.230  30.070  11.209
32473W        W 3073  17.350  23.072   0.357
32474W        W 3074  19.079  39.726   1.587
32475W        W 3075  11.597  41.733   1.428
32476W        W 3076  16.552  32.491   1.908
32477W        W 3077  10.393  16.745   3.565
32478W        W 3078  37.818  12.259   2.069
32479W        W 3079  31.159  42.917   2.824
32480W        W 3080  14.243  21.303   0.267
32481W        W 3081  21.718  24.956  11.570
32482W        W 3082  16.185  42.389   2.266
32483W        W 3083  15.055   3.833   2.770
32484W        W 3084  37.815  24.713  10.370
32485W        W 3085  43.502  12.918  13.521
32486W        W 3086  22.445  18.574  13.730
32487W        W 3087  32.110  34.883   1.329
32488W        W 3088  34.390  35.469   2.804
32489W        W 3089  16.788   0.546   2.316
32490W        W 3090  10.793   5.335   0.033
32491W        W 3091  37.775  33.061   4.053
32492W        W 3092  35.908  27.249   0.425
32493W        W 3093  26.971  18.665   4.693
32494W        W 3094  24.339   0.791   5.410
32495W        W 3095  23.849   9.307  10.327
32496W        W 3096  42.720   8.226  13.110
32497W        W 3097  44.918  36.396  13.302
32498W        W 3098  27.240  13.762   4.153
32499W        W 3099  43.449  19.190  13.401
32500W        W 3100   8.569  17.275  14.834
32501W        W 3101  10.244  43.371   4.644
32502W        W 3102  22.223  33.023   1.839
32503W        W 3103  39.033  25.277  13.296
32504W        W 3104  29.368  11.180   1.102
32505W        W 3105  33.328  26.500  14.763
32506W        W 3106   0.884  41.807  13.359
32507W        W 3107  25.108  39.801  12.949
32508W        W 3108  41.458  20.962   1.966
32509W        W 3109  35.313  38.645   2.862
32510W        W 3110  34.585  21.565  14.692
32511W        W 3111  43.524  16.673  13.837
32512W        W 3112   3.937  27.648  13.907
32513W        W 3113  10.842   1.798   4.604
32514W        W 3114   2.225  33.468   0.046
32515W        W 3115  22.197   3.188   2.769
32516W        W 3116   6.367  38.818   1.309
32517W        W 3117   9.722  13.689   3.853
32518W        W 3118  22.785  35.021  13.560
32519W        W 3119  44.798  28.885  11.768
32520W        W 3120  11.837  17.526  13.455
32521W        W 3121  17.536  31.481   3.877
32522W        W 3122  13.547  26.001  13.889
32523W        W 3123  34.929   8.967   4.497
32524W        W 3124  23.222  30.126   0.412
32525W        W 3125  39.398  10.357   2.685
32526W        W 3126  27.185  42.505   3.726
32527W        W 3127   8.288  19.981   0.295
32528W        W 3128  12.265  42.474  11.600
32529W        W 3129  35.820   6.215   2.300
32530W        W 3130  41.714  34.951   1.561
32531W        W 3131   1.326  15.839   4.090
32532W        W 3132  27.951  19.655  10.084
32533W        W 3133  17.226  37.882   5.012
32534W        W 3134   7.246  14.165  11.520
32535W        W 3135  32.393  12.684  10.721
32536W        W 3136  30.529  10.503  14.078
32537W        W 3137   6.439  43.941   2.242
32538W        W 3138  39.248  21.497   2.631
32539W        W 3139  31.422  44.510   3.413
32540W        W 3140  27.126  18.230   4.961
32541W        W 3141  44.871  13.432   1.104
32542W        W 3142  25.147  34.906  13.372
32543W        W 3143   5.290  10.133  14.035
32544W        W 3144  33.869  43.236  14.385
32545W        W 3145  12.282  31.686   3.915
32546W        W 3146  17.884   9.863  13.510
32547W        W 3147  42.371  35.557   1.337
32548W        W 3148  16.324  32.349   0.654
32549W        W 3149  25.812  39.466  14.220
32550W        W 3150   4.915  19.711  13.516
32551W        W 3151  17.596  37.601   4.262
32552W        W 3152  30.191  30.600  12.599
32553W        W 3153  36.925  26.929   0.474
32554W        W 3154   7.365  26.519  11.710
32555W        W 3155  18.701  35.074   0.939
32556W        W 3156  15.115  44.812  12.447
32557W        W 3157  15.660  26.627  11.927
32558W        W 3158  39.132  29.706   3.229
32559W        W 3159  22.547  42.161  11.897
32560W        W 3160   6.057   7.668   0.755
32561W        W 3161   4.770  12.909   1.436
32562W        W 3162  34.808  27.468   2.134
32563W        W 3163   2.330   9.303   1.682
32564W        W 3164  12.696   8.101   0.836
32565W        W 3165  37.596  25.720  12.495
32566W        W 3166  28.750  25.322   1.429
32567W        W 3167  30.023   9.644   3.019
32568W        W 3168  41.308   5.211   0.199
32569W        W 3169  41.886  14.139   0.857
32570W        W 3170  36.261  40.914   0.150
32571W        W 3171  33.301  30.672   3.573
32572W        W 3172   5.222  23.792  14.002
32573W        W 3173  30.524  38.262   4.297
32574W        W 3174  36.565  12.739  10.452
32575W        W 3175   9.331   1.443   2.173
32576W        W 3176  27.588  20.197   2.052
32577W        W 3177  24.445  32.292  12.815
32578W        W 3178   6.793  34.133  11.435
32579W        W 3179   3.629  10.701  13.162
32580W        W 3180  34.793   1.996   3.994
32581W        W 3181   6.450  44.466   1.291
32582W        W 3182   5.797  39.074  11.607
32583W        W 3183  34.613  20.767   0.176
32584W        W 3184  38.477   1.447   1.295
32585W        W 3185  43.249  22.584   3.598
32586W        W 3186  26.974  34.694  11.621
32587W        W 3187  20.235  28.582  14.698
32588W        W 3188   1.255  36.929  14.474
32589W        W 3189  27.205  10.939  11.466
32590W        W 3190  42.330  32.156  12.119
32591W        W 3191   7.134  19.018   2.398
32592W        W 3192  26.333  34.978  14.821
32593W        W 3193  36.829  14.363   3.241
32594W        W 3194  11.801  30.138   4.837
32595W        W 3195  20.126   3.167  10.354
32596W        W 3196   1.221  36.328   0.760
32597W        W 3197   2.044  13.592   4.557
32598W        W 3198   0.939  43.898  12.098
32599W        W 3199   8.218   0.773  14.847
32600W        W 3200  13.489   8.453   3.289
32601W        W 3201  25.536  43.589  13.790
32602W        W 3202  24.695  38.363  13.860
32603W        W 3203  14.839  34.169  11.173
32604W        W 3204  34.392   5.198  10.574
32605W        W 3205  28.054  28.421  12.137
32606W        W 3206  29.055  19.539  11.421
32607W        W 3207  29.595  24.489   1.688
32608W        W 3208  10.511  31.880   5.139
32609W        W 3209  34.146  27.129  14.777
32610W        W 3210   8.747  34.511   2.840
32611W        W 3211  14.342  44.429  13.480
32612W        W 3212  30.552  22.078   0.838
32613W        W 3213  42.897  26.903   4.733
32614W        W 3214  39.266  10.915  10.847
32615W        W 3215  10.864  44.040   0.276
32616W        W 3216  16.377  43.388  13.900
32617W        W 3217  25.950   4.917  12.122
32618W        W 3218  27.824  18.293   2.694
32619W        W 3219  23.096   3.246   1.048
32620W        W 3220   9.166   4.764  13.108
32621W        W 3221   6.149  29.051  11.061
32622W        W 3222  14.509  19.857   4.218
32623W        W 3223  21.987   4.727   3.248
32624W        W 3224  14.383  18.177  10.809
32625W        W 3225  35.372  12.089  10.581
32626W        W 3226  43.260  23.492   0.456
32627W        W 3227  41.337  16.837  13.895
32628W        W 3228  37.616  22.977   0.007
32629W        W 3229  33.355  37.268  10.737
32630W        W 3230  30.063  21.770   2.222
32631W        W 3231  40.510  16.994   3.258
32632W        W 3232  33.450  34.587   3.174
32633W        W 3233   1.504  38.560  11.892
32634W        W 3234  13.781  37.305   0.084
32635W        W 3235  23.062  15.946  12.970
32636W        W 3236  28.934  41.097   2.685
32637W        W 3237   5.643  39.582   1.812
32638W        W 3238  39.584   1.952   0.602
32639W        W 3239  10.722  32.964  14.305
32640W        W 3240  41.331   0.818   3.647
32641W        W 3241  22.411  20.313   3.714
32642W        W 3242  19.178  34.035  12.444
32643W        W 3243  11.154  24.068   2.683
32644W        W 3244  25.116  16.554   0.005
32645W        W 3245  10.725  23.948  11.235
32646W        W 3246  25.620  22.721   1.876
32647W        W 3247  25.486   2.936  13.742
32648W        W 3248  22.463  14.137  14.029
32649W        W 3249  11.357   9.913  12.554
32650W        W 3250   2.477   6.634  10.672
32651W        W 3251  13.747  18.953  13.593
32652W        W 3252  40.374  30.654  14.918
32653W        W 3253  28.276  40.819   0.698
32654W        W 3254  30.396  17.705  10.785
32655W        W 3255  33.332   0.330  14.608
32656W        W 3256  25.659   1.269   3.179
32657W        W 3257   1.670  17.707  13.442
32658W        W 3258  11.227  23.030   4.531
32659W        W 3259  28.101  29.919   1.859
32660W        W 3260  29.904   4.292  13.459
32661W        W 3261  21.405  37.421   2.374
32662W        W 3262   3.130  35.822   2.753
32663W        W 3263  44.090  36.324  11.055
32664W        W 3264  15.542  37.337   4.205
32665W        W 3265  36.115  35.331  13.502
32666W        W 3266  26.541  38.600  11.040
32667W        W 3267  17.677   5.635   1.440
32668W        W 3268   7.324  10.851   3.246
32669W        W 3269   2.355   2.744  14.698
32670W        W 3270  15.091  20.556  12.838
32671W        W 3271  17.196  16.079   1.361
32672W        W 3272  14.185  13.681  12.519
32673W        W 3273  27.588  34.341   0.830
32674W        W 3274  36.146   8.255   4.723
32675W        W 3275  30.075  29.073  13.475
32676W        W 3276  43.238  14.264  11.390
32677W        W 3277  14.626  16.880  10.788
32678W        W 3278  18.324  22.076  14.019
32679W        W 3279  29.020  28.862  14.205
32680W        W 3280  42.807  26.230   3.863
32681W        W 3281  33.805  43.800   0.167
32682W        W 3282  10.330  24.070  10.505
32683W        W 3283  39.865  36.952  12.472
32684W        W 3284  13.644  37.342   4.207
32685W        W 3285   4.769   4.128  11.703
32686W        W 3286   3.579  38.500  11.927
32687W        W 3287  28.282  11.278  10.839
32688W        W 3288   8.359   7.896   3.340
32689W        W 3289  41.864  39.467   2.243
32690W        W 3290   0.446  26.529  11.959
32691W        W 3291   6.840  29.895   4.578
32692W        W 3292  21.438  14.925   0.041
32693W        W 3293   3.782  22.292   3.740
32694W        W 3294   2.762  16.817  12.480
32695W        W 3295  22.426  40.940  11.203
32696W        W 3296  24.506  27.092   1.741
32697W        W 3297  25.193   7.869   0.402
32698W        W 3298  22.635  15.642  11.531
32699W        W 3299  44.305   9.660   1.303
32700W        W 3300  11.684  18.540  13.074
32701W        W 3301  13.188  41.297   2.801
32702W        W 3302  31.386  19.624   2.216
32703W        W 3303  25.366   0.034   1.575
32704W        W 3304  13.463  41.410  10.771
32705W        W 3305   7.724  35.944  14.232
32706W        W 3306  31.212  10.917  11.049
32707W        W 3307  39.460  14.113   4.044
32708W        W 3308  22.796  10.748  10.348
32709W        W 3309  16.385  16.891  10.319
32710W        W 3310  11.695   4.414   1.811
32711W        W 3311  27.289  40.031  14.488
32712W        W 3312  41.754  13.978  10.193
32713W        W 3313  15.293  35.783  13.945
32714W        W 3314  12.429   2.472   0.853
32715W        W 3315  10.757  31.404   0.228
32716W        W 3316  43.219  27.921  14.409
32717W        W 3317  18.284  13.646   1.472
32718W        W 3318  42.370  13.600  12.597
32719W        W 3319  29.724  35.129  12.685
32720W        W 3320  38.789  38.942   0.830
32721W        W 3321  39.129  16.283   3.151
32722W        W 3322  32.113  23.766  14.429
32723W        W 3323   5.169  29.816  14.376
32724W        W 3324  34.381  25.980  11.962
32725W        W 3325  26.872  21.183  14.482
32726W        W 3326  15.350   5.652  10.589
32727W        W 3327   8.892  27.425  10.937
32728W        W 3328  13.951   1.628  11.169
32729W        W 3329  43.624   8.178  10.889
32730W        W 3330   0.002  15.998  10.614
32731W        W 3331  41.874  15.818  13.373
32732W        W 3332  11.533  42.243   9.879
32733W        W 3333  40.578  14.164  13.964
32734W        W 3334  24.560   1.790   2.647
32735W        W 3335  27.719  11.871   0.129
32736W        W 3336  11.833   5.008  10.768
32737W        W 3337   8.789  38.032  14.844
32738W        W 3338   7.004  23.379  13.352
32739W        W 3339  28.353   9.057   3.067
32740W        W 3340  34.012  15.759  13.464
32741W        W 3341  23.989  24.977   0.050
32742W        W 3342   3.139  40.861   3.269
32743W        W 3343  20.392  23.634  11.701
32744W        W 3344   6.359  10.340   5.061
32745W        W 3345  40.832  20.740   0.357
32746W        W 3346  30.225  43.643   0.926
32747W        W 3347  34.540  32.520  13.817
32748W        W 3348   9.863  22.728   1.297
32749W        W 3349   8.269   7.354   0.491
32750W        W 3350   6.666  21.825   4.111
32751W        W 3351  39.284  42.735  14.979
32752W        W 3352  23.483  42.781   4.152
32753W        W 3353  37.607  18.574   3.159
32754W        W 3354   2.999  17.003   1.871
32755W        W 3355  15.191  22.295   3.245
32756W        W 3356   3.276  43.419   3.587
32757W        W 3357  33.134  41.331  10.299
32758W        W 3358   2.349  31.871   4.783
32759W        W 3359  14.264  27.133  14.445
32760W        W 3360  28.485  12.095  11.088
32761W        W 3361  35.855  28.183   3.267
32762W        W 3362  40.403   7.992  12.518
32763W        W 3363  13.282   5.936  14.806
32764W        W 3364  42.022   0.942   4.402
32765W        W 3365  20.111  36.573   0.022
32766W        W 3366  40.889  31.894   0.016
32767W        W 3367  31.924  39.501   1.166
32768W        W 3368   7.344  16.132   2.931
32769W        W 3369  22.042   2.848   4.643
32770W        W 3370  34.473  33.608  14.904
32771W        W 3371  10.819  24.698  11.522
32772W        W 3372  13.797  23.777  14.768
32773W        W 3373  26.418   9.804   2.529
32774W        W 3374  14.917  33.353  12.440
32775W        W 3375  24.218   1.011  14.779
32776W        W 3376  22.174  12.236  12.946
32777W        W 3377  15.334  38.610   0.948
32778W        W 3378  31.142  13.151   4.767
32779W        W 3379   3.740  16.219  12.405
32780W        W 3380  39.344  24.046   3.680
32781W        W 3381  38.433  15.736   2.905
32782W        W 3382   1.949   5.931  10.649
32783W        W 3383   0.934  43.039   4.877
32784W        W 3384  13.207  37.808  10.779
32785W        W 3385  25.051  41.499  13.403
32786W        W 3386  11.156  38.445   2.358
32787W        W 3387   4.486  42.313   1.786
32788W        W 3388   4.284  36.638  12.902
32789W        W 3389  33.392   8.234   2.111
32790W        W 3390  30.192  17.294   4.191
32791W        W 3391  32.389  10.908   1.279
32792W        W 3392  17.553  23.016  12.491
32793W        W 3393  15.218  36.277   3.112
32794W        W 3394  35.915  41.432  12.493
32795W        W 3395  17.147  27.940   2.347
32796W        W 3396  43.954  40.626   1.572
32797W        W 3397   5.424   7.259   3.953
32798W        W 3398  18.851  44.363  13.513
32799W        W 3399  11.542  42.354  10.469
32800W        W 3400  15.395   1.620  10.410
32801W        W 3401  13.224  18.544  13.547
32802W        W 3402   8.922  39.032  12.946
32803W        W 3403   4.646  20.223   3.257
32804W        W 3404   3.030  34.610  12.506
32805W        W 3405  20.222  26.367  14.059
32806W        W 3406   6.670  14.650  11.993
32807W        W 3407  32.205  23.272   2.172
32808W        W 3408  36.829  15.737   3.391
32809W        W 3409   7.862   4.459  13.344
32810W        W 3410  28.029  43.714  13.434
32811W        W 3411  26.286  37.281  12.084
32812W        W 3412  31.915  13.581  13.506
32813W        W 3413  36.346  40.334  10.723
32814W        W 3414  18.989  42.417   0.122
32815W        W 3415  14.190   3.234   3.035
32816W        W 3416  18.805   5.440  13.274
32817W        W 3417  22.672  29.481  12.378
32818W        W 3418  44.063  33.968   2.654
32819W        W 3419   7.749  30.008  14.591
32820W        W 3420   9.074   9.683   2.291
32821W        W 3421   9.268  28.607   3.531
32822W        W 3422  42.559  32.964  11.479
32823W        W 3423  28.215  31.480  14.542
32824W        W 3424  11.443  36.333   4.120
32825W        W 3425  15.082  43.073   2.728
32826W        W 3426  18.142  16.592  11.065
32827W        W 3427  24.143   6.974   3.635
32828W        W 3428  43.912  29.351   4.188
32829W        W 3429   5.310   3.960   3.757
32830W        W 3430  37.219  26.660   1.927
32831W        W 3431  41.499  36.187  13.801
32832W        W 3432  25.509   5.252   1.965
32833W        W 3433   8.001  44.758   3.836
32834W        W 3434  31.369  23.018   2.716
32835W        W 3435   6.219  10.836  14.183
32836W        W 3436  29.373  27.716  13.903
32837W        W 3437   7.258  10.909   3.748
32838W        W 3438  41.418  18.158   2.164
32839W        W 3439  19.681  32.500  14.407
32840W        W 3440  16.091  18.666  10.836
32841W        W 3441  43.674  23.201  12.064
32842W        W 3442  15.630  24.680  14.746
32843W        W 3443  32.008  23.675  11.930
32844W        W 3444  37.938  43.447   0.294
32845W        W 3445  36.560   4.638   4.217
32846W        W 3446  13.751   5.718   1.612
32847W        W 3447  11.779  36.368   4.905
32848W        W 3448   0.738  37.830   4.024
32849W        W 3449  42.848  31.081  10.618
32850W        W 3450  18.898  21.204  11.574
32851W        W 3451  40.121  16.225  14.391
32852W        W 3452   1.854  26.682  13.337
32853W        W 3453  42.404  23.107  14.046
32854W        W 3454   1.454   6.949  13.849
32855W        W 3455  23.832  34.759   1.879
32856W        W 3456  23.647  10.116  14.261
32857W        W 3457  30.618  16.679  13.982
32858W        W 3458  11.676  15.481  11.230
32859W        W 3459   6.814  21.899   2.368
32860W        W 3460   0.997  20.170   4.878
32861W        W 3461   7.673  35.363   0.950
32862W        W 3462  19.055  37.076   3.673
32863W        W 3463  40.887  32.080  13.046
32864W        W 3464  12.295  10.353   3.524
32865W        W 3465  20.155  13.237  14.486
32866W        W 3466   3.842  25.663  12.110
32867W        W 3467  21.909  31.006  12.894
32868W        W 3468  41.386  21.137   3.300
32869W        W 3469  37.947  30.830   4.591
32870W        W 3470  39.050  34.645   5.027
32871W        W 3471  37.113  24.500  13.032
32872W        W 3472  32.102   4.899   9.883
32873W        W 3473  16.144  19.595  14.472
32874W        W 3474  18.100  26.440  13.427
32875W        W 3475  15.356  18.674  10.200
32876W        W 3476  30.595  28.208   1.787
32877W        W 3477   1.408  41.016   0.762
32878W        W 3478  43.782  42.348  14.861
32879W        W 3479  38.803  41.875  11.133
32880W        W 3480  13.889  30.548   3.884
32881W        W 3481  15.193  36.947   1.698
32882W        W 3482   8.997  14.373   0.381
32883W        W 3483  32.143   8.783  12.314
32884W        W 3484  13.980  25.239  11.187
32885W        W 3485  44.246  10.783   0.407
32886W        W 3486   9.951  43.796   4.566
32887W        W 3487  26.618  21.836   4.970
32888W        W 3488  22.157  27.909   0.223
32889W        W 3489   9.511  19.151  12.291
32890W        W 3490  35.359  18.385   4.175
32891W        W 3491  44.581  21.792  10.551
32892W        W 3492  28.034  19.877   1.610
32893W        W 3493  37.012  37.435   2.729
32894W        W 3494  11.409  18.279   1.918
32895W        W 3495  27.691  22.040   2.419
32896W        W 3496  11.746  25.435   2.781
32897W        W 3497  26.104  16.369  12.505
32898W        W 3498  33.398  32.107  13.729
32899W        W 3499   4.064  25.073  11.481
32900W        W 3500  10.101   4.026   0.607
32901W        W 3501   0.730   7.412   1.108
32902W        W 3502  13.782  30.721  12.594
32903W        W 3503  33.402  12.604  12.088
32904W        W 3504  13.585  35.067   1.311
32905W        W 3505   1.201  22.149   0.943
32906W        W 3506  22.989  31.576   2.379
32907W        W 3507   7.158   7.462   4.240
32908W        W 3508  20.193   4.023  12.047
32909W        W 3509  19.068  36.507  14.020
32910W        W 3510  14.320  10.389  11.215
32911W        W 3511  15.171  23.277  10.669
32912W        W 3512  10.157   1.503  14.813
32913W        W 3513  32.225  14.316   4.265
32914W        W 3514   3.298   3.429  11.926
32915W        W 3515  10.681  18.181  12.868
32916W        W 3516  34.104  36.067  13.510
32917W        W 3517  15.590   7.453   2.863
32918W        W 3518  40.306  12.109   2.870
32919W        W 3519  10.606  14.108   5.165
32920W        W 3520  33.944  39.864   5.019
32921W        W 3521  14.859   8.883   1.157
32922W        W 3522   7.095  19.671  12.088
32923W        W 3523  16.702  15.215   5.371
32924W        W 3524   2.899  24.766  12.179
32925W        W 3525  16.015  24.610   0.591
32926W        W 3526  13.635   2.066  13.942
32927W        W 3527  14.423  18.622   0.325
32928W        W 3528  28.675   9.205  11.140
32929W        W 3529  43.503  43.966   2.757
32930W        W 3530  40.422  33.957   2.849
32931W        W 3531   7.379  11.438  14.675
32932W        W 3532  29.440  10.923   2.766
32933W        W 3533  31.056  36.717   1.354
32934W        W 3534  44.841  39.122   1.744
32935W        W 3535  25.176  33.821  11.943
32936W        W 3536  44.763  15.327  13.833
32937W        W 3537  39.760   2.073  13.570
32938W        W 3538   0.650  33.535   3.586
32939W        W 3539   5.971  14.808   2.337
32940W        W 3540  31.502  44.016  14.908
32941W        W 3541  38.566  14.771   2.892
32942W        W 3542  22.151  18.768   3.531
32943W        W 3543   4.033  14.563   0.482
32944W        W 3544   3.876   5.292   3.520
32945W        W 3545  23.177   1.809  10.323
32946W        W 3546  37.356  23.092  12.968
32947W        W 3547  26.007  35.117  12.314
32948W        W 3548  16.356  28.188   3.302
32949W        W 3549  34.041  20.174   4.420
32950W        W 3550   3.577  12.346  10.991
32951W        W 3551   4.848  39.264   1.142
32952W        W 3552  15.600   9.473  12.455
32953W        W 3553  36.060  41.399   3.675
32954W        W 3554   1.697  10.368   2.888
32955W        W 3555   4.446   2.222   4.975
32956W        W 3556   7.821  12.363   0.369
32957W        W 3557  18.708  10.809   2.764
32958W        W 3558  39.448  44.416   2.296
32959W        W 3559   6.366   7.764   2.095
32960W        W 3560  27.685  17.449   0.379
32961W        W 3561  20.055  41.569  11.566
32962W        W 3562   6.128  41.796   2.708
32963W        W 3563   0.689  33.211   0.973
32964W        W 3564  25.213  10.494  13.873
32965W        W 3565  42.575  11.216  11.650
32966W        W 3566  36.591  20.126   2.778
32967W        W 3567  21.661  17.823   4.112
32968W        W 3568  31.067  40.233  14.557
32969W        W 3569  23.771   4.707   3.461
32970W        W 3570   0.346  43.745   0.119
32971W        W 3571  16.553   6.241  10.670
32972W        W 3572  10.435  18.785  13.511
32973W        W 3573  38.341   4.581  12.974
32974W        W 3574  24.544  42.516   1.600
32975W        W 3575   3.675  13.679  13.082
32976W        W 3576  14.038   8.541  13.940
32977W        W 3577   8.224  30.458   1.339
32978W        W 3578  23.637  12.814   1.708
32979W        W 3579   2.754  33.632  12.713
32980W        W 3580  26.793   8.283  12.540
32981W        W 3581  37.726  27.259  10.802
32982W        W 3582  40.447  32.518   0.464
32983W        W 3583  17.757  43.382   1.789
32984W        W 3584  19.645  32.497   4.666
32985W        W 3585  21.211   3.344   3.637
32986W        W 3586  13.099  21.765  10.768
32987W        W 3587  16.225  21.261  10.463
32988W        W 3588   3.425  43.807  11.977
32989W        W 3589   1.246  40.392   2.791
32990W        W 3590  11.779  25.226   9.886
32991W        W 3591  35.009  39.579   1.259
32992W        W 3592  39.817  37.781   3.182
32993W        W 3593  13.606   9.089   2.413
32994W        W 3594  15.201   5.921   4.643
32995W        W 3595   7.300  32.456  14.869
32996W        W 3596  18.174  35.557  12.386
32997W        W 3597   6.312  37.182   9.950
32998W        W 3598  40.355   2.439   0.768
32999W        W 3599   0.293  42.675   2.842
33000W        W 3600  24.468  35.038  10.691
33001W        W 3601   6.736  35.171  14.873
33002W        W 3602  18.530  33.703  11.015
33003W        W 3603   9.948  13.151   2.174
33004W        W 3604   8.332   2.795  12.398
33005W        W 3605  19.463   5.866   3.166
33006W        W 3606  33.559  35.454   0.337
33007W        W 3607  38.824  18.126  12.159
33008W        W 3608   1.934   1.234   3.726
33009W        W 3609   4.765   7.161  10.745
33010W        W 3610  20.202  15.771  13.883
33011W        W 3611  43.264  39.432   0.328
33012W        W 3612  36.051  23.911  12.434
33013W        W 3613   1.811  10.920   2.258
33014W        W 3614  23.769   9.314  12.456
33015W        W 3615  15.623  22.592   1.966
33016W        W 3616   9.168  20.588   2.218
33017W        W 3617   7.635  14.993  11.215
33018W        W 3618  14.168  35.046   0.416
33019W        W 3619  23.615  27.232   1.406
33020W        W 3620  12.015  10.115  11.971
33021W        W 3621   0.055  42.402   4.098
33022W        W 3622   6.295   6.971  13.540
33023W        W 3623  36.617  31.211  13.037
33024W        W 3624   8.690  40.068  10.667
33025W        W 3625  10.426  14.541  12.553
33026W        W 3626   0.248  10.338   2.691
33027W        W 3627  26.695   1.926   3.913
33028W        W 3628   3.876  23.738   2.206
33029W        W 3629  12.236   1.367  14.367
33030W        W 3630   1.692   7.159   3.309
33031W        W 3631  22.713  11.851  10.330
33032W        W 3632   5.682  41.950   0.496
33033W        W 3633  32.311  41.564  10.691
33034W        W 3634  27.883   8.627  14.769
33035W        W 3635  43.470   5.000  12.451
33036W        W 3636   4.519  37.403  11.597
33037W        W 3637  11.379  34.547   2.453
33038W        W 3638  18.502  36.532   4.145
33039W        W 3639  42.017  25.615   1.404
33040W        W 3640  23.174  26.790  13.501
33041W        W 3641  22.943   5.757  12.437
33042W        W 3642  34.479  27.433  14.498
33043W        W 3643  39.067  33.622   0.851
33044W        W 3644  37.858  10.756  10.847
33045W        W 3645  39.323  14.344  14.651
33046W        W 3646   8.633   6.332  13.574
33047W        W 3647   5.675  31.499  14.980
33048W        W 3648  27.294  33.916  13.421
33049W        W 3649  21.049  24.999   3.231
33050W        W 3650  20.517  16.766  13.790
33051W        W 3651  29.066  41.432   3.072
33052W        W 3652  32.462  16.622   2.048
33053W        W 3653   3.812  22.638  14.817
33054W        W 3654  37.828  14.307   0.767
33055W        W 3655  34.440  39.745   3.488
33056W        W 3656  12.378  35.390  11.965
33057W        W 3657   4.494  37.992  12.894
33058W        W 3658  44.904  14.902  11.197
33059W        W 3659  19.154  39.531   3.837
33060W        W 3660  42.706  14.500   3.303
33061W        W 3661  29.876  11.845  13.843
33062W        W 3662   1.954  35.585  11.392
33063W        W 3663  26.036  18.782   2.586
33064W        W 3664   8.008   9.831   3.206
33065W        W 3665  34.062  14.215  12.159
33066W        W 3666  10.250  30.649   5.062
33067W        W 3667  15.437  42.376   0.031
33068W        W 3668  39.735  23.616  13.549
33069W        W 3669  35.382  40.059   4.662
33070W        W 3670  32.421  23.064  11.424
33071W        W 3671  28.131  41.052   1.153
33072W        W 3672  11.642  37.889   3.954
33073W        W 3673   2.690  22.191  14.749
33074W        W 3674  34.511  43.934   4.263
33075W        W 3675  33.823  35.971   0.898
33076W        W 3676  29.931   9.073   1.281
33077W        W 3677   3.376  34.963   1.014
33078W        W 3678  23.500  44.416  14.456
33079W        W 3679  19.932  13.105  12.877
33080W        W 3680  19.293  42.499   4.175
33081W        W 3681  13.879  33.478  14.514
33082W        W 3682   5.333  31.677   0.984
33083W        W 3683  17.216   0.412  13.076
33084W        W 3684  41.393  14.407   0.894
33085W        W 3685  13.031  23.366   0.352
33086W        W 3686  35.084   0.553  11.700
33087W        W 3687  37.128  39.363  13.387
33088W        W 3688  23.175   3.693  10.669
33089W        W 3689  35.510  25.553  14.196
33090W        W 3690   7.291  39.892   4.454
33091W        W 3691   0.192  19.309  11.377
33092W        W 3692  18.739  32.328  12.072
33093W        W 3693  34.700   3.333  14.486
33094W        W 3694  10.655  43.452  12.880
33095W        W 3695  10.611  25.561   1.516
33096W        W 3696   9.363  21.041  10.759
33097W        W 3697  34.089  18.473  13.606
33098W        W 3698   3.921  14.650   1.387
33099W        W 3699  40.619  10.376   1.050
33100W        W 3700  36.804  32.231  14.069
33101W        W 3701  33.132  35.396   3.217
33102W        W 3702  21.273   4.935  11.464
33103W        W 3703   5.889  44.456  12.269
33104W        W 3704   6.212  29.110  11.598
33105W        W 3705  11.633  21.569  13.514
33106W        W 3706   9.280  12.383   0.750
33107W        W 3707  44.302   8.843   1.995
33108W        W 3708  36.920  36.772   3.309
33109W        W 3709   4.735  10.181   1.743
33110W        W 3710  44.568   1.113   5.067
33111W        W 3711  35.382  36.158   3.591
33112W        W 3712  40.074  27.341  11.069
33113W        W 3713  42.588  15.271  14.859
33114W        W 3714   0.754  43.259  13.514
33115W        W 3715  33.349  32.449   2.760
33116W        W 3716  28.739  19.488   4.939
33117W        W 3717   7.026   2.351   1.269
33118W        W 3718  38.960   5.962   1.906
33119W        W 3719   0.284  32.104   3.184
33120W        W 3720  15.540  44.043  11.219
33121W        W 3721  22.214   1.053  11.996
33122W        W 3722   1.768   4.493  13.111
33123W        W 3723  14.531  12.222   2.309
33124W        W 3724  25.024  42.685  11.080
33125W        W 3725   3.690  27.982   1.982
33126W        W 3726   6.279  15.169  14.935
33127W        W 3727  36.769  27.486  11.858
33128W        W 3728  13.298  13.604   4.740
33129W        W 3729  14.399  40.605  13.912
33130W        W 3730  18.628  22.404  12.916
33131W        W 3731  28.581  22.558  14.324
33132W        W 3732   3.084  36.036   0.752
33133W        W 3733  36.935  39.881  13.416
33134W        W 3734  41.294  11.530   2.406
33135W        W 3735   5.223  13.748  10.632
33136W        W 3736  17.844  38.970   4.160
33137W        W 3737  30.524  20.987  12.868
33138W        W 3738  35.124   9.655   2.859
33139W        W 3739  36.375   4.961  13.876
33140W        W 3740  35.638  29.049  13.553
33141W        W 3741  24.705  20.603  10.429
33142W        W 3742   8.065   3.819  11.057
33143W        W 3743  13.782  37.106  10.737
33144W        W 3744  15.612  16.691  10.562
33145W        W 3745  12.844  36.396   5.008
33146W        W 3746  19.356  35.053  11.969
33147W        W 3747  16.856  30.641   2.885
33148W        W 3748  39.976  37.213  13.827
33149W        W 3749   6.837  32.999  10.759
33150W        W 3750  11.289  29.953  13.846
33151W        W 3751   6.169   8.551   3.833
33152W        W 3752   8.540  11.385   3.655
33153W        W 3753  31.910  23.932   4.108
33154W        W 3754   5.418  33.455   0.036
33155W        W 3755  11.320  44.467  14.418
33156W        W 3756   2.910  38.845  11.099
33157W        W 3757   0.924   4.340   0.783
33158W        W 3758   8.855  25.679  10.716
33159W        W 3759   9.182  40.210   2.819
33160W        W 3760  15.083  20.080   3.354
33161W        W 3761  26.238  11.251   0.280
33162W        W 3762  20.793  14.160  13.422
33163W        W 3763  32.687  40.459   0.785
33164W        W 3764  17.739   0.374  10.856
33165W        W 3765  19.523   6.798  10.751
33166W        W 3766  38.229  11.507  13.988
33167W        W 3767  22.687   2.910   3.507
33168W        W 3768  18.177  23.242  11.622
33169W        W 3769  43.920  40.143  13.838
33170W        W 3770  33.724   5.676  10.863
33171W        W 3771   8.987  34.838   4.087
33172W        W 3772  30.068  21.000   0.299
33173W        W 3773  35.804  16.288  14.553
33174W        W 3774   1.410  32.470   0.850
33175W        W 3775  34.653  37.931  14.622
33176W        W 3776  35.058   1.839   1.820
33177W        W 3777  24.219  29.867   3.143
33178W        W 3778   2.744  11.140   4.485
33179W        W 3779  38.856  16.678  10.936
33180W        W 3780  17.102   4.395  14.609
33181W        W 3781  27.297  34.086  14.465
33182W        W 3782   5.378  17.191   3.151
33183W        W 3783  13.677  39.619  11.426
33184W        W 3784  16.847  22.892   0.433
33185W        W 3785  43.182  19.853   0.731
33186W        W 3786  10.774  33.995   4.134
33187W        W 3787  26.163   9.813  14.504
33188W        W 3788  19.337  42.694  14.726
33189W        W 3789  38.988  33.043  13.461
33190W        W 3790   4.643  40.939  12.601
33191W        W 3791  21.838   5.229  14.827
33192W        W 3792   2.235  33.615   0.546
33193W        W 3793  18.984  37.758   2.865
33194W        W 3794  37.347  25.642  14.319
33195W        W 3795  24.794  13.139   2.623
33196W        W 3796  15.169   5.173   4.132
33197W        W 3797  29.927  44.448   3.574
33198W        W 3798  44.751  12.244  10.734
33199W        W 3799  16.051   4.360  13.564
33200W        W 3800  16.333  19.179   3.275
33201W        W 3801  29.490   0.356   3.834
33202W        W 3802  12.625  14.747   3.069
33203W        W 3803  42.929  30.389  13.402
33204W        W 3804  27.456  29.950   4.745
33205W        W 3805  11.599  15.575   3.252
33206W        W 3806  10.495  43.354   1.393
33207W        W 3807  31.744   3.950   2.323
33208W        W 3808  44.444  20.567   3.651
33209W        W 3809  15.233   4.823   1.238
33210W        W 3810  26.554  38.513  11.554
33211W        W 3811   0.308  16.289  12.817
33212W        W 3812  36.203  44.186  11.047
33213W        W 3813  39.006  18.992   0.769
33214W        W 3814  12.423  42.546   2.350
33215W        W 3815  16.321   2.789   1.688
33216W        W 3816   0.290  18.657  12.037
33217W        W 3817  13.583  16.586  11.640
33218W        W 3818  41.009  11.854  11.013
33219W        W 3819   9.313   0.749   4.559
33220W        W 3820  29.670   2.407   2.397
33221W        W 3821  20.828  16.150   0.347
33222W        W 3822  30.438  38.104   0.433
33223W        W 3823  23.726  42.403  14.322
33224W        W 3824   3.934  35.268   2.805
33225W        W 3825  35.393   6.311  10.587
33226W        W 3826  43.573  39.448   3.043
33227W        W 3827  31.062  38.011  10.661
33228W        W 3828  22.778  34.554   3.867
33229W        W 3829  34.954  36.570   4.157
33230W        W 3830  25.626  26.992   3.201
33231W        W 3831  29.387  13.035  10.611
33232W        W 3832  44.386  23.312  13.992
33233W        W 3833  29.251  36.047   3.629
33234W        W 3834   5.542  11.860   1.666
33235W        W 3835  26.236  11.599   1.756
33236W        W 3836  17.304  17.628  11.700
33237W        W 3837  44.887   6.912  11.625
33238W        W 3838  38.122  28.085   9.984
33239W        W 3839   9.791  31.575   1.796
33240W        W 3840   9.997  38.034  14.820
33241W        W 3841  10.248  44.400   3.537
33242W        W 3842  26.425  43.131  14.814
33243W        W 3843  32.987  21.941  10.432
33244W        W 3844   1.672  34.777  14.752
33245W        W 3845   3.187  31.460   0.771
33246W        W 3846  25.696  21.942   2.248
33247W        W 3847  39.830  44.009   1.181
33248W        W 3848  43.890  20.029   4.123
33249W        W 3849  41.051  30.183   3.348
33250W        W 3850  28.932  18.298  13.128
33251W        W 3851  26.174  40.306  11.225
33252W        W 3852  35.196  28.163  14.278
33253W        W 3853  43.139  11.668   1.326
33254W        W 3854  39.519  12.358   3.610
33255W        W 3855  41.359  11.148  14.228
33256W        W 3856  12.785  12.648  13.042
33257W        W 3857  36.158  33.940  13.287
33258W        W 3858  13.447  21.175   3.143
33259W        W 3859  10.245  43.907  14.690
33260W        W 3860  10.224  33.797   4.173
33261W        W 3861  20.063  31.624  14.188
33262W        W 3862   4.699  22.043  10.659
33263W        W 3863  41.195   8.705  12.339
33264W        W 3864   3.248  24.177  11.991
33265W        W 3865  33.615  33.588  13.065
33266W        W 3866  22.251  43.799   2.300
33267W        W 3867   8.383   4.785  14.777
33268W        W 3868  11.802  22.604   0.888
33269W        W 3869  40.441   7.330  13.352
33270W        W 3870  17.683  15.317  11.625
33271W        W 3871   2.145  36.610  12.016
33272W        W 3872  25.202  30.835  11.186
33273W        W 3873  29.396   0.199  13.525
33274W        W 3874  40.045  26.442  14.479
33275W        W 3875  34.912  38.983  13.696
33276W        W 3876  26.952  10.815   4.834
33277W        W 3877  17.157  19.775  10.611
33278W        W 3878   9.156   0.856  14.360
33279W        W 3879  21.956   5.726   3.177
33280W        W 3880  37.890  25.714   3.737
33281W        W 3881  10.207  22.280   4.229
33282W        W 3882  21.204  27.616   0.473
33283W        W 3883  13.354  40.615  14.551
33284W        W 3884  42.767   6.447   0.489
33285W        W 3885  13.631   8.241   4.292
33286W        W 3886   1.822  40.443   3.869
33287W        W 3887  31.119  40.311   0.070
33288W        W 3888  13.089   3.700   0.441
33289W        W 3889  11.312   9.438   4.496
33290W        W 3890  37.116  43.896  13.945
33291W        W 3891   2.118   9.153  13.614
33292W        W 3892  38.883  21.041   2.656
33293W        W 3893  40.016   1.214   3.607
33294W        W 3894  38.248  10.708   3.867
33295W        W 3895  29.403   9.168  11.609
33296W        W 3896  14.632  27.893   1.163
33297W        W 3897   8.896  21.110   0.927
33298W        W 3898  42.039  29.358  10.015
33299W        W 3899  26.704  36.052  12.931
33300W        W 3900   1.370  23.779   3.731
33301W        W 3901  12.145  26.457  12.032
33302W        W 3902  24.199  40.813  13.991
33303W        W 3903   6.394  33.822  12.696
33304W        W 3904   2.506  44.550   3.899
33305W        W 3905  35.213   5.664   1.283
33306W        W 3906  37.954  11.169   0.230
33307W        W 3907  11.811  24.555  14.787
33308W        W 3908   9.684  24.066  12.252
33309W        W 3909  36.645  26.178   3.611
33310W        W 3910  34.518  14.410  14.852
33311W        W 3911  14.505  18.912   0.765
33312W        W 3912  33.935  42.335   0.817
33313W        W 3913  11.845  34.320  13.033
33314W        W 3914   7.428   6.453  13.740
33315W        W 3915   4.606  18.288   4.982
33316W        W 3916  21.507   7.526  13.343
33317W        W 3917   7.174  15.576  14.697
33318W        W 3918  36.616  27.071   2.184
33319W        W 3919  42.520  15.271   0.803
33320W        W 3920  30.538  42.471  11.210
33321W        W 3921  18.428  35.852  11.580
33322W        W 3922  24.638  16.324  13.416
33323W        W 3923  33.390   0.587  11.617
33324W        W 3924  26.238  23.245   1.369
33325W        W 3925  16.959  34.360  14.252
33326W        W 3926  15.510   5.164  10.622
33327W        W 3927  10.201  36.942   2.648
33328W        W 3928  19.607   5.084   1.172
33329W        W 3929   6.231  41.891  11.811
33330W        W 3930  36.472  41.595   4.013
33331W        W 3931   6.387  11.326   4.116
33332W        W 3932  27.423   8.145   3.177
33333W        W 3933  33.404   7.358   2.859
33334W        W 3934   7.345  18.214  14.887
33335W        W 3935  15.528  42.897  12.466
33336W        W 3936  24.624  24.570  11.108
33337W        W 3937   9.134  14.807  11.879
33338W        W 3938   2.713  16.224   2.224
33339W        W 3939  41.471  14.550   2.156
33340W        W 3940   3.293  35.239  12.034
33341W        W 3941  33.510  10.646  12.522
33342W        W 3942  10.098  24.221   2.660
33343W        W 3943  18.992  21.870   2.698
33344W        W 3944   3.433  23.027  13.612
33345W        W 3945  26.095  44.313   1.247
33346W        W 3946  41.870  16.365  14.679
33347W        W 3947  28.798  41.561  12.958
33348W        W 3948   5.113  16.685  10.009
33349W        W 3949  14.575  19.778  11.702
33350W        W 3950   7.669  35.514  14.523
33351W        W 3951   3.821  10.787  12.437
33352W        W 3952  43.435   9.861  11.652
33353W        W 3953  41.410  29.432  13.050
33354W        W 3954  31.669   0.613   0.008
33355W        W 3955  28.211  24.488  11.655
33356W        W 3956  32.412   1.306   0.942
33357W        W 3957  33.496  42.533  10.437
33358W        W 3958  23.489  21.854  14.526
33359W        W 3959  29.489  18.682  12.090
33360W        W 3960   7.413  32.543  13.358
33361W        W 3961   2.786  31.648   4.581
33362W        W 3962   1.736   0.741   1.908
33363W        W 3963  16.340  41.617  11.990
33364W        W 3964  30.562  26.682   1.917
33365W        W 3965  10.013  43.500  11.603
33366W        W 3966   0.312  19.845  13.436
33367W        W 3967   6.289  25.978  14.020
33368W        W 3968   6.313   2.316  13.796
33369W        W 3969  35.649   1.366  12.082
33370W        W 3970  27.044  25.679  11.608
33371W        W 3971  24.206  32.201   3.377
33372W        W 3972  42.384  30.436   4.615
33373W        W 3973  12.984  14.141  12.070
33374W        W 3974  33.477  18.724   0.310
33375W        W 3975  39.937   8.372   1.944
33376W        W 3976   9.097  20.134  14.341
33377W        W 3977  37.333  33.344  14.353
33378W        W 3978   2.998  44.493   1.485
33379W        W 3979  42.874  22.205  14.875
33380W        W 3980  30.843  44.184  14.340
33381W        W 3981  19.454  24.490  10.653
33382W        W 3982   4.848   3.364   4.167
33383W        W 3983  17.087   1.445   2.276
33384W        W 3984  38.573  33.321  12.962
33385W        W 3985  26.782   0.709  12.472
33386W        W 3986  28.597  21.177  14.361
33387W        W 3987  40.311  27.644   3.219
33388W        W 3988  23.802  11.265  13.371
33389W        W 3989   9.341  25.048  13.100
33390W        W 3990  30.148   9.119   4.505
33391W        W 3991  43.893   4.626  13.012
33392W        W 3992  26.065   2.400   0.587
33393W        W 3993   1.318   2.525   3.293
33394W        W 3994  23.646  28.196  12.126
33395W        W 3995  35.469  37.396  14.724
33396W        W 3996  19.805  11.705   2.826
33397W        W 3997  31.536   6.673   2.938
33398W        W 3998  17.163   9.223   4.590
33399W        W 3999   0.441  19.419   1.320
33400W        W 4000   7.582   7.675   3.351
33401W        W 4001  36.048  41.279   4.798
33402W        W 4002  31.810  15.154  12.006
33403W        W 4003  41.728  10.190   4.637
33404W        W 4004  20.577   0.238   1.334
33405W        W 4005  18.182  35.645   4.487
33406W        W 4006  40.481  18.679   3.915
33407W        W 4007  15.338   8.768  12.472
33408W        W 4008  28.123  35.892  11.266
33409W        W 4009  12.435  16.680   2.126
33410W        W 4010   1.343  27.463  11.931
33411W        W 4011  31.521   5.182  14.001
33412W        W 4012   9.296   9.198  13.028
33413W        W 4013   0.679   6.222  13.723
33414W        W 4014  21.882   3.351   3.166
33415W        W 4015   0.967   4.083  11.279
33416W        W 4016   9.841   5.350   0.964
33417W        W 4017  20.769  19.321   1.329
33418W        W 4018  34.817  38.797   4.972
33419W        W 4019  42.482  42.504   1.356
33420W        W 4020  10.821  36.004  10.696
33421W        W 4021  24.144   5.541  10.303
33422W        W 4022  26.308   1.761  13.068
33423W        W 4023   0.862  11.313  13.698
33424W        W 4024  17.212   9.942  11.594
33425W        W 4025  20.064  21.809  14.366
33426W        W 4026  14.713  23.047  10.829
33427W        W 4027  18.812  12.383  13.415
33428W        W 4028  39.393   1.509   0.381
33429W        W 4029  31.165  31.038  11.113
33430W        W 4030   2.296  28.912  12.432
33431W        W 4031  38.410  42.423  13.271
33432W        W 4032   9.067  18.793   3.227
33433W        W 4033  31.946  22.225  14.446
33434W        W 4034  23.857  25.321  11.015
33435W        W 4035  15.667  23.572   1.033
33436W        W 4036  17.520  20.226  12.970
33437W        W 4037  10.011  41.294   2.358
33438W        W 4038  26.483  32.668  11.140
33439W        W 4039  14.032   1.958  10.789
33440W        W 4040  44.492  15.329  14.901
33441W        W 4041   8.950  17.722   3.193
33442W        W 4042  35.854  37.590  11.648
33443W        W 4043  17.340   9.131   0.344
33444W        W 4044  18.594  21.347  12.445
33445W        W 4045  35.345   3.152  12.058
33446W        W 4046  28.981  40.457  13.733
33447W        W 4047  37.081   7.296  14.311
33448W        W 4048  25.569  16.292   4.972
33449W        W 4049  31.844   2.778  13.234
33450W        W 4050   4.473  21.120  13.863
33451W        W 4051  10.198  41.061   4.657
33452W        W 4052  35.413  15.662   2.765
33453W        W 4053   8.831   1.515  12.443
33454W        W 4054   7.384  14.868   1.349
33455W        W 4055  41.044  28.185   2.938
33456W        W 4056  15.128  10.816   4.568
33457W        W 4057  38.881  12.261   3.187
33458W        W 4058  20.570  30.547  12.159
33459W        W 4059  10.591   8.260  14.978
33460W        W 4060  33.996  37.313   1.234
33461W        W 4061  43.393  39.575  14.514
33462W        W 4062  28.452  23.033  12.079
33463W        W 4063  17.506  24.008  14.881
33464W        W 4064  39.320  30.735  13.483
33465W        W 4065  33.627  15.345  10.688
33466W        W 4066  15.825   5.464  13.936
33467W        W 4067   2.485  17.297   4.156
33468W        W 4068  20.650  21.297   0.916
33469W        W 4069   3.764  10.326  14.327
33470W        W 4070  30.493  36.889  14.795
33471W        W 4071   5.329  43.946   0.807
33472W        W 4072   3.159  25.039  14.002
33473W        W 4073  30.854  19.625  10.890
33474W        W 4074  17.319  40.847  14.079
33475W        W 4075  33.999  20.792   0.058
33476W        W 4076  43.843  41.611  13.906
33477W        W 4077   5.433  23.268   3.172
33478W        W 4078  14.316  26.747   3.181
33479W        W 4079  14.654   3.139   3.263
33480W        W 4080   5.281  41.699  12.976
33481W        W 4081  38.480  28.468   0.872
33482W        W 4082  44.524  16.839  12.983
33483W        W 4083  18.996  29.104  12.137
33484W        W 4084   8.746  42.381   2.290
33485W        W 4085  15.081  35.984  14.401
33486W        W 4086   3.617  35.669   2.641
33487W        W 4087  40.495   3.349  14.267
33488W        W 4088  44.955   9.877  10.400
33489W        W 4089  39.949   9.715   0.467
33490W        W 4090  37.029   0.403   2.252
33491W        W 4091  33.125  21.219  13.728
33492W        W 4092   2.517   2.337   3.692
33493W        W 4093  27.062  12.046   0.775
33494W        W 4094  16.770  34.830   3.134
33495W        W 4095  40.793   7.721   1.269
33496W        W 4096  12.106  25.913   0.629
33497W        W 4097  20.247  11.158  13.011
33498W        W 4098   7.214  27.541   0.241
33499W        W 4099  44.340  33.551   3.662
33500W        W 4100  16.529   6.750   2.175
33501W        W 4101  26.125  29.589   3.830
33502W        W 4102  37.959  38.532  14.811
33503W        W 4103  18.598  14.498  10.451
33504W        W 4104  26.049  10.872   4.619
33505W        W 4105  32.995  13.369   1.702
33506W        W 4106  32.390  13.204  12.034
33507W        W 4107  24.075  23.890  11.913
33508W        W 4108  21.552  21.234  12.020
33509W        W 4109   2.353  43.264  10.834
33510W        W 4110   5.524  36.628  14.329
33511W        W 4111  10.616  30.514  12.892
33512W        W 4112   0.113   5.327   2.804
33513W        W 4113  24.441  41.020  14.996
33514W        W 4114  25.241  33.721   0.734
33515W        W 4115  42.337  44.502  13.875
33516W        W 4116  35.940  24.460  11.057
33517W        W 4117  28.087  39.397   1.192
33518W        W 4118  13.728  17.994  11.618
33519W        W 4119  37.232  25.079   1.744
33520W        W 4120  31.927   2.984   2.752
33521W        W 4121  38.624   4.858   2.740
33522W        W 4122  41.325  39.096  11.409
33523W        W 4123  38.305  14.194  12.839
33524W        W 4124  15.110  28.800   4.173
33525W        W 4125  33.229  39.695   0.891
33526W        W 4126  27.509  34.552  12.981
33527W        W 4127  27.171   2.705  14.498
33528W        W 4128  18.105  31.033  10.569
33529W        W 4129  13.797  44.572   4.181
33530W        W 4130  24.511  36.902   4.339
33531W        W 4131   9.213  28.721   1.719
33532W        W 4132  31.353  21.875  13.889
33533W        W 4133  14.548  42.963   4.202
33534W        W 4134  32.920  18.884  14.434
33535W        W 4135   1.032  29.608  12.747
33536W        W 4136  41.031  25.714   3.790
33537W        W 4137   4.282  38.727   1.916
33538W        W 4138  20.132   5.917   4.714
33539W        W 4139   4.402  17.270  12.060
33540W        W 4140  15.694  30.637  14.503
33541W        W 4141  12.250  40.741   3.041
33542W        W 4142   8.632  33.384   5.096
33543W        W 4143   6.210  42.379  11.652
33544W        W 4144   6.929  29.462  10.543
33545W        W 4145  40.182  38.547  13.934
33546W        W 4146   1.489  26.650   3.093
33547W        W 4147   8.067   8.246   1.001
33548W        W 4148  24.056  19.789  14.845
33549W        W 4149  36.646  39.202  13.403
33550W        W 4150  34.132  10.333  14.382
33551W        W 4151  41.400  40.563  14.744
33552W        W 4152  38.695  23.646  13.964
33553W        W 4153  17.409  22.209  13.979
33554W        W 4154   4.459  37.009  12.008
33555W        W 4155  40.806  26.520  12.922
33556W        W 4156  23.646   4.651   2.966
33557W        W 4157  28.165  43.538   1.340
33558W        W 4158  39.266  16.845   1.881
33559W        W 4159  42.433  19.234  14.537
33560W        W 4160  27.435  13.649  12.415
33561W        W 4161  22.375  10.011   0.764
33562W        W 4162  34.464  18.804   1.316
33563W        W 4163  38.745  10.635  13.220
33564W        W 4164  22.720  37.922  12.838
33565W        W 4165  22.687  30.150   1.145
33566W        W 4166  44.769  15.094  12.102
33567W        W 4167  39.358  42.404   3.287
33568W        W 4168  15.151  42.069  13.875
33569W        W 4169  30.125  16.623  12.817
33570W        W 4170  10.313   3.561  14.049
33571W        W 4171  41.155  38.887   0.610
33572W        W 4172   6.028  36.530  10.715
33573W        W 4173  33.515  21.678  12.120
33574W        W 4174  20.477  28.898  11.432
33575W        W 4175  35.311  35.218   0.924
33576W        W 4176  34.095  39.371  14.882
33577W        W 4177  43.994  35.116   1.488
33578W        W 4178  12.462  29.102  14.091
33579W        W 4179  17.825  31.427  13.365
33580W        W 4180  22.587  42.282  14.839
33581W        W 4181  41.405  32.998   2.743
33582W        W 4182  43.391  41.602   3.877
33583W        W 4183  17.150  41.824   4.562
33584W        W 4184   6.827   4.205  13.542
33585W        W 4185  38.383   0.501   0.542
33586W        W 4186  32.566   7.941  13.231
33587W        W 4187  10.155  43.467   0.393
33588W        W 4188  22.287  16.311   1.772
33589W        W 4189  13.556  28.433  12.403
33590W        W 4190   1.307  39.235  12.572
33591W        W 4191  42.513   8.281  11.193
33592W        W 4192  18.706   6.415   1.314
33593W        W 4193  12.699  18.826   2.931
33594W        W 4194  33.677  26.269  13.354
33595W        W 4195   4.457  10.028  11.034
33596W        W 4196   2.364  30.231   4.935
33597W        W 4197  37.654  23.618  13.823
33598W        W 4198  13.357   3.439   4.085
33599W        W 4199  30.343  41.095  12.500
33600W        W 4200  16.268  27.542  14.954
33601W        W 4201  20.492  13.145  11.180
33602W        W 4202  40.029  22.858  12.163
33603W        W 4203  37.079  17.801   3.240
33604W        W 4204  17.616  27.545   3.410
33605W        W 4205   8.397  42.657   0.379
33606W        W 4206  37.295  10.962   4.586
33607W        W 4207  28.031   1.817   0.720
33608W        W 4208  44.519  11.904  10.420
33609W        W 4209  21.680  29.473  12.993
33610W        W 4210  17.168  44.898   3.257
33611W        W 4211  33.960  34.580  14.360
33612W        W 4212  16.635  25.430   3.194
33613W        W 4213  29.046  34.225   0.751
33614W        W 4214   2.467  24.012  14.375
33615W        W 4215  26.933  31.114  12.988
33616W        W 4216  14.046  41.411  11.575
33617W        W 4217  34.550  19.328  12.916
33618W        W 4218  44.230  44.087   3.853
33619W        W 4219  20.816   0.110   3.527
33620W        W 4220  22.255  30.308   0.422
33621W        W 4221  41.676  34.322  11.994
33622W        W 4222  22.475   3.052   4.421
33623W        W 4223  35.669  32.574  12.446
33624W        W 4224   0.469  18.908   1.163
33625W        W 4225  15.066   9.196   3.708
33626W        W 4226  32.964  12.586  12.423
33627W        W 4227  16.298   1.875   2.410
33628W        W 4228  20.716  10.683  11.867
33629W        W 4229   5.252  34.348   2.745
33630W        W 4230  28.557  18.790  13.923
33631W        W 4231  22.710   9.672  13.809
33632W        W 4232  32.354   2.822  13.053
33633W        W 4233  44.430  21.231  10.943
33634W        W 4234  25.227  32.234   3.387
33635W        W 4235  30.485  40.007  13.508
33636W        W 4236   8.705   1.031  13.469
33637W        W 4237  44.272   8.731  11.251
33638W        W 4238  35.651  36.062  13.373
33639W        W 4239  32.901  21.287   2.162
33640W        W 4240  40.350   6.984   2.236
33641W        W 4241  28.546  39.050   3.351
33642W        W 4242   6.645  28.444  10.650
33643W        W 4243   9.231   4.323  11.609
33644W        W 4244  36.913   3.890  10.486
33645W        W 4245  21.675  15.737  11.511
33646W        W 4246  39.939  34.235  12.487
33647W        W 4247  18.492  38.150  13.486
33648W        W 4248  18.178   2.954  13.919
33649W        W 4249  41.150  10.653   2.623
33650W        W 4250  33.099  31.247  12.375
33651W        W 4251   0.820  22.122   4.681
33652W        W 4252  20.235  20.766  12.898
33653W        W 4253  30.194  36.818   0.261
33654W        W 4254  44.314  40.338   4.393
33655W        W 4255  26.153  12.704   4.371
33656W        W 4256  36.775  22.285   1.757
33657W        W 4257  29.055  31.963  11.080
33658W        W 4258  16.784   6.474  14.923
33659W        W 4259  26.027   2.387   2.358
33660W        W 4260  15.206  33.830   1.377
33661W        W 4261  22.508  21.289  14.396
33662W        W 4262  34.496  11.869   2.848
33663W        W 4263  12.806  17.774   3.819
33664W        W 4264   0.177  31.130   2.116
33665W        W 4265   6.053   4.911   3.141
33666W        W 4266  30.395  11.412   3.213
33667W        W 4267  34.265  23.133   1.368
33668W        W 4268  40.315  41.580  14.461
33669W        W 4269  38.555   8.589   2.342
33670W        W 4270   1.911  43.614  12.073
33671W        W 4271  28.882  35.051  14.417
33672W        W 4272   2.238  42.100   0.058
33673W        W 4273  39.848  25.611  11.625
33674W        W 4274  23.499  35.788   0.484
33675W        W 4275  41.341   7.425  11.639
33676W        W 4276  36.838   8.192  10.740
33677W        W 4277  40.536   1.426   1.750
33678W        W 4278  33.215  14.648   0.091
33679W        W 4279  44.355  44.476   1.237
33680W        W 4280  29.959  38.268   4.912
33681W        W 4281  44.975   9.249  12.463
33682W        W 4282  26.618  28.809  11.769
33683W        W 4283  44.872  16.998  12.632
33684W        W 4284  19.722  26.000   0.672
33685W        W 4285  13.021  17.571   1.424
33686W        W 4286  24.979  17.309  11.448
33687W        W 4287  10.897   8.379  14.132
33688W        W 4288   8.414   2.159   0.768
33689W        W 4289  12.531   0.038   4.005
33690W        W 4290   0.428  38.006  12.086
33691W        W 4291  44.366  32.386  10.243
33692W        W 4292  38.084  22.546   2.177
33693W        W 4293  22.601  41.663  10.596
33694W        W 4294   7.319  20.890   0.454
33695W        W 4295  15.065   4.372   2.957
33696W        W 4296  26.707  42.803  10.700
33697W        W 4297   4.432  25.660  10.844
33698W        W 4298  39.451  30.836  14.830
33699W        W 4299  36.027  15.135  14.547
33700W        W 4300   0.456  11.501   0.332
33701W        W 4301  40.389  36.264   4.848
33702W        W 4302  13.104  13.870   4.295
33703W        W 4303   4.222  38.404  13.002
33704W        W 4304  14.221  38.067  14.824
33705W        W 4305  36.451  15.036  13.640
33706W        W 4306  36.061  34.868   3.677
33707W        W 4307  18.726  30.956   3.762
33708W        W 4308  34.383  22.891  11.427
33709W        W 4309  28.642   8.268  14.293
33710W        W 4310  34.858   3.935  10.497
33711W        W 4311   0.859  11.666  10.261
33712W        W 4312  10.083  35.946   2.582
33713W        W 4313  13.072  37.635  14.564
33714W        W 4314  11.721   7.215  10.772
33715W        W 4315  25.751   9.206   3.001
33716W        W 4316  28.560  44.372   1.305
33717W        W 4317  29.539  40.159   3.519
33718W        W 4318  34.334  35.439   3.625
33719W        W 4319  36.192  16.566  12.917
33720W        W 4320  22.980  42.892   0.923
33721W        W 4321  33.676  24.951   4.154
33722W        W 4322  29.030  35.587   1.303
33723W        W 4323  40.341  23.251  14.380
33724W        W 4324  28.109   9.011  10.878
33725W        W 4325   4.216  24.413   0.961
33726W        W 4326  22.523  23.733  12.876
33727W        W 4327  23.767   5.739  12.120
33728W        W 4328  12.641   7.680  11.588
33729W        W 4329  38.862   7.608   1.516
33730W        W 4330  12.681  39.253   2.274
33731W        W 4331   6.295  44.830  11.170
33732W        W 4332   5.372  20.944   3.264
33733W        W 4333  24.602  14.278   0.910
33734W        W 4334  14.361  43.812  14.003
33735W        W 4335  33.773  33.026  14.860
33736W        W 4336  39.420  13.275  13.557
33737W        W 4337  18.960   9.633  11.050
33738W        W 4338  21.962  28.094  12.513
33739W        W 4339  22.614   5.402   4.692
33740W        W 4340   8.124  36.937   3.821
33741W        W 4341  20.355   3.004  12.482
33742W        W 4342  39.950  14.612  14.495
33743W        W 4343  33.702  12.198   2.248
33744W        W 4344   0.691   6.798  13.941
33745W        W 4345  29.350  23.072   3.690
33746W        W 4346  33.404  29.466  13.006
33747W        W 4347   8.363  26.070  12.601
33748W        W 4348  42.025  13.612   3.661
33749W        W 4349  28.781  30.454   1.768
33750W        W 4350  40.041  11.330   3.812
33751W        W 4351  24.203  12.279   2.772
33752W        W 4352  20.548  40.400   1.357
33753W        W 4353  39.224  41.589  10.442
33754W        W 4354   5.620   7.687   2.592
33755W        W 4355  26.074  10.680  10.652
33756W        W 4356  37.858  23.196   3.831
33757W        W 4357  17.551  39.159  12.890
33758W        W 4358  24.080   9.716  10.607
33759W        W 4359  13.908  24.726   4.124
33760W        W 4360  40.062  38.484  11.462
33761W        W 4361  13.153   1.681  12.613
33762W        W 4362  37.416   6.266   3.771
33763W        W 4363  23.224   6.703   4.100
33764W        W 4364  29.089  26.615  14.631
33765W        W 4365  19.783   8.902  10.620
33766W        W 4366  21.287   0.902  12.046
33767W        W 4367   8.750   0.328   0.810
33768W        W 4368  11.047  16.187  13.804
33769W        W 4369  34.559  14.713   0.342
33770W        W 4370   4.087  29.270   2.621
33771W        W 4371   2.658  35.520   4.313
33772W        W 4372   3.232   8.865   2.771
33773W        W 4373  29.225  22.427   2.215
33774W        W 4374  41.503  31.147   2.152
33775W        W 4375  27.848  27.527  11.849
33776W        W 4376  31.624  32.131  13.922
33777W        W 4377  11.838  28.480  12.054
33778W        W 4378  20.471  27.678   1.869
33779W        W 4379   3.687  39.985  11.077
33780W        W 4380   4.723   0.994   9.980
33781W        W 4381  33.557  20.839   4.575
33782W        W 4382  34.595   7.848   2.741
33783W        W 4383  17.560   0.190   0.856
33784W        W 4384  18.057   7.607   1.823
33785W        W 4385   7.216  17.563   1.461
33786W        W 4386  12.807   5.933   3.165
33787W        W 4387   7.038  34.575   1.739
33788W        W 4388  16.761  15.697   0.923
33789W        W 4389  42.547   6.306  14.547
33790W        W 4390   7.818   6.447   1.249
33791W        W 4391  25.448  18.309  10.605
33792W        W 4392  10.088   7.651  14.919
33793W        W 4393  16.529  22.998   3.303
33794W        W 4394  34.918  10.291  13.847
33795W        W 4395   0.781  16.140  13.985
33796W        W 4396  10.023  39.647  11.478
33797W        W 4397  24.165  11.341   2.672
33798W        W 4398  13.344  38.344  13.383
33799W        W 4399  36.035  33.327  12.430
33800W        W 4400   8.674  21.983   4.128
33801W        W 4401   3.185  38.035  12.510
33802W        W 4402   6.384  25.245   2.449
33803W        W 4403   8.958  25.573   0.701
33804W        W 4404  17.003  41.859   1.797
33805W        W 4405  26.505  33.353  14.543
33806W        W 4406  17.695  35.081  14.354
33807W        W 4407  44.483  10.764  13.534
33808W        W 4408  17.622  32.147   1.066
33809W        W 4409  42.714  23.603  10.640
33810W        W 4410  34.598  42.796  11.202
33811W        W 4411  17.405  12.144  11.357
33812W        W 4412  29.909   9.715   2.493
33813W        W 4413   0.223  43.848  11.124
33814W        W 4414  36.286  30.446   2.617
33815W        W 4415  12.842  34.571  12.398
33816W        W 4416  24.262  39.098   4.120
33817W        W 4417  44.661   1.393   4.183
33818W        W 4418  13.105  28.682   2.873
33819W        W 4419  42.674  21.145   2.862
33820W        W 4420   8.294  18.976  11.091
33821W        W 4421  35.724  30.138  13.803
33822W        W 4422  30.515   0.861  13.327
33823W        W 4423  32.797  43.524  13.070
33824W        W 4424  16.194   6.286   3.758
33825W        W 4425  14.910  44.791  11.581
33826W        W 4426  31.507  11.345   2.931
33827W        W 4427  13.627  16.157   4.701
33828W        W 4428   7.266  31.511   3.283
33829W        W 4429  29.591  36.971  11.155
33830W        W 4430  30.453   5.768  11.580
33831W        W 4431  19.598   1.451  13.151
33832W        W 4432   4.681  39.378   1.834
33833W        W 4433  37.073  27.971  12.996
33834W        W 4434  22.316  14.868  14.297
33835W        W 4435  29.561  22.439   4.787
33836W        W 4436  35.132  33.324   5.013
33837W        W 4437   7.889  12.151   3.901
33838W        W 4438  16.364  13.861   1.415
33839W        W 4439  22.690  21.674   1.910
33840W        W 4440  27.080  43.593   3.183
33841W        W 4441   0.736  28.505  13.273
33842W        W 4442   9.928  23.763   0.394
33843W        W 4443  40.101  10.839   3.053
33844W        W 4444  37.604  36.992  13.044
33845W        W 4445   9.574  18.471  14.972
33846W        W 4446  26.044   1.388  13.792
33847W        W 4447   6.818  35.704  13.798
33848W        W 4448   0.193  36.907   0.368
33849W        W 4449   5.921   0.212  11.039
33850W        W 4450  17.184   2.217   4.399
33851W        W 4451  43.108  23.640  11.440
33852W        W 4452  30.030   6.806  12.630
33853W        W 4453  27.743  26.467   2.693
33854W        W 4454  22.621  35.861  13.973
33855W        W 4455  40.862  11.903  13.256
33856W        W 4456  35.297  38.634  11.461
33857W        W 4457  30.465  38.262   4.825
33858W        W 4458  14.592  43.578  12.984
33859W        W 4459  34.542  30.570  12.370
33860W        W 4460  22.575  20.508  13.960
33861W        W 4461   5.748   4.276   2.606
33862W        W 4462   2.786  32.346  14.304
33863W        W 4463  34.314  42.965   4.517
33864W        W 4464   0.727  32.193  10.667
33865W        W 4465   3.900  34.115   1.923
33866W        W 4466  15.139  29.672   3.605
33867W        W 4467  20.681  43.824   9.975
33868W        W 4468  28.867  17.158  13.958
33869W        W 4469  15.168  32.534   0.648
33870W        W 4470  13.497   7.762   2.201
33871W        W 4471  43.826  23.034   2.098
33872W        W 4472  22.188  39.693  11.651
33873W        W 4473  27.979   1.300   4.539
33874W        W 4474  40.109  17.125   4.151
33875W        W 4475  36.575  14.200  14.105
33876W        W 4476  29.382   7.222  11.611
33877W        W 4477   6.863  13.938  13.644
33878W        W 4478   1.223  16.846  12.517
33879W        W 4479  25.349  20.750  13.538
33880W        W 4480  33.683  11.602   2.348
33881W        W 4481   1.100  28.729  11.906
33882W        W 4482  36.790  10.711  10.745
33883W        W 4483   9.381   7.907  12.343
33884W        W 4484   5.335  16.120   2.261
33885W        W 4485   8.941  35.815   1.237
33886W        W 4486  15.312   8.527  12.937
33887W        W 4487   3.774   2.186  11.575
33888W        W 4488  12.576  33.160   2.112
33889W        W 4489  41.806  34.700  12.951
33890W        W 4490  12.472  24.071   1.388
33891W        W 4491  37.759   2.394   1.237
33892W        W 4492  22.305  11.196  13.381
33893W        W 4493  26.530  34.954  11.637
33894W        W 4494   0.230  29.057   3.737
33895W        W 4495  38.767  43.848   1.225
33896W        W 4496  11.827  29.994  13.846
33897W        W 4497  10.736  23.324   3.803
33898W        W 4498   8.904  12.816   0.747
33899W        W 4499  33.805  40.983  13.501
33900W        W 4500  22.133  19.303  10.705
33901W        W 4501  34.036  23.090  12.895
33902W        W 4502  26.727  40.448   3.266
33903W        W 4503   4.868  14.683  13.485
33904W        W 4504   6.876  15.249  10.651
33905W        W 4505   1.279  11.332  12.231
33906W        W 4506  24.986   4.660  11.991
33907W        W 4507  43.448  34.549  11.204
33908W        W 4508  35.143  31.155   4.400
33909W        W 4509  29.546  29.157  14.928
33910W        W 4510   0.484   7.817  11.926
33911W        W 4511  29.097  23.292  13.485
33912W        W 4512  33.283  31.111  12.848
33913W        W 4513   9.581  33.401  14.610
33914W        W 4514  44.376   9.385  10.584
33915W        W 4515   6.868  30.078   1.356
33916W        W 4516  35.161  16.655   3.199
33917W        W 4517  21.780  11.531   0.263
33918W        W 4518   6.106  12.654  13.492
33919W        W 4519  13.446   7.889  12.172
33920W        W 4520  17.346  36.513   3.812
33921W        W 4521  41.509  24.298   3.328
33922W        W 4522  25.150  19.658  14.287
33923W        W 4523  25.015  17.668   4.338
33924W        W 4524   6.250  44.243   3.201
33925W        W 4525  36.563  31.234   2.852
33926W        W 4526  42.608  43.354   4.081
33927W        W 4527  25.073  13.727   4.917
33928W        W 4528  15.644  30.787   4.575
33929W        W 4529   8.895   2.842  13.642
33930W        W 4530  12.582  15.728   2.449
33931W        W 4531  40.834  24.615   4.322
33932W        W 4532  38.742  31.127   3.150
33933W        W 4533  33.401  19.740   2.191
33934W        W 4534  17.091  22.007  14.345
33935W        W 4535  27.147   2.443  13.090
33936W        W 4536  10.494  11.237  13.386
33937W        W 4537  19.488  41.961  13.874
33938W        W 4538  25.255  14.377  13.066
33939W        W 4539  35.354  27.354  12.137
33940W        W 4540  19.143  13.874   1.980
33941W        W 4541  13.369  15.033   2.464
33942W        W 4542  23.960   0.830   9.512
33943W        W 4543   4.494  38.084   4.212
33944W        W 4544  24.620  24.254  12.628
33945W        W 4545  17.736  13.783   0.930
33946W        W 4546  33.577  10.983   1.705
33947W        W 4547  38.209  24.233   4.169
33948W        W 4548  33.476  17.547  12.765
33949W        W 4549  40.291  43.222   3.760
33950W        W 4550  29.583  13.037   3.648
33951W        W 4551  10.854   0.448   3.587
33952W        W 4552  10.400  37.871  12.055
33953W        W 4553   4.051   5.358   4.512
33954W        W 4554  44.433  41.075   0.873
33955W        W 4555  16.867  31.337  13.097
33956W        W 4556  24.195   9.024   2.908
33957W        W 4557  40.855   3.856  13.485
33958W        W 4558  29.784   4.051  13.028
33959W        W 4559  31.397  22.505  14.708
33960W        W 4560  31.858  10.853  14.458
33961W        W 4561  10.728  39.146   0.912
33962W        W 4562  19.267  23.003   0.817
33963W        W 4563  34.437  39.819  10.741
33964W        W 4564  41.945  22.927  14.211
33965W        W 4565  28.696   2.836   0.410
33966W        W 4566   5.247  30.789  13.088
33967W        W 4567  37.757  33.476   3.231
33968W        W 4568  14.571  17.520   2.750
33969W        W 4569  11.737  32.936   0.354
33970W        W 4570   2.995  13.690  12.669
33971W        W 4571  33.133  37.918   0.039
33972W        W 4572  14.614   0.813   3.138
33973W        W 4573  13.554   5.796   2.078
33974W        W 4574  25.432  28.539  14.420
33975W        W 4575  37.513   7.369   0.340
33976W        W 4576  11.182  43.483  12.930
33977W        W 4577  17.624  41.802   2.686
33978W        W 4578  33.185   8.161   4.402
33979W        W 4579  26.623  12.456   2.511
33980W        W 4580  31.051  28.426   1.690
33981W        W 4581  17.168  25.145   1.327
33982W        W 4582  13.108  40.695   4.834
33983W        W 4583   5.321   2.772   0.332
33984W        W 4584  11.215   2.871   2.353
33985W        W 4585  16.309   6.390  13.016
33986W        W 4586  43.839  30.911   4.434
33987W        W 4587   4.492  28.520   0.951
33988W        W 4588  14.457  41.878   5.358
33989W        W 4589   3.039   4.429  13.449
33990W        W 4590  32.571  19.836   4.545
33991W        W 4591  33.520   5.072   3.594
33992W        W 4592  14.110  34.939  10.117
33993W        W 4593  10.737  11.788   4.332
33994W        W 4594  41.263  34.930   1.805
33995W        W 4595  16.748  40.505   4.777
33996W        W 4596  40.438  27.176  14.914
33997W        W 4597  22.554  40.036   0.458
33998W        W 4598  33.428  30.615   4.084
33999W        W 4599  22.987   1.395  12.447
34000W        W 4600   1.548  23.024  11.645
34001W        W 4601  36.468   5.151   0.802
34002W        W 4602  41.544   0.087   2.698
34003W        W 4603  26.050  26.076   4.215
34004W        W 4604  27.583  43.373   1.333
34005W        W 4605   4.804  37.712   1.308
34006W        W 4606  42.680  10.281  14.035
34007W        W 4607  43.130  28.083   1.855
34008W        W 4608   1.389  34.870   1.038
34009W        W 4609  26.082  37.789  14.811
34010W        W 4610  26.548  35.353  10.666
34011W        W 4611  21.007   4.366  12.952
34012W        W 4612  13.699  14.054   0.861
34013W        W 4613  35.247   7.825  12.248
34014W        W 4614  44.244  41.607  14.589
34015W        W 4615   0.458  35.418  13.537
34016W        W 4616  15.903   6.112  13.153
34017W        W 4617  39.587   5.740   2.262
34018W        W 4618   5.168  33.528   3.155
34019W        W 4619   1.283   7.975  14.074
34020W        W 4620  33.051   2.395   3.375
34021W        W 4621   4.301  10.600   1.786
34022W        W 4622  35.851  28.603  13.394
34023W        W 4623   5.200   8.422  13.984
34024W        W 4624   0.462  35.902   1.750
34025W        W 4625  17.177   0.954  12.042
34026W        W 4626  13.047  20.608   0.305
34027W        W 4627  27.720   7.278   3.313
34028W        W 4628  30.228  12.613   2.806
34029W        W 4629  31.667  22.501  12.901
34030W        W 4630  44.981  25.248   3.682
34031W        W 4631  15.162   0.965  13.843
34032W        W 4632   0.674  12.995  11.612
34033W        W 4633  39.510  37.140   4.778
34034W        W 4634  20.112   3.021   4.829
34035W        W 4635  31.994  11.317   4.194
34036W        W 4636  28.758   6.679  11.122
34037W        W 4637  30.123  21.601  13.043
34038W        W 4638  22.283   0.278  13.510
34039W        W 4639  37.365  21.536  10.618
34040W        W 4640  39.412   8.906   3.812
34041W        W 4641  14.609  15.247  11.329
34042W        W 4642   7.405   2.460  12.982
34043W        W 4643  30.134  26.235   4.718
34044W        W 4644   2.790  19.701  13.043
34045W        W 4645  38.643  18.156  14.808
34046W        W 4646  21.168  24.661  12.476
34047W        W 4647   5.927  27.388  12.211
34048W        W 4648   8.466  43.038   0.783
34049W        W 4649  40.798  36.638   0.274
34050W        W 4650  14.542  34.654   9.936
34051W        W 4651   0.566  19.018   3.400
34052W        W 4652  32.913   3.281   0.039
34053W        W 4653  37.812   9.161  12.579
34054W        W 4654  44.941  21.608   2.816
34055W        W 4655  37.921  33.845   1.430
34056W        W 4656   6.840  15.149   0.090
34057W        W 4657  23.465  28.507   3.257
34058W        W 4658  23.557  42.388   2.633
34059W        W 4659  23.654  39.017  10.584
34060W        W 4660  34.457  26.590  11.752
34061W        W 4661  30.688  36.448   4.493
34062W        W 4662  29.372  33.487  12.474
34063W        W 4663  43.073   6.366  14.497
34064W        W 4664  34.134  39.227   2.134
34065W        W 4665  31.160  29.308   4.142
34066W        W 4666  28.418  39.604  14.687
34067W        W 4667  22.881  41.763   0.213
34068W        W 4668  32.371   9.364  12.563
34069W        W 4669  28.590   5.236   4.532
34070W        W 4670  16.648  44.000   4.354
34071W        W 4671  39.925  36.518   4.818
34072W        W 4672  24.592  16.628  12.398
34073W        W 4673  34.652  30.295  14.737
34074W        W 4674  41.389  41.385  12.388
34075W        W 4675   6.783  28.000   2.583
34076W        W 4676  13.192  38.860  11.884
34077W        W 4677   2.925  19.329  12.027
34078W        W 4678  24.629  42.022  11.494
34079W        W 4679   2.430  17.419  11.872
34080W        W 4680  14.529  39.792   5.032
34081W        W 4681  39.302   7.744  11.794
34082W        W 4682  35.853  15.680   4.144
34083W        W 4683  15.590  24.977  12.420
34084W        W 4684   6.522  28.723  13.998
34085W        W 4685   2.143  27.175  12.022
34086W        W 4686  43.753  10.844   2.754
34087W        W 4687  28.074  17.782   2.424
34088W        W 4688  19.542  40.922   3.774
34089W        W 4689  35.633   7.485  14.451
34090W        W 4690  38.822  14.062   2.877
34091W        W 4691   9.160  23.614   0.715
34092W        W 4692  30.966  22.678  13.422
34093W        W 4693   5.252   2.939   1.207
34094W        W 4694  40.272  35.200   0.762
34095W        W 4695  15.679  28.200  14.955
34096W        W 4696   8.124  22.454   2.687
34097W        W 4697  28.228  27.306  11.576
34098W        W 4698  17.709  24.924  10.802
34099W        W 4699  25.382  24.633  11.580
34100W        W 4700   1.755  31.126   2.784
34101W        W 4701   9.118  28.888   0.869
34102W        W 4702  35.442  35.611  10.950
34103W        W 4703  17.470  40.524   0.886
34104W        W 4704  20.703   3.900  13.843
34105W        W 4705   3.858  30.762   3.613
34106W        W 4706  26.935  26.511   3.248
34107W        W 4707  15.291   5.133   2.328
34108W        W 4708  43.314  32.914  14.415
34109W        W 4709  11.704   3.218   0.001
34110W        W 4710  20.567  27.253  11.195
34111W        W 4711  28.190  34.715   2.330
34112W        W 4712  22.152  35.873   4.154
34113W        W 4713  21.225  11.543  12.115
34114W        W 4714  24.622  16.199   2.506
34115W        W 4715  35.901  40.921  12.377
34116W        W 4716  31.611  17.815   2.626
34117W        W 4717  10.187  37.649  10.098
34118W        W 4718  41.863  38.459   0.674
34119W        W 4719  13.115  16.738  14.287
34120W        W 4720  42.889  33.598   0.943
34121W        W 4721  22.531  33.432   1.845
34122W        W 4722  37.516  26.476  10.981
34123W        W 4723  33.576   2.790  14.380
34124W        W 4724   1.236  29.137   2.353
34125W        W 4725  13.397  11.134   4.310
34126W        W 4726  13.027   4.196   1.442
34127W        W 4727  11.366  38.949  13.029
34128W        W 4728   2.821  30.110   1.036
34129W        W 4729   9.935  38.908   2.922
34130W        W 4730  14.383  13.627   2.535
34131W        W 4731  43.768   8.814   1.981
34132W        W 4732  37.536  11.376   2.355
34133W        W 4733  16.701  29.181  10.591
34134W        W 4734  25.391  21.515   4.622
34135W        W 4735  19.484  37.168   2.350
34136W        W 4736  26.510  44.073   2.286
34137W        W 4737   7.930  16.778  11.529
34138W        W 4738  23.086  13.831   2.698
34139W        W 4739   1.063  11.762  13.822
34140W        W 4740   2.930  11.585  10.772
34141W        W 4741  28.576  27.477  10.757
34142W        W 4742  23.112  43.759   0.527
34143W        W 4743  33.083  22.020  10.999
34144W        W 4744   4.371   3.206   0.349
34145W        W 4745  14.981  43.865   1.749
34146W        W 4746   7.909  28.200   2.699
34147W        W 4747  25.882  34.507   3.207
34148W        W 4748  21.969   3.181   4.151
34149W        W 4749   5.322   5.733  14.313
34150W        W 4750  17.763  14.526  13.402
34151W        W 4751  29.552  27.679  12.090
34152W        W 4752   5.840  42.677  10.949
34153W        W 4753  36.006   5.382   1.701
34154W        W 4754  19.478  29.052  12.963
34155W        W 4755  28.768  24.127  13.649
34156W        W 4756   6.450  12.826   4.556
34157W        W 4757  25.660  20.365   1.727
34158W        W 4758  29.811  20.654  13.953
34159W        W 4759  11.707  35.415   1.289
34160W        W 4760  16.293  21.877  14.066
34161W        W 4761   3.368  15.766  13.537
34162W        W 4762  14.784   8.652  14.851
34163W        W 4763   4.184   3.378   4.962
34164W        W 4764  12.276  38.679   1.266
34165W        W 4765   8.145  23.692   0.838
34166W        W 4766  33.507  15.594   0.796
34167W        W 4767  35.986   9.079   2.721
34168W        W 4768  32.509   5.424  13.003
34169W        W 4769  33.091  20.235   0.050
34170W        W 4770  43.534  44.027  13.020
34171W        W 4771  30.385  15.527   0.307
34172W        W 4772  43.382  19.074  13.893
34173W        W 4773  15.053  24.457  11.612
34174W        W 4774   5.339   4.977   3.680
34175W        W 4775   0.008  41.561  13.531
34176W        W 4776  11.427  20.152   1.891
34177W        W 4777  14.207  30.255   4.693
34178W        W 4778  11.900   9.914  13.793
34179W        W 4779  20.070  10.165  11.532
34180W        W 4780  26.301  13.448  13.529
34181W        W 4781  17.242  17.252  12.563
34182W        W 4782  37.480  20.784  13.976
34183W        W 4783  17.705   3.167  13.964
34184W        W 4784  42.900  18.451  12.665
34185W        W 4785   6.217  44.071   0.830
34186W        W 4786  27.569  30.821   1.228
34187W        W 4787   5.428  15.016   0.252
34188W        W 4788   1.433  26.117   3.183
34189W        W 4789  29.696  20.617  13.006
34190W        W 4790  41.357   1.513   3.832
34191W        W 4791  35.080  35.680   2.940
34192W        W 4792  26.956  10.119  11.620
34193W        W 4793  43.899   5.573   3.442
34194W        W 4794   0.705  17.271   2.798
34195W        W 4795  36.086  37.529  12.534
34196W        W 4796  27.882  24.648  12.194
34197W        W 4797  23.021  39.291  14.076
34198W        W 4798  10.620  31.202   4.087
34199W        W 4799  29.535  33.546  11.445
34200W        W 4800  39.421  36.664   1.389
34201W        W 4801   4.246   1.809   2.807
34202W        W 4802  21.228  12.697  12.916
34203W        W 4803  23.231   2.229   2.817
34204W        W 4804  42.177  43.040   4.090
34205W        W 4805   6.467   5.140   0.495
34206W        W 4806  12.339   0.908   2.842
34207W        W 4807  16.250  24.123   1.884
34208W        W 4808  26.600   3.755  12.485
34209W        W 4809  42.199  14.038  10.474
34210W        W 4810   5.821   6.280  13.477
34211W        W 4811   5.925  14.924  11.174
34212W        W 4812  17.044   2.625  11.180
34213W        W 4813   6.408  44.777   4.750
34214W        W 4814  17.048   2.432  12.023
34215W        W 4815  11.578  14.400  10.656
34216W        W 4816  31.552  36.910   1.150
34217W        W 4817  42.219  28.835   2.841
34218W        W 4818  12.777  15.438   0.748
34219W        W 4819  30.157  26.465   1.633
34220W        W 4820  17.247   6.153  13.056
34221W        W 4821  35.892  15.560  12.876
34222W        W 4822  27.030  20.538   4.248
34223W        W 4823  42.224  28.966   4.582
34224W        W 4824  14.873  32.948  13.456
34225W        W 4825  11.663   3.145   3.452
34226W        W 4826  34.606  22.848   4.112
34227W        W 4827   9.248  25.978  10.487
34228W        W 4828   8.398  21.260   0.932
34229W        W 4829  25.473  22.510   0.355
34230W        W 4830   6.759  23.164  14.754
34231W        W 4831  43.372  10.113   1.785
34232W        W 4832  30.473  10.412  10.101
34233W        W 4833   6.739  15.175   3.322
34234W        W 4834  29.959   5.890  12.113
34235W        W 4835  26.006   5.711   2.786
34236W        W 4836  27.915  12.674   4.748
34237W        W 4837   1.289   4.750  11.768
34238W        W 4838  43.517  10.798   3.237
34239W        W 4839  30.944  16.014  12.727
34240W        W 4840  33.006  33.965  14.490
34241W        W 4841   9.915  16.174   2.711
34242W        W 4842  43.279   2.196   3.682
34243W        W 4843  34.367   7.576  12.938
34244W        W 4844  21.557  24.714  13.158
34245W        W 4845  36.125  23.218   2.505
34246W        W 4846  20.054   2.576   2.444
34247W        W 4847  36.868   6.449  10.967
34248W        W 4848  15.356  43.958  13.892
34249W        W 4849  28.872  36.950  14.017
34250W        W 4850   9.818  31.957   3.016
34251W        W 4851  22.530  19.678   0.660
34252W        W 4852   5.364  28.884  12.177
34253W        W 4853  23.184  18.642  14.098
34254W        W 4854  15.919   7.900   3.709
34255W        W 4855   7.881  32.599  11.598
34256W        W 4856   7.368  38.311   2.810
34257W        W 4857  30.501  18.621  14.454
34258W        W 4858  39.252   8.917   4.760
34259W        W 4859  28.135   3.966   2.040
34260W        W 4860   7.590  10.804   0.776
34261W        W 4861  31.686  35.984   1.678
34262W        W 4862  22.165  29.247  11.523
34263W        W 4863  37.796  31.866  13.891
34264W        W 4864   4.429  40.138  10.614
34265W        W 4865  32.512  44.553  10.278
34266W        W 4866   1.843  29.664  14.844
34267W        W 4867  41.942  23.827  12.040
34268W        W 4868   1.590  30.300  13.957
34269W        W 4869  25.708  24.117   2.736
34270W        W 4870  31.105  22.543  14.291
34271W        W 4871  16.351  23.181  13.392
34272W        W 4872   8.965   1.479   4.958
34273W        W 4873  17.219   6.277  13.553
34274W        W 4874  15.195  17.384   4.110
34275W        W 4875   2.326  34.048   0.865
34276W        W 4876  10.904  27.967  10.823
34277W        W 4877   6.519  39.138   2.202
34278W        W 4878  24.910  14.250   2.296
34279W        W 4879  38.464  43.459   4.550
34280W        W 4880  38.847  40.564   1.716
34281W        W 4881  12.842   1.524   2.208
34282W        W 4882  16.656  19.708  14.509
34283W        W 4883  21.602  36.971  13.839
34284W        W 4884  20.494  10.427  13.910
34285W        W 4885  40.477  38.589  11.131
34286W        W 4886   1.875  14.291  13.511
34287W        W 4887   7.333  25.028  11.578
34288W        W 4888   1.495  33.131  12.040
34289W        W 4889  34.798   9.277  12.425
34290W        W 4890   7.343  38.208  10.417
34291W        W 4891  35.654  11.876   1.473
34292W        W 4892  37.977  21.965  10.483
34293W        W 4893  43.850  44.044  10.642
34294W        W 4894   9.350  13.747  14.301
34295W        W 4895  42.683  35.076   0.834
34296W        W 4896  36.228  38.416   1.285
34297W        W 4897  18.614  27.606  14.056
34298W        W 4898  26.866   1.408  12.018
34299W        W 4899  40.872  39.054  13.094
34300W        W 4900  37.817  21.468  12.033
34301W        W 4901  21.320  27.681   3.535
34302W        W 4902  41.846  41.340  14.431
34303W        W 4903  39.996  34.390   0.857
34304W        W 4904   9.358   4.842   0.183
34305W        W 4905  15.088  26.474  14.862
34306W        W 4906  39.407   9.129   4.303
34307W        W 4907  20.433   0.257  12.149
34308W        W 4908  26.035  34.570  10.622
34309W        W 4909  26.893  34.462  10.830
34310W        W 4910  26.981  20.616   4.801
34311W        W 4911  27.026   0.376   4.563
34312W        W 4912  12.771  40.333   1.398
34313W        W 4913  40.987  15.221   4.148
34314W        W 4914  16.670  35.443  14.374
34315W        W 4915  21.286  40.571   2.190
34316W        W 4916  38.128   9.868   0.567
34317W        W 4917  16.320   2.628  11.226
34318W        W 4918  14.018  24.399  12.572
34319W        W 4919   3.484  19.493  13.497
34320W        W 4920   2.826   3.729   0.917
34321W        W 4921  41.847  18.775   0.358
34322W        W 4922  11.480  39.770   1.260
34323W        W 4923  37.952   6.710   4.334
34324W        W 4924   0.090  30.406  11.938
34325W        W 4925  44.332   7.080  13.915
34326W        W 4926   8.312  30.261  12.561
34327W        W 4927  41.507  35.981   1.649
34328W        W 4928  44.065  39.539   2.903
34329W        W 4929  42.934  44.406   9.801
34330W        W 4930   6.364  24.546  12.991
34331W        W 4931  32.442   9.103   1.877
34332W        W 4932   9.960  17.286   2.241
34333W        W 4933  29.997  16.760   2.422
34334W        W 4934  37.035  11.305   2.302
34335W        W 4935  37.835  11.916  11.135
34336W        W 4936  37.997   6.686  14.351
34337W        W 4937  18.339  19.190   3.448
34338W        W 4938  41.255  12.113   0.266
34339W        W 4939   3.347   3.044   1.195
34340W        W 4940   4.977   4.173  13.531
34341W        W 4941  13.689  34.118   4.881
34342W        W 4942  34.306  39.881   1.339
34343W        W 4943  37.587   3.734   1.827
34344W        W 4944   4.687   7.760   2.270
34345W        W 4945  14.217  21.535   4.677
34346W        W 4946  44.690  31.336   2.283
34347W        W 4947  12.067  39.961  11.852
34348W        W 4948  37.493  27.478   2.280
34349W        W 4949   7.917  23.202   1.641
34350W        W 4950   6.410  22.489   1.218
34351W        W 4951   6.245  28.763  12.920
34352W        W 4952  31.484  30.699  10.935
34353W        W 4953  30.495   8.099   3.721
34354W        W 4954   9.986   2.440  11.429
34355W        W 4955  32.684  23.755   3.736
34356W        W 4956   7.252  36.346   4.165
34357W        W 4957  13.628   4.986   3.380
34358W        W 4958  16.760   4.480  12.535
34359W        W 4959   0.342  12.762   2.785
34360W        W 4960  32.476  27.538  13.522
34361W        W 4961  25.145  24.170   0.492
34362W        W 4962  13.957  37.409  10.347
34363W        W 4963  25.105  30.168  12.392
34364W        W 4964  39.878  13.081  11.912
34365W        W 4965  27.021  22.912   4.721
34366W        W 4966  37.891  10.409   1.442
34367W        W 4967  35.371  17.260   2.204
34368W        W 4968  39.009  38.000   3.389
34369W        W 4969  12.787   9.133   3.908
34370W        W 4970  11.186  18.767   4.115
34371W        W 4971  33.817  38.311  13.092
34372W        W 4972  28.341  24.342   0.235
34373W        W 4973  33.950  23.080   0.493
34374W        W 4974  27.107  13.993   0.503
34375W        W 4975  44.895   6.064  12.642
34376W        W 4976   9.892  31.993  12.395
34377W        W 4977  22.340  17.316   1.952
34378W        W 4978   4.927  20.712   4.610
34379W        W 4979  22.328  34.254   4.078
34380W        W 4980  41.353  40.354  11.568
34381W        W 4981  19.357  38.853   3.146
34382W        W 4982  33.487  35.461  13.567
34383W        W 4983  10.508  32.365  14.565
34384W        W 4984  21.507   9.406   3.486
34385W        W 4985  43.026  29.445   4.077
34386W        W 4986  13.559  28.055   4.909
34387W        W 4987  43.590   5.778   4.064
34388W        W 4988  22.911  41.498   0.663
34389W        W 4989  37.824  30.803  12.608
34390W        W 4990  40.381  21.116  11.169
34391W        W 4991  26.655  23.680   4.390
34392W        W 4992  21.873  25.222  12.008
34393W        W 4993  38.061  18.555   2.701
34394W        W 4994   8.195  41.303   2.244
34395W        W 4995  43.354  22.365   2.643
34396W        W 4996  12.292  14.704   4.992
34397W        W 4997  37.742  11.799  12.471
34398W        W 4998   8.733   5.998   1.179
34399W        W 4999  13.407  26.595   5.142
34400W        W 5000  36.769  15.892  14.471
34401W        W 5001  40.373   6.841  10.654
34402W        W 5002  24.023  39.925   3.532
34403W        W 5003  43.729  39.923  14.265
34404W        W 5004  34.037   6.713  12.088
34405W        W 5005  29.499  19.529  10.287
34406W        W 5006  16.211  33.924   1.452
34407W        W 5007  29.558  19.835  14.853
34408W        W 5008  30.931   6.264   1.290
34409W        W 5009  44.282   7.408  14.886
34410W        W 5010  33.534  25.027  13.746
34411W        W 5011  36.623  30.007  12.609
34412W        W 5012  14.032   8.817  13.087
34413W        W 5013  33.991   4.889  10.221
34414W        W 5014  15.995  16.652   5.335
34415W        W 5015  23.696   2.457  11.528
34416W        W 5016  21.707  26.094  10.428
34417W        W 5017   2.283   2.815   2.372
34418W        W 5018   0.770  30.096  12.967
34419W        W 5019  30.433  28.109  10.707
34420W        W 5020  40.521  38.942  12.630
34421W        W 5021  30.798   5.141  11.102
34422W        W 5022  26.008  44.862   0.845
34423W        W 5023  20.155   4.424  12.393
34424W        W 5024  39.323   6.301  11.306
34425W        W 5025  11.671  22.501   3.253
34426W        W 5026  32.699  17.619  12.210
34427W        W 5027  32.480  34.337   4.653
34428W        W 5028  24.148  25.550  14.388
34429W        W 5029  17.633  34.586   1.500
34430W        W 5030  29.634  32.361  12.092
34431W        W 5031  13.021  31.330  14.057
34432W        W 5032   9.653  37.038   4.918
34433W        W 5033   0.299  10.587  11.612
34434W        W 5034  14.969  25.612  10.676
34435W        W 5035  32.420  37.300   4.581
34436W        W 5036   8.478  25.298   2.882
34437W        W 5037   3.551  44.898  11.191
34438W        W 5038  39.431  28.795   2.694
34439W        W 5039  18.427   0.233   1.392
34440W        W 5040  19.220  29.029   4.787
34441W        W 5041   4.175  32.235  12.989
34442W        W 5042   2.943  23.364  11.214
34443W        W 5043  21.995  41.841   0.457
34444W        W 5044  43.216  29.922   4.256
34445W        W 5045  19.838  29.904   0.957
34446W        W 5046  28.538  12.654   0.980
34447W        W 5047  34.424   9.080   3.205
34448W        W 5048  41.514  25.196  14.850
34449W        W 5049  15.319  23.025  13.392
34450W        W 5050  16.235  41.848   2.193
34451W        W 5051   0.085   1.288  11.691
34452W        W 5052  21.374  42.883  11.617
34453W        W 5053   6.402   7.173   1.241
34454W        W 5054  32.094  12.781   4.120
34455W        W 5055  11.753  24.876  13.944
34456W        W 5056  44.237  17.161   1.496
34457W        W 5057  40.401   7.247  14.728
34458W        W 5058  16.536   9.187   2.786
34459W        W 5059   0.923  12.774  12.033
34460W        W 5060  31.541  16.519   4.622
34461W        W 5061  39.709   6.142   3.579
34462W        W 5062   2.003  38.895  12.728
34463W        W 5063   0.380  39.587   4.355
34464W        W 5064  33.105  26.082  14.977
34465W        W 5065  14.348  36.499  14.904
34466W        W 5066  18.675  29.379  13.395
34467W        W 5067  16.265  44.840  14.133
34468W        W 5068  26.037  39.382   2.375
34469W        W 5069   3.874  22.052   1.196
34470W        W 5070  22.268   3.148  12.534
34471W        W 5071  36.662   9.650   1.487
34472W        W 5072  18.910   3.334  11.586
34473W        W 5073   1.634  13.680   0.364
34474W        W 5074  24.661   1.849  13.889
34475W        W 5075  43.990  33.966  11.032
34476W        W 5076   5.352   8.674  12.105
34477W        W 5077   5.380   7.184  12.121
34478W        W 5078  30.593   3.040  10.059
34479W        W 5079  27.379   3.916   0.927
34480W        W 5080   4.786  38.750   1.264
34481W        W 5081  23.118   4.186   4.159
34482W        W 5082  39.562   9.780   1.186
34483W        W 5083   0.174  30.151   1.414
34484W        W 5084  14.903  19.405  10.300
34485W        W 5085  38.977   7.977   2.805
34486W        W 5086  12.237   6.929   0.394
34487W        W 5087  31.787  38.115   0.612
34488W        W 5088  20.323  32.963  14.986
34489W        W 5089   2.503  39.068   3.836
34490W        W 5090  32.167   2.644  14.754
34491W        W 5091   2.867  25.912  11.335
34492W        W 5092   7.541   8.235  14.332
34493W        W 5093  41.810  19.956   2.981
34494W        W 5094  10.381   8.710   3.171
34495W        W 5095  44.457   2.820  13.459
34496W        W 5096  40.886  13.519   3.770
34497W        W 5097  38.581  33.883  12.276
34498W        W 5098  42.322  23.801   3.368
34499W        W 5099  44.050  30.563  12.619
34500W        W 5100  39.403  21.200   1.328
34501W        W 5101  32.061  17.136  12.690
34502W        W 5102  13.335   6.545   0.425
34503W        W 5103  15.268  28.847  14.420
34504W        W 5104  26.225  44.446  10.508
34505W        W 5105  27.516  23.158  13.797
34506W        W 5106  30.685  26.595  12.048
34507W        W 5107   2.230  34.154   3.598
34508W        W 5108   8.867  17.252   0.282
34509W        W 5109  18.967  10.091  14.817
34510W        W 5110   0.182  36.102   0.156
34511W        W 5111   2.512   7.209   4.705
34512W        W 5112  21.632  18.478   0.189
34513W        W 5113  42.306  29.493   4.548
34514W        W 5114  18.715  26.265  10.786
34515W        W 5115  28.435  11.242  11.397
34516W        W 5116  35.643  40.334   1.042
34517W        W 5117  35.935  36.562  11.400
34518W        W 5118  31.988  26.949   1.769
34519W        W 5119  37.527   8.611  11.043
34520W        W 5120  42.631  36.063  11.917
34521W        W 5121   1.127   7.690   0.858
34522W        W 5122  40.364   3.709  13.360
34523W        W 5123  11.896  33.183  10.981
34524W        W 5124  36.062  10.029   2.837
34525W        W 5125  18.338  27.966  12.413
34526W        W 5126  26.106  16.595  11.142
34527W        W 5127  26.638   7.746  13.592
34528W        W 5128  21.207   6.850  14.727
34529W        W 5129  37.808  20.778   5.131
34530W        W 5130  43.866  19.335  14.535
34531W        W 5131   4.394  35.473   4.568
34532W        W 5132  14.377  38.130  12.186
34533W        W 5133  26.831  23.337   3.635
34534W        W 5134  28.932   6.714   4.109
34535W        W 5135  37.560  12.274   2.918
34536W        W 5136  34.231   9.916  11.844
34537W        W 5137  13.669  28.631  10.659
34538W        W 5138  10.608  15.586   3.254
34539W        W 5139  40.328  12.991   4.559
34540W        W 5140  41.614  16.094  10.547
34541W        W 5141   8.698  42.797  12.073
34542W        W 5142  17.706  29.390  11.418
34543W        W 5143  20.231  39.946   3.421
34544W        W 5144  25.630  28.600  14.907
34545W        W 5145  44.391  23.601  10.291
34546W        W 5146   4.846  41.837  14.889
34547W        W 5147  32.725   5.886  14.818
34548W        W 5148  36.741  42.922   1.455
34549W        W 5149  36.569  17.513   1.328
34550W        W 5150  15.319  14.643  10.886
34551W        W 5151  16.049  25.108  10.828
34552W        W 5152   8.130   8.598  11.009
34553W        W 5153  10.066  27.090  10.842
34554W        W 5154   2.850  43.683   3.489
34555W        W 5155  41.338  23.219  12.534
34556W        W 5156  10.581  17.670  12.117
34557W        W 5157  41.757  20.972   3.661
34558W        W 5158   2.268  41.917  10.721
34559W        W 5159   9.662  11.304  11.645
34560W        W 5160  34.908   2.396  11.808
34561W        W 5161  11.019   8.222  13.064
34562W        W 5162   0.483   1.569  10.414
34563W        W 5163  28.924  11.340  12.344
34564W        W 5164  28.261  22.726  10.053
34565W        W 5165  17.888  28.451  11.879
34566W        W 5166   6.772  14.390   2.878
34567W        W 5167  17.733   0.889  14.430
34568W        W 5168  36.566  27.804   3.316
34569W        W 5169   7.659  10.314  14.782
34570W        W 5170  33.867   0.738  12.568
34571W        W 5171  44.323   6.788   3.824
34572W        W 5172  10.413   8.672  10.848
34573W        W 5173  15.355  14.112   3.989
34574W        W 5174  44.830  39.106  14.437
34575W        W 5175  37.485  19.412   3.941
34576W        W 5176   6.183  29.695  14.110
34577W        W 5177  38.951  25.931   3.402
34578W        W 5178  39.475  32.229  14.856
34579W        W 5179  12.270  33.203   0.885
34580W        W 5180  28.072  10.711   2.661
34581W        W 5181  43.089  32.030  14.484
34582W        W 5182  16.837  37.208   1.013
34583W        W 5183  34.545   9.803   3.712
34584W        W 5184  19.074  41.894   0.531
34585W        W 5185  14.334  35.413  10.256
34586W        W 5186  17.761  43.304   0.776
34587W        W 5187  24.487  21.239  13.030
34588W        W 5188  42.101   1.335  12.036
34589W        W 5189  17.933  32.861  11.790
34590W        W 5190   0.844  23.879  11.761
34591W        W 5191  29.453  20.013   4.210
34592W        W 5192   8.732  26.766  12.482
34593W        W 5193   1.490  20.861   3.136
34594W        W 5194  42.871  40.087  13.354
34595W        W 5195  34.208  27.431  12.965
34596W        W 5196  10.390  40.298  11.193
34597W        W 5197  25.220  38.411  13.968
34598W        W 5198  13.161  22.825   5.051
34599W        W 5199  31.777  34.084   3.976
34600W        W 5200  26.425  21.654  13.045
34601W        W 5201  38.053  24.183   2.201
34602W        W 5202  10.471   5.975   4.439
34603W        W 5203  29.626  21.980   1.043
34604W        W 5204   8.845  38.934  11.852
34605W        W 5205  21.322  26.118  12.031
34606W        W 5206  21.479  28.264  12.455
34607W        W 5207  30.152   9.278  12.052
34608W        W 5208  33.029   5.678   3.265
34609W        W 5209  42.722  10.644  12.542
34610W        W 5210  16.324  38.062  12.087
34611W        W 5211  27.092  14.813  12.004
34612W        W 5212  39.326  33.476   1.324
34613W        W 5213   6.266  12.575  11.127
34614W        W 5214  40.141   3.557   2.191
34615W        W 5215  29.107  28.961   0.215
34616W        W 5216  23.237   7.824   1.163
34617W        W 5217  12.016  29.677   9.759
34618W        W 5218   5.393   8.900  11.616
34619W        W 5219  20.291  22.518  13.390
34620W        W 5220   0.479  21.445   0.939
34621W        W 5221  34.995  31.097  14.893
34622W        W 5222  22.056  25.658   2.725
34623W        W 5223  30.103  41.980  14.292
34624W        W 5224  17.653  24.064  13.446
34625W        W 5225  28.557  35.314   4.577
34626W        W 5226   3.782   5.289  12.574
34627W        W 5227  44.441   9.513  13.472
34628W        W 5228  11.534  11.372  11.655
34629W        W 5229   1.863  28.004  11.702
34630W        W 5230  12.323  24.070   3.707
34631W        W 5231  34.105  37.557   4.057
34632W        W 5232  40.803   8.279   1.839
34633W        W 5233  25.959   0.290   2.175
34634W        W 5234  41.687  31.972   4.909
34635W        W 5235  16.254  20.514  12.644
34636W        W 5236   2.615   4.271   1.464
34637W        W 5237  15.358  16.322   4.943
34638W        W 5238   4.501  18.033  13.571
34639W        W 5239  20.682   6.611   3.804
34640W        W 5240  40.442  35.436   0.271
34641W        W 5241  18.293  20.211   2.452
34642W        W 5242  28.886   9.048   2.995
34643W        W 5243  17.318   8.097   3.784
34644W        W 5244  24.896   5.451  12.618
34645W        W 5245  37.193  32.201   4.306
34646W        W 5246  24.634  38.872  13.957
34647W        W 5247   9.759  43.491  14.421
34648W        W 5248  31.041  34.278  11.102
34649W        W 5249   2.311  25.621   0.009
34650W        W 5250  19.184  25.482   2.160
34651W        W 5251  25.657  25.361  14.233
34652W        W 5252  40.278  25.033  13.419
34653W        W 5253   8.253  34.881  12.787
34654W        W 5254  25.001  18.630  14.041
34655W        W 5255   8.354   8.605  11.486
34656W        W 5256  37.260  27.051   0.868
34657W        W 5257  10.553  11.315   3.962
34658W        W 5258  20.065  18.302   3.805
34659W        W 5259  19.704  36.128   3.005
34660W        W 5260   2.505  29.871   4.595
34661W        W 5261  14.163  19.205   1.293
34662W        W 5262   9.821  18.938   2.022
34663W        W 5263   7.619  11.656  14.283
34664W        W 5264  38.939  29.645  11.283
34665W        W 5265  23.736  25.697   3.200
34666W        W 5266  27.693  42.486   3.782
34667W        W 5267   8.779  34.328   4.187
34668W        W 5268  37.912   0.066   0.057
34669W        W 5269  11.314  40.952  13.938
34670W        W 5270  25.680  19.555   2.269
34671W        W 5271   9.423  26.963  14.947
34672W        W 5272  40.761  24.587   1.784
34673W        W 5273   2.087  11.534  10.428
34674W        W 5274  16.705  41.457   4.319
34675W        W 5275  38.380   5.952  12.968
34676W        W 5276  12.358  28.352   3.163
34677W        W 5277   9.621  35.527   2.611
34678W        W 5278  26.199  35.851   1.937
34679W        W 5279  22.471  25.891  14.910
34680W        W 5280  13.330  41.063   9.830
34681W        W 5281  39.635  29.820   3.686
34682W        W 5282  11.632  20.016  14.009
34683W        W 5283  29.403  11.134  12.370
34684W        W 5284  35.079  34.974   3.738
34685W        W 5285  16.549  28.943  12.025
34686W        W 5286  26.658  42.757   3.058
34687W        W 5287  17.251  37.331  11.659
34688W        W 5288  12.205  15.390   0.758
34689W        W 5289  15.913  16.696   0.266
34690W        W 5290  33.639   1.451  13.919
34691W        W 5291   8.652  21.495  13.385
34692W        W 5292  24.692   7.792   0.479
34693W        W 5293  10.220  40.481   3.298
34694W        W 5294  35.084  27.375   4.984
34695W        W 5295   7.192  31.221   4.541
34696W        W 5296  13.227   3.283  11.671
34697W        W 5297  11.680  20.677   3.373
34698W        W 5298  36.069  23.801  11.579
34699W        W 5299  33.497   3.970   2.427
34700W        W 5300  33.901   7.332  10.875
34701W        W 5301  21.179  14.903  11.805
34702W        W 5302   8.761  28.597   3.649
34703W        W 5303  38.306  11.871   1.352
34704W        W 5304   0.212  22.670  11.449
34705W        W 5305  35.383  17.684  10.766
34706W        W 5306  14.553  40.666   4.097
34707W        W 5307  16.592  30.602  10.976
34708W        W 5308  18.493  36.390  12.193
34709W        W 5309  32.645  15.402  13.950
34710W        W 5310   3.285   8.726  12.095
34711W        W 5311  31.034  30.877  14.808
34712W        W 5312   7.409  22.001  13.890
34713W        W 5313  43.151   8.497  13.167
34714W        W 5314  42.067   8.864  11.950
34715W        W 5315  17.629  12.436   1.647
34716W        W 5316  19.616  32.707   2.237
34717W        W 5317   5.476   4.918  14.923
34718W        W 5318  32.171  11.276  13.451
34719W        W 5319  24.852  38.674  11.097
34720W        W 5320  20.122  24.493   0.334
34721W        W 5321  44.856  17.265   3.684
34722W        W 5322  21.843  24.179  14.798
34723W        W 5323  40.262   8.072   2.212
34724W        W 5324  42.839  37.125  11.490
34725W        W 5325  44.466   1.880   4.100
34726W        W 5326  42.322  25.155   2.579
34727W        W 5327  32.937  44.029  11.707
34728W        W 5328  26.433   9.662   3.301
34729W        W 5329  11.297  13.794   2.327
34730W        W 5330  23.033  42.379   2.657
34731W        W 5331  44.464  25.602  11.515
34732W        W 5332  18.403  13.101   3.572
34733W        W 5333   5.220  16.737   3.401
34734W        W 5334  18.172  30.640  11.686
34735W        W 5335  40.343  16.480   4.526
34736W        W 5336  23.850  27.745   1.871
34737W        W 5337  39.084  10.070   1.886
34738W        W 5338   8.330  10.823   0.755
34739W        W 5339  18.207   1.911   2.011
34740W        W 5340  23.185  30.422   2.736
34741W        W 5341  33.762  33.606   0.505
34742W        W 5342  20.423  22.484  10.194
34743W        W 5343  34.738   6.360   0.785
34744W        W 5344  42.473  39.359  13.972
34745W        W 5345   8.109  15.645  10.918
34746W        W 5346  39.505   7.421   1.247
34747W        W 5347  22.162   2.531  14.718
34748W        W 5348  37.367   5.695   1.219
34749W        W 5349  30.526  13.126   0.882
34750W        W 5350  17.167   8.170  12.362
34751W        W 5351  11.171   3.795  12.898
34752W        W 5352   0.416  38.239   1.380
34753W        W 5353   1.114   5.517  12.055
34754W        W 5354  19.301   8.283  13.602
34755W        W 5355  19.586  32.935   3.208
34756W        W 5356  40.121  37.955   0.902
34757W        W 5357  31.141  35.105   2.248
34758W        W 5358  31.521  26.010  13.217
34759W        W 5359  16.323  37.484  11.434
34760W        W 5360  27.485  34.662  11.611
34761W        W 5361  36.036  31.975  13.158
34762W        W 5362  41.426   0.908   2.128
34763W        W 5363  38.586  34.950  11.566
34764W        W 5364  37.031  36.373   2.812
34765W        W 5365  43.823  12.499  12.461
34766W        W 5366  38.845  41.243  14.900
34767W        W 5367   6.224  30.132   2.907
34768W        W 5368  22.500   5.883   1.852
34769W        W 5369  31.636  34.659   1.362
34770W        W 5370  25.975  44.309  14.674
34771W        W 5371  21.026  39.967  12.915
34772W        W 5372  35.142  25.167   1.736
34773W        W 5373   0.732   5.747   3.471
34774W        W 5374  31.599  15.445  11.616
34775W        W 5375  44.257  18.552   1.793
34776W        W 5376   4.436  14.754   1.395
34777W        W 5377  34.337   8.877  14.364
34778W        W 5378  31.103   3.801  12.943
34779W        W 5379  40.701   9.318  11.805
34780W        W 5380   3.842  38.806  14.389
34781W        W 5381  38.357  39.987   0.777
34782W        W 5382  12.640  36.916  11.150
34783W        W 5383  33.549  43.469   1.000
34784W        W 5384  19.247   2.560  11.206
34785W        W 5385   4.764  22.099   3.143
34786W        W 5386  44.477  22.251   2.334
34787W        W 5387   1.761  13.763   3.653
34788W        W 5388  29.877  39.472   0.904
34789W        W 5389  35.367  12.232   1.234
34790W        W 5390   8.836  13.722   1.957
34791W        W 5391  37.870   9.892   1.496
34792W        W 5392   8.995  19.692   2.918
34793W        W 5393  18.711  44.258   5.038
34794W        W 5394   1.346  10.180  14.484
34795W        W 5395  37.116  30.506   3.249
34796W        W 5396  20.409  33.220   0.450
34797W        W 5397   5.248  21.608   4.268
34798W        W 5398  39.584  30.739  10.734
34799W        W 5399   0.965  29.847   1.051
34800W        W 5400  18.102  37.328  12.009
34801W        W 5401  13.744  27.896   1.297
34802W        W 5402  24.406  44.738   0.783
34803W        W 5403  18.396   9.935   5.012
34804W        W 5404  42.809  27.179   3.965
34805W        W 5405  16.106  26.554  10.081
34806W        W 5406  25.167  32.996   2.735
34807W        W 5407  13.343   0.978   0.814
34808W        W 5408  10.180  17.715   4.599
34809W        W 5409  44.864  23.415  12.819
34810W        W 5410   8.627   0.880  11.053
34811W        W 5411   6.390  23.907   5.119
34812W        W 5412   3.564   8.176   0.733
34813W        W 5413  19.533  23.043   2.276
34814W        W 5414  11.876  18.785  13.523
34815W        W 5415   0.974  40.871   0.245
34816W        W 5416  34.519   5.725  14.506
34817W        W 5417  18.200   8.615  11.330
34818W        W 5418  31.818  37.268   1.966
34819W        W 5419  32.534  12.399  11.115
34820W        W 5420  14.865  30.476  11.626
34821W        W 5421  20.531  40.391  13.973
34822W        W 5422  30.473  21.070  11.950
34823W        W 5423  10.920  10.188   0.283
34824W        W 5424  26.868   3.494  14.345
34825W        W 5425  37.852  13.201   3.229
34826W        W 5426  16.217  10.354   3.693
34827W        W 5427  44.538  22.457   4.289
34828W        W 5428  10.674   9.732   3.165
34829W        W 5429   3.699  22.111  12.686
34830W        W 5430  43.823  40.363  12.014
34831W        W 5431  38.523  36.990   2.401
34832W        W 5432  30.379  33.598   2.085
34833W        W 5433  38.425  25.038  12.560
34834W        W 5434   8.664  17.780   4.571
34835W        W 5435  37.442  15.104  12.089
34836W        W 5436   4.630  42.755   3.120
34837W        W 5437  11.553  42.490   4.557
34838W        W 5438  31.972  14.290  12.976
34839W        W 5439   0.005   4.245   3.537
34840W        W 5440  40.340  41.831  11.209
34841W        W 5441   2.151  27.494   0.502
34842W        W 5442  17.411  11.339   1.769
34843W        W 5443   2.429  11.165  11.455
34844W        W 5444   9.191   4.239   4.646
34845W        W 5445  40.109  31.428  12.811
34846W        W 5446   0.928  44.094  10.674
34847W        W 5447  26.217   7.805  11.608
34848W        W 5448  18.275  32.123   0.337
34849W        W 5449  12.113  39.038  10.263
34850W        W 5450  22.548  15.368   0.521
34851W        W 5451  42.558  15.169  11.541
34852W        W 5452   1.447  24.999   1.309
34853W        W 5453  25.039  39.941   4.489
34854W        W 5454  20.400  39.956  13.716
34855W        W 5455  24.108   5.083  12.901
34856W        W 5456  16.067  13.087   3.185
34857W        W 5457   4.179  14.129  13.227
34858W        W 5458  35.440  29.509   4.137
34859W        W 5459  43.443  10.775   4.856
34860W        W 5460  31.884  25.543   1.760
34861W        W 5461  37.329   7.361  11.540
34862W        W 5462   1.390  43.436   3.312
34863W        W 5463  14.233  38.112  13.171
34864W        W 5464  18.674  40.223  14.479
34865W        W 5465  24.150  15.217   1.950
34866W        W 5466  38.714  35.058   5.004
34867W        W 5467  43.251  15.003   2.368
34868W        W 5468  36.499  40.603  11.144
34869W        W 5469  15.116  21.477   2.862
34870W        W 5470  11.755   2.494  14.760
34871W        W 5471   7.300   2.442  14.236
34872W        W 5472  12.850   8.132  11.504
34873W        W 5473   0.579  12.304   0.789
34874W        W 5474  30.685  17.639  11.999
34875W        W 5475  11.032  14.446  13.389
34876W        W 5476  42.985  34.028  14.779
34877W        W 5477  41.341  21.466   1.995
34878W        W 5478  16.578  22.064  11.548
34879W        W 5479  20.170  36.582   2.748
34880W        W 5480   4.559  13.869   1.231
34881W        W 5481  42.577  41.069  10.569
34882W        W 5482  31.608  24.371  12.552
34883W        W 5483  27.141   4.193   2.121
34884W        W 5484  32.706  13.637  11.915
34885W        W 5485  18.155  34.176  11.654
34886W        W 5486   6.203  41.528   3.336
34887W        W 5487  26.475   4.844   2.244
34888W        W 5488  32.128  10.883  11.033
34889W        W 5489  29.683  20.222   1.036
34890W        W 5490  21.588  25.059   3.186
34891W        W 5491  32.944  25.513  10.893
34892W        W 5492  28.538  35.123   2.347
34893W        W 5493  35.692  12.402  11.486
34894W        W 5494  23.881  37.383   2.813
34895W        W 5495  29.397  41.467   0.359
34896W        W 5496  33.376  33.287  11.606
34897W        W 5497  26.509   4.748   3.157
34898W        W 5498  26.031  36.601   4.703
34899W        W 5499  22.667  29.115   0.594
34900W        W 5500  22.692  19.993   3.184
34901W        W 5501   3.283  13.812   1.373
34902W        W 5502  15.775  16.596   2.375
34903W        W 5503  35.020  10.839   4.953
34904W        W 5504  29.045  43.793   4.389
34905W        W 5505   7.247  35.349   1.295
34906W        W 5506  31.202  39.294  11.175
34907W        W 5507  27.979  23.266  12.904
34908W        W 5508  33.919  11.724   0.217
34909W        W 5509  13.000  24.844  13.306
34910W        W 5510  13.159  36.940  12.013
34911W        W 5511   9.770  43.424   4.872
34912W        W 5512  14.045  25.432  12.479
34913W        W 5513  44.281   1.137   1.566
34914W        W 5514  40.384  38.117  12.122
34915W        W 5515   4.402  30.410   4.969
34916W        W 5516   0.934  11.727  14.321
34917W        W 5517  35.929  14.225   4.147
34918W        W 5518  32.572  38.530  14.590
34919W        W 5519  36.904   5.867   1.449
34920W        W 5520  30.966  39.853   0.282
34921W        W 5521   2.186  15.188   0.318
34922W        W 5522   8.848  15.172   4.526
34923W        W 5523   3.604   6.726   2.253
34924W        W 5524   3.966   0.763  11.956
34925W        W 5525  34.376  29.550  11.842
34926W        W 5526  10.610   8.783   4.451
34927W        W 5527  11.665  14.706   0.177
34928W        W 5528  36.807  11.326   0.813
34929W        W 5529  13.931  39.544   0.410
34930W        W 5530  38.371  12.745  11.422
34931W        W 5531  20.300  23.117   1.799
34932W        W 5532  39.095   9.259  12.814
34933W        W 5533  40.577   3.738   4.959
34934W        W 5534  16.728  23.978   2.946
34935W        W 5535  42.028  26.734   4.176
34936W        W 5536  37.402  36.558   1.725
34937W        W 5537  16.226  21.830  12.670
34938W        W 5538   4.239  10.727  13.816
34939W        W 5539  34.092  31.709  11.125
34940W        W 5540   5.479  19.196   1.316
34941W        W 5541   8.088  44.335  14.987
34942W        W 5542  19.272  32.945  11.522
34943W        W 5543  13.028   1.201  12.384
34944W        W 5544   8.445   5.203   1.273
34945W        W 5545  44.318  33.389   4.763
34946W        W 5546  21.462  27.569   3.054
34947W        W 5547  41.394   9.893  13.729
34948W        W 5548   3.523  30.530  14.947
34949W        W 5549  34.127  11.438   3.597
34950W        W 5550  30.394  39.519  11.540
34951W        W 5551  21.010  25.739   1.777
34952W        W 5552   0.301  17.550  14.842
34953W        W 5553  26.583   0.521  11.655
34954W        W 5554  26.096  42.991   4.809
34955W        W 5555  23.176  10.885   0.778
34956W        W 5556  39.393  31.913  12.878
34957W        W 5557  37.433   4.947   3.328
34958W        W 5558  42.821  20.290   2.307
34959W        W 5559  36.418  33.628  12.942
34960W        W 5560   1.726  21.926  11.013
34961W        W 5561  32.626  31.703   3.138
34962W        W 5562  17.682   1.696   0.756
34963W        W 5563  38.015  40.041   3.650
34964W        W 5564  44.254  13.839   4.590
34965W        W 5565  19.484   3.314   2.470
34966W        W 5566  23.266  18.334   2.225
34967W        W 5567  25.709   9.119  12.380
34968W        W 5568   2.881  43.760  13.333
34969W        W 5569  44.943   4.726  12.568
34970W        W 5570  26.806  33.652   1.242
34971W        W 5571  26.439  35.817   3.183
34972W        W 5572  12.150  17.367   3.233
34973W        W 5573  38.651  23.628  10.718
34974W        W 5574   1.558  22.746  13.413
34975W        W 5575  41.840   9.595   2.114
34976W        W 5576   2.294  29.108  14.525
34977W        W 5577   6.795   1.614   3.368
34978W        W 5578  33.862  16.158  11.518
34979W        W 5579   8.318  40.435   2.961
34980W        W 5580  41.544  32.423  14.956
34981W        W 5581  33.339  15.568  11.076
34982W        W 5582  25.686  28.146  13.659
34983W        W 5583   3.006   0.441   4.907
34984W        W 5584  44.423  15.292   1.834
34985W        W 5585  22.425  14.660  13.060
34986W        W 5586  35.001  32.603   1.460
34987W        W 5587  31.861  19.228  10.789
34988W        W 5588  34.920  35.651   4.304
34989W        W 5589  40.843   6.991  11.552
34990W        W 5590  43.114  19.573  13.364
34991W        W 5591  17.299   6.489   2.820
34992W        W 5592  26.428  11.324   3.718
34993W        W 5593  30.923  35.424  13.087
34994W        W 5594   6.925   1.662  13.453
34995W        W 5595  12.235  35.449  13.249
34996W        W 5596  16.038  32.454   2.746
34997W        W 5597  11.339   5.834  10.717
34998W        W 5598  18.221   6.205  13.569
34999W        W 5599  16.298  16.142  14.391
35000W        W 5600  30.753  11.578   1.052
35001W        W 5601  38.358  14.359   2.013
35002W        W 5602  33.521  26.450  13.819
35003W        W 5603  23.620  23.154   1.337
35004W        W 5604  19.319  41.829  12.162
35005W        W 5605   6.664  21.795   3.247
35006W        W 5606  44.256  37.919  10.923
35007W        W 5607  44.046  11.728  12.191
35008W        W 5608  44.262   0.514   3.893
35009W        W 5609  23.201  42.452  12.433
35010W        W 5610  39.783  31.433   2.401
35011W        W 5611   2.016  12.409  14.415
35012W        W 5612  11.900   2.300   0.375
35013W        W 5613   7.365  35.471  14.114
35014W        W 5614  14.078   1.699   0.823
35015W        W 5615  35.512  18.546   2.884
35016W        W 5616  17.199  17.482   4.184
35017W        W 5617  34.854   5.293  12.648
35018W        W 5618   0.257   5.853  12.940
35019W        W 5619  17.305  33.467  11.537
35020W        W 5620  16.627   9.798  12.932
35021W        W 5621  26.564   2.678  12.443
35022W        W 5622   4.762  26.536  14.734
35023W        W 5623  26.689  22.467   2.409
35024W        W 5624  22.119  24.322   1.569
35025W        W 5625  27.243  41.032  10.672
35026W        W 5626  10.153  35.934   4.116
35027W        W 5627  11.634   6.738   1.854
35028W        W 5628  23.010  42.561   4.987
35029W        W 5629  28.515  38.332  10.281
35030W        W 5630  44.326  32.899  11.776
35031W        W 5631  21.185   9.670  10.718
35032W        W 5632  32.842  33.451   1.835
35033W        W 5633  29.511  28.549   0.993
35034W        W 5634  37.426  24.440  10.672
35035W        W 5635  10.353  20.978  14.065
35036W        W 5636  25.932  35.384  11.074
35037W        W 5637   6.302  35.152   4.238
35038W        W 5638  33.869  34.479  14.856
35039W        W 5639   7.789  41.578  12.444
35040W        W 5640  10.702  16.030   2.269
35041W        W 5641  34.946  35.563  14.106
35042W        W 5642  34.129  12.730   4.033
35043W        W 5643  11.616  16.156  11.229
35044W        W 5644  35.767  42.544   4.559
35045W        W 5645  11.523  44.176  10.972
35046W        W 5646  24.910  22.946  12.119
35047W        W 5647  13.593  33.908   2.272
35048W        W 5648  14.772  44.424   3.263
35049W        W 5649  22.645   5.252   1.211
35050W        W 5650  42.840  20.559  14.209
35051W        W 5651  40.020  12.594   4.722
35052W        W 5652  36.596  10.801   2.732
35053W        W 5653  44.861  36.617  12.830
35054W        W 5654  35.396  28.128  14.745
35055W        W 5655  17.148  15.702   1.716
35056W        W 5656  18.709  44.317   1.273
35057W        W 5657  42.448  13.709   2.406
35058W        W 5658  44.568   2.768  14.218
35059W        W 5659  43.389  32.650  13.874
35060W        W 5660  32.566  38.464   1.049
35061W        W 5661  24.441  25.434  13.970
35062W        W 5662   2.733  43.770   2.789
35063W        W 5663  27.468  34.428   2.744
35064W        W 5664   0.740  39.855  11.082
35065W        W 5665   1.894  25.342   0.404
35066W        W 5666  30.471  37.956   1.304
35067W        W 5667  27.867  10.288  11.572
35068W        W 5668  21.531   2.763  11.453
35069W        W 5669  21.791  26.048   0.120
35070W        W 5670   6.211   9.413   1.753
35071W        W 5671  27.313  15.050   4.135
35072W        W 5672  11.318  36.354   3.614
35073W        W 5673  19.300  11.309  12.062
35074W        W 5674  28.498  22.134   2.862
35075W        W 5675  33.110  18.910  11.144
35076W        W 5676  43.230  36.851  14.861
35077W        W 5677  42.538   0.420   0.987
35078W        W 5678  28.333  41.565   1.910
35079W        W 5679  21.938  33.867  12.490
35080W        W 5680   4.801  24.527  13.558
35081W        W 5681  20.817  23.122   1.746
35082W        W 5682  26.586  32.037   2.834
35083W        W 5683  41.871  30.243   4.658
35084W        W 5684  24.390  14.191   1.879
35085W        W 5685  39.373  13.127   4.046
35086W        W 5686  16.838  39.543   1.911
35087W        W 5687  10.850  21.788  13.865
35088W        W 5688  13.463  37.884   3.840
35089W        W 5689   3.028  40.491   1.195
35090W        W 5690  18.285  34.278   2.860
35091W        W 5691  33.219  13.812  14.787
35092W        W 5692   9.739  39.993  13.278
35093W        W 5693  35.526  14.185  11.249
35094W        W 5694   4.525   8.433   2.472
35095W        W 5695  19.152  34.526  14.108
35096W        W 5696   6.632   6.236  13.168
35097W        W 5697  15.563   6.707  12.138
35098W        W 5698  32.331  34.943  10.157
35099W        W 5699  33.987  20.604   2.456
35100W        W 5700  34.236  27.680   1.528
35101W        W 5701  25.245  36.801   4.032
35102W        W 5702   5.866   4.172  14.844
35103W        W 5703  14.323  36.366   1.274
35104W        W 5704  20.204  39.756  10.751
35105W        W 5705  15.186  39.288  11.134
35106W        W 5706  28.291  15.986  13.080
35107W        W 5707  35.145   2.985   4.011
35108W        W 5708  25.126  30.908   4.371
35109W        W 5709  35.497   7.344   4.943
35110W        W 5710  25.894   7.562   5.078
35111W        W 5711  17.805   2.680  13.023
35112W        W 5712  17.991  29.258  13.956
35113W        W 5713  41.118   5.891   2.376
35114W        W 5714  44.312   2.892   3.605
35115W        W 5715   1.234  23.546  10.631
35116W        W 5716  18.699  42.834   0.314
35117W        W 5717  44.390  25.702   0.982
35118W        W 5718   6.319  33.625  10.915
35119W        W 5719  31.878   9.366   2.461
35120W        W 5720  44.461  16.715   1.201
35121W        W 5721   8.772  42.605  12.978
35122W        W 5722   0.067  25.403  13.259
35123W        W 5723  37.185  22.150  14.346
35124W        W 5724  29.289  10.637  11.663
35125W        W 5725   1.495  43.956   3.151
35126W        W 5726   1.434  31.622   1.318
35127W        W 5727  41.200   3.664   4.167
35128W        W 5728  12.144  27.569   0.249
35129W        W 5729  24.583   7.441  12.339
35130W        W 5730  41.755  37.045   3.703
35131W        W 5731   3.281  28.929  14.271
35132W        W 5732   9.455   8.391  13.134
35133W        W 5733  36.991  18.503  12.082
35134W        W 5734  33.110  24.671  13.003
35135W        W 5735  37.939  15.036   0.392
35136W        W 5736  29.466   4.984  12.447
35137W        W 5737   2.969   3.261   4.683
35138W        W 5738   1.500   6.207   0.709
35139W        W 5739  32.057  28.706   3.149
35140W        W 5740  14.805  26.111   4.335
35141W        W 5741  21.803  24.861  13.584
35142W        W 5742  19.076  40.346   1.825
35143W        W 5743  32.051  30.289   3.309
35144W        W 5744  30.940  27.516  13.375
35145W        W 5745  27.624  23.609  13.061
35146W        W 5746   0.691  18.143  10.299
35147W        W 5747  42.868  25.433   4.248
35148W        W 5748  13.281  22.245   1.836
35149W        W 5749   7.642  44.461  10.740
35150W        W 5750  38.185   6.923  11.186
35151W        W 5751  32.444  30.426   0.892
35152W        W 5752  12.409  29.715  12.366
35153W        W 5753   4.815  10.366   2.263
35154W        W 5754   3.104  18.863  13.073
35155W        W 5755  26.779  38.164   0.656
35156W        W 5756  44.046   3.657  11.404
35157W        W 5757  21.095  37.767  14.931
35158W        W 5758  30.665  20.245   4.725
35159W        W 5759  34.642  17.445   0.372
35160W        W 5760  15.697  42.281   4.136
35161W        W 5761   6.253  35.958   0.217
35162W        W 5762   7.172   4.876  12.803
35163W        W 5763   1.772  11.386   4.139
35164W        W 5764   4.724  35.343   2.315
35165W        W 5765  17.967  23.693   0.640
35166W        W 5766  41.484  12.764   1.978
35167W        W 5767   7.526  16.949   3.219
35168W        W 5768  31.823  37.467  11.944
35169W        W 5769  22.920  43.858   4.545
35170W        W 5770  19.202  17.540   3.853
35171W        W 5771   0.764   4.354  14.549
35172W        W 5772  11.830  17.273   2.733
35173W        W 5773  21.623  31.833  14.888
35174W        W 5774  20.857   9.721   2.286
35175W        W 5775  27.131   3.460  13.888
35176W        W 5776  16.657  25.524   1.869
35177W        W 5777   4.869  11.468   1.436
35178W        W 5778  41.490  40.017  13.805
35179W        W 5779   1.005  39.147   3.649
35180W        W 5780  20.505  40.804  13.100
35181W        W 5781  39.569  30.090  14.342
35182W        W 5782  35.021   5.988  10.298
35183W        W 5783  39.889   2.356   2.305
35184W        W 5784   9.829  36.384  10.463
35185W        W 5785  18.265   4.003  14.252
35186W        W 5786  30.154  11.108   2.727
35187W        W 5787  41.743  11.705   0.351
35188W        W 5788  26.520  12.049  11.177
35189W        W 5789  27.575  13.688  12.925
35190W        W 5790  30.079   8.990  14.475
35191W        W 5791  24.143  42.868  10.729
35192W        W 5792   1.096   9.324  11.612
35193W        W 5793  19.612  29.900  13.588
35194W        W 5794  21.645  10.303  11.607
35195W        W 5795  26.691  12.595  13.772
35196W        W 5796  21.507   1.538  13.847
35197W        W 5797   5.007  19.147   3.193
35198W        W 5798  23.103  23.808  11.994
35199W        W 5799   7.388  26.716  14.428
35200W        W 5800  40.677  20.132  12.152
35201W        W 5801   4.446  40.284   4.200
35202W        W 5802  12.687  31.006   3.992
35203W        W 5803  27.941  22.622   5.050
35204W        W 5804  30.656  11.144   0.285
35205W        W 5805  35.072  39.569  14.335
35206W        W 5806   1.414  18.994  12.082
35207W        W 5807   7.813  22.679  11.897
35208W        W 5808  43.420  12.216   2.855
35209W        W 5809  25.576   6.059   1.405
35210W        W 5810  31.286   0.575   1.776
35211W        W 5811  41.468   6.258   2.187
35212W        W 5812  35.140  42.842  10.354
35213W        W 5813  29.074  27.090   3.616
35214W        W 5814  27.123  22.453  11.073
35215W        W 5815  22.988  14.702   1.533
35216W        W 5816  28.153   9.721   0.465
35217W        W 5817  11.737  10.142   1.716
35218W        W 5818  16.639  31.670   4.134
35219W        W 5819  31.952  25.325   5.239
35220W        W 5820  32.435  39.685  14.794
35221W        W 5821   8.802  19.299   2.235
35222W        W 5822  28.445   0.378  12.137
35223W        W 5823   6.145  25.047   3.294
35224W        W 5824  26.528  22.017   2.184
35225W        W 5825  21.066  37.021   0.737
35226W        W 5826   0.469  10.810  11.130
35227W        W 5827  26.849   4.053   1.709
35228W        W 5828  36.490  38.177   2.742
35229W        W 5829   8.105  23.876   4.161
35230W        W 5830  37.649  41.388   2.000
35231W        W 5831   5.909  31.905  12.035
35232W        W 5832  40.028  39.361  11.998
35233W        W 5833  15.831  30.023   2.204
35234W        W 5834  39.420   6.263  12.582
35235W        W 5835  38.316  37.989   4.296
35236W        W 5836  44.963  12.315   1.917
35237W        W 5837   2.663   8.260   4.193
35238W        W 5838  35.147   1.337   0.944
35239W        W 5839  20.272   9.007   2.326
35240W        W 5840  34.910  11.152   1.640
35241W        W 5841   2.811  23.037  14.814
35242W        W 5842  17.235  32.456   4.518
35243W        W 5843   9.411  24.523  11.665
35244W        W 5844  40.506  44.476   0.389
35245W        W 5845  13.539  23.212   0.346
35246W        W 5846  24.717  41.503  12.450
35247W        W 5847  31.431  26.210  11.963
35248W        W 5848  37.028  16.526  11.918
35249W        W 5849   7.120  38.909   0.561
35250W        W 5850  33.097  25.746   4.304
35251W        W 5851  36.829  35.454  14.952
35252W        W 5852  32.580  26.218   1.140
35253W        W 5853  19.624   8.795  12.407
35254W        W 5854  21.391  16.782  14.828
35255W        W 5855  36.876  24.928  11.113
35256W        W 5856  12.080   1.089   3.256
35257W        W 5857  11.247  11.691  13.952
35258W        W 5858  41.445  19.708  13.084
35259W        W 5859  39.344  23.555   1.310
35260W        W 5860   4.761  24.147   0.036
35261W        W 5861  42.934   1.448   1.938
35262W        W 5862  18.021   1.820   4.738
35263W        W 5863   4.755   6.131   4.101
35264W        W 5864  20.891  12.880  10.382
35265W        W 5865  26.027  18.571  13.684
35266W        W 5866  35.796   4.535   3.981
35267W        W 5867  37.425  39.976   4.547
35268W        W 5868  29.014  33.103   2.286
35269W        W 5869  44.192  22.148  10.595
35270W        W 5870   4.958  34.819  10.132
35271W        W 5871  33.543   4.268   4.619
35272W        W 5872  29.534   6.809  10.916
35273W        W 5873  42.418   7.016   3.840
35274W        W 5874   0.431  29.721  11.427
35275W        W 5875  24.505  38.060  12.384
35276W        W 5876  22.408   3.656  13.424
35277W        W 5877  37.371  29.692  13.005
35278W        W 5878  41.035   8.996   4.977
35279W        W 5879  22.172  23.082   1.128
35280W        W 5880  44.720   1.385   2.351
35281W        W 5881  40.544  30.717  10.909
35282W        W 5882   1.014   0.178  11.814
35283W        W 5883   0.465  41.298  12.662
35284W        W 5884   8.872  25.629   3.047
35285W        W 5885  27.359  34.882   2.481
35286W        W 5886  25.200  27.171  11.613
35287W        W 5887  31.112  13.778   1.742
35288W        W 5888  29.019   0.494  13.762
35289W        W 5889  22.197  17.262   0.092
35290W        W 5890  17.563   7.989   3.200
35291W        W 5891   6.379   1.771   0.627
35292W        W 5892  19.485  16.614  11.516
35293W        W 5893  35.242  11.275  11.742
35294W        W 5894  32.801  30.380   0.051
35295W        W 5895  24.842  17.307  13.431
35296W        W 5896  40.800  22.764  11.635
35297W        W 5897   1.378   5.928   3.827
35298W        W 5898  29.992  39.322  13.512
35299W        W 5899  40.504  44.171  11.906
35300W        W 5900  14.571  20.365   1.774
35301W        W 5901  17.924  34.111  12.489
35302W        W 5902   1.533  36.301  11.241
35303W        W 5903   1.797   7.603  11.362
35304W        W 5904  38.701  18.327  13.055
35305W        W 5905  13.679  25.443   3.132
35306W        W 5906  10.742  12.698  13.104
35307W        W 5907  17.468  19.146   2.756
35308W        W 5908   7.550  19.352   5.081
35309W        W 5909  39.568  16.080   2.174
35310W        W 5910  35.115  44.325  14.864
35311W        W 5911  16.297  11.257  11.624
35312W        W 5912  36.631  22.954   0.149
35313W        W 5913  14.710  25.160   3.165
35314W        W 5914   2.300  16.548   4.620
35315W        W 5915   2.730  21.552  13.283
35316W        W 5916   9.403  34.535   3.216
35317W        W 5917  38.027   4.069  13.467
35318W        W 5918  29.349  23.181  11.309
35319W        W 5919   5.999  29.128   4.568
35320W        W 5920  11.217  26.997   1.313
35321W        W 5921   8.162  37.405  14.540
35322W        W 5922  43.257  44.738   2.314
35323W        W 5923  21.782   7.461   1.290
35324W        W 5924   8.610  27.271  12.678
35325W        W 5925  14.400  14.666   2.710
35326W        W 5926   5.259   9.177   4.184
35327W        W 5927  19.744   6.348  10.881
35328W        W 5928   2.746  35.619   3.041
35329W        W 5929   2.558  21.113   3.208
35330W        W 5930  27.799  42.400  13.255
35331W        W 5931  20.773   1.000   4.595
35332W        W 5932  38.549  44.058  12.912
35333W        W 5933  17.706   4.285  12.272
35334W        W 5934  44.748   7.158  14.226
35335W        W 5935  17.660  44.765   3.096
35336W        W 5936  20.642  38.056  14.910
35337W        W 5937   0.964  31.842  12.002
35338W        W 5938  21.359  32.413   0.757
35339W        W 5939  14.418  18.465   1.914
35340W        W 5940  38.433  20.567   2.329
35341W        W 5941  43.685  30.121  14.027
35342W        W 5942  14.083  26.779   5.106
35343W        W 5943   0.141  26.495  13.971
35344W        W 5944  12.169  39.896   0.258
35345W        W 5945  17.999  24.797   5.279
35346W        W 5946   8.232  32.357  12.424
35347W        W 5947  24.717  11.906   4.304
35348W        W 5948   0.969  34.013  10.199
35349W        W 5949  34.948   7.648   1.405
35350W        W 5950  29.632  38.478   2.108
35351W        W 5951   0.940  21.353   2.464
35352W        W 5952  16.664  20.309  11.061
35353W        W 5953   0.175  21.724  14.530
35354W        W 5954  30.636  31.185  14.678
35355W        W 5955   0.782  27.146  13.134
35356W        W 5956  33.667   1.818   4.987
35357W        W 5957  25.372   7.407  11.136
35358W        W 5958  23.591  25.227   2.332
35359W        W 5959  11.117  21.995  12.466
35360W        W 5960   1.246  32.841   1.768
35361W        W 5961  34.354  12.628   1.848
35362W        W 5962  44.302   6.890  12.527
35363W        W 5963  12.698  15.320  10.332
35364W        W 5964  36.762  29.600   5.144
35365W        W 5965  28.009  19.860  11.986
35366W        W 5966  14.359  30.327   2.326
35367W        W 5967  25.183  31.560  10.651
35368W        W 5968  16.161  27.105  11.692
35369W        W 5969  11.980  11.789  14.850
35370W        W 5970   1.088  27.848  12.960
35371W        W 5971   7.964   9.107   1.173
35372W        W 5972  21.477  42.789  13.447
35373W        W 5973  34.443  32.183   3.576
35374W        W 5974  31.106  37.391   5.160
35375W        W 5975   2.857  18.733   2.242
35376W        W 5976  31.200  33.626  10.616
35377W        W 5977  28.211  35.612   2.762
35378W        W 5978  25.716   1.747   0.775
35379W        W 5979  30.364  44.944   4.678
35380W        W 5980  43.937   9.628  10.750
35381W        W 5981  44.217  16.647   1.641
35382W        W 5982  20.677  24.136  14.262
35383W        W 5983  34.583  32.059   4.929
35384W        W 5984  15.261  44.306   1.942
35385W        W 5985  38.069   9.316  12.991
35386W        W 5986  34.560  19.101   2.045
35387W        W 5987  17.840  17.728  11.698
35388W        W 5988   2.032  15.623   1.327
35389W        W 5989  10.589   6.392   0.802
35390W        W 5990  31.870  34.097   0.961
35391W        W 5991   5.657  42.765   4.567
35392W        W 5992  29.920   5.480  12.612
35393W        W 5993  22.681  17.282   0.328
35394W        W 5994   3.526  38.545  11.004
35395W        W 5995   5.082  37.345  11.676
35396W        W 5996  23.469   0.948   2.604
35397W        W 5997  27.551  27.070  12.605
35398W        W 5998  25.009  18.640  10.464
35399W        W 5999  27.970  39.442  14.851
35400W        W 6000  29.573  26.522  10.594
35401W        W 6001  18.254  34.135   3.358
35402W        W 6002  40.772  15.818  14.315
35403W        W 6003  43.299  19.158   1.418
35404W        W 6004  39.364  34.656  13.135
35405W        W 6005   9.350  26.388  11.695
35406W        W 6006  32.549   4.749  10.138
35407W        W 6007  32.058  13.530   3.716
35408W        W 6008  42.385  12.819   3.499
35409W        W 6009  32.323  44.483  12.940
35410W        W 6010  18.607  31.084  11.725
35411W        W 6011  44.771  18.004  12.492
35412W        W 6012   9.619  12.774   2.250
35413W        W 6013  36.608  37.778  13.431
35414W        W 6014   5.079  14.942   2.845
35415W        W 6015   8.825  18.247   1.879
35416W        W 6016   5.814   4.943  14.533
35417W        W 6017  43.801   2.787  10.715
35418W        W 6018  37.012  37.362  10.852
35419W        W 6019  42.802  39.137   2.071
35420W        W 6020  35.209  24.314   3.583
35421W        W 6021   1.991  10.856   0.894
35422W        W 6022  10.733   4.351   0.968
35423W        W 6023  10.154   0.734   3.245
35424W        W 6024  17.294   2.815   2.140
35425W        W 6025   7.897  14.736   1.746
35426W        W 6026  23.429  31.768  11.991
35427W        W 6027   3.931   6.826  14.682
35428W        W 6028  39.516  19.310  13.544
35429W        W 6029   6.321  38.299  12.423
35430W        W 6030   1.819  29.938  11.518
35431W        W 6031  19.741  37.060   1.321
35432W        W 6032  20.551   3.233   4.997
35433W        W 6033  23.348  31.846   3.288
35434W        W 6034  12.514  22.447  11.686
35435W        W 6035  22.111  24.537  13.345
35436W        W 6036   4.903  22.286  11.050
35437W        W 6037   0.443   0.841  12.025
35438W        W 6038  27.361  40.992  11.561
35439W        W 6039  38.875  18.253  10.736
35440W        W 6040   7.397  36.570   3.721
35441W        W 6041   5.954  40.897  13.153
35442W        W 6042  33.850  11.223   3.225
35443W        W 6043  36.500  41.529   1.391
35444W        W 6044  20.331  21.057   2.187
35445W        W 6045  25.572  17.381   0.908
35446W        W 6046  39.599  38.469   1.861
35447W        W 6047   0.023  13.809  12.498
35448W        W 6048  43.351  13.127   4.953
35449W        W 6049  24.072  10.704   4.375
35450W        W 6050  37.728  25.289   3.497
35451W        W 6051  19.635  33.027  14.358
35452W        W 6052  42.111   8.881  13.396
35453W        W 6053  12.738  27.779  11.876
35454W        W 6054  16.682   1.819   4.916
35455W        W 6055   2.695  40.969   2.910
35456W        W 6056  11.552  36.379  13.266
35457W        W 6057  31.461  25.586   3.570
35458W        W 6058  11.115   6.575   0.764
35459W        W 6059  36.482  19.124   4.623
35460W        W 6060  39.592  34.391  12.037
35461W        W 6061  18.293  39.547   2.742
35462W        W 6062   0.914  29.544  12.260
35463W        W 6063  42.221  26.522   1.800
35464W        W 6064   7.192  22.588  13.038
35465W        W 6065   0.741  12.772   1.024
35466W        W 6066  39.807   0.946   3.211
35467W        W 6067   1.337  15.783   0.022
35468W        W 6068  15.389  22.503  13.448
35469W        W 6069  34.570  30.150  12.003
35470W        W 6070  36.357  22.552  12.140
35471W        W 6071  41.471  13.981  11.497
35472W        W 6072   4.372   5.335  13.287
35473W        W 6073  21.750  16.274   2.014
35474W        W 6074  39.478  37.622   0.427
35475W        W 6075   1.835  43.947  12.810
35476W        W 6076  13.595  28.304  14.318
35477W        W 6077  27.519  30.113   0.401
35478W        W 6078   2.235  10.130  14.504
35479W        W 6079  21.761  38.545  12.145
35480W        W 6080  26.430  39.859   1.328
35481W        W 6081   9.530  31.653  14.241
35482W        W 6082  14.690   9.413   2.430
35483W        W 6083  27.116  11.252  14.790
35484W        W 6084  31.214  39.103  14.095
35485W        W 6085  41.915  31.092   3.297
35486W        W 6086  33.856  25.000   1.227
35487W        W 6087  33.095  38.133   3.796
35488W        W 6088  36.453  30.529   0.744
35489W        W 6089  34.428  40.347   1.506
35490W        W 6090  39.232   3.123   3.685
35491W        W 6091  36.591  19.578   0.980
35492W        W 6092  28.058  12.228  14.919
35493W        W 6093  28.250  26.502  11.107
35494W        W 6094  36.987  15.460   1.255
35495W        W 6095  41.078  23.803  11.693
35496W        W 6096  10.163  15.994  12.017
35497W        W 6097  33.013   7.140  12.514
35498W        W 6098   7.255  37.151  13.108
35499W        W 6099  22.019  31.647  13.539
35500W        W 6100   7.324   8.113  11.131
35501W        W 6101   8.295  13.741  13.282
35502W        W 6102  18.674  40.506   0.311
35503W        W 6103   8.749   9.148   3.082
35504W        W 6104  37.059  18.036   0.686
35505W        W 6105  25.143   7.332  10.673
35506W        W 6106  39.535  16.609   4.774
35507W        W 6107   7.694  17.525   0.570
35508W        W 6108  42.845  29.036  13.831
35509W        W 6109  13.800  42.336   1.389
35510W        W 6110  28.149  15.161   0.574
35511W        W 6111  12.215  15.545   4.567
35512W        W 6112  30.459  35.112  11.247
35513W        W 6113   4.412  21.008  11.131
35514W        W 6114  18.204   6.273  13.046
35515W        W 6115   7.723  41.557   2.822
35516W        W 6116  44.682  36.057   2.474
35517W        W 6117  34.919  37.377   0.344
35518W        W 6118   7.738   0.282  14.256
35519W        W 6119  11.820  26.606   3.308
35520W        W 6120  38.876  17.542   0.457
35521W        W 6121  12.204  17.551  12.548
35522W        W 6122  35.447  14.753  14.819
35523W        W 6123   6.577  21.206   2.782
35524W        W 6124  14.398  37.734   0.211
35525W        W 6125  20.191  19.795   1.800
35526W        W 6126   9.382  27.766  13.360
35527W        W 6127  16.554  32.623   1.385
35528W        W 6128  11.724  14.086  14.236
35529W        W 6129   6.279  15.334   4.842
35530W        W 6130  18.380  20.047  13.966
35531W        W 6131   4.233  23.489  12.919
35532W        W 6132  28.746  24.620   4.431
35533W        W 6133  24.711  40.998  14.124
35534W        W 6134  33.393  34.519   2.665
35535W        W 6135  10.222  19.071   0.238
35536W        W 6136  17.172  15.333   3.218
35537W        W 6137  37.871  19.631   2.289
35538W        W 6138  42.367  32.147  14.761
35539W        W 6139  28.858  25.602   3.803
35540W        W 6140  41.074  25.470  13.789
35541W        W 6141   1.850  18.082   3.306
35542W        W 6142  29.544  35.707   1.873
35543W        W 6143  35.038   8.390   3.744
35544W        W 6144  32.407  27.098   2.736
35545W        W 6145  32.538   5.032   3.898
35546W        W 6146  39.841  41.528   4.274
35547W        W 6147  39.970  16.638  14.045
35548W        W 6148  36.038  31.480  12.892
35549W        W 6149  39.704  14.670   0.964
35550W        W 6150  20.292  37.843   1.491
35551W        W 6151  24.403  21.833   2.696
35552W        W 6152  11.855  39.000  13.875
35553W        W 6153   1.398  26.358   4.087
35554W        W 6154  19.695  31.459  11.647
35555W        W 6155   6.843  17.860  14.277
35556W        W 6156  10.154  35.741   4.995
35557W        W 6157  18.129  24.153   1.911
35558W        W 6158  31.744  36.530   4.632
35559W        W 6159   0.698   6.835   4.200
35560W        W 6160  26.535   4.693  11.019
35561W        W 6161  21.033   9.396  12.468
35562W        W 6162  29.870  20.213  12.277
35563W        W 6163   1.948  32.953  11.892
35564W        W 6164  11.837  13.137  14.731
35565W        W 6165  42.748   2.013   0.757
35566W        W 6166  34.352  16.125  14.246
35567W        W 6167  28.052  27.722  10.642
35568W        W 6168  25.163  37.079   3.101
35569W        W 6169  35.564  13.515  14.323
35570W        W 6170  10.685  13.775   1.015
35571W        W 6171  26.540  38.465  13.447
35572W        W 6172  14.792  23.664   2.301
35573W        W 6173  17.208  37.302   4.128
35574W        W 6174   7.043   2.831  12.960
35575W        W 6175  27.416   0.381  12.921
35576W        W 6176  34.355  18.238  12.838
35577W        W 6177   9.317   6.912   0.489
35578W        W 6178   6.614   8.641   2.192
35579W        W 6179  37.497  44.688  14.715
35580W        W 6180  32.182  16.067   4.369
35581W        W 6181  37.244   1.969   2.921
35582W        W 6182  28.948  40.396   2.244
35583W        W 6183  31.144  28.590   3.673
35584W        W 6184  43.797  30.111  12.629
35585W        W 6185   4.650  40.967   2.298
35586W        W 6186  33.421  30.350   0.897
35587W        W 6187  14.311  31.480   2.607
35588W        W 6188  39.347  18.602   1.402
35589W        W 6189   4.827   1.191  12.036
35590W        W 6190   1.450  31.589  14.765
35591W        W 6191  40.081  12.121  12.863
35592W        W 6192  27.454  11.508   4.514
35593W        W 6193  13.111  36.058  13.931
35594W        W 6194  34.050   6.206   4.298
35595W        W 6195  42.051  35.150  11.164
35596W        W 6196  41.326  34.918  13.386
35597W        W 6197  28.505  12.213   0.683
35598W        W 6198   2.421  29.152  11.543
35599W        W 6199   0.965  31.286  13.542
35600W        W 6200  20.985  32.010   1.709
35601W        W 6201  32.538  21.719  11.154
35602W        W 6202  17.149  20.715  11.645
35603W        W 6203  42.001  33.822  13.940
35604W        W 6204  32.627  11.614  11.457
35605W        W 6205  14.346  10.324  10.702
35606W        W 6206  42.166   9.347   2.934
35607W        W 6207  19.466  27.035  12.005
35608W        W 6208  28.669  23.271  11.652
35609W        W 6209   8.797  22.715   1.401
35610W        W 6210  39.010  18.993   1.892
35611W        W 6211  25.180  28.008  12.401
35612W        W 6212  44.751  22.814  10.685
35613W        W 6213  37.678   6.350  13.371
35614W        W 6214  27.223  15.766  14.501
35615W        W 6215  33.959   6.220   3.247
35616W        W 6216  27.103  35.947  12.631
35617W        W 6217  28.010  26.718  13.891
35618W        W 6218  37.632  43.239  14.164
35619W        W 6219  32.233  19.339  13.989
35620W        W 6220  13.360  13.812   1.706
35621W        W 6221   2.500  16.138   0.894
35622W        W 6222  30.109  29.903   1.973
35623W        W 6223  23.580   3.152  12.076
35624W        W 6224  13.752  26.588   4.771
35625W        W 6225  39.547  41.938   3.218
35626W        W 6226   9.625  19.088  10.752
35627W        W 6227  42.366  20.069   1.410
35628W        W 6228  20.793  34.315   4.091
35629W        W 6229  28.571  10.370   3.663
35630W        W 6230  35.172  34.210   0.759
35631W        W 6231  40.062  41.943   3.262
35632W        W 6232  21.506   2.333  13.180
35633W        W 6233  21.303  33.444   2.893
35634W        W 6234  10.328  44.949  13.858
35635W        W 6235  40.988  20.413   9.882
35636W        W 6236  24.482  12.368  13.390
35637W        W 6237  37.878  44.222  13.818
35638W        W 6238  15.158  35.929   1.720
35639W        W 6239  18.317  23.261   1.443
35640W        W 6240  10.249  38.485   2.889
35641W        W 6241  21.228  18.722  11.884
35642W        W 6242  37.033  10.725   0.149
35643W        W 6243   7.295  43.311  11.641
35644W        W 6244  41.276  41.937  11.135
35645W        W 6245  10.780  37.531   4.190
35646W        W 6246  28.947  44.449  11.489
35647W        W 6247  22.687  27.562  12.618
35648W        W 6248  31.068  36.972   3.960
35649W        W 6249  22.319   9.594   3.792
35650W        W 6250  18.105  38.617   4.682
35651W        W 6251  40.139  32.983  11.720
35652W        W 6252  21.656  23.154  12.731
35653W        W 6253  19.808   5.420  14.911
35654W        W 6254  15.275   4.169  10.998
35655W        W 6255  24.099  29.139   0.872
35656W        W 6256  38.039   5.936  10.916
35657W        W 6257  15.898  43.281  11.722
35658W        W 6258  10.615   3.466  12.534
35659W        W 6259  30.756  28.795  12.467
35660W        W 6260  14.388   5.756   0.845
35661W        W 6261  32.959  36.479   2.481
35662W        W 6262  24.237   2.064   2.203
35663W        W 6263  37.920   2.744   2.211
35664W        W 6264   4.081   4.842  14.336
35665W        W 6265  31.396  38.202  10.994
35666W        W 6266  15.881  14.306   0.334
35667W        W 6267  40.821  22.500  13.807
35668W        W 6268   0.436   2.254  11.959
35669W        W 6269  27.950  23.448   3.816
35670W        W 6270  23.340  38.662  13.944
35671W        W 6271  16.317   9.443  10.925
35672W        W 6272  16.225   7.270   0.124
35673W        W 6273  37.672  15.721  10.418
35674W        W 6274  33.692  37.393   9.960
35675W        W 6275  44.578  32.181  11.028
35676W        W 6276  11.163  35.406  14.182
35677W        W 6277  21.396  26.915  14.475
35678W        W 6278  42.584  40.812   1.454
35679W        W 6279   5.198   8.753  10.421
35680W        W 6280  38.052  10.265   4.707
35681W        W 6281  33.587   3.980  13.026
35682W        W 6282  28.296   9.220   4.173
35683W        W 6283  17.150  19.769  11.550
35684W        W 6284   7.392  33.611   3.851
35685W        W 6285  16.938  16.836   1.003
35686W        W 6286  23.671  10.625  12.114
35687W        W 6287  44.677  33.878   2.314
35688W        W 6288  35.079  26.654  12.345
35689W        W 6289  32.091  15.157  14.828
35690W        W 6290  11.181   1.406   2.165
35691W        W 6291  26.991  27.271  13.914
35692W        W 6292  26.489  40.224  13.965
35693W        W 6293  31.028  42.783   1.836
35694W        W 6294  22.988  15.945   0.024
35695W        W 6295  15.909  41.462  10.344
35696W        W 6296  17.059  34.352   1.843
35697W        W 6297  35.344  23.611  14.991
35698W        W 6298  26.641  10.184   4.330
35699W        W 6299  28.806   5.978  13.783
35700W        W 6300  23.654  13.022  13.894
35701W        W 6301   5.403   4.119   0.092
35702W        W 6302  41.032  12.579   3.752
35703W        W 6303  19.897   1.107   5.097
35704W        W 6304  23.496  42.912   3.310
35705W        W 6305  15.231   7.972   4.274
35706W        W 6306   1.675   9.404  12.933
35707W        W 6307   0.590  21.976   1.826
35708W        W 6308  32.550   0.199   0.278
35709W        W 6309   9.760  43.167  13.966
35710W        W 6310  27.501  27.059   4.663
35711W        W 6311  26.553  21.811   1.339
35712W        W 6312   0.348   9.757  10.726
35713W        W 6313  39.037  21.305   2.214
35714W        W 6314  19.075  16.059   2.648
35715W        W 6315  26.866  32.802   4.821
35716W        W 6316  28.621  31.055  13.767
35717W        W 6317   9.230   0.570   2.308
35718W        W 6318  29.005  16.384   0.254
35719W        W 6319  39.403  19.197   0.528
35720W        W 6320  33.921  11.696   0.752
35721W        W 6321  25.109  38.379   0.453
35722W        W 6322   8.221  18.934  14.271
35723W        W 6323  20.738   2.492  11.657
35724W        W 6324  42.845  40.777   3.736
35725W        W 6325   4.411  13.145  12.207
35726W        W 6326  44.960  21.898  13.086
35727W        W 6327  18.246   1.747  14.358
35728W        W 6328  23.483  36.908   4.066
35729W        W 6329  16.804  32.612  12.692
35730W        W 6330  26.579  22.648   4.580
35731W        W 6331   5.710  35.742  10.840
35732W        W 6332  32.864  13.690  11.439
35733W        W 6333   5.192   8.763   0.173
35734W        W 6334  38.977  30.458  10.630
35735W        W 6335  22.628   0.538   4.148
35736W        W 6336  12.172   6.135   4.727
35737W        W 6337  37.979   7.700   0.786
35738W        W 6338  24.949  30.913  12.065
35739W        W 6339  16.543   9.882  10.792
35740W        W 6340   0.079  39.611   1.724
35741W        W 6341  25.161  12.875  13.142
35742W        W 6342   8.856  31.049  12.650
35743W        W 6343  43.833  35.607  11.778
35744W        W 6344  14.289   2.411  12.090
35745W        W 6345   6.179   9.929  11.564
35746W        W 6346   2.446   7.824   4.634
35747W        W 6347  15.661  35.439  13.506
35748W        W 6348  40.905  23.529   3.301
35749W        W 6349   4.785  37.894  11.017
35750W        W 6350  23.279  10.670  13.922
35751W        W 6351   4.631  17.368   3.813
35752W        W 6352   5.224  40.055  10.508
35753W        W 6353  42.930  31.123   4.128
35754W        W 6354  32.535  28.988   5.195
35755W        W 6355  10.709  19.472   3.599
35756W        W 6356   6.949   4.927   3.887
35757W        W 6357  31.174  11.647   2.190
35758W        W 6358  14.382  29.738   3.929
35759W        W 6359  19.139  10.924  13.580
35760W        W 6360  22.682   7.205   4.254
35761W        W 6361  32.479  38.627  12.488
35762W        W 6362  36.920   8.869   2.784
35763W        W 6363  34.985  41.279  10.684
35764W        W 6364  22.036  24.681  12.030
35765W        W 6365  22.992  39.064   3.774
35766W        W 6366  43.363  16.975   2.394
35767W        W 6367  11.297   4.451   2.426
35768W        W 6368   6.448   9.310   3.285
35769W        W 6369   6.715  20.263  10.765
35770W        W 6370  28.757  35.445  11.686
35771W        W 6371   9.402  17.988   2.827
35772W        W 6372  39.364  27.526   3.696
35773W        W 6373  29.862  32.013   0.412
35774W        W 6374  25.523  34.484  10.761
35775W        W 6375  20.186  36.827   1.397
35776W        W 6376  27.233  42.014  11.962
35777W        W 6377  29.872  27.774  11.671
35778W        W 6378  13.358  19.673  13.604
35779W        W 6379   4.692   4.701   4.037
35780W        W 6380  19.558  16.906  13.811
35781W        W 6381  24.661  40.595  13.818
35782W        W 6382   2.082  39.625   0.794
35783W        W 6383  44.229  10.461   0.808
35784W        W 6384  33.018   4.523   0.888
35785W        W 6385  33.468  36.209  10.823
35786W        W 6386  21.023  42.103  11.213
35787W        W 6387   8.159  39.460  13.905
35788W        W 6388  38.013  32.080  14.653
35789W        W 6389  41.551  41.395   4.539
35790W        W 6390  25.558  29.134  13.048
35791W        W 6391  38.562   6.784  12.396
35792W        W 6392  42.405  42.944  13.476
35793W        W 6393  30.379  24.686  12.409
35794W        W 6394   9.111  37.539   0.739
35795W        W 6395  20.783  34.879   1.672
35796W        W 6396  29.615  27.151  14.998
35797W        W 6397  11.843   4.382  14.140
35798W        W 6398   2.184  26.533  10.495
35799W        W 6399   0.090  11.919   1.312
35800W        W 6400   1.244  25.571   4.402
35801W        W 6401  39.508  32.540   3.507
35802W        W 6402  37.448  40.971  13.813
35803W        W 6403  42.274  14.089   3.533
35804W        W 6404  28.059  39.416  10.518
35805W        W 6405  38.759   6.232   2.329
35806W        W 6406  15.075   0.876  10.540
35807W        W 6407  13.687  28.421   1.256
35808W        W 6408  23.057  38.797   0.436
35809W        W 6409  35.573  26.576   0.792
35810W        W 6410  31.366  10.442   1.368
35811W        W 6411  41.066   5.878   1.046
35812W        W 6412  24.637  31.976  11.626
35813W        W 6413  14.762  33.829  14.871
35814W        W 6414   1.193  15.118   3.214
35815W        W 6415  35.529   1.283   3.357
35816W        W 6416  44.888  25.648   4.717
35817W        W 6417  39.479  38.139   0.376
35818W        W 6418  30.642  14.757   3.641
35819W        W 6419  17.311  31.536  13.521
35820W        W 6420  41.551  29.556  13.939
35821W        W 6421  41.418  28.505  12.345
35822W        W 6422  24.204  31.386   1.282
35823W        W 6423  14.799  21.495   0.352
35824W        W 6424  36.491  42.973   0.741
35825W        W 6425  39.308  10.588  13.824
35826W        W 6426  19.599  29.202  14.211
35827W        W 6427  17.085  43.421  12.085
35828W        W 6428  40.828  38.539   0.797
35829W        W 6429   3.429   7.716  12.443
35830W        W 6430   0.958  24.374  11.658
35831W        W 6431   4.643  17.071  12.479
35832W        W 6432  40.311  20.199  13.638
35833W        W 6433   4.679  44.755  13.847
35834W        W 6434  17.684  30.007  10.540
35835W        W 6435  18.725  42.962  12.049
35836W        W 6436  43.748  28.685  14.840
35837W        W 6437  20.075  26.502  14.520
35838W        W 6438  15.358  44.306  12.631
35839W        W 6439   4.073   3.202   3.658
35840W        W 6440  10.781  41.787  13.761
35841W        W 6441  27.431  41.624  13.898
35842W        W 6442   0.418   5.657   1.262
35843W        W 6443  14.343  23.479  11.509
35844W        W 6444  18.568  34.583   0.544
35845W        W 6445  22.399  38.468   3.646
35846W        W 6446  42.435  27.191  13.444
35847W        W 6447   4.185  18.699  13.004
35848W        W 6448  16.236   3.878   3.711
35849W        W 6449  30.863  24.565  11.032
35850W        W 6450  13.898  34.965  14.520
35851W        W 6451  15.772  16.782   2.841
35852W        W 6452  12.016  19.884  12.444
35853W        W 6453  31.918  16.547   2.791
35854W        W 6454   0.735  42.338   2.863
35855W        W 6455  24.017  29.596  13.968
35856W        W 6456  11.191  12.209  14.795
35857W        W 6457   6.747  22.766   3.285
35858W        W 6458  21.650   5.606   2.760
35859W        W 6459  22.483  26.146   4.208
35860W        W 6460  40.013  17.651  13.428
35861W        W 6461  35.503   1.352  11.604
35862W        W 6462  41.950  34.623  14.403
35863W        W 6463   2.389  18.064   2.778
35864W        W 6464  21.728  21.058   1.923
35865W        W 6465   3.058  13.566  13.333
35866W        W 6466  23.634  11.605  12.195
35867W        W 6467  41.425  29.663  12.584
35868W        W 6468  34.529  23.349  11.212
35869W        W 6469  11.100  33.140  10.699
35870W        W 6470  13.226   6.458   1.634
35871W        W 6471  26.663  27.566  11.672
35872W        W 6472   3.682  34.593   2.010
35873W        W 6473  13.804  27.729   3.661
35874W        W 6474   5.398   7.239   0.355
35875W        W 6475  21.064  40.819   3.801
35876W        W 6476  43.946   4.798  12.502
35877W        W 6477  43.018   1.960  11.487
35878W        W 6478  30.734   5.843  14.796
35879W        W 6479  10.912  20.432   2.536
35880W        W 6480  43.822   5.897   4.512
35881W        W 6481  16.693   3.170   1.812
35882W        W 6482  13.686  26.011   1.714
35883W        W 6483  37.839   5.790   1.465
35884W        W 6484   6.097  21.253  10.214
35885W        W 6485  25.097  25.744   2.078
35886W        W 6486  43.948  14.703   0.233
35887W        W 6487   3.369   1.716   0.868
35888W        W 6488  36.511  18.066  14.016
35889W        W 6489   0.991  44.768  13.473
35890W        W 6490  22.913  19.212  12.399
35891W        W 6491  18.394  25.205   5.220
35892W        W 6492   8.104  11.801  14.235
35893W        W 6493  33.853  14.492   0.707
35894W        W 6494  35.470  41.734  12.481
35895W        W 6495  16.096  20.520  14.467
35896W        W 6496  29.127  26.057   3.753
35897W        W 6497  30.441   1.482  13.769
35898W        W 6498  22.622  40.063  13.694
35899W        W 6499   1.379  37.295  10.547
35900W        W 6500  38.748   1.292  12.033
35901W        W 6501  35.811  10.619  12.102
35902W        W 6502  35.924  32.905  12.722
35903W        W 6503  40.708  28.638   4.884
35904W        W 6504   8.298  16.355  14.751
35905W        W 6505  23.153  14.743  10.764
35906W        W 6506  16.727  18.035  14.476
35907W        W 6507   3.831  12.769  10.776
35908W        W 6508  17.830  35.838  12.982
35909W        W 6509  10.855  12.383  13.526
35910W        W 6510   0.515  41.687  14.878
35911W        W 6511  27.529  20.285  13.977
35912W        W 6512  33.646   9.422  14.014
35913W        W 6513  19.620  44.220   3.315
35914W        W 6514   0.263  41.796  12.138
35915W        W 6515  17.795  22.433   3.716
35916W        W 6516  20.247   2.508   4.168
35917W        W 6517  17.747  12.096   0.713
35918W        W 6518  14.001   5.300   0.244
35919W        W 6519  40.865  35.480  10.678
35920W        W 6520  43.057   5.442  14.538
35921W        W 6521  11.388  22.619   3.662
35922W        W 6522  42.342  33.408   3.235
35923W        W 6523  24.145  25.245  10.272
35924W        W 6524  18.687   5.801   4.230
35925W        W 6525  43.737  35.822   1.938
35926W        W 6526  16.141   4.816  14.808
35927W        W 6527  22.252  20.027   0.943
35928W        W 6528   8.359   1.211   4.516
35929W        W 6529   3.757  24.271  12.061
35930W        W 6530  15.101  11.384  10.596
35931W        W 6531  18.721  30.636  14.423
35932W        W 6532   4.955  40.824   3.275
35933W        W 6533  39.097   8.520  11.577
35934W        W 6534  38.476  38.830   1.239
35935W        W 6535  16.303  20.428   4.616
35936W        W 6536  10.639   7.157  12.926
35937W        W 6537  32.834  31.149  11.203
35938W        W 6538  12.174  35.126  14.744
35939W        W 6539  42.132   5.677   2.207
35940W        W 6540  38.889  36.856  11.342
35941W        W 6541  11.193  11.825   4.055
35942W        W 6542  31.595  44.778   1.247
35943W        W 6543  23.952  32.161   4.671
35944W        W 6544  24.794  26.146   3.635
35945W        W 6545  28.459  36.651  13.810
35946W        W 6546   4.100  10.124   2.798
35947W        W 6547  30.790   1.352  12.149
35948W        W 6548  13.234  21.604   3.687
35949W        W 6549  40.835  30.688   0.268
35950W        W 6550  24.386  17.347   4.253
35951W        W 6551  12.771  41.046  11.447
35952W        W 6552   9.863  23.673  13.110
35953W        W 6553  27.118  11.921  12.050
35954W        W 6554  37.049   6.391   4.527
35955W        W 6555  35.900   6.151  12.083
35956W        W 6556  41.425  42.467  10.729
35957W        W 6557  36.496  29.905  11.265
35958W        W 6558   7.746  27.691   1.794
35959W        W 6559   3.954  40.464   1.625
35960W        W 6560   4.294  43.706   2.807
35961W        W 6561  39.013  12.398   3.654
35962W        W 6562  24.673  44.702  13.911
35963W        W 6563  36.378   1.030   3.717
35964W        W 6564  25.142  43.243  13.050
35965W        W 6565  25.322  37.595   3.719
35966W        W 6566  19.795   9.885   0.350
35967W        W 6567  35.157  11.778   1.388
35968W        W 6568  16.572   1.014  10.855
35969W        W 6569  25.699  41.330  14.355
35970W        W 6570  14.881  30.145  12.007
35971W        W 6571  13.618  23.104   3.303
35972W        W 6572   9.940  19.974   1.867
35973W        W 6573  18.504  42.361   3.811
35974W        W 6574  29.159   9.831   4.096
35975W        W 6575  41.812  24.650   1.003
35976W        W 6576   1.207  30.940  13.235
35977W        W 6577  10.210  34.901   2.670
35978W        W 6578   9.876  44.834   3.373
35979W        W 6579  10.537  27.180   4.202
35980W        W 6580  19.188  16.802  12.767
35981W        W 6581   3.670  19.600   4.163
35982W        W 6582  44.220  31.567   2.258
35983W        W 6583  11.586   1.940   4.195
35984W        W 6584   0.376   1.653  14.522
35985W        W 6585  18.021  21.222  11.601
35986W        W 6586  38.766   5.737  12.685
35987W        W 6587   8.672  38.813   1.448
35988W        W 6588  11.253  42.466   1.847
35989W        W 6589   9.323   7.454  14.158
35990W        W 6590  10.702   9.541  13.045
35991W        W 6591  18.277   2.826  12.920
35992W        W 6592   9.679  37.353  13.552
35993W        W 6593  34.087  23.864  11.662
35994W        W 6594  28.106   3.435  12.080
35995W        W 6595  36.524  10.251   0.658
35996W        W 6596  24.240  25.634   3.175
35997W        W 6597  26.586  40.306  13.379
35998W        W 6598  16.108  26.500  14.927
35999W        W 6599  23.341  11.183  13.557
36000W        W 6600  27.050  26.140   2.478
36001W        W 6601  35.996  37.094   2.329
36002W        W 6602  15.438  34.828  14.237
36003W        W 6603  11.722  31.843   3.301
36004W        W 6604  40.825  25.945   2.825
36005W        W 6605  28.570  21.356   0.880
36006W        W 6606  22.952  36.543   1.289
36007W        W 6607  33.495  11.840  14.893
36008W        W 6608  30.586  13.711   4.601
36009W        W 6609  44.762  28.489  14.853
36010W        W 6610  10.406   7.783  14.544
36011W        W 6611  15.218  21.091  11.168
36012W        W 6612  35.583  32.075  12.507
36013W        W 6613  33.566  34.287  10.263
36014W        W 6614  25.112  26.485   1.779
36015W        W 6615  28.608  33.074   4.501
36016W        W 6616  25.614  39.825   1.704
36017W        W 6617  17.621   5.374   0.140
36018W        W 6618   1.705  19.581   0.297
36019W        W 6619  35.557  13.119  13.382
36020W        W 6620  12.122   2.030  13.712
36021W        W 6621  19.745  24.330  12.080
36022W        W 6622   9.741  14.057  10.798
36023W        W 6623  24.364  30.595   1.763
36024W        W 6624  37.328  43.260  14.745
36025W        W 6625  28.960  13.370   4.256
36026W        W 6626   0.753  43.838  11.108
36027W        W 6627   4.725  28.461   4.659
36028W        W 6628  41.988   4.711  12.941
36029W        W 6629  28.752  13.079  12.973
36030W        W 6630  29.588  11.456  12.027
36031W        W 6631  10.148   9.668  12.462
36032W        W 6632  10.762  15.445   4.623
36033W        W 6633  17.345  14.666   0.905
36034W        W 6634  33.014  25.069  12.115
36035W        W 6635  34.037  11.153  13.148
36036W        W 6636  35.148  39.083   3.090
36037W        W 6637  36.033  38.519   2.267
36038W        W 6638   2.690  10.367   0.357
36039W        W 6639  35.088   1.084   3.612
36040W        W 6640  22.214  26.083  12.881
36041W        W 6641   8.881  39.996  14.784
36042W        W 6642  35.281  24.752  14.434
36043W        W 6643  20.297  37.034   0.462
36044W        W 6644  38.150  31.566  14.848
36045W        W 6645  11.690  22.856   0.312
36046W        W 6646  11.213  16.265   2.202
36047W        W 6647  28.066   5.425   1.914
36048W        W 6648  38.950  29.569   0.577
36049W        W 6649  37.287  38.595   0.837
36050W        W 6650  30.418   4.762   0.237
36051W        W 6651   9.387  33.746   2.804
36052W        W 6652  20.533  21.719  10.748
36053W        W 6653  20.631  14.885   2.170
36054W        W 6654  29.218  24.939  14.419
36055W        W 6655  43.940  15.576  11.935
36056W        W 6656  31.876  13.694   0.257
36057W        W 6657  24.469   4.882   4.593
36058W        W 6658   4.881  30.416  13.865
36059W        W 6659   9.750  14.285   0.767
36060W        W 6660   0.337  44.805   1.179
36061W        W 6661  20.669  41.202   2.378
36062W        W 6662   2.559  21.327  14.907
36063W        W 6663  35.139  15.707  14.172
36064W        W 6664  19.675  12.789   1.827
36065W        W 6665  16.981   0.911   0.933
36066W        W 6666   3.920  33.310   3.674
36067W        W 6667  27.663  17.531   2.692
36068W        W 6668  24.430  14.167   3.759
36069W        W 6669  12.275  15.241  11.893
36070W        W 6670  16.036  30.603  12.850
36071W        W 6671   7.958  10.023  13.856
36072W        W 6672  12.281   3.414  13.870
36073W        W 6673  40.297   7.527   2.236
36074W        W 6674  19.727  16.849   2.660
36075W        W 6675  27.691  24.625  14.886
36076W        W 6676  31.069  43.252  12.302
36077W        W 6677   7.750  16.634   4.102
36078W        W 6678   5.479  44.018  13.668
36079W        W 6679  27.134  30.916   3.110
36080W        W 6680  37.626  12.379  11.058
36081W        W 6681  16.411  12.656   4.662
36082W        W 6682  11.707  34.393   1.279
36083W        W 6683   6.414  40.912   1.870
36084W        W 6684  15.231  35.447   1.881
36085W        W 6685   5.978  20.040  14.886
36086W        W 6686   7.296   5.785  14.541
36087W        W 6687  39.364   3.476  14.598
36088W        W 6688  40.278  14.577  13.586
36089W        W 6689  41.811  18.682   1.787
36090W        W 6690  32.871  28.016   2.395
36091W        W 6691  38.401  42.430   4.414
36092W        W 6692  24.334   4.153   2.825
36093W        W 6693  27.774   5.204  11.390
36094W        W 6694   8.345  10.153  13.076
36095W        W 6695  39.013   2.190  11.475
36096W        W 6696  41.244   9.214   3.678
36097W        W 6697  27.934  30.522  10.783
36098W        W 6698   5.533  26.130   3.651
36099W        W 6699  19.800  32.091  11.220
36100W        W 6700  43.930  33.054   4.628
36101W        W 6701  18.206  10.695  10.402
36102W        W 6702   5.200  41.551  13.461
36103W        W 6703   7.368  20.382   0.687
36104W        W 6704  15.568  28.463   2.868
36105W        W 6705   9.606  38.388   1.212
36106W        W 6706  43.264  42.297  14.824
36107W        W 6707  23.751  39.009   2.212
36108W        W 6708  20.101  37.108   4.610
36109W        W 6709  27.168  32.192  11.830
36110W        W 6710   4.933   2.407   0.423
36111W        W 6711  22.596  16.620  13.403
36112W        W 6712   9.655  35.973   2.879
36113W        W 6713   0.918  26.468  14.127
36114W        W 6714  41.889  15.571  13.855
36115W        W 6715  29.448  23.964   0.792
36116W        W 6716  15.270  13.344  14.357
36117W        W 6717   1.709   2.765   3.715
36118W        W 6718   5.660  25.706   4.139
36119W        W 6719  20.745  22.039  11.101
36120W        W 6720   4.707   3.438  10.025
36121W        W 6721   3.482  34.870  14.554
36122W        W 6722  37.562  23.816   1.620
36123W        W 6723  25.208   9.929  10.634
36124W        W 6724  20.038  39.603   2.702
36125W        W 6725   7.258  13.296   4.578
36126W        W 6726  20.019  33.384   0.047
36127W        W 6727  14.282  31.859   3.575
36128W        W 6728   7.234  10.582   1.752
36129W        W 6729   6.606  23.001   2.570
36130W        W 6730   4.532  12.790  13.570
36131W        W 6731  37.016  16.510   4.968
36132W        W 6732  31.565  35.871   2.161
36133W        W 6733   2.950  32.366  13.385
36134W        W 6734   4.437   8.283   3.120
36135W        W 6735  36.911  12.267   0.429
36136W        W 6736  26.923  23.136  13.020
36137W        W 6737  18.639  38.681  10.394
36138W        W 6738  17.110  23.025   4.333
36139W        W 6739  24.406  28.320  11.901
36140W        W 6740  13.643   8.298  11.897
36141W        W 6741  17.382  35.143   2.286
36142W        W 6742  29.035  31.435  11.184
36143W        W 6743  21.585   6.835   2.877
36144W        W 6744  29.069   1.737  12.473
36145W        W 6745  11.360   3.481   3.143
36146W        W 6746  19.735  29.016  12.065
36147W        W 6747  13.812  40.086   2.112
36148W        W 6748   5.890  43.291   3.058
36149W        W 6749  25.524  16.033  13.349
36150W        W 6750  42.714  12.587   4.279
36151W        W 6751  24.056  13.563   0.627
36152W        W 6752  33.070  40.086  11.626
36153W        W 6753  38.818  15.200   5.246
36154W        W 6754   2.218  10.395   2.974
36155W        W 6755  18.009  22.078  12.477
36156W        W 6756  13.058   6.854   2.426
36157W        W 6757   1.947  30.645  12.098
36158W        W 6758   8.692  10.089   1.625
36159W        W 6759   1.663  35.587  12.338
36160W        W 6760  10.928  10.124  13.932
36161W        W 6761   6.807  10.747   2.009
36162W        W 6762  24.092   8.228  11.196
36163W        W 6763   2.401  11.319   1.203
36164W        W 6764   6.366  36.431  11.113
36165W        W 6765  29.581   9.951  11.210
36166W        W 6766  18.229   0.158  14.490
36167W        W 6767  34.586  27.196   0.061
36168W        W 6768   1.335  36.765  11.400
36169W        W 6769  10.331  21.639   5.075
36170W        W 6770  25.113  38.127  13.546
36171W        W 6771  34.889  22.268   0.873
36172W        W 6772  24.978  41.606   1.344
36173W        W 6773  35.258  42.656   4.566
36174W        W 6774  26.396  24.007  11.550
36175W        W 6775  37.831   9.665  11.506
36176W        W 6776  14.775   0.788   1.176
36177W        W 6777   2.179   3.306  12.521
36178W        W 6778  12.747   9.448  14.044
36179W        W 6779   6.317   7.768   0.314
36180W        W 6780  43.397  32.586   3.662
36181W        W 6781   7.709  29.540   0.549
36182W        W 6782  40.858  42.890   2.321
36183W        W 6783  28.112  40.625  12.181
36184W        W 6784  19.840  36.593  12.581
36185W        W 6785   9.421  37.936   0.623
36186W        W 6786  12.333  13.611  11.178
36187W        W 6787  22.620  31.002  11.718
36188W        W 6788   1.803  15.274  13.449
36189W        W 6789  35.116  44.891   1.407
36190W        W 6790  39.955  29.709   4.933
36191W        W 6791  35.470  20.774   1.246
36192W        W 6792  16.615  16.551   3.243
36193W        W 6793  16.628  44.705   0.947
36194W        W 6794  43.561  28.761   0.328
36195W        W 6795  34.778  41.602  12.855
36196W        W 6796  27.944  43.249   1.702
36197W        W 6797  10.583  29.504   3.769
36198W        W 6798  44.468  13.882   1.891
36199W        W 6799   2.959  12.334  11.971
36200W        W 6800  28.378  40.890  10.925
36201W        W 6801   7.801  43.055  13.497
36202W        W 6802  36.443  21.093   4.979
36203W        W 6803  27.380  33.513  14.452
36204W        W 6804  43.989  12.441   1.660
36205W        W 6805  12.682  31.911   4.253
36206W        W 6806  43.530  12.964  11.995
36207W        W 6807  41.352  17.271  11.587
36208W        W 6808  17.609  22.726  12.066
36209W        W 6809   0.775  15.679   1.839
36210W        W 6810  19.209  20.242  12.681
36211W        W 6811  29.591  27.998  12.495
36212W        W 6812  30.603  36.819   4.136
36213W        W 6813  35.794  44.002   1.838
36214W        W 6814   6.369  38.917  14.775
36215W        W 6815  35.063  26.563   1.713
36216W        W 6816  37.045  32.182   1.875
36217W        W 6817   8.434  20.510  12.764
36218W        W 6818  14.060   9.745   2.301
36219W        W 6819  37.958  40.828   2.273
36220W        W 6820  23.874  32.039   3.777
36221W        W 6821  16.298  34.158  13.898
36222W        W 6822  20.130  25.084  11.541
36223W        W 6823   6.263   0.717  12.219
36224W        W 6824  31.063  14.361   1.798
36225W        W 6825  30.952  21.049   4.994
36226W        W 6826  43.329  17.070   4.625
36227W        W 6827  43.019  11.407   3.199
36228W        W 6828  34.379  37.519  11.580
36229W        W 6829  11.336  23.455   0.805
36230W        W 6830  13.182   8.618  10.705
36231W        W 6831  42.902   0.288  12.006
36232W        W 6832  36.213  35.000   1.990
36233W        W 6833  41.897  24.402   4.175
36234W        W 6834   5.776   2.473   4.327
36235W        W 6835  40.320  37.551   0.628
36236W        W 6836  36.066  27.569   1.778
36237W        W 6837  42.528   0.475  12.354
36238W        W 6838  22.203  27.564   2.183
36239W        W 6839  17.374  16.394  11.200
36240W        W 6840  43.472   8.868  13.057
36241W        W 6841  15.417   6.230  12.949
36242W        W 6842  27.999   4.843  14.888
36243W        W 6843  35.095  39.621  14.860
36244W        W 6844   8.152  34.657   3.700
36245W        W 6845  30.245  27.577   1.251
36246W        W 6846  14.862  17.006  14.042
36247W        W 6847  14.765   4.990   2.901
36248W        W 6848  15.370  31.391   1.887
36249W        W 6849  14.370  34.155  14.898
36250W        W 6850  26.399  29.950  13.039
36251W        W 6851  19.721  35.939  11.098
36252W        W 6852  40.347  34.152   0.440
36253W        W 6853  37.527  31.020   0.932
36254W        W 6854   9.347   2.603  13.871
36255W        W 6855  21.587  17.616  12.600
36256W        W 6856  13.720  30.846  12.077
36257W        W 6857  35.498  42.500   3.664
36258W        W 6858   2.245  35.830   0.340
36259W        W 6859  40.895  25.159   2.626
36260W        W 6860   0.484  20.780  14.480
36261W        W 6861  39.748  17.456   2.230
36262W        W 6862  23.241  41.447   1.384
36263W        W 6863  26.787  16.561  12.984
36264W        W 6864  28.658  37.500   1.731
36265W        W 6865  15.114  13.510   2.041
36266W        W 6866   0.235  14.624  13.405
36267W        W 6867   4.423  32.319  11.172
36268W        W 6868  23.074  40.850  11.813
36269W        W 6869  39.881   9.724   4.754
36270W        W 6870  27.398  23.970   0.896
36271W        W 6871  42.212   1.272  13.116
36272W        W 6872  32.358  19.850  11.624
36273W        W 6873  32.391  43.440   4.535
36274W        W 6874  30.930  16.886   2.672
36275W        W 6875  23.588  29.613  14.858
36276W        W 6876  33.192  12.157   0.233
36277W        W 6877   9.273  30.317  12.151
36278W        W 6878  39.851  28.672  11.316
36279W        W 6879  28.180  18.653  13.487
36280W        W 6880  34.132  15.698  14.477
36281W        W 6881  28.930  18.218  11.619
36282W        W 6882  14.653   2.031  14.785
36283W        W 6883  12.350   2.690  13.060
36284W        W 6884  14.085   5.465  14.281
36285W        W 6885  21.260   0.334   2.703
36286W        W 6886   6.405  28.367   2.688
36287W        W 6887  33.646  35.863  11.681
36288W        W 6888  41.372  32.022  12.068
36289W        W 6889  36.677  20.833   3.968
36290W        W 6890  21.283  14.250   1.356
36291W        W 6891   5.776  26.284  14.732
36292W        W 6892  44.523   1.866  10.264
36293W        W 6893  38.519  27.462   2.373
36294W        W 6894  10.100  25.998  13.379
36295W        W 6895  20.245  15.736   3.573
36296W        W 6896  31.906  11.779  12.878
36297W        W 6897   5.837  23.431  11.986
36298W        W 6898  43.841  39.069   3.274
36299W        W 6899  37.366  22.918   3.820
36300W        W 6900   5.414  16.987  13.350
36301W        W 6901   4.370   9.719  13.719
36302W        W 6902  19.957  33.170  11.048
36303W        W 6903  15.625   4.781  12.937
36304W        W 6904  11.862  13.023   4.119
36305W        W 6905   3.296   5.438   2.283
36306W        W 6906  22.205  28.736  12.427
36307W        W 6907  44.214  30.948  13.414
36308W        W 6908  27.769  17.770  14.574
36309W        W 6909  35.716  23.497   2.717
36310W        W 6910  27.081  21.594   0.696
36311W        W 6911  10.533   8.887   0.244
36312W        W 6912   3.756   7.324   2.435
36313W        W 6913  26.532  14.858  14.925
36314W        W 6914  23.490  42.776  10.571
36315W        W 6915  42.297  31.386   3.107
36316W        W 6916  20.720  42.058   2.708
36317W        W 6917   0.457   6.379   4.163
36318W        W 6918  22.522  28.348   3.296
36319W        W 6919  19.533  21.087   4.638
36320W        W 6920  26.507  15.164   3.567
36321W        W 6921  24.122  27.032   1.373
36322W        W 6922  22.240  35.279   2.587
36323W        W 6923  20.443   5.374   0.948
36324W        W 6924  30.084  36.941  11.005
36325W        W 6925   9.068  17.684   0.479
36326W        W 6926  24.153  39.567  13.094
36327W        W 6927  25.998  37.636   2.242
36328W        W 6928  20.245  24.170  11.549
36329W        W 6929   0.908  28.632   1.844
36330W        W 6930   9.213   5.676  10.551
36331W        W 6931  18.932   7.369  12.970
36332W        W 6932   5.293  39.549   4.617
36333W        W 6933  35.439  18.104  14.002
36334W        W 6934   9.878  29.891   0.532
36335W        W 6935   6.925  34.224  13.960
36336W        W 6936  15.328  21.799  10.020
36337W        W 6937  28.361   9.227  14.454
36338W        W 6938  10.943  16.979  11.010
36339W        W 6939  25.703  30.370  12.462
36340W        W 6940  23.908   1.677   0.240
36341W        W 6941   4.688  43.236  11.138
36342W        W 6942  10.472  31.004  10.670
36343W        W 6943  33.194  10.649   1.645
36344W        W 6944   8.092  41.076  10.772
36345W        W 6945  35.813   8.277  11.544
36346W        W 6946  28.847  30.667   4.474
36347W        W 6947   5.382  13.231   3.221
36348W        W 6948   3.383   6.684  11.124
36349W        W 6949  33.635   0.594   9.783
36350W        W 6950  28.088   4.173   0.847
36351W        W 6951  22.121  20.231  13.962
36352W        W 6952  13.700  26.295  14.337
36353W        W 6953  40.906  22.659   1.924
36354W        W 6954  42.355   7.008  14.293
36355W        W 6955  19.729   0.879   4.627
36356W        W 6956  27.081  28.877  11.519
36357W        W 6957  14.343  35.891  13.605
36358W        W 6958  18.320   9.270  12.479
36359W        W 6959  34.880  30.906  11.435
36360W        W 6960   1.824   2.315  14.708
36361W        W 6961  24.494  14.761  14.047
36362W        W 6962  16.942  21.741  14.765
36363W        W 6963  24.580  29.132   4.750
36364W        W 6964   1.761  19.214   4.526
36365W        W 6965  37.015  27.838  14.089
36366W        W 6966   6.365  41.645   3.819
36367W        W 6967  44.569  14.298  14.888
36368W        W 6968   4.849   5.934  14.440
36369W        W 6969  34.511  17.725   2.386
36370W        W 6970  10.687  11.443  10.719
36371W        W 6971  44.373   9.033  13.309
36372W        W 6972  21.673  41.545  10.947
36373W        W 6973  25.937  36.979   1.061
36374W        W 6974  21.494  11.128  11.879
36375W        W 6975  11.661  10.591  10.687
36376W        W 6976  23.136  22.653   0.812
36377W        W 6977  33.882  14.275  13.478
36378W        W 6978   3.556  31.758   3.182
36379W        W 6979  40.903  39.319   0.708
36380W        W 6980  39.828  38.336   0.706
36381W        W 6981  42.038  39.393  13.025
36382W        W 6982  40.093  43.950  14.365
36383W        W 6983  12.758  19.297   2.708
36384W        W 6984  44.747   3.830  12.165
36385W        W 6985  33.590  20.889   3.747
36386W        W 6986  42.379  11.107  14.291
36387W        W 6987  16.409  22.635  13.500
36388W        W 6988   8.176  27.296   3.233
36389W        W 6989  42.071   0.195   2.758
36390W        W 6990  11.657   5.243  14.954
36391W        W 6991   1.404  32.586   1.350
36392W        W 6992  22.554   5.524  10.698
36393W        W 6993   9.237   5.357  11.770
36394W        W 6994   0.457  33.806   2.751
36395W        W 6995  22.028   9.600  11.120
36396W        W 6996  14.265  19.615  13.552
36397W        W 6997  43.291  20.334   3.151
36398W        W 6998   2.263  24.616  14.742
36399W        W 6999  39.364  20.645   0.102
36400W        W 7000  15.787   6.329  11.153
36401W        W 7001  17.859  35.973   1.865
36402W        W 7002  30.518  31.447   3.262
36403W        W 7003  25.585  16.359  14.906
36404W        W 7004   0.201  25.108   3.214
36405W        W 7005  35.603   7.811  12.628
36406W        W 7006  26.122   4.417   3.170
36407W        W 7007  15.300   3.210  13.312
36408W        W 7008  32.673  35.027   1.622
36409W        W 7009  43.356  25.926  13.757
36410W        W 7010   4.331  29.547  10.625
36411W        W 7011  38.784  18.084   4.458
36412W        W 7012   1.773   5.794   0.881
36413W        W 7013  14.237   3.902   2.450
36414W        W 7014  27.244  14.180   1.510
36415W        W 7015   1.671  24.648  10.999
36416W        W 7016  34.361  21.121  11.427
36417W        W 7017   4.436  23.952  11.002
36418W        W 7018  25.009  18.998  13.677
36419W        W 7019  10.476  20.505   2.800
36420W        W 7020   1.447   8.122  10.689
36421W        W 7021  13.168  20.459   2.801
36422W        W 7022   2.398  33.225  11.973
36423W        W 7023  25.423  42.986  14.887
36424W        W 7024  24.715  28.672  13.259
36425W        W 7025   7.244  27.892  10.410
36426W        W 7026  42.241  42.694  14.022
36427W        W 7027  18.755  23.801  12.658
36428W        W 7028   5.809  18.552   4.216
36429W        W 7029   5.333  26.937  14.324
36430W        W 7030  21.723  32.613  12.503
36431W        W 7031  26.475   9.643  11.954
36432W        W 7032  23.210   3.437   1.506
36433W        W 7033   4.562   8.146   0.692
36434W        W 7034  26.397  26.117  11.268
36435W        W 7035  30.054   5.700  14.032
36436W        W 7036  31.302  43.508   2.300
36437W        W 7037  44.361   4.725   3.363
36438W        W 7038  23.250   7.647  13.929
36439W        W 7039  36.102  25.542   1.283
36440W        W 7040  32.428  28.900   0.715
36441W        W 7041  31.316   1.884   3.240
36442W        W 7042  34.653  27.556   4.700
36443W        W 7043  41.812  27.975  14.323
36444W        W 7044  30.451  24.709   3.617
36445W        W 7045  14.846  28.664  10.928
36446W        W 7046  39.227  23.648   1.996
36447W        W 7047   0.826  28.084   4.143
36448W        W 7048  35.304   0.385   4.118
36449W        W 7049   7.583   1.301  11.547
36450W        W 7050  12.044  38.330   2.092
36451W        W 7051  15.873  42.294   0.922
36452W        W 7052  39.878  35.399   0.457
36453W        W 7053  25.377  18.711  14.992
36454W        W 7054   1.334  44.203  12.006
36455W        W 7055  26.598   0.109   1.450
36456W        W 7056  33.023  40.464   1.182
36457W        W 7057   7.628  27.287   2.322
36458W        W 7058  11.125   2.810   4.129
36459W        W 7059  10.233  26.167  14.505
36460W        W 7060  37.335  20.535   2.971
36461W        W 7061  12.758  39.193   3.690
36462W        W 7062  11.147  23.066   3.710
36463W        W 7063  22.392  21.043   1.186
36464W        W 7064  25.203  15.419   4.959
36465W        W 7065  40.420  26.376   3.635
36466W        W 7066  37.476  20.040   1.751
36467W        W 7067  10.845  25.453   2.927
36468W        W 7068  19.857  16.588   4.587
36469W        W 7069   5.943  21.853   0.024
36470W        W 7070  23.412   0.049   0.836
36471W        W 7071   3.768  26.223  14.821
36472W        W 7072  17.023   3.176  12.801
36473W        W 7073   6.130  11.128  13.761
36474W        W 7074  14.151  39.767  10.396
36475W        W 7075  39.948  31.977  12.016
36476W        W 7076  34.068  38.591  14.327
36477W        W 7077  29.528  24.504   0.777
36478W        W 7078  35.628  10.178  12.798
36479W        W 7079  40.340   3.768  10.374
36480W        W 7080  14.951  17.359  10.997
36481W        W 7081  42.592  12.636  11.139
36482W        W 7082  18.446  34.831  13.576
36483W        W 7083  31.140  32.354  11.038
36484W        W 7084  16.593  35.960  14.172
36485W        W 7085  33.342  16.276   1.799
36486W        W 7086  14.051  25.494   2.767
36487W        W 7087  10.834  32.170  12.885
36488W        W 7088  40.890   9.806   2.410
36489W        W 7089   1.329  44.498   1.943
36490W        W 7090   1.922  25.820   3.227
36491W        W 7091  44.305  36.286  14.493
36492W        W 7092  29.167  40.107  13.277
36493W        W 7093  30.363  11.421  13.537
36494W        W 7094  21.210  32.919   1.789
36495W        W 7095   4.091  10.923  13.351
36496W        W 7096  11.713   9.851  12.923
36497W        W 7097   8.924   3.033   0.539
36498W        W 7098  12.130  20.788   3.611
36499W        W 7099  33.028  36.983   0.676
36500W        W 7100  21.898  14.157  12.038
36501W        W 7101   6.167  39.294   2.595
36502W        W 7102   1.957  10.048   1.192
36503W        W 7103   5.868  32.411  14.242
36504W        W 7104  21.705  19.094   1.920
36505W        W 7105  25.990  37.789   2.736
36506W        W 7106  21.023   1.835   1.270
36507W        W 7107   4.817  30.840  11.607
36508W        W 7108   3.416  43.055   0.737
36509W        W 7109   4.285  34.387   2.651
36510W        W 7110  38.335  37.967  10.594
36511W        W 7111  16.297  31.336   1.568
36512W        W 7112  37.467  29.230   3.256
36513W        W 7113  42.105  19.620   9.786
36514W        W 7114  10.874  30.988  12.915
36515W        W 7115  37.955   9.255   3.146
36516W        W 7116   6.671  32.026   3.676
36517W        W 7117   2.543  26.875  11.823
36518W        W 7118   4.744   8.772  10.675
36519W        W 7119  26.675   2.540   2.268
36520W        W 7120  24.122  28.260  12.395
36521W        W 7121  42.450  26.472   3.123
36522W        W 7122  31.010  25.146  10.419
36523W        W 7123   9.327   8.698  11.513
36524W        W 7124  12.216  16.075  13.388
36525W        W 7125  11.118   6.250   0.308
36526W        W 7126  41.378   6.258   1.194
36527W        W 7127  12.717  15.570  12.900
36528W        W 7128  26.133  23.020  12.221
36529W        W 7129  41.831   0.110   1.797
36530W        W 7130   0.487  19.149   0.714
36531W        W 7131  43.039  36.765  14.376
36532W        W 7132  10.284  34.117   3.214
36533W        W 7133  28.390  28.719  11.564
36534W        W 7134  41.201  32.161  13.455
36535W        W 7135   2.792   8.409   2.358
36536W        W 7136   7.779  14.362   4.099
36537W        W 7137  40.529  28.498  14.701
36538W        W 7138   8.180  37.207  13.200
36539W        W 7139  32.908  35.833  14.898
36540W        W 7140  36.487   3.800  14.510
36541W        W 7141  36.632   5.811   4.757
36542W        W 7142   1.525  21.719  12.453
36543W        W 7143  31.575   6.486  11.486
36544W        W 7144  13.494   7.322   5.073
36545W        W 7145  31.917  32.953  12.491
36546W        W 7146  34.824  32.558   4.000
36547W        W 7147   8.460   0.376  11.211
36548W        W 7148  37.927  12.372   4.630
36549W        W 7149  10.832   1.251   0.365
36550W        W 7150  43.397  32.610  11.068
36551W        W 7151  11.431  20.694   4.760
36552W        W 7152  35.510  16.829   1.796
36553W        W 7153  33.492  27.117  10.568
36554W        W 7154   7.131  15.572  11.641
36555W        W 7155  11.907   5.700  12.368
36556W        W 7156   4.304  23.435  10.989
36557W        W 7157  19.662  23.655   4.495
36558W        W 7158  27.149   6.869  14.990
36559W        W 7159  34.023   8.936  12.058
36560W        W 7160   9.549  11.720   1.811
36561W        W 7161   5.087  26.739   1.992
36562W        W 7162  40.586  28.651  11.968
36563W        W 7163  13.241  22.661   2.167
36564W        W 7164  12.385  21.465   4.277
36565W        W 7165  20.716   2.240  12.117
36566W        W 7166  25.961  31.914   3.976
36567W        W 7167  15.009  18.319  14.813
36568W        W 7168  31.433   9.319  10.774
36569W        W 7169  38.385  35.632   2.671
36570W        W 7170  30.049  13.701   4.606
36571W        W 7171   1.258  39.621   3.655
36572W        W 7172  13.111  34.045  12.391
36573W        W 7173   3.796  13.563  10.393
36574W        W 7174  31.375  24.309   3.327
36575W        W 7175  22.401  20.220   2.798
36576W        W 7176  23.385   4.960   0.599
36577W        W 7177  26.781  36.108   2.840
36578W        W 7178  12.076  12.545  11.930
36579W        W 7179  21.106   4.043  12.537
36580W        W 7180  25.440  10.699   4.277
36581W        W 7181  42.297  17.798   0.134
36582W        W 7182   8.140  29.199   0.908
36583W        W 7183  38.772   9.338  12.407
36584W        W 7184  30.698  42.321   3.200
36585W        W 7185  44.698  29.921   1.265
36586W        W 7186  40.412  22.642   2.244
36587W        W 7187  23.256  15.666   1.876
36588W        W 7188  44.804   8.123   2.834
36589W        W 7189  18.330  14.314  12.020
36590W        W 7190  21.601   1.235  11.628
36591W        W 7191  12.825  10.479  13.994
36592W        W 7192  30.359  38.612   0.523
36593W        W 7193   6.898  11.885   1.476
36594W        W 7194  21.020  34.490   1.919
36595W        W 7195  15.661   2.365   1.204
36596W        W 7196  12.136   0.556   3.185
36597W        W 7197  15.572  43.244  13.504
36598W        W 7198  12.216  27.177  12.449
36599W        W 7199  27.548  34.747  14.471
36600W        W 7200  13.081  32.472  11.554
36601W        W 7201   6.247  19.138   0.279
36602W        W 7202  13.062  18.177  11.204
36603W        W 7203  15.687  31.985  10.209
36604W        W 7204  19.775  13.255  10.441
36605W        W 7205  30.109  18.129   0.095
36606W        W 7206  18.511  18.694  12.956
36607W        W 7207  41.064   3.338  13.896
36608W        W 7208   6.639  20.589  12.045
36609W        W 7209  31.568   4.158   4.585
36610W        W 7210  40.781  30.962  11.670
36611W        W 7211  29.859  34.597  10.640
36612W        W 7212  20.936   3.281  10.319
36613W        W 7213  17.074  19.977  14.706
36614W        W 7214  19.859  39.959   4.632
36615W        W 7215  18.560  19.615  11.823
36616W        W 7216  27.191  40.543  10.565
36617W        W 7217  12.842  26.440   0.355
36618W        W 7218  24.380   1.014   4.950
36619W        W 7219  34.298   8.154  14.556
36620W        W 7220  16.805   5.893   2.104
36621W        W 7221  14.844  39.741   0.971
36622W        W 7222  29.047  16.863  11.519
36623W        W 7223  10.827   6.245  11.238
36624W        W 7224  29.018  24.996   2.689
36625W        W 7225  10.210  11.995  12.495
36626W        W 7226   8.704  17.492  12.524
36627W        W 7227  25.652  15.326  12.986
36628W        W 7228  13.325   6.454   2.648
36629W        W 7229  40.990  34.701   2.186
36630W        W 7230  27.510  15.310  12.403
36631W        W 7231  38.761  33.987   4.315
36632W        W 7232  14.600   4.901   4.253
36633W        W 7233  23.117   0.493  12.112
36634W        W 7234  17.219  24.703   0.373
36635W        W 7235   3.332   8.322  13.260
36636W        W 7236  40.118  21.166  13.033
36637W        W 7237  14.068  36.484   3.514
36638W        W 7238  20.410   4.378   0.331
36639W        W 7239  23.654   5.319   2.207
36640W        W 7240  39.901  37.965   4.463
36641W        W 7241   2.917  29.505   3.986
36642W        W 7242   0.278  17.671  12.062
36643W        W 7243  40.809   2.398   4.168
36644W        W 7244  15.120  15.507   2.696
36645W        W 7245  33.343  18.813  11.609
36646W        W 7246  16.318  37.040  13.998
36647W        W 7247  40.683  13.267   4.822
36648W        W 7248  32.343  21.718   1.616
36649W        W 7249  36.906   3.960   2.740
36650W        W 7250   5.967  36.941   0.211
36651W        W 7251   8.799   4.406   0.294
36652W        W 7252  10.242  40.874   2.075
36653W        W 7253  17.376  16.631   2.111
36654W        W 7254  29.541  36.397  10.456
36655W        W 7255  27.628   0.998  14.917
36656W        W 7256  41.066  43.111   1.499
36657W        W 7257  38.590  17.327  11.982
36658W        W 7258  39.369  15.881   0.566
36659W        W 7259   8.233  11.841   1.458
36660W        W 7260  17.246  38.273   0.650
36661W        W 7261   0.682  17.768   4.460
36662W        W 7262  23.302   1.596   3.630
36663W        W 7263   5.356  31.392  14.546
36664W        W 7264   1.886  40.545   2.433
36665W        W 7265  44.002   4.815   1.853
36666W        W 7266  12.291  11.511  11.201
36667W        W 7267  38.013  11.788   2.900
36668W        W 7268  21.025  19.792  11.980
36669W        W 7269  13.290  25.076  12.929
36670W        W 7270  28.191  25.225  12.755
36671W        W 7271  33.707  29.669   2.476
36672W        W 7272  38.040  20.759  10.815
36673W        W 7273  28.350  25.220   3.883
36674W        W 7274   0.687  30.818  14.247
36675W        W 7275  11.785  25.022  14.468
36676W        W 7276  11.772  21.570  10.053
36677W        W 7277  40.709  11.913   2.589
36678W        W 7278   3.245  44.225  12.906
36679W        W 7279  38.772  43.315   0.207
36680W        W 7280  33.078   0.446   1.778
36681W        W 7281  24.147  16.157  11.748
36682W        W 7282  34.354  17.171  11.992
36683W        W 7283  21.050  13.355   1.313
36684W        W 7284  12.769   9.107  13.106
36685W        W 7285   5.060  33.870   1.205
36686W        W 7286  42.306  39.356   1.966
36687W        W 7287  30.826  21.198   3.152
36688W        W 7288  32.837  39.754   1.508
36689W        W 7289  13.912  12.514   2.471
36690W        W 7290  28.938   9.748   4.547
36691W        W 7291  35.837  14.375   1.271
36692W        W 7292  40.685  25.507  14.571
36693W        W 7293  21.119  17.686  13.923
36694W        W 7294   4.828  11.378   0.028
36695W        W 7295  31.316  36.987  14.273
36696W        W 7296   9.634  42.250  11.602
36697W        W 7297  34.003  19.320   4.311
36698W        W 7298  33.964  27.596  13.408
36699W        W 7299  20.678  31.059   3.422
36700W        W 7300  34.461  22.955  14.444
36701W        W 7301  22.428  32.056   4.779
36702W        W 7302   4.358   9.994   2.148
36703W        W 7303  12.842   8.749   2.140
36704W        W 7304  43.282  34.274  13.798
36705W        W 7305   3.256  39.313  10.730
36706W        W 7306  37.912  11.156   4.167
36707W        W 7307  39.631   6.478  14.322
36708W        W 7308  43.837  18.800  13.118
36709W        W 7309  25.447  22.560  12.218
36710W        W 7310  21.255  37.838   3.200
36711W        W 7311  20.900  19.773   4.953
36712W        W 7312   4.482   5.113  14.618
36713W        W 7313  15.710  41.884   4.465
36714W        W 7314  16.349  34.630   1.128
36715W        W 7315   7.412  21.502   4.582
36716W        W 7316  43.518  28.255  11.646
36717W        W 7317   1.933  27.914   0.266
36718W        W 7318  23.190   0.267  12.606
36719W        W 7319   7.637   1.556  12.440
36720W        W 7320   0.810  16.545   3.084
36721W        W 7321   7.160   2.336   4.499
36722W        W 7322  19.449   8.916   3.575
36723W        W 7323  34.161   3.615   1.802
36724W        W 7324  11.906  14.087  13.759
36725W        W 7325  24.137  30.586   3.933
36726W        W 7326  31.662  43.052   4.531
36727W        W 7327  37.953  37.387  13.221
36728W        W 7328   3.895   8.353   0.369
36729W        W 7329  37.825  31.830  12.705
36730W        W 7330  10.701  35.654  14.419
36731W        W 7331   3.812  30.133   0.910
36732W        W 7332  24.192   2.417   4.617
36733W        W 7333  37.054  24.621  14.394
36734W        W 7334   0.410  34.327  12.974
36735W        W 7335   9.107  15.050   3.675
36736W        W 7336  44.533  29.005  13.646
36737W        W 7337   8.098  20.512   2.108
36738W        W 7338   1.007  20.487  12.079
36739W        W 7339  25.863   4.192   0.694
36740W        W 7340  34.105   8.405  11.178
36741W        W 7341  27.484  27.143  13.848
36742W        W 7342  21.885  21.630  12.061
36743W        W 7343  39.762  39.833   3.657
36744W        W 7344   2.013   6.252   0.770
36745W        W 7345  20.505   0.253   2.375
36746W        W 7346  28.627  16.621  13.580
36747W        W 7347   5.249   3.686   4.265
36748W        W 7348  30.945   4.742  10.770
36749W        W 7349  13.686   7.625   1.295
36750W        W 7350  34.981  10.854   1.187
36751W        W 7351  29.520  14.513   4.970
36752W        W 7352  38.091  13.261   1.455
36753W        W 7353  35.624  34.622  11.031
36754W        W 7354  42.298  34.999  13.635
36755W        W 7355  19.754  23.622  13.472
36756W        W 7356  32.599   3.735   1.931
36757W        W 7357  15.338  29.641  10.629
36758W        W 7358  35.982   8.680   0.454
36759W        W 7359  13.809  36.547   1.922
36760W        W 7360  28.773   0.870   2.740
36761W        W 7361  21.110  29.332  12.091
36762W        W 7362  21.220   2.422  14.741
36763W        W 7363   3.734   4.725  11.157
36764W        W 7364   9.961  39.903   0.199
36765W        W 7365  24.686  18.140  14.837
36766W        W 7366  30.240  44.238  13.286
36767W        W 7367  11.550   9.446  12.342
36768W        W 7368   8.568  22.748   0.902
36769W        W 7369  17.469  41.929   3.148
36770W        W 7370  40.969  29.141  13.087
36771W        W 7371  10.849   7.665  11.708
36772W        W 7372  13.735  32.960  14.507
36773W        W 7373  28.844   3.022  11.956
36774W        W 7374  11.935  29.969  13.021
36775W        W 7375  31.936   5.476  13.903
36776W        W 7376  10.619   5.335   3.196
36777W        W 7377  28.996  38.958   3.636
36778W        W 7378  24.427   4.472  14.271
36779W        W 7379  12.726   6.403  12.456
36780W        W 7380  39.013  20.622   0.494
36781W        W 7381  35.518  16.047   0.872
36782W        W 7382  34.361  31.025   2.407
36783W        W 7383   7.109  18.292  12.429
36784W        W 7384  14.127  10.530   3.763
36785W        W 7385   5.747  26.744  10.937
36786W        W 7386  40.800  35.544   2.709
36787W        W 7387  13.688   4.500  12.991
36788W        W 7388  25.144  44.322   2.840
36789W        W 7389   1.804  36.665   2.759
36790W        W 7390  44.739  28.992   3.625
36791W        W 7391  15.063  28.073   4.628
36792W        W 7392  26.904  13.108   0.300
36793W        W 7393  43.346  42.626  12.956
36794W        W 7394  24.841  12.667   3.413
36795W        W 7395   7.140  10.602  11.304
36796W        W 7396  31.600  42.006   2.865
36797W        W 7397  29.415  35.793  11.117
36798W        W 7398  14.570  40.549  10.421
36799W        W 7399  41.315   2.343   0.338
36800W        W 7400  42.084   8.372   1.274
36801W        W 7401   1.700  36.294   0.976
36802W        W 7402  17.461  35.217   5.551
36803W        W 7403  21.540  25.967   4.725
36804W        W 7404  26.093   9.840  12.826
36805W        W 7405  30.907   9.399   2.130
36806W        W 7406  14.240  39.010   1.190
36807W        W 7407  42.073  12.610  14.403
36808W        W 7408  33.571  31.435  13.143
36809W        W 7409  20.557  38.826  13.794
36810W        W 7410   3.941  36.179  10.330
36811W        W 7411  20.991  31.587   0.324
36812W        W 7412  37.343  30.684  12.476
36813W        W 7413  26.521  20.271   1.719
36814W        W 7414   5.429  17.577  11.703
36815W        W 7415  19.674  34.898   4.507
36816W        W 7416   9.364   0.842   3.662
36817W        W 7417  41.760   2.474   4.823
36818W        W 7418   6.883   1.807   4.773
36819W        W 7419   7.249  12.506   1.977
36820W        W 7420   3.776  17.674   3.904
36821W        W 7421  37.360  17.510  12.914
36822W        W 7422  21.860  19.361  13.853
36823W        W 7423  18.445  21.795   3.602
36824W        W 7424  41.840  31.400  13.993
36825W        W 7425  13.809   3.679   2.207
36826W        W 7426  19.125  17.857   1.243
36827W        W 7427  15.690  12.518   4.739
36828W        W 7428  33.602  43.328  11.242
36829W        W 7429  11.204  26.677  14.940
36830W        W 7430  22.114  43.013  12.132
36831W        W 7431  16.224  20.055  12.371
36832W        W 7432  40.563  12.270   5.074
36833W        W 7433  41.349  11.275   0.930
36834W        W 7434  44.834   4.808   1.468
36835W        W 7435  20.117  42.393  13.031
36836W        W 7436  34.759  25.666  13.661
36837W        W 7437   7.720  24.207   4.312
36838W        W 7438  25.552  34.801  14.476
36839W        W 7439   6.321  41.227   1.415
36840W        W 7440   4.778   0.418   2.951
36841W        W 7441  23.607   2.295   0.361
36842W        W 7442  23.269  12.630  13.353
36843W        W 7443   6.911  29.421   4.380
36844W        W 7444  27.601  15.887   1.770
36845W        W 7445  43.996  43.849   2.677
36846W        W 7446   1.859  34.543  13.769
36847W        W 7447  39.770  42.568   0.087
36848W        W 7448  34.156  32.972  11.947
36849W        W 7449  15.533  30.130   1.758
36850W        W 7450  28.135  36.062  12.187
36851W        W 7451   3.222   7.151  13.822
36852W        W 7452  17.325  40.729  13.560
36853W        W 7453  16.075  24.953  12.663
36854W        W 7454  23.951  21.392  10.159
36855W        W 7455  26.414  43.383  14.353
36856W        W 7456  36.695  35.826  13.499
36857W        W 7457   5.477  16.200   2.800
36858W        W 7458  38.121  31.977  10.411
36859W        W 7459  23.573  11.983  13.902
36860W        W 7460  37.133  22.903   1.447
36861W        W 7461  13.535  35.009   3.145
36862W        W 7462  38.396  34.500   2.444
36863W        W 7463  37.967  39.362   0.315
36864W        W 7464  29.881  17.600   3.064
36865W        W 7465  24.679  15.817   1.732
36866W        W 7466   6.584  20.234   2.984
36867W        W 7467  41.859  43.996  12.982
36868W        W 7468   1.272  39.587  14.119
36869W        W 7469  39.365  36.080   0.180
36870W        W 7470   2.917  44.247   1.914
36871W        W 7471  10.341  18.114   4.308
36872W        W 7472  25.713  39.631   3.396
36873W        W 7473  14.974   8.976  14.040
36874W        W 7474  16.398  21.547  13.674
36875W        W 7475   0.184  35.570   4.105
36876W        W 7476  38.017  18.052  13.860
36877W        W 7477  21.286  38.996  11.618
36878W        W 7478  21.037   8.930   0.007
36879W        W 7479   8.388  41.061   4.124
36880W        W 7480  22.749   4.908   2.738
36881W        W 7481  36.468   5.748   2.679
36882W        W 7482  12.138  10.006   2.470
36883W        W 7483   7.116  13.660  11.659
36884W        W 7484  22.828  18.495   1.434
36885W        W 7485  40.496  26.246   0.368
36886W        W 7486   7.163   2.799  13.860
36887W        W 7487  16.678  32.748   2.385
36888W        W 7488   5.184  23.115  11.597
36889W        W 7489   5.994  18.078  11.910
36890W        W 7490  32.923  16.067  11.717
36891W        W 7491   8.820   5.830   3.272
36892W        W 7492  21.200  19.799   1.673
36893W        W 7493   8.884  31.889   3.402
36894W        W 7494   7.328  15.616   0.192
36895W        W 7495  20.654  22.266   0.001
36896W        W 7496   9.336  32.494  10.702
36897W        W 7497  27.147   8.357  12.933
36898W        W 7498  40.776  10.310   2.394
36899W        W 7499  32.447  11.653   1.254
36900W        W 7500  39.286   3.179   0.927
36901W        W 7501  23.437  19.958   1.267
36902W        W 7502  10.404   9.240   4.323
36903W        W 7503   8.092  43.170   4.045
36904W        W 7504   6.348  22.169  13.879
36905W        W 7505  39.462  38.150   3.179
36906W        W 7506  37.856  12.081   0.219
36907W        W 7507  37.484  34.898  14.772
36908W        W 7508  38.384  11.129  12.929
36909W        W 7509  15.961  18.599  14.068
36910W        W 7510   9.340  43.529   0.783
36911W        W 7511  28.566  10.039  12.377
36912W        W 7512  37.532  43.751   3.885
36913W        W 7513   7.800  16.007  11.172
36914W        W 7514  25.668   7.721   5.548
36915W        W 7515  18.535  12.876   1.819
36916W        W 7516   6.250   9.706   2.203
36917W        W 7517  44.815  20.354  14.509
36918W        W 7518   3.976  30.513  11.677
36919W        W 7519  25.490  39.130  10.488
36920W        W 7520  32.216  41.176  10.269
36921W        W 7521  23.198  18.206   0.711
36922W        W 7522  11.236  31.611  14.806
36923W        W 7523  25.838  14.528  12.648
36924W        W 7524  12.064   3.362   1.185
36925W        W 7525  17.786  40.386   4.227
36926W        W 7526  24.533   5.177  14.042
36927W        W 7527  36.375   6.978   3.426
36928W        W 7528  17.057  28.999  12.052
36929W        W 7529  40.492  36.140  11.524
36930W        W 7530  26.634  25.552  13.349
36931W        W 7531  36.595  43.981   3.392
36932W        W 7532  16.386  23.090  14.278
36933W        W 7533   0.420  11.421   4.685
36934W        W 7534  32.644  21.711   3.060
36935W        W 7535  22.636  21.506   2.389
36936W        W 7536  13.836  24.803  14.476
36937W        W 7537   0.801  18.157   4.120
36938W        W 7538   3.979  31.369   4.971
36939W        W 7539  40.795  42.780  13.947
36940W        W 7540  11.279  44.738  11.972
36941W        W 7541  18.155  28.238  11.472
36942W        W 7542  24.454  17.172  13.071
36943W        W 7543  18.797  22.300  14.100
36944W        W 7544  33.788  20.190  13.634
36945W        W 7545  14.834  16.517   0.350
36946W        W 7546  13.400   8.424   0.314
36947W        W 7547  22.287   6.891  10.328
36948W        W 7548  19.766   3.494   4.618
36949W        W 7549  32.552   8.818   4.139
36950W        W 7550   1.745  34.895   2.301
36951W        W 7551  28.931   5.382  14.290
36952W        W 7552  37.901   9.223   0.780
36953W        W 7553  39.549  23.640   2.420
36954W        W 7554  30.596   0.211  12.989
36955W        W 7555  25.123  33.405   4.112
36956W        W 7556   9.672  44.875   1.720
36957W        W 7557  44.887  42.850   0.798
36958W        W 7558  35.106  31.471   0.895
36959W        W 7559   9.887   2.282   1.835
36960W        W 7560   8.927  17.371  11.059
36961W        W 7561   6.324   5.509   2.740
36962W        W 7562   2.741  41.820   0.840
36963W        W 7563  38.573  30.653   2.325
36964W        W 7564  31.585  14.646   0.699
36965W        W 7565  43.996  20.982  11.096
36966W        W 7566  25.991  42.995  11.166
36967W        W 7567  29.847  21.595  11.157
36968W        W 7568   0.934  22.882   0.412
36969W        W 7569   0.006  31.041   3.288
36970W        W 7570  29.095   8.382  13.155
36971W        W 7571  23.413   7.684  12.129
36972W        W 7572  38.456  40.610   0.569
36973W        W 7573  12.166  39.357  14.037
36974W        W 7574  42.378   3.300   1.887
36975W        W 7575  40.416  30.419   4.516
36976W        W 7576  18.083  39.321  11.549
36977W        W 7577   9.235  16.670   0.838
36978W        W 7578   1.942   3.475   0.995
36979W        W 7579   5.472  21.547   1.653
36980W        W 7580   0.515  12.288   2.693
36981W        W 7581  35.086  17.204  12.579
36982W        W 7582  28.004  16.424   2.892
36983W        W 7583  30.867  38.465   1.901
36984W        W 7584  21.745  24.672  14.977
36985W        W 7585  29.664  36.289   4.923
36986W        W 7586   3.465  37.337   3.042
36987W        W 7587  33.321  16.073  14.334
36988W        W 7588  27.992  12.400  13.993
36989W        W 7589   1.745  21.918   0.036
36990W        W 7590  43.317  24.172   3.647
36991W        W 7591  34.129  11.886   2.276
36992W        W 7592  39.391  17.499  10.627
36993W        W 7593  43.105   1.435  11.181
36994W        W 7594  27.129  33.560   0.851
36995W        W 7595  41.450  19.099   1.898
36996W        W 7596  44.378   5.635  10.890
36997W        W 7597  27.420  13.688   1.431
36998W        W 7598  26.952   0.750  10.712
36999W        W 7599  40.886  40.354   0.852
37000W        W 7600   5.834  16.168  13.740
37001W        W 7601  36.427   2.519   1.811
37002W        W 7602  36.123  14.088   2.728
37003W        W 7603   7.690  42.911   0.229
37004W        W 7604  25.619  29.087   1.800
37005W        W 7605  12.298  35.557  13.732
37006W        W 7606  21.270  14.410  11.505
37007W        W 7607  20.599  32.809   4.540
37008W        W 7608   3.952  16.268   4.633
37009W        W 7609  40.324  29.934  13.824
37010W        W 7610  21.726  24.668  11.108
37011W        W 7611  33.689  15.356   1.233
37012W        W 7612  31.215  37.133   2.438
37013W        W 7613  41.039   4.367  14.797
37014W        W 7614  22.543  33.519  13.087
37015W        W 7615  12.783  15.049  12.016
37016W        W 7616   3.909  13.021   3.106
37017W        W 7617  24.796  29.617   3.840
37018W        W 7618  30.071  25.440   2.398
37019W        W 7619   4.250  15.261   2.314
37020W        W 7620   5.848   8.339  10.865
37021W        W 7621   6.079  43.052  12.482
37022W        W 7622   3.695  17.662  11.604
37023W        W 7623  13.660  20.914  13.053
37024W        W 7624   0.894   6.469  13.302
37025W        W 7625  28.024   3.906  11.103
37026W        W 7626  13.316  27.173  13.418
37027W        W 7627  43.849  33.111  13.788
37028W        W 7628  21.911  10.237   3.423
37029W        W 7629  28.042  22.583  13.597
37030W        W 7630  19.212   2.505   1.703
37031W        W 7631   8.197   1.705  11.077
37032W        W 7632  27.300  22.734  14.908
37033W        W 7633  26.251   4.732   1.766
37034W        W 7634  10.110  36.476   3.282
37035W        W 7635  35.464  36.358  12.083
37036W        W 7636  27.729  20.812  13.518
37037W        W 7637  41.460  15.302  13.983
37038W        W 7638  42.999  13.270  12.724
37039W        W 7639  20.301   7.604  12.429
37040W        W 7640  28.404  44.490  12.209
37041W        W 7641  33.939   1.402  13.488
37042W        W 7642  41.033  11.156   0.126
37043W        W 7643   7.787  11.423  12.935
37044W        W 7644  25.386  22.544  14.404
37045W        W 7645   2.028  16.646  12.046
37046W        W 7646   4.202  36.319  13.749
37047W        W 7647  27.209  43.842   3.624
37048W        W 7648  44.823  36.349  11.910
37049W        W 7649  35.918  10.835   3.898
37050W        W 7650  18.035  34.114  12.972
37051W        W 7651  18.429  32.847  12.003
37052W        W 7652  43.376  15.523   0.371
37053W        W 7653  39.317   8.304  14.368
37054W        W 7654  31.841   8.215   4.584
37055W        W 7655  13.747  17.135   0.880
37056W        W 7656  19.161   9.283   0.388
37057W        W 7657  10.762  33.649  12.081
37058W        W 7658  25.047  28.712  14.117
37059W        W 7659  31.624  24.008  13.559
37060W        W 7660  30.506  23.513   4.175
37061W        W 7661  44.205  43.334   2.703
37062W        W 7662   5.775   2.113  10.717
37063W        W 7663  19.166  35.785   1.635
37064W        W 7664  20.847  18.138  12.853
37065W        W 7665   6.688  30.410   2.832
37066W        W 7666  14.808  22.515   0.282
37067W        W 7667  16.660  31.060   4.733
37068W        W 7668   3.432  27.634  13.699
37069W        W 7669   3.812  21.799  12.010
37070W        W 7670   2.041  10.142  13.465
37071W        W 7671   4.580  12.154  12.507
37072W        W 7672  42.514  30.745  11.901
37073W        W 7673   6.690   8.316   0.774
37074W        W 7674  40.835  32.080  14.303
37075W        W 7675  35.822  35.950  12.082
37076W        W 7676   0.858  13.107   4.145
37077W        W 7677   8.036  10.258  11.656
37078W        W 7678  17.860  44.926   1.205
37079W        W 7679   7.721  24.455  12.985
37080W        W 7680   6.147  22.620  14.774
37081W        W 7681  33.112  44.026  11.236
37082W        W 7682  25.426  42.726  11.966
37083W        W 7683   2.938  38.580   1.258
37084W        W 7684   2.552  35.420   1.315
37085W        W 7685   5.281  33.018   0.327
37086W        W 7686  18.798  21.604  13.442
37087W        W 7687   4.303  39.491   2.323
37088W        W 7688  35.902  19.621   0.251
37089W        W 7689   6.009  36.065  12.547
37090W        W 7690  34.133  44.851  13.075
37091W        W 7691  10.380  39.402  10.712
37092W        W 7692  22.440   1.993  10.849
37093W        W 7693  17.782  43.814  10.544
37094W        W 7694  35.217  29.203  12.089
37095W        W 7695  25.591  24.474   4.573
37096W        W 7696  40.532  27.573   1.235
37097W        W 7697  32.075  40.636  12.363
37098W        W 7698  27.735  11.034   2.412
37099W        W 7699  30.994  44.307   3.634
37100W        W 7700  10.188  31.208  12.597
37101W        W 7701  41.834  35.003  13.398
37102W        W 7702  36.748  13.945   3.537
37103W        W 7703  13.729  15.669  14.144
37104W        W 7704  24.429  37.384  11.967
37105W        W 7705   7.526  27.684  13.402
37106W        W 7706  32.013   4.976   4.227
37107W        W 7707   9.614   8.787  12.007
37108W        W 7708  10.397  10.226  11.900
37109W        W 7709   8.986  25.655  11.252
37110W        W 7710   6.090  20.961  12.952
37111W        W 7711   9.846  21.186  10.719
37112W        W 7712  42.106  18.691  14.007
37113W        W 7713  41.534   6.710  12.102
37114W        W 7714  13.272  10.958  13.506
37115W        W 7715  35.864  30.898   5.095
37116W        W 7716  38.623  41.086   4.131
37117W        W 7717  31.747  33.890   2.401
37118W        W 7718  16.650   7.185   2.443
37119W        W 7719  21.134  16.155   4.603
37120W        W 7720  29.269  26.519   4.683
37121W        W 7721   5.023  10.537   1.390
37122W        W 7722  10.290  20.166   0.446
37123W        W 7723   4.320   5.954  11.071
37124W        W 7724  11.789   2.977  11.806
37125W        W 7725  21.304  25.942  10.755
37126W        W 7726  29.376   5.731  11.528
37127W        W 7727   2.985  36.990   4.620
37128W        W 7728  20.543  18.701  13.482
37129W        W 7729  10.244   2.651  12.415
37130W        W 7730  30.990  12.795  11.994
37131W        W 7731  41.529  21.165   0.061
37132W        W 7732   6.565  33.939   1.409
37133W        W 7733   7.417  32.983  14.022
37134W        W 7734  12.152   2.768  11.089
37135W        W 7735  28.493   0.219   0.501
37136W        W 7736  39.803  36.816   3.299
37137W        W 7737  21.758   2.841  10.686
37138W        W 7738  29.874  35.840   1.485
37139W        W 7739  22.086  22.049  14.554
37140W        W 7740  42.451  38.892   4.575
37141W        W 7741  27.673  22.537   3.371
37142W        W 7742  11.104  17.252  10.580
37143W        W 7743  24.253  19.315  12.350
37144W        W 7744   9.804  40.591  11.114
37145W        W 7745   2.968   0.189  12.942
37146W        W 7746  31.824  34.148  13.146
37147W        W 7747  18.051  19.273  10.755
37148W        W 7748   7.037  18.260  11.160
37149W        W 7749   0.296   0.851   4.337
37150W        W 7750  21.274  31.469  13.941
37151W        W 7751  34.181   1.849   2.366
37152W        W 7752   0.988   5.360   1.245
37153W        W 7753  43.967  41.282  14.305
37154W        W 7754  23.608   9.623  10.755
37155W        W 7755  35.796   7.360  14.933
37156W        W 7756   1.918  38.476   2.965
37157W        W 7757  36.563  23.400   2.708
37158W        W 7758  28.423  42.876   0.791
37159W        W 7759  20.900  26.026  14.502
37160W        W 7760  44.377  23.475   2.773
37161W        W 7761  42.682  20.177  14.584
37162W        W 7762  38.470  33.167  12.473
37163W        W 7763  22.964  15.720  10.053
37164W        W 7764  24.928   0.237   1.324
37165W        W 7765  22.614   3.997  13.793
37166W        W 7766   4.979  32.990   0.749
37167W        W 7767  25.979  38.671  14.359
37168W        W 7768  40.408  40.113   0.854
37169W        W 7769   4.403  30.953  14.427
37170W        W 7770  24.294  23.093  11.510
37171W        W 7771  23.523  16.146   2.180
37172W        W 7772  21.461  27.448  12.106
37173W        W 7773   7.384  41.373  14.565
37174W        W 7774  21.530   3.186  13.208
37175W        W 7775  32.969  29.524  11.345
37176W        W 7776  13.020  31.863   5.039
37177W        W 7777  16.945  37.913   2.800
37178W        W 7778  32.690  29.147  14.387
37179W        W 7779  25.086  37.124  11.265
37180W        W 7780  25.662  17.119   1.328
37181W        W 7781  35.382  39.111  10.714
37182W        W 7782   3.833   5.716   0.756
37183W        W 7783  23.212  26.199  12.416
37184W        W 7784  37.082   4.249   4.327
37185W        W 7785  26.539  24.676   1.343
37186W        W 7786  25.266  30.057   1.645
37187W        W 7787  23.631  10.931   4.275
37188W        W 7788  37.547  17.018  11.244
37189W        W 7789  25.250  42.252   4.875
37190W        W 7790   6.430  36.219  14.252
37191W        W 7791   4.359   4.164   1.394
37192W        W 7792  16.766   0.227   1.890
37193W        W 7793  39.909  41.901  14.393
37194W        W 7794  41.929  16.273   1.357
37195W        W 7795   3.260  10.219  14.445
37196W        W 7796  39.748  33.562   0.332
37197W        W 7797   7.960  22.598  10.967
37198W        W 7798  17.647  28.072   4.585
37199W        W 7799  13.731  35.400   1.878
37200W        W 7800  12.830  11.548  10.705
37201W        W 7801   7.475  40.891   0.185
37202W        W 7802  39.442   7.281   3.164
37203W        W 7803  11.651  23.587   1.831
37204W        W 7804  12.520  33.851  11.498
37205W        W 7805   1.738  41.923  10.798
37206W        W 7806  32.961   9.142   4.111
37207W        W 7807   9.336   1.948   3.781
37208W        W 7808  33.167  17.333   1.046
37209W        W 7809   4.976  29.077   2.988
37210W        W 7810  35.587  33.703   1.815
37211W        W 7811  10.143  32.838   2.746
37212W        W 7812  30.424  37.565  13.537
37213W        W 7813  32.130  42.257  13.499
37214W        W 7814  21.972  42.008  13.019
37215W        W 7815  23.699  35.852  10.723
37216W        W 7816  42.293  24.122   2.161
37217W        W 7817   1.932   0.164  10.735
37218W        W 7818  11.868  20.842  13.876
37219W        W 7819  24.845  43.979  12.552
37220W        W 7820  31.987  37.493   0.000
37221W        W 7821  27.531  27.088   2.228
37222W        W 7822   2.507  41.047   3.881
37223W        W 7823  32.525  17.138  12.425
37224W        W 7824  17.854  24.448   3.668
37225W        W 7825  32.046   6.253  13.546
37226W        W 7826  20.293  13.209   0.439
37227W        W 7827   3.422  14.314   0.422
37228W        W 7828  36.633  18.598   2.868
37229W        W 7829  16.887   2.334   2.630
37230W        W 7830   6.831  36.614  11.085
37231W        W 7831  13.809  39.386  12.158
37232W        W 7832  33.451  25.479  10.941
37233W        W 7833  11.202  13.859  11.457
37234W        W 7834  26.733  19.039  12.994
37235W        W 7835  15.013  21.126   4.635
37236W        W 7836  40.547  27.531  10.928
37237W        W 7837  32.298   1.794   0.948
37238W        W 7838  17.226  32.600  14.393
37239W        W 7839  43.799   8.745  11.017
37240W        W 7840  24.717   2.754  12.081
37241W        W 7841  24.860  30.558   4.865
37242W        W 7842  30.456  22.789  12.673
37243W        W 7843   2.503  32.114  13.838
37244W        W 7844  14.137  15.365   1.434
37245W        W 7845  32.428   1.758   2.858
37246W        W 7846  37.298  17.741   2.218
37247W        W 7847  11.371  29.160  10.749
37248W        W 7848  13.662  23.028  10.515
37249W        W 7849  37.066  31.806   1.061
37250W        W 7850   9.614  41.310  12.206
37251W        W 7851  34.096  44.981  14.508
37252W        W 7852  12.154  20.152  10.769
37253W        W 7853   4.025   0.961   3.647
37254W        W 7854  24.202  41.758  11.635
37255W        W 7855   2.246   7.055  12.000
37256W        W 7856   8.832  31.967   3.961
37257W        W 7857  19.031  37.368  14.913
37258W        W 7858   7.685  44.241  14.093
37259W        W 7859   5.466  31.490  11.633
37260W        W 7860  44.868  32.945  12.965
37261W        W 7861  16.033  40.402   2.398
37262W        W 7862  39.775  11.370   2.809
37263W        W 7863  19.637  22.958   3.176
37264W        W 7864  15.718  12.094   4.462
37265W        W 7865   1.935  13.320   1.794
37266W        W 7866  29.865   8.765  14.942
37267W        W 7867  31.185  38.727   5.410
37268W        W 7868  19.613  41.547   4.821
37269W        W 7869  43.834  35.593   1.358
37270W        W 7870  44.451  32.343   4.561
37271W        W 7871  37.627   0.720   2.716
37272W        W 7872  13.319  25.747   1.458
37273W        W 7873  40.335  25.197  12.129
37274W        W 7874  29.065  27.494   3.279
37275W        W 7875  22.830   2.637  11.438
37276W        W 7876  19.562  28.827  11.609
37277W        W 7877  39.980  23.283   1.707
37278W        W 7878   8.275  34.993  13.811
37279W        W 7879  27.413  21.675  12.718
37280W        W 7880  31.337  16.232   1.638
37281W        W 7881  13.544  16.765  14.586
37282W        W 7882  19.614  38.522   3.805
37283W        W 7883  32.446  16.843  11.607
37284W        W 7884   1.800  44.063  12.309
37285W        W 7885   4.390  15.913  12.657
37286W        W 7886  23.711  37.081  12.907
37287W        W 7887  40.452  35.771   3.201
37288W        W 7888   1.319  37.981   2.399
37289W        W 7889   8.632   9.606   2.542
37290W        W 7890  27.551  37.914  14.915
37291W        W 7891  10.604   7.753   0.015
37292W        W 7892  39.796  29.762  10.747
37293W        W 7893  40.364  19.300  14.485
37294W        W 7894   5.575   8.982   5.288
37295W        W 7895  10.550  30.104  12.009
37296W        W 7896   1.231  21.625  13.816
37297W        W 7897  24.916  24.414  11.525
37298W        W 7898  39.711   1.514  13.561
37299W        W 7899  34.851   8.666  11.801
37300W        W 7900  29.188   5.031  11.117
37301W        W 7901  20.984  26.743   0.029
37302W        W 7902  18.961  36.521  11.215
37303W        W 7903  38.882  28.006  13.488
37304W        W 7904   1.197  23.119  14.989
37305W        W 7905  17.599  21.853  14.356
37306W        W 7906  34.654  39.365  13.395
37307W        W 7907   9.429  20.141  12.086
37308W        W 7908  18.748  11.044  12.649
37309W        W 7909  24.953  36.834  13.504
37310W        W 7910  40.467  34.035   4.336
37311W        W 7911  19.116  37.042   4.573
37312W        W 7912  26.177  33.689   0.894
37313W        W 7913  44.637  19.196   1.328
37314W        W 7914  10.110   1.191  11.964
37315W        W 7915  19.942  16.202  13.711
37316W        W 7916  33.834   8.157   2.813
37317W        W 7917   7.180  14.620   4.693
37318W        W 7918  44.556  26.134   3.552
37319W        W 7919  40.754  43.161  14.309
37320W        W 7920  37.911   7.917   0.326
37321W        W 7921  24.451  35.502   0.804
37322W        W 7922  39.553  27.260   4.161
37323W        W 7923   3.439  25.928  14.419
37324W        W 7924   6.767  14.105  10.762
37325W        W 7925  24.020  41.787   1.392
37326W        W 7926  43.912  19.704  12.880
37327W        W 7927  13.056  15.375  11.266
37328W        W 7928  33.869  28.901  14.581
37329W        W 7929   5.417  43.004   1.014
37330W        W 7930   4.937   9.816   2.688
37331W        W 7931  42.039  38.493  12.968
37332W        W 7932   3.378  26.195   3.207
37333W        W 7933  23.115  17.235   3.156
37334W        W 7934   4.035   8.293  11.913
37335W        W 7935  13.352  31.592   0.717
37336W        W 7936  38.568  39.378   2.199
37337W        W 7937  25.016  23.349   2.782
37338W        W 7938  35.621   5.231  12.961
37339W        W 7939  37.819  18.211   0.268
37340W        W 7940  17.151   8.080   1.807
37341W        W 7941   1.364   2.820  14.960
37342W        W 7942  44.904   8.207  13.439
37343W        W 7943  18.902  27.102   1.890
37344W        W 7944  23.733   6.873  13.813
37345W        W 7945  23.093   5.518  11.986
37346W        W 7946  31.090   4.380   4.595
37347W        W 7947  33.060  13.305  14.736
37348W        W 7948  14.147   9.398  12.550
37349W        W 7949  41.748  43.415  14.407
37350W        W 7950  18.986  39.262  11.954
37351W        W 7951   0.503   2.690  14.594
37352W        W 7952  12.236   5.126  12.882
37353W        W 7953   8.308  14.707  13.159
37354W        W 7954   9.847   7.704  10.655
37355W        W 7955  21.243  18.222  11.986
37356W        W 7956  12.639  37.969  11.484
37357W        W 7957  42.388  29.744  14.341
37358W        W 7958   1.841  12.773   1.905
37359W        W 7959  19.259  37.931   3.267
37360W        W 7960  29.085  39.159   1.225
37361W        W 7961  13.134  27.995   4.563
37362W        W 7962   4.937  12.464  11.215
37363W        W 7963  25.193  21.478  13.862
37364W        W 7964  43.876  44.468  13.049
37365W        W 7965  38.965   6.318   4.364
37366W        W 7966  42.599  28.164   1.806
37367W        W 7967  26.224  34.796  13.433
37368W        W 7968  23.171  29.914   2.509
37369W        W 7969  21.535   0.768  13.435
37370W        W 7970  22.080  13.733  14.921
37371W        W 7971  36.268   7.529  12.020
37372W        W 7972  22.208   9.697  11.616
37373W        W 7973  30.343   3.277   0.521
37374W        W 7974  29.755  29.265  14.020
37375W        W 7975   1.873  43.381   0.532
37376W        W 7976  13.371   8.725   2.127
37377W        W 7977  37.172  21.211   0.276
37378W        W 7978  33.353  17.814  11.528
37379W        W 7979  10.595  13.948   4.624
37380W        W 7980  31.055  31.910  14.927
37381W        W 7981   5.890  19.021  11.597
37382W        W 7982   0.307  14.028   4.121
37383W        W 7983  27.441  10.023  11.450
37384W        W 7984  13.286  11.480   1.273
37385W        W 7985  38.320  21.109  13.522
37386W        W 7986   2.687  13.809  13.079
37387W        W 7987  15.820  36.936   1.009
37388W        W 7988  44.906  22.779  14.450
37389W        W 7989  20.207   4.747   4.114
37390W        W 7990  19.095  21.510  14.669
37391W        W 7991  20.268   4.738  13.558
37392W        W 7992   3.492  33.454   0.256
37393W        W 7993  13.762  29.143   3.858
37394W        W 7994  26.183   7.263   2.448
37395W        W 7995  15.614  19.613   0.226
37396W        W 7996  44.930  25.229   2.355
37397W        W 7997  13.931  30.474  10.213
37398W        W 7998  29.452   4.863  12.943
37399W        W 7999   5.219  34.119  13.518
37400W        W 8000  28.599  33.707   1.125
37401W        W 8001  30.549  17.228   2.793
37402W        W 8002   9.679  25.096   0.216
37403W        W 8003   7.342  30.491   4.096
37404W        W 8004  24.962  25.738   2.562
37405W        W 8005  12.976  12.261  14.239
37406W        W 8006  43.419  40.291  13.943
37407W        W 8007  11.567  11.935   1.718
37408W        W 8008  31.615  10.627   0.936
37409W        W 8009  41.475  22.070  14.339
37410W        W 8010  40.901   0.133  11.202
37411W        W 8011  31.045   0.470  12.928
37412W        W 8012  41.512   9.189   2.198
37413W        W 8013  38.036  15.804  13.611
37414W        W 8014  25.802  12.710   2.277
37415W        W 8015  30.981  44.068  13.418
37416W        W 8016  26.664  13.577  11.908
37417W        W 8017  27.140  36.125   0.814
37418W        W 8018   8.772  20.210   4.634
37419W        W 8019  37.851   4.397  12.931
37420W        W 8020  30.217   7.756   2.027
37421W        W 8021  17.329  31.097  12.614
37422W        W 8022  29.253   6.268   4.707
37423W        W 8023  42.405  31.849  12.525
37424W        W 8024  12.702   9.177   3.407
37425W        W 8025  43.846  26.490   3.262
37426W        W 8026   7.348  24.968   2.259
37427W        W 8027  24.060  29.859   4.533
37428W        W 8028  14.353  18.074  13.349
37429W        W 8029  10.599  21.738   0.921
37430W        W 8030  19.029  35.405  11.250
37431W        W 8031  34.575  18.713  11.154
37432W        W 8032   9.285  43.051   2.861
37433W        W 8033  15.840  29.167   4.960
37434W        W 8034   8.893  38.219   5.077
37435W        W 8035   0.473  20.569   2.699
37436W        W 8036  22.665  18.341  10.204
37437W        W 8037  33.320  43.080   3.680
37438W        W 8038   9.229  36.053   0.852
37439W        W 8039  27.601  23.684  14.088
37440W        W 8040  11.156  38.444   1.835
37441W        W 8041  12.154  13.633   4.195
37442W        W 8042  25.469  17.606   2.276
37443W        W 8043  26.571  43.423   4.488
37444W        W 8044  44.362  39.668   3.772
37445W        W 8045  18.259  13.093  13.407
37446W        W 8046   6.221  23.545  13.171
37447W        W 8047  36.311  35.579  13.915
37448W        W 8048  16.336  12.842   1.295
37449W        W 8049  20.022  34.515   2.349
37450W        W 8050  12.845  35.369   1.806
37451W        W 8051  35.418  13.012  14.246
37452W        W 8052  21.378  39.895  10.312
37453W        W 8053  26.929  10.803   4.321
37454W        W 8054  39.969  13.029  14.295
37455W        W 8055  11.544  31.490  11.953
37456W        W 8056  37.773  26.138  12.155
37457W        W 8057  12.369  18.875  11.249
37458W        W 8058  13.687   9.155  11.412
37459W        W 8059  10.892   5.312   2.326
37460W        W 8060   6.510  40.012  14.002
37461W        W 8061   9.693  29.088  13.950
37462W        W 8062  21.727  42.181  14.823
37463W        W 8063  18.055  31.073   2.784
37464W        W 8064  11.725  32.107   2.847
37465W        W 8065  37.374  33.936   0.321
37466W        W 8066  17.171  12.454  12.922
37467W        W 8067  42.461  23.603   4.737
37468W        W 8068   0.271  18.012   3.517
37469W        W 8069  32.465   6.027   0.776
37470W        W 8070   7.160   1.243   3.264
37471W        W 8071  12.111  32.618   3.939
37472W        W 8072  31.178  12.711  12.897
37473W        W 8073  21.786  17.099   1.802
37474W        W 8074   1.106  13.933  14.802
37475W        W 8075  29.334  38.899   2.344
37476W        W 8076  29.492  28.632  12.921
37477W        W 8077  17.032   6.813   2.067
37478W        W 8078   3.877  33.821   3.140
37479W        W 8079   4.866  26.119   0.526
37480W        W 8080   5.611  10.301  10.349
37481W        W 8081   7.787  27.572  14.000
37482W        W 8082   9.762  26.019   3.411
37483W        W 8083  37.226  41.267   1.075
37484W        W 8084  10.301   1.953   0.504
37485W        W 8085  25.049  37.548  12.917
37486W        W 8086  25.688  24.021   0.367
37487W        W 8087  30.666   6.777   1.240
37488W        W 8088  25.368   8.692   1.840
37489W        W 8089   7.312  30.134   0.390
37490W        W 8090  40.551  24.346  11.257
37491W        W 8091  22.618  26.156   0.330
37492W        W 8092  40.468   9.341  14.972
37493W        W 8093  18.974   6.715   3.646
37494W        W 8094  20.181  25.402  13.839
37495W        W 8095  14.513  43.544   3.362
37496W        W 8096   5.832  39.492  14.945
37497W        W 8097  34.915  37.910  13.382
37498W        W 8098  23.796  23.012  11.432
37499W        W 8099  11.900  43.063  13.002
37500W        W 8100  17.607   2.081  11.566
37501W        W 8101  21.768  35.364  11.303
37502W        W 8102  30.526   6.990   2.665
37503W        W 8103  38.368  40.348   3.903
37504W        W 8104  25.979  23.639  10.374
37505W        W 8105  26.638   7.220  13.236
37506W        W 8106   6.938  10.344  10.596
37507W        W 8107  10.598  36.596   1.480
37508W        W 8108  16.056   4.182   0.698
37509W        W 8109  16.648   5.411   4.012
37510W        W 8110  13.574  22.050  10.723
37511W        W 8111   2.517  15.971  11.475
37512W        W 8112  32.433  12.703  14.531
37513W        W 8113  30.880  20.681   3.239
37514W        W 8114   9.797  40.912   4.330
37515W        W 8115  23.539  21.144  10.364
37516W        W 8116  16.798   6.303   2.844
37517W        W 8117   0.252  13.490   1.436
37518W        W 8118   0.958  40.439  13.548
37519W        W 8119  13.119  20.334  12.596
37520W        W 8120   8.894  37.899  10.376
37521W        W 8121  16.347  33.964   1.960
37522W        W 8122  24.715  13.355   0.800
37523W        W 8123  23.463  35.508  13.766
37524W        W 8124  30.565   1.791   2.445
37525W        W 8125  34.311   2.848  14.934
37526W        W 8126  42.123  32.084  11.637
37527W        W 8127   0.981  29.628  11.437
37528W        W 8128  13.133  28.620  14.875
37529W        W 8129  12.226   2.605   4.715
37530W        W 8130  35.868  28.237   0.225
37531W        W 8131  31.879  16.597  13.390
37532W        W 8132  36.011  26.189   1.445
37533W        W 8133   6.498   1.037  12.586
37534W        W 8134   4.475  17.053   4.171
37535W        W 8135  29.152   1.915  13.411
37536W        W 8136  44.251  21.457  11.853
37537W        W 8137  40.567  38.523   4.337
37538W        W 8138  23.046  39.009  11.416
37539W        W 8139  41.028  20.104   4.220
37540W        W 8140   3.445  18.077  13.333
37541W        W 8141  31.326  42.834   0.026
37542W        W 8142  23.682  33.602   1.361
37543W        W 8143   6.685  41.325   3.238
37544W        W 8144  43.726  18.751  10.453
37545W        W 8145  20.217   3.444   0.144
37546W        W 8146  11.886  28.696  11.208
37547W        W 8147  42.243  24.496  10.902
37548W        W 8148   2.712  38.952   0.823
37549W        W 8149  22.675  13.958  11.625
37550W        W 8150  44.884  17.543  10.672
37551W        W 8151   8.278  28.872   4.541
37552W        W 8152  39.920   4.459   1.844
37553W        W 8153  26.739  12.062  13.565
37554W        W 8154  21.081   1.835   0.727
37555W        W 8155  38.318  31.845  13.859
37556W        W 8156  36.959   3.481  13.358
37557W        W 8157  37.823   6.242   2.611
37558W        W 8158   9.276   3.353  14.328
37559W        W 8159  32.530   3.753  13.885
37560W        W 8160  24.169  29.668  12.752
37561W        W 8161  34.404   7.396   2.763
37562W        W 8162  11.768  26.998  12.944
37563W        W 8163  25.219   2.159   4.095
37564W        W 8164  33.673  30.791   4.512
37565W        W 8165  23.172  33.126   0.609
37566W        W 8166  40.051  39.165   4.707
37567W        W 8167  13.151  31.193   2.106
37568W        W 8168  10.739   4.312   4.124
37569W        W 8169  10.626   9.812  12.112
37570W        W 8170  16.368   3.891  14.283
37571W        W 8171  41.090  10.042   3.782
37572W        W 8172  12.517  38.844   4.019
37573W        W 8173  31.685  36.009   0.157
37574W        W 8174  11.606  38.469   2.909
37575W        W 8175   4.904  37.528   4.106
37576W        W 8176  39.773  30.026  14.823
37577W        W 8177  42.820   9.237   0.242
37578W        W 8178  20.528  31.909  10.779
37579W        W 8179  11.223  21.048  11.848
37580W        W 8180   4.907   7.434   2.771
37581W        W 8181  33.263   8.057   3.457
37582W        W 8182  34.976   1.559  12.394
37583W        W 8183  42.935  35.285  11.109
37584W        W 8184  33.551  44.874   4.073
37585W        W 8185   8.299  21.077   4.882
37586W        W 8186  35.628  23.332   4.494
37587W        W 8187  37.640  16.906   1.250
37588W        W 8188  10.622  21.117  12.561
37589W        W 8189   3.005  40.538  11.590
37590W        W 8190  20.716  29.621   3.296
37591W        W 8191  18.628  19.904   0.418
37592W        W 8192   7.283  36.160  14.918
37593W        W 8193   6.612  27.971  12.239
37594W        W 8194   3.664  12.553   3.086
37595W        W 8195   5.794  34.797  10.419
37596W        W 8196  30.582  12.338  10.716
37597W        W 8197  22.531   8.221   1.009
37598W        W 8198  22.774  18.105  12.926
37599W        W 8199  32.679  34.091   3.343
37600W        W 8200  19.260  42.737  12.046
37601W        W 8201  19.424  44.402  12.742
37602W        W 8202  28.395  10.772  13.312
37603W        W 8203  36.611  15.015  13.140
37604W        W 8204  14.559  19.444  12.112
37605W        W 8205  11.308  41.296   1.317
37606W        W 8206   9.666   6.647   2.682
37607W        W 8207   6.741   4.867  12.533
37608W        W 8208   6.643  44.994  14.747
37609W        W 8209  15.693  30.026   4.660
37610W        W 8210   4.665  33.046   1.177
37611W        W 8211   5.223   0.391  10.661
37612W        W 8212   9.659  15.186  11.627
37613W        W 8213   4.665  15.497  14.784
37614W        W 8214  42.625  18.547  10.837
37615W        W 8215  15.268  41.097  13.906
37616W        W 8216  29.085  30.456  13.394
37617W        W 8217  41.060   5.434   1.371
37618W        W 8218   9.825  17.689  13.101
37619W        W 8219  29.473  23.440   0.728
37620W        W 8220  33.179  28.960   2.148
37621W        W 8221  24.020  14.359   2.226
37622W        W 8222   0.415   4.922   3.711
37623W        W 8223  43.031   3.886   3.256
37624W        W 8224  22.350  39.353   1.892
37625W        W 8225   2.006  19.153  12.943
37626W        W 8226  18.204  19.527   1.896
37627W        W 8227   2.859   2.739  14.450
37628W        W 8228  30.177   3.305   9.898
37629W        W 8229   0.270  43.239   0.070
37630W        W 8230  26.960  22.226   2.020
37631W        W 8231   7.873   8.217  11.201
37632W        W 8232  14.270   7.247   0.822
37633W        W 8233  33.651   4.500   3.644
37634W        W 8234   7.357  13.012  14.141
37635W        W 8235  39.075   4.195  13.400
37636W        W 8236   3.217  37.583   2.123
37637W        W 8237  33.081  21.065  11.456
37638W        W 8238  32.427  32.123   2.188
37639W        W 8239  14.583   4.003   2.811
37640W        W 8240  25.640  42.898   4.006
37641W        W 8241  24.545   1.101   1.795
37642W        W 8242  18.228  43.824   1.705
37643W        W 8243  29.601  23.020  13.485
37644W        W 8244  41.546  38.502  13.032
37645W        W 8245  18.365  25.915   1.617
37646W        W 8246  12.678   4.891   4.833
37647W        W 8247  16.566  22.594  12.264
37648W        W 8248  37.200   1.658  12.783
37649W        W 8249   5.948  21.266   0.197
37650W        W 8250   2.856  35.518  14.281
37651W        W 8251  25.326  39.063   0.017
37652W        W 8252  36.435  42.502   2.020
37653W        W 8253   3.099   6.296  14.761
37654W        W 8254  37.804  13.609  12.108
37655W        W 8255  19.020  24.433  11.491
37656W        W 8256  15.146  26.461  11.942
37657W        W 8257   9.860   0.963  11.531
37658W        W 8258  30.335  16.388  11.677
37659W        W 8259  33.589  44.475   1.984
37660W        W 8260  35.860  27.490   2.268
37661W        W 8261  20.594   2.876   1.450
37662W        W 8262  14.992  12.765  12.729
37663W        W 8263   3.084  34.591  14.797
37664W        W 8264  15.366  27.052  11.958
37665W        W 8265  24.872  11.895  12.973
37666W        W 8266   8.417  29.570  14.831
37667W        W 8267  31.983   8.180   3.753
37668W        W 8268  27.821  24.165  13.984
37669W        W 8269  31.722  38.355  10.628
37670W        W 8270  42.237  43.783   0.775
37671W        W 8271  14.256  16.400   2.951
37672W        W 8272  43.043   0.040  14.887
37673W        W 8273  32.915   9.694   3.119
37674W        W 8274   0.636   8.273  11.710
37675W        W 8275  24.882  40.979  13.433
37676W        W 8276   8.167  22.328  12.485
37677W        W 8277  31.855   1.624   2.360
37678W        W 8278   8.277  37.108   0.522
37679W        W 8279   0.826  26.567  10.733
37680W        W 8280   7.851   8.689  11.451
37681W        W 8281  29.684  34.653  12.463
37682W        W 8282  13.884  33.206  12.261
37683W        W 8283  42.906  36.749  12.135
37684W        W 8284  21.259  14.666   2.738
37685W        W 8285  36.077  33.616   3.013
37686W        W 8286   2.295  16.764  13.448
37687W        W 8287   8.918  14.040  11.621
37688W        W 8288  19.649  40.431   4.565
37689W        W 8289   7.301  18.452   0.580
37690W        W 8290  38.933  38.694  14.847
37691W        W 8291  19.307  16.356   2.270
37692W        W 8292  18.617  33.953  11.859
37693W        W 8293   5.376   8.835  12.597
37694W        W 8294  31.980  27.448   1.809
37695W        W 8295  42.048   3.479  14.493
37696W        W 8296  29.477  13.099  14.752
37697W        W 8297  11.696   5.933   4.518
37698W        W 8298  21.137  26.121   2.428
37699W        W 8299   9.707  36.009  10.859
37700W        W 8300  44.039  41.427  13.456
37701W        W 8301  17.521  35.557   5.145
37702W        W 8302  24.451   0.804  10.682
37703W        W 8303  44.831  29.928  14.762
37704W        W 8304  17.786  13.435  10.886
37705W        W 8305   8.826   9.099   1.820
37706W        W 8306  18.101  21.714   2.691
37707W        W 8307  44.433  21.476  12.330
37708W        W 8308  25.919  35.927  14.791
37709W        W 8309  44.486   4.343  11.525
37710W        W 8310  25.112  36.153   4.818
37711W        W 8311  18.235  16.833   2.125
37712W        W 8312   2.009  41.789   4.063
37713W        W 8313  15.438   7.181  11.548
37714W        W 8314  31.318   6.740  14.699
37715W        W 8315  35.153  38.358   0.447
37716W        W 8316  34.206  38.076  14.393
37717W        W 8317  28.974  15.784  13.468
37718W        W 8318  16.566  19.427   5.369
37719W        W 8319  33.812  18.304   3.890
37720W        W 8320  28.114  31.354  12.053
37721W        W 8321  20.741  10.905  13.916
37722W        W 8322  21.503  26.931  10.600
37723W        W 8323   6.486  27.492  13.377
37724W        W 8324  26.791  15.518  12.978
37725W        W 8325   5.668  44.833  14.962
37726W        W 8326  11.681  35.614  11.470
37727W        W 8327  35.147  43.989   3.200
37728W        W 8328  28.991  12.068  13.437
37729W        W 8329  13.243  13.788   0.801
37730W        W 8330  10.405  24.058  12.061
37731W        W 8331  29.662   1.988  14.915
37732W        W 8332  39.062  39.453  14.242
37733W        W 8333   4.226  38.004  13.384
37734W        W 8334  30.403  19.821  11.157
37735W        W 8335  27.208  13.113  14.466
37736W        W 8336  31.412   3.508  11.102
37737W        W 8337  23.125  29.140   0.375
37738W        W 8338   7.850   5.931   1.400
37739W        W 8339  30.738   4.025  13.806
37740W        W 8340  12.753  13.377  11.019
37741W        W 8341   6.772  38.008  11.634
37742W        W 8342  39.257  32.934   1.354
37743W        W 8343  25.724  12.277   2.543
37744W        W 8344  23.250   5.767   3.631
37745W        W 8345   7.783   5.911  14.362
37746W        W 8346  35.801  30.370   3.614
37747W        W 8347   1.067  39.303  12.009
37748W        W 8348  38.402  33.659   0.164
37749W        W 8349  19.472  43.890  12.941
37750W        W 8350  22.616   7.676   2.766
37751W        W 8351  37.481  28.605   3.893
37752W        W 8352   8.979  43.981   4.567
37753W        W 8353  42.416  17.178   4.375
37754W        W 8354  41.056  22.154   1.790
37755W        W 8355  24.743  41.979   0.906
37756W        W 8356  39.323  11.652  13.813
37757W        W 8357   1.993  39.807   4.361
37758W        W 8358   2.309   9.814  12.534
37759W        W 8359  13.863   1.156   1.337
37760W        W 8360  28.032  34.596   0.686
37761W        W 8361   0.478   1.364  13.040
37762W        W 8362  27.435   6.774   4.118
37763W        W 8363  29.982  44.501   3.059
37764W        W 8364  23.783  12.505  12.092
37765W        W 8365   5.954  43.374   0.254
37766W        W 8366  16.738  24.767   3.937
37767W        W 8367   2.715   7.567  13.798
37768W        W 8368  43.294   5.850   4.627
37769W        W 8369  17.746  22.513  13.380
37770W        W 8370   9.841  38.783  10.916
37771W        W 8371  29.632   4.012  12.536
37772W        W 8372   9.663   7.192   2.685
37773W        W 8373   0.523  43.432   0.496
37774W        W 8374  15.311  23.548  13.475
37775W        W 8375  28.948   9.251   1.944
37776W        W 8376  30.984  29.063   4.566
37777W        W 8377   2.147  34.074  13.613
37778W        W 8378  23.137  28.027   4.443
37779W        W 8379  34.405  24.054   1.636
37780W        W 8380   4.393   6.219  13.473
37781W        W 8381  16.313  18.828   0.399
37782W        W 8382  20.977  33.353   4.958
37783W        W 8383   1.282  15.247   0.508
37784W        W 8384  27.596   1.997   4.887
37785W        W 8385  33.226  38.485   2.319
37786W        W 8386   8.443  25.595   1.689
37787W        W 8387   3.763  20.545  13.278
37788W        W 8388   7.717  38.184  14.832
37789W        W 8389  22.077   9.505   2.673
37790W        W 8390  36.834  42.284   1.767
37791W        W 8391  24.121  25.935  14.032
37792W        W 8392  41.552  21.608   1.100
37793W        W 8393  29.178  42.807  13.430
37794W        W 8394  15.243   8.434  11.110
37795W        W 8395   7.304  35.301  12.497
37796W        W 8396  10.905  22.607  13.393
37797W        W 8397  28.550  23.123  14.901
37798W        W 8398  36.155  35.863  13.486
37799W        W 8399  33.150  31.889   0.385
37800W        W 8400  17.668  24.950   3.689
37801W        W 8401  17.675  25.775   3.154
37802W        W 8402  10.823  25.204   3.902
37803W        W 8403  24.601  24.171  13.130
37804W        W 8404   9.145  42.504   3.793
37805W        W 8405  13.171  37.415  13.462
37806W        W 8406   5.841  10.412  14.832
37807W        W 8407   5.902  15.076  13.823
37808W        W 8408  21.045  40.513   0.435
37809W        W 8409  13.834  19.868  12.322
37810W        W 8410   9.873  26.256   1.330
37811W        W 8411  14.657  17.215   2.340
37812W        W 8412  10.162  36.607   1.793
37813W        W 8413  36.872   4.034   0.307
37814W        W 8414  25.016  20.101   1.359
37815W        W 8415  41.895  10.007   0.713
37816W        W 8416  12.260  11.087   0.347
37817W        W 8417  29.033  39.283   3.240
37818W        W 8418  38.873  31.956  12.963
37819W        W 8419   1.389  12.840   0.206
37820W        W 8420   8.111   8.625   4.980
37821W        W 8421   0.329  17.700  13.092
37822W        W 8422   4.685  41.140  12.135
37823W        W 8423  32.643  18.302   4.451
37824W        W 8424   0.436   7.760  12.916
37825W        W 8425   7.585  39.822   2.357
37826W        W 8426   1.646  30.548   0.816
37827W        W 8427   2.716  34.881  13.881
37828W        W 8428  20.263  44.903   2.696
37829W        W 8429   9.304  33.065  14.341
37830W        W 8430   4.924  20.548  13.987
37831W        W 8431  14.538  23.974   0.238
37832W        W 8432  13.756  37.759   2.258
37833W        W 8433  37.677  38.310  13.869
37834W        W 8434  20.713   9.897  10.795
37835W        W 8435  37.464  18.240  12.057
37836W        W 8436  19.907  20.993   0.027
37837W        W 8437  32.032  38.983   1.405
37838W        W 8438   1.017  44.975  12.981
37839W        W 8439  29.382  39.510   3.565
37840W        W 8440  44.809  18.803  14.001
37841W        W 8441  20.211  42.509   3.450
37842W        W 8442  37.420  14.676   4.803
37843W        W 8443   1.403  26.621   3.610
37844W        W 8444  14.821  25.488  11.167
37845W        W 8445  41.223  14.574   3.171
37846W        W 8446  29.044   1.896   0.980
37847W        W 8447  10.579   4.922  12.470
37848W        W 8448  34.457  37.917  13.613
37849W        W 8449  12.535   5.623   0.217
37850W        W 8450  12.061  23.249   1.331
37851W        W 8451  24.667  27.912   0.719
37852W        W 8452  10.821  29.109  12.874
37853W        W 8453  27.481   2.831   1.819
37854W        W 8454  33.822  44.485  12.853
37855W        W 8455  20.164  27.213  13.420
37856W        W 8456  14.362  22.075   4.520
37857W        W 8457  11.203   7.192  10.681
37858W        W 8458  34.321   1.689  11.872
37859W        W 8459  18.130  44.502   2.575
37860W        W 8460  34.068  39.399   2.622
37861W        W 8461   0.398  13.695  10.374
37862W        W 8462   2.425   2.355  13.600
37863W        W 8463   3.911  30.417  13.957
37864W        W 8464  23.963   1.594  11.538
37865W        W 8465   2.349  17.571  12.334
37866W        W 8466  10.892  17.254  12.001
37867W        W 8467   1.190  26.758  12.493
37868W        W 8468  38.702  43.924   4.583
37869W        W 8469  22.818  19.513   3.356
37870W        W 8470  18.295   5.702  14.808
37871W        W 8471  26.069  35.455  14.032
37872W        W 8472  20.144  39.924  11.554
37873W        W 8473  23.599  11.639   1.755
37874W        W 8474  31.424   7.837  11.395
37875W        W 8475  30.066   9.151  13.085
37876W        W 8476  23.624  26.364   3.130
37877W        W 8477   4.295  16.461   1.802
37878W        W 8478   8.932  10.257  10.273
37879W        W 8479   2.652  20.039  13.775
37880W        W 8480   6.134  10.851  14.701
37881W        W 8481  17.582   3.265   3.224
37882W        W 8482  15.687  23.056  11.247
37883W        W 8483  39.935   4.347   3.364
37884W        W 8484  30.962  32.932  14.769
37885W        W 8485  20.510  39.036   3.875
37886W        W 8486  26.066  39.508   0.701
37887W        W 8487  36.476   0.366  11.724
37888W        W 8488  31.147  26.716  13.002
37889W        W 8489  41.316   0.846  12.571
37890W        W 8490   8.623  40.381  13.099
37891W        W 8491  43.274  16.802   1.922
37892W        W 8492   4.858  33.250  11.634
37893W        W 8493  27.624  18.974   3.184
37894W        W 8494  36.953  17.480  14.812
37895W        W 8495  11.899  43.526  11.114
37896W        W 8496  30.787   3.800   1.413
37897W        W 8497  16.768  34.243  11.479
37898W        W 8498  27.215   1.918   1.395
37899W        W 8499   8.755   6.759   2.820
37900W        W 8500  17.122   3.522  11.481
37901W        W 8501  17.736  23.113  13.386
37902W        W 8502  27.007  19.673   0.915
37903W        W 8503  36.405   8.972   0.366
37904W        W 8504  27.070  38.487   2.444
37905W        W 8505  24.494  42.407   3.811
37906W        W 8506  37.922  24.077  13.360
37907W        W 8507  42.013  14.869   4.196
37908W        W 8508   1.451  12.894  12.813
37909W        W 8509   6.928   5.517  13.834
37910W        W 8510   0.243   0.722   1.390
37911W        W 8511   3.848  14.506  13.151
37912W        W 8512  10.366  41.322   0.367
37913W        W 8513  23.863  41.810   2.547
37914W        W 8514  23.706  37.637   0.050
37915W        W 8515  11.355  34.529  13.967
37916W        W 8516  44.448  20.566   2.697
37917W        W 8517  23.101  34.306   4.178
37918W        W 8518  44.254   5.251   1.721
37919W        W 8519  43.660   1.952  14.537
37920W        W 8520   4.514   0.090   3.263
37921W        W 8521   2.162  17.086  14.998
37922W        W 8522   3.203   8.031  12.081
37923W        W 8523  33.676  18.829   4.700
37924W        W 8524   2.063  40.489   0.865
37925W        W 8525  17.742  38.105  14.544
37926W        W 8526  44.503  29.445   4.637
37927W        W 8527   0.479  14.475   3.904
37928W        W 8528  33.338  25.058   3.787
37929W        W 8529  14.360  16.121   0.782
37930W        W 8530   2.868  10.226  12.620
37931W        W 8531   3.627   8.423  10.996
37932W        W 8532  10.733  28.385   3.752
37933W        W 8533  21.638  42.985   0.467
37934W        W 8534   6.088  20.432  11.238
37935W        W 8535  27.794  41.163  12.214
37936W        W 8536  10.248  10.658  12.213
37937W        W 8537  42.391  35.022   0.380
37938W        W 8538  26.145  34.385   4.625
37939W        W 8539   3.486  26.263   4.145
37940W        W 8540  32.114  29.529  14.105
37941W        W 8541  39.472  19.716   4.036
37942W        W 8542  44.270  15.945  10.327
37943W        W 8543  37.394   1.380  14.293
37944W        W 8544  40.214  19.521   3.660
37945W        W 8545  15.440  12.653  12.517
37946W        W 8546  42.663  28.945  13.114
37947W        W 8547  34.578   5.725   3.790
37948W        W 8548  29.156   8.340   3.907
37949W        W 8549  24.658  30.006   0.213
37950W        W 8550  36.814  11.825   3.679
37951W        W 8551  27.240  34.929  13.680
37952W        W 8552  22.494  15.341  14.452
37953W        W 8553  33.044  22.382   1.647
37954W        W 8554  28.067  19.347   1.492
37955W        W 8555   2.245  28.181   1.347
37956W        W 8556  44.201  25.941   0.009
37957W        W 8557  41.198  41.007   1.468
37958W        W 8558  12.339  11.952  13.446
37959W        W 8559  18.242  13.541  14.229
37960W        W 8560  28.376  31.069   3.932
37961W        W 8561   2.895  26.412  11.496
37962W        W 8562  26.064  35.623  10.621
37963W        W 8563  35.687   6.285   0.756
37964W        W 8564   8.670  41.739  13.397
37965W        W 8565   8.390  41.050  11.198
37966W        W 8566  26.372  36.928  10.767
37967W        W 8567   0.560  40.806  14.280
37968W        W 8568  35.463   1.513  12.530
37969W        W 8569  31.104  24.121  11.205
37970W        W 8570  25.496  24.513   0.290
37971W        W 8571  14.305  36.516  13.043
37972W        W 8572   7.666   9.936  10.739
37973W        W 8573   7.156   4.202  13.925
37974W        W 8574  31.526  21.580   2.256
37975W        W 8575   6.000   2.473  11.152
37976W        W 8576  26.016  38.600   0.297
37977W        W 8577  28.895  18.231   3.668
37978W        W 8578   9.711  26.348  13.401
37979W        W 8579  19.076  40.829  12.097
37980W        W 8580   4.337   0.549   3.551
37981W        W 8581  18.249  23.990  12.482
37982W        W 8582  37.305  12.576   4.097
37983W        W 8583  33.484  26.003  14.597
37984W        W 8584  22.564  26.634  11.940
37985W        W 8585  11.824  24.973   1.819
37986W        W 8586  36.877  16.952   2.754
37987W        W 8587  41.841  18.614   3.715
37988W        W 8588  12.748  31.496  11.573
37989W        W 8589  36.999  42.473   1.310
37990W        W 8590  15.145  12.600   4.607
37991W        W 8591  18.164  15.101  13.889
37992W        W 8592  13.058  12.452   0.283
37993W        W 8593   3.738  19.378  10.831
37994W        W 8594   5.857  30.160   4.800
37995W        W 8595  35.022  25.450  11.946
37996W        W 8596  42.863   1.482  11.619
37997W        W 8597   0.293  44.268  13.883
37998W        W 8598   3.266  17.222   2.696
37999W        W 8599  26.959  37.286   2.186
38000W        W 8600  13.802  10.712   2.848
38001W        W 8601  36.225   9.727   4.872
38002W        W 8602  41.949  25.556  11.683
38003W        W 8603  19.848  35.081  12.154
38004W        W 8604  22.510  40.251  12.118
38005W        W 8605  15.118  41.960   1.906
38006W        W 8606  38.437  30.616  12.123
38007W        W 8607  44.296  29.665  12.950
38008W        W 8608   5.239  15.248  13.062
38009W        W 8609  42.453   2.412  13.927
38010W        W 8610  11.863  15.791   0.923
38011W        W 8611  19.202  29.022   5.347
38012W        W 8612  27.251   5.220  10.820
38013W        W 8613   3.676  43.019   2.614
38014W        W 8614  15.380  30.639   1.587
38015W        W 8615  22.057  25.301  12.867
38016W        W 8616  19.245  10.704   1.879
38017W        W 8617   4.970  43.423   4.125
38018W        W 8618  34.900  39.173  14.660
38019W        W 8619  16.411  24.958   3.163
38020W        W 8620   2.471  29.210   3.941
38021W        W 8621  20.054  39.260  10.754
38022W        W 8622  43.810  37.259  10.512
38023W        W 8623  17.928  38.343  11.481
38024W        W 8624  42.500  38.412   4.773
38025W        W 8625  31.551  12.949   2.806
38026W        W 8626  21.973  27.480  12.034
38027W        W 8627  13.128   4.072   3.326
38028W        W 8628  44.195  14.607  11.594
38029W        W 8629  30.954  38.434  14.811
38030W        W 8630   0.801  22.226  12.521
38031W        W 8631  20.657  13.783   4.940
38032W        W 8632  16.138  32.691  11.138
38033W        W 8633  33.536   4.488   2.300
38034W        W 8634  19.440  38.447  12.547
38035W        W 8635  16.301  13.393   0.420
38036W        W 8636  32.177  44.723   1.139
38037W        W 8637  34.587  39.906   4.242
38038W        W 8638   6.588   5.248   4.080
38039W        W 8639  23.338  10.434  10.668
38040W        W 8640  13.574  26.490  13.082
38041W        W 8641  39.633  41.492  10.754
38042W        W 8642  13.783   9.225  12.888
38043W        W 8643  37.916  10.839   2.467
38044W        W 8644  39.095  16.199  14.412
38045W        W 8645  43.578  39.524  12.064
38046W        W 8646  18.602  28.705   2.360
38047W        W 8647  17.167   4.031  11.380
38048W        W 8648  41.834   8.799  10.686
38049W        W 8649  38.477  27.425  12.166
38050W        W 8650  36.114  44.445   3.617
38051W        W 8651  12.229  24.774   1.495
38052W        W 8652  23.109   2.952  12.212
38053W        W 8653  11.792  20.778   2.866
38054W        W 8654  43.348  29.591  12.108
38055W        W 8655  23.220  44.485  13.551
38056W        W 8656   9.439  35.450  10.426
38057W        W 8657   9.594  39.528  13.829
38058W        W 8658  31.729  19.236  14.005
38059W        W 8659  30.918  12.600  13.352
38060W        W 8660  25.235  43.845   1.699
38061W        W 8661  28.625  34.201   2.737
38062W        W 8662  15.766   3.368  12.425
38063W        W 8663  40.415  23.095   1.493
38064W        W 8664  22.624   5.706   0.426
38065W        W 8665  14.324  17.289  12.922
38066W        W 8666  15.567  42.889  14.844
38067W        W 8667  18.016  11.864  12.171
38068W        W 8668  26.686  34.081   0.299
38069W        W 8669  38.568  22.149   1.920
38070W        W 8670   4.731  42.854   0.288
38071W        W 8671  13.116  25.980   3.666
38072W        W 8672   6.880  29.701  12.978
38073W        W 8673  37.444  16.977   2.655
38074W        W 8674  21.684  19.153   3.399
38075W        W 8675  25.652  38.475  12.075
38076W        W 8676  27.030   8.855  14.300
38077W        W 8677  42.439   6.895   0.643
38078W        W 8678  12.459   8.936  11.368
38079W        W 8679  44.906  19.274  13.094
38080W        W 8680   8.057  26.464  13.368
38081W        W 8681  34.616  23.043   3.618
38082W        W 8682   6.847  26.513   1.808
38083W        W 8683  20.134  20.062  14.631
38084W        W 8684  18.111  22.092   3.335
38085W        W 8685  16.083  29.100   4.466
38086W        W 8686  17.579   0.773  13.069
38087W        W 8687   7.953  12.814  13.044
38088W        W 8688  41.152  14.876   0.763
38089W        W 8689   0.819  33.162   3.889
38090W        W 8690   6.765  22.967   0.772
38091W        W 8691  19.912  12.836   1.353
38092W        W 8692  18.830  17.567  13.882
38093W        W 8693  34.066  31.238   3.265
38094W        W 8694   8.972  10.849   1.282
38095W        W 8695  17.086  44.303  10.554
38096W        W 8696   0.342   2.497  10.694
38097W        W 8697  25.110  22.572  12.936
38098W        W 8698  34.504  44.700  12.372
38099W        W 8699  17.175  25.703  11.250
38100W        W 8700  44.640  34.125  14.064
38101W        W 8701  39.561  40.336  13.038
38102W        W 8702   1.709  37.560   4.148
38103W        W 8703   9.209  11.616  12.408
38104W        W 8704   5.975   0.980  12.566
38105W        W 8705   8.674   1.853  11.095
38106W        W 8706   8.676  21.493  14.702
38107W        W 8707  25.567   6.168  12.902
38108W        W 8708   9.655  36.543  11.148
38109W        W 8709  41.988   4.204  13.082
38110W        W 8710  15.120  28.267  12.128
38111W        W 8711  31.845   8.677   1.334
38112W        W 8712   7.847  13.149  14.379
38113W        W 8713  40.348  40.545  11.511
38114W        W 8714  38.450  15.248   4.412
38115W        W 8715   5.835   6.808  11.994
38116W        W 8716  35.845  38.502  11.394
38117W        W 8717   3.943  17.132  13.773
38118W        W 8718  28.122  34.599   0.171
38119W        W 8719  19.146  39.078   2.718
38120W        W 8720  23.433  31.927   0.355
38121W        W 8721  39.421  39.435   0.024
38122W        W 8722  35.558  25.714   4.193
38123W        W 8723  28.491  32.546  13.831
38124W        W 8724   8.869  37.337  14.364
38125W        W 8725  10.179  44.911   1.803
38126W        W 8726  44.404  29.692  10.774
38127W        W 8727   0.940   1.979   4.245
38128W        W 8728  17.864  28.100  12.267
38129W        W 8729   7.132  10.940  14.562
38130W        W 8730  43.892  26.711   1.922
38131W        W 8731  24.946  37.481   4.574
38132W        W 8732  23.081   3.858   3.208
38133W        W 8733  22.539  34.024  14.315
38134W        W 8734  24.018  35.394   1.142
38135W        W 8735  36.266  42.643  14.411
38136W        W 8736  40.112  24.919   0.398
38137W        W 8737  41.208  17.503  10.338
38138W        W 8738   8.194  10.304   3.384
38139W        W 8739  31.564   1.247  11.496
38140W        W 8740  25.230  18.738  13.278
38141W        W 8741  22.127  19.255   0.494
38142W        W 8742  41.342  21.522  12.397
38143W        W 8743  27.071   6.244  11.952
38144W        W 8744   1.044  41.973  14.298
38145W        W 8745  26.605  31.106   4.264
38146W        W 8746   2.912  17.794  13.974
38147W        W 8747  39.396  30.352   0.853
38148W        W 8748  44.470  40.867   0.240
38149W        W 8749  36.561  43.209   0.276
38150W        W 8750  17.178  34.992  13.801
38151W        W 8751  37.264  11.429   0.531
38152W        W 8752  23.911  23.454  13.110
38153W        W 8753  29.653  28.801  13.388
38154W        W 8754  43.948  20.605  13.608
38155W        W 8755   7.676  37.619   2.290
38156W        W 8756  29.867  12.615   3.745
38157W        W 8757  23.810   7.983  11.963
38158W        W 8758   1.906  14.335   1.987
38159W        W 8759  31.581  24.760   4.737
38160W        W 8760   3.253  38.194  13.516
38161W        W 8761  19.535  40.570  11.905
38162W        W 8762  21.971  41.428  12.207
38163W        W 8763  22.370   7.585   4.563
38164W        W 8764  38.829  43.435  13.396
38165W        W 8765  33.881  41.598  11.351
38166W        W 8766  21.761   0.543   3.596
38167W        W 8767  14.337   0.362  13.449
38168W        W 8768   5.080   7.993   0.662
38169W        W 8769  21.148  18.330   1.391
38170W        W 8770  12.848  33.966   0.293
38171W        W 8771  44.810   3.434  14.859
38172W        W 8772  34.163  31.594  13.944
38173W        W 8773   9.171  32.375   0.055
38174W        W 8774  24.675  35.867  12.902
38175W        W 8775  39.472  34.858  14.145
38176W        W 8776   0.810   9.870  12.466
38177W        W 8777  18.031  40.451  12.903
38178W        W 8778  35.147  28.385   4.607
38179W        W 8779  25.002  34.419   2.795
38180W        W 8780  20.264  21.226  11.662
38181W        W 8781  17.260  16.689   0.092
38182W        W 8782  38.708   5.821  11.981
38183W        W 8783   9.188  35.795   2.614
38184W        W 8784  44.382  29.828   5.009
38185W        W 8785  17.985   4.188   1.401
38186W        W 8786  14.767   4.359   1.393
38187W        W 8787  26.760  26.045  12.493
38188W        W 8788   5.869  21.633   4.984
38189W        W 8789  16.263  16.786  10.814
38190W        W 8790  11.256  38.923   2.125
38191W        W 8791   2.165   4.249   0.506
38192W        W 8792  43.034  21.276   3.227
38193W        W 8793  25.747  20.252  11.062
38194W        W 8794  24.713  37.010   4.822
38195W        W 8795  35.547  24.366   4.405
38196W        W 8796  41.132  20.973  12.877
38197W        W 8797  16.161  35.955   3.406
38198W        W 8798  16.564  30.228   4.951
38199W        W 8799  13.687  16.109  11.786
38200W        W 8800  34.350  40.093   3.122
38201W        W 8801  42.240  11.708   2.606
38202W        W 8802  29.364  41.827   1.743
38203W        W 8803  31.629  34.889   3.177
38204W        W 8804  23.739  14.638   2.715
38205W        W 8805  14.661  29.551   2.714
38206W        W 8806  18.146  14.618   1.363
38207W        W 8807  38.073  42.499  10.932
38208W        W 8808  43.111  24.342  11.123
38209W        W 8809   9.759  39.969  11.774
38210W        W 8810  36.107   4.971  10.411
38211W        W 8811  24.288   1.799  11.915
38212W        W 8812  41.576  39.338  14.344
38213W        W 8813  31.063  15.770  11.724
38214W        W 8814   9.512  44.156   1.829
38215W        W 8815  40.218  17.608   0.722
38216W        W 8816  11.872  14.174   3.100
38217W        W 8817   4.859  15.776  12.490
38218W        W 8818  22.993  39.422  14.991
38219W        W 8819  12.406  14.447   3.797
38220W        W 8820  25.154  27.166  13.453
38221W        W 8821  39.340  37.925   2.703
38222W        W 8822   0.775   3.908   0.423
38223W        W 8823  27.890  11.741   1.347
38224W        W 8824  36.531  13.920  12.307
38225W        W 8825  14.648  34.707   3.602
38226W        W 8826   7.728   7.901  13.472
38227W        W 8827  32.452  44.861   2.047
38228W        W 8828  35.624   8.931   5.041
38229W        W 8829  28.627  14.606  12.088
38230W        W 8830   3.471  36.496   4.708
38231W        W 8831  11.855  42.561  10.127
38232W        W 8832  37.787  38.669  13.446
38233W        W 8833  37.870   8.303   4.174
38234W        W 8834   9.637  39.381   3.738
38235W        W 8835   0.015  20.277  10.978
38236W        W 8836   4.036  20.763   3.997
38237W        W 8837   7.669  10.625   0.218
38238W        W 8838   4.193  18.962   4.244
38239W        W 8839  37.101  20.277  14.528
38240W        W 8840  30.424   6.321   1.364
38241W        W 8841  16.262  42.072  14.777
38242W        W 8842  11.162   1.443  13.974
38243W        W 8843  24.061   2.957  14.333
38244W        W 8844  29.483   0.959   0.014
38245W        W 8845  26.485  13.569   3.906
38246W        W 8846  29.940  16.675  11.375
38247W        W 8847  28.401  43.209   4.390
38248W        W 8848  44.110  20.011   1.380
38249W        W 8849   4.447  39.829  13.494
38250W        W 8850  22.558  30.436  13.058
38251W        W 8851  21.100  25.877   3.638
38252W        W 8852  34.028  34.560  13.427
38253W        W 8853  26.821   3.544   0.020
38254W        W 8854  15.840   1.974   1.512
38255W        W 8855  21.189   3.754  10.330
38256W        W 8856   5.645  10.368   1.643
38257W        W 8857  22.797  24.233  12.022
38258W        W 8858  13.731  20.647   2.778
38259W        W 8859  35.942  39.941   4.615
38260W        W 8860  40.567  32.508  14.461
38261W        W 8861   1.659  42.613  11.336
38262W        W 8862  30.707  37.076   2.360
38263W        W 8863  30.778  13.819   1.334
38264W        W 8864   0.305  20.351  10.560
38265W        W 8865  30.378  19.957   1.451
38266W        W 8866  14.332  40.948   2.202
38267W        W 8867  39.429   3.893  14.271
38268W        W 8868  25.100  13.101  11.650
38269W        W 8869  28.568   9.255  13.127
38270W        W 8870   5.851   0.622  14.290
38271W        W 8871  41.975  14.032  13.990
38272W        W 8872  20.984  26.631  10.670
38273W        W 8873  38.187  35.834  12.413
38274W        W 8874   1.112  35.523  14.350
38275W        W 8875  12.717  25.431   4.180
38276W        W 8876   3.511   7.588   1.268
38277W        W 8877  32.684  31.446   0.814
38278W        W 8878  24.027  18.950  14.410
38279W        W 8879   3.943  24.979  13.354
38280W        W 8880  25.686  30.515  13.430
38281W        W 8881  33.915  12.377  12.364
38282W        W 8882  38.096  16.777   2.152
38283W        W 8883  36.894   7.768   3.820
38284W        W 8884   9.975  15.479   2.325
38285W        W 8885  20.133  30.041  11.134
38286W        W 8886   6.419  14.549  12.431
38287W        W 8887  43.040  33.542   4.765
38288W        W 8888   5.665  21.635   0.430
38289W        W 8889  27.350  24.612   1.702
38290W        W 8890  25.987   6.984   0.295
38291W        W 8891  10.807  27.937  13.416
38292W        W 8892   3.244  28.020   1.739
38293W        W 8893  26.459  28.479   0.509
38294W        W 8894   3.366  44.355   0.753
38295W        W 8895   5.482  23.062  12.051
38296W        W 8896  23.113   9.136  11.679
38297W        W 8897   6.860  11.648   0.544
38298W        W 8898   9.040  17.663   2.690
38299W        W 8899  27.597  28.741   2.858
38300W        W 8900  17.702  17.221   1.350
38301W        W 8901  20.701  35.104  13.955
38302W        W 8902  18.086  39.917   0.586
38303W        W 8903  20.013  17.548  10.608
38304W        W 8904  17.518   0.178  14.911
38305W        W 8905  36.430   8.719   1.382
38306W        W 8906   7.085  30.911   0.793
38307W        W 8907  39.936  28.633   4.349
38308W        W 8908   8.017  28.781  11.558
38309W        W 8909  22.536   6.675   2.867
38310W        W 8910  14.653  27.061  11.633
38311W        W 8911   6.536  23.994  13.856
38312W        W 8912  44.384   7.660   3.365
38313W        W 8913   1.852   3.401  14.588
38314W        W 8914  29.365   5.301   3.756
38315W        W 8915   2.428  23.276  13.898
38316W        W 8916  37.348  15.798   0.401
38317W        W 8917  20.004  17.083  14.337
38318W        W 8918  19.850  42.973   2.353
38319W        W 8919  12.284  22.389  13.978
38320W        W 8920  17.287  19.050   0.332
38321W        W 8921  26.916  16.668  14.039
38322W        W 8922  14.738  42.390   2.375
38323W        W 8923   6.139  42.495   2.303
38324W        W 8924  17.314  31.546  11.478
38325W        W 8925  24.062   0.379  12.051
38326W        W 8926   0.054  37.663   0.384
38327W        W 8927   6.662  15.652  12.832
38328W        W 8928  16.198   4.177  11.205
38329W        W 8929  36.858  43.572  13.603
38330W        W 8930  34.612  43.788   2.351
38331W        W 8931  38.435  43.790  11.472
38332W        W 8932  26.505  37.527  13.442
38333W        W 8933  22.605  32.324  10.739
38334W        W 8934  40.693  42.589   4.997
38335W        W 8935  28.720  29.945   3.341
38336W        W 8936  12.119  28.749   1.745
38337W        W 8937  13.102  39.509  14.032
38338W        W 8938   9.443  30.254   3.607
38339W        W 8939  31.809   5.282  11.393
38340W        W 8940  40.870   2.993  14.293
38341W        W 8941  43.480   3.888  14.055
38342W        W 8942  35.864   9.723   0.393
38343W        W 8943  44.010  17.147   0.417
38344W        W 8944  19.485  20.235  10.577
38345W        W 8945  24.919  37.429  13.875
38346W        W 8946  16.903   5.701  14.469
38347W        W 8947  23.268  16.033   4.914
38348W        W 8948   2.311  34.490  12.870
38349W        W 8949  22.308  38.447  13.931
38350W        W 8950   1.010   5.948  12.577
38351W        W 8951  14.066   9.929   3.300
38352W        W 8952  20.408  39.645  11.209
38353W        W 8953  43.852   0.212   1.702
38354W        W 8954   7.291  33.188   5.198
38355W        W 8955  26.743   3.024   2.485
38356W        W 8956  37.617  44.781   1.326
38357W        W 8957  15.261  15.984   1.413
38358W        W 8958  28.162  35.410  11.088
38359W        W 8959  40.307  19.718   2.815
38360W        W 8960  33.969  39.280  10.169
38361W        W 8961  16.298   7.688   0.700
38362W        W 8962  44.309  30.417   1.460
38363W        W 8963  23.029  42.246   0.330
38364W        W 8964  13.281  39.598  12.927
38365W        W 8965   8.184  30.104   4.648
38366W        W 8966  14.697  26.919  13.766
38367W        W 8967   8.122  12.750  11.233
38368W        W 8968  11.327  42.370  13.777
38369W        W 8969  17.139  40.469  12.903
38370W        W 8970  20.512  31.323   2.154
38371W        W 8971   8.412  10.121   3.889
38372W        W 8972   1.361  34.375   0.981
38373W        W 8973   0.900   1.167  11.695
38374W        W 8974  23.103   7.147   0.423
38375W        W 8975  26.419  12.219   3.772
38376W        W 8976  31.453  21.358   2.715
38377W        W 8977  13.886   1.700   1.317
38378W        W 8978  29.881  33.171   3.971
38379W        W 8979  33.405  38.784   0.816
38380W        W 8980  34.875  17.083   2.228
38381W        W 8981  42.372  23.220   0.412
38382W        W 8982  28.188   3.662   4.620
38383W        W 8983  17.046  24.609   0.849
38384W        W 8984  21.153  41.307  12.758
38385W        W 8985  13.469  11.784   0.015
38386W        W 8986  42.099  39.440  11.899
38387W        W 8987   7.934  42.454   0.266
38388W        W 8988  40.437   1.663  11.961
38389W        W 8989  31.893   5.156  12.740
38390W        W 8990  23.542  42.387   0.311
38391W        W 8991  24.137  24.420  11.933
38392W        W 8992   6.192  19.563  14.982
38393W        W 8993  10.642  40.812   4.840
38394W        W 8994  38.295  38.809   3.487
38395W        W 8995  16.170   5.323   2.663
38396W        W 8996   3.219  34.837  14.088
38397W        W 8997  33.661  32.644  13.471
38398W        W 8998   0.745   6.825   3.140
38399W        W 8999  42.339  17.721   3.566
38400W        W 9000  35.336  30.829  10.996
38401W        W 9001  23.175  32.599  11.420
38402W        W 9002  15.841  34.141  13.623
38403W        W 9003   9.424   2.897   3.875
38404W        W 9004  25.021  21.716   3.360
38405W        W 9005  30.162  37.479  13.019
38406W        W 9006  36.569  22.507  11.665
38407W        W 9007  42.320  21.442  12.462
38408W        W 9008  36.560   5.829   3.592
38409W        W 9009  23.571   3.369  10.693
38410W        W 9010  25.532  22.161   2.687
38411W        W 9011  38.922  18.589  14.989
38412W        W 9012  28.564  15.634  11.708
38413W        W 9013  15.341   0.238   1.775
38414W        W 9014  25.574  36.383   4.845
38415W        W 9015  32.635  20.052  10.978
38416W        W 9016  11.197   9.542   3.981
38417W        W 9017  20.683  26.603  12.358
38418W        W 9018  27.948  36.050   2.744
38419W        W 9019  39.061  43.551   3.263
38420W        W 9020   5.862  41.538  11.853
38421W        W 9021  30.853   9.394  12.500
38422W        W 9022  19.826  11.266   4.079
38423W        W 9023  24.140  10.854  13.388
38424W        W 9024  40.006  41.770   1.283
38425W        W 9025  38.091  32.346   2.629
38426W        W 9026   9.119  18.568   0.243
38427W        W 9027  18.437  35.958  10.722
38428W        W 9028  28.891   2.226   2.675
38429W        W 9029  23.342  32.092   3.736
38430W        W 9030   8.897   2.368  11.241
38431W        W 9031  10.281   7.682   2.357
38432W        W 9032  19.737  24.044  11.643
38433W        W 9033  14.704  15.193   1.431
38434W        W 9034  39.405  13.547  14.900
38435W        W 9035  29.269  19.829  13.472
38436W        W 9036   8.195  31.639   1.043
38437W        W 9037  19.556  10.236  12.587
38438W        W 9038  41.370  16.240  12.491
38439W        W 9039  39.205  27.921   1.199
38440W        W 9040   3.880  26.605   2.418
38441W        W 9041  35.782  27.510   3.743
38442W        W 9042  32.898  43.889   1.927
38443W        W 9043  38.044  31.240  14.461
38444W        W 9044  13.394  35.799  11.249
38445W        W 9045  14.881  16.900   1.403
38446W        W 9046  40.625  34.315  12.098
38447W        W 9047  10.198  41.554   1.488
38448W        W 9048  39.460   5.174   1.962
38449W        W 9049  10.139  32.178  10.278
38450W        W 9050  35.786  18.950   1.758
38451W        W 9051  44.305  33.008   2.935
38452W        W 9052  17.190  30.052  11.728
38453W        W 9053  29.368  44.146  13.559
38454W        W 9054  30.916  43.571   4.073
38455W        W 9055  21.199   9.648  12.032
38456W        W 9056  31.782  25.390   0.811
38457W        W 9057  37.498  36.238  13.328
38458W        W 9058   9.963  40.358  12.529
38459W        W 9059  32.606  20.143   2.219
38460W        W 9060  30.565  27.207   1.681
38461W        W 9061  34.444  40.626  13.138
38462W        W 9062  44.778  32.097   3.238
38463W        W 9063  23.003  31.408   3.236
38464W        W 9064  10.899  11.008   3.148
38465W        W 9065  23.527   0.777   4.630
38466W        W 9066   5.672  37.114   0.946
38467W        W 9067  30.190  42.066  12.737
38468W        W 9068   6.219   2.995   0.587
38469W        W 9069  37.510  31.403   4.421
38470W        W 9070  14.281   3.385   4.582
38471W        W 9071  32.495  28.554  14.871
38472W        W 9072  19.871  32.035   4.635
38473W        W 9073  13.553   3.477  10.955
38474W        W 9074   3.463  25.985   1.037
38475W        W 9075  24.181  24.898  12.998
38476W        W 9076   7.429  42.023   4.738
38477W        W 9077   7.411  39.129  12.102
38478W        W 9078   9.115   4.372   3.672
38479W        W 9079  30.417  23.046  14.855
38480W        W 9080  33.850   5.280  10.535
38481W        W 9081   5.869  32.077  12.967
38482W        W 9082  17.090  16.959   4.069
38483W        W 9083  35.916  29.599  12.328
38484W        W 9084   3.352  24.291  13.820
38485W        W 9085   0.055  35.610   1.681
38486W        W 9086  34.427  28.307  14.649
38487W        W 9087  26.952  11.222   1.896
38488W        W 9088  20.109  16.119  11.085
38489W        W 9089  13.258  25.548  13.097
38490W        W 9090   4.963  43.044   2.808
38491W        W 9091  21.533  36.328   4.644
38492W        W 9092  43.613  11.302   4.056
38493W        W 9093  25.438  23.889  13.524
38494W        W 9094   3.348  34.315  11.782
38495W        W 9095   9.729   1.186   3.534
38496W        W 9096   3.125  42.426   3.780
38497W        W 9097   2.514  13.585  12.566
38498W        W 9098  13.356  37.440   1.750
38499W        W 9099  23.904  29.493  11.982
38500W        W 9100  27.588  44.812   4.028
38501W        W 9101  35.968  11.361   0.188
38502W        W 9102  41.483  22.263   3.753
38503W        W 9103  16.936   1.868   1.868
38504W        W 9104  16.862  22.528  11.438
38505W        W 9105   6.775  16.270   0.422
38506W        W 9106  38.616  36.042  14.802
38507W        W 9107  29.414   4.368  12.813
38508W        W 9108  32.934  36.497   2.999
38509W        W 9109   4.728  31.572  12.285
38510W        W 9110  13.834  10.256   4.711
38511W        W 9111  27.588  24.042   2.426
38512W        W 9112  26.736   4.655   5.085
38513W        W 9113  15.624   0.824   4.490
38514W        W 9114  30.362  35.422   4.304
38515W        W 9115   8.154  39.250  11.624
38516W        W 9116   6.495  20.498   4.452
38517W        W 9117  34.212  28.962  12.145
38518W        W 9118  37.397   8.864  10.167
38519W        W 9119  22.385   8.665  13.427
38520W        W 9120  31.429  15.369  13.470
38521W        W 9121  36.172  41.400   3.162
38522W        W 9122  42.216   6.194  12.657
38523W        W 9123  42.804  20.671  14.714
38524W        W 9124  41.994  33.022   0.812
38525W        W 9125  44.458  24.949  11.037
38526W        W 9126  27.846  30.552   4.280
38527W        W 9127  14.261   8.583  13.472
38528W        W 9128  36.588  14.643   0.364
38529W        W 9129   1.928  35.607   3.727
38530W        W 9130  36.025  34.609  11.915
38531W        W 9131  31.089  21.800  10.693
38532W        W 9132  24.622  10.407   2.835
38533W        W 9133  15.876  14.566  14.027
38534W        W 9134   0.242  19.540  14.808
38535W        W 9135  15.789   9.989  12.503
38536W        W 9136  26.815  28.100  10.110
38537W        W 9137   1.819  23.277  14.558
38538W        W 9138   1.296  29.132   0.398
38539W        W 9139  25.846  16.864  12.932
38540W        W 9140  10.556   0.016  14.494
38541W        W 9141   2.437  25.739   3.343
38542W        W 9142  37.561   9.746  13.405
38543W        W 9143  10.167  16.777  14.895
38544W        W 9144  11.860  37.273   4.557
38545W        W 9145   2.445  15.759  11.984
38546W        W 9146  35.065  38.806   1.822
38547W        W 9147   9.407  18.990   0.546
38548W        W 9148  35.085  22.672   4.209
38549W        W 9149  40.014  11.120   0.332
38550W        W 9150   5.168  40.054   0.799
38551W        W 9151  30.148  23.780   3.576
38552W        W 9152   1.880  28.536  12.934
38553W        W 9153   7.278   3.725  13.829
38554W        W 9154  23.086  30.016   3.506
38555W        W 9155  32.127  11.827   4.194
38556W        W 9156  12.239  41.710   2.646
38557W        W 9157  35.121  30.916   1.585
38558W        W 9158  12.211  16.583  12.674
38559W        W 9159  31.758  30.363   0.792
38560W        W 9160  32.476  33.165  14.097
38561W        W 9161  33.464  39.377   0.518
38562W        W 9162  19.633  24.792  14.125
38563W        W 9163  37.990  18.147   1.221
38564W        W 9164  28.457  39.401   2.750
38565W        W 9165  25.706  12.884   4.597
38566W        W 9166  24.766  25.267  12.340
38567W        W 9167  18.129  17.729   0.288
38568W        W 9168  29.020  30.889  13.017
38569W        W 9169  18.595   1.121   5.502
38570W        W 9170   8.279  32.450  13.412
38571W        W 9171   1.330  33.898  13.731
38572W        W 9172  26.041  14.450  11.052
38573W        W 9173  30.585  40.887  12.924
38574W        W 9174  10.727  12.331   0.990
38575W        W 9175  35.048  18.339  11.668
38576W        W 9176  27.080  21.098  13.997
38577W        W 9177  29.501   6.707  11.887
38578W        W 9178  31.422   4.345  14.262
38579W        W 9179  15.546  36.403  13.584
38580W        W 9180  42.374  31.164   3.567
38581W        W 9181   9.371  13.859  11.938
38582W        W 9182  32.690   4.270  11.485
38583W        W 9183  24.554  28.267   2.382
38584W        W 9184  21.806  33.433  12.223
38585W        W 9185   6.739   2.535   4.226
38586W        W 9186  39.680   9.945  12.491
38587W        W 9187  20.146  11.848   4.618
38588W        W 9188  27.326  40.583  14.348
38589W        W 9189   2.360  40.317   2.344
38590W        W 9190  32.702   2.433  11.529
38591W        W 9191  37.687   6.855  11.121
38592W        W 9192  17.296  23.469   1.899
38593W        W 9193  29.990  42.220  11.207
38594W        W 9194  40.583  25.083  14.869
38595W        W 9195  17.647  15.577   3.194
38596W        W 9196   0.803  26.555   4.532
38597W        W 9197  13.896   6.079   1.287
38598W        W 9198  33.511  13.132  12.976
38599W        W 9199   7.729  10.734   3.570
38600W        W 9200  23.251  19.322   3.184
38601W        W 9201   7.996  40.911   0.174
38602W        W 9202  44.951  13.671  10.695
38603W        W 9203   0.217  43.231   1.925
38604W        W 9204  27.441  33.433   0.457
38605W        W 9205  10.564   8.860   4.956
38606W        W 9206   8.882   8.912   1.330
38607W        W 9207  44.542  11.315  14.780
38608W        W 9208   1.671  21.274  12.654
38609W        W 9209  25.412   5.772   4.091
38610W        W 9210  32.662  44.271  11.233
38611W        W 9211  33.934  20.452  11.209
38612W        W 9212  13.298   9.649   4.213
38613W        W 9213  17.777  22.539  14.893
38614W        W 9214   0.514  36.070  11.112
38615W        W 9215  16.893  34.326   4.005
38616W        W 9216  15.703   2.474  11.616
38617W        W 9217  33.994   5.807  13.377
38618W        W 9218  30.999  15.842  12.220
38619W        W 9219  20.574  42.422  11.569
38620W        W 9220  41.725  11.683   2.717
38621W        W 9221  42.946  21.215  13.774
38622W        W 9222  31.088  17.751   4.414
38623W        W 9223  17.470   9.220   1.252
38624W        W 9224  17.305  27.995   3.358
38625W        W 9225  27.118   2.800   0.100
38626W        W 9226  29.528  10.148  12.480
38627W        W 9227  43.225  36.012  13.463
38628W        W 9228  18.815  28.335   1.360
38629W        W 9229  37.806  20.460  11.145
38630W        W 9230  10.214   9.168   2.195
38631W        W 9231  10.933  38.863  10.023
38632W        W 9232  42.341   5.489  11.188
38633W        W 9233   1.558  24.541   0.235
38634W        W 9234  30.982  11.366  14.766
38635W        W 9235  20.718   6.388   0.797
38636W        W 9236  28.740  37.477  11.573
38637W        W 9237   0.857   8.596  12.497
38638W        W 9238  34.566  27.469  13.990
38639W        W 9239  23.032  20.729  12.462
38640W        W 9240   8.442   1.219  14.988
38641W        W 9241  23.701  22.060  13.764
38642W        W 9242  18.980  35.581  13.613
38643W        W 9243  16.536  31.481  10.960
38644W        W 9244  22.105  19.393   2.674
38645W        W 9245  40.761  25.249  13.410
38646W        W 9246  31.638   1.062   4.217
38647W        W 9247  36.507  43.270  11.171
38648W        W 9248  37.832   7.261  11.434
38649W        W 9249  32.386  30.722  13.901
38650W        W 9250  43.545   9.909   4.570
38651W        W 9251   9.366  26.723  13.534
38652W        W 9252  44.429  18.113  12.134
38653W        W 9253   7.153  40.058   0.713
38654W        W 9254  26.585  21.575   0.855
38655W        W 9255  31.170  27.082   3.728
38656W        W 9256   2.856  25.085  14.443
38657W        W 9257  14.659   2.616   3.101
38658W        W 9258  40.391  26.976  11.218
38659W        W 9259  41.969  24.204  11.702
38660W        W 9260   3.822  19.279   5.095
38661W        W 9261  17.036  29.772  12.117
38662W        W 9262  15.137  29.279  12.034
38663W        W 9263  24.395  16.855   4.470
38664W        W 9264   2.959   9.192   4.995
38665W        W 9265  21.998  29.770  13.377
38666W        W 9266  15.362  26.386   1.805
38667W        W 9267  15.856   0.382  10.859
38668W        W 9268  35.381  25.259  11.143
38669W        W 9269  15.712   6.757  11.429
38670W        W 9270   7.413   5.128   1.362
38671W        W 9271   0.822  33.694  10.576
38672W        W 9272  42.886  12.153   1.176
38673W        W 9273   2.289  21.037  11.518
38674W        W 9274  23.459  39.468  13.822
38675W        W 9275  43.282  19.665   0.253
38676W        W 9276  42.785  14.308  13.115
38677W        W 9277   1.225  33.376   4.247
38678W        W 9278  13.670  42.955   0.946
38679W        W 9279  32.440  20.511   0.454
38680W        W 9280  14.328  26.758   0.386
38681W        W 9281  36.829  21.915   1.359
38682W        W 9282  10.445  12.667  12.527
38683W        W 9283  10.308  20.786  13.589
38684W        W 9284  35.344   4.342  10.779
38685W        W 9285  25.596   6.707  11.538
38686W        W 9286   1.297   9.229   0.864
38687W        W 9287   9.105  28.016   9.670
38688W        W 9288  36.369  40.727  12.481
38689W        W 9289   3.714   7.895  11.960
38690W        W 9290  23.337   6.653   2.636
38691W        W 9291   7.597  26.094  11.087
38692W        W 9292   3.665  36.129  14.407
38693W        W 9293   9.843   6.069   1.797
38694W        W 9294   2.803   1.787  11.522
38695W        W 9295  25.357   3.534   0.957
38696W        W 9296   9.746  16.497  11.973
38697W        W 9297  38.354  28.465  12.317
38698W        W 9298  31.852  33.513  14.441
38699W        W 9299  13.558  23.602   4.622
38700W        W 9300  24.116  41.514   0.373
38701W        W 9301  36.390  14.220   1.789
38702W        W 9302  14.124   5.917  12.902
38703W        W 9303   2.891  14.838   3.159
38704W        W 9304   9.794  21.540   2.191
38705W        W 9305  40.272  22.462  10.953
38706W        W 9306   0.835  44.723  11.664
38707W        W 9307  29.645  44.680  14.821
38708W        W 9308  23.119   8.344  12.929
38709W        W 9309   0.467  35.837  14.814
38710W        W 9310   6.694  12.757  12.108
38711W        W 9311  24.433  44.696  11.560
38712W        W 9312  26.767  34.828  13.438
38713W        W 9313  44.026  22.695   1.307
38714W        W 9314  44.577   5.421   4.066
38715W        W 9315  24.542  26.440   0.969
38716W        W 9316  13.745  40.275  12.962
38717W        W 9317  27.262  12.115   3.341
38718W        W 9318  15.294  25.325   2.300
38719W        W 9319  33.857   7.405   3.552
38720W        W 9320   2.796  33.213   0.378
38721W        W 9321  12.614  41.364  11.073
38722W        W 9322   3.534  23.948  12.418
38723W        W 9323   1.507  33.604   3.124
38724W        W 9324  13.153  42.711  11.849
38725W        W 9325  31.178  23.090  13.645
38726W        W 9326  10.656  43.764   0.655
38727W        W 9327  38.310  28.272   0.397
38728W        W 9328  42.693   2.089   1.268
38729W        W 9329  23.460  25.712   3.642
38730W        W 9330  16.522  10.596   3.268
38731W        W 9331  33.938  28.691  12.518
38732W        W 9332  12.192  39.395   2.432
38733W        W 9333  42.434  32.470   1.453
38734W        W 9334  19.062  34.108   0.866
38735W        W 9335  44.426  31.183   1.024
38736W        W 9336  21.784  31.566  14.002
38737W        W 9337  22.861  23.862  14.694
38738W        W 9338  14.604   2.276  14.321
38739W        W 9339  13.233  41.171   5.015
38740W        W 9340   4.980  30.650   1.193
38741W        W 9341   2.783   1.210   1.882
38742W        W 9342  38.936  14.457   1.457
38743W        W 9343  19.195  30.204  13.461
38744W        W 9344  19.164  44.190  10.746
38745W        W 9345   8.826  29.426  12.362
38746W        W 9346   7.178  19.838  11.583
38747W        W 9347  30.899  29.127   3.708
38748W        W 9348  11.936  26.488  12.863
38749W        W 9349   9.935  43.927   1.986
38750W        W 9350  36.330  20.714  14.300
38751W        W 9351  22.473  20.203  11.128
38752W        W 9352  10.163  34.139   1.698
38753W        W 9353  13.300  16.995  13.359
38754W        W 9354  40.974  29.501   2.488
38755W        W 9355   2.265  15.212   0.862
38756W        W 9356   4.876  29.168   0.479
38757W        W 9357  23.954   8.346   1.336
38758W        W 9358  37.820   2.014  11.882
38759W        W 9359  33.863  19.987  13.154
38760W        W 9360  23.671  34.126   1.348
38761W        W 9361  15.258  20.525  11.555
38762W        W 9362  32.365  12.622   0.423
38763W        W 9363  36.931   8.304  12.479
38764W        W 9364  22.673   1.970   0.802
38765W        W 9365  10.897  16.832  14.312
38766W        W 9366  15.338  39.498  12.983
38767W        W 9367   5.238  18.770  14.539
38768W        W 9368  33.347   6.167  13.026
38769W        W 9369  11.748  13.697   3.281
38770W        W 9370  24.446  17.649   0.847
38771W        W 9371   3.755   8.657   0.808
38772W        W 9372  29.773  26.021  10.665
38773W        W 9373  20.502  15.189  12.431
38774W        W 9374   0.884  15.533   4.136
38775W        W 9375  25.243  29.111  10.771
38776W        W 9376   4.906   9.067  12.807
38777W        W 9377  19.342  13.174   3.665
38778W        W 9378  12.240  17.647   4.816
38779W        W 9379  37.465  24.629   1.914
38780W        W 9380  10.090  33.399  14.481
38781W        W 9381   8.140  17.371   0.374
38782W        W 9382  15.330  38.131  11.776
38783W        W 9383  41.532  33.053  13.963
38784W        W 9384  41.103  15.947   0.384
38785W        W 9385   9.986  30.065  10.538
38786W        W 9386  10.100  15.245   2.785
38787W        W 9387  14.480  30.669   4.536
38788W        W 9388  28.018  17.051   4.594
38789W        W 9389  18.754  41.864  14.649
38790W        W 9390  38.839  28.564   1.741
38791W        W 9391  41.304  39.823   2.823
38792W        W 9392  10.736  37.652  12.471
38793W        W 9393   4.778   6.243   2.605
38794W        W 9394  24.249  35.677   0.176
38795W        W 9395  37.933  16.793   3.706
38796W        W 9396  35.662  31.342  11.969
38797W        W 9397   9.580  39.126  10.625
38798W        W 9398  15.341  22.614  14.682
38799W        W 9399  22.279  30.970   4.051
38800W        W 9400  11.847  34.133   2.790
38801W        W 9401  22.061  26.556   2.193
38802W        W 9402   6.326  19.079  11.190
38803W        W 9403  15.647  27.145   1.907
38804W        W 9404  31.129  41.078  12.983
38805W        W 9405  28.645  24.501   3.052
38806W        W 9406  21.000  28.054  13.824
38807W        W 9407  36.413  14.144   3.896
38808W        W 9408  28.680  34.077   0.257
38809W        W 9409   0.419  42.721  12.872
38810W        W 9410  14.511  16.980   2.868
38811W        W 9411  40.930  31.448  11.868
38812W        W 9412  25.281   1.762  12.674
38813W        W 9413  10.246  17.237   0.202
38814W        W 9414  15.750  21.122   2.717
38815W        W 9415   6.142  12.289  13.880
38816W        W 9416  44.017  24.714   3.676
38817W        W 9417  39.260  42.752   3.679
38818W        W 9418  44.337  36.858   3.660
38819W        W 9419   3.660   3.292   1.541
38820W        W 9420  13.497  24.691  13.251
38821W        W 9421  26.936  18.516   1.793
38822W        W 9422  15.379  43.821  11.642
38823W        W 9423  15.093  19.204   2.813
38824W        W 9424   8.171  37.913  10.748
38825W        W 9425   6.323  19.620  12.519
38826W        W 9426  16.533   3.016  11.484
38827W        W 9427   4.840  33.643  12.054
38828W        W 9428  10.133  32.122  14.945
38829W        W 9429  34.633   0.963  13.829
38830W        W 9430  24.197  21.145  12.029
38831W        W 9431  42.519   2.628  13.445
38832W        W 9432   9.269  39.459  10.877
38833W        W 9433   1.741  38.610  14.922
38834W        W 9434  13.809   7.864   1.769
38835W        W 9435  20.550  11.728   3.760
38836W        W 9436  27.135   3.506   0.758
38837W        W 9437  10.581  28.733   1.795
38838W        W 9438   2.882  42.293   4.208
38839W        W 9439  28.303  23.999  11.808
38840W        W 9440  26.526  21.807  14.010
38841W        W 9441   8.800  43.352   2.382
38842W        W 9442  10.626  41.332   4.704
38843W        W 9443  32.780  17.892  14.425
38844W        W 9444   6.188  25.901   1.753
38845W        W 9445   3.465  27.590   1.405
38846W        W 9446  19.645  13.711   3.804
38847W        W 9447  31.997  42.078  12.020
38848W        W 9448  37.908   1.711   2.160
38849W        W 9449  21.145  19.241  13.017
38850W        W 9450  27.655  41.905   4.202
38851W        W 9451   2.271  32.455  11.730
38852W        W 9452  15.745  40.305  10.761
38853W        W 9453  30.069  16.025  12.561
38854W        W 9454  14.212  38.421  13.588
38855W        W 9455  40.811   0.119   2.777
38856W        W 9456   9.737   9.896  11.414
38857W        W 9457  21.222   3.413  14.949
38858W        W 9458  11.376  34.312   0.343
38859W        W 9459  41.911   5.502  12.561
38860W        W 9460   6.244   0.537  14.967
38861W        W 9461  31.290  33.386  11.084
38862W        W 9462   1.281  20.018   1.218
38863W        W 9463  14.334   5.240  12.514
38864W        W 9464  17.577  32.668   2.920
38865W        W 9465  11.261   8.281   3.896
38866W        W 9466  40.050  11.519   0.936
38867W        W 9467   4.663  13.406   2.136
38868W        W 9468  39.959  32.034   1.647
38869W        W 9469   1.306  42.069   1.791
38870W        W 9470  19.495   2.379   0.445
38871W        W 9471  18.733  13.894  12.154
38872W        W 9472  15.173  32.389   4.573
38873W        W 9473  30.554   0.702  12.831
38874W        W 9474  21.096  12.834   1.365
38875W        W 9475   3.380  28.072  12.997
38876W        W 9476   3.288   1.995  13.566
38877W        W 9477   5.002  41.030   3.756
38878W        W 9478  21.076  10.770   2.453
38879W        W 9479   8.766  21.074  14.342
38880W        W 9480  30.318  20.538  14.013
38881W        W 9481  37.347  22.615   4.253
38882W        W 9482  10.294  23.734  13.400
38883W        W 9483   0.309  43.518  14.623
38884W        W 9484  32.026   4.450  12.469
38885W        W 9485  42.952  26.599   2.355
38886W        W 9486  37.905   1.201   4.464
38887W        W 9487  40.834   5.228  14.297
38888W        W 9488  26.177  44.266   3.762
38889W        W 9489  25.447   5.333   4.459
38890W        W 9490   2.617  29.164  14.958
38891W        W 9491  38.047  34.810   2.717
38892W        W 9492   6.754  25.767   1.329
38893W        W 9493  41.464  17.284   3.500
38894W        W 9494  33.572  44.670  11.591
38895W        W 9495  29.503  33.994  14.916
38896W        W 9496  43.513  29.538   1.864
38897W        W 9497   2.098  39.107  13.189
38898W        W 9498   0.402  43.377  14.103
38899W        W 9499  37.327  37.327   1.284
38900W        W 9500  22.189  40.395   3.005
38901W        W 9501  21.626  41.594  10.432
38902W        W 9502  35.950  19.612  14.275
38903W        W 9503   4.854  36.943   4.724
38904W        W 9504  37.998  17.728   1.536
38905W        W 9505  11.355   5.775   4.133
38906W        W 9506  30.120  22.267   2.517
38907W        W 9507  18.124   0.953  14.803
38908W        W 9508   3.999  35.606  11.646
38909W        W 9509  38.419  23.471  12.497
38910W        W 9510  31.490  30.896   2.308
38911W        W 9511  42.193  42.991   2.288
38912W        W 9512  42.099  12.021  13.036
38913W        W 9513  14.715  13.239  11.550
38914W        W 9514   7.515   6.458   2.273
38915W        W 9515  10.906  22.747   2.785
38916W        W 9516  15.607  38.873  13.414
38917W        W 9517   7.114  22.561  10.729
38918W        W 9518   4.024  13.714   4.629
38919W        W 9519  20.631  19.141  13.204
38920W        W 9520   4.244  11.861   3.685
38921W        W 9521  30.242   3.775  13.218
38922W        W 9522   7.314  15.897   3.376
38923W        W 9523  17.742  37.173   2.633
38924W        W 9524  19.459  15.711  13.637
38925W        W 9525  13.569   7.002   4.133
38926W        W 9526  35.473  13.723   4.743
38927W        W 9527  31.421  41.805   3.323
38928W        W 9528  13.251  29.657   0.936
38929W        W 9529  24.806  27.447   4.298
38930W        W 9530  28.758  27.577   0.243
38931W        W 9531  14.589  24.213  14.772
38932W        W 9532  21.026  23.130  13.628
38933W        W 9533  17.084  18.648  14.958
38934W        W 9534  32.826  23.620   0.001
38935W        W 9535  35.175  35.459  12.046
38936W        W 9536  39.350   8.331   4.660
38937W        W 9537  20.530  32.434  12.074
38938W        W 9538  37.920   8.142  11.665
38939W        W 9539  11.449  11.410   4.213
38940W        W 9540   3.689  10.582  11.059
38941W        W 9541  34.530   5.695  12.469
38942W        W 9542  41.814  17.325   1.658
38943W        W 9543   5.479  18.500  11.358
38944W        W 9544  32.636  17.334  12.915
38945W        W 9545   1.607  31.916  11.288
38946W        W 9546  12.525  34.077  13.557
38947W        W 9547  33.426  17.978  13.042
38948W        W 9548  32.905  24.954   4.536
38949W        W 9549  12.609  21.971  10.775
38950W        W 9550  44.902  27.412  13.108
38951W        W 9551  42.812  37.792   4.552
38952W        W 9552   8.270  44.314   2.387
38953W        W 9553  13.149  18.664  11.970
38954W        W 9554   3.806  28.494  13.362
38955W        W 9555  18.765   5.533  14.663
38956W        W 9556  21.682  17.659   1.238
38957W        W 9557  24.006  23.532  11.061
38958W        W 9558   2.030  24.530   4.600
38959W        W 9559   4.219  28.696  11.192
38960W        W 9560   2.434   6.908   3.190
38961W        W 9561   1.459  24.699   0.746
38962W        W 9562   8.693  35.087   3.706
38963W        W 9563  24.172  10.827  11.100
38964W        W 9564  34.020  24.055   3.244
38965W        W 9565   2.151   4.224  13.774
38966W        W 9566  22.999  44.204   1.762
38967W        W 9567  22.229  30.393   1.258
38968W        W 9568  12.880  29.977  12.931
38969W        W 9569   6.324  25.637  12.760
38970W        W 9570  29.357  34.402   1.479
38971W        W 9571  25.339  44.959  13.410
38972W        W 9572  38.992  22.158  14.398
38973W        W 9573  28.078  15.519  14.069
38974W        W 9574  36.550   1.326  13.763
38975W        W 9575   8.087  35.089  11.531
38976W        W 9576  33.542  40.635  13.835
38977W        W 9577   8.663   3.926  12.121
38978W        W 9578  14.070  39.046   0.674
38979W        W 9579  19.778   2.219   3.282
38980W        W 9580  42.978  31.897   3.616
38981W        W 9581  26.126  26.470   2.725
38982W        W 9582   2.706  35.219  11.140
38983W        W 9583   9.662   8.003  12.874
38984W        W 9584  26.835  34.951  14.793
38985W        W 9585  40.923  10.443   1.828
38986W        W 9586  35.295  44.891   0.074
38987W        W 9587  37.775  17.197  13.784
38988W        W 9588  17.774  43.027  13.580
38989W        W 9589   9.849  44.720   4.848
38990W        W 9590  14.312   6.578  14.976
38991W        W 9591  35.138  30.900   3.955
38992W        W 9592  18.760   0.298  12.487
38993W        W 9593   7.332  19.676   2.597
38994W        W 9594  21.890  39.442   1.607
38995W        W 9595  18.135   1.970   3.957
38996W        W 9596   4.673  43.394  10.139
38997W        W 9597  12.136  44.485   1.620
38998W        W 9598  29.856  21.637  14.810
38999W        W 9599  31.434  11.854  12.105
39000W        W 9600  10.616   1.478  13.534
39001W        W 9601  42.021  25.406   2.230
39002W        W 9602  26.955  41.529  13.127
39003W        W 9603  41.057  29.696   1.281
39004W        W 9604  19.862   2.868   1.613
39005W        W 9605   0.783  44.412  12.143
39006W        W 9606  28.904  22.306   2.595
39007W        W 9607  29.983  30.993   0.551
39008W        W 9608  33.042  15.647   3.430
39009W        W 9609  21.988  14.186   3.433
39010W        W 9610   4.732   3.704  11.318
39011W        W 9611  19.300  19.439  14.839
39012W        W 9612  33.953  19.924  14.052
39013W        W 9613  17.787  40.244  11.006
39014W        W 9614   5.026  25.455   2.212
39015W        W 9615  19.246   5.064  11.164
39016W        W 9616   3.238  13.391   3.794
39017W        W 9617  10.917   0.776  12.985
39018W        W 9618  10.459  25.104  13.918
39019W        W 9619  32.233  40.461  11.324
39020W        W 9620  15.101  30.695  12.926
39021W        W 9621  43.258  36.951   4.594
39022W        W 9622  36.973  22.825   3.152
39023W        W 9623   2.713  15.179  10.418
39024W        W 9624  32.125  34.602  12.396
39025W        W 9625  22.520  26.445  10.762
39026W        W 9626  30.659  44.531   4.852
39027W        W 9627  12.337  42.439   3.280
39028W        W 9628  18.790  38.413  11.660
39029W        W 9629  31.416  23.943  14.044
39030W        W 9630  37.410  29.647  12.470
39031W        W 9631  33.634  19.222   0.377
39032W        W 9632   0.663  15.779  11.197
39033W        W 9633  10.647  39.004  12.514
39034W        W 9634   3.723   7.706  12.884
39035W        W 9635  34.380  38.755  10.662
39036W        W 9636  40.336  24.301  12.829
39037W        W 9637  12.277   1.945  12.510
39038W        W 9638  44.209  44.443  10.744
39039W        W 9639  14.144   4.797  11.617
39040W        W 9640  23.210  33.292  13.136
39041W        W 9641  33.031  36.836  14.010
39042W        W 9642  38.401  19.904   1.687
39043W        W 9643  26.586  32.876  11.918
39044W        W 9644  22.915  11.349   0.780
39045W        W 9645  34.337   3.071   2.845
39046W        W 9646  41.202  10.671  10.826
39047W        W 9647  41.970  39.134  13.913
39048W        W 9648  34.454   4.820   3.551
39049W        W 9649  34.301  34.955  14.074
39050W        W 9650  41.768   1.439   3.190
39051W        W 9651  14.420  40.038   1.777
39052W        W 9652  14.658  39.138   4.489
39053W        W 9653  30.045  44.368  14.946
39054W        W 9654   1.587  31.889   1.726
39055W        W 9655   6.765   0.073  10.666
39056W        W 9656  11.389  38.939   3.116
39057W        W 9657  28.112  42.322   0.753
39058W        W 9658  33.333  40.046  14.782
39059W        W 9659   6.351  19.329   1.818
39060W        W 9660  23.091   6.965  13.568
39061W        W 9661  27.710  28.565   1.970
39062W        W 9662  16.954  21.341  11.911
39063W        W 9663   1.469  18.296  14.085
39064W        W 9664  41.266   2.814  11.942
39065W        W 9665   9.863  12.725   4.726
39066W        W 9666  22.692  14.380  14.445
39067W        W 9667   7.854  12.995   5.114
39068W        W 9668   4.251   1.122  10.265
39069W        W 9669   7.654  23.692  11.548
39070W        W 9670  12.682  13.240   0.284
39071W        W 9671  37.011  42.741  12.433
39072W        W 9672  43.682   1.898   3.608
39073W        W 9673  14.610  39.641   3.697
39074W        W 9674  40.386  37.832   2.384
39075W        W 9675  44.505  39.314  10.772
39076W        W 9676  11.512   8.592   4.249
39077W        W 9677  37.963  15.333   4.646
39078W        W 9678  42.141   2.273  14.905
39079W        W 9679   2.762  19.375   2.976
39080W        W 9680  44.021  28.442  12.130
39081W        W 9681  18.262  40.911  13.767
39082W        W 9682  32.124  16.029   0.845
39083W        W 9683  25.189  43.103  12.568
39084W        W 9684  19.123  24.946   2.132
39085W        W 9685  31.467   1.240   2.416
39086W        W 9686   8.062  38.308   1.593
39087W        W 9687  33.546  18.090  12.559
39088W        W 9688  28.777   6.492   4.562
39089W        W 9689  19.986  28.999  14.973
39090W        W 9690  17.566  36.404   4.563
39091W        W 9691  13.765  12.847  10.246
39092W        W 9692  43.525  39.524  10.609
39093W        W 9693  42.955   8.512  11.053
39094W        W 9694   4.793  38.181   0.445
39095W        W 9695  36.572  31.430  11.088
39096W        W 9696  24.082  31.996   2.898
39097W        W 9697  37.287  35.060   2.815
39098W        W 9698  44.322  40.920   1.832
39099W        W 9699  11.659  39.050  10.517
39100W        W 9700   5.475   3.322  14.047
39101W        W 9701  24.637  27.676   2.619
39102W        W 9702  19.862  39.084   0.483
39103W        W 9703  28.776   0.931  13.016
39104W        W 9704  44.457  43.727  14.894
39105W        W 9705  32.350   3.509   2.896
39106W        W 9706  31.523  38.530  14.621
39107W        W 9707   0.334   3.754  13.845
39108W        W 9708  42.858  14.362  11.066
39109W        W 9709  17.618   5.769   1.929
39110W        W 9710  26.742  22.821  12.508
39111W        W 9711  27.348   1.297   0.239
39112W        W 9712  35.157   2.783   2.867
39113W        W 9713  44.704   3.770   3.615
39114W        W 9714  34.449  38.876  11.956
39115W        W 9715  11.318   6.338  14.398
39116W        W 9716  18.753  25.712  14.373
39117W        W 9717  19.289  31.459   3.300
39118W        W 9718  24.099  32.894  13.849
39119W        W 9719  39.179  16.544   9.979
39120W        W 9720   8.539  14.672  10.995
39121W        W 9721  31.064  10.240   3.214
39122W        W 9722   6.075  13.127   2.491
39123W        W 9723  43.119  34.900  14.188
39124W        W 9724   0.633   5.252   2.704
39125W        W 9725  20.919  40.449   1.759
39126W        W 9726  25.178  36.565   2.912
39127W        W 9727   0.994  38.910   2.243
39128W        W 9728   3.871   0.502   3.817
39129W        W 9729   4.174   7.637  12.044
39130W        W 9730  18.836  26.562  11.201
39131W        W 9731  27.346   5.369   3.225
39132W        W 9732  30.401  26.330  14.549
39133W        W 9733  17.752   1.781   1.260
39134W        W 9734  20.050  37.862   2.292
39135W        W 9735  32.543  32.062  11.533
39136W        W 9736  35.968   8.963  10.857
39137W        W 9737  42.234  33.398  11.505
39138W        W 9738   0.331  44.403   1.702
39139W        W 9739  24.153  13.650   3.732
39140W        W 9740  19.928   4.492  13.887
39141W        W 9741  42.348  41.788   2.705
39142W        W 9742   6.303  40.434   1.726
39143W        W 9743  44.933  23.773  14.197
39144W        W 9744  33.905   4.897   0.978
39145W        W 9745  37.513  20.760   3.383
39146W        W 9746  36.021  11.109  13.737
39147W        W 9747  20.586   2.040   1.835
39148W        W 9748  16.824  39.139  11.488
39149W        W 9749  35.332   2.406  11.407
39150W        W 9750  34.335   1.220   1.945
39151W        W 9751  27.196  22.126  12.907
39152W        W 9752  33.518   6.831  12.057
39153W        W 9753  23.618  28.006  14.394
39154W        W 9754  10.109   2.240  13.523
39155W        W 9755   0.546   2.203  12.868
39156W        W 9756  11.169  22.475  10.478
39157W        W 9757  35.821  26.629  12.985
39158W        W 9758  38.415  36.516   2.669
39159W        W 9759  21.166  37.767   4.102
39160W        W 9760  11.381  18.255  14.786
39161W        W 9761   6.267  15.382   3.449
39162W        W 9762  26.739  33.335   1.640
39163W        W 9763  44.471  30.951  14.284
39164W        W 9764  15.659  37.626   2.872
39165W        W 9765  10.760   4.158  10.598
39166W        W 9766  41.182  42.428  11.206
39167W        W 9767   4.910  24.763   4.224
39168W        W 9768  37.163  31.054   1.355
39169W        W 9769   5.861  38.752   2.036
39170W        W 9770  44.462  35.019  12.808
39171W        W 9771  31.483  21.936   3.257
39172W        W 9772  15.475  28.191   0.426
39173W        W 9773  35.054   6.175   1.375
39174W        W 9774  41.526  12.101  13.801
39175W        W 9775  16.683   4.568   2.892
39176W        W 9776  14.123  30.480   0.873
39177W        W 9777  28.496  24.405   3.548
39178W        W 9778  15.503  16.030  13.040
39179W        W 9779  38.023   8.412   2.131
39180W        W 9780   1.996  13.817   3.192
39181W        W 9781  37.338  21.023  12.596
39182W        W 9782  25.945  30.453  14.743
39183W        W 9783  41.904  15.052  13.847
39184W        W 9784  28.140  42.909   3.276
39185W        W 9785  12.729  21.813   2.436
39186W        W 9786   0.493  32.857  13.491
39187W        W 9787  25.060   9.502   1.172
39188W        W 9788  36.201  42.274  12.097
39189W        W 9789  37.852  43.829   3.486
39190W        W 9790  43.396   6.007   2.069
39191W        W 9791  12.183  42.452   1.894
39192W        W 9792  22.882  22.712  11.136
39193W        W 9793   9.198  31.771   0.041
39194W        W 9794   0.314  23.360   3.991
39195W        W 9795  12.327  31.993   1.325
39196W        W 9796  26.945  31.145   0.801
39197W        W 9797  20.167   5.884  11.521
39198W        W 9798  14.713  42.556   1.375
39199W        W 9799  41.888  32.467   4.451
39200W        W 9800  36.089  13.603  14.512
39201W        W 9801  28.838  17.315   1.399
39202W        W 9802  43.442  32.407  11.540
39203W        W 9803  44.022  40.443  10.715
39204W        W 9804   5.668  13.086   3.745
39205W        W 9805  24.653  13.618  10.998
39206W        W 9806  16.754  42.999   4.192
39207W        W 9807  14.884  17.145  14.563
39208W        W 9808   2.517  32.365  10.286
39209W        W 9809   8.321  38.866  11.131
39210W        W 9810  22.503  25.355  14.871
39211W        W 9811   6.741   2.151  13.470
39212W        W 9812   3.188   4.246  13.925
39213W        W 9813  43.579  42.698   3.116
39214W        W 9814   0.753   7.960   2.625
39215W        W 9815  15.558  37.873  10.992
39216W        W 9816   7.427  43.362   5.043
39217W        W 9817  25.631  32.998   1.713
39218W        W 9818  33.588   5.398  12.173
39219W        W 9819  10.575  37.921   4.852
39220W        W 9820  37.638  27.504   2.818
39221W        W 9821   9.733  38.092  13.963
39222W        W 9822  12.894  33.060  14.501
39223W        W 9823  20.539   4.279  10.657
39224W        W 9824   1.693   0.781   4.631
39225W        W 9825  39.453  29.002   3.160
39226W        W 9826  44.085  19.868  10.027
39227W        W 9827  42.363  24.052  14.076
39228W        W 9828  16.848  12.922   4.998
39229W        W 9829  26.526  11.075   4.604
39230W        W 9830   3.002  33.419   2.287
39231W        W 9831  14.049  14.671   3.589
39232W        W 9832   4.149  29.066   0.619
39233W        W 9833  37.619  34.940  13.836
39234W        W 9834   2.855  37.800   3.712
39235W        W 9835   6.812  13.569   0.901
39236W        W 9836   7.212  32.069  11.138
39237W        W 9837  15.940  33.515   5.610
39238W        W 9838   1.247  21.023   1.588
39239W        W 9839  32.944   4.713   4.661
39240W        W 9840  23.762  36.468   3.276
39241W        W 9841  12.732   8.904  14.945
39242W        W 9842  28.861   7.252  11.690
39243W        W 9843  13.301  32.677   1.736
39244W        W 9844  11.466   8.448   0.290
39245W        W 9845  20.305  32.928  11.407
39246W        W 9846  17.259  12.629  11.456
39247W        W 9847  16.120  39.460   4.569
39248W        W 9848  33.495   8.605  14.249
39249W        W 9849  36.074  42.235  13.461
39250W        W 9850  34.586  36.521  11.531
39251W        W 9851  14.270  36.027   4.031
39252W        W 9852  35.482   9.266  14.715
39253W        W 9853  10.099  18.255   1.338
39254W        W 9854  37.026   2.636   2.354
39255W        W 9855  34.828  29.661  12.064
39256W        W 9856  33.131  11.534   2.353
39257W        W 9857  41.432  24.743   3.601
39258W        W 9858   2.653  42.038   4.599
39259W        W 9859  33.452   9.455   4.281
39260W        W 9860   6.954  43.544  12.595
39261W        W 9861  36.115  37.360  13.453
39262W        W 9862  17.276  32.969   1.708
39263W        W 9863  18.950  39.882   4.917
39264W        W 9864  14.243  20.538   3.688
39265W        W 9865  41.255  20.710   0.032
39266W        W 9866  34.499   7.485   4.556
39267W        W 9867  27.255  21.519   1.729
39268W        W 9868  28.838  32.722   1.965
39269W        W 9869  10.649  38.778   0.058
39270W        W 9870  31.097  23.498   4.440
39271W        W 9871  11.190   2.477   4.847
39272W        W 9872  13.670  12.035  12.839
39273W        W 9873  38.018  10.748  14.469
39274W        W 9874  38.110  44.764   4.567
39275W        W 9875  25.782  14.808   1.870
39276W        W 9876   4.286  39.975   0.968
39277W        W 9877  33.680  18.711  13.247
39278W        W 9878   5.348   0.206  11.995
39279W        W 9879  34.242   2.176  13.995
39280W        W 9880  39.975  14.802   1.396
39281W        W 9881  15.083  38.849   1.815
39282W        W 9882  28.697  36.305  10.712
39283W        W 9883  16.755   0.849  11.701
39284W        W 9884   3.029   9.194   1.228
39285W        W 9885  41.344  26.512   2.402
39286W        W 9886  34.250  39.542  11.127
39287W        W 9887  33.377  15.062  11.155
39288W        W 9888  16.241  25.670   0.397
39289W        W 9889  44.293  39.938  13.548
39290W        W 9890   0.422  15.757  14.031
39291W        W 9891  24.248  42.355  14.255
39292W        W 9892  30.577  43.475   4.777
39293W        W 9893  19.972  12.259  11.964
39294W        W 9894  22.511  36.539   3.702
39295W        W 9895   7.862  28.180  10.212
39296W        W 9896   9.178  20.032  12.522
39297W        W 9897  44.782  32.987   3.137
39298W        W 9898  36.071  32.551   4.481
39299W        W 9899  11.317  20.600  11.601
39300W        W 9900   2.444  29.929  11.118
39301W        W 9901  25.282  29.116   1.369
39302W        W 9902  37.537  31.078   2.752
39303W        W 9903   4.701  14.581   2.830
39304W        W 9904  15.148  31.384  10.641
39305W        W 9905   7.886  17.672  13.332
39306W        W 9906  26.936  38.538   4.961
39307W        W 9907  32.942  40.450  13.989
39308W        W 9908   0.102  16.052  13.294
39309W        W 9909   5.689  22.087   2.802
39310W        W 9910  25.415   5.211   0.273
39311W        W 9911  26.413  21.563  14.468
39312W        W 9912  27.265  19.512   4.303
39313W        W 9913   3.400  24.616   1.135
39314W        W 9914   0.142  12.874   3.635
39315W        W 9915  20.835  32.428   0.893
39316W        W 9916  31.009  20.335  11.600
39317W        W 9917  17.205  31.695   1.931
39318W        W 9918  18.425  14.847   4.193
39319W        W 9919  42.472  34.561  14.462
39320W        W 9920  41.585   1.786  12.484
39321W        W 9921   5.343   7.734  13.379
39322W        W 9922   3.978  36.616  13.327
39323W        W 9923  39.018  26.481  10.924
39324W        W 9924  41.323  17.861  10.726
39325W        W 9925  16.950   8.705  13.527
39326W        W 9926  37.197  39.303   3.945
39327W        W 9927  40.925  38.847  13.622
39328W        W 9928  33.531   7.119  14.524
39329W        W 9929  26.495  30.408   4.661
39330W        W 9930  39.350  10.353  13.354
39331W        W 9931  25.404  39.859   1.222
39332W        W 9932  30.450  23.502  11.959
39333W        W 9933  12.707   2.010  10.896
39334W        W 9934  24.725  43.171  12.274
39335W        W 9935  13.655   8.840  14.834
39336W        W 9936  25.140  44.643   2.402
39337W        W 9937  29.570   8.239   1.360
39338W        W 9938  18.116   7.962  13.168
39339W        W 9939  40.975  38.792  11.663
39340W        W 9940  26.456   2.059   2.269
39341W        W 9941  31.972  14.894  14.383
39342W        W 9942  43.273  16.462   2.374
39343W        W 9943  16.164  37.150   1.395
39344W        W 9944   9.717   8.185  11.428
39345W        W 9945   6.084  27.107  12.657
39346W        W 9946  22.593  21.002  13.110
39347W        W 9947  14.123  19.593   3.530
39348W        W 9948   1.692   8.135  13.799
39349W        W 9949  44.979  38.986   2.240
39350W        W 9950   4.029  31.638   9.853
39351W        W 9951   9.339  31.909  10.727
39352W        W 9952  29.015  39.101  13.522
39353W        W 9953   5.870  44.041   4.232
39354W        W 9954  33.166  36.845   1.659
39355W        W 9955  20.618  42.811  13.553
39356W        W 9956   8.402   9.863  13.582
39357W        W 9957  36.134  23.342   3.010
39358W        W 9958  43.760  19.823   0.958
39359W        W 9959  37.369  37.097   2.564
39360W        W 9960  22.294  31.512  13.982
39361W        W 9961  33.776  37.608  14.409
39362W        W 9962  30.278   4.464  11.864
39363W        W 9963  43.368   5.861   2.573
39364W        W 9964  30.481   6.909  13.844
39365W        W 9965  16.287  11.342  12.553
39366W        W 9966  23.975  12.198  11.692
39367W        W 9967  38.006  15.753   4.324
39368W        W 9968  18.319   7.263  11.522
39369W        W 9969  15.392  36.145  14.795
39370W        W 9970   1.728  32.783  14.683
39371W        W 9971  15.918   9.571   4.100
39372W        W 9972   9.823  10.199   3.823
39373W        W 9973  38.512  35.055  12.475
39374W        W 9974  32.657  25.908   4.549
39375W        W 9975  44.268   7.272  14.388
39376W        W 9976  32.857  17.703   0.795
39377W        W 9977  25.839   2.432  13.755
39378W        W 9978  42.329  43.810  11.542
39379W        W 9979  19.068  20.104  10.865
39380W        W 9980  34.885  18.599   2.143
39381W        W 9981  44.296  18.155  14.411
39382W        W 9982  44.476  15.502   5.018
39383W        W 9983  12.766  38.249   4.687
39384W        W 9984  31.594   5.755  12.096
39385W        W 9985  22.918  31.005  10.764
39386W        W 9986   2.361   5.139  12.794
39387W        W 9987   3.972  17.592  11.191
39388W        W 9988  35.205  18.867  11.766
39389W        W 9989   5.463  15.108  14.560
39390W        W 9990   2.142   3.441   0.375
39391W        W 9991  41.602  43.049   4.084
39392W        W 9992   3.869  14.769   2.294
39393W        W 9993  23.562  16.535   3.223
39394W        W 9994  37.611  15.601   4.044
39395W        W 9995   1.021   2.234  14.017
39396W        W 9996  41.448   7.899  13.883
39397W        W 9997   1.210  43.237  11.620
39398W        W 9998  32.957  14.774  11.974
39399W        W 9999  39.898  12.345   2.640
39400W        W10000  29.985   5.765   3.839
39401W        W10001  20.947   5.366   1.020
39402W        W10002  17.128  15.734  14.288
39403W        W10003  32.108  17.199  13.551
39404W        W10004   3.955  21.160   1.833
39405W        W10005  37.580   5.934  11.662
39406W        W10006  42.373   1.750   4.871
39407W        W10007  37.065   7.924  11.144
39408W        W10008  14.676  26.674   0.753
39409W        W10009  24.105   9.217   4.132
39410W        W10010  34.391   4.757  12.024
39411W        W10011  31.671  11.743  11.210
39412W        W10012  38.832  22.972  11.535
39413W        W10013  33.979  14.334   5.059
39414W        W10014   6.872  32.203  12.498
39415W        W10015  37.898  18.332  12.428
39416W        W10016  38.892  34.447   2.660
39417W        W10017   4.215  21.196  11.575
39418W        W10018  40.821  17.029  12.521
39419W        W10019  18.325  37.894   3.792
39420W        W10020  40.271  12.836   0.791
39421W        W10021  14.876  21.953  12.968
39422W        W10022  43.820   4.298  14.549
39423W        W10023  42.994   5.397   0.466
39424W        W10024  25.878  43.587   1.791
39425W        W10025  44.899   7.850  13.011
39426W        W10026   0.419  22.359   4.420
39427W        W10027  13.594  44.692   1.213
39428W        W10028  22.034  17.539   1.599
39429W        W10029  32.098  17.855   3.208
39430W        W10030  37.932  31.355   3.619
39431W        W10031   8.653  41.361  11.513
39432W        W10032  10.650  32.588   1.134
39433W        W10033  44.379  18.533   3.619
39434W        W10034  19.039   7.751  11.260
39435W        W10035   6.345  39.617   2.218
39436W        W10036  39.375  35.649   0.968
39437W        W10037  13.322   7.736   4.848
39438W        W10038  31.158  10.812  12.084
39439W        W10039   0.976  33.356  12.074
39440W        W10040  23.748  33.962   4.757
39441W        W10041  29.653  16.199   0.956
39442W        W10042  39.775  16.588  11.554
39443W        W10043  25.479   2.845  14.279
39444W        W10044  10.799  35.844  14.896
39445W        W10045   7.370   9.549   2.901
39446W        W10046  10.814   4.662   1.378
39447W        W10047   3.947  37.964  12.919
39448W        W10048  22.738  24.811   4.478
39449W        W10049  11.888  26.420  11.569
39450W        W10050   4.882  31.076   4.498
39451W        W10051   4.268  34.603   1.281
39452W        W10052   3.349  44.553   0.277
39453W        W10053   2.206  17.030   2.881
39454W        W10054  34.402   5.931   3.192
39455W        W10055   7.789  38.186   0.764
39456W        W10056   8.311  12.285   1.182
39457W        W10057  25.615  44.250   0.508
39458W        W10058   4.287  37.542   0.554
39459W        W10059  14.008   4.808   0.855
39460W        W10060  33.899  17.078   3.052
39461W        W10061  14.549  27.956   4.587
39462W        W10062   1.402  35.417   3.662
39463W        W10063  19.385  12.910  10.424
39464W        W10064  41.863   1.673   3.662
39465W        W10065  10.420   0.289  12.072
39466W        W10066  44.204  21.861   0.237
39467W        W10067  26.591  17.777  10.542
39468W        W10068   7.956  24.202   0.803
39469W        W10069  35.616  33.391   1.415
39470W        W10070   4.364  18.798  12.516
39471W        W10071  32.137  20.184   4.566
39472W        W10072  34.908  33.045  12.595
39473W        W10073  38.391  11.170   2.881
39474W        W10074  32.153  14.187   2.933
39475W        W10075  27.177  24.470  13.148
39476W        W10076  37.126  16.199  14.269
39477W        W10077  10.500  28.459  11.537
39478W        W10078   6.671  34.134   1.879
39479W        W10079   9.144  21.807  11.601
39480W        W10080  23.862   3.258  13.937
39481W        W10081   3.161   8.277  12.541
39482W        W10082   5.734  30.396  12.264
39483W        W10083   6.737  39.952   4.511
39484W        W10084  11.940   8.874  11.312
39485W        W10085  42.840   0.900   2.656
39486W        W10086  35.842  16.334   2.329
39487W        W10087  29.139  10.900   3.200
39488W        W10088  14.103  16.450  11.955
39489W        W10089  20.652  13.567   1.635
39490W        W10090  27.416  25.545   1.898
39491W        W10091   5.362   6.683  11.226
39492W        W10092   6.692  14.812  11.511
39493W        W10093  12.760  25.392   1.715
39494W        W10094  38.631  32.666   0.748
39495W        W10095  20.747  36.276   3.808
39496W        W10096   8.548  21.160  12.196
39497W        W10097  43.997  39.792  12.884
39498W        W10098  21.020  16.815  13.819
39499W        W10099  35.577  40.474  14.787
39500W        W10100  27.499  10.171  11.978
39501W        W10101   0.229   1.908  14.998
39502W        W10102  33.136  30.817   4.552
39503W        W10103  18.176  44.574  11.569
39504W        W10104   7.663  32.840  11.182
39505W        W10105  10.597  18.023   3.292
39506W        W10106  14.179  29.183  12.004
39507W        W10107   8.202   4.197   2.621
39508W        W10108  16.164  31.895   4.093
39509W        W10109  33.669  17.985   2.179
39510W        W10110  28.155  33.021  12.158
39511W        W10111   8.784  12.266  11.051
39512W        W10112  23.091  25.778   1.166
39513W        W10113  37.253  20.869   4.009
39514W        W10114  30.670  16.283   4.999
39515W        W10115  18.547  35.552  12.038
39516W        W10116  38.574  13.106  12.050
39517W        W10117   9.709  44.382   3.535
39518W        W10118  33.219   8.862   3.767
39519W        W10119  19.744  16.193   0.616
39520W        W10120  38.711  17.794  13.101
39521W        W10121   4.774  42.584   4.889
39522W        W10122  14.146  18.869  11.388
39523W        W10123   5.811   3.309  11.546
39524W        W10124  22.177  13.174  14.078
39525W        W10125   6.628  27.067  12.556
39526W        W10126   3.922  40.527  11.901
39527W        W10127  14.553  34.428  12.536
39528W        W10128  16.729  30.190   3.109
39529W        W10129  23.177  43.639   0.020
39530W        W10130  19.139  40.825   0.216
39531W        W10131  25.467  28.450   2.279
39532W        W10132  38.583  10.362   4.602
39533W        W10133   4.346   8.418  11.500
39534W        W10134  35.487   4.696   0.831
39535W        W10135  11.739  15.713   2.743
39536W        W10136  13.686   3.874   4.132
39537W        W10137   6.804  44.685  13.021
39538W        W10138  42.328  28.626   1.935
39539W        W10139  29.886  19.973  11.806
39540W        W10140  16.845  34.892  12.804
39541W        W10141   9.668  35.378  14.762
39542W        W10142  27.019  33.529  10.893
39543W        W10143  38.832   7.148   3.855
39544W        W10144  22.768  37.439   0.707
39545W        W10145  30.985   9.141   4.084
39546W        W10146  15.604  35.924  13.004
39547W        W10147  12.872  30.720   2.912
39548W        W10148  40.067  30.416  13.801
39549W        W10149  10.104  12.542  14.798
39550W        W10150  24.607  38.865   3.234
39551W        W10151  33.974  28.906  13.051
39552W        W10152  42.098  32.259  14.274
39553W        W10153  38.607  33.017  11.989
39554W        W10154  20.724   3.389  13.811
39555W        W10155  26.785   4.781   3.611
39556W        W10156  40.937  19.150   4.518
39557W        W10157   7.958   5.827   0.452
39558W        W10158   8.558  42.017   1.205
39559W        W10159   9.243  14.380   1.812
39560W        W10160  16.794  40.524  12.499
39561W        W10161  28.436  27.273   1.273
39562W        W10162  34.946   2.234   0.411
39563W        W10163  27.750  43.354  11.704
39564W        W10164  20.031  28.147  11.101
39565W        W10165  36.978  26.597  12.341
39566W        W10166  28.879  28.075  11.614
39567W        W10167  41.525  16.412   4.303
39568W        W10168  21.537  21.124   4.611
39569W        W10169  12.180  15.230  10.393
39570W        W10170  25.106  18.199  10.203
39571W        W10171  18.925  30.904  13.059
39572W        W10172  21.365  36.092   5.078
39573W        W10173  34.389   3.387   2.282
39574W        W10174  36.755   7.844  13.648
39575W        W10175   7.406   3.713   0.884
39576W        W10176  36.602  41.949  12.269
39577W        W10177  27.055   5.365   0.926
39578W        W10178  24.124   8.311  11.705
39579W        W10179  40.408  24.974   2.559
39580W        W10180  38.910   1.712  10.672
39581W        W10181  21.320  13.734  14.073
39582W        W10182  18.091   4.726  12.922
39583W        W10183   5.889  16.693  14.556
39584W        W10184  27.009  15.650   4.715
39585W        W10185  12.206  15.685  14.150
39586W        W10186  44.383   6.466   0.015
39587W        W10187  10.322   9.903   2.772
39588W        W10188  12.183  35.024   2.353
39589W        W10189  42.356   1.082   2.524
39590W        W10190  26.160  31.782  13.926
39591W        W10191  28.109  37.524   0.901
39592W        W10192  13.366  39.851   4.356
39593W        W10193  21.973   6.473   4.092
39594W        W10194  26.607  35.757   4.984
39595W        W10195  36.445  35.624   2.804
39596W        W10196   2.615   6.654   3.626
39597W        W10197  21.566  23.028   2.247
39598W        W10198  10.343  21.625   1.989
39599W        W10199   3.000  37.274   3.636
39600W        W10200  44.238   9.443   4.565
39601W        W10201  40.097  43.667  13.809
39602W        W10202  25.150   3.221  14.537
39603W        W10203  43.884  43.882  13.692
39604W        W10204   6.381  13.089  11.142
39605W        W10205   5.613  21.079  14.404
39606W        W10206  14.791  10.623  13.310
39607W        W10207   9.226   7.356   4.050
39608W        W10208  29.431  42.314  11.456
39609W        W10209  15.722   1.277   1.084
39610W        W10210  13.214  19.181  14.492
39611W        W10211  24.805  15.649   3.130
39612W        W10212  14.713  14.062  12.031
39613W        W10213  35.989  28.923   0.737
39614W        W10214  15.338  25.627  12.105
39615W        W10215  22.734  43.323  10.977
39616W        W10216  15.520  34.766   1.503
39617W        W10217  12.893  43.472   1.280
39618W        W10218   2.688  10.548   4.701
39619W        W10219   6.180  27.556  12.976
39620W        W10220  35.399  32.628  14.376
39621W        W10221  26.465   6.252  14.584
39622W        W10222  28.068   8.519  10.775
39623W        W10223  16.473  20.068  12.808
39624W        W10224   1.762  34.399  12.024
39625W        W10225   5.344  40.990   1.484
39626W        W10226  15.100  18.205   4.590
39627W        W10227   4.581  37.351   3.759
39628W        W10228  29.980  30.257   4.922
39629W        W10229   7.659  44.949  14.659
39630W        W10230  30.989  15.053  13.457
39631W        W10231   2.878  44.804   4.182
39632W        W10232  19.580  42.102   1.996
39633W        W10233  44.943  27.527  14.991
39634W        W10234  40.424  39.882  11.290
39635W        W10235  14.416  35.857   2.900
39636W        W10236  38.510  26.254   3.370
39637W        W10237   4.530   7.352  11.161
39638W        W10238  44.101  11.131  14.980
39639W        W10239   0.862  43.784   4.862
39640W        W10240   7.498  18.495  13.559
39641W        W10241   8.881   6.252   1.592
39642W        W10242   4.315  24.903   0.774
39643W        W10243   0.317  40.384  12.179
39644W        W10244  22.488  22.782  13.076
39645W        W10245   4.377  40.377  13.395
39646W        W10246  15.427  15.596   4.139
39647W        W10247  16.341  17.338  13.817
39648W        W10248  44.853  16.578  10.451
39649W        W10249  12.608  42.908  14.159
39650W        W10250  27.593  40.315   1.726
39651W        W10251   7.350  10.403   3.751
39652W        W10252  13.711  38.473   3.753
39653W        W10253  29.727  16.197   3.824
39654W        W10254   7.867   3.431   4.596
39655W        W10255  19.037  20.143  10.329
39656W        W10256  31.122  20.548   3.683
39657W        W10257  11.687  25.926   4.830
39658W        W10258  39.424  27.465   0.038
39659W        W10259  25.178  30.327  11.177
39660W        W10260  13.630  10.554  11.847
39661W        W10261   3.745   3.756  14.432
39662W        W10262  17.596   3.202  14.939
39663W        W10263  40.477  25.853   4.523
39664W        W10264   1.504  22.144   2.231
39665W        W10265  30.941  30.354  14.776
39666W        W10266  21.578  39.068   3.689
39667W        W10267   8.126  30.232  14.047
39668W        W10268  38.009  37.000   3.311
39669W        W10269  32.024  23.601   0.415
39670W        W10270  28.917  44.399   4.631
39671W        W10271  38.417   1.177  10.911
39672W        W10272  24.335   7.081  10.317
39673W        W10273  11.390  16.874  10.764
39674W        W10274   3.430  27.279  11.480
39675W        W10275  34.494   3.241  10.641
39676W        W10276  19.908  29.121  12.547
39677W        W10277  41.580  25.126  10.705
39678W        W10278  37.959  34.078  10.508
39679W        W10279  29.438  33.973   2.264
39680W        W10280  23.144  27.504  12.900
39681W        W10281   1.284  34.880   4.469
39682W        W10282  41.508  32.328   0.927
39683W        W10283  42.695   5.925   1.397
39684W        W10284  31.337  44.730  11.080
39685W        W10285  25.247  15.628  12.037
39686W        W10286  38.925  20.899   4.351
39687W        W10287  34.943  11.072   0.708
39688W        W10288  26.682   1.906   3.393
39689W        W10289   3.684  17.869  14.416
39690W        W10290  34.317  13.600  12.845
39691W        W10291  22.700  20.143  11.612
39692W        W10292   6.040  20.776   0.361
39693W        W10293  26.226   6.756  14.850
39694W        W10294   2.776   4.281  12.963
39695W        W10295  16.124   0.106   4.180
39696W        W10296   7.859  36.416  12.782
39697W        W10297  30.196  38.113   1.717
39698W        W10298  15.276   3.362  10.712
39699W        W10299  11.619   0.822   3.152
39700W        W10300  25.409  10.322   0.799
39701W        W10301  35.222   2.928  13.018
39702W        W10302  20.697   0.103   2.871
39703W        W10303  29.576  20.108   2.245
39704W        W10304  34.943  26.008   4.394
39705W        W10305  16.252  36.090  13.803
39706W        W10306  21.062  40.409   3.127
39707W        W10307  24.527   6.934   4.581
39708W        W10308  12.026  27.892   3.670
39709W        W10309  31.476  35.652  11.122
39710W        W10310  10.083   5.823   2.670
39711W        W10311   0.842  37.300  13.605
39712W        W10312  15.302  41.411   0.245
39713W        W10313  35.991  25.568  14.361
39714W        W10314  41.806   0.728  12.509
39715W        W10315  16.234  39.661   3.233
39716W        W10316  20.537  24.099  12.377
39717W        W10317  25.436  36.121   2.769
39718W        W10318  32.155  18.150  13.513
39719W        W10319  22.012  20.261  14.815
39720W        W10320  22.081   5.716  14.885
39721W        W10321  18.775   2.758  11.050
39722W        W10322  39.941  43.062   3.397
39723W        W10323  24.664   7.235   0.537
39724W        W10324  13.423  37.908  12.089
39725W        W10325  39.429  36.978  12.089
39726W        W10326  25.019  38.106   3.152
39727W        W10327  40.273   1.388  11.338
39728W        W10328  17.108  32.230   1.198
39729W        W10329  27.228  37.382  14.207
39730W        W10330  35.865   9.201  13.878
39731W        W10331  17.810   2.725   0.862
39732W        W10332  17.653  15.063   3.173
39733W        W10333  16.769  32.539   0.878
39734W        W10334  20.667  26.886  13.331
39735W        W10335  29.485  33.487   4.122
39736W        W10336  38.844  26.244   2.967
39737W        W10337  30.010  12.210   0.088
39738W        W10338  29.966   6.801   1.895
39739W        W10339  40.018  26.232  12.436
39740W        W10340   3.070  14.729   0.393
39741W        W10341   8.796  30.450  12.343
39742W        W10342  14.891  41.593   2.241
39743W        W10343  21.734  13.821   2.241
39744W        W10344   4.705  28.859   2.377
39745W        W10345  23.565  39.288   3.740
39746W        W10346  42.349  19.600   3.537
39747W        W10347  31.976  15.178   1.087
39748W        W10348  31.404  12.618  14.315
39749W        W10349  17.802  16.646   1.855
39750W        W10350  23.930  32.181  12.785
39751W        W10351  18.609  28.728   2.891
39752W        W10352  25.437  15.530  13.521
39753W        W10353  19.644  19.913   3.168
39754W        W10354  41.088  38.285  11.747
39755W        W10355  20.590  43.017  12.325
39756W        W10356   3.309  27.420  10.161
39757W        W10357   7.963  42.419  11.164
39758W        W10358  13.671  10.666  14.307
39759W        W10359  25.173   2.560  12.954
39760W        W10360  31.564   0.072  14.958
39761W        W10361   2.970  18.320  12.284
39762W        W10362  18.667  39.980   0.357
39763W        W10363  39.187   1.515   3.114
39764W        W10364  28.077  19.220   3.177
39765W        W10365  17.321  13.141   1.340
39766W        W10366   7.610  23.104   4.224
39767W        W10367   4.814  13.648   2.882
39768W        W10368  42.426  42.840  12.434
39769W        W10369  12.581   6.863  13.121
39770W        W10370  10.471  27.628   0.911
39771W        W10371  26.596  24.839   4.551
39772W        W10372  41.270  27.485   4.670
39773W        W10373  26.297   7.009   0.731
39774W        W10374   7.127   0.352  13.924
39775W        W10375  27.917  14.559   3.398
39776W        W10376  17.799  32.921   3.872
39777W        W10377  15.104  40.556  12.438
39778W        W10378  23.657   1.261  12.875
39779W        W10379   6.951  36.793   3.183
39780W        W10380  12.787  32.562  11.141
39781W        W10381  36.475   3.870   2.229
39782W        W10382  32.120  42.213   2.178
39783W        W10383  41.383  25.238   0.359
39784W        W10384  15.491  29.969   0.071
39785W        W10385   6.744  12.377  11.240
39786W        W10386  29.126  44.791   0.421
39787W        W10387  24.695  39.958  10.946
39788W        W10388  36.391  25.070   3.268
39789W        W10389   2.384  43.712   2.213
39790W        W10390   1.870   7.712  14.842
39791W        W10391  22.087  34.436   1.674
39792W        W10392  28.681  18.247  14.957
39793W        W10393  10.168  36.558   4.621
39794W        W10394  11.632  33.853   3.168
39795W        W10395  15.124   6.539  13.365
39796W        W10396  42.420  34.480   0.348
39797W        W10397  23.361  27.681   2.776
39798W        W10398  19.119  43.945  14.236
39799W        W10399  35.844  43.058   1.922
39800W        W10400   6.446  40.351   4.089
39801W        W10401  10.570  35.234   2.882
39802W        W10402  43.869   5.909  14.614
39803W        W10403  20.554  43.052   0.183
39804W        W10404   7.663   5.734   2.730
39805W        W10405  40.478  16.871   1.205
39806W        W10406  33.416  42.209  13.018
39807W        W10407  35.942  20.576  13.972
39808W        W10408   6.455   7.092   4.726
39809W        W10409   1.324  33.578   2.247
39810W        W10410  20.632  28.620  14.149
39811W        W10411  32.983   8.184  12.513
39812W        W10412  37.530  33.476  11.600
39813W        W10413   1.246  29.094  14.460
39814W        W10414  38.519  44.458  11.038
39815W        W10415  27.545  40.986   3.897
39816W        W10416  35.599  34.112   2.829
39817W        W10417  31.598  26.035  12.683
39818W        W10418  30.012  13.648  13.985
39819W        W10419   9.229  42.287   2.467
39820W        W10420   3.782   6.271   1.993
39821W        W10421   9.867  41.064  10.931
39822W        W10422  24.686  10.646   3.312
39823W        W10423   3.418  33.151  12.882
39824W        W10424  29.555  31.735   3.514
39825W        W10425  24.724  36.893   2.906
39826W        W10426   4.520  19.291  12.402
39827W        W10427  30.186   5.970  11.190
39828W        W10428  20.153   8.686  13.222
39829W        W10429  27.693  37.853   0.452
39830W        W10430  33.045  19.161   4.743
39831W        W10431   4.817  10.686   1.848
39832W        W10432   1.537  38.358   1.999
39833W        W10433  24.166  36.154   3.257
39834W        W10434   5.114  38.468  10.842
39835W        W10435  43.757  25.074  14.100
39836W        W10436  34.075   0.706  14.930
39837W        W10437   4.863   2.318   2.838
39838W        W10438   6.205  12.658   2.759
39839W        W10439  34.942  13.067   1.721
39840W        W10440  35.676  30.994   2.619
39841W        W10441  18.950  10.063   4.207
39842W        W10442  39.232  17.067   2.958
39843W        W10443  15.045  14.815   0.280
39844W        W10444  43.540   1.009  13.398
39845W        W10445  38.534  28.421   2.344
39846W        W10446  36.086  40.262  13.783
39847W        W10447  36.942   4.506   0.483
39848W        W10448  43.907   1.956   4.142
39849W        W10449   9.181  40.612  14.316
39850W        W10450  15.771  29.652   1.853
39851W        W10451  43.573  23.048   1.279
39852W        W10452  26.590  30.867   2.323
39853W        W10453  26.248  30.589  13.448
39854W        W10454   7.669  14.180  14.346
39855W        W10455  42.238  29.593   2.376
39856W        W10456  29.548   2.374  13.484
39857W        W10457  20.162  23.036   0.489
39858W        W10458  30.682  22.746   0.375
39859W        W10459  42.709  29.812   2.466
39860W        W10460  44.384  31.247   4.374
39861W        W10461  20.188  44.405  10.679
39862W        W10462   3.015   2.803   0.883
39863W        W10463  15.231   0.691   5.519
39864W        W10464  12.702  30.955  10.839
39865W        W10465  21.340   6.966   2.139
39866W        W10466  25.438  17.171  12.978
39867W        W10467  27.179  18.984   1.840
39868W        W10468  44.888  30.498   3.152
39869W        W10469   2.757  30.790  11.812
39870W        W10470  33.152   9.401   0.750
39871W        W10471  21.091  29.385   1.214
39872W        W10472  24.927  37.061  13.047
39873W        W10473  37.060   0.493   3.523
39874W        W10474  19.900  39.759  11.993
39875W        W10475   9.010   6.320   0.839
39876W        W10476  10.681  17.233   2.862
39877W        W10477   9.317  21.284  11.203
39878W        W10478  15.192   9.473   4.552
39879W        W10479  14.238  30.572  12.852
39880W        W10480  43.750  14.571   4.663
39881W        W10481  20.117   2.353   2.905
39882W        W10482   1.382  34.875   2.714
39883W        W10483  30.630  38.927   2.690
39884W        W10484   3.235  15.747  14.549
39885W        W10485  36.476  33.998   0.808
39886W        W10486  27.041   0.391   1.416
39887W        W10487  43.986  31.208   3.992
39888W        W10488  36.335  31.550  14.240
39889W        W10489  41.017  26.410  13.969
39890W        W10490  42.249  39.788   2.413
39891W        W10491  41.022  37.097  12.115
39892W        W10492  26.208  18.666  14.457
39893W        W10493  15.618  23.636  13.913
39894W        W10494  38.061   7.984  14.017
39895W        W10495  30.610   1.513   4.590
39896W        W10496  24.456  39.441  11.665
39897W        W10497  21.742  24.338   2.815
39898W        W10498   4.165  14.309   2.270
39899W        W10499  12.370  34.511  12.159
39900W        W10500  24.461  32.349   4.624
39901W        W10501  16.356   4.757  13.433
39902W        W10502  25.668  16.095  12.457
39903W        W10503   1.312  33.060   2.228
39904W        W10504   2.329  33.875   2.768
39905W        W10505   9.513  36.594  12.997
39906W        W10506  10.728   7.984  12.710
39907W        W10507  36.203  15.090   3.331
39908W        W10508  38.602   9.881   0.778
39909W        W10509  21.210  17.212   4.577
39910W        W10510  16.784   6.313  13.287
39911W        W10511  22.516  37.451  13.903
39912W        W10512  11.331  42.956   1.783
39913W        W10513  35.597  32.773   3.750
39914W        W10514   4.996  19.455   0.735
39915W        W10515   9.277   1.417   3.710
39916W        W10516  39.114  35.977  12.940
39917W        W10517  18.891  44.942  13.953
39918W        W10518  18.449   3.514  11.633
39919W        W10519   0.680  39.815   0.271
39920W        W10520  33.407   2.951   0.803
39921W        W10521  22.689  29.143   0.037
39922W        W10522  41.595   9.875  14.218
39923W        W10523  18.379  22.582  13.994
39924W        W10524  40.715  30.233  12.435
39925W        W10525  12.808  13.522   4.617
39926W        W10526  43.527   4.145   5.071
39927W        W10527  34.394  16.238  12.904
39928W        W10528  15.439   9.730   4.058
39929W        W10529  10.790  23.271  10.682
39930W        W10530  12.090  12.575   1.193
39931W        W10531  20.060  21.064  13.632
39932W        W10532  20.319   6.813   3.516
39933W        W10533   6.348  32.986   3.595
39934W        W10534  29.051  41.245  14.269
39935W        W10535   5.086  30.209  11.123
39936W        W10536  38.047  28.153  14.963
39937W        W10537  43.789  34.470  13.065
39938W        W10538  30.047  23.587  14.475
39939W        W10539  36.576  26.249   0.905
39940W        W10540  41.602  41.819  10.768
39941W        W10541  40.753  27.237  12.512
39942W        W10542  40.909  40.576   2.792
39943W        W10543   3.351  39.015   2.331
39944W        W10544  24.103  43.897   1.171
39945W        W10545  44.440  16.487  12.126
39946W        W10546  18.327   4.481  11.025
39947W        W10547  14.345  33.143   3.472
39948W        W10548  23.530   7.955   2.957
39949W        W10549   9.115   6.107   4.233
39950W        W10550  37.468  42.040  11.986
39951W        W10551  24.404  31.994  10.777
39952W        W10552   8.426   0.406   2.031
39953W        W10553  38.929  20.789   2.163
39954W        W10554  38.010   0.342  11.250
39955W        W10555  40.399  40.001   4.730
39956W        W10556   0.217   8.758   2.461
39957W        W10557   3.383   2.546  11.578
39958W        W10558  29.918  14.701   0.461
39959W        W10559   1.774  14.691   3.685
39960W        W10560  31.622  32.343  14.864
39961W        W10561  14.342  41.009  11.727
39962W        W10562  41.894  44.347  12.079
39963W        W10563  41.008   2.239   0.943
39964W        W10564  27.062  22.644  12.912
39965W        W10565  33.786  25.772  13.397
39966W        W10566  31.824   9.150  11.709
39967W        W10567  21.738  39.003  11.218
39968W        W10568   9.548  22.338   2.541
39969W        W10569   5.426  33.004  13.018
39970W        W10570   9.598  13.890  13.655
39971W        W10571  43.342  24.602  10.748
39972W        W10572  26.625  42.573   2.065
39973W        W10573  11.311  40.036   2.716
39974W        W10574  27.513  33.027  14.247
39975W        W10575  16.094  32.422   1.100
39976W        W10576   4.258  11.080  14.230
39977W        W10577  18.764  33.038  14.237
39978W        W10578  17.514   8.382  12.722
39979W        W10579   4.760   9.335  13.787
39980W        W10580  10.126  31.381   0.985
39981W        W10581  27.839  42.346  14.864
39982W        W10582  41.896  21.632   2.604
39983W        W10583   6.537  36.800   0.868
39984W        W10584  28.587  10.859  13.805
39985W        W10585  43.742  17.918   2.066
39986W        W10586  34.951  22.506   1.637
39987W        W10587  25.133  21.682  10.978
39988W        W10588  19.744  38.060  14.639
39989W        W10589   6.627   0.404  13.834
39990W        W10590  34.628  17.607   3.321
39991W        W10591   8.987   3.049  10.456
39992W        W10592  16.194  15.771   1.891
39993W        W10593  37.544  25.670  10.968
39994W        W10594  28.591  31.793   2.106
39995W        W10595  17.081  24.712  13.507
39996W        W10596   4.216  14.239   1.346
39997W        W10597   7.843   1.254   3.647
39998W        W10598  40.956  10.623  11.791
39999W        W10599  35.308  12.206   3.785
40000W        W10600   1.776  29.875   0.311
40001W        W10601  24.460  44.960   2.656
40002W        W10602  14.392  37.420   3.171
40003W        W10603   5.985  34.434   3.072
40004W        W10604   0.628  34.457  10.299
40005W        W10605  10.231  42.242   4.525
40006W        W10606  29.899   6.652  13.093
40007W        W10607   6.657  16.748   2.007
40008W        W10608  37.403  20.684   2.477
40009W        W10609  19.199   3.040  11.068
40010W        W10610  33.420  24.571  11.492
40011W        W10611   5.725  43.441  12.493
40012W        W10612  12.084   1.929   4.147
40013W        W10613  34.234  26.683  13.967
40014W        W10614  30.941   9.648   0.928
40015W        W10615  32.651  25.501  14.297
40016W        W10616  42.306   6.318   1.429
40017W        W10617  35.406  29.091  11.622
40018W        W10618   4.798  40.611  13.587
40019W        W10619  19.348  32.381   0.696
40020W        W10620  38.856  39.692  12.847
40021W        W10621   0.029  14.320   0.905
40022W        W10622  33.146  34.414  13.890
40023W        W10623  23.905   5.787   0.753
40024W        W10624  21.176   3.314  11.979
40025W        W10625  17.641  32.662  12.764
40026W        W10626  36.133  30.246   3.229
40027W        W10627  18.950  15.579   2.461
40028W        W10628  23.687  13.186   0.667
40029W        W10629  35.149  32.450  13.334
40030W        W10630  13.635  12.477   3.691
40031W        W10631  30.452  42.370   1.343
40032W        W10632  37.364  14.587  13.522
40033W        W10633  25.436  43.104  10.625
40034W        W10634  13.990  11.230  12.163
40035W        W10635  25.205  27.263  14.931
40036W        W10636  15.474  23.991  12.568
40037W        W10637  22.608  21.852  13.429
40038W        W10638  11.440  42.216   2.268
40039W        W10639  35.026   6.711  13.051
40040W        W10640   7.286  11.851   3.229
40041W        W10641  10.850  10.076  13.046
40042W        W10642  38.952  39.554   3.670
40043W        W10643  37.045  22.210   0.366
40044W        W10644  17.046  11.743  14.418
40045W        W10645  36.603  10.429   9.619
40046W        W10646   9.998  43.959   3.632
40047W        W10647  21.665   9.866  13.983
40048W        W10648  30.215  22.210  13.787
40049W        W10649   7.383  18.065  10.799
40050W        W10650  19.576   2.465   4.692
40051W        W10651  31.958   6.526  13.983
40052W        W10652  44.370   6.812  13.405
40053W        W10653  12.562  18.244   3.818
40054W        W10654  30.132  37.274   5.097
40055W        W10655  33.102  12.360  13.377
40056W        W10656  15.734  25.427  11.062
40057W        W10657  11.280  31.833   4.551
40058W        W10658  22.628   6.461  14.256
40059W        W10659  21.650   4.749  12.157
40060W        W10660   6.299  15.980   4.044
40061W        W10661  14.836  14.339   3.886
40062W        W10662  11.842   4.866   9.706
40063W        W10663  34.016  30.669  13.529
40064W        W10664  16.120   5.996  14.732
40065W        W10665   7.255  15.647   4.787
40066W        W10666  32.484   7.320   2.331
40067W        W10667  12.833   2.060  10.407
40068W        W10668  31.494  24.656   1.637
40069W        W10669   1.999  11.108  10.719
40070W        W10670  17.162   1.574  14.934
40071W        W10671  42.178  44.342  14.352
40072W        W10672  16.338  39.517   1.893
40073W        W10673  38.273  20.233   4.697
40074W        W10674  33.028  21.553   2.635
40075W        W10675   3.314  34.409  14.364
40076W        W10676  24.672  17.092  11.103
40077W        W10677  22.232  11.836  14.514
40078W        W10678   0.273  30.733  11.556
40079W        W10679  10.054   6.709   3.366
40080W        W10680  25.356  42.252  12.149
40081W        W10681   9.936  24.338   4.530
40082W        W10682  30.666  28.574  10.638
40083W        W10683   5.359  12.371   3.299
40084W        W10684  44.510  26.473  11.056
40085W        W10685  36.714  37.078   4.637
40086W        W10686  22.082  17.655   4.379
40087W        W10687  14.401  34.917  10.965
40088W        W10688  22.043  41.694   3.223
40089W        W10689   1.799  25.918   1.279
40090W        W10690   4.254   5.906  12.092
40091W        W10691   1.808   8.475  12.963
40092W        W10692  24.538  22.263  14.713
40093W        W10693  18.592   4.229   1.251
40094W        W10694  35.309  16.101  13.825
40095W        W10695  36.076  10.748   3.357
40096W        W10696  23.752   9.925  13.501
40097W        W10697  31.067  15.712   4.674
40098W        W10698  34.598  23.106  14.942
40099W        W10699  15.242  28.630   3.710
40100W        W10700  28.979   9.026  12.320
40101W        W10701  29.935   5.456   4.326
40102W        W10702   2.666   0.032  12.520
40103W        W10703  40.593  34.292  11.115
40104W        W10704   1.933  36.516   0.064
40105W        W10705  43.381  24.423   4.091
40106W        W10706  22.208   1.275   3.143
40107W        W10707   0.202  22.237  10.586
40108W        W10708  36.612  12.056  11.797
40109W        W10709  40.550  15.541  13.428
40110W        W10710   2.158  31.229   2.389
40111W        W10711  13.640  10.622  12.824
40112W        W10712   3.341  15.731   4.017
40113W        W10713  28.863  35.276   1.703
40114W        W10714  42.801  25.422   1.818
40115W        W10715  29.254  26.070  12.670
40116W        W10716  26.383  18.781  12.714
40117W        W10717  33.486   0.819  14.768
40118W        W10718   6.909  27.057   3.943
40119W        W10719  29.452  35.370   4.770
40120W        W10720  12.574   6.698  11.673
40121W        W10721  30.045  20.639   1.669
40122W        W10722  37.639  26.955  11.716
40123W        W10723   9.898   4.044  10.912
40124W        W10724  22.097  33.347   4.246
40125W        W10725  20.845  13.290  12.155
40126W        W10726  36.884  20.707  10.787
40127W        W10727  40.809  22.642   4.234
40128W        W10728  36.918  11.218  10.881
40129W        W10729  30.130  16.161  11.247
40130W        W10730  39.916  19.075   0.759
40131W        W10731  29.582  31.925   2.196
40132W        W10732  16.188  32.616   2.261
40133W        W10733   0.475   8.026  13.574
40134W        W10734   2.466  18.689  11.576
40135W        W10735   2.382  19.116  14.226
40136W        W10736  23.515  21.252   1.806
40137W        W10737   9.223  26.203  13.559
40138W        W10738  40.491  23.037   4.879
40139W        W10739   9.065  28.548  11.602
40140W        W10740   5.684  13.764  14.043
40141W        W10741   8.855  18.243   4.801
40142W        W10742  32.789  29.341   2.260
40143W        W10743  34.956  36.115  14.986
40144W        W10744  25.428  26.396   1.033
40145W        W10745  23.977  10.373   1.694
40146W        W10746  34.412  18.263   0.405
40147W        W10747  14.539  43.283  13.401
40148W        W10748  31.077  18.784  12.025
40149W        W10749  34.068   4.823  10.744
40150W        W10750   9.824   0.720   4.594
40151W        W10751   5.162   7.433  13.880
40152W        W10752   5.415   0.800   0.940
40153W        W10753  38.623  12.757  13.251
40154W        W10754  18.264  29.962   0.837
40155W        W10755   9.600  39.649   0.482
40156W        W10756   9.124  40.602   2.485
40157W        W10757  38.503   8.388  13.319
40158W        W10758  42.380  44.254   2.387
40159W        W10759  37.870  18.003  13.343
40160W        W10760  11.365  35.870   3.368
40161W        W10761  38.268  13.787   3.775
40162W        W10762  29.533  40.442   3.075
40163W        W10763  44.809  18.806   0.386
40164W        W10764  24.167   5.018  14.778
40165W        W10765  29.643  12.575  12.912
40166W        W10766  28.082   4.097   0.315
40167W        W10767  27.655  10.119  12.465
40168W        W10768  41.851  20.143   5.283
40169W        W10769   5.299   5.663  13.469
40170W        W10770  37.252  16.591  11.221
40171W        W10771   3.433   1.945  14.968
40172W        W10772   4.165  13.587   1.394
40173W        W10773  37.093  18.172   4.616
40174W        W10774  39.823   2.348   4.223
40175W        W10775   0.027  24.550   2.906
40176W        W10776  26.717  37.900   3.443
40177W        W10777  10.676   7.597   1.453
40178W        W10778  16.960  35.850  13.208
40179W        W10779  44.061  18.247  10.984
40180W        W10780  38.625  10.434   0.761
40181W        W10781  13.109  21.910   4.072
40182W        W10782  22.251   5.645   4.427
40183W        W10783  33.667   9.707   1.857
40184W        W10784  17.375  19.811  11.090
40185W        W10785  30.750  42.351  10.671
40186W        W10786  19.009  19.044   2.694
40187W        W10787  13.106  36.637  12.503
40188W        W10788   9.017  21.409  11.891
40189W        W10789   0.105   2.962  10.939
40190W        W10790  23.507  42.307   1.748
40191W        W10791  21.564  13.065   3.009
40192W        W10792   8.314   9.753   1.300
40193W        W10793  44.796  19.148  12.141
40194W        W10794  30.679  10.432  12.609
40195W        W10795  26.732  32.151   1.874
40196W        W10796  30.213  28.002   0.845
40197W        W10797  10.177  29.021  14.861
40198W        W10798  15.895  22.941  13.336
40199W        W10799  25.527  38.301  12.980
40200W        W10800  31.581  23.288   0.302
40201W        W10801  27.312  20.764   2.813
40202W        W10802  30.904  37.105   2.866
40203W        W10803  18.425  27.261  10.782
40204W        W10804   0.463  10.886  13.189
40205W        W10805  15.066  31.451  14.988
40206W        W10806  23.578   7.382   2.193
40207W        W10807  32.305  26.956  14.424
40208W        W10808  14.848   1.250   1.429
40209W        W10809  27.545  31.487  12.971
40210W        W10810  37.678  23.742  12.892
40211W        W10811  44.928  20.310   2.083
40212W        W10812  35.984  11.817  12.625
40213W        W10813   0.917  34.642   0.917
40214W        W10814  12.932  41.186  11.926
40215W        W10815  43.622  38.097   4.992
40216W        W10816  17.180   6.974  10.473
40217W        W10817  23.310  12.817   3.572
40218W        W10818   8.173  12.360   3.525
40219W        W10819  42.807   3.396   0.471
40220W        W10820  29.410  26.932   2.244
40221W        W10821  16.500   0.727  13.642
40222W        W10822  10.667  28.635  12.582
40223W        W10823  10.434  13.628  11.050
40224W        W10824   3.769  40.463   0.683
40225W        W10825   2.906  38.436  14.240
40226W        W10826   1.998   0.354   4.768
40227W        W10827  25.942  29.711  11.878
40228W        W10828  11.789  11.663   2.617
40229W        W10829  37.900  12.674   2.379
40230W        W10830  15.184  14.363   1.136
40231W        W10831   3.205  28.075  14.474
40232W        W10832  32.097  34.105   4.385
40233W        W10833  18.523   5.905  10.621
40234W        W10834  16.971  27.380  12.884
40235W        W10835  34.379   4.508  11.115
40236W        W10836  26.595  27.774  10.791
40237W        W10837   2.107  16.227  14.963
40238W        W10838  12.033  44.001  11.004
40239W        W10839  22.991  11.658   2.090
40240W        W10840  38.206  18.000  11.074
40241W        W10841  32.235  43.772   4.110
40242W        W10842  28.388  37.021  14.198
40243W        W10843  38.281  29.308  12.633
40244W        W10844  41.892   9.237  13.685
40245W        W10845  21.250  25.433  10.841
40246W        W10846  33.976   4.413   1.349
40247W        W10847  15.846  32.112   0.760
40248W        W10848  43.455  19.412   0.791
40249W        W10849  19.621  14.264   2.628
40250W        W10850  13.274   7.341   1.412
40251W        W10851   6.371   2.782  12.148
40252W        W10852   4.838   6.980  14.245
40253W        W10853  32.591  39.564   1.928
40254W        W10854  31.971  23.509   3.789
40255W        W10855   2.704  33.397  13.176
40256W        W10856  44.372  37.425   5.014
40257W        W10857  44.878  39.087  13.568
40258W        W10858  15.580  15.334  13.585
40259W        W10859  34.838  25.877  12.887
40260W        W10860  23.455   2.841  10.790
40261W        W10861  22.791  20.673  10.959
40262W        W10862  42.503  13.721   3.923
40263W        W10863   3.252  24.655   0.609
40264W        W10864  25.450  14.123   1.515
40265W        W10865  27.479  35.426  14.350
40266W        W10866  24.495  15.816  13.425
40267W        W10867   1.678  42.955   2.818
40268W        W10868  36.444   2.968   4.756
40269W        W10869  39.712  39.206   0.918
40270W        W10870  33.069  36.346  13.863
40271W        W10871  41.493   2.708  14.934
40272W        W10872  42.327  30.006  12.012
40273W        W10873   0.780  31.714   3.673
40274W        W10874  20.990   4.281   2.182
40275W        W10875  20.268  41.208   0.433
40276W        W10876  17.059   4.647   3.722
40277W        W10877   8.602  31.883   0.791
40278W        W10878  42.281  24.249   0.050
40279W        W10879  41.382   2.094   1.808
40280W        W10880  38.312  10.264   4.181
40281W        W10881  35.378   4.812  14.104
40282W        W10882  10.135  40.926  13.363
40283W        W10883   7.846  24.143   2.704
40284W        W10884  33.792   0.215  11.573
40285W        W10885  26.660  26.982   3.317
40286W        W10886  22.101  18.174  11.998
40287W        W10887  32.366  24.020   3.171
40288W        W10888  39.857  32.151  11.499
40289W        W10889  37.483  17.931   1.283
40290W        W10890   9.147   0.937  11.044
40291W        W10891  32.536  26.378   3.097
40292W        W10892   2.375  20.923   4.614
40293W        W10893  40.640  16.322  14.388
40294W        W10894  39.352  13.811   1.490
40295W        W10895   7.511  12.315   4.251
40296W        W10896  29.980  31.600   2.190
40297W        W10897  15.414  24.282  10.698
40298W        W10898   1.275  31.717  14.229
40299W        W10899  25.291  22.138  13.296
40300W        W10900  32.187  15.391   3.346
40301W        W10901  32.059  18.267  10.670
40302W        W10902  19.060   6.856  14.876
40303W        W10903  31.210  44.042   4.107
40304W        W10904  43.414  19.845  10.729
40305W        W10905  22.852  23.383   3.898
40306W        W10906  40.557   6.840  11.159
40307W        W10907   0.252  17.785  14.379
40308W        W10908   7.667   5.789   4.134
40309W        W10909  25.170  10.385  12.920
40310W        W10910  31.639  27.507  14.788
40311W        W10911  19.732  20.785   0.471
40312W        W10912  28.375  29.470  13.874
40313W        W10913  34.882  33.381  13.102
40314W        W10914  16.064  30.834  14.830
40315W        W10915  37.133   7.139  11.972
40316W        W10916  22.631   7.059  10.674
40317W        W10917  32.374  39.392   1.461
40318W        W10918  34.397  42.048  11.559
40319W        W10919  41.000  31.900  10.747
40320W        W10920  32.776  28.930  12.625
40321W        W10921  32.874   2.240  11.997
40322W        W10922  30.573  37.386   1.923
40323W        W10923   6.395   7.818  10.674
40324W        W10924  31.240  41.532   4.259
40325W        W10925  15.567   4.448  13.347
40326W        W10926   0.410  32.907   4.063
40327W        W10927  35.411   3.316   4.651
40328W        W10928  23.127  25.210   3.716
40329W        W10929   4.273  14.032  11.849
40330W        W10930  12.377  21.625   3.791
40331W        W10931  41.241   3.329  11.133
40332W        W10932  32.911   2.412  12.605
40333W        W10933  39.847  24.210   3.583
40334W        W10934  21.492   9.160  12.404
40335W        W10935  42.720  28.611   4.170
40336W        W10936  30.925  39.936  13.258
40337W        W10937  36.012   2.830  13.775
40338W        W10938  34.213   4.116   1.734
40339W        W10939  43.085   2.269  13.141
40340W        W10940  26.582  42.902   0.678
40341W        W10941  15.242  20.544   3.583
40342W        W10942  19.681  29.604  12.406
40343W        W10943  22.096  14.289  12.506
40344W        W10944  37.454  13.239  13.107
40345W        W10945   6.384  27.164   4.065
40346W        W10946  36.742  38.365  11.556
40347W        W10947  35.174   6.682   3.074
40348W        W10948   4.356  27.034   1.453
40349W        W10949  41.355  41.257  11.621
40350W        W10950  13.314  35.062   2.668
40351W        W10951  12.302  37.470   2.603
40352W        W10952  32.887  17.599   2.727
40353W        W10953  38.522  21.724  11.609
40354W        W10954  20.067  34.486   1.760
40355W        W10955  27.995  40.548   1.469
40356W        W10956  23.422  40.535   1.464
40357W        W10957   7.664  42.212  13.880
40358W        W10958   3.569  16.092  14.789
40359W        W10959  24.245  25.104   4.615
40360W        W10960  16.571   5.486  11.452
40361W        W10961  32.950  42.818   0.278
40362W        W10962  43.201  30.183  14.297
40363W        W10963  43.373  43.943  11.392
40364W        W10964   7.593  37.373   2.767
40365W        W10965  43.269  10.768   0.072
40366W        W10966  11.899  36.860   4.164
40367W        W10967  16.158  32.159  13.877
40368W        W10968  21.573   8.716   2.464
40369W        W10969  33.004  18.665  13.929
40370W        W10970  35.731  19.620  12.793
40371W        W10971  32.581  29.743  13.970
40372W        W10972  31.378  30.212   2.812
40373W        W10973  16.949  13.344   9.801
40374W        W10974  42.942  35.224  13.782
40375W        W10975   6.813  15.529  11.085
40376W        W10976   8.491   0.528  13.504
40377W        W10977   7.878  37.302  12.498
40378W        W10978  25.215  41.329  11.194
40379W        W10979  22.004  36.818  14.597
40380W        W10980  10.156  36.567  14.866
40381W        W10981  44.892  43.594  12.766
40382W        W10982  20.225  36.085   2.911
40383W        W10983  32.986   8.610  10.552
40384W        W10984  27.337  39.446   3.542
40385W        W10985  43.326  25.025   1.265
40386W        W10986  28.865  29.571  10.402
40387W        W10987  26.645   1.949   4.446
40388W        W10988  27.923  12.929  14.002
40389W        W10989  24.592  42.460  11.239
40390W        W10990   6.532  12.399   0.269
40391W        W10991  39.831  40.204   0.315
40392W        W10992  30.660  19.789   0.578
40393W        W10993  17.750   8.010  10.799
40394W        W10994  38.551   3.343  11.219
40395W        W10995  19.605  26.696  11.636
40396W        W10996  23.577  37.822   2.836
40397W        W10997   8.676  44.971   1.811
40398W        W10998  23.026  21.417  13.056
40399W        W10999  17.471  25.707  14.913
40400W        W11000   6.122   7.178  13.082
40401W        W11001  18.062   2.796   1.385
40402W        W11002  40.096  29.664  12.956
40403W        W11003  36.453  14.228  10.659
40404W        W11004  21.062   2.448   2.646
40405W        W11005  17.246  42.889  14.238
40406W        W11006  20.331  39.535   3.110
40407W        W11007  16.758  28.680  12.458
40408W        W11008  39.750  41.709   1.726
40409W        W11009  37.908  33.306  12.421
40410W        W11010  27.169  23.224   2.249
40411W        W11011  20.750  23.987  11.408
40412W        W11012  43.462  14.609   1.624
40413W        W11013  33.795   9.365  12.416
40414W        W11014  11.190  37.699   0.625
40415W        W11015  14.692  28.664   2.931
40416W        W11016   8.332  34.143   4.642
40417W        W11017  28.906  41.058   3.987
40418W        W11018  19.056  14.051  11.334
40419W        W11019  20.674  10.277  13.000
40420W        W11020   9.358  35.053   2.384
40421W        W11021  38.376  35.606   3.762
40422W        W11022  14.083  30.137   4.178
40423W        W11023  23.506  37.930  12.541
40424W        W11024   0.025   4.232  11.966
40425W        W11025  37.273  40.548   5.136
40426W        W11026  26.290  43.790   3.631
40427W        W11027  21.575  34.380   1.727
40428W        W11028  37.634  11.439   3.710
40429W        W11029  34.468  35.700  12.812
40430W        W11030   7.141  33.053   2.579
40431W        W11031  31.943  40.766   0.480
40432W        W11032  37.355  31.461  10.690
40433W        W11033  22.605  24.077   0.460
40434W        W11034  34.608  22.094   1.715
40435W        W11035   3.681  14.778  13.547
40436W        W11036  20.492  18.640   3.715
40437W        W11037  43.541  29.645  12.578
40438W        W11038  31.882  34.612   0.909
40439W        W11039  37.485  10.191  12.922
40440W        W11040  25.155  33.902  13.371
40441W        W11041  18.323  44.036  12.399
40442W        W11042  27.420  42.558  13.906
40443W        W11043  34.347  25.246  11.191
40444W        W11044  38.939  27.652   2.121
40445W        W11045  42.701  34.007   0.226
40446W        W11046  40.294  13.172   1.775
40447W        W11047  19.550   0.747   3.640
40448W        W11048  22.448  29.533   3.122
40449W        W11049  19.508  38.638   4.531
40450W        W11050  18.668  41.022   0.167
40451W        W11051  28.179  26.079   3.324
40452W        W11052  40.941  22.983  13.716
40453W        W11053  33.156  36.671   0.277
40454W        W11054  37.194   9.699  14.736
40455W        W11055  10.098   8.367   1.698
40456W        W11056  35.354   5.654  14.794
40457W        W11057  17.652   6.860  14.834
40458W        W11058   8.598  16.069  13.333
40459W        W11059  31.540  32.894   0.539
40460W        W11060   3.449   1.559   2.227
40461W        W11061  15.684  41.663   0.010
40462W        W11062  10.621  14.294  11.154
40463W        W11063  29.958  25.834  14.043
40464W        W11064  13.190  35.434  11.587
40465W        W11065  10.305  14.778  10.072
40466W        W11066   9.562  14.150   3.654
40467W        W11067  12.806   3.215   2.353
40468W        W11068  25.133  44.131   0.326
40469W        W11069  31.043  22.233  11.923
40470W        W11070  39.574   8.203  14.969
40471W        W11071  26.027  24.664   1.358
40472W        W11072  26.458  40.241   0.464
40473W        W11073  41.391  36.225   2.347
40474W        W11074   7.856  28.134  14.342
40475W        W11075   6.891  34.841  11.042
40476W        W11076  26.054   6.610   1.668
40477W        W11077  33.487  22.087  12.447
40478W        W11078  12.620  10.702   0.319
40479W        W11079  25.147  25.334   2.849
40480W        W11080  25.954  40.477   3.769
40481W        W11081  15.285  42.559  12.150
40482W        W11082  17.185  17.051   4.571
40483W        W11083  14.199  29.574   1.003
40484W        W11084  32.718  11.617   3.352
40485W        W11085  19.271  10.419   0.967
40486W        W11086  16.811  44.380  11.460
40487W        W11087  18.694  21.542  10.656
40488W        W11088  30.065  41.431   2.082
40489W        W11089  20.230  37.347  13.163
40490W        W11090  27.075  28.670  12.001
40491W        W11091   9.846  20.595  11.935
40492W        W11092  38.191  33.553   0.677
40493W        W11093  34.436   4.868   4.055
40494W        W11094  30.600  36.617  13.174
40495W        W11095  18.615  26.467  13.372
40496W        W11096   0.797  18.547  10.654
40497W        W11097  13.388  25.061  14.292
40498W        W11098  21.548  37.638  13.093
40499W        W11099  28.351  16.649   3.381
40500W        W11100  43.132  37.263  14.500
40501W        W11101  42.776  40.466  14.939
40502W        W11102  33.533  32.630   3.992
40503W        W11103   5.538   5.941  13.842
40504W        W11104  14.851   5.785   1.307
40505W        W11105   0.904   8.699  14.729
40506W        W11106  14.257  37.874   0.684
40507W        W11107  14.626  18.158   0.109
40508W        W11108  35.994   2.825   3.552
40509W        W11109   6.209   4.254  12.949
40510W        W11110  22.045   6.780  14.841
40511W        W11111  22.714  37.988   0.423
40512W        W11112  15.454  18.550  14.235
40513W        W11113   2.828  42.508  14.033
40514W        W11114  18.171  12.197   0.424
40515W        W11115  14.128  18.829  14.931
40516W        W11116  19.485  12.759  12.587
40517W        W11117   0.724   4.309  12.553
40518W        W11118  33.897  24.237   3.739
40519W        W11119   9.650   9.663   4.210
40520W        W11120  42.035  43.434  10.994
40521W        W11121  16.818   1.766   0.806
40522W        W11122  16.272  24.609  10.414
40523W        W11123  35.914  17.327   0.794
40524W        W11124  32.279   0.485   1.515
40525W        W11125  22.338   6.404  13.051
40526W        W11126  30.225  44.457   2.082
40527W        W11127   4.735  40.068  11.222
40528W        W11128  29.523  19.841   0.733
40529W        W11129  31.552   3.000   0.048
40530W        W11130  22.023  16.509   3.629
40531W        W11131  12.151  28.911  12.904
40532W        W11132  38.249  39.943  13.740
40533W        W11133  13.283  40.857   0.843
40534W        W11134  23.767   9.705  11.699
40535W        W11135  38.772  41.260   0.740
40536W        W11136   1.239  40.577  14.874
40537W        W11137  10.117  30.765  13.430
40538W        W11138  25.766  14.679   2.813
40539W        W11139  27.932   9.085   0.823
40540W        W11140   5.439  42.308   1.683
40541W        W11141  24.826  34.964   4.158
40542W        W11142   2.974  12.713  13.925
40543W        W11143  19.770  35.618  13.940
40544W        W11144   8.333  36.119  12.358
40545W        W11145  33.480   8.952   4.247
40546W        W11146  22.120   3.000  13.840
40547W        W11147   6.313  26.387   3.675
40548W        W11148   2.839   5.403  10.722
40549W        W11149   9.085  32.641   0.517
40550W        W11150  20.993  42.097   1.127
40551W        W11151  43.212  39.278   1.278
40552W        W11152  33.923   3.477   3.684
40553W        W11153  32.456  22.680  11.081
40554W        W11154  41.877  25.970   0.293
40555W        W11155  44.341   3.258  11.217
40556W        W11156   1.846  21.348  12.164
40557W        W11157  36.982   5.566  14.437
40558W        W11158  35.427  32.996  12.649
40559W        W11159   5.661  38.557  12.506
40560W        W11160  24.697   5.983  13.802
40561W        W11161  20.679  18.200  13.321
40562W        W11162  12.871  12.999   4.053
40563W        W11163   8.401  37.957   1.775
40564W        W11164  19.761  28.961   4.083
40565W        W11165  15.822   3.234  13.847
40566W        W11166  17.862   6.463  11.053
40567W        W11167  30.996  11.484   1.560
40568W        W11168  25.453  15.640   3.631
40569W        W11169  26.531   0.774   1.726
40570W        W11170   8.952  25.939   1.421
40571W        W11171  23.276  14.660   4.305
40572W        W11172  30.599   7.550   4.443
40573W        W11173  20.595  20.385   0.427
40574W        W11174   7.270  34.483  13.675
40575W        W11175  29.930  32.032   3.162
40576W        W11176   8.373   8.572   3.986
40577W        W11177  23.769   3.032  14.791
40578W        W11178  24.715  24.126   4.394
40579W        W11179  20.185  20.643   4.599
40580W        W11180   0.190  40.522   2.726
40581W        W11181  38.891  35.914   0.420
40582W        W11182   8.969  42.132  12.987
40583W        W11183   7.723  39.938   4.745
40584W        W11184  20.179   6.856  14.915
40585W        W11185   2.755  38.049   2.906
40586W        W11186  39.674  30.525   1.692
40587W        W11187  12.917   6.140   1.318
40588W        W11188  12.021  21.168   0.938
40589W        W11189  26.085  14.621  10.430
40590W        W11190  17.568  27.448  14.385
40591W        W11191   8.342   2.703  13.890
40592W        W11192  28.480  29.229   3.841
40593W        W11193  15.044  33.301   0.561
40594W        W11194  21.124   2.789   2.252
40595W        W11195  37.380  19.712   2.480
40596W        W11196  12.299  29.658   2.863
40597W        W11197  13.574  44.230  12.983
40598W        W11198  17.347  34.640  13.400
40599W        W11199  14.057  44.229  13.891
40600W        W11200  20.274  10.697   2.840
40601W        W11201  33.374  14.670   0.626
40602W        W11202   6.325  11.389   3.238
40603W        W11203  43.726  18.222  12.338
40604W        W11204  34.471  43.775   4.789
40605W        W11205  15.033  24.386   0.962
40606W        W11206  13.335  28.693  13.016
40607W        W11207   1.398  20.368   4.579
40608W        W11208   0.555  15.038  13.424
40609W        W11209  21.743   1.244  12.133
40610W        W11210  20.434   8.593   9.832
40611W        W11211  22.176  41.501   1.247
40612W        W11212  25.244  35.304  11.737
40613W        W11213   0.898  19.630  12.303
40614W        W11214   5.246  27.703  12.789
40615W        W11215  20.413  19.941   5.102
40616W        W11216  32.305  37.330   1.741
40617W        W11217  36.938  17.346   4.667
40618W        W11218  38.924  36.631  14.086
40619W        W11219  32.905  16.301  12.160
40620W        W11220  13.591  39.156   0.429
40621W        W11221  19.541  18.512   0.118
40622W        W11222   1.223   0.514   0.391
40623W        W11223  31.335  36.908   3.129
40624W        W11224  20.514   2.639   9.950
40625W        W11225   0.534  36.703   1.252
40626W        W11226  19.485  34.906  14.741
40627W        W11227   0.520  26.192  10.530
40628W        W11228   9.318   4.023   2.225
40629W        W11229  12.823   1.416  13.061
40630W        W11230  33.489   2.248   4.074
40631W        W11231   6.258  19.821   1.725
40632W        W11232  11.706  39.541   2.230
40633W        W11233   6.137  17.092  12.487
40634W        W11234  10.219  29.883   0.934
40635W        W11235  33.957  13.166   0.644
40636W        W11236  38.391  42.478   1.657
40637W        W11237  31.089  34.351  13.740
40638W        W11238  15.785   5.526  10.875
40639W        W11239  18.475   0.977   1.711
40640W        W11240  17.682  29.768   3.628
40641W        W11241  36.330   8.317  11.599
40642W        W11242  17.487  10.234   1.678
40643W        W11243  17.922  38.806  12.968
40644W        W11244  18.116   8.656   2.672
40645W        W11245  15.995  33.637   0.278
40646W        W11246  29.857  18.759  10.761
40647W        W11247  22.000  24.504  11.533
40648W        W11248   7.504   8.946   0.942
40649W        W11249  36.278  11.508   2.029
40650W        W11250  18.196  12.540  14.401
40651W        W11251  14.008  31.035   3.737
40652W        W11252  30.913  13.836  11.133
40653W        W11253  20.447  20.727  11.650
40654W        W11254  35.950  11.707  14.383
40655W        W11255  10.408  32.549  14.041
40656W        W11256  19.188   1.456   4.023
40657W        W11257   5.377  12.180  11.173
40658W        W11258  34.030  38.657   4.110
40659W        W11259   6.617   7.221  12.669
40660W        W11260  34.494  33.380   4.501
40661W        W11261   5.418  31.375  11.144
40662W        W11262  30.723  38.569  13.625
40663W        W11263   6.202  39.598   3.556
40664W        W11264  22.407  22.995  14.827
40665W        W11265  28.197   1.903   3.717
40666W        W11266  44.510  28.622   1.785
40667W        W11267  40.929  10.905   3.595
40668W        W11268  44.419  16.343  13.766
40669W        W11269   8.452  40.841  14.791
40670W        W11270  20.467   0.416   4.485
40671W        W11271  12.172   7.826  13.398
40672W        W11272  23.335  22.345  11.996
40673W        W11273  37.542  14.695   1.554
40674W        W11274  39.424   4.240  10.712
40675W        W11275  33.539  27.390   4.326
40676W        W11276  35.119   0.784  13.902
40677W        W11277  12.668  44.893   3.548
40678W        W11278  20.134  11.927   3.161
40679W        W11279  21.059  21.255  14.351
40680W        W11280  12.548  28.638   3.745
40681W        W11281  40.440  29.434  11.110
40682W        W11282  30.835   2.758  11.889
40683W        W11283  29.419  22.155  14.380
40684W        W11284  13.299  30.292   0.345
40685W        W11285  29.556  25.013   1.747
40686W        W11286  19.676  21.940   3.227
40687W        W11287  42.791  17.251  11.207
40688W        W11288  27.186  28.420   1.906
40689W        W11289  27.058  31.693  11.873
40690W        W11290  22.751  44.275   3.639
40691W        W11291   4.459  10.331  12.889
40692W        W11292   5.935  34.509  11.718
40693W        W11293  37.688  24.250   4.156
40694W        W11294   7.114  39.037  12.544
40695W        W11295  22.790  24.921   3.971
40696W        W11296  18.249   3.316   0.312
40697W        W11297  16.683  33.616  10.160
40698W        W11298  21.570  23.353   4.593
40699W        W11299  21.716  24.056   0.277
40700W        W11300  23.143  44.658  11.234
40701W        W11301   5.102  26.607  11.473
40702W        W11302  28.407  21.531  13.430
40703W        W11303  36.851  37.601   3.590
40704W        W11304  25.309  32.291   0.549
40705W        W11305  36.741   8.778   3.259
40706W        W11306   9.326  24.009  10.778
40707W        W11307   3.962   1.682  11.589
40708W        W11308  43.176  29.958   1.202
40709W        W11309  28.007   0.449  14.076
40710W        W11310  34.542  44.604  13.275
40711W        W11311   5.195   5.287  12.525
40712W        W11312  26.641  32.853   0.837
40713W        W11313   4.618  25.642  14.798
40714W        W11314   3.060  37.026  13.434
40715W        W11315  31.174  20.701  11.959
40716W        W11316   1.618  32.422   1.793
40717W        W11317   0.371   3.652   0.668
40718W        W11318   4.334  17.832  14.907
40719W        W11319   7.184  19.446   0.831
40720W        W11320  19.207  14.673   1.332
40721W        W11321  35.124  42.268   4.071
40722W        W11322  23.537  22.664  10.706
40723W        W11323  17.597  40.989   3.570
40724W        W11324  14.725  27.572   1.800
40725W        W11325  31.155  18.337  12.547
40726W        W11326  31.868  44.920   0.786
40727W        W11327  14.424  41.330   1.800
40728W        W11328  12.710   4.213   2.401
40729W        W11329  41.587  30.698  11.254
40730W        W11330  26.715   8.746  13.364
40731W        W11331   7.691  28.223   0.854
40732W        W11332  21.040  11.961  12.585
40733W        W11333  41.110  24.575   1.417
40734W        W11334  26.087  24.281  13.570
40735W        W11335  31.494  11.628  14.848
40736W        W11336   6.314  16.003  12.536
40737W        W11337  28.217  16.160   3.284
40738W        W11338  17.602  41.287  12.602
40739W        W11339  41.590  12.932  12.570
40740W        W11340   7.563  26.959   1.395
40741W        W11341  37.119  44.881   2.204
40742W        W11342  44.677   9.376  11.820
40743W        W11343   5.827   4.319   4.647
40744W        W11344  43.466   2.746  14.648
40745W        W11345  14.615   9.259  11.487
40746W        W11346  43.820  28.897   0.753
40747W        W11347   3.398  29.611   4.185
40748W        W11348   7.069   0.428   2.888
40749W        W11349  31.699  33.679  11.726
40750W        W11350  30.455  42.562   0.314
40751W        W11351   7.135  36.821   2.271
40752W        W11352  22.483  16.270   4.688
40753W        W11353  20.363  44.311   2.553
40754W        W11354  36.773  28.869  10.760
40755W        W11355  14.052  31.207  10.848
40756W        W11356  32.398  30.501  10.762
40757W        W11357  36.147   3.836  13.532
40758W        W11358  15.771  20.683   4.227
40759W        W11359  14.633  26.027   2.500
40760W        W11360  41.881  19.762  11.700
40761W        W11361  16.299   1.471   4.941
40762W        W11362   0.105  25.496  10.666
40763W        W11363  15.714  17.772   2.090
40764W        W11364  41.945  36.503   4.729
40765W        W11365   9.642  40.883  13.511
40766W        W11366  22.828  40.434  14.031
40767W        W11367  33.010  26.268   3.795
40768W        W11368  30.627   0.264   2.497
40769W        W11369  34.176  30.936   2.883
40770W        W11370  30.048  16.225   0.254
40771W        W11371  39.334  40.407   2.407
40772W        W11372  16.801   0.375  13.408
40773W        W11373  36.593  27.144  11.535
40774W        W11374   2.276  30.180  10.701
40775W        W11375  29.285   7.195   0.561
40776W        W11376  12.661  16.273   3.810
40777W        W11377  42.121   1.703  12.430
40778W        W11378  35.110  17.148   1.754
40779W        W11379   3.702  24.518  13.493
40780W        W11380  13.639  13.701  12.836
40781W        W11381  40.833  21.739  11.485
40782W        W11382  39.582   2.832   2.308
40783W        W11383   4.046  39.460   0.644
40784W        W11384  27.558  38.774   0.397
40785W        W11385  11.045  35.465  13.447
40786W        W11386   0.669  31.370   0.298
40787W        W11387  21.134  12.550  14.888
40788W        W11388  35.516  21.277  13.118
40789W        W11389  32.381  27.861   2.329
40790W        W11390  22.998  12.170   2.282
40791W        W11391   6.189  24.112  13.427
40792W        W11392  11.734  42.069  14.488
40793W        W11393  26.489  26.921   2.394
40794W        W11394  41.053  21.052  10.709
40795W        W11395   0.928  40.873   4.260
40796W        W11396   8.827   7.582   3.167
40797W        W11397  35.147  18.134   4.576
40798W        W11398  31.198   5.819   0.552
40799W        W11399  42.801  18.665   2.652
40800W        W11400  35.368  14.620   2.177
40801W        W11401  20.072  32.705  11.953
40802W        W11402  41.871  35.557   1.710
40803W        W11403  16.788   3.706  12.121
40804W        W11404  35.768  27.471  14.539
40805W        W11405  43.283  32.923   2.811
40806W        W11406   7.438  18.043  13.307
40807W        W11407  26.674   4.749  13.371
40808W        W11408  23.431  23.079   0.755
40809W        W11409  16.194  26.151  12.950
40810W        W11410  36.585  38.500   2.333
40811W        W11411  29.497  34.890   1.405
40812W        W11412   8.519   7.275  13.474
40813W        W11413  42.274  37.535  10.725
40814W        W11414  22.019  18.879  13.678
40815W        W11415  21.473   6.636   4.302
40816W        W11416  11.303  15.112   2.430
40817W        W11417   5.283  26.991   0.653
40818W        W11418  31.075  30.476  13.029
40819W        W11419   7.795  12.587   4.684
40820W        W11420   3.732  32.493  14.812
40821W        W11421   7.668  39.198   3.169
40822W        W11422   5.725  24.161  10.790
40823W        W11423   6.390  43.352   3.277
40824W        W11424  16.049   9.439   0.360
40825W        W11425  23.600  22.575  11.595
40826W        W11426  23.758  30.357  12.097
40827W        W11427  21.352  22.080  12.006
40828W        W11428  29.568   6.855   2.230
40829W        W11429  21.627  39.868   2.753
40830W        W11430   5.339   6.690  13.312
40831W        W11431  42.190  41.391  14.870
40832W        W11432  35.798  16.378  10.810
40833W        W11433  21.607  33.480  13.141
40834W        W11434  10.719  34.642   1.432
40835W        W11435  26.708  29.461  11.006
40836W        W11436  30.102  24.526   2.110
40837W        W11437  20.326  14.109   4.182
40838W        W11438  18.751  25.720   4.449
40839W        W11439  17.426  23.642   9.910
40840W        W11440  40.048  30.639  11.635
40841W        W11441   2.939   9.460   2.092
40842W        W11442  10.344  37.523   3.935
40843W        W11443  25.288   7.073   4.133
40844W        W11444   0.786   3.988  13.824
40845W        W11445   3.955  32.848  13.820
40846W        W11446  37.634  13.144  11.181
40847W        W11447  10.699   6.612  10.918
40848W        W11448  32.724  38.035   0.406
40849W        W11449  24.772  10.757  13.956
40850W        W11450  10.537  12.208  13.896
40851W        W11451   6.829  15.261  13.975
40852W        W11452  24.075   8.946   5.461
40853W        W11453  10.239  44.332   1.224
40854W        W11454  22.936  25.656   3.617
40855W        W11455  23.060   4.496   0.674
40856W        W11456  31.999  17.794  11.613
40857W        W11457  12.216  17.251   2.354
40858W        W11458  42.266  38.047  13.110
40859W        W11459  24.774  25.559   4.092
40860W        W11460  27.904  27.964   1.167
40861W        W11461  10.239  38.004  12.527
40862W        W11462   1.459   3.312  13.995
40863W        W11463  14.808  38.306  12.521
40864W        W11464   3.599  17.332  12.838
40865W        W11465  16.030   0.621   4.193
40866W        W11466   3.332  33.000   2.316
40867W        W11467  26.217   8.305   1.820
40868W        W11468   9.402  35.569  10.936
40869W        W11469   1.931  18.832   2.156
40870W        W11470   4.363  13.206  13.850
40871W        W11471   0.953  19.751  11.312
40872W        W11472   3.529   1.935   4.184
40873W        W11473  11.319   7.399  11.916
40874W        W11474   8.535  35.463   1.147
40875W        W11475  38.292  23.232  10.704
40876W        W11476  27.679  37.623  14.082
40877W        W11477  15.588  30.920   1.958
40878W        W11478   0.938  25.982  10.766
40879W        W11479  43.833   0.502  10.665
40880W        W11480  17.160  24.233  13.315
40881W        W11481   0.300   7.432  10.621
40882W        W11482  29.914  13.806  14.763
40883W        W11483  40.992  14.562   0.299
40884W        W11484  28.134  14.089   4.966
40885W        W11485  19.563  40.518   2.970
40886W        W11486  16.383  30.575  11.436
40887W        W11487  13.405  42.530   3.097
40888W        W11488   8.061  25.133  12.572
40889W        W11489  42.835   4.473   0.427
40890W        W11490  26.222  22.711   2.249
40891W        W11491  43.977  24.690   0.911
40892W        W11492   6.059  40.084   0.946
40893W        W11493  34.478  22.548   4.523
40894W        W11494  37.826   5.275   1.398
40895W        W11495  18.549   8.605  14.410
40896W        W11496  16.220  21.315  12.800
40897W        W11497  10.866  44.603   3.296
40898W        W11498  35.691  28.684   3.190
40899W        W11499  19.230  32.896  12.589
40900W        W11500  11.774  17.508   2.106
40901W        W11501  44.640  39.332   2.768
40902W        W11502  42.198  11.192  13.810
40903W        W11503  30.384   8.274   0.671
40904W        W11504  31.677  21.758   4.089
40905W        W11505  24.947  14.733  14.417
40906W        W11506  44.233  31.490   1.380
40907W        W11507  34.050  20.505   0.531
40908W        W11508   2.818  32.486  14.811
40909W        W11509  21.072   6.349  14.832
40910W        W11510  38.084   7.789  11.302
40911W        W11511  30.638  19.764  13.478
40912W        W11512   3.293  21.526   2.317
40913W        W11513   2.934   8.894   0.396
40914W        W11514  19.752  32.605   2.773
40915W        W11515  40.897  42.262  14.138
40916W        W11516  25.009   2.332   0.659
40917W        W11517  34.401  27.663   0.294
40918W        W11518   4.242  31.513  13.475
40919W        W11519  16.874  19.573  14.981
40920W        W11520   4.946  41.077   0.597
40921W        W11521   0.471  40.094   3.739
40922W        W11522  19.121  20.116   0.369
40923W        W11523  40.431  19.525   0.447
40924W        W11524   9.786   8.468   2.376
40925W        W11525   3.863  39.510   4.126
40926W        W11526  28.797  16.618  11.077
40927W        W11527  34.053   7.098  11.679
40928W        W11528   3.770  26.529  11.119
40929W        W11529  16.300   3.240   1.415
40930W        W11530  14.405  27.224  11.215
40931W        W11531  17.386   8.317   2.280
40932W        W11532   2.065   6.325  11.554
40933W        W11533  30.146   7.961  14.345
40934W        W11534  44.570  17.613   1.609
40935W        W11535  41.220  30.562   1.365
40936W        W11536  40.421  34.563  10.720
40937W        W11537  33.306   5.339   3.977
40938W        W11538  24.483  34.525   3.939
40939W        W11539   3.508  16.325  11.440
40940W        W11540  28.016  38.757   4.123
40941W        W11541   0.937  36.906   2.319
40942W        W11542  27.966  44.265   3.475
40943W        W11543  44.925  16.398  12.440
40944W        W11544  38.383  23.246  11.579
40945W        W11545  32.986   2.905   4.027
40946W        W11546  31.070  30.615  14.351
40947W        W11547  39.732  17.657   0.866
40948W        W11548  11.901  18.610   0.290
40949W        W11549  34.584   6.425  11.443
40950W        W11550   5.241  28.476   4.517
40951W        W11551  42.956  29.924  10.995
40952W        W11552  24.033  11.556  10.552
40953W        W11553  31.166  35.330   2.714
40954W        W11554  31.425  26.581  13.435
40955W        W11555  19.683  14.589   1.790
40956W        W11556  24.095  34.353   1.655
40957W        W11557   6.191   3.287  14.789
40958W        W11558   6.375  24.752   0.317
40959W        W11559  30.448  19.107  14.225
40960W        W11560   9.589  14.802  12.147
40961W        W11561  42.980   1.786  12.864
40962W        W11562   3.989  19.466  13.396
40963W        W11563   6.696  31.170  12.694
40964W        W11564  24.600  37.389   2.236
40965W        W11565  23.260  38.106  12.104
40966W        W11566  37.893   0.531   0.296
40967W        W11567  24.948  40.377   2.735
40968W        W11568  36.059  10.023   0.778
40969W        W11569  28.071   0.079   3.137
40970W        W11570  23.152  43.515   2.705
40971W        W11571  41.783  31.861  12.961
40972W        W11572  30.330   0.543  11.561
40973W        W11573   6.467   6.725  12.873
40974W        W11574  38.546  18.926  10.157
40975W        W11575   8.243  18.753  12.490
40976W        W11576   7.977  10.173   2.214
40977W        W11577  13.771  21.696   1.510
40978W        W11578  14.367   8.776   2.104
40979W        W11579   8.733  16.504   4.348
40980W        W11580  29.879  40.576   3.493
40981W        W11581  21.591  12.720   1.295
40982W        W11582  10.815  39.765   3.316
40983W        W11583  38.991  39.840  13.847
40984W        W11584   2.158  22.214  14.944
40985W        W11585  19.222  20.878  13.895
40986W        W11586   5.373  20.963   0.942
40987W        W11587  11.892  37.908   0.919
40988W        W11588  35.349  39.958   1.254
40989W        W11589  19.004  26.148  11.947
40990W        W11590   5.780  27.633   2.686
40991W        W11591   3.459  17.376  14.499
40992W        W11592  31.043  26.796   4.560
40993W        W11593  42.616  31.250  11.948
40994W        W11594  39.989  29.064   3.287
40995W        W11595  17.352  31.096  11.124
40996W        W11596  27.027  34.738  12.983
40997W        W11597  19.206  12.736  13.627
40998W        W11598  25.565  28.381   0.951
40999W        W11599  37.446  12.824  10.834
41000W        W11600  15.235  40.568  13.886
41001W        W11601  28.792  27.187  11.696
41002W        W11602  38.463  27.961  12.296
41003W        W11603  33.879  32.576   0.338
41004W        W11604  43.295  12.848   3.785
41005W        W11605  39.237  24.556   3.184
41006W        W11606   2.108   1.096  13.795
41007W        W11607  35.542  33.350  13.877
41008W        W11608  27.212  40.632  12.840
41009W        W11609  26.385   7.392   9.948
41010W        W11610  11.424  23.663   2.891
41011W        W11611  44.836  40.947   3.539
41012W        W11612   5.639  25.698   2.764
41013W        W11613   4.604  27.669   5.122
41014W        W11614  38.771  12.325   2.314
41015W        W11615  17.332  29.122  11.636
41016W        W11616  14.085  44.725  12.556
41017W        W11617  15.715  38.055   1.415
41018W        W11618  16.519  26.238  12.070
41019W        W11619  40.111  39.089   1.211
41020W        W11620  44.313  23.647   1.267
41021W        W11621  26.266  30.044   2.509
41022W        W11622  33.114  39.425  10.406
41023W        W11623  19.946  23.063  12.306
41024W        W11624  43.989  22.121   2.316
41025W        W11625  34.450  32.636   3.318
41026W        W11626  24.737  39.609   2.907
41027W        W11627   2.797   9.541   3.403
41028W        W11628  38.190   7.271   4.580
41029W        W11629  11.109  40.369  10.734
41030W        W11630  25.174  32.444  10.522
41031W        W11631  17.623  18.766  13.044
41032W        W11632  27.082  21.378   0.221
41033W        W11633  23.300  33.669  13.999
41034W        W11634  44.369  43.832  13.920
41035W        W11635  15.934   7.407  10.453
41036W        W11636  18.092   9.630   3.624
41037W        W11637  27.646   9.750   1.331
41038W        W11638  11.151  43.362   4.153
41039W        W11639  14.318   5.326   2.153
41040W        W11640  15.700  12.227  14.084
41041W        W11641   3.410   6.264  13.536
41042W        W11642   3.322   3.293   0.226
41043W        W11643  19.870  25.766  11.875
41044W        W11644   8.899  27.140  11.717
41045W        W11645  42.739  11.934   2.613
41046W        W11646   8.729   7.390  12.838
41047W        W11647  38.141  44.208   2.241
41048W        W11648  26.016   8.328  11.966
41049W        W11649  21.121  19.756  13.034
41050W        W11650  13.247  19.949  14.042
41051W        W11651  18.302  16.519  14.266
41052W        W11652  41.017  21.858  13.428
41053W        W11653  29.709   7.764   4.007
41054W        W11654  29.991  37.627  10.340
41055W        W11655  24.370  22.508  10.934
41056W        W11656  28.183   3.275  10.780
41057W        W11657  11.149  22.156   3.622
41058W        W11658  23.001  22.105   2.764
41059W        W11659  28.704   8.568   4.568
41060W        W11660  24.084   5.280   1.334
41061W        W11661  10.243   3.610  12.165
41062W        W11662  20.593  11.372   4.133
41063W        W11663  41.735  14.800   0.733
41064W        W11664   1.462  11.759  14.276
41065W        W11665  34.486  20.907  13.402
41066W        W11666  29.546  14.296  12.560
41067W        W11667  38.354  32.115   2.249
41068W        W11668  21.293  41.913  11.663
41069W        W11669  11.795   8.727   3.109
41070W        W11670  24.066  33.867   3.874
41071W        W11671  25.047   4.096  11.130
41072W        W11672   4.223  26.684  10.919
41073W        W11673   3.937  20.262   3.963
41074W        W11674  34.151  42.450   3.150
41075W        W11675   5.013   8.375  14.502
41076W        W11676  20.820  22.611   1.888
41077W        W11677  44.927   6.089  13.304
41078W        W11678  18.468  20.721  14.367
41079W        W11679  43.438  43.703   1.396
41080W        W11680  14.744  11.219   4.575
41081W        W11681  10.078  39.293  13.896
41082W        W11682  26.971  22.591  11.942
41083W        W11683  10.448  19.801  13.533
41084W        W11684   0.688  27.870  14.409
41085W        W11685  43.847  13.456   3.881
41086W        W11686  31.936  31.046   1.726
41087W        W11687  19.561  41.616   1.833
41088W        W11688  25.712  39.903   0.799
41089W        W11689  42.665  19.788   1.738
41090W        W11690  32.443  26.883   0.295
41091W        W11691  23.759  18.253   4.215
41092W        W11692  28.984  29.098  10.194
41093W        W11693  15.151   2.651   1.677
41094W        W11694   1.707  17.398   4.622
41095W        W11695   3.319  40.506   0.279
41096W        W11696  14.762  13.278   3.289
41097W        W11697  33.862  24.683  14.541
41098W        W11698  14.029  38.071  10.694
41099W        W11699  11.978  32.500   1.357
41100W        W11700  42.344  15.785  11.186
41101W        W11701  14.079  36.907  11.096
41102W        W11702  42.765  14.995   3.207
41103W        W11703   2.802  36.512  12.607
41104W        W11704   2.696   6.121  13.040
41105W        W11705  40.404   0.985   1.967
41106W        W11706  21.294  43.311   3.031
41107W        W11707  17.300  31.962  11.171
41108W        W11708   6.733  26.050  14.314
41109W        W11709  10.689  21.235   4.944
41110W        W11710  41.985   1.472   4.539
41111W        W11711  41.300  28.048  14.506
41112W        W11712  42.685  23.676  12.377
41113W        W11713  40.231  13.603  13.202
41114W        W11714  21.981  27.104  12.410
41115W        W11715   1.993  37.336   0.350
41116W        W11716  42.170   7.735   0.869
41117W        W11717  39.888   0.194  11.475
41118W        W11718  23.535  11.838   0.218
41119W        W11719   2.812  23.460   0.708
41120W        W11720  31.748  20.422   1.781
41121W        W11721  37.399   7.724   1.319
41122W        W11722  25.802  11.262   0.011
41123W        W11723   0.639   2.351   0.933
41124W        W11724  13.838  16.760   2.147
41125W        W11725  34.465  11.285   1.868
41126W        W11726  39.550  30.392  13.142
41127W        W11727  18.637  37.101   3.348
41128W        W11728  10.781  26.419   4.607
41129W        W11729   2.522   2.917   0.926
41130W        W11730  10.835  33.923   0.693
41131W        W11731  18.751  25.964   1.297
41132W        W11732  36.097  31.722   0.912
41133W        W11733   1.375  12.642  14.233
41134W        W11734  35.025  28.911  14.811
41135W        W11735  29.062  40.307   3.287
41136W        W11736  22.249  23.278  14.047
41137W        W11737   1.451  28.157   0.178
41138W        W11738   0.405  43.183  10.023
41139W        W11739  37.238  25.550  12.910
41140W        W11740  12.388  17.002  12.926
41141W        W11741  25.992  40.802  14.054
41142W        W11742  35.998   6.643   3.283
41143W        W11743  27.447  27.215  11.677
41144W        W11744  21.035  11.661   4.074
41145W        W11745  22.134  31.940   2.501
41146W        W11746  31.849  18.566   0.256
41147W        W11747  36.867   6.958   2.368
41148W        W11748  27.602  32.878  10.442
41149W        W11749  11.656   5.812   3.678
41150W        W11750   3.273  36.902   2.812
41151W        W11751   7.851  11.233   0.948
41152W        W11752  18.541   3.436   3.291
41153W        W11753  32.497  30.225  12.986
41154W        W11754   5.088  20.308   2.345
41155W        W11755  34.023  44.429  14.478
41156W        W11756  22.475   8.044  11.906
41157W        W11757  14.617  31.881   0.406
41158W        W11758  23.864  37.563   5.018
41159W        W11759  23.770  17.287   0.207
41160W        W11760  43.200  29.970   2.635
41161W        W11761  40.640  10.799  13.109
41162W        W11762  44.369   6.053  10.101
41163W        W11763  42.824  39.848  12.919
41164W        W11764  14.819  10.924   4.159
41165W        W11765   2.219  11.614  11.647
41166W        W11766  21.001  42.776  10.766
41167W        W11767  11.881  26.720   0.455
41168W        W11768  37.042  43.197  10.636
41169W        W11769  33.970  33.365  12.240
41170W        W11770  28.629  28.436  12.842
41171W        W11771  22.211   4.916  12.872
41172W        W11772   0.402  21.779   4.684
41173W        W11773  28.961   6.732  11.637
41174W        W11774  13.548  44.249  13.935
41175W        W11775  42.424  16.006   2.306
41176W        W11776  11.331  25.700  13.749
41177W        W11777  24.954  26.589   2.774
41178W        W11778   4.703   3.792   1.011
41179W        W11779  30.581  28.840  11.059
41180W        W11780  31.395  33.010  12.520
41181W        W11781  13.308   2.773  14.344
41182W        W11782  21.623  40.533   4.850
41183W        W11783  32.898  21.232  13.277
41184W        W11784  15.305  29.105  12.582
41185W        W11785  20.575  10.912   0.376
41186W        W11786  14.239  31.609   3.116
41187W        W11787  25.546   4.322  11.151
41188W        W11788  21.120  37.106   2.705
41189W        W11789  16.227  27.983  12.599
41190W        W11790   7.818  42.797   2.452
41191W        W11791  17.668  31.490  12.469
41192W        W11792  28.541  37.388  10.712
41193W        W11793  24.016  29.771  14.591
41194W        W11794  23.725  40.920  11.890
41195W        W11795  12.155  26.605  13.306
41196W        W11796  31.794  44.538  14.392
41197W        W11797   3.961  12.180  14.425
41198W        W11798  20.666  44.554  14.510
41199W        W11799  43.026   9.904   3.426
41200W        W11800  14.166  24.262   1.515
41201W        W11801  15.596  22.194   1.150
41202W        W11802   6.257  43.061   0.594
41203W        W11803  10.616  30.445   4.747
41204W        W11804  44.097  25.214  13.731
41205W        W11805  22.179  12.365  12.030
41206W        W11806  11.195  23.814  11.041
41207W        W11807  38.512  17.868  13.892
41208W        W11808  13.133  30.394   4.647
41209W        W11809   3.227  44.736  10.786
41210W        W11810   4.485  27.457   4.116
41211W        W11811  31.034   5.053  14.862
41212W        W11812  44.469  14.626   0.282
41213W        W11813  17.157  43.784  13.862
41214W        W11814  13.201  42.737  14.451
41215W        W11815  15.733  40.713   3.655
41216W        W11816  37.468  13.868   2.727
41217W        W11817   5.933  26.160   4.003
41218W        W11818  33.490  44.267   2.939
41219W        W11819   8.464  36.542  12.031
41220W        W11820  23.935  43.854   3.407
41221W        W11821  20.597  14.890  14.845
41222W        W11822  28.667   2.462  13.903
41223W        W11823  14.709  23.723  10.514
41224W        W11824  15.797  32.166  10.698
41225W        W11825   1.413  25.488   0.582
41226W        W11826  16.838  24.676   4.589
41227W        W11827   5.827  21.604   3.033
41228W        W11828   9.719  19.710   2.280
41229W        W11829  33.617  25.571   2.950
41230W        W11830  42.404  26.678  13.496
41231W        W11831  44.949  32.124  14.799
41232W        W11832   7.102  39.387   4.505
41233W        W11833  17.347  24.259   3.778
41234W        W11834  25.142   5.562  12.176
41235W        W11835  19.252   8.544   2.263
41236W        W11836  23.056   2.560  13.813
41237W        W11837  35.375  10.099   1.951
41238W        W11838   2.792   1.952   4.651
41239W        W11839  44.052  19.503  11.912
41240W        W11840   4.004  27.583   0.161
41241W        W11841  38.343  17.211  12.930
41242W        W11842  10.941  12.720   3.978
41243W        W11843  42.873  32.657  12.593
41244W        W11844  26.955  10.303   1.813
41245W        W11845  23.718  22.123   5.056
41246W        W11846  34.013  25.802  13.861
41247W        W11847   0.211  33.922   3.203
41248W        W11848   6.207  21.444   4.611
41249W        W11849   8.809  16.778   0.474
41250W        W11850  20.223  31.153   3.617
41251W        W11851  12.547  15.937  14.452
41252W        W11852  41.887  39.048   1.928
41253W        W11853   0.762  21.279  13.337
41254W        W11854  40.752  11.551   0.376
41255W        W11855  30.432  39.003  11.549
41256W        W11856  24.530   5.847  11.574
41257W        W11857  15.541  11.339   0.418
41258W        W11858  33.505  20.243   2.209
41259W        W11859  38.061  33.137  10.952
41260W        W11860  34.959   6.138  11.141
41261W        W11861  17.174   5.467   4.114
41262W        W11862  19.409   6.893  13.515
41263W        W11863  22.316  37.872  11.832
41264W        W11864  33.251  34.477   3.705
41265W        W11865   7.704  10.607  11.799
41266W        W11866  34.357  29.986  11.541
41267W        W11867  33.981  11.263  11.499
41268W        W11868   8.197  32.644  12.001
41269W        W11869  30.707   4.737  14.293
41270W        W11870   3.432  36.176  10.414
41271W        W11871   1.805  44.464  11.473
41272W        W11872  12.180   9.990   1.947
41273W        W11873  42.885  35.881   0.466
41274W        W11874   2.168  17.751  10.667
41275W        W11875  41.579  33.141  13.409
41276W        W11876  14.498  35.335   5.070
41277W        W11877  11.689  40.335  13.876
41278W        W11878  15.165   5.085  14.830
41279W        W11879   4.367  39.542   3.776
41280W        W11880  33.205   2.397  11.569
41281W        W11881   3.938   9.834  13.449
41282W        W11882  27.330   2.983  14.064
41283W        W11883  41.821  10.265   0.219
41284W        W11884  22.234  24.048   0.124
41285W        W11885  23.361  23.962   4.616
41286W        W11886  33.340  24.851   0.624
41287W        W11887  20.164   8.902  11.871
41288W        W11888  14.795  38.073   1.414
41289W        W11889  31.682  31.895  11.834
41290W        W11890  39.265  15.252  13.001
41291W        W11891   8.761  25.871  13.309
41292W        W11892  30.560   8.453   2.192
41293W        W11893   3.744   4.479   3.122
41294W        W11894  19.589  39.049   1.774
41295W        W11895  41.904   4.177  14.010
41296W        W11896  16.312  40.704   4.576
41297W        W11897  36.534  40.473  13.949
41298W        W11898   6.379  38.498   3.820
41299W        W11899  12.474  13.891  10.130
41300W        W11900  32.165  13.820  13.117
41301W        W11901  25.407  19.776   0.097
41302W        W11902  10.351  23.467  10.914
41303W        W11903  29.506  44.308   0.840
41304W        W11904  31.960   2.929  10.681
41305W        W11905  13.103  37.861   0.421
41306W        W11906  27.660   3.294  10.615
41307W        W11907  25.883  13.971   4.032
41308W        W11908  24.600  14.661   3.811
41309W        W11909  23.712  11.824   0.820
41310W        W11910   6.404   8.919   4.177
41311W        W11911   5.862  12.592   3.762
41312W        W11912  16.511  22.584   0.895
41313W        W11913  11.334  32.132  13.142
41314W        W11914  22.688  22.623   4.305
41315W        W11915  27.974  43.271  14.348
41316W        W11916  14.276   8.589   3.309
41317W        W11917   5.286  22.577   0.380
41318W        W11918   0.342  39.257   1.419
41319W        W11919  41.895  29.081   3.160
41320W        W11920  36.556  14.537   4.673
41321W        W11921  33.493  44.253   1.347
41322W        W11922  11.194  18.816   3.224
41323W        W11923  25.003  29.065  11.529
41324W        W11924   5.784  35.810  13.017
41325W        W11925  18.998  43.728  12.907
41326W        W11926  28.412  12.768  12.560
41327W        W11927   5.744   7.387   4.363
41328W        W11928   1.931  30.588   3.110
41329W        W11929  26.034  38.570   1.858
41330W        W11930  34.433  35.979   4.563
41331W        W11931   8.008   1.174   0.841
41332W        W11932  36.118  31.341   3.751
41333W        W11933  37.502  25.583  11.973
41334W        W11934  27.963  12.732  14.813
41335W        W11935  22.495  27.542   0.059
41336W        W11936  29.748  38.330  13.371
41337W        W11937  33.856  20.408   2.908
41338W        W11938  43.718   6.095  10.732
41339W        W11939  42.555  27.186  11.074
41340W        W11940  13.571  33.158  12.646
41341W        W11941  37.498   3.917   3.157
41342W        W11942  30.510  22.638  11.491
41343W        W11943  23.126  14.004   4.949
41344W        W11944  14.772  20.257  11.609
41345W        W11945   1.419  36.809  11.937
41346W        W11946   2.286  38.596   0.791
41347W        W11947  32.578   8.603   1.683
41348W        W11948  43.983   5.529   1.340
41349W        W11949  22.973  18.044   3.795
41350W        W11950   0.020   1.369  12.787
41351W        W11951  15.150   6.290  12.002
41352W        W11952  43.879  20.091  10.742
41353W        W11953  13.607  26.007   3.091
41354W        W11954  18.600  18.016  12.520
41355W        W11955  43.358   4.528   2.342
41356W        W11956  17.990  23.222   4.364
41357W        W11957   3.215  22.650  12.457
41358W        W11958  15.124  41.437   4.599
41359W        W11959  35.184  42.938  12.610
41360W        W11960  33.386   0.672  12.439
41361W        W11961  19.102  20.076   4.657
41362W        W11962  41.510  13.641   4.944
41363W        W11963   1.983  18.367   2.727
41364W        W11964  38.592  36.700  10.170
41365W        W11965  17.890  38.500  14.242
41366W        W11966  35.563  25.046   1.988
41367W        W11967  44.627  31.222  10.415
41368W        W11968  24.491   3.524   0.122
41369W        W11969   9.488  24.016   0.925
41370W        W11970   4.342  21.942   0.958
41371W        W11971  20.098  30.208   4.868
41372W        W11972  30.736  12.767   1.690
41373W        W11973  34.134  18.186  14.847
41374W        W11974  38.820  17.271  13.076
41375W        W11975  36.566  24.877   2.406
41376W        W11976  11.288  41.431  14.776
41377W        W11977  42.988  36.485  13.434
41378W        W11978   4.699  21.418   0.467
41379W        W11979   2.022  31.671   1.942
41380W        W11980  16.573  24.176  13.950
41381W        W11981  41.101  26.623  10.212
41382W        W11982   4.301  43.584  11.028
41383W        W11983   0.101  37.870   4.992
41384W        W11984  40.394   5.490  13.385
41385W        W11985   3.376   7.654   0.498
41386W        W11986   2.722  10.550   1.669
41387W        W11987  19.786  26.431   1.683
41388W        W11988  43.804  18.479   0.204
41389W        W11989  16.626  39.154   1.639
41390W        W11990  37.904   6.229   4.149
41391W        W11991  30.552  10.297  10.639
41392W        W11992  33.781  39.886   1.365
41393W        W11993  21.617   9.725  12.328
41394W        W11994   0.927  11.277  13.198
41395W        W11995  42.490  35.357  11.358
41396W        W11996  29.899  37.548  12.111
41397W        W11997   7.361  36.188  12.924
41398W        W11998  17.562  34.385   1.956
41399W        W11999  15.773  22.143   4.194
41400W        W12000  11.222   3.718   3.579
41401W        W12001  40.306  25.666  11.924
41402W        W12002  31.510  36.310   3.859
41403W        W12003  40.499  27.716  14.210
41404W        W12004  16.773  10.344  14.822
41405W        W12005  43.445  29.448   4.432
41406W        W12006  31.417   5.872  13.032
41407W        W12007  18.541  24.440  11.702
41408W        W12008   8.393  42.778   3.873
41409W        W12009  23.101  28.800   4.777
41410W        W12010  42.250  22.024   2.469
41411W        W12011  19.351   1.937  11.801
41412W        W12012  25.081  33.384   3.582
41413W        W12013  38.252  13.606  13.390
41414W        W12014  15.964  44.865   3.714
41415W        W12015  16.807   1.899   2.373
41416W        W12016  13.711  26.131  12.692
41417W        W12017  33.926  31.452   0.276
41418W        W12018  19.003  18.151   3.191
41419W        W12019  29.241  22.064   4.624
41420W        W12020  17.177   3.953  11.877
41421W        W12021  32.016  17.286   0.519
41422W        W12022   7.180  35.305   2.207
41423W        W12023   8.846  44.490  14.597
41424W        W12024  21.672  23.820   2.824
41425W        W12025  15.218  10.194  10.770
41426W        W12026  11.858  33.695  10.881
41427W        W12027  37.256  26.493   4.596
41428W        W12028  19.086  36.030  13.355
41429W        W12029  13.559  13.691  11.542
41430W        W12030  40.330  32.001  14.436
41431W        W12031  20.995  22.173  10.666
41432W        W12032  10.609   9.225  13.537
41433W        W12033   7.857  34.631  11.626
41434W        W12034  26.976  40.482   2.813
41435W        W12035  32.030  10.267   3.515
41436W        W12036  14.394  40.530   1.865
41437W        W12037  20.123  41.937   1.456
41438W        W12038  35.336  42.507  13.005
41439W        W12039  36.938  38.918  14.927
41440W        W12040   2.904  29.377  11.396
41441W        W12041  42.943  15.721  12.973
41442W        W12042  19.997  11.352  11.989
41443W        W12043  19.574  17.858   4.219
41444W        W12044   3.223  26.054   4.562
41445W        W12045  20.080  36.528   4.305
41446W        W12046  41.370   3.833   3.699
41447W        W12047  14.401  20.864   1.675
41448W        W12048  40.505   8.338  11.677
41449W        W12049  21.015   3.989   3.441
41450W        W12050  44.265  24.357  13.504
41451W        W12051  38.774  21.565   0.793
41452W        W12052  21.052  28.397  12.217
41453W        W12053  27.895  21.192   2.372
41454W        W12054  35.194  39.942  11.218
41455W        W12055  21.098  13.271  12.652
41456W        W12056  10.701  14.456   4.797
41457W        W12057   3.765  35.925  10.755
41458W        W12058  14.400  27.793  12.383
41459W        W12059   4.497  12.553   1.195
41460W        W12060  39.538   9.176  14.922
41461W        W12061   9.628  12.772  11.477
41462W        W12062  15.528   4.714  12.042
41463W        W12063  23.471   5.670  14.360
41464W        W12064   3.413  20.967  13.424
41465W        W12065   1.027  31.363  14.526
41466W        W12066   5.912   5.731   3.533
41467W        W12067   3.328   7.346   4.911
41468W        W12068  32.496  11.630  11.997
41469W        W12069  36.000  11.570  11.223
41470W        W12070  37.375  17.972  14.413
41471W        W12071  27.426  41.579  12.174
41472W        W12072   0.776  27.637   3.730
41473W        W12073  39.007  32.511   5.003
41474W        W12074  21.786  43.994   2.102
41475W        W12075  31.549  21.672   1.322
41476W        W12076  12.845  30.505  12.106
41477W        W12077  44.915   3.224   4.185
41478W        W12078  26.703   7.186   3.258
41479W        W12079  13.359   7.918  12.699
41480W        W12080  41.596  34.719   3.292
41481W        W12081  14.374  11.970  10.575
41482W        W12082  28.022   2.762  14.856
41483W        W12083  24.388  13.288  13.430
41484W        W12084  34.043  26.906  11.822
41485W        W12085  25.447  29.555   1.639
41486W        W12086  21.578  28.048   4.076
41487W        W12087   4.672  40.075   3.721
41488W        W12088   1.794  33.441  11.724
41489W        W12089  17.149  22.385   3.396
41490W        W12090  17.362  26.396   0.043
41491W        W12091  15.154  21.005   3.376
41492W        W12092  15.056  43.320  13.009
41493W        W12093  18.309   4.035   3.581
41494W        W12094  18.505   6.581   2.186
41495W        W12095  34.665  24.532  12.872
41496W        W12096  33.192  11.531   3.590
41497W        W12097   4.943  18.215   4.139
41498W        W12098  40.809   5.872  13.936
41499W        W12099  28.031  31.097  10.733
41500W        W12100  42.532  31.866   4.071
41501W        W12101   7.213  20.342  11.608
41502W        W12102  40.881   6.357  13.776
41503W        W12103  12.571  34.410   0.374
41504W        W12104  11.258  25.151   2.890
41505W        W12105  37.640   1.869  12.583
41506W        W12106  39.116  10.797  11.371
41507W        W12107  41.373  30.329  13.477
41508W        W12108  11.927   7.470  12.515
41509W        W12109   9.952  29.867   1.375
41510W        W12110   4.230  14.253  14.756
41511W        W12111  16.822  12.094  12.452
41512W        W12112  28.149  20.151  12.478
41513W        W12113  24.631  28.702   3.575
41514W        W12114  36.847   6.754  10.507
41515W        W12115  11.572  30.291   0.746
41516W        W12116   9.679  44.765  13.486
41517W        W12117  17.208   7.581  12.963
41518W        W12118  19.492  26.455  13.625
41519W        W12119  35.174  17.613   0.206
41520W        W12120  11.847   7.183  11.582
41521W        W12121  29.259  43.719  10.475
41522W        W12122  20.470  35.882   3.635
41523W        W12123  40.380   4.497   0.360
41524W        W12124  14.294  15.888  14.836
41525W        W12125  22.925  18.200   0.284
41526W        W12126  40.450  10.896   1.115
41527W        W12127   1.287  37.867   1.360
41528W        W12128  17.275  22.423  11.857
41529W        W12129   1.801  43.482  13.021
41530W        W12130   2.327  38.321  10.651
41531W        W12131  32.401  11.113  11.961
41532W        W12132  20.653   3.967   3.033
41533W        W12133   0.468  15.255   4.232
41534W        W12134  27.201  26.174  11.614
41535W        W12135  30.777  22.044   1.723
41536W        W12136  36.833  24.507  12.577
41537W        W12137  22.787   8.307  11.094
41538W        W12138  10.124   5.705  10.145
41539W        W12139   4.025  18.256   3.081
41540W        W12140  26.601   2.368   4.156
41541W        W12141  19.735  44.508  14.913
41542W        W12142  33.154  27.515   1.773
41543W        W12143  16.852  31.163   3.306
41544W        W12144  31.962   8.295  14.434
41545W        W12145  33.031  20.723  13.430
41546W        W12146  44.916  14.836  13.809
41547W        W12147  27.439  12.701  11.599
41548W        W12148  27.108  10.571   0.527
41549W        W12149  25.526   0.522   0.355
41550W        W12150   1.224  25.042   3.532
41551W        W12151  30.558  21.989  12.124
41552W        W12152  36.448   2.996  14.974
41553W        W12153  28.183   9.421  12.375
41554W        W12154   6.895  43.459  10.539
41555W        W12155   1.880  38.399  12.726
41556W        W12156   8.738  27.976  12.126
41557W        W12157  27.494  40.239  12.653
41558W        W12158   4.948  34.611   9.615
41559W        W12159   3.897  21.266  10.236
41560W        W12160  41.223  14.331   1.467
41561W        W12161  11.275  24.721  13.786
41562W        W12162  14.195   5.438   1.641
41563W        W12163  37.065  25.650   0.758
41564W        W12164  29.746  22.771  12.057
41565W        W12165  34.033  20.765  11.621
41566W        W12166   1.114  42.542  13.031
41567W        W12167   4.927   8.801  11.821
41568W        W12168  32.124  19.917  10.337
41569W        W12169  34.597   0.118  13.347
41570W        W12170  44.392  16.906  10.305
41571W        W12171   8.334  21.520  13.851
41572W        W12172  37.409  27.899   4.075
41573W        W12173   7.369  22.274   0.804
41574W        W12174   6.200  21.538  14.579
41575W        W12175   3.275  10.459   0.813
41576W        W12176  35.784  28.625   2.659
41577W        W12177  13.580   9.812  14.691
41578W        W12178  17.766  10.381  13.371
41579W        W12179  25.855  21.161  11.128
41580W        W12180  22.000  15.294  14.287
41581W        W12181  36.901  21.766  12.409
41582W        W12182  13.673  33.890  14.272
41583W        W12183   8.674  33.406   2.169
41584W        W12184   4.343  12.106  14.782
41585W        W12185  15.871   8.180   4.895
41586W        W12186  36.591  25.719  12.099
41587W        W12187  21.647  30.626  11.686
41588W        W12188  40.380  13.636   3.699
41589W        W12189  19.596  30.484   3.613
41590W        W12190  23.261  18.415   1.171
41591W        W12191  36.320  19.191  14.369
41592W        W12192  31.577  20.311  14.395
41593W        W12193  43.047  10.274   4.103
41594W        W12194  34.847  22.707  14.211
41595W        W12195  26.174  22.791  13.533
41596W        W12196  35.630   2.535  13.974
41597W        W12197  16.377  44.940   0.551
41598W        W12198  35.970  29.590   1.726
41599W        W12199  29.976  32.308  10.825
41600W        W12200  24.525  21.091   1.781
41601W        W12201  11.638   8.076   0.801
41602W        W12202  12.826   5.953  13.309
41603W        W12203  11.392  29.477  12.471
41604W        W12204  42.604  35.426  14.439
41605W        W12205  39.986  32.158  14.785
41606W        W12206  15.709  21.715   1.406
41607W        W12207  20.726  25.531  14.425
41608W        W12208  23.021  12.330  11.608
41609W        W12209  22.694  16.270   3.714
41610W        W12210  18.474  10.484   0.535
41611W        W12211  38.439  37.547  11.413
41612W        W12212   8.471   0.677  12.389
41613W        W12213  30.546   2.250   1.226
41614W        W12214  18.162  30.688   3.741
41615W        W12215  15.175  27.979   1.876
41616W        W12216  15.116  35.611  10.730
41617W        W12217  30.332  39.382   2.693
41618W        W12218   5.881  19.311  13.410
41619W        W12219  23.843  14.112  11.658
41620W        W12220  10.326  10.323  10.892
41621W        W12221  35.880   6.637   0.359
41622W        W12222   0.675  24.094  12.998
41623W        W12223   7.926  20.283  11.957
41624W        W12224  38.026  34.451  12.008
41625W        W12225   5.371  42.453  11.070
41626W        W12226  16.104  23.210   4.380
41627W        W12227  39.431  16.612  12.838
41628W        W12228  38.187  21.271   1.937
41629W        W12229  34.405   3.315  12.440
41630W        W12230  16.596  15.700  14.474
41631W        W12231  17.195  19.291   1.873
41632W        W12232  27.513   1.522   4.661
41633W        W12233  43.865  23.652   2.788
41634W        W12234  35.635  16.138   4.338
41635W        W12235  16.100   4.493   2.717
41636W        W12236  27.472  42.935  12.564
41637W        W12237  32.430  21.030  12.188
41638W        W12238  41.358  12.736  11.378
41639W        W12239  24.643  19.215  13.065
41640W        W12240   1.457  38.919  10.805
41641W        W12241  41.203  14.889   4.530
41642W        W12242  42.784  24.548  10.771
41643W        W12243  14.051  22.094  11.586
41644W        W12244  33.881  11.071  13.643
41645W        W12245  10.507  33.770   4.979
41646W        W12246  29.035  23.320  14.815
41647W        W12247  42.878  18.441  13.494
41648W        W12248  13.215  40.735  12.095
41649W        W12249  44.468  26.975   1.747
41650W        W12250   5.372  41.829   1.938
41651W        W12251   0.410  34.616  14.354
41652W        W12252  35.265   1.943  10.178
41653W        W12253  30.159  34.563   2.416
41654W        W12254  19.264   6.966  13.034
41655W        W12255  29.649  22.243  13.858
41656W        W12256  27.460  26.550  14.922
41657W        W12257  34.615  39.352  12.585
41658W        W12258  14.734  27.782  12.971
41659W        W12259  25.072  10.689   2.983
41660W        W12260  11.710  15.323  14.987
41661W        W12261   1.219  23.149   3.205
41662W        W12262  31.134  34.789  11.152
41663W        W12263  21.739  39.054   3.195
41664W        W12264  35.114  11.506   4.949
41665W        W12265  36.225  43.965  11.554
41666W        W12266  13.126  39.070   1.250
41667W        W12267   4.768  44.497   0.989
41668W        W12268   6.184  21.065   5.010
41669W        W12269  40.925  33.942   1.646
41670W        W12270  12.976  41.345   2.334
41671W        W12271  28.010  33.880  14.882
41672W        W12272  26.552  14.531  11.176
41673W        W12273  17.435  18.915   5.194
41674W        W12274  27.210  26.406  13.404
41675W        W12275  28.051  28.721  10.593
41676W        W12276   6.582  17.148  14.964
41677W        W12277   3.710  44.432  13.942
41678W        W12278  40.743  10.084  14.202
41679W        W12279   2.776   1.776   3.749
41680W        W12280   6.217  13.232  13.204
41681W        W12281  27.976  36.068  13.573
41682W        W12282   6.762  28.904   2.326
41683W        W12283  33.572  43.201  13.252
41684W        W12284  30.429  34.052  12.038
41685W        W12285  38.211  23.062   4.184
41686W        W12286   6.346  12.768  13.031
41687W        W12287   4.770  43.377  13.976
41688W        W12288  20.143  21.738  12.483
41689W        W12289  34.317  43.844  13.710
41690W        W12290  41.260   7.301   3.557
41691W        W12291  29.033  19.662   0.866
41692W        W12292  29.139  30.104   2.219
41693W        W12293  27.208  28.054   3.157
41694W        W12294  15.399  29.132   1.030
41695W        W12295  22.174  19.635  11.086
41696W        W12296  38.097   0.876   4.054
41697W        W12297  44.414   5.163   0.438
41698W        W12298  21.799  19.755  11.441
41699W        W12299  38.722  22.301   1.442
41700W        W12300  21.575  17.604  14.127
41701W        W12301  25.712  33.953  10.776
41702W        W12302  11.410  43.804  12.601
41703W        W12303   5.312  34.599  12.551
41704W        W12304  41.320  36.325   3.300
41705W        W12305  32.477  32.312  11.981
41706W        W12306  26.193  17.176   4.114
41707W        W12307  13.354  37.637   0.017
41708W        W12308  21.050  42.842   1.808
41709W        W12309   8.203  19.275   2.802
41710W        W12310  17.595  44.448   1.295
41711W        W12311  12.186  34.032   3.792
41712W        W12312  29.525   5.871   2.566
41713W        W12313  40.426   4.925  12.697
41714W        W12314  10.498  37.910  14.852
41715W        W12315  13.899  38.426  12.380
41716W        W12316  21.087  29.190  13.383
41717W        W12317  41.038  29.454  13.928
41718W        W12318  13.653  18.802   4.506
41719W        W12319  34.647  18.143  12.000
41720W        W12320  36.511  41.799  11.164
41721W        W12321   4.204  12.700  11.822
41722W        W12322   2.713  35.916  14.637
41723W        W12323  33.652   2.984  12.020
41724W        W12324  21.763   1.884  13.015
41725W        W12325   3.494  16.056   2.704
41726W        W12326  43.471  39.359   1.983
41727W        W12327  30.591  43.890  13.131
41728W        W12328  15.650   2.434   1.717
41729W        W12329  36.587   7.231  10.669
41730W        W12330  13.724  13.238   2.680
41731W        W12331  29.522  20.345  14.962
41732W        W12332  28.854   4.419  10.943
41733W        W12333  14.670  33.973   1.315
41734W        W12334  23.503  31.587  12.481
41735W        W12335   9.099   9.377   1.462
41736W        W12336   3.858  15.644  11.593
41737W        W12337  11.195  19.030   4.595
41738W        W12338   9.832   5.543   1.479
41739W        W12339  41.825  28.738  12.543
41740W        W12340   6.184  40.096   3.727
41741W        W12341  14.554  23.021  11.645
41742W        W12342  24.619   9.587   3.263
41743W        W12343  44.217   7.305  13.468
41744W        W12344  16.340  22.154  12.048
41745W        W12345   1.907  26.686   0.605
41746W        W12346  14.247   7.808  12.987
41747W        W12347  32.907  36.293   3.974
41748W        W12348  11.672  27.202   1.374
41749W        W12349  41.967  29.601   4.115
41750W        W12350  21.255  31.564   1.735
41751W        W12351   6.342  42.091   0.896
41752W        W12352  14.962   7.739  12.018
41753W        W12353  18.149  14.802   3.282
41754W        W12354  44.492  22.990   3.043
41755W        W12355  27.889  29.623  14.831
41756W        W12356  30.575   5.920   2.194
41757W        W12357  19.821  35.646  12.499
41758W        W12358  18.647  28.001   3.038
41759W        W12359  32.006  34.528   4.727
41760W        W12360  26.145  40.438  13.120
41761W        W12361  25.593  25.981  11.075
41762W        W12362   4.472  23.506   3.204
41763W        W12363  19.744  42.934  10.416
41764W        W12364  32.813   3.368  10.644
41765W        W12365  12.109  24.082   1.017
41766W        W12366  19.125  18.825  14.283
41767W        W12367  11.615  19.505   1.986
41768W        W12368  39.550   7.677   3.984
41769W        W12369  28.982  15.256   0.906
41770W        W12370  19.223  10.956   3.346
41771W        W12371  17.780   7.320  11.921
41772W        W12372  35.396  40.742  12.285
41773W        W12373   3.733  17.799  13.650
41774W        W12374  42.722  39.902   3.315
41775W        W12375  36.856  38.129  14.267
41776W        W12376  34.070  36.170   0.492
41777W        W12377  18.632   4.396  11.861
41778W        W12378  43.608  44.393   3.665
41779W        W12379  35.212  40.955   0.301
41780W        W12380   6.439   2.070  11.130
41781W        W12381  27.633  17.216   1.937
41782W        W12382   2.869   2.237   1.700
41783W        W12383  32.021   5.611  12.977
41784W        W12384  30.969   7.868  11.644
41785W        W12385  26.444  34.672   4.906
41786W        W12386  40.277  12.113  14.492
41787W        W12387  17.984   6.633   0.797
41788W        W12388  36.989  16.632  14.771
41789W        W12389   4.849  10.416  14.788
41790W        W12390   7.928  32.440   1.633
41791W        W12391   4.919   2.676   0.916
41792W        W12392  43.310  44.943  11.956
41793W        W12393  43.895  43.002   1.240
41794W        W12394  27.233   8.337   2.400
41795W        W12395  11.226  25.135   3.455
41796W        W12396  26.126   4.978  10.820
41797W        W12397  32.589  42.497   3.313
41798W        W12398  18.229  20.605   0.747
41799W        W12399  31.973  22.111  13.446
41800W        W12400   3.912  17.547  14.742
41801W        W12401  36.291   5.312   2.198
41802W        W12402  36.926  34.513   0.974
41803W        W12403  29.598  37.957   0.337
41804W        W12404  40.636  37.040   3.729
41805W        W12405  29.156  43.038   2.254
41806W        W12406  35.518   7.761   4.146
41807W        W12407   3.216  18.694   2.624
41808W        W12408  25.918  18.326   2.816
41809W        W12409   0.704  26.511  12.509
41810W        W12410  44.515  38.249   1.000
41811W        W12411   8.170  18.067   1.401
41812W        W12412  34.275  10.368  10.586
41813W        W12413  27.182  42.909   2.245
41814W        W12414  13.718  35.692   0.825
41815W        W12415  18.262  36.556   1.219
41816W        W12416  18.723  24.536   3.308
41817W        W12417  34.986  33.438  14.841
41818W        W12418  14.295  22.567  11.627
41819W        W12419  12.175  16.812   3.266
41820W        W12420  26.803  35.122  13.870
41821W        W12421  28.634  20.123  10.561
41822W        W12422   5.815  40.461  13.934
41823W        W12423  44.887  40.764  12.647
41824W        W12424   7.107  38.461   0.290
41825W        W12425  33.398  33.355   1.901
41826W        W12426  32.233  22.973  10.593
41827W        W12427  13.036   8.903   0.809
41828W        W12428  41.326  30.417   2.935
41829W        W12429   7.490  10.419  12.594
41830W        W12430  15.081  22.030  14.367
41831W        W12431  42.369  24.103  12.126
41832W        W12432  38.515   7.416   4.169
41833W        W12433   0.357  26.692  10.525
41834W        W12434   4.093  41.950   0.285
41835W        W12435   3.877  30.452   2.458
41836W        W12436   1.996  28.447   2.350
41837W        W12437  23.181  29.603  13.106
41838W        W12438   1.008  33.910  12.328
41839W        W12439  12.432  30.105  11.012
41840W        W12440  11.448   7.023  11.155
41841W        W12441  44.498  29.117   4.084
41842W        W12442  38.466  24.390  13.888
41843W        W12443  44.938  15.274   1.808
41844W        W12444   7.148   3.941  12.536
41845W        W12445  20.157  37.815  12.924
41846W        W12446   4.927  28.260   4.084
41847W        W12447  33.605  15.144   3.091
41848W        W12448  24.442  18.264  14.321
41849W        W12449  29.806  44.449  13.581
41850W        W12450  38.910  20.571  10.888
41851W        W12451  14.976  23.290   3.180
41852W        W12452  28.581  30.050   0.393
41853W        W12453  28.502  22.106   0.205
41854W        W12454  40.831  29.487  13.455
41855W        W12455  26.515  12.238  10.678
41856W        W12456  19.666  38.111  13.328
41857W        W12457  17.480  28.969   1.605
41858W        W12458  29.132  19.524  14.834
41859W        W12459  29.592  32.658  13.082
41860W        W12460  22.933  24.589  14.506
41861W        W12461  30.359  42.964   5.059
41862W        W12462   2.627  27.361  11.909
41863W        W12463  42.009  42.498   3.503
41864W        W12464   8.141  24.735  12.894
41865W        W12465  32.999  18.418  11.050
41866W        W12466  42.959  37.082  13.590
41867W        W12467  30.716  34.265   1.341
41868W        W12468  44.218   9.350   2.869
41869W        W12469  22.595  39.463  10.980
41870W        W12470  29.980   5.357  10.857
41871W        W12471  18.326   3.253   2.864
41872W        W12472  33.688   2.361  11.734
41873W        W12473   7.794  40.444   0.279
41874W        W12474  32.955  41.004   1.786
41875W        W12475  20.160  24.530  13.368
41876W        W12476  36.529  34.577   1.992
41877W        W12477  40.558   6.280  14.214
41878W        W12478   5.840  11.282   4.066
41879W        W12479  22.998   6.263   3.912
41880W        W12480  26.590   6.221   5.068
41881W        W12481  42.783  41.907  11.527
41882W        W12482  37.126  33.888  10.560
41883W        W12483  30.055  41.452   3.240
41884W        W12484  21.634   5.894   0.949
41885W        W12485   8.309   2.983   2.186
41886W        W12486  37.422   3.465   2.245
41887W        W12487   0.780  41.339   4.080
41888W        W12488  31.353  21.978   3.763
41889W        W12489   4.774  30.680  12.853
41890W        W12490   3.413  15.688  10.563
41891W        W12491  25.608   6.421   0.928
41892W        W12492  28.154  33.407   2.880
41893W        W12493  44.904  25.222  12.639
41894W        W12494  26.245  33.316  14.056
41895W        W12495  41.809  13.617   0.902
41896W        W12496  41.620  30.924  12.052
41897W        W12497  24.231  31.411  11.210
41898W        W12498  20.296  13.868  11.606
41899W        W12499   5.554  37.823   1.683
41900W        W12500  42.371  44.020  10.935
41901W        W12501  13.884  10.197  10.450
41902W        W12502  24.903   9.723  11.057
41903W        W12503  38.842   3.712   1.497
41904W        W12504  15.198  21.286   3.835
41905W        W12505   5.329  39.440   1.389
41906W        W12506  44.350  21.212  13.597
41907W        W12507   2.871  36.631  13.097
41908W        W12508  23.809  28.076  13.470
41909W        W12509  24.946  22.564  13.856
41910W        W12510  31.330  26.914   2.347
41911W        W12511   7.457  40.954  14.276
41912W        W12512  23.682  39.919  13.927
41913W        W12513   6.278  20.348  11.686
41914W        W12514  23.881  35.490   1.680
41915W        W12515  12.382  10.308  13.137
41916W        W12516   9.631   0.482  14.386
41917W        W12517   0.905  14.350  11.016
41918W        W12518  28.731  13.625   1.236
41919W        W12519  24.003   8.257   4.049
41920W        W12520  25.159  17.210  10.392
41921W        W12521  21.244  11.965   3.113
41922W        W12522  23.659  36.001  14.669
41923W        W12523  16.118   5.271  13.565
41924W        W12524   5.619  34.337  12.897
41925W        W12525   1.396  37.539  10.991
41926W        W12526   8.393  31.487   4.082
41927W        W12527   8.343   2.140   4.475
41928W        W12528   7.414   1.021   1.441
41929W        W12529   9.193  32.412   2.866
41930W        W12530  42.967   6.721  12.855
41931W        W12531  37.679   5.800   4.717
41932W        W12532  10.088  10.587  14.463
41933W        W12533  11.616  36.012  14.867
41934W        W12534  20.721  10.938   2.834
41935W        W12535   7.117  19.485   2.173
41936W        W12536   4.445  34.125   0.355
41937W        W12537   7.651  26.045   0.930
41938W        W12538   4.694  17.522   4.342
41939W        W12539  43.985   8.072   2.297
41940W        W12540  42.757  43.441  13.040
41941W        W12541  40.293  23.621  13.440
41942W        W12542   2.247  39.816  10.797
41943W        W12543  33.346   4.690   1.859
41944W        W12544   8.075   8.893   2.177
41945W        W12545   7.321  17.567  13.091
41946W        W12546   4.047  26.694   1.721
41947W        W12547  19.501  27.941  13.807
41948W        W12548  18.827   8.726   4.226
41949W        W12549   6.268   8.972  14.519
41950W        W12550  13.642  41.726   1.747
41951W        W12551   5.076  12.074  12.581
41952W        W12552   6.677  31.991   1.702
41953W        W12553   9.774  23.015   0.848
41954W        W12554  10.853  24.992  14.396
41955W        W12555  19.726   6.778  13.940
41956W        W12556   1.949   0.357  14.306
41957W        W12557   8.004  44.280  11.555
41958W        W12558  28.357  14.629  12.559
41959W        W12559  27.026  36.994   3.220
41960W        W12560   9.924  19.753   0.500
41961W        W12561  14.644  24.063  13.909
41962W        W12562  36.764  41.885   2.752
41963W        W12563  30.674  42.398   1.822
41964W        W12564  44.971  39.280  10.991
41965W        W12565  24.941  25.451   0.877
41966W        W12566  39.469  16.825   0.789
41967W        W12567  28.248  18.088  14.698
41968W        W12568  13.930  37.929  11.999
41969W        W12569  40.577  20.268  14.605
41970W        W12570  23.492  11.069  11.126
41971W        W12571  42.909  28.050   2.919
41972W        W12572  36.408  10.587  13.456
41973W        W12573  14.356  26.240   0.446
41974W        W12574  32.692  39.986  12.006
41975W        W12575  10.145  36.882   4.168
41976W        W12576   7.367  13.176   3.704
41977W        W12577   6.477  34.330   3.118
41978W        W12578  32.912  19.083  11.629
41979W        W12579  23.644  31.880  14.896
41980W        W12580  44.844  11.845   2.706
41981W        W12581  28.668  31.390   1.759
41982W        W12582  16.146   5.284  10.575
41983W        W12583  18.686  13.942  13.545
41984W        W12584  12.195   3.258  10.378
41985W        W12585  38.120  26.955   1.465
41986W        W12586  19.609  36.539  14.846
41987W        W12587  37.840  37.811   2.382
41988W        W12588  13.900  44.255   2.407
41989W        W12589  33.523   4.813  11.488
41990W        W12590   6.228   0.652   4.196
41991W        W12591  35.570  28.619  13.914
41992W        W12592  33.011  34.989  12.968
41993W        W12593  39.880   2.144  14.377
41994W        W12594  12.805  16.387   0.820
41995W        W12595   4.999  19.323   1.471
41996W        W12596  13.238   5.763   1.487
41997W        W12597  18.923  22.670   3.630
41998W        W12598   3.319  41.566   4.382
41999W        W12599   3.493  15.266  13.379
42000W        W12600  32.453   7.846  10.712
42001W        W12601  16.800  31.548   2.804
42002W        W12602  10.804  44.064   1.805
42003W        W12603  34.894   1.453  10.635
42004W        W12604  10.635  11.727  14.513
42005W        W12605  44.754  26.959  11.570
42006W        W12606   1.832  19.506  11.676
42007W        W12607  20.735  20.641   1.732
42008W        W12608  43.944  11.736  11.695
42009W        W12609  31.452  35.040  11.988
42010W        W12610  44.700  39.989   3.533
42011W        W12611  16.706  43.372   2.848
42012W        W12612  15.031  30.071  14.840
42013W        W12613  13.220   7.681  13.147
42014W        W12614  11.231  31.173   0.079
42015W        W12615  43.323  33.446  12.666
42016W        W12616  18.347   6.330   3.705
42017W        W12617   9.442  31.617   2.248
42018W        W12618  43.720  23.117   2.608
42019W        W12619  38.646  31.184  13.601
42020W        W12620   7.517  17.974   0.327
42021W        W12621  16.153  38.589  11.606
42022W        W12622  42.045  16.109   0.717
42023W        W12623  23.722  11.125  12.885
42024W        W12624  19.289  42.694  10.487
42025W        W12625   0.913   5.425  14.350
42026W        W12626  34.435   9.616   1.421
42027W        W12627  42.897   8.920   1.400
42028W        W12628  27.483  39.312  12.007
42029W        W12629   4.368  16.708  10.415
42030W        W12630  27.722  33.270  11.431
42031W        W12631  14.092  26.535   4.003
42032W        W12632  32.844   4.377  14.989
42033W        W12633  20.790  12.366  12.183
42034W        W12634  23.689  42.314  10.728
42035W        W12635  18.867  11.405   3.395
42036W        W12636  34.143  11.920  12.663
42037W        W12637  30.673  18.309   4.401
42038W        W12638   7.279  26.936  12.080
42039W        W12639  43.434  22.300  13.298
42040W        W12640  24.224  24.137   4.144
42041W        W12641  21.640  15.368   4.289
42042W        W12642  39.635  29.527  14.910
42043W        W12643   5.502  28.083   4.741
42044W        W12644  44.507  18.947   2.542
42045W        W12645  23.725  23.594   2.178
42046W        W12646   5.816  20.715   2.893
42047W        W12647  27.427  29.208   3.934
42048W        W12648  34.807  12.321  12.129
42049W        W12649  36.595  42.441  12.498
42050W        W12650  29.930  12.884  13.244
42051W        W12651  15.403   0.475   4.149
42052W        W12652  29.634  11.638  12.996
42053W        W12653  22.885  36.676   3.195
42054W        W12654   2.205  18.624   3.447
42055W        W12655  41.163  43.559   3.977
42056W        W12656  34.474  26.079  13.853
42057W        W12657  31.004  10.368  11.484
42058W        W12658  35.892  16.677   2.731
42059W        W12659  33.064   1.952   3.646
42060W        W12660  22.241  34.123  11.689
42061W        W12661  25.552  20.540   3.264
42062W        W12662  34.663   9.930   2.853
42063W        W12663   5.856  13.451  13.476
42064W        W12664  29.654   9.923  12.952
42065W        W12665  27.157  42.047   4.948
42066W        W12666   8.837  33.049  14.587
42067W        W12667  28.996  32.039   2.406
42068W        W12668  35.854  39.136   4.345
42069W        W12669   6.850  26.089  12.898
42070W        W12670   3.964  36.444  14.676
42071W        W12671  40.480  31.381   3.314
42072W        W12672  21.921  34.262   3.735
42073W        W12673  10.854  11.447   2.342
42074W        W12674  23.818  18.205  12.862
42075W        W12675   2.767  43.089  11.124
42076W        W12676  40.066   5.408  14.964
42077W        W12677   9.114  11.796  11.953
42078W        W12678  31.623   7.369   1.353
42079W        W12679  27.126  34.423   4.988
42080W        W12680  35.425  32.480   2.846
42081W        W12681  27.898   6.362  13.764
42082W        W12682  18.144  38.596   2.798
42083W        W12683  36.279  35.504   1.796
42084W        W12684  40.275  11.280   3.333
42085W        W12685  26.139  30.518   2.321
42086W        W12686  22.244  12.638  14.818
42087W        W12687  39.464  20.317  14.193
42088W        W12688  10.273  27.265  13.062
42089W        W12689  30.028  26.167   3.182
42090W        W12690   5.887   8.907  14.851
42091W        W12691  35.962  37.082  11.480
42092W        W12692  14.514   7.110   4.980
42093W        W12693  15.308  39.425  12.081
42094W        W12694  43.742  17.876  13.560
42095W        W12695  23.409   1.481   9.844
42096W        W12696  23.490   1.207  12.361
42097W        W12697  22.024  18.487   3.967
42098W        W12698  40.449  35.427  14.183
42099W        W12699  12.789  31.470  12.600
42100W        W12700  38.445   9.171   3.932
42101W        W12701  43.850   6.964   3.556
42102W        W12702  31.534   7.617  12.410
42103W        W12703   3.907  18.881   0.465
42104W        W12704  43.984  38.953   2.350
42105W        W12705  28.071  25.725   0.005
42106W        W12706  17.532   2.580   3.804
42107W        W12707  25.199  26.095   4.570
42108W        W12708  21.491   2.681   4.772
42109W        W12709  13.361  34.035  11.425
42110W        W12710  37.517  22.550  10.585
42111W        W12711  39.166  10.134   3.681
42112W        W12712  22.371  39.011  12.695
42113W        W12713  26.984   1.418  11.124
42114W        W12714  37.863  34.902  12.344
42115W        W12715   9.677  12.735  14.576
42116W        W12716  15.384  23.764  10.674
42117W        W12717  44.207  34.033   3.500
42118W        W12718  34.883  33.800  10.277
42119W        W12719  22.446   4.198  13.346
42120W        W12720   8.469   2.368  12.116
42121W        W12721  35.101  38.850   0.300
42122W        W12722  36.476  17.513  13.168
42123W        W12723  20.710  41.729  13.409
42124W        W12724  12.269  26.543  14.500
42125W        W12725   6.336  34.287   9.723
42126W        W12726   0.373  25.537   4.522
42127W        W12727  36.702   8.289   1.216
42128W        W12728  16.817  40.580   4.285
42129W        W12729  30.379  36.388   0.933
42130W        W12730  22.076  41.308   2.397
42131W        W12731  18.136  33.345  11.197
42132W        W12732  19.233  14.179  12.378
42133W        W12733   4.012  28.018   2.395
42134W        W12734  30.462  33.149  13.034
42135W        W12735  34.884  41.331   2.631
42136W        W12736  16.422  39.597   3.715
42137W        W12737  22.917  41.282  13.939
42138W        W12738   7.625  29.601  13.501
42139W        W12739  24.040  14.306   4.117
42140W        W12740   8.761  18.064  10.405
42141W        W12741   0.650   3.504  10.746
42142W        W12742   2.485  22.967   1.923
42143W        W12743  34.887   2.212  13.635
42144W        W12744  10.777  14.731   3.916
42145W        W12745  39.229  29.116  10.713
42146W        W12746   6.448  23.116  13.921
42147W        W12747  41.029  26.216  13.322
42148W        W12748   0.039  40.652  14.456
42149W        W12749   9.125  26.825  12.131
42150W        W12750  13.189  13.462  10.563
42151W        W12751   4.385  18.342  14.972
42152W        W12752   5.027  13.182  14.414
42153W        W12753  42.255  15.680   0.022
42154W        W12754  12.710  30.403   1.070
42155W        W12755  10.648  23.196   2.810
42156W        W12756  15.872   2.391  10.775
42157W        W12757  42.057   6.471  12.096
42158W        W12758   7.634  12.728   1.608
42159W        W12759  27.602  40.973   3.345
42160W        W12760  10.690   4.658  14.250
42161W        W12761  11.614  25.255  11.258
42162W        W12762  33.916  32.425   3.632
42163W        W12763  43.118  20.737   3.764
42164W        W12764   2.908  33.739   1.891
42165W        W12765  36.970  34.493   3.952
42166W        W12766  31.569  25.301  11.715
42167W        W12767  28.639  41.118   3.153
42168W        W12768  44.706  15.110   2.312
42169W        W12769  24.166   5.162   4.963
42170W        W12770  11.633  30.405   3.597
42171W        W12771  31.599  13.303   3.276
42172W        W12772  42.345  44.031   0.315
42173W        W12773  25.580   4.248  11.666
42174W        W12774  41.684  15.233  11.077
42175W        W12775  36.070  11.323   4.764
42176W        W12776  32.051  37.247  12.350
42177W        W12777  12.865  41.378   1.418
42178W        W12778  13.269   9.362  11.133
42179W        W12779  22.210   8.887  10.752
42180W        W12780   7.244  38.885  11.679
42181W        W12781  17.193   2.461   3.438
42182W        W12782   9.561  31.565   2.774
42183W        W12783   6.963   5.385   1.352
42184W        W12784  20.549  24.391   0.048
42185W        W12785   0.793  39.000   4.546
42186W        W12786  41.724  40.927   1.852
42187W        W12787  17.128  18.121   4.669
42188W        W12788  37.141  27.506  12.230
42189W        W12789  29.111   3.876   4.605
42190W        W12790  12.117  26.122   1.811
42191W        W12791  35.156  26.830   2.474
42192W        W12792  11.747   9.797   2.245
42193W        W12793  38.392  21.718  10.728
42194W        W12794  27.430   7.114  13.612
42195W        W12795  44.551  14.394   0.745
42196W        W12796  42.843  37.649  11.471
42197W        W12797  40.397  16.505  12.275
42198W        W12798  38.818  10.366   1.245
42199W        W12799   0.309  14.805   0.955
42200W        W12800  11.521  40.391   2.218
42201W        W12801  40.775  22.025   3.252
42202W        W12802  42.069  31.497  13.519
42203W        W12803  38.844   1.042   2.231
42204W        W12804  38.802  25.106  12.141
42205W        W12805  40.967  20.842  13.402
42206W        W12806  10.833   3.918  12.402
42207W        W12807  16.981  25.728  12.819
42208W        W12808  29.251  40.897   2.275
42209W        W12809  42.289  37.078   4.654
42210W        W12810   5.178  13.831  14.060
42211W        W12811   1.841  34.859   0.251
42212W        W12812  25.957   5.313  13.854
42213W        W12813   7.962  20.112   3.288
42214W        W12814  37.401  27.058  14.521
42215W        W12815  31.456   4.733  10.663
42216W        W12816  10.265   2.024  13.980
42217W        W12817  19.663   6.366  11.894
42218W        W12818   1.320  36.834   4.754
42219W        W12819  11.660  22.172   3.715
42220W        W12820   1.947   9.430   2.245
42221W        W12821  34.337  25.195   1.297
42222W        W12822   7.760  43.769  11.583
42223W        W12823  30.210  22.736  12.241
42224W        W12824  41.552  38.219  11.487
42225W        W12825   1.477  43.080   1.971
42226W        W12826  14.433  23.453   3.314
42227W        W12827  37.142  43.815   0.496
42228W        W12828  23.226  16.406  14.971
42229W        W12829  33.749  36.349  14.787
42230W        W12830  17.559  39.657   2.907
42231W        W12831  26.689  23.919   2.427
42232W        W12832   3.055  19.806  10.579
42233W        W12833  15.492  44.302   2.863
42234W        W12834  40.935   4.300  13.239
42235W        W12835  31.635  15.820   1.741
42236W        W12836  42.211  12.827   0.794
42237W        W12837  12.754  13.782   3.549
42238W        W12838  25.912  37.079  10.607
42239W        W12839   6.939  42.949  11.603
42240W        W12840  10.302  42.936   0.251
42241W        W12841  39.939  42.529   2.466
42242W        W12842   4.326   1.497  11.229
42243W        W12843   0.221  30.584  13.577
42244W        W12844  31.040   6.296   4.622
42245W        W12845  32.388  24.614   0.910
42246W        W12846  16.056   3.754   4.604
42247W        W12847  16.057  14.361  14.505
42248W        W12848  20.460   2.054  12.528
42249W        W12849   7.819  17.578   4.267
42250W        W12850  30.540  33.150  14.966
42251W        W12851  28.912   3.259  12.789
42252W        W12852  32.261  18.669   3.609
42253W        W12853  44.301  11.318  12.339
42254W        W12854  16.877  37.533  14.181
42255W        W12855   3.294  37.490   0.762
42256W        W12856  28.451  21.700  11.122
42257W        W12857  44.698  37.286   0.972
42258W        W12858  16.813  31.723  14.377
42259W        W12859   4.691   2.540   2.339
42260W        W12860  25.997  12.539  14.662
42261W        W12861   4.462  12.003   4.160
42262W        W12862  29.700   8.800   2.349
42263W        W12863  36.546   0.426  14.231
42264W        W12864  36.376   7.639  10.939
42265W        W12865   5.661  27.904  13.409
42266W        W12866  18.534  34.825  14.797
42267W        W12867  32.768   9.934  13.536
42268W        W12868  16.630  18.927   3.673
42269W        W12869  12.179  21.829  12.456
42270W        W12870  22.624  37.922  14.886
42271W        W12871   5.861  10.117  14.355
42272W        W12872  10.699  11.134  13.895
42273W        W12873  32.673  18.676  12.192
42274W        W12874  29.361   9.425   2.357
42275W        W12875  14.174  40.753   0.335
42276W        W12876   5.750  19.721  11.785
42277W        W12877  28.397  29.396  12.089
42278W        W12878  31.765  24.656   3.304
42279W        W12879  37.529  39.849  10.681
42280W        W12880   0.999  24.212   2.851
42281W        W12881  29.164   4.997  10.159
42282W        W12882  31.318  32.513   0.264
42283W        W12883  37.139  39.741  11.029
42284W        W12884  36.077   1.782  14.230
42285W        W12885  17.467  12.901   1.814
42286W        W12886  15.635  42.726  12.943
42287W        W12887  23.941  12.791   2.111
42288W        W12888  27.218  20.045   3.785
42289W        W12889  34.242   7.383  11.240
42290W        W12890  13.252  31.466  12.880
42291W        W12891  12.353  31.682  13.477
42292W        W12892  31.302  31.548   2.667
42293W        W12893   9.914  19.275   3.407
42294W        W12894  37.635  26.101   0.208
42295W        W12895  30.856  37.566  10.853
42296W        W12896  36.800  26.001   3.093
42297W        W12897   4.186  13.649  13.067
42298W        W12898   9.358  40.959   1.658
42299W        W12899  35.389  30.952  13.789
42300W        W12900  23.117  36.570  10.715
42301W        W12901  26.222  14.820  12.449
42302W        W12902  25.172   2.865  10.794
42303W        W12903   4.913  36.676  13.246
42304W        W12904  43.170  26.270   4.231
42305W        W12905  10.202  20.952   2.847
42306W        W12906   5.294  27.949   3.756
42307W        W12907  22.534  31.649   3.770
42308W        W12908  23.741  15.173  11.111
42309W        W12909   1.826  39.721  10.516
42310W        W12910   8.755   8.964  11.573
42311W        W12911   7.909   5.849   2.263
42312W        W12912   5.833  38.968   0.007
42313W        W12913  39.628  10.990  14.958
42314W        W12914  20.494  33.159  14.268
42315W        W12915   7.904  24.554  13.453
42316W        W12916  11.314  18.146  10.709
42317W        W12917  40.501   2.859   2.776
42318W        W12918  40.087  35.918   1.658
42319W        W12919   9.989  42.265   4.049
42320W        W12920  22.669  15.873   0.461
42321W        W12921  12.423  35.989   5.008
42322W        W12922   9.887  33.103   0.932
42323W        W12923  32.726  40.328   4.143
42324W        W12924  22.099  13.558   0.849
42325W        W12925   5.751  28.522   2.259
42326W        W12926  29.735  36.476   4.446
42327W        W12927  38.351   0.926   3.599
42328W        W12928   7.869  39.623   1.894
42329W        W12929  33.390  41.097  14.806
42330W        W12930  35.998  34.573   1.248
42331W        W12931  21.028   2.308   0.966
42332W        W12932  15.639  20.733  13.071
42333W        W12933  37.082   9.052  11.959
42334W        W12934  25.553  41.376  11.588
42335W        W12935   0.345  18.307  10.684
42336W        W12936  44.790   4.520   3.158
42337W        W12937  38.591   2.223  14.106
42338W        W12938  12.593   0.223  11.126
42339W        W12939  34.102   7.283   1.442
42340W        W12940  34.549  32.336   2.344
42341W        W12941  43.550  10.288  14.134
42342W        W12942  38.799  20.771  14.474
42343W        W12943  34.866  34.904  12.826
42344W        W12944  36.299   8.638   3.436
42345W        W12945  29.638  18.863   2.707
42346W        W12946  33.109  24.070  14.960
42347W        W12947  43.123  17.652   4.143
42348W        W12948  40.260  41.021   3.636
42349W        W12949  13.792   2.727   4.707
42350W        W12950   9.748  35.636   4.140
42351W        W12951  24.245  16.337   4.124
42352W        W12952   4.506  41.259   0.872
42353W        W12953  20.150   0.855   0.103
42354W        W12954  27.238   6.656  12.176
42355W        W12955  12.713  26.415   1.193
42356W        W12956  15.768  11.543  10.884
42357W        W12957  14.801  24.637   2.209
42358W        W12958  39.144  19.424  11.535
42359W        W12959   8.684   6.800  13.354
42360W        W12960  28.463  44.497  13.074
42361W        W12961  25.700  40.852  10.689
42362W        W12962  13.064  11.291   3.892
42363W        W12963  21.739  15.660  14.536
42364W        W12964  32.186  17.023   4.549
42365W        W12965  27.591  31.659   3.157
42366W        W12966  34.613   2.378   2.318
42367W        W12967  40.200  37.506   5.205
42368W        W12968  26.671   2.750  13.399
42369W        W12969   7.899  17.992  10.942
42370W        W12970  25.031   3.202  12.086
42371W        W12971  10.659   2.059   3.866
42372W        W12972   0.835   3.287  10.318
42373W        W12973  34.429  36.515  10.731
42374W        W12974  17.534  39.486   2.378
42375W        W12975  18.628  26.210   2.879
42376W        W12976  25.280  28.636   4.129
42377W        W12977  28.811   5.435   3.025
42378W        W12978  26.223  18.673   1.264
42379W        W12979  11.548  15.528   2.275
42380W        W12980  43.043  28.026   2.397
42381W        W12981  10.659   8.438  11.843
42382W        W12982  22.256  11.880  11.138
42383W        W12983  28.116  38.095  13.432
42384W        W12984  38.864   9.213   3.125
42385W        W12985  41.406   9.330   1.285
42386W        W12986  27.619  25.583   2.410
42387W        W12987  17.843  31.480  10.611
42388W        W12988   7.683  14.744   3.746
42389W        W12989  44.111  40.794  14.228
42390W        W12990  39.037  21.785  12.144
42391W        W12991   5.404  43.411  11.564
42392W        W12992  29.816  26.954  13.978
42393W        W12993   4.170  27.049  13.362
42394W        W12994   5.444  16.585   2.474
42395W        W12995  24.714   0.188   1.831
42396W        W12996  30.307   1.734   3.431
42397W        W12997  34.121  40.567  12.447
42398W        W12998  37.093   2.214   3.337
42399W        W12999  44.744  19.584   2.827
42400W        W13000  18.656  20.116   1.675
42401W        W13001   0.364   7.280  14.870
42402W        W13002  26.376  37.911  10.718
42403W        W13003  38.748  33.764  10.387
42404W        W13004   1.678  16.827   1.676
42405W        W13005  41.456  31.566   2.951
42406W        W13006   3.943  35.554   1.174
42407W        W13007  24.679  15.835  10.552
42408W        W13008  28.583  31.705  11.172
42409W        W13009   2.243  23.154   3.264
42410W        W13010  41.206  22.151   1.268
42411W        W13011  10.169  10.233  14.861
42412W        W13012  12.628  23.401  13.000
42413W        W13013  26.962  17.632   4.923
42414W        W13014  38.942  28.219   0.741
42415W        W13015  14.473  41.851  11.685
42416W        W13016  22.690  29.615  10.626
42417W        W13017   8.371  39.583  14.368
42418W        W13018  28.153  44.008   4.455
42419W        W13019  11.362  13.275   3.271
42420W        W13020  11.406  16.802   4.967
42421W        W13021  43.422   7.700   0.097
42422W        W13022  26.725  31.933  11.145
42423W        W13023   1.931  43.947   2.143
42424W        W13024  19.995  18.320  12.474
42425W        W13025   7.149  19.325  11.694
42426W        W13026  24.556   3.709   2.918
42427W        W13027   3.317  35.354  14.764
42428W        W13028  16.274  14.870  13.929
42429W        W13029  13.574  18.734   2.210
42430W        W13030  36.859  25.069   4.161
42431W        W13031  33.876   2.296  13.079
42432W        W13032  15.049   1.368   2.266
42433W        W13033  16.966  20.977   3.215
42434W        W13034  27.020  35.316  11.059
42435W        W13035  17.035   3.228   2.326
42436W        W13036  13.007  34.580   2.659
42437W        W13037  11.190  30.424   4.089
42438W        W13038  24.226  35.613  14.236
42439W        W13039  27.201  37.976   3.131
42440W        W13040  42.101   7.428   3.836
42441W        W13041  21.992   8.392  14.277
42442W        W13042   7.175  41.908  12.407
42443W        W13043  30.554  12.918   2.154
42444W        W13044  14.888  30.546   4.060
42445W        W13045  36.910  36.600   2.365
42446W        W13046  28.175  23.691   3.005
42447W        W13047  24.627  44.951   0.340
42448W        W13048  38.112   7.937   3.142
42449W        W13049  43.929  25.547  14.322
42450W        W13050  43.456   8.910  14.483
42451W        W13051  22.585   9.258  14.546
42452W        W13052   4.712   6.914   3.632
42453W        W13053  13.465   8.990   3.299
42454W        W13054  18.536  43.554   0.845
42455W        W13055   1.480  25.038   0.346
42456W        W13056   2.567   0.746  12.887
42457W        W13057   2.579  42.990  12.046
42458W        W13058  33.809  27.196   0.780
42459W        W13059  24.141   7.699   4.597
42460W        W13060   9.863   9.252  12.043
42461W        W13061  16.626  13.888  14.887
42462W        W13062  39.884  30.667  12.776
42463W        W13063  20.669   4.214  13.348
42464W        W13064  29.662   4.436   2.625
42465W        W13065  12.188   1.314   1.535
42466W        W13066  11.932  39.500  14.974
42467W        W13067  26.003  33.978  14.038
42468W        W13068  25.485  31.147   0.270
42469W        W13069  42.865  20.576   2.771
42470W        W13070   0.807   7.715   1.634
42471W        W13071  28.508  41.743  13.932
42472W        W13072   4.935   4.326   4.311
42473W        W13073  13.491  40.926   4.136
42474W        W13074  43.338  13.360  10.788
42475W        W13075  34.643  32.601  12.471
42476W        W13076   6.622   7.155  13.169
42477W        W13077  18.136   3.674   0.806
42478W        W13078  27.853  33.811  11.479
42479W        W13079  15.814   5.821   4.109
42480W        W13080  43.620  11.827   3.892
42481W        W13081   1.397  20.818  14.271
42482W        W13082  41.315  22.653   0.113
42483W        W13083  25.336   4.341   1.466
42484W        W13084  29.072  19.807  10.496
42485W        W13085  38.900  32.836  14.355
42486W        W13086  16.213  22.733   2.216
42487W        W13087   5.661  17.579   0.798
42488W        W13088   8.058  29.919   2.853
42489W        W13089  30.841  27.481   3.723
42490W        W13090  19.180  12.868   4.539
42491W        W13091  24.283  41.852  11.129
42492W        W13092  42.142  10.386   2.278
42493W        W13093  26.813   5.855   0.807
42494W        W13094  32.013  27.725   4.028
42495W        W13095   2.875  23.027   2.768
42496W        W13096  17.754   7.934  13.537
42497W        W13097  16.891  12.278   2.421
42498W        W13098  31.814   5.453   4.291
42499W        W13099  10.592  43.140   3.392
42500W        W13100  25.695  16.042   1.221
42501W        W13101  16.585  44.302  10.424
42502W        W13102  19.336  35.641  10.939
42503W        W13103  38.860  14.316  11.146
42504W        W13104   4.821  23.361   4.209
42505W        W13105   4.767  21.371   3.927
42506W        W13106  33.760  26.470   2.659
42507W        W13107  17.321  39.198   2.762
42508W        W13108  26.768   0.825   3.064
42509W        W13109  44.953  34.941   2.356
42510W        W13110  13.722  12.559   4.485
42511W        W13111   8.325  33.431  10.716
42512W        W13112  20.506   7.349   0.939
42513W        W13113   0.834  44.973  13.934
42514W        W13114  31.910  17.784  14.805
42515W        W13115  20.750  19.157   0.190
42516W        W13116  16.069  22.512   0.449
42517W        W13117  31.381  15.548  14.351
42518W        W13118  32.980  33.240   0.164
42519W        W13119  35.639  25.017  10.739
42520W        W13120   2.828   5.213   1.930
42521W        W13121  32.132  21.505   3.764
42522W        W13122  10.091  22.267   2.671
42523W        W13123  43.449  13.658   2.144
42524W        W13124   5.480   8.712   0.873
42525W        W13125  17.179  41.993  14.787
42526W        W13126  14.650   2.770   2.269
42527W        W13127  44.368  20.730  13.879
42528W        W13128  12.123   9.882  13.322
42529W        W13129  29.614  21.492  13.343
42530W        W13130  42.451  32.575   0.061
42531W        W13131  18.636  43.202  14.504
42532W        W13132   9.799  10.851  10.649
42533W        W13133  32.460  44.699   1.565
42534W        W13134  21.700  32.657   0.425
42535W        W13135   0.825  22.419   0.131
42536W        W13136  22.332  29.946   1.542
42537W        W13137  36.848  26.604  12.823
42538W        W13138  38.980  18.090  13.439
42539W        W13139  40.136   2.310   1.845
42540W        W13140  11.169  13.606   4.109
42541W        W13141   9.786  20.553  13.335
42542W        W13142  32.561   1.752  13.304
42543W        W13143  18.681  31.671   2.325
42544W        W13144  36.570  27.899  11.045
42545W        W13145  32.013  31.529   0.081
42546W        W13146  14.162  26.607   0.872
42547W        W13147  16.571  21.149   2.356
42548W        W13148   8.528  39.576  12.995
42549W        W13149  32.205  26.088   4.757
42550W        W13150  10.759  23.534  13.484
42551W        W13151  30.301  23.295  12.908
42552W        W13152  11.703  44.987  11.930
42553W        W13153  12.637  33.617   4.437
42554W        W13154  38.334  28.974  12.227
42555W        W13155  38.035  30.547   2.314
42556W        W13156  38.262  25.182   1.611
42557W        W13157  38.427  37.963  11.708
42558W        W13158  43.871  32.906  13.018
42559W        W13159  35.093  32.564   0.004
42560W        W13160  25.602  27.345   2.818
42561W        W13161   8.407  39.063  14.268
42562W        W13162  37.525  11.715   0.892
42563W        W13163  34.843  16.139  14.050
42564W        W13164  43.026  30.909  12.925
42565W        W13165   8.417   9.139  14.022
42566W        W13166  39.093  25.912  11.583
42567W        W13167  18.709  14.760  11.886
42568W        W13168  25.630  44.089   1.430
42569W        W13169  12.123  25.783   2.798
42570W        W13170  12.175  17.204   0.269
42571W        W13171  20.435  30.589   5.040
42572W        W13172  18.104  15.121  14.839
42573W        W13173   3.774  15.372   3.165
42574W        W13174  35.825  34.916  13.422
42575W        W13175  12.455  13.353  12.405
42576W        W13176  32.332   2.240   4.221
42577W        W13177  21.474  44.842  12.598
42578W        W13178  16.586  40.440  10.718
42579W        W13179   6.839  41.261   2.215
42580W        W13180   6.253  15.078   1.400
42581W        W13181  40.873   3.980  12.488
42582W        W13182  27.401  12.348  12.041
42583W        W13183  13.406  40.875  13.864
42584W        W13184  37.037  33.312  12.273
42585W        W13185   3.207  21.799  13.117
42586W        W13186  18.890  36.108   1.932
42587W        W13187   0.301  11.218   3.386
42588W        W13188  40.079   8.315  13.859
42589W        W13189  23.682  33.575   3.317
42590W        W13190  29.562   1.773  11.588
42591W        W13191  15.043   5.186   0.335
42592W        W13192  36.411  37.147   0.638
42593W        W13193   8.375  32.523  13.938
42594W        W13194  35.806  30.507   1.339
42595W        W13195   2.370  44.908  12.110
42596W        W13196  34.393  13.835  12.380
42597W        W13197  31.191  14.012  13.518
42598W        W13198  33.552  26.692  11.563
42599W        W13199  16.820  24.284   3.794
42600W        W13200   5.311   5.145  13.486
42601W        W13201  16.762  33.533   1.120
42602W        W13202   2.239  21.006   0.888
42603W        W13203  18.294  19.785   2.733
42604W        W13204  10.118  21.724   1.195
42605W        W13205  41.718  26.112   1.490
42606W        W13206  17.781   0.544  13.530
42607W        W13207  14.124  39.786   3.598
42608W        W13208  34.967   0.500   3.148
42609W        W13209  33.518  37.590   3.512
42610W        W13210  12.836  39.948   2.260
42611W        W13211  19.967  42.878  14.529
42612W        W13212  34.066  10.737   2.962
42613W        W13213  10.669  36.944  10.738
42614W        W13214  15.507  20.235  12.967
42615W        W13215  13.405  34.542   4.752
42616W        W13216  15.573  24.759   2.741
42617W        W13217   8.141  12.660  13.555
42618W        W13218  26.111   0.852  11.172
42619W        W13219  30.589  27.098  12.235
42620W        W13220  12.789  13.627   1.021
42621W        W13221  19.402  34.091   3.474
42622W        W13222  19.710  13.146   0.631
42623W        W13223  35.364  38.029   4.565
42624W        W13224  36.040  24.407  14.925
42625W        W13225  18.565  19.710   1.303
42626W        W13226   6.366  10.815   4.124
42627W        W13227  32.106  14.104  14.951
42628W        W13228  20.329  11.239   1.995
42629W        W13229  32.169   6.370  12.168
42630W        W13230   4.627  41.217   4.067
42631W        W13231  39.912  39.541  14.815
42632W        W13232  32.500   4.667  12.444
42633W        W13233  36.402  27.193  14.385
42634W        W13234  23.722  28.855   1.090
42635W        W13235  32.387  36.465   0.838
42636W        W13236  35.797   3.746   3.760
42637W        W13237   7.118  21.658  12.173
42638W        W13238  39.432  39.410   1.826
42639W        W13239  34.869  43.474  14.309
42640W        W13240  20.611  36.503   4.243
42641W        W13241  30.855  41.115  14.405
42642W        W13242   1.735  36.803   1.738
42643W        W13243  33.079  23.669   4.115
42644W        W13244  14.156  16.141   1.958
42645W        W13245  10.431  29.591   3.256
42646W        W13246  44.560  20.075   1.766
42647W        W13247  42.836  17.945  13.660
42648W        W13248  37.165  37.518  12.007
42649W        W13249  21.968  31.135   4.429
42650W        W13250   8.140  31.629  12.912
42651W        W13251  31.136  36.120  13.798
42652W        W13252  23.530   4.399   2.346
42653W        W13253  42.050  37.969  10.863
42654W        W13254   1.912   0.057  11.939
42655W        W13255  35.389  24.538  10.711
42656W        W13256  16.767  16.079   3.144
42657W        W13257  10.876   6.464  11.701
42658W        W13258  43.296  44.443  12.101
42659W        W13259  16.672  38.752  12.827
42660W        W13260  19.100  25.475   3.155
42661W        W13261   9.394  16.797   1.368
42662W        W13262  27.215  20.676   1.241
42663W        W13263   6.238  34.861  13.080
42664W        W13264  40.330   1.468  10.322
42665W        W13265  10.071  11.756   1.837
42666W        W13266   5.167   3.662   0.827
42667W        W13267  38.990  39.165  12.708
42668W        W13268   2.784  18.644   0.373
42669W        W13269  11.263  21.692   0.333
42670W        W13270  17.041   9.918   2.318
42671W        W13271  40.897   5.650  13.426
42672W        W13272  42.372  29.484  10.441
42673W        W13273  14.105  12.747  11.132
42674W        W13274   4.228  24.190   4.352
42675W        W13275  26.592   7.236  13.784
42676W        W13276  25.088  38.374  10.726
42677W        W13277  18.415  38.633  14.290
42678W        W13278  10.767  15.107   2.315
42679W        W13279  31.022  27.423   1.879
42680W        W13280  13.233  28.431   4.191
42681W        W13281  41.321   5.025  11.196
42682W        W13282  31.101  10.224   2.318
42683W        W13283  31.162  35.111  11.576
42684W        W13284  15.052  30.906  10.443
42685W        W13285  16.986  24.658  14.527
42686W        W13286   3.741  26.447  11.638
42687W        W13287  16.262  26.074   2.522
42688W        W13288  39.408  12.807   2.697
42689W        W13289  21.711  14.347   2.281
42690W        W13290   8.309  13.246  11.405
42691W        W13291  18.717  27.557   0.932
42692W        W13292  24.542  42.940  11.034
42693W        W13293  14.617  42.917  11.610
42694W        W13294  36.212   4.635   1.197
42695W        W13295  16.308  10.122   3.225
42696W        W13296  35.068  17.376   2.630
42697W        W13297  28.222  29.993  12.615
42698W        W13298  32.548  24.877   0.229
42699W        W13299  18.508  37.484  14.764
42700W        W13300   1.421  28.709   0.669
42701W        W13301  25.277  29.523   4.070
42702W        W13302  16.086  32.796  11.986
42703W        W13303  35.875  31.912   4.292
42704W        W13304  18.664  44.452   9.885
42705W        W13305  25.036  29.535  13.536
42706W        W13306  21.742  29.077  13.985
42707W        W13307  14.186  29.089  12.891
42708W        W13308  38.842   5.476   0.642
42709W        W13309  21.927  39.355  13.869
42710W        W13310   2.847  35.575   0.689
42711W        W13311  16.493  35.363   0.467
42712W        W13312  44.839   1.665  10.642
42713W        W13313  22.589  13.315   0.940
42714W        W13314   3.408  33.443   4.377
42715W        W13315   1.421  12.837   0.754
42716W        W13316  43.500   2.944   1.774
42717W        W13317  29.413  24.020  10.811
42718W        W13318  23.086  34.833  11.031
42719W        W13319  26.128   8.132  13.120
42720W        W13320   0.243   4.791   1.159
42721W        W13321  30.445  11.169   0.919
42722W        W13322  37.474  26.958   4.696
42723W        W13323   8.568  22.182   0.009
42724W        W13324  33.938   0.241   2.962
42725W        W13325  23.828   7.380   4.895
42726W        W13326  12.162  28.632  10.713
42727W        W13327  25.399  11.373   2.748
42728W        W13328  39.128  12.689  13.276
42729W        W13329  17.825  29.494  12.298
42730W        W13330  39.620  37.083  12.937
42731W        W13331  25.472  33.508  13.492
42732W        W13332  40.960  34.349  10.785
42733W        W13333  24.689  12.611  12.337
42734W        W13334  17.265  44.808   0.262
42735W        W13335  10.341  12.557  13.479
42736W        W13336   8.291  31.561   0.526
42737W        W13337  29.083  39.482   2.339
42738W        W13338  20.480  21.113   4.497
42739W        W13339   9.056   5.293   4.165
42740W        W13340   1.805   1.210   1.292
42741W        W13341  12.167  17.690   1.218
42742W        W13342  28.917  34.780  13.868
42743W        W13343  21.017  21.941   1.883
42744W        W13344   8.758  31.043  12.159
42745W        W13345  29.670   2.697   0.460
42746W        W13346  25.505  37.976  10.974
42747W        W13347  19.682  31.598  12.973
42748W        W13348  28.425  34.366  12.136
42749W        W13349  36.683  27.941   2.132
42750W        W13350  25.832  28.132  11.651
42751W        W13351  31.993   0.329  11.177
42752W        W13352  12.624  40.981   0.153
42753W        W13353   4.402  38.495   2.367
42754W        W13354  12.331  12.760   1.980
42755W        W13355  12.185  42.206   3.733
42756W        W13356  44.846  21.574  14.912
42757W        W13357  23.840  37.448   3.673
42758W        W13358   6.424  14.267   1.764
42759W        W13359  10.279   7.799   5.059
42760W        W13360   9.782   4.757  11.896
42761W        W13361  24.153   2.486   1.697
42762W        W13362   5.294  34.009  14.857
42763W        W13363  42.908  38.219   9.884
42764W        W13364  43.778  38.451  14.447
42765W        W13365  38.092  26.908   1.996
42766W        W13366  11.789  23.911   0.377
42767W        W13367  32.551  41.866  14.341
42768W        W13368   9.152  24.276   3.422
42769W        W13369  39.955  36.608  12.072
42770W        W13370   8.781  14.634   1.866
42771W        W13371  19.982  34.153   1.309
42772W        W13372   5.881  36.116   4.302
42773W        W13373  24.424   9.070  11.117
42774W        W13374  34.044   7.727   1.694
42775W        W13375  43.721  15.301   3.425
42776W        W13376   9.199  20.784  11.182
42777W        W13377  12.138  42.098   0.334
42778W        W13378   3.177  15.254   2.212
42779W        W13379  28.568  36.801  12.081
42780W        W13380  17.110  25.685   1.662
42781W        W13381  24.026  14.861   2.328
42782W        W13382  20.105   2.666  12.870
42783W        W13383  12.675  43.494   0.285
42784W        W13384  15.524  39.297  10.723
42785W        W13385  43.932  10.853  13.455
42786W        W13386  20.998  35.387   0.017
42787W        W13387   9.680  19.764   0.026
42788W        W13388  44.098   4.599  10.683
42789W        W13389  29.690  42.480   1.006
42790W        W13390  21.681  44.679  12.150
42791W        W13391  37.763  32.560   2.290
42792W        W13392   9.910  26.969   1.625
42793W        W13393  11.399  39.021   4.927
42794W        W13394  31.989  36.926   4.413
42795W        W13395   8.979  35.324   1.397
42796W        W13396  11.826  21.629  12.918
42797W        W13397  16.387  42.825  13.532
42798W        W13398  24.263  36.434  14.454
42799W        W13399  40.801   1.238  13.783
42800W        W13400   2.879  39.588   2.837
42801W        W13401  42.240  11.578   0.316
42802W        W13402  16.874  42.497  12.026
42803W        W13403  11.451  11.376  14.340
42804W        W13404  12.177   6.799  13.428
42805W        W13405  21.508   6.771   0.671
42806W        W13406   9.357  38.194  13.628
42807W        W13407   7.222  10.582  14.923
42808W        W13408   8.908  40.374  13.532
42809W        W13409  16.039  42.052  12.059
42810W        W13410   9.466  15.755   4.130
42811W        W13411   7.329  24.193   3.568
42812W        W13412   9.413  28.449  11.203
42813W        W13413  44.024  31.914  12.836
42814W        W13414  14.421   3.421  12.412
42815W        W13415  32.483  26.589  11.548
42816W        W13416  33.881  35.449  11.099
42817W        W13417  24.123   4.313  13.331
42818W        W13418   1.554  31.493   3.314
42819W        W13419   0.300  39.865  13.883
42820W        W13420   7.219  33.172   0.400
42821W        W13421  39.360   9.512  11.250
42822W        W13422  41.217   4.648   1.832
42823W        W13423  15.765  40.888  13.824
42824W        W13424  27.160   3.970  10.746
42825W        W13425   3.845  40.944   4.859
42826W        W13426  21.549  14.765   4.552
42827W        W13427  14.234  30.855   1.223
42828W        W13428   1.625  25.962   3.640
42829W        W13429  43.109  11.840   0.848
42830W        W13430  39.919  17.925   1.456
42831W        W13431  39.687  10.183  12.025
42832W        W13432  38.050  40.478  10.589
42833W        W13433  22.650   3.980   4.339
42834W        W13434  43.757  28.466  13.665
42835W        W13435   4.477  37.276  12.447
42836W        W13436  28.830  31.349  12.832
42837W        W13437   4.929  24.452  14.557
42838W        W13438   3.512   5.616   3.779
42839W        W13439  27.399   6.610   1.728
42840W        W13440  26.602   9.297  14.995
42841W        W13441  11.347  38.503   4.815
42842W        W13442  23.233  37.536   5.134
42843W        W13443  21.153  21.972   4.151
42844W        W13444  21.739  14.260   4.067
42845W        W13445  40.567  29.898   1.379
42846W        W13446  29.518   6.373   3.365
42847W        W13447  32.876   6.810   4.147
42848W        W13448  28.082  13.306   3.887
42849W        W13449  36.429  26.765  14.708
42850W        W13450  35.306  37.535   1.661
42851W        W13451   5.874  15.532   2.572
42852W        W13452  13.067  39.113  10.963
42853W        W13453   9.387  38.322  11.552
42854W        W13454  33.369   7.276   0.559
42855W        W13455  30.817  42.126  10.208
42856W        W13456  24.408   5.828   0.636
42857W        W13457  34.974  17.617  11.942
42858W        W13458   9.727  30.968   3.118
42859W        W13459  17.686  14.211   3.421
42860W        W13460  31.362  33.439  14.321
42861W        W13461  19.695  37.335  13.299
42862W        W13462  38.280   8.821   1.959
42863W        W13463  10.197  17.167  13.325
42864W        W13464  25.291  33.133  11.197
42865W        W13465  27.229   5.193  13.359
42866W        W13466  35.242   5.113   1.357
42867W        W13467  41.864  27.057  11.656
42868W        W13468   0.065  31.630   3.170
42869W        W13469  20.647  12.528   1.416
42870W        W13470   1.937  28.476  11.922
42871W        W13471  22.820  18.962  11.358
42872W        W13472  34.065   7.668   0.668
42873W        W13473   2.770   3.369   0.165
42874W        W13474  37.186   3.485  14.781
42875W        W13475   1.193   6.424   1.448
42876W        W13476  24.580  40.725   3.413
42877W        W13477   0.850  12.850   2.868
42878W        W13478  13.580  25.255  12.534
42879W        W13479  18.973  34.902  11.104
42880W        W13480   8.510  44.517   1.959
42881W        W13481   1.804   5.615  14.969
42882W        W13482  30.577  16.232   4.436
42883W        W13483  15.121   3.937  13.830
42884W        W13484  32.532  25.851   3.179
42885W        W13485  34.173  32.491   0.792
42886W        W13486  29.922  35.296  12.026
42887W        W13487  17.301   0.902   4.109
42888W        W13488  24.535  37.863  14.791
42889W        W13489  22.732  38.026   4.351
42890W        W13490   4.400  31.031   0.462
42891W        W13491  13.237   3.298   2.652
42892W        W13492  16.889  30.633  11.436
42893W        W13493   5.198  24.767  14.887
42894W        W13494  42.929  15.585  10.944
42895W        W13495  28.077   0.369  13.422
42896W        W13496  35.111  17.135   0.386
42897W        W13497   2.777  30.716   0.393
42898W        W13498  16.242  11.588  13.453
42899W        W13499  30.924  33.687  14.384
42900W        W13500  14.705  43.439   2.228
42901W        W13501   3.823  44.083   0.771
42902W        W13502   4.974  41.410  13.924
42903W        W13503  36.350   8.123  14.823
42904W        W13504   8.863  44.773  13.836
42905W        W13505  22.963  42.610  14.973
42906W        W13506   1.154  33.200  10.128
42907W        W13507  32.174  31.712  11.656
42908W        W13508  35.509  29.582   1.325
42909W        W13509  41.850  20.287  11.570
42910W        W13510   6.183  13.011   3.711
42911W        W13511  14.296  39.983   1.236
42912W        W13512  25.151  37.304   4.098
42913W        W13513  42.130  31.066  11.983
42914W        W13514   1.689  22.907  14.961
42915W        W13515  13.332   2.500   4.595
42916W        W13516  34.611  35.989  11.556
42917W        W13517  29.584  33.000   3.023
42918W        W13518  13.140  21.774  11.492
42919W        W13519  26.421  10.877  13.865
42920W        W13520  37.462   6.567   1.017
42921W        W13521  19.195  21.731   3.162
42922W        W13522   6.694  27.423   0.898
42923W        W13523   6.159  16.019   1.531
42924W        W13524   8.657  32.905   4.343
42925W        W13525   8.096  16.615   2.332
42926W        W13526   6.221  20.224  12.451
42927W        W13527  29.008  37.596   1.345
42928W        W13528  19.324  22.208   2.922
42929W        W13529  29.978  36.667   1.843
42930W        W13530  28.163   5.892   1.255
42931W        W13531  25.634  17.322  10.163
42932W        W13532  27.478  16.668  11.186
42933W        W13533  34.494  22.212  12.836
42934W        W13534  18.306  14.083   2.078
42935W        W13535  11.256   4.522   2.961
42936W        W13536  39.210  18.000   1.806
42937W        W13537  26.519  16.756  10.322
42938W        W13538  16.429   1.829   1.695
42939W        W13539   4.207  33.901  13.717
42940W        W13540  24.794  14.669  10.758
42941W        W13541  38.405  11.640  12.857
42942W        W13542  38.554   7.814   1.028
42943W        W13543  24.426   8.331   3.701
42944W        W13544  18.789  13.288   2.743
42945W        W13545  27.270  23.636  11.632
42946W        W13546   5.181   3.321   2.131
42947W        W13547  17.237  21.358  12.886
42948W        W13548  36.442  19.661   2.947
42949W        W13549  14.234  23.264  11.978
42950W        W13550  43.445  27.702   2.993
42951W        W13551  36.549  31.811   3.200
42952W        W13552  36.401  12.325   0.925
42953W        W13553  40.628   5.497  12.932
42954W        W13554   2.270   6.281   0.319
42955W        W13555   3.174   1.264  14.816
42956W        W13556  35.091   5.801   2.894
42957W        W13557  39.637   6.369   4.903
42958W        W13558  33.845  18.015   4.638
42959W        W13559  25.991  35.928  14.266
42960W        W13560  31.577  13.068  14.556
42961W        W13561  22.501  38.810   1.920
42962W        W13562   3.172  18.244   2.363
42963W        W13563   9.934  13.736  14.351
42964W        W13564  42.317  16.630  11.640
42965W        W13565   1.133  19.873   0.297
42966W        W13566  38.967  13.361   2.339
42967W        W13567  16.001  29.489  13.439
42968W        W13568  29.393  17.491   1.368
42969W        W13569  32.982  12.913   2.895
42970W        W13570  23.589   3.415   1.166
42971W        W13571  42.057  34.537  13.498
42972W        W13572  21.166  26.653  12.625
42973W        W13573   9.198  34.780  13.985
42974W        W13574   1.342  21.131   0.573
42975W        W13575  26.443   5.311   0.081
42976W        W13576  35.356  40.114  11.672
42977W        W13577   0.650  14.266  13.848
42978W        W13578   7.137   4.447   4.053
42979W        W13579  37.838  29.278   3.639
42980W        W13580  25.850  42.531   0.913
42981W        W13581   2.374  19.482   4.056
42982W        W13582  24.188  10.892   0.764
42983W        W13583  16.814   1.416   3.634
42984W        W13584  36.025  20.263   4.597
42985W        W13585  16.347  24.153  13.000
42986W        W13586  22.390  19.710   4.558
42987W        W13587  22.700  41.160   9.937
42988W        W13588  19.041  18.294  12.481
42989W        W13589  19.232  24.953  12.466
42990W        W13590  16.116  26.428   4.998
42991W        W13591  34.948   4.842   2.322
42992W        W13592  24.106   0.746  14.363
42993W        W13593  13.044  44.182  13.029
42994W        W13594   4.474  40.143   0.025
42995W        W13595  35.104   9.027   0.009
42996W        W13596   1.850   0.205   3.819
42997W        W13597  44.234  43.947   2.223
42998W        W13598  15.823   2.716  11.182
42999W        W13599  11.316  21.906  12.947
43000W        W13600  38.398  23.274   1.907
43001W        W13601   2.274  19.608   0.476
43002W        W13602  21.298   4.391   0.093
43003W        W13603  40.641  30.937   0.711
43004W        W13604   1.568  43.724   1.194
43005W        W13605  30.511  23.554   3.265
43006W        W13606  20.762  14.821   2.881
43007W        W13607  10.594  20.008   3.676
43008W        W13608  41.083  10.044  13.165
43009W        W13609  23.476  41.004  13.470
43010W        W13610  24.902  13.828  10.570
43011W        W13611  31.432  39.057   0.403
43012W        W13612  18.761   3.913   3.280
43013W        W13613  24.754  15.119   3.613
43014W        W13614  16.821  17.224  13.982
43015W        W13615   0.904  25.957   3.225
43016W        W13616   5.368  35.405   2.714
43017W        W13617  37.444  37.663   1.708
43018W        W13618  27.070  24.710   2.778
43019W        W13619   9.180  13.818   3.611
43020W        W13620   2.380  15.332   4.972
43021W        W13621  39.154  13.093  11.173
43022W        W13622   4.986   2.926  12.729
43023W        W13623   0.586  21.314   3.228
43024W        W13624   0.264  38.006  10.783
43025W        W13625  29.551  32.843  11.879
43026W        W13626  42.985  19.912   4.009
43027W        W13627  18.321  17.353   2.208
43028W        W13628  39.501  40.833   2.650
43029W        W13629  21.184  29.104  10.250
43030W        W13630  25.278  38.122  11.984
43031W        W13631  21.684   3.268  14.714
43032W        W13632  27.576  12.616   4.314
43033W        W13633  34.965  24.256   2.388
43034W        W13634  22.631  32.819  11.542
43035W        W13635  28.036  21.717  10.315
43036W        W13636  16.112   3.703   1.605
43037W        W13637   9.895   0.339   1.671
43038W        W13638  29.468  30.594  11.236
43039W        W13639  30.058  39.543  11.922
43040W        W13640   2.656  32.126  11.548
43041W        W13641  34.055  19.385   0.636
43042W        W13642  39.313  33.293  12.038
43043W        W13643  20.625  31.959   5.098
43044W        W13644  20.487  40.469   0.505
43045W        W13645   1.368  42.432   4.395
43046W        W13646  41.570  12.615  13.486
43047W        W13647  14.842  18.311   3.179
43048W        W13648  21.028  14.268  12.549
43049W        W13649  35.976   6.329   4.065
43050W        W13650  12.583  17.693   0.850
43051W        W13651  41.224  24.783  11.629
43052W        W13652  28.148  29.090   0.685
43053W        W13653  15.332  11.712  12.364
43054W        W13654  28.682  27.906   4.057
43055W        W13655  24.094  32.680  12.828
43056W        W13656  31.341  31.323  13.469
43057W        W13657  34.063  13.420  13.680
43058W        W13658   1.309  29.363   1.807
43059W        W13659  13.239  11.867  14.041
43060W        W13660  11.377  41.464  13.735
43061W        W13661  42.061  42.822   1.809
43062W        W13662  32.608  24.048  14.795
43063W        W13663   1.855   9.417   4.700
43064W        W13664  27.738  19.313  12.445
43065W        W13665  37.608  37.628   0.011
43066W        W13666  15.648  14.124  13.805
43067W        W13667  24.918  44.641  14.551
43068W        W13668  40.324   8.955  12.338
43069W        W13669  36.915  20.013   0.834
43070W        W13670   5.346  26.161  12.568
43071W        W13671  37.491  17.688   1.728
43072W        W13672  31.503   1.240   0.634
43073W        W13673  13.746  43.967   3.603
43074W        W13674  35.393  34.284  11.661
43075W        W13675  22.935  11.206   3.737
43076W        W13676  18.903  20.669  11.540
43077W        W13677  12.856  38.996  13.005
43078W        W13678  32.052  40.927  13.924
43079W        W13679  37.109  42.497  14.856
43080W        W13680  30.367  13.400  11.893
43081W        W13681  19.161  25.014  14.058
43082W        W13682  27.530  30.105  11.430
43083W        W13683  19.011  14.982  11.097
43084W        W13684  16.565  40.642  13.799
43085W        W13685   9.203  36.338  13.890
43086W        W13686   6.654  18.886  13.475
43087W        W13687  27.599  25.620   4.310
43088W        W13688  15.891  21.254  13.802
43089W        W13689   4.991   6.277   2.115
43090W        W13690  15.104  38.444  13.950
43091W        W13691   4.771  30.016  11.504
43092W        W13692   7.906  40.322   5.063
43093W        W13693  30.077  44.735  12.470
43094W        W13694   4.144  10.316  12.483
43095W        W13695  23.638   6.957   9.779
43096W        W13696   0.951  12.276  12.135
43097W        W13697  31.448  36.153  12.839
43098W        W13698  26.183  44.847  11.291
43099W        W13699  30.854  31.945   4.043
43100W        W13700  43.985  29.655  14.989
43101W        W13701  16.910  10.937   4.122
43102W        W13702  41.582   5.315   2.679
43103W        W13703  16.680  25.156   4.817
43104W        W13704  39.436  13.868  14.431
43105W        W13705  22.505  36.614   2.753
43106W        W13706   5.890  24.033   1.164
43107W        W13707  16.672  28.073  14.975
43108W        W13708  32.123  15.288   4.235
43109W        W13709  13.275  30.476   2.652
43110W        W13710  22.566  20.337  14.851
43111W        W13711  12.804  19.032   3.618
43112W        W13712  19.648  26.236   1.237
43113W        W13713   1.387  30.881  10.718
43114W        W13714  44.218   2.937   2.753
43115W        W13715  27.424  16.194   0.100
43116W        W13716   8.133  27.677   3.596
43117W        W13717  43.850   2.391  14.721
43118W        W13718  30.477  33.449   1.596
43119W        W13719  24.113  40.830   3.691
43120W        W13720  29.071   6.844   2.775
43121W        W13721  12.362  16.379   1.695
43122W        W13722  28.629   6.880   0.745
43123W        W13723   3.179   0.298  12.076
43124W        W13724   7.820  28.611  10.666
43125W        W13725   9.339  34.891  13.488
43126W        W13726   4.970  29.407   1.067
43127W        W13727  15.220  11.376  13.073
43128W        W13728  35.019   8.924  11.077
43129W        W13729  44.264  30.614  12.123
43130W        W13730  25.152  40.896   4.062
43131W        W13731  27.767  30.139  14.243
43132W        W13732  11.114  12.703  11.633
43133W        W13733   2.396   8.258  11.393
43134W        W13734  32.450  18.197   1.939
43135W        W13735   6.002   5.875   1.308
43136W        W13736   0.447  20.054  11.140
43137W        W13737  24.427  27.835  11.679
43138W        W13738  28.032  34.085   0.875
43139W        W13739   2.583  24.429   4.615
43140W        W13740  32.826  40.321  14.473
43141W        W13741  21.580  20.403   0.704
43142W        W13742   2.775  34.841  11.851
43143W        W13743  23.536  15.669   1.357
43144W        W13744  37.824   2.573   1.742
43145W        W13745  32.569   0.511   2.394
43146W        W13746  30.073  24.297  11.101
43147W        W13747   5.607  44.421   4.514
43148W        W13748  36.139  16.612   3.181
43149W        W13749  41.813  35.224   4.005
43150W        W13750  41.261   6.905   4.673
43151W        W13751   1.937   4.197   4.507
43152W        W13752  31.953   3.000  11.538
43153W        W13753   3.177  27.185   1.586
43154W        W13754  44.411   0.795  11.067
43155W        W13755  40.969  25.737  12.446
43156W        W13756  31.704  33.629  10.798
43157W        W13757  42.109  31.669   0.391
43158W        W13758  21.625  39.459  10.462
43159W        W13759  18.169  10.183  12.465
43160W        W13760  25.146  20.881  12.651
43161W        W13761  42.691  20.008  11.544
43162W        W13762   8.869  30.312  11.176
43163W        W13763  36.414  28.502  13.993
43164W        W13764  14.828  15.697   3.205
43165W        W13765  18.250  42.711   3.518
43166W        W13766  38.431  32.519  13.626
43167W        W13767  20.168   9.878  13.627
43168W        W13768   7.255  41.296   2.795
43169W        W13769  18.944   6.241   2.890
43170W        W13770  36.362   6.848   2.408
43171W        W13771  18.129  10.743  13.417
43172W        W13772   6.611  34.507   0.860
43173W        W13773  36.643  28.314   4.694
43174W        W13774  36.525  19.891  12.259
43175W        W13775  42.822   1.425  10.753
43176W        W13776  26.832  17.727   4.257
43177W        W13777  43.027  33.105  11.704
43178W        W13778   9.232   2.833   4.749
43179W        W13779  25.607  27.461   2.319
43180W        W13780  44.082  10.104  11.111
43181W        W13781  22.426   7.921  11.176
43182W        W13782  18.511   6.071  14.500
43183W        W13783  18.822  18.550   1.920
43184W        W13784  14.745  28.749   2.325
43185W        W13785   9.093  36.957  10.531
43186W        W13786   2.201  37.538  14.904
43187W        W13787   6.528  36.663  10.671
43188W        W13788  24.223  20.024  14.396
43189W        W13789  24.747  44.492   1.132
43190W        W13790   3.323  11.805   3.508
43191W        W13791  38.001  26.641   5.135
43192W        W13792   0.607   4.415   1.210
43193W        W13793   3.001  19.715   0.827
43194W        W13794  43.155  39.466  10.982
43195W        W13795  42.378  27.438   1.042
43196W        W13796  28.912  33.561  12.012
43197W        W13797   6.831  39.283   0.804
43198W        W13798  40.938   2.371   3.239
43199W        W13799  41.086  33.094   1.903
43200W        W13800  33.153  17.606   3.206
43201W        W13801  33.173  13.129  10.717
43202W        W13802   7.185   9.750  11.565
43203W        W13803  16.243  27.175  14.362
43204W        W13804  27.404  18.054  11.563
43205W        W13805  34.848   7.720  12.773
43206W        W13806  22.704  23.086   3.189
43207W        W13807  27.929  29.230  13.872
43208W        W13808  38.842   4.476  13.023
43209W        W13809   5.652  36.584   4.381
43210W        W13810  13.060  35.090   2.221
43211W        W13811  39.544  21.415   0.462
43212W        W13812   9.159  39.053   3.648
43213W        W13813  26.728  21.110  10.755
43214W        W13814   8.713  25.191   3.318
43215W        W13815  31.390   3.332   4.020
43216W        W13816   0.089  36.281  10.932
43217W        W13817  35.919  15.513   3.270
43218W        W13818  16.649  41.503   4.814
43219W        W13819  25.092  29.199   1.867
43220W        W13820  39.448  10.612  12.118
43221W        W13821   4.261  18.064   0.382
43222W        W13822  19.461  25.720  12.573
43223W        W13823  37.576  13.999  14.902
43224W        W13824   6.688  39.600  11.562
43225W        W13825  32.178  44.426  11.117
43226W        W13826  17.764  25.947  13.092
43227W        W13827  17.503  32.022   4.432
43228W        W13828  41.724   0.825   1.230
43229W        W13829   7.396  33.537   4.397
43230W        W13830  38.443  13.630  10.736
43231W        W13831  19.105  16.049   4.306
43232W        W13832  14.820  22.630  14.781
43233W        W13833  24.764  40.383   0.910
43234W        W13834  23.952  23.751  10.539
43235W        W13835  17.542  17.121  12.934
43236W        W13836  33.070  13.037  12.687
43237W        W13837  40.475   0.923   4.588
43238W        W13838   1.475  11.714  11.949
43239W        W13839  13.711  10.165   0.656
43240W        W13840  42.393   5.196  13.407
43241W        W13841  34.518   8.601   2.363
43242W        W13842  23.818   8.808   5.009
43243W        W13843  40.272   6.266   2.161
43244W        W13844  35.928  22.256  11.729
43245W        W13845  42.048  36.447   1.623
43246W        W13846   2.279  32.392  13.079
43247W        W13847   1.339  35.937   1.714
43248W        W13848  39.813  34.135   4.602
43249W        W13849   7.373  26.473   2.067
43250W        W13850   4.245   8.778  14.071
43251W        W13851  21.925  14.560  12.914
43252W        W13852  28.169  41.937   4.216
43253W        W13853  42.640   3.583   4.168
43254W        W13854  34.924  21.201  14.442
43255W        W13855  20.226   4.491  11.858
43256W        W13856   8.492  37.986  12.179
43257W        W13857  32.105  28.135  11.523
43258W        W13858  22.771  26.171  11.124
43259W        W13859   4.358  34.280  12.356
43260W        W13860  36.109  22.755  11.645
43261W        W13861  26.056  25.983  12.988
43262W        W13862  38.525  19.629  12.151
43263W        W13863   8.370   4.986  11.620
43264W        W13864  15.261  33.350   1.238
43265W        W13865  40.417  40.838   4.102
43266W        W13866  22.124  30.200   3.552
43267W        W13867  24.416  19.621   1.894
43268W        W13868   7.389  29.443   3.206
43269W        W13869  32.508   5.814  10.504
43270W        W13870  42.407  26.701   0.379
43271W        W13871  44.311  43.588  11.073
43272W        W13872  30.179  37.569   3.796
43273W        W13873  40.841  33.823  11.052
43274W        W13874  37.817   5.462  10.841
43275W        W13875   7.640  30.686   2.782
43276W        W13876  37.157  22.102   3.547
43277W        W13877  23.518  18.900   3.313
43278W        W13878   2.844  25.739  10.826
43279W        W13879  41.457  12.875   3.903
43280W        W13880  18.679   8.794  14.886
43281W        W13881   4.694  14.976   3.210
43282W        W13882  27.211  41.985   1.841
43283W        W13883  28.804  38.495   1.710
43284W        W13884  12.104  38.936  11.292
43285W        W13885  14.990  32.836  14.771
43286W        W13886  22.141  31.495   4.080
43287W        W13887  27.585  24.201  11.088
43288W        W13888  29.765  24.993   3.160
43289W        W13889  24.431   3.558  14.276
43290W        W13890   0.370  23.160   1.728
43291W        W13891  22.076  16.598   4.522
43292W        W13892   1.954  19.043   3.206
43293W        W13893  19.104  23.040   0.305
43294W        W13894   5.391   1.851  12.549
43295W        W13895  28.123  32.459  10.946
43296W        W13896  20.253  34.777  10.597
43297W        W13897  42.089  17.093   0.733
43298W        W13898  35.851  23.587   4.084
43299W        W13899  36.213  43.153   9.859
43300W        W13900   9.836  43.301   2.635
43301W        W13901  40.577  38.889  14.037
43302W        W13902   6.874  11.783   4.515
43303W        W13903   8.836  29.550   4.517
43304W        W13904  23.593  22.893   3.759
43305W        W13905  13.021  39.961   2.746
43306W        W13906  31.901  29.440  11.962
43307W        W13907  30.465  39.264  11.999
43308W        W13908  24.208  19.555  11.092
43309W        W13909  22.198   4.680  13.356
43310W        W13910  33.843   1.220   1.247
43311W        W13911  28.776   2.605   4.981
43312W        W13912  29.834  25.001  13.084
43313W        W13913   4.111  11.537  14.455
43314W        W13914  33.774  23.304   5.064
43315W        W13915  20.841  32.863   3.072
43316W        W13916   6.679  42.785   3.212
43317W        W13917  27.116  22.304  13.543
43318W        W13918  18.679  28.713   4.781
43319W        W13919  13.631  14.924  12.031
43320W        W13920  10.723   2.540  11.599
43321W        W13921  40.354  29.099   1.733
43322W        W13922  37.593  42.345  10.959
43323W        W13923  11.554  44.768  13.582
43324W        W13924  26.772  19.563  14.166
43325W        W13925  22.248  25.185  14.411
43326W        W13926  25.262   5.693   1.858
43327W        W13927   9.641  40.825  14.412
43328W        W13928  28.492  40.494  13.557
43329W        W13929  23.146  29.852  10.520
43330W        W13930   8.091  43.413   2.259
43331W        W13931  31.439  18.244   2.822
43332W        W13932   9.686  38.067  11.880
43333W        W13933  42.829   3.123  12.908
43334W        W13934  22.691  34.558  14.451
43335W        W13935  21.044   8.566   2.528
43336W        W13936  22.666  44.452   0.066
43337W        W13937  35.271  21.476   0.415
43338W        W13938   7.914  35.977   4.237
43339W        W13939   6.253   2.051  13.334
43340W        W13940  35.603  20.695   4.124
43341W        W13941  44.259  12.852  10.640
43342W        W13942  30.526  30.695  14.837
43343W        W13943  24.213  38.223   1.323
43344W        W13944   6.843  10.590  11.945
43345W        W13945  19.823   8.212  14.811
43346W        W13946  31.158  44.227  11.160
43347W        W13947  10.382  28.150   4.066
43348W        W13948  32.110  20.882  12.914
43349W        W13949  21.986   4.515  11.117
43350W        W13950  40.447  27.627  12.426
43351W        W13951   5.347  38.925  10.694
43352W        W13952   4.442  14.125   1.830
43353W        W13953  37.841  21.163   1.561
43354W        W13954  25.219  36.989  13.911
43355W        W13955  28.562  36.986  11.619
43356W        W13956   8.714  35.048   2.833
43357W        W13957  15.226  41.037  11.187
43358W        W13958   3.593   1.836  11.932
43359W        W13959  31.939  32.140   0.776
43360W        W13960  39.276  39.423  13.756
43361W        W13961  24.595  23.554  13.024
43362W        W13962   6.925  42.973   1.769
43363W        W13963   9.339  22.922   2.840
43364W        W13964   8.351  28.628  13.783
43365W        W13965  27.946  32.055  10.578
43366W        W13966  10.405  21.244  14.497
43367W        W13967  27.680   3.290   2.673
43368W        W13968  33.504   3.685   3.394
43369W        W13969  35.539   8.236   3.951
43370W        W13970  36.854   1.082  11.631
43371W        W13971  23.723  42.708   2.009
43372W        W13972   9.694  31.554   4.687
43373W        W13973   2.791  11.776   2.210
43374W        W13974  40.275   2.248  13.452
43375W        W13975  26.409   5.270   1.973
43376W        W13976  14.831   7.210   2.413
43377W        W13977  25.110  33.280  10.717
43378W        W13978  36.618   7.366   2.166
43379W        W13979  29.046   8.048  12.053
43380W        W13980  19.148  16.611  13.657
43381W        W13981   1.980   5.378   1.147
43382W        W13982  30.935  12.363   1.434
43383W        W13983  42.326  30.501  14.056
43384W        W13984  41.650  12.321  11.260
43385W        W13985  21.771  42.449   4.804
43386W        W13986  33.036  24.610   0.286
43387W        W13987  31.161   9.236   3.217
43388W        W13988   3.140  10.351   2.755
43389W        W13989  30.022  34.222  14.565
43390W        W13990  32.574   7.801  13.723
43391W        W13991  23.075  39.831  13.890
43392W        W13992  40.602  28.054   3.197
43393W        W13993   9.132   3.540   0.758
43394W        W13994  44.684   5.199  13.295
43395W        W13995  18.161  20.318   3.439
43396W        W13996  18.642  37.382  11.675
43397W        W13997   3.294  15.510  11.985
43398W        W13998  38.345  37.171  13.495
43399W        W13999  28.133  15.923   2.833
43400W        W14000  11.023   5.199  12.427
43401W        W14001  44.984  27.083   1.759
43402W        W14002  32.751  24.517   4.256
43403W        W14003  36.734  12.941   4.007
43404W        W14004  25.558  31.411   3.119
43405W        W14005  41.788   7.421   5.216
43406W        W14006  25.595  35.450   0.128
43407W        W14007   1.899   9.431   2.830
43408W        W14008  19.077   9.130  11.203
43409W        W14009  37.885   7.917   2.260
43410W        W14010   9.873  41.788   4.212
43411W        W14011  31.464  28.165   3.693
43412W        W14012  17.179  25.656  10.750
43413W        W14013  31.480  30.898  14.504
43414W        W14014  27.139   1.381   1.377
43415W        W14015  20.468  35.885  10.378
43416W        W14016  27.593  30.078  11.957
43417W        W14017   3.517  34.253   5.043
43418W        W14018  28.250  42.512  13.512
43419W        W14019  36.747  11.283   1.867
43420W        W14020   6.913  25.180  14.862
43421W        W14021  24.160  15.760   1.855
43422W        W14022  23.455  28.596   2.286
43423W        W14023  43.363  15.819  10.208
43424W        W14024  44.299  25.253   2.926
43425W        W14025  12.857   7.774   4.353
43426W        W14026  31.114  15.046  12.440
43427W        W14027   0.387  42.878  13.359
43428W        W14028  39.424  14.627   3.726
43429W        W14029  21.203   0.476   4.081
43430W        W14030   6.787   2.223  14.383
43431W        W14031  43.748   1.777   0.936
43432W        W14032  29.725   1.322  13.067
43433W        W14033  17.387  16.613   1.483
43434W        W14034  12.603   7.684  14.209
43435W        W14035  20.310  10.323  11.081
43436W        W14036   6.156   7.529   4.675
43437W        W14037   0.446  43.512   4.178
43438W        W14038   2.710  31.066   2.812
43439W        W14039  20.746  13.263   0.705
43440W        W14040  17.520  42.715  12.667
43441W        W14041   3.084  39.002   3.593
43442W        W14042  12.137  16.321   3.400
43443W        W14043  11.383  19.759   1.576
43444W        W14044  10.366   1.895   4.800
43445W        W14045  30.863  39.794   2.270
43446W        W14046  41.458   3.119   1.942
43447W        W14047  40.067  27.603   0.253
43448W        W14048   8.089  13.121   0.932
43449W        W14049  44.430  21.010   1.316
43450W        W14050  15.430  22.030  12.017
43451W        W14051  30.487  33.699   4.449
43452W        W14052  30.669   4.254  10.637
43453W        W14053  30.594  40.981  11.552
43454W        W14054  44.269  32.049  12.395
43455W        W14055  32.461  39.553  13.729
43456W        W14056  27.267  18.123  13.897
43457W        W14057  12.799  27.608   4.121
43458W        W14058  30.886   4.937   2.613
43459W        W14059  23.068  21.714   0.957
43460W        W14060  29.943  20.148  13.975
43461W        W14061  11.936  24.488   2.691
43462W        W14062  14.356  12.108   3.166
43463W        W14063   2.889  31.853   0.874
43464W        W14064  23.240  40.454   0.967
43465W        W14065  33.175  11.069  12.541
43466W        W14066  32.020   3.584  13.004
43467W        W14067  33.377   6.830   5.086
43468W        W14068  11.389  19.675   3.818
43469W        W14069  43.465  14.099  14.271
43470W        W14070  42.651  26.763   2.762
43471W        W14071  25.953  33.489  13.671
43472W        W14072  15.174  17.253  13.138
43473W        W14073  39.384   0.130   5.006
43474W        W14074  42.376  44.443   3.354
43475W        W14075  37.643  23.973   0.731
43476W        W14076   3.776  19.711  10.362
43477W        W14077  12.756  32.617  14.261
43478W        W14078  35.022  36.965  13.056
43479W        W14079  44.231  41.448  10.117
43480W        W14080  12.395  39.929  12.819
43481W        W14081  36.115   8.067  11.177
43482W        W14082   0.513   7.382  13.734
43483W        W14083  30.039  42.900  14.752
43484W        W14084  30.220   0.863   0.345
43485W        W14085   6.350   5.680   3.813
43486W        W14086  33.998  38.981   4.915
43487W        W14087   3.207  32.335  10.792
43488W        W14088   7.879  13.182   3.771
43489W        W14089  31.917  28.173  13.445
43490W        W14090  22.632  10.126   2.653
43491W        W14091   4.804   7.886   1.081
43492W        W14092  26.906  13.143  10.711
43493W        W14093  23.569   5.320   4.285
43494W        W14094   1.019  21.462   2.970
43495W        W14095  13.823  32.918   0.038
43496W        W14096  30.708  34.188  14.065
43497W        W14097  44.274  15.644  13.321
43498W        W14098  21.296  17.009   3.525
43499W        W14099  18.232  26.634   0.172
43500W        W14100  14.887  12.685  13.249
43501W        W14101  26.726  44.070   3.652
43502W        W14102  27.584  30.467  13.631
43503W        W14103  29.546  35.032   0.902
43504W        W14104  33.904  32.480  10.678
43505W        W14105   1.720  15.745  11.206
43506W        W14106  30.179  38.837  14.846
43507W        W14107  23.243  22.905  14.894
43508W        W14108  30.754  25.123  12.120
43509W        W14109  24.742  29.390  14.475
43510W        W14110  19.145  19.808  12.994
43511W        W14111  34.394  42.160   1.678
43512W        W14112  23.708  29.156   2.870
43513W        W14113   7.372  33.575   0.817
43514W        W14114   4.033  24.218  11.197
43515W        W14115  26.872  36.999  10.714
43516W        W14116   0.809  33.334   0.477
43517W        W14117  26.867  32.782   0.361
43518W        W14118   4.440  18.793   4.696
43519W        W14119   8.996  43.084  10.405
43520W        W14120  44.927  14.294   3.922
43521W        W14121  28.790   7.354  12.610
43522W        W14122  40.163  37.625  11.999
43523W        W14123   9.806  33.545   0.088
43524W        W14124  38.780   5.352   1.529
43525W        W14125  41.002  21.219   0.722
43526W        W14126  39.868  29.644  14.443
43527W        W14127  32.898  30.406   3.365
43528W        W14128   4.120  24.592   4.665
43529W        W14129  19.146  18.054  11.227
43530W        W14130  44.458  22.406   1.321
43531W        W14131  22.039  30.615  12.045
43532W        W14132  39.264  34.435   1.297
43533W        W14133  27.282   9.701   2.770
43534W        W14134  29.065  44.070  14.787
43535W        W14135  31.014  22.640   2.820
43536W        W14136  21.135   6.373   3.965
43537W        W14137   4.534  23.165  14.253
43538W        W14138  14.271  26.755  12.556
43539W        W14139  27.579  38.532  13.258
43540W        W14140   1.127  11.019   0.886
43541W        W14141  39.391  30.900   0.920
43542W        W14142  25.544   9.789  11.615
43543W        W14143  37.309   0.863   2.305
43544W        W14144  21.669  31.017   0.457
43545W        W14145  31.988  35.937  12.366
43546W        W14146   4.984  10.222  10.709
43547W        W14147  31.651  19.005  11.750
43548W        W14148  15.790  30.196   3.285
43549W        W14149  29.702  18.638  11.631
43550W        W14150   5.772  30.919   2.669
43551W        W14151  14.125  10.787   0.698
43552W        W14152  10.835  38.886   1.804
43553W        W14153  34.670  16.673   3.288
43554W        W14154  23.744  21.726  11.551
43555W        W14155  32.210  15.068   2.949
43556W        W14156  41.431  35.140  13.841
43557W        W14157  42.222  32.042   4.491
43558W        W14158   2.767  35.864   0.266
43559W        W14159  44.630  30.818   0.185
43560W        W14160   0.791  38.239  13.813
43561W        W14161   9.732  40.896  14.923
43562W        W14162   1.811  26.938   2.320
43563W        W14163  35.626  12.734  12.400
43564W        W14164  40.753   8.460  12.111
43565W        W14165   6.729  20.029   1.504
43566W        W14166  26.026   6.430  12.792
43567W        W14167  30.931  11.720  12.134
43568W        W14168   7.852  11.283  11.098
43569W        W14169  41.439   4.150  12.567
43570W        W14170  33.362   1.444  12.923
43571W        W14171  13.069  14.897   4.517
43572W        W14172  36.466  32.320   3.265
43573W        W14173   4.400   2.629   1.896
43574W        W14174  43.753   2.266  13.363
43575W        W14175  21.534  22.538   1.505
43576W        W14176  19.904  30.841   3.330
43577W        W14177  11.844  18.196   2.828
43578W        W14178  34.308  26.627   2.303
43579W        W14179  39.920  19.038  13.774
43580W        W14180  21.152  42.986   4.794
43581W        W14181   8.810   3.965  13.933
43582W        W14182  36.583   7.882  11.328
43583W        W14183  24.552  21.051   2.289
43584W        W14184  22.098  26.074   1.978
43585W        W14185  44.886  31.913  13.803
43586W        W14186  20.296  21.287   1.322
43587W        W14187  41.569  33.576  13.745
43588W        W14188   7.157   7.512  11.975
43589W        W14189  25.140   8.150  13.410
43590W        W14190   2.010   9.981  12.147
43591W        W14191   2.943  17.466  11.142
43592W        W14192  10.222  43.253   2.273
43593W        W14193  18.585  34.751   2.319
43594W        W14194  41.720  39.016  14.882
43595W        W14195  41.107  14.208  14.879
43596W        W14196  14.240   3.334  10.656
43597W        W14197  41.160  20.137  14.221
43598W        W14198   3.667  20.157   0.423
43599W        W14199   2.402   9.779   1.241
43600W        W14200   0.239   1.470   1.750
43601W        W14201   3.212  41.733   1.016
43602W        W14202  44.272  38.559   0.661
43603W        W14203  22.227  13.607   2.202
43604W        W14204  16.802  25.866   9.931
43605W        W14205  12.215  28.276  11.623
43606W        W14206  23.671   0.959   1.228
43607W        W14207   3.328  39.974   0.040
43608W        W14208  34.717   2.854   3.106
43609W        W14209  27.496   3.768  10.402
43610W        W14210  28.862  17.737   3.143
43611W        W14211   2.455  28.644  14.273
43612W        W14212  42.503  34.925  11.075
43613W        W14213  17.611  11.897  12.453
43614W        W14214  29.026  38.979   0.750
43615W        W14215  16.700   1.805  12.924
43616W        W14216  41.295  44.544  11.643
43617W        W14217  28.481  39.090  12.529
43618W        W14218  15.218  24.769  14.109
43619W        W14219  31.345  39.428   2.776
43620W        W14220  29.894  44.547  11.550
43621W        W14221  12.455   4.491  11.143
43622W        W14222  16.891   9.307   4.140
43623W        W14223  44.701  38.526   0.321
43624W        W14224  17.053  36.183   3.035
43625W        W14225  14.838   3.448  13.350
43626W        W14226  27.078  43.265   1.444
43627W        W14227   7.588   2.480  13.475
43628W        W14228  40.527  39.440  12.049
43629W        W14229  39.684   4.838  12.895
43630W        W14230  10.665  39.323   3.088
43631W        W14231   8.777  37.875  13.445
43632W        W14232  14.383  41.057  12.751
43633W        W14233  37.996  20.478  14.391
43634W        W14234  24.800   2.643  12.572
43635W        W14235  10.628  32.642  12.801
43636W        W14236  32.341   5.644   2.064
43637W        W14237  31.894  15.158   1.919
43638W        W14238   7.788  29.216  13.198
43639W        W14239  35.956   7.266   3.642
43640W        W14240  22.567  26.862   2.888
43641W        W14241   5.764  37.559   3.327
43642W        W14242  29.741   4.843  13.940
43643W        W14243   5.801   6.789  11.479
43644W        W14244  19.685  10.626   1.645
43645W        W14245  19.077  42.913  14.315
43646W        W14246  16.829  30.895   3.830
43647W        W14247  10.816   6.508  12.569
43648W        W14248  36.065  29.670  11.115
43649W        W14249   9.301  38.674   4.467
43650W        W14250  18.314  42.818  14.765
43651W        W14251   1.294  26.451  12.036
43652W        W14252  26.011  27.506   0.903
43653W        W14253  21.007   8.237   2.919
43654W        W14254  12.465  30.088   0.434
43655W        W14255  35.371  35.619   1.794
43656W        W14256  31.156  26.224   3.422
43657W        W14257  27.933  27.520   3.947
43658W        W14258  27.155   6.277   3.914
43659W        W14259  26.111  42.584  12.475
43660W        W14260  39.075  39.079  13.453
43661W        W14261  10.432   7.853  11.444
43662W        W14262  15.251  29.405   0.592
43663W        W14263   0.797  44.806   2.055
43664W        W14264  44.304  18.850  11.468
43665W        W14265   0.998  32.423   4.642
43666W        W14266   9.461  17.805   3.309
43667W        W14267  14.819   5.123   3.767
43668W        W14268  18.599   5.965   0.950
43669W        W14269  42.358  15.256   0.312
43670W        W14270  13.159  19.182   1.345
43671W        W14271  13.770  36.166  11.250
43672W        W14272  31.638  19.559   3.684
43673W        W14273  40.520  29.016   0.785
43674W        W14274   7.786  25.986  14.443
43675W        W14275  22.117  41.121  13.599
43676W        W14276   5.522  33.828   0.895
43677W        W14277  31.544  24.765  13.920
43678W        W14278  15.081   8.327  12.504
43679W        W14279  39.326  13.751  10.709
43680W        W14280  35.326  11.585  10.485
43681W        W14281  33.058  32.025  11.960
43682W        W14282  35.493   8.819  12.516
43683W        W14283   0.530   5.152   1.357
43684W        W14284   1.184  14.686   1.204
43685W        W14285  25.666  15.788  10.701
43686W        W14286  42.766  26.432   4.545
43687W        W14287  39.407  27.836  10.082
43688W        W14288  19.050  15.200   0.377
43689W        W14289  27.384   6.167   3.007
43690W        W14290  43.960  31.179   2.640
43691W        W14291  31.901  37.027  13.396
43692W        W14292  38.398   2.769  11.799
43693W        W14293   8.692  44.162  10.071
43694W        W14294  11.457  19.115  12.238
43695W        W14295  12.856  43.463   0.756
43696W        W14296  23.653  21.040   3.132
43697W        W14297   2.329  19.674   3.041
43698W        W14298  37.992   0.341  14.299
43699W        W14299   4.837   2.456   4.355
43700W        W14300  30.473  34.074   2.672
43701W        W14301  11.765  20.647  14.709
43702W        W14302   1.482  33.979   5.189
43703W        W14303  11.191  38.567  10.942
43704W        W14304  15.311  12.102  14.933
43705W        W14305  35.631  29.400   3.193
43706W        W14306  28.124  42.835   5.150
43707W        W14307  43.570  13.917  13.427
43708W        W14308  35.438  14.821  13.858
43709W        W14309  22.432  23.654  13.754
43710W        W14310  38.524  34.565   4.980
43711W        W14311  30.658  43.328  12.603
43712W        W14312   2.748   8.937  12.058
43713W        W14313  29.622   1.649  12.516
43714W        W14314   2.240  38.852   4.884
43715W        W14315  30.021  31.090   4.547
43716W        W14316  43.858   6.626   2.660
43717W        W14317  38.000  18.112   4.969
43718W        W14318  20.325  44.670   4.579
43719W        W14319  19.751  40.287  10.701
43720W        W14320   9.331  27.303  12.152
43721W        W14321  19.536  30.774  13.928
43722W        W14322   2.448  28.963   1.797
43723W        W14323  23.018   1.984  12.499
43724W        W14324  24.656   4.887  13.306
43725W        W14325  23.678  20.840   2.667
43726W        W14326   3.128   7.238   0.063
43727W        W14327  28.554  22.161   1.635
43728W        W14328   3.495  15.091   1.832
43729W        W14329  40.582   4.152  11.427
43730W        W14330  35.040   8.944   2.113
43731W        W14331   1.737  18.048  11.223
43732W        W14332   0.576  18.177  12.065
43733W        W14333  36.440   7.178  11.176
43734W        W14334  37.354   9.605  14.278
43735W        W14335  18.551  15.716  12.026
43736W        W14336  19.658  36.007   1.383
43737W        W14337  24.876  41.314  12.936
43738W        W14338  20.746  15.015  10.374
43739W        W14339  37.029  33.377  11.714
43740W        W14340  10.649  31.149   0.690
43741W        W14341  11.157  10.428  11.147
43742W        W14342   2.692  18.240   2.209
43743W        W14343  24.058  17.038  11.929
43744W        W14344  16.047   2.972  14.682
43745W        W14345  23.591  18.005  10.492
43746W        W14346   8.747  15.154   4.029
43747W        W14347  40.805  43.452   2.989
43748W        W14348   2.161  22.376   4.625
43749W        W14349  40.567  25.205  11.657
43750W        W14350  19.017  34.862  14.480
43751W        W14351  39.376  37.482   3.979
43752W        W14352  13.885  36.753   1.321
43753W        W14353  41.384  16.584   2.314
43754W        W14354  38.559  31.608  11.252
43755W        W14355   5.331  14.531  11.601
43756W        W14356   2.173   2.886   1.872
43757W        W14357  37.872   8.387  12.182
43758W        W14358  13.560  18.057  11.153
43759W        W14359  18.761   9.220   2.230
43760W        W14360  10.149   6.829  11.529
43761W        W14361   1.316  34.127  11.980
43762W        W14362   8.265  11.098   2.822
43763W        W14363   4.277  10.583   2.955
43764W        W14364  44.729   9.373   1.418
43765W        W14365  32.232  28.683   3.655
43766W        W14366  28.625  33.097  10.376
43767W        W14367  18.927  24.579   3.780
43768W        W14368  43.950  15.756  14.705
43769W        W14369  11.373  23.669  11.903
43770W        W14370  10.156  38.407  13.978
43771W        W14371  39.945  10.331  11.011
43772W        W14372  27.472  22.684   3.859
43773W        W14373   7.323  14.287  14.722
43774W        W14374   5.724  23.929  13.520
43775W        W14375   4.487   3.260  13.890
43776W        W14376  14.181   0.336  11.614
43777W        W14377   8.697  36.098   0.881
43778W        W14378  21.228  14.242  14.361
43779W        W14379  29.872  19.777   3.240
43780W        W14380  37.383  16.624  14.425
43781W        W14381  13.238   4.435  11.546
43782W        W14382  27.426  25.172  13.869
43783W        W14383  17.790  10.758   0.437
43784W        W14384   3.256  27.930  14.961
43785W        W14385   1.468  30.558   2.891
43786W        W14386  39.943   1.049  13.525
43787W        W14387  44.963  42.590   3.247
43788W        W14388  40.408  10.038   1.418
43789W        W14389  16.885  36.263   5.333
43790W        W14390  13.343  38.317   0.442
43791W        W14391  18.219  14.154  14.329
43792W        W14392  10.115  13.235   2.654
43793W        W14393  33.165   7.785   4.036
43794W        W14394  30.141   5.520  13.091
43795W        W14395  24.411  16.345   3.385
43796W        W14396  40.517  21.251   3.886
43797W        W14397   6.784   9.193   4.667
43798W        W14398  16.687  23.840  12.039
43799W        W14399   2.652  15.776  13.416
43800W        W14400  19.344  21.133  14.333
43801W        W14401  16.577  13.350  14.925
43802W        W14402  11.768  19.589   0.783
43803W        W14403   1.804   5.794   1.398
43804W        W14404  41.764  12.586   4.186
43805W        W14405   9.901  41.815  11.430
43806W        W14406  39.245  14.444  13.367
43807W        W14407   0.028  36.950   2.426
43808W        W14408  38.261   6.614  12.021
43809W        W14409  25.439  36.928   0.877
43810W        W14410  35.139   4.892  10.698
43811W        W14411  31.903   5.291   1.665
43812W        W14412  12.537  13.202  13.279
43813W        W14413  13.108  18.616  12.676
43814W        W14414   4.288  43.353  11.484
43815W        W14415  26.530   5.105   3.943
43816W        W14416  23.918  16.574   4.476
43817W        W14417  40.510   8.836  11.859
43818W        W14418  44.443   8.861   4.550
43819W        W14419  44.080   9.133  14.991
43820W        W14420  42.598  38.050  13.542
43821W        W14421  25.111   8.041   1.853
43822W        W14422  31.437   6.347  10.920
43823W        W14423  15.077  44.759   1.726
43824W        W14424  10.202  39.487  14.873
43825W        W14425   4.584  38.858   5.017
43826W        W14426  15.283  10.108   3.309
43827W        W14427   3.845  28.453   2.162
43828W        W14428  26.040  36.569  13.935
43829W        W14429  41.394  33.638   4.414
43830W        W14430  29.065   2.384  10.746
43831W        W14431  13.741  12.332   1.387
43832W        W14432   7.385  10.596   2.785
43833W        W14433   3.954  21.024   3.266
43834W        W14434  42.957  28.100   3.449
43835W        W14435  17.492  26.907   0.892
43836W        W14436  20.671   7.149  13.441
43837W        W14437   5.713  32.150   0.973
43838W        W14438  38.887  18.642   3.610
43839W        W14439  27.304   0.146   1.000
43840W        W14440  21.452  14.100   3.665
43841W        W14441  41.421   8.249   4.391
43842W        W14442   8.639  43.065  11.353
43843W        W14443  36.096  24.705   3.613
43844W        W14444   2.923  39.100   1.291
43845W        W14445  19.017  36.282  14.885
43846W        W14446  39.412  16.563   1.242
43847W        W14447  32.173  21.768  14.874
43848W        W14448  14.609  41.003   1.257
43849W        W14449   0.996  12.403   3.787
43850W        W14450  26.620  22.139   4.544
43851W        W14451  19.309   8.326   0.502
43852W        W14452  23.829  26.843   4.569
43853W        W14453  31.897  31.902   4.803
43854W        W14454  28.507   2.360  12.102
43855W        W14455  20.235   9.162  10.613
43856W        W14456  17.138  27.919  10.659
43857W        W14457  15.920  39.353   0.999
43858W        W14458  30.374  15.219   3.574
43859W        W14459  11.057  12.102   1.799
43860W        W14460  31.710  13.053   3.732
43861W        W14461  31.667  19.643   1.745
43862W        W14462  13.883  17.198  14.545
43863W        W14463  26.556  11.586   4.521
43864W        W14464  18.615  14.549   4.699
43865W        W14465  30.436  44.329   4.422
43866W        W14466  23.113  43.193  10.644
43867W        W14467  35.544  11.285   4.715
43868W        W14468  12.864   6.391   2.908
43869W        W14469  25.481  29.485   2.148
43870W        W14470  12.589  21.488   0.792
43871W        W14471  35.989   2.823  14.816
43872W        W14472  18.614  29.580  12.919
43873W        W14473   1.400   6.086   2.418
43874W        W14474  28.651   7.165  13.969
43875W        W14475  20.052  22.000   4.395
43876W        W14476  37.985   8.145  12.620
43877W        W14477   2.331  13.768  13.495
43878W        W14478   5.771  30.285   2.631
43879W        W14479  44.026  33.238  12.025
43880W        W14480  31.917  16.645  12.852
43881W        W14481   5.972  40.321   2.766
43882W        W14482  26.142  12.052   2.745
43883W        W14483   6.914  17.626   2.794
43884W        W14484   6.164  30.026   3.400
43885W        W14485  12.377   0.792   1.760
43886W        W14486  16.959  38.003  10.793
43887W        W14487   1.926  16.341   1.726
43888W        W14488   3.732  35.691   5.336
43889W        W14489  28.091  21.261  10.560
43890W        W14490   5.693  12.715   0.374
43891W        W14491  43.701  39.297   1.508
43892W        W14492  23.459   4.481  12.500
43893W        W14493  19.584  25.041   2.346
43894W        W14494  32.731   5.299   3.104
43895W        W14495  15.635  39.329  14.351
43896W        W14496  32.706  23.882  13.806
43897W        W14497  34.637   1.290  11.171
43898W        W14498   1.253   3.163   1.752
43899W        W14499  13.621   0.357   3.616
43900W        W14500  41.980  36.025   1.916
43901W        W14501  29.743  24.054  14.476
43902W        W14502  10.617   4.076  13.357
43903W        W14503  32.632  20.517  10.718
43904W        W14504  25.637  34.001   3.510
43905W        W14505  24.937  19.661  12.987
43906W        W14506   8.208  35.954   0.823
43907W        W14507  13.497  20.309   3.157
43908W        W14508  14.248  18.738   2.877
43909W        W14509  20.765  28.091   1.780
43910W        W14510  26.004  40.431  10.741
43911W        W14511  16.225  16.500  14.877
43912W        W14512  36.091  18.382   3.720
43913W        W14513  29.648  11.381  14.021
43914W        W14514  12.343  16.679   3.746
43915W        W14515  12.388  36.132   1.944
43916W        W14516  37.069  11.055  13.872
43917W        W14517  30.620   1.229  12.792
43918W        W14518  44.565   8.974   3.752
43919W        W14519   5.050  41.033   1.910
43920W        W14520   9.826  29.049  12.925
43921W        W14521   2.868  12.361  13.036
43922W        W14522   3.388  18.162   0.881
43923W        W14523  21.593  14.909   0.939
43924W        W14524  36.158  16.543  12.030
43925W        W14525  36.545   0.671   1.837
43926W        W14526  32.496  16.455   2.519
43927W        W14527  32.476  33.819   4.618
43928W        W14528   8.439  22.793   4.209
43929W        W14529  29.211  44.785   4.001
43930W        W14530  42.991  40.837   3.251
43931W        W14531  18.884   1.886  11.534
43932W        W14532  13.316  18.020  13.570
43933W        W14533  41.063  16.306   4.537
43934W        W14534  28.207  25.901   1.825
43935W        W14535  14.656  14.249  13.574
43936W        W14536  43.729  17.239   1.443
43937W        W14537  37.989  19.611   0.668
43938W        W14538   0.009  44.170   4.508
43939W        W14539  19.121  44.106  11.571
43940W        W14540  34.915   8.253   5.167
43941W        W14541  36.996  21.117   0.752
43942W        W14542  15.753  43.591   4.010
43943W        W14543  22.399  23.476  11.643
43944W        W14544  34.058  31.955  10.662
43945W        W14545  41.362  26.202   4.109
43946W        W14546  17.637  38.483   4.477
43947W        W14547  24.753  14.337   0.401
43948W        W14548  27.675   7.293   1.363
43949W        W14549  33.059   3.235   0.535
43950W        W14550  21.079  35.998  11.637
43951W        W14551  42.456  28.616  11.136
43952W        W14552   4.172  35.364   2.325
43953W        W14553  32.486  28.695   2.764
43954W        W14554  33.992   0.287   1.993
43955W        W14555   6.544  31.362  13.972
43956W        W14556  32.910  19.001   3.064
43957W        W14557   0.969  10.365   2.386
43958W        W14558   1.893   4.657   1.777
43959W        W14559   7.709  24.593   3.626
43960W        W14560  38.483  10.164   0.330
43961W        W14561  36.532  19.644  11.321
43962W        W14562  25.101  28.118   0.928
43963W        W14563  17.263  12.050   0.517
43964W        W14564  23.097  34.028  11.546
43965W        W14565  11.324  13.111  14.664
43966W        W14566  23.473  12.015  10.987
43967W        W14567  36.395  23.751  14.209
43968W        W14568  17.191   9.182  12.352
43969W        W14569  37.690  15.145   3.303
43970W        W14570   4.235  21.486   4.518
43971W        W14571  32.651  34.456  14.091
43972W        W14572  10.148  12.702  11.510
43973W        W14573  25.341  28.766  12.065
43974W        W14574  39.015  14.953   1.716
43975W        W14575  39.793  38.620   0.011
43976W        W14576  41.413   9.706   2.384
43977W        W14577  38.433  28.368   2.875
43978W        W14578   2.692  42.019  14.032
43979W        W14579   1.158  17.663  13.524
43980W        W14580  10.344  16.188  12.481
43981W        W14581   4.077  22.376  11.090
43982W        W14582   9.805  34.242   2.457
43983W        W14583   6.803  13.914   5.068
43984W        W14584  24.059   9.876  13.097
43985W        W14585  37.273  20.076  11.347
43986W        W14586  24.006  40.360   0.077
43987W        W14587  38.021  13.314  14.534
43988W        W14588  37.831  18.750  11.518
43989W        W14589  44.770  19.340  14.548
43990W        W14590   0.773  18.626   2.831
43991W        W14591  30.395  35.097  11.987
43992W        W14592   2.386   5.513   1.920
43993W        W14593  18.506  19.780  14.884
43994W        W14594   9.403   2.442   3.569
43995W        W14595   6.447  11.250  11.007
43996W        W14596  17.304  12.306  12.431
43997W        W14597   2.619   5.456   4.922
43998W        W14598  34.046  28.529  14.920
43999W        W14599  31.086  33.317   2.840
44000W        W14600  38.557   7.791   1.967
44001W        W14601  12.362  11.812  10.719
44002W        W14602   8.958  10.644  11.437
44003W        W14603  37.806  26.919  12.506
44004W        W14604  13.399  14.264   3.965
44005W        W14605   7.778  28.263  11.636
44006W        W14606  24.680  32.149   2.292
44007W        W14607  29.982  37.860  13.471
44008W        W14608   4.810  25.647   0.298
44009W        W14609  31.091   6.774   0.942
44010W        W14610  28.154  15.653   2.399
44011W        W14611  21.437  33.376   3.501
44012W        W14612   7.346   4.352  10.405
44013W        W14613  24.460   2.745  13.975
44014W        W14614  36.986  43.723  12.474
44015W        W14615  37.819  26.587   1.233
44016W        W14616  33.085  19.560  11.767
44017W        W14617  13.761  30.132   3.643
44018W        W14618  26.997  17.745  13.454
44019W        W14619  41.277  20.835   2.852
44020W        W14620  32.178  23.798  13.903
44021W        W14621   5.741  24.947   0.133
44022W        W14622  12.627  24.638  14.159
44023W        W14623  10.565  29.891  12.487
44024W        W14624  11.836  11.254  11.235
44025W        W14625  18.265  39.091   1.255
44026W        W14626  11.495  41.256   2.205
44027W        W14627  18.565  15.383   2.734
44028W        W14628  37.631   6.922   1.912
44029W        W14629  32.675  22.543  14.040
44030W        W14630  16.213  43.515  14.832
44031W        W14631   4.521  42.168  11.502
44032W        W14632   9.602   3.973   4.878
44033W        W14633  38.769  22.460  11.386
44034W        W14634  43.863  10.880   0.760
44035W        W14635  31.436  17.921  12.391
44036W        W14636  43.294  16.570   3.631
44037W        W14637   3.106  11.190  11.566
44038W        W14638  18.768  16.768  11.948
44039W        W14639  12.908  27.722  11.415
44040W        W14640  40.564   5.838  12.577
44041W        W14641  35.853  42.011  13.868
44042W        W14642  42.339  25.466   0.722
44043W        W14643  31.584   8.106  12.192
44044W        W14644  13.815   8.690   4.085
44045W        W14645   7.374  33.901  14.839
44046W        W14646   3.060  16.137  10.568
44047W        W14647  33.223  27.542  13.822
44048W        W14648  29.064   6.932  10.708
44049W        W14649  39.329  32.903   4.796
44050W        W14650  11.066  35.485   1.614
44051W        W14651  14.175  32.053  13.337
44052W        W14652  22.749  38.332   3.967
44053W        W14653  30.557  44.489  14.063
44054W        W14654   6.654   3.860  12.373
44055W        W14655   8.113  18.679   0.268
44056W        W14656  23.972  30.793  10.724
44057W        W14657  22.080  11.124   3.118
44058W        W14658  42.221  42.283  11.262
44059W        W14659  28.943  31.015   3.194
44060W        W14660   1.968   3.901  14.733
44061W        W14661  42.544  27.398   2.130
44062W        W14662  14.663   8.754   1.636
44063W        W14663  39.715  14.072  10.596
44064W        W14664  33.520   0.517   2.849
44065W        W14665  41.626  30.579  12.554
44066W        W14666   7.960   2.225  11.661
44067W        W14667  15.203   3.779  11.966
44068W        W14668  27.077  32.429   1.607
44069W        W14669  16.594  19.573   4.365
44070W        W14670   0.422  21.715  11.565
44071W        W14671  13.948   3.492   0.969
44072W        W14672  17.829  43.018   3.549
44073W        W14673   5.699  35.693   0.776
44074W        W14674  12.747  11.236  11.114
44075W        W14675  27.350   2.274   2.625
44076W        W14676  24.488  12.662   2.992
44077W        W14677  43.941  34.611   0.466
44078W        W14678  34.633  19.444   3.382
44079W        W14679  33.954  34.563   2.366
44080W        W14680  15.008  16.412  14.861
44081W        W14681  43.842  29.153  11.076
44082W        W14682  10.166  15.960   2.280
44083W        W14683  33.372   6.206   1.312
44084W        W14684  23.172  19.433   1.205
44085W        W14685  36.038  34.906   0.196
44086W        W14686  35.502   5.127   2.614
44087W        W14687  41.210  13.499  13.562
44088W        W14688  32.444  18.805   3.134
44089W        W14689  27.579  19.299   1.733
44090W        W14690  11.834  27.578   2.479
44091W        W14691  30.727  37.111   1.492
44092W        W14692  33.356  30.695  10.696
44093W        W14693   4.301  10.849   4.929
44094W        W14694  41.096  43.266  11.240
44095W        W14695   5.181   0.350  13.817
44096W        W14696  34.606  25.967  12.432
44097W        W14697  18.552   2.332  14.865
44098W        W14698   4.045  37.187  11.102
44099W        W14699  12.676  10.419   0.742
44100W        W14700  19.006  15.095  11.609
44101W        W14701  39.398   1.003   2.300
44102W        W14702   8.363  17.653  14.530
44103W        W14703  14.682   5.526   1.741
44104W        W14704  34.048   5.884  12.546
44105W        W14705  22.875   8.025  13.869
44106W        W14706  32.497  19.657   4.062
44107W        W14707  33.673  14.130   4.179
44108W        W14708  22.698   0.353  14.840
44109W        W14709  17.887  35.971  10.717
44110W        W14710  32.889   4.759  13.292
44111W        W14711   1.803  30.264  10.488
44112W        W14712   1.887  32.370  12.571
44113W        W14713  33.379  43.767   2.807
44114W        W14714  40.386  22.654   1.202
44115W        W14715  15.073  34.283  12.475
44116W        W14716   2.335  24.540   4.166
44117W        W14717  36.361  25.928  14.403
44118W        W14718   9.314  44.802  12.822
44119W        W14719   7.741  41.048  14.731
44120W        W14720  13.122  35.256  13.278
44121W        W14721  43.460   5.669  14.834
44122W        W14722  26.725   9.943  14.822
44123W        W14723  30.033  15.327  14.540
44124W        W14724   4.058  42.897  13.877
44125W        W14725  34.449  41.096   0.831
44126W        W14726  17.092  41.334  11.449
44127W        W14727   6.802  27.707  14.989
44128W        W14728  43.209   8.636  10.290
44129W        W14729  20.051  27.017   0.393
44130W        W14730  28.525  31.124  14.771
44131W        W14731  31.482  44.419   2.869
44132W        W14732  27.108  40.751   4.087
44133W        W14733   4.484  15.067   2.745
44134W        W14734   4.366  35.673   1.472
44135W        W14735  40.530  40.332  10.560
44136W        W14736  27.210  38.818   4.131
44137W        W14737  20.162   6.576   0.400
44138W        W14738  27.523   5.389   0.656
44139W        W14739   9.662  41.299  12.708
44140W        W14740  16.799   6.389  11.178
44141W        W14741   8.297  26.794   1.923
44142W        W14742  10.304  34.547  11.869
44143W        W14743  10.709  39.347  11.598
44144W        W14744  30.877  32.966  11.598
44145W        W14745   7.363  43.394   1.449
44146W        W14746  35.229  18.673   4.594
44147W        W14747   7.942  19.636  11.484
44148W        W14748  33.050  41.741   4.290
44149W        W14749  34.293  37.972  12.366
44150W        W14750  32.434  34.850   4.655
44151W        W14751  27.273  42.206  11.094
44152W        W14752  37.156   2.354  13.053
44153W        W14753   7.853  22.806   1.337
44154W        W14754   4.739  20.189  13.329
44155W        W14755  15.771  11.201  14.954
44156W        W14756  19.272   8.959  13.002
44157W        W14757  22.336  13.139  14.941
44158W        W14758  33.410  15.392   3.688
44159W        W14759  27.595  18.454   3.261
44160W        W14760   4.297   6.889  11.555
44161W        W14761  10.309   2.656   4.557
44162W        W14762  10.662  35.367   0.718
44163W        W14763  44.545  28.482   0.339
44164W        W14764  20.096  25.655   0.771
44165W        W14765  42.797  15.239  14.362
44166W        W14766  19.105  36.040  12.362
44167W        W14767  40.579  21.794   4.512
44168W        W14768  18.292  26.588   0.753
44169W        W14769   4.844   0.969  12.513
44170W        W14770  11.830   7.705  10.653
44171W        W14771  33.345   0.032  10.717
44172W        W14772   2.858  13.175   4.088
44173W        W14773   9.023  44.429   0.969
44174W        W14774  21.186  11.145   2.792
44175W        W14775  23.902   1.224   0.512
44176W        W14776  33.056  20.618   3.248
44177W        W14777   6.888  22.091  13.816
44178W        W14778  15.955  44.093   0.413
44179W        W14779   4.952  20.769  11.185
44180W        W14780  16.224  29.681  11.805
44181W        W14781  36.550  30.917  11.152
44182W        W14782  43.917  35.594   2.364
44183W        W14783  18.722  36.340   1.283
44184W        W14784   7.129  40.802  13.885
44185W        W14785  21.976  16.035  13.009
44186W        W14786  22.083   7.270   0.908
44187W        W14787   4.828  35.506   0.735
44188W        W14788  40.320  22.431  13.841
44189W        W14789  26.598  32.879  12.875
44190W        W14790  32.261  29.923  13.356
44191W        W14791  13.689  37.220   1.415
44192W        W14792  12.649   2.258   3.585
44193W        W14793  12.378  12.861  11.683
44194W        W14794  39.347  30.350  14.723
44195W        W14795  33.637   7.318  11.864
44196W        W14796   2.326  21.389   4.845
44197W        W14797  43.269  35.822   1.713
44198W        W14798   0.553  31.399   1.866
44199W        W14799  25.127  44.590  13.112
44200W        W14800   3.279  15.579  11.060
44201W        W14801  25.592  23.486  11.219
44202W        W14802  16.750  23.783   3.811
44203W        W14803  10.949  12.738   0.048
44204W        W14804  10.439  37.966   1.594
44205W        W14805  32.014  15.891   0.343
44206W        W14806  13.150  39.000   2.331
44207W        W14807   8.953  33.528   3.140
44208W        W14808  44.315   0.992   4.211
44209W        W14809  38.533  42.273   3.341
44210W        W14810  36.328  19.226   3.746
44211W        W14811  32.612   4.698  13.774
44212W        W14812  40.327  12.168   3.373
44213W        W14813  11.870  38.161  13.552
44214W        W14814  26.312  36.930  12.943
44215W        W14815  40.152   4.055   9.977
44216W        W14816  27.244   6.660  11.143
44217W        W14817   4.368  16.617   1.314
44218W        W14818  37.534  40.512   3.386
44219W        W14819   5.504  26.549   4.731
44220W        W14820   9.690  36.518  11.686
44221W        W14821  15.675   5.849   0.222
44222W        W14822   7.315  42.810   3.595
44223W        W14823   6.445  28.868   4.639
44224W        W14824  24.463   7.847   2.733
44225W        W14825  35.818  20.173  14.995
44226W        W14826   9.166  30.061  14.790
44227W        W14827   5.282  32.967   4.891
44228W        W14828   6.325  20.856   3.060
44229W        W14829  43.261  43.354  12.173
44230W        W14830  40.838  20.173   3.365
44231W        W14831  36.159  19.444   1.218
44232W        W14832  38.492  11.576  11.972
44233W        W14833  36.523  35.667   3.708
44234W        W14834  29.908   1.060   3.342
44235W        W14835  15.000  26.979   1.035
44236W        W14836  33.425   3.943  14.072
44237W        W14837  19.659   2.528   1.271
44238W        W14838   8.449  29.579   2.803
44239W        W14839   4.392  24.667   4.196
44240W        W14840  36.437   1.486  12.494
44241W        W14841  14.208  22.057   1.870
44242W        W14842  33.806   9.208   1.948
44243W        W14843   4.667  17.165   5.007
44244W        W14844  37.838  17.739   4.596
44245W        W14845  19.275  44.941   1.788
44246W        W14846  12.192  16.153  13.925
44247W        W14847  33.290  26.401  11.172
44248W        W14848  20.671  27.715   1.385
44249W        W14849  22.438  28.553   1.998
44250W        W14850   6.242  11.783  12.612
44251W        W14851  14.391  41.373  10.655
44252W        W14852  40.996  36.902  10.705
44253W        W14853   6.984  31.343   1.114
44254W        W14854   0.446  25.133  13.449
44255W        W14855  22.024   2.229  11.034
44256W        W14856   0.002  22.893  12.878
44257W        W14857  12.519  28.960   4.713
44258W        W14858  30.966  28.161   4.879
44259W        W14859  15.540  11.754  12.843
44260W        W14860  41.772   3.042  14.571
44261W        W14861  34.104  41.759  12.609
44262W        W14862  13.845  26.674   1.768
44263W        W14863  29.440  42.837  11.507
44264W        W14864  14.894   5.858   0.760
44265W        W14865  24.795  26.929  13.844
44266W        W14866   0.935  35.222  10.779
44267W        W14867  34.569   3.225  11.506
44268W        W14868  24.226  28.005   2.101
44269W        W14869   2.478  29.888  12.047
44270W        W14870  40.248  12.051   2.359
44271W        W14871   0.832   7.420  10.191
44272W        W14872  43.432   9.042  10.528
44273W        W14873  23.637  27.130   0.258
44274W        W14874  31.166  14.901   0.916
44275W        W14875  35.919  31.355   2.887
44276W        W14876   2.415  10.291  12.381
44277W        W14877  23.458  39.384  10.293
44278W        W14878  12.160  23.825  14.030
44279W        W14879  14.312  24.032   4.047
44280W        W14880  10.824   9.347   1.430
44281W        W14881  16.327  14.234   2.855
44282W        W14882  15.926  15.017   1.827
44283W        W14883  39.558  17.139   4.838
44284W        W14884  44.368  11.768   3.351
44285W        W14885  15.042  16.434   1.250
44286W        W14886  42.894  37.652  14.243
44287W        W14887   7.218  23.763   3.311
44288W        W14888  37.605  27.296  14.964
44289W        W14889   8.503  33.645  11.149
44290W        W14890  41.874  43.807   0.392
44291W        W14891  40.611  40.458  12.415
44292W        W14892  14.137  16.142  10.967
44293W        W14893   6.726  14.065   4.186
44294W        W14894  10.529   6.851  13.351
44295W        W14895   4.649  22.855   1.920
44296W        W14896  12.440  35.605   4.621
44297W        W14897  13.946  32.945   1.386
44298W        W14898   0.187   8.368  11.511
44299W        W14899  21.505  42.845  12.124
44300W        W14900  44.403  35.981   1.178
44301W        W14901  25.974  30.514  10.748
44302W        W14902  35.288  10.567   3.128
44303W        W14903  41.978  27.201  14.760
44304W        W14904  14.829  41.085   2.371
44305W        W14905   7.849  18.463   1.743
44306W        W14906   0.789   0.878   3.430
44307W        W14907  11.299  21.492   4.273
44308W        W14908  36.069  22.293  10.434
44309W        W14909   4.835  41.882  12.831
44310W        W14910  33.281   4.463  12.113
44311W        W14911  40.949  26.567   0.350
44312W        W14912  29.390  10.636  14.531
44313W        W14913  40.791   0.618   2.671
44314W        W14914  36.123  29.711  13.788
44315W        W14915  40.226  11.621   2.672
44316W        W14916  17.232  18.781   1.831
44317W        W14917  22.113  28.591   4.706
44318W        W14918  30.675   7.792   0.702
44319W        W14919  32.356  18.535   4.084
44320W        W14920  12.246  37.859  12.075
44321W        W14921  10.400  38.990   0.454
44322W        W14922  38.508  13.249  13.060
44323W        W14923  18.628  28.772  10.683
44324W        W14924  11.919  15.077   0.427
44325W        W14925  14.406  40.862   4.927
44326W        W14926   4.688  36.130  13.676
44327W        W14927  10.869  15.124   3.248
44328W        W14928  41.071  25.826  14.759
44329W        W14929  15.964  35.913   2.877
44330W        W14930  21.651  24.624   1.325
44331W        W14931  28.338  33.518  10.780
44332W        W14932   0.847  40.156  10.666
44333W        W14933  29.377  39.378   0.756
44334W        W14934  13.308  30.642  12.340
44335W        W14935  30.472   3.341   4.921
44336W        W14936  23.237  37.394   1.973
44337W        W14937  21.777  30.172  12.072
44338W        W14938   2.462  39.689   4.574
44339W        W14939  29.942  23.578  13.972
44340W        W14940  33.602  25.847   2.198
44341W        W14941   2.857  28.887  11.613
44342W        W14942  29.927   3.028  12.955
44343W        W14943  25.208  37.386   0.801
44344W        W14944  17.252  22.023   4.877
44345W        W14945   4.343  15.727  14.204
44346W        W14946  40.927  34.907  13.773
44347W        W14947  29.876  38.423   2.858
44348W        W14948  24.963  26.183   1.247
44349W        W14949  31.463  20.054  11.481
44350W        W14950   7.443  26.528   4.569
44351W        W14951  28.702  30.147  12.491
44352W        W14952  16.872  39.074   4.343
44353W        W14953  11.593  20.142  13.013
44354W        W14954  23.417  28.649  12.139
44355W        W14955   6.196  11.262   1.670
44356W        W14956  33.434  33.258   5.123
44357W        W14957  25.676  28.653   0.462
44358W        W14958  24.115  43.569   2.390
44359W        W14959  41.976  25.679   4.186
44360W        W14960  24.326  21.133  11.113
44361W        W14961  13.336  44.076   4.917
44362W        W14962  16.055   7.013  13.986
44363W        W14963  28.935  21.685  13.518
44364W        W14964  23.541  20.487   1.271
44365W        W14965  41.148   4.852  14.543
44366W        W14966  25.707   1.750  12.382
44367W        W14967  15.465  40.161   5.197
44368W        W14968  29.753  44.867  13.305
44369W        W14969  29.377   8.123  11.558
44370W        W14970   0.701   1.343   3.234
44371W        W14971  42.119  14.255   1.638
44372W        W14972  44.470   9.529   0.830
44373W        W14973   3.166  27.191  11.044
44374W        W14974  31.391  17.673  14.447
44375W        W14975  23.463  44.224  13.963
44376W        W14976  28.929  26.918  11.274
44377W        W14977  11.817   2.332  13.997
44378W        W14978  29.820  26.953  11.453
44379W        W14979  23.498  17.587   3.161
44380W        W14980  43.970  32.388  13.065
44381W        W14981  26.626  29.112  11.368
44382W        W14982  28.759  25.244   0.345
44383W        W14983  24.796  13.759   2.472
44384W        W14984  29.977  28.891  10.795
44385W        W14985  34.528  27.604   2.956
44386W        W14986  19.255  23.723  14.906
44387W        W14987  39.815  35.358   0.972
44388W        W14988  29.518  20.298  11.525
44389W        W14989  42.459  35.305  14.933
44390W        W14990  26.000  27.982  14.983
44391W        W14991  26.511  24.471  14.328
44392W        W14992   2.278   1.771  10.685
44393W        W14993  13.334   2.187   4.152
44394W        W14994  39.797  38.423   4.194
44395W        W14995  32.144  37.859  12.056
44396W        W14996   4.325  34.054   3.426
44397W        W14997  11.071   3.608   2.716
44398W        W14998  12.725   4.392  11.569
44399W        W14999  42.305  11.271   1.315
44400W        W15000  13.304  21.290  14.781
44401W        W15001  21.288  34.950   0.767
44402W        W15002  42.763   2.968  11.620
44403W        W15003  25.654  17.668   1.379
44404W        W15004  10.396  42.567   4.096
44405W        W15005  11.509   7.262   1.484
44406W        W15006  32.679   6.832  10.837
44407W        W15007  37.019  42.241   3.980
44408W        W15008  27.706  31.394  14.481
44409W        W15009   2.654  34.876   2.341
44410W        W15010   8.340  41.431   0.910
44411W        W15011  41.266  25.633  11.991
44412W        W15012  44.648  38.871  14.913
44413W        W15013  37.849   9.933  10.493
44414W        W15014  32.638  31.656   2.195
44415W        W15015  37.295  14.023  14.473
44416W        W15016  21.044  17.210  12.087
44417W        W15017  22.953  27.705  14.296
44418W        W15018   6.656   7.778   2.512
44419W        W15019  10.077   7.912  13.172
44420W        W15020  16.294  44.386  12.974
44421W        W15021  13.374  44.285   3.337
44422W        W15022  21.984  18.316  12.496
44423W        W15023  44.747  35.944  13.108
44424W        W15024  37.503   8.803   4.803
44425W        W15025   1.407  27.141   3.575
44426W        W15026  43.409  10.584   2.000
44427W        W15027  11.767   8.966  12.491
44428W        W15028   7.781  14.226   1.885
44429W        W15029   6.886  14.505   0.477
44430W        W15030  41.566   6.226   2.683
44431W        W15031  43.815  11.163  13.035
44432W        W15032  25.713   9.689   4.979
44433W        W15033   4.762  24.082   0.561
44434W        W15034  13.762  30.976   0.292
44435W        W15035  20.077   1.985   1.809
44436W        W15036  30.160  34.214  10.824
44437W        W15037  43.073  27.032  11.108
44438W        W15038  37.722  28.975  10.146
44439W        W15039   0.585  10.719   3.362
44440W        W15040  33.950   8.783  13.280
44441W        W15041  15.451  32.831   4.459
44442W        W15042  22.197   7.688   3.728
44443W        W15043  17.272   7.652   3.526
44444W        W15044   1.920  32.349   0.807
44445W        W15045   7.976  37.959   3.577
44446W        W15046   2.189   2.797  11.848
44447W        W15047  39.501  41.232  12.066
44448W        W15048  38.357   0.659  14.530
44449W        W15049  42.966  40.276  12.181
44450W        W15050  23.561  36.478   2.758
44451W        W15051  27.451  15.383  11.512
44452W        W15052   9.788  43.272   3.860
44453W        W15053   8.887  36.442  10.556
44454W        W15054  20.057  11.790   3.628
44455W        W15055   4.075  21.160   0.667
44456W        W15056  43.025   2.743  11.149
44457W        W15057  44.314   5.401   3.179
44458W        W15058  43.626  35.309  13.046
44459W        W15059  20.472   4.656   1.384
44460W        W15060  37.168  21.502  13.566
44461W        W15061  28.536  36.990   1.765
44462W        W15062   7.274  22.009   3.205
44463W        W15063  41.478  16.366   1.851
44464W        W15064  24.120  36.664  10.706
44465W        W15065  42.063  37.534  11.189
44466W        W15066  16.905  36.281   2.381
44467W        W15067  17.343   7.417  11.218
44468W        W15068  36.040  33.128  14.761
44469W        W15069  29.217  34.423  11.089
44470W        W15070  41.876   7.747   2.887
44471W        W15071  34.112  25.957  12.448
44472W        W15072  32.800   4.783  14.296
44473W        W15073  35.042  32.802  11.991
44474W        W15074  44.711   2.357   4.427
44475W        W15075  38.359  21.554  14.815
44476W        W15076  44.459   7.838   2.332
44477W        W15077  11.195   4.002   4.527
44478W        W15078  34.076   1.779   4.635
44479W        W15079  37.266  28.038   0.380
44480W        W15080  39.122  28.101  13.031
44481W        W15081  38.315  12.065   2.225
44482W        W15082  32.075  11.393  11.165
44483W        W15083  25.508   9.473  12.072
44484W        W15084  35.784  13.211  12.500
44485W        W15085  44.401  21.081   3.634
44486W        W15086  29.139   6.740   0.760
44487W        W15087  41.233  28.142   2.291
44488W        W15088   5.848  44.589   4.082
44489W        W15089  32.466  21.696   4.593
44490W        W15090  29.526  19.014   5.078
44491W        W15091  34.028  41.292  13.844
44492W        W15092   0.206   8.849  13.882
44493W        W15093  30.552  26.577  13.881
44494W        W15094  14.837  15.926  14.863
44495W        W15095  30.481   0.721   2.235
44496W        W15096  26.596  42.339  12.485
44497W        W15097  36.943  20.786   1.701
44498W        W15098  31.557  20.140  13.903
44499W        W15099  22.273   7.778   0.917
44500W        W15100  28.582   0.220  10.522
44501W        W15101  14.106  44.604   1.215
44502W        W15102  19.401  12.288  12.889
44503W        W15103  21.517  25.379   4.689
44504W        W15104  36.804   7.709  13.122
44505W        W15105  23.270  33.385   1.629
44506W        W15106   3.190   9.779  10.453
44507W        W15107  38.908  38.465   0.675
44508W        W15108   3.904  28.217  12.917
44509W        W15109   7.741  12.677  12.562
44510W        W15110  11.123  35.037  11.980
44511W        W15111  40.255  34.532   2.702
44512W        W15112  11.703  32.487  13.300
44513W        W15113  19.515  36.002  10.625
44514W        W15114  28.486  32.679   1.244
44515W        W15115   4.887  40.879  11.718
44516W        W15116  11.375  32.059   4.105
44517W        W15117  42.065  23.024  11.119
44518W        W15118   6.027  35.125   5.074
44519W        W15119  44.955  21.215  10.883
44520W        W15120  13.613  19.626  11.915
44521W        W15121   0.744  38.854   0.822
44522W        W15122  15.858  17.073  14.292
44523W        W15123  42.214  29.981   4.355
44524W        W15124  31.342   7.268  13.645
44525W        W15125   2.320  22.248   0.817
44526W        W15126  40.941  30.998  10.626
44527W        W15127   3.576  36.101   5.037
44528W        W15128  27.737  14.974   2.848
44529W        W15129  43.512   7.861   2.338
44530W        W15130  34.139  23.001   3.198
44531W        W15131  28.083   8.689  11.281
44532W        W15132  37.974  43.483  12.453
44533W        W15133   8.884   7.341  12.102
44534W        W15134   9.030  29.422  13.207
44535W        W15135   0.905   7.826  14.843
44536W        W15136   8.418  27.164  13.454
44537W        W15137  26.383  19.184  14.919
44538W        W15138  11.305  42.582  11.300
44539W        W15139  28.115   6.832   0.745
44540W        W15140  12.009   9.011  14.302
44541W        W15141  15.520  14.225   0.778
44542W        W15142  36.992  31.995  13.642
44543W        W15143  36.072  15.047   2.474
44544W        W15144  31.603  14.809   2.168
44545W        W15145  12.660  43.238   1.683
44546W        W15146  35.542  14.109   2.147
44547W        W15147  28.939  15.973   1.428
44548W        W15148   7.184   7.605  11.139
44549W        W15149  26.120  13.128   0.982
44550W        W15150  14.651  20.191  14.754
44551W        W15151  27.630  32.985   0.606
44552W        W15152  34.854  25.911  11.756
44553W        W15153  14.234  26.468  10.587
44554W        W15154  11.143  21.262   3.727
44555W        W15155   9.427  38.628  13.358
44556W        W15156  38.945  37.338  12.845
44557W        W15157  26.442  23.769  11.078
44558W        W15158   1.466  44.280   4.503
44559W        W15159  40.699  32.945  13.572
44560W        W15160   1.713   4.462  13.611
44561W        W15161   5.962  38.909  12.087
44562W        W15162  31.976  11.781   1.429
44563W        W15163  32.895  40.439   3.671
44564W        W15164  12.104   3.888   3.730
44565W        W15165  11.224  37.211   1.437
44566W        W15166  11.761  38.023  11.866
44567W        W15167  26.119  13.284   2.464
44568W        W15168  37.830  26.961   4.297
44569W        W15169  10.924  16.729   3.683
44570W        W15170  16.090  10.816   4.693
44571W        W15171   7.531   1.491   2.705
44572W        W15172  28.567  38.343   2.763
44573W        W15173   9.983   0.186  13.514
44574W        W15174   8.248  23.050   4.669
44575W        W15175  19.642  21.782  14.052
44576W        W15176  34.524  31.790   4.515
44577W        W15177  44.881  29.606  11.273
44578W        W15178  16.188  36.420  12.395
44579W        W15179  12.804  17.767  13.453
44580W        W15180  31.493  12.068   0.733
44581W        W15181  10.715  22.238  10.691
44582W        W15182   8.299  38.911   1.790
44583W        W15183  22.852  37.537   3.557
44584W        W15184  42.386  38.967   1.265
44585W        W15185  12.658  40.742  11.847
44586W        W15186   2.856   8.425  12.124
44587W        W15187  31.260  15.193   3.187
44588W        W15188  17.114  12.885   2.218
44589W        W15189  26.140   1.250  14.544
44590W        W15190  15.073   1.402  14.781
44591W        W15191  39.354  27.968   3.349
44592W        W15192   4.002  41.735  12.562
44593W        W15193  35.852  14.225   1.755
44594W        W15194  21.800  34.153  14.839
44595W        W15195  44.294  19.807   4.417
44596W        W15196  23.143  21.433  10.550
44597W        W15197   2.804   5.144   1.392
44598W        W15198   3.217  38.794   0.877
44599W        W15199  10.910  43.940  12.796
44600W        W15200   8.895  42.360   2.903
44601W        W15201   6.751  10.934   3.827
44602W        W15202   2.747  37.453  12.819
44603W        W15203  13.589  20.730  10.502
44604W        W15204  32.009   5.749  13.471
44605W        W15205  43.461  40.873  14.982
44606W        W15206   9.563  41.290  13.212
44607W        W15207  11.167  20.678   3.287
44608W        W15208  14.987  26.690   3.670
44609W        W15209  23.467   3.877   1.404
44610W        W15210  44.592  34.071  12.879
44611W        W15211  23.248  30.505  12.599
44612W        W15212   1.219  40.080  13.862
44613W        W15213  33.998  15.616  13.972
44614W        W15214  42.396  41.549   3.182
44615W        W15215  35.547  26.551  10.557
44616W        W15216  15.389   6.740   0.506
44617W        W15217  19.199  29.872   4.177
44618W        W15218  10.217   9.559  14.336
44619W        W15219   3.662  43.452   0.991
44620W        W15220  10.404  25.544   5.170
44621W        W15221  15.659  33.474  14.841
44622W        W15222  17.477  36.308   1.716
44623W        W15223   1.777  14.154   1.487
44624W        W15224  33.515  11.914   1.036
44625W        W15225  20.183  17.563   2.930
44626W        W15226  13.177  29.456  13.495
44627W        W15227  32.812  16.707  13.325
44628W        W15228  19.588  18.243  14.263
44629W        W15229   1.855  37.345   4.587
44630W        W15230  26.609  23.733   3.887
44631W        W15231  33.503   9.496  13.496
44632W        W15232   7.460  23.905  12.005
44633W        W15233   9.264  31.593   3.603
44634W        W15234  41.431  31.378   1.507
44635W        W15235  27.575  11.499  14.764
44636W        W15236   0.247  16.058  11.091
44637W        W15237  15.008  35.896  11.547
44638W        W15238  24.625  28.226   3.347
44639W        W15239  24.499  29.310  13.901
44640W        W15240   2.374   8.828  14.055
44641W        W15241  10.734  34.745   4.633
44642W        W15242  33.998   9.549   3.666
44643W        W15243  16.458   3.343   3.269
44644W        W15244  15.671   3.140   4.775
44645W        W15245   7.023  13.777   4.607
44646W        W15246  34.049  35.510   1.905
44647W        W15247   8.316  22.625   3.266
44648W        W15248  31.164  18.779   1.675
44649W        W15249   2.057  28.914   2.588
44650W        W15250   7.773  13.278   0.355
44651W        W15251  20.067   5.191  13.746
44652W        W15252   0.300  15.288  13.819
44653W        W15253  43.870  39.886  11.858
44654W        W15254  41.888  39.670  13.759
44655W        W15255   5.935  13.573  14.858
44656W        W15256  44.032  36.928   4.091
44657W        W15257  33.936  41.808   3.840
44658W        W15258  20.743  41.191  13.320
44659W        W15259  37.431  29.160  11.775
44660W        W15260  11.288   0.536   4.727
44661W        W15261  27.885  18.388   3.742
44662W        W15262  37.965   9.189   3.658
44663W        W15263  27.090  26.965  12.432
44664W        W15264  13.196  25.314  13.570
44665W        W15265  23.073  22.403  14.792
44666W        W15266  14.596  33.314   5.067
44667W        W15267  21.996  17.947  14.271
44668W        W15268  33.569  18.050   1.653
44669W        W15269  29.667  20.134  13.554
44670W        W15270  11.094  12.651  14.563
44671W        W15271  21.549  18.067  12.372
44672W        W15272  24.296  43.261   4.990
44673W        W15273   6.812  37.051  14.513
44674W        W15274   6.333  37.098   2.747
44675W        W15275  22.012   8.821   4.058
44676W        W15276  28.139  12.638  13.570
44677W        W15277   5.474  22.828   1.517
44678W        W15278  38.625  19.862  13.118
44679W        W15279  19.772   3.433  10.080
44680W        W15280   1.946  26.156   1.755
44681W        W15281  12.883  18.604   1.669
44682W        W15282   9.659   3.518  14.633
44683W        W15283  20.437  18.797   0.016
44684W        W15284   7.204  41.488  11.602
44685W        W15285  36.340   4.779  14.859
44686W        W15286  36.969  24.440  14.862
44687W        W15287  41.505  19.235  12.910
44688W        W15288  13.775   4.803   0.368
44689W        W15289  24.710  21.696   3.745
44690W        W15290  14.074  12.793  12.616
44691W        W15291  19.667  22.571  10.611
44692W        W15292  25.653  36.028  11.592
44693W        W15293   4.808   4.374   4.885
44694W        W15294  27.102  44.333   1.029
44695W        W15295   0.055   8.986   0.254
44696W        W15296  27.510  24.641  14.037
44697W        W15297   8.882  33.647   2.566
44698W        W15298   1.834  20.048   0.459
44699W        W15299   5.929  41.041  11.659
44700W        W15300  19.641  16.946   1.272
44701W        W15301  22.435  26.910  13.205
44702W        W15302  35.869  31.464  14.458
44703W        W15303  25.407   3.366   3.697
44704W        W15304  11.929  12.343   1.885
44705W        W15305  28.132   7.245  14.071
44706W        W15306  33.981   2.142   1.411
44707W        W15307  22.731   2.683   4.144
44708W        W15308  23.122  37.363  14.251
44709W        W15309  41.361  38.340  12.564
44710W        W15310  35.075  10.186   2.717
44711W        W15311  41.524  28.275  13.783
44712W        W15312  11.151  15.375  11.453
44713W        W15313   2.295  27.641  13.552
44714W        W15314   3.361  15.032   0.019
44715W        W15315   2.209  29.569   0.230
44716W        W15316   1.702  32.685  11.013
44717W        W15317  27.149  34.482   4.067
44718W        W15318  28.519  12.937  14.738
44719W        W15319   1.376  43.764  14.247
44720W        W15320  41.447  44.784   1.735
44721W        W15321  14.097   3.894  13.944
44722W        W15322  22.426  36.902   4.059
44723W        W15323  44.374  23.694  13.510
44724W        W15324  24.237  10.304   3.540
44725W        W15325  40.746  15.386  12.504
44726W        W15326  33.516   8.346  12.477
44727W        W15327  22.069  36.021   3.144
44728W        W15328  23.364  33.497   9.994
44729W        W15329   5.238  21.141   2.461
44730W        W15330  26.579   9.181  12.637
44731W        W15331  39.024   1.479  10.184
44732W        W15332  19.080  38.099   1.865
44733W        W15333  42.310   0.280   4.290
44734W        W15334  35.981  34.181   0.866
44735W        W15335   6.812  34.652  14.969
44736W        W15336  20.111  26.047   1.495
44737W        W15337  23.621  27.061  13.490
44738W        W15338  18.607  34.352   1.017
44739W        W15339   4.241   7.035   3.483
44740W        W15340  38.316  34.846   0.802
44741W        W15341  36.328  38.949   2.290
44742W        W15342  27.631  22.719  14.075
44743W        W15343   7.679   1.446   2.129
44744W        W15344  32.157  13.318   3.253
44745W        W15345   4.952  16.221  11.926
44746W        W15346  35.860   2.364   2.662
44747W        W15347  43.771  31.335   2.167
44748W        W15348  21.799  11.135  13.474
44749W        W15349  25.090   3.366   3.306
44750W        W15350  23.097   9.975  12.985
44751W        W15351  23.163  29.571  12.590
44752W        W15352  28.974   4.132   0.047
44753W        W15353  26.517  25.344   0.760
44754W        W15354  14.181  23.845   4.721
44755W        W15355  39.102  13.664   5.010
44756W        W15356  32.331  36.943   3.624
44757W        W15357  39.369   8.305  13.385
44758W        W15358  36.412  28.386   1.397
44759W        W15359   4.592  43.614  14.385
44760W        W15360  20.200   0.503   0.500
44761W        W15361  15.603  25.152   4.842
44762W        W15362   3.723  35.660  11.201
44763W        W15363   5.218  42.705   1.386
44764W        W15364   0.573  30.881   1.869
44765W        W15365  38.892  42.407  13.504
44766W        W15366  41.950   1.914   3.175
44767W        W15367  17.782  18.838   0.440
44768W        W15368  32.075  37.016  14.756
44769W        W15369  39.344  28.424   0.480
44770W        W15370  28.637  13.579   3.872
44771W        W15371   9.148  44.925   0.755
44772W        W15372   3.407  33.902  14.403
44773W        W15373   4.512  43.329  10.647
44774W        W15374  15.089  25.434   1.862
44775W        W15375  16.749  33.093   5.004
44776W        W15376  31.837   6.678  10.870
44777W        W15377   7.552  13.265   4.165
44778W        W15378  32.991   7.586   3.049
44779W        W15379  32.332  27.859  12.660
44780W        W15380  35.070  13.394  14.408
44781W        W15381  29.431  22.541  12.892
44782W        W15382  39.190  28.608  13.455
44783W        W15383   3.261   2.504   1.246
44784W        W15384  10.654  30.618   3.349
44785W        W15385   9.615   8.961   0.821
44786W        W15386  30.897  18.729   1.230
44787W        W15387  31.992   3.777  10.716
44788W        W15388  31.205  17.291   5.154
44789W        W15389  28.111  17.670  10.018
44790W        W15390  38.919  31.951   2.221
44791W        W15391  25.702  18.264  14.791
44792W        W15392  22.636  35.438   4.859
44793W        W15393  40.975  15.987  11.295
44794W        W15394  35.934  36.519  12.859
44795W        W15395  26.217   1.687   1.220
44796W        W15396  39.904   1.713   3.630
44797W        W15397   1.064   3.343   3.093
44798W        W15398  29.117   5.518  10.120
44799W        W15399  37.650  36.281   4.574
44800W        W15400  43.986  41.779   4.372
44801W        W15401  12.194   6.174   1.655
44802W        W15402  16.075  29.578  11.323
44803W        W15403  41.248  33.017  14.415
44804W        W15404   0.512   5.287  13.996
44805W        W15405  16.118  29.247  12.068
44806W        W15406  44.324  41.923  11.320
44807W        W15407  28.503  43.510  13.466
44808W        W15408   9.123  27.107  12.592
44809W        W15409  36.682  20.417   1.449
44810W        W15410  12.723   7.620   0.977
44811W        W15411  37.509  13.229   3.623
44812W        W15412  25.737  41.452   4.789
44813W        W15413  39.444  28.557  10.965
44814W        W15414   8.377  39.790   2.726
44815W        W15415  12.621  15.273   3.788
44816W        W15416  23.947   1.402   3.739
44817W        W15417  11.608  20.504  14.214
44818W        W15418  20.980  24.400  11.613
44819W        W15419  40.549   6.449   2.557
44820W        W15420  14.820   0.202   1.819
44821W        W15421  44.039   8.376   3.146
44822W        W15422  36.976  44.510  13.426
44823W        W15423  38.087   7.647   4.921
44824W        W15424   1.338  36.792  10.627
44825W        W15425   0.001  29.417   3.421
44826W        W15426  36.351  29.520   3.791
44827W        W15427  18.223   0.318  13.687
44828W        W15428   0.324  28.628   3.139
44829W        W15429   5.950  22.068  12.217
44830W        W15430  22.975  27.683  11.075
44831W        W15431   0.439  14.998   3.777
44832W        W15432  31.817  22.602  11.867
44833W        W15433  26.129  35.322   3.676
44834W        W15434  18.687  42.446   3.303
44835W        W15435   6.834  41.679   1.444
44836W        W15436  19.782  22.237   2.091
44837W        W15437  24.080  38.993  13.264
44838W        W15438  29.172  20.627  12.918
44839W        W15439  14.141  42.896   3.907
44840W        W15440   3.615  25.970  11.182
44841W        W15441  24.018   4.408  11.952
44842W        W15442   2.562  41.433  11.482
44843W        W15443  34.410  14.455   3.323
44844W        W15444  39.528   2.726   1.165
44845W        W15445  24.444   4.174  13.859
44846W        W15446  18.015  25.599  12.828
44847W        W15447  20.273   1.772   4.579
44848W        W15448  28.842  18.233   4.563
44849W        W15449  11.092   0.859   3.211
44850W        W15450  11.180  33.542  13.879
44851W        W15451   7.310   2.285  10.779
44852W        W15452  18.720  28.290   2.629
44853W        W15453  15.749  21.150  14.802
44854W        W15454  22.055   0.176  11.613
44855W        W15455  18.691  14.810   3.742
44856W        W15456  31.072   4.888  12.174
44857W        W15457  44.965  43.775   4.171
44858W        W15458  24.412  11.176  12.490
44859W        W15459   6.477  16.699   2.839
44860W        W15460  25.555  43.110   3.076
44861W        W15461  40.613   5.055  13.153
44862W        W15462  40.877   1.332   3.800
44863W        W15463  10.741  36.099  14.183
44864W        W15464  15.211  44.409   0.485
44865W        W15465  24.101  12.549  14.583
44866W        W15466  43.551  39.073  12.970
44867W        W15467  41.215   0.950   0.835
44868W        W15468  25.107   8.322   2.281
44869W        W15469  25.948   9.421  14.274
44870W        W15470   4.620  29.447   1.892
44871W        W15471   0.857  43.858   4.339
44872W        W15472  34.115  41.073  13.103
44873W        W15473  26.456   1.190  14.089
44874W        W15474  40.038  14.144   0.027
44875W        W15475  41.671  15.466  11.566
44876W        W15476  17.851  17.208  13.869
44877W        W15477  19.770  28.173   3.752
44878W        W15478  26.152   1.651  14.217
44879W        W15479  39.995  18.098  12.618
44880W        W15480  13.118  40.586  11.136
44881W        W15481  32.094   2.048  13.154
44882W        W15482  15.831   2.589   3.971
44883W        W15483  19.982  41.299   1.787
44884W        W15484  29.827  12.132   0.554
44885W        W15485  15.861  10.649  10.587
44886W        W15486  40.183  38.018  11.665
44887W        W15487  42.855   8.450  12.131
44888W        W15488  39.379  37.446   0.921
44889W        W15489  20.115  41.134  14.944
44890W        W15490  22.543   0.178   1.243
44891W        W15491   7.273  35.857  14.472
44892W        W15492  32.035  13.144   1.794
44893W        W15493  36.939  27.063  12.081
44894W        W15494  42.531  36.186   0.174
44895W        W15495   1.389  43.042  11.156
44896W        W15496  17.170  15.568   1.220
44897W        W15497  32.793  27.043  14.268
44898W        W15498  31.728  39.837   1.947
44899W        W15499   6.763  33.517  10.627
44900W        W15500  44.362   7.621  13.096
44901W        W15501  41.957  36.445  13.815
44902W        W15502  16.369   4.624  11.620
44903W        W15503  39.482  29.570   2.261
44904W        W15504   2.005  37.889   4.602
44905W        W15505  13.087  25.078   4.224
44906W        W15506   9.671  38.109   2.282
44907W        W15507  40.849  44.811  11.611
44908W        W15508  34.664   4.268  14.453
44909W        W15509  32.891  15.793  10.920
44910W        W15510   2.759   2.821   3.737
44911W        W15511  29.094  20.714  10.399
44912W        W15512  25.654  35.389  13.694
44913W        W15513   2.707  23.703   1.686
44914W        W15514   8.810  21.608   0.762
44915W        W15515  29.643  38.529  10.602
44916W        W15516  39.932  39.979  11.118
44917W        W15517  30.346  35.857  11.548
44918W        W15518  26.201  35.610  12.347
44919W        W15519   9.459  29.482  11.694
44920W        W15520  29.529  40.449  13.396
44921W        W15521  21.984  10.083   2.174
44922W        W15522  34.072  30.873  14.433
44923W        W15523  28.057  23.789   2.493
44924W        W15524  38.539  42.629   2.780
44925W        W15525  33.385   2.773   3.128
44926W        W15526   7.894  18.630  12.966
44927W        W15527  28.042  12.108   0.462
44928W        W15528   5.986  33.660   2.159
44929W        W15529  25.526  20.743  11.093
44930W        W15530  20.512  27.134   2.381
44931W        W15531  11.774   9.675  14.979
44932W        W15532  21.362  12.204   0.379
44933W        W15533  35.654  30.163   3.042
44934W        W15534  24.142   7.169   1.440
44935W        W15535  41.221  22.850  13.255
44936W        W15536  41.034  28.754   3.529
44937W        W15537  41.008  36.785   1.269
44938W        W15538   7.766   0.475  10.701
44939W        W15539  31.041  20.071   0.923
44940W        W15540  16.807  37.989   1.417
44941W        W15541  16.656  16.963   1.435
44942W        W15542  22.429  17.224  12.878
44943W        W15543  12.841  21.063  12.682
44944W        W15544  38.619  37.509  11.886
44945W        W15545   3.858  18.589   9.993
44946W        W15546  23.049   2.397   3.278
44947W        W15547   1.389   5.849   1.694
44948W        W15548  11.511   5.840   0.278
44949W        W15549  29.386  26.912   0.424
44950W        W15550  42.998  17.351  14.475
44951W        W15551  32.045  40.823   1.354
44952W        W15552  40.866  23.466   2.418
44953W        W15553  15.788   5.558  10.348
44954W        W15554  44.498  22.919  13.031
44955W        W15555   9.074   7.367  11.615
44956W        W15556   4.278  43.576  11.955
44957W        W15557  22.858  34.425   2.708
44958W        W15558  24.549  34.535  12.121
44959W        W15559  38.015  36.435  10.596
44960W        W15560  25.756  17.340   1.788
44961W        W15561  43.491   4.045   2.503
44962W        W15562  26.706  10.097   2.211
44963W        W15563   8.133  33.719  14.326
44964W        W15564  29.760  36.102   3.578
44965W        W15565  16.739   7.578   3.377
44966W        W15566  38.084  37.267   4.624
44967W        W15567  39.372   8.828  13.425
44968W        W15568  35.212  25.918  12.120
44969W        W15569  12.866  20.058  11.994
44970W        W15570  13.912  19.128  10.779
44971W        W15571  19.563  29.138   0.281
44972W        W15572   4.742   8.571  10.192
44973W        W15573  16.765  13.551   3.249
44974W        W15574  43.820  13.313  13.175
44975W        W15575  15.314  32.987  13.103
44976W        W15576  24.457  37.988  14.115
44977W        W15577   6.292  41.739  13.958
44978W        W15578  13.169  19.259   0.365
44979W        W15579  19.997  19.229  11.299
44980W        W15580  19.889  41.064   1.284
44981W        W15581  29.411   1.446  13.486
44982W        W15582  37.343   6.162  14.781
44983W        W15583   5.297   8.370  11.692
44984W        W15584  19.792  42.829  12.909
44985W        W15585  15.272  15.567  11.051
44986W        W15586   4.174  44.832  10.523
44987W        W15587  12.963  10.803   0.946
44988W        W15588  36.012  18.542   2.734
44989W        W15589  44.709  43.897   3.699
44990W        W15590  16.705  27.169   1.482
44991W        W15591   3.719  13.764   2.819
44992W        W15592  25.578  19.264   2.688
44993W        W15593  35.054   3.172  13.594
44994W        W15594  10.588  32.886  14.825
44995W        W15595  14.292  32.648   3.279
44996W        W15596  25.300  11.095   0.416
44997W        W15597  38.184  44.850  11.201
44998W        W15598  14.123  20.669  12.984
44999W        W15599   6.641  21.999  14.276
45000W        W15600  33.909   4.160  14.003
45001W        W15601  23.730  39.285   0.902
45002W        W15602  13.588  40.829   1.891
45003W        W15603  21.664  20.683  14.785
45004W        W15604  28.171  13.080  11.054
45005W        W15605   4.928  10.905   2.317
45006W        W15606   7.874  11.093   2.200
45007W        W15607  17.060  33.588  13.725
45008W        W15608   2.817  31.960   3.605
45009W        W15609  36.544  37.653   2.790
45010W        W15610  15.127  15.692   1.852
45011W        W15611  22.617  29.521  11.488
45012W        W15612  32.154  16.793  13.908
45013W        W15613  14.672  37.812  12.490
45014W        W15614  20.429  30.005   1.689
45015W        W15615   5.161  10.199   3.866
45016W        W15616   2.790  37.872   1.439
45017W        W15617   5.334  44.793   2.434
45018W        W15618  22.482   4.362   4.628
45019W        W15619  29.351  43.480   2.120
45020W        W15620  32.077  25.296   4.219
45021W        W15621  29.562  38.463  12.400
45022W        W15622  10.886  26.537   3.662
45023W        W15623   0.254   7.358  12.431
45024W        W15624  21.250  10.341   1.661
45025W        W15625  10.181  40.000   1.159
45026W        W15626  24.326  26.596   4.609
45027W        W15627  19.948   5.811  11.997
45028W        W15628   6.334  29.198  13.829
45029W        W15629  19.509  40.933   4.697
45030W        W15630  24.132   5.412   3.941
45031W        W15631  28.395  30.171  11.553
45032W        W15632   1.378   5.650   2.179
45033W        W15633  33.245  32.790  11.526
45034W        W15634  44.321  27.490   1.972
45035W        W15635  25.282   9.270   4.123
45036W        W15636   6.616  12.746  13.476
45037W        W15637  33.000  26.581   3.215
45038W        W15638  16.786  33.384   0.632
45039W        W15639  15.899  44.391  11.153
45040W        W15640   4.702  25.015  13.932
45041W        W15641   8.619  18.275   4.312
45042W        W15642  27.978  12.708  11.538
45043W        W15643  31.913  18.158   1.941
45044W        W15644   6.355  22.418  10.525
45045W        W15645  21.992   6.109   4.892
45046W        W15646  18.064  25.044   0.031
45047W        W15647   8.432  36.512  13.436
45048W        W15648  27.453   6.064  11.134
45049W        W15649  43.375  27.995   3.745
45050W        W15650   0.755  10.535   2.836
45051W        W15651  32.417   8.123   1.866
45052W        W15652  11.827  40.835  13.833
45053W        W15653  15.263  41.083  11.682
45054W        W15654   5.278   0.127  14.740
45055W        W15655  13.764  26.190   4.244
45056W        W15656  25.575  39.525  10.902
45057W        W15657  36.372   3.260  12.379
45058W        W15658   3.284  30.183  10.887
45059W        W15659  43.455  31.103  12.048
45060W        W15660  37.991  44.878  14.588
45061W        W15661   3.955  21.305  11.135
45062W        W15662  44.532  20.707   5.141
45063W        W15663  33.093   9.851  11.166
45064W        W15664  12.681  34.610  10.380
45065W        W15665  13.665  31.614   0.061
45066W        W15666  34.344  11.746  10.743
45067W        W15667   6.804  14.260   4.666
45068W        W15668  36.859  26.048  11.002
45069W        W15669  36.857  40.600  13.378
45070W        W15670   3.954  14.485  14.077
45071W        W15671  24.548  18.618  11.519
45072W        W15672  36.984  28.266   2.667
45073W        W15673  37.749  43.321  11.990
45074W        W15674  34.568  42.033   3.096
45075W        W15675   4.886  24.489   1.455
45076W        W15676  26.241  23.731   2.266
45077W        W15677   0.522   9.880   4.690
45078W        W15678  37.432  34.536   1.003
45079W        W15679  32.450  31.575   1.291
45080W        W15680  30.083  10.556   2.262
45081W        W15681  27.789  35.053   2.244
45082W        W15682   4.692  44.041   2.920
45083W        W15683  34.936  23.724  12.004
45084W        W15684  10.398  33.387  13.488
45085W        W15685  20.779  39.020  13.372
45086W        W15686  24.022  24.898  11.228
45087W        W15687  37.014  22.217  11.653
45088W        W15688  39.308  22.774   4.226
45089W        W15689   2.296   1.808   4.539
45090W        W15690  14.132  31.325   2.147
45091W        W15691  12.237  41.707  14.394
45092W        W15692  41.864  20.026  13.055
45093W        W15693  18.841  23.068   4.643
45094W        W15694  43.606  35.973  12.096
45095W        W15695   7.966  28.184   3.572
45096W        W15696  32.902   3.235   1.045
45097W        W15697  35.441  37.104  11.585
45098W        W15698   4.535  19.557   2.583
45099W        W15699   5.879  30.483   3.434
45100W        W15700  11.838  31.252   1.910
45101W        W15701   3.741  38.464   2.631
45102W        W15702  33.826   8.304  14.726
45103W        W15703  29.975  28.885   2.707
45104W        W15704  25.080   5.724   4.512
45105W        W15705  37.412  24.075  13.845
45106W        W15706   4.665  22.208  12.272
45107W        W15707  22.989  10.230  14.011
45108W        W15708   6.721  14.378   3.748
45109W        W15709  10.407  22.153   1.212
45110W        W15710  42.052  37.859   3.405
45111W        W15711  29.936  35.104   0.430
45112W        W15712  22.321  23.577   1.306
45113W        W15713   8.683  42.514  10.640
45114W        W15714  24.184  41.916  13.971
45115W        W15715  15.574  12.481  10.281
45116W        W15716  41.437  19.025  11.341
45117W        W15717  28.019  11.219   2.008
45118W        W15718  30.401   1.051  12.354
45119W        W15719  41.524  32.436   1.438
45120W        W15720  41.268  43.422   3.510
45121W        W15721  24.897  44.772   1.590
45122W        W15722  35.929  30.648  13.481
45123W        W15723  10.833  19.143  14.936
45124W        W15724  37.601  19.202  11.436
45125W        W15725  19.625  21.176  13.386
45126W        W15726   3.836  29.691  12.610
45127W        W15727  38.120  27.222   0.991
45128W        W15728  35.051  11.377   3.501
45129W        W15729  11.778  39.839  11.165
45130W        W15730  44.533  21.414   0.291
45131W        W15731  33.527  13.624   4.205
45132W        W15732  37.575  27.394  11.403
45133W        W15733  29.279  23.002  10.826
45134W        W15734  36.102  30.444  14.358
45135W        W15735  35.647  16.172  13.383
45136W        W15736   4.263  26.359   2.666
45137W        W15737  39.494  38.603   1.331
45138W        W15738  42.054   1.421   0.244
45139W        W15739  44.829  26.133  12.447
45140W        W15740  30.913  24.467  13.504
45141W        W15741  27.973  23.541  14.529
45142W        W15742  32.895  29.224   3.556
45143W        W15743  32.526  22.605   3.218
45144W        W15744  21.273  24.325  12.077
45145W        W15745  44.445  10.221   4.046
45146W        W15746  34.020  27.269   1.319
45147W        W15747   3.143  41.775  12.155
45148W        W15748  15.602  24.790   0.315
45149W        W15749  35.819  34.159   1.553
45150W        W15750   7.824  35.954  13.027
45151W        W15751  35.841  42.440  13.053
45152W        W15752  38.964   5.282  14.561
45153W        W15753  44.138  23.199   4.546
45154W        W15754   1.011  19.739   1.539
45155W        W15755   7.252   6.614  12.371
45156W        W15756  29.134   3.538  11.067
45157W        W15757   2.812   7.751   4.278
45158W        W15758   4.505  10.472   1.314
45159W        W15759  38.857  37.836  11.496
45160W        W15760  20.702  31.222  13.339
45161W        W15761  27.814  38.963   2.387
45162W        W15762  14.900  30.934  12.483
45163W        W15763   7.333  32.518  10.930
45164W        W15764  30.975  24.154   1.332
45165W        W15765  41.970  22.976   2.733
45166W        W15766   5.938  36.760   1.232
45167W        W15767   2.347  12.321  12.932
45168W        W15768  40.586  15.304  14.381
45169W        W15769   9.272  34.052  13.292
45170W        W15770  28.869  29.597  13.876
45171W        W15771  40.904  29.691  14.425
45172W        W15772  26.647  17.529  13.111
45173W        W15773   2.472  40.444  13.528
45174W        W15774  16.207  12.051   4.289
45175W        W15775  44.718  33.835   3.451
45176W        W15776   4.992  24.683  10.627
45177W        W15777  11.127  10.311   4.685
45178W        W15778  22.006   8.813   0.372
45179W        W15779  37.896  37.488   1.930
45180W        W15780  39.987  44.901   3.264
45181W        W15781   3.302  36.736  13.810
45182W        W15782   4.844  15.708  14.361
45183W        W15783  11.825  22.125   4.596
45184W        W15784  18.340  12.302  12.283
45185W        W15785  32.332   1.367  11.988
45186W        W15786  36.092   7.751   0.843
45187W        W15787  21.751  25.648   4.305
45188W        W15788   3.811   4.180  10.448
45189W        W15789  43.342  31.056   2.254
45190W        W15790  21.030   5.236   4.020
45191W        W15791   2.037  15.820  11.615
45192W        W15792  28.410  36.807   1.300
45193W        W15793  30.186  38.430  10.672
45194W        W15794  30.579  31.401  12.914
45195W        W15795   3.953   8.793   2.721
45196W        W15796  19.577  39.276   0.010
45197W        W15797  36.947   1.002   4.838
45198W        W15798   0.871   2.767  11.459
45199W        W15799  19.787  22.189  14.776
45200W        W15800  21.132  29.526   0.714
45201W        W15801  22.613  37.901   1.452
45202W        W15802  32.558  34.988  14.813
45203W        W15803  35.882  22.930  11.204
45204W        W15804   1.027  43.396   3.689
45205W        W15805  29.141  15.359   2.286
45206W        W15806  16.686  32.429  11.720
45207W        W15807   7.920  13.745  11.122
45208W        W15808  27.092   2.487   0.530
45209W        W15809  12.541  41.997   4.580
45210W        W15810  33.437  21.453  14.088
45211W        W15811   9.746   6.913   2.230
45212W        W15812  13.328  35.492   0.011
45213W        W15813  25.048  44.560  11.509
45214W        W15814  26.600  38.630  10.529
45215W        W15815  26.620   0.304   0.405
45216W        W15816   2.280  23.700   2.565
45217W        W15817  34.468  38.392   0.869
45218W        W15818  28.919  32.621   3.303
45219W        W15819  19.474  23.952  10.663
45220W        W15820  41.509  21.732   2.956
45221W        W15821  26.780  26.761   1.113
45222W        W15822  34.662  24.228  11.145
45223W        W15823   2.804  29.949  10.648
45224W        W15824  23.188  34.050   4.640
45225W        W15825  16.638   4.407   2.393
45226W        W15826  15.747  31.293   4.673
45227W        W15827  35.587   7.401   1.335
45228W        W15828  40.338  12.397   1.377
45229W        W15829   1.866   1.326  11.308
45230W        W15830  31.449   7.349  11.169
45231W        W15831  36.485  24.001  13.507
45232W        W15832  35.463  36.533  10.765
45233W        W15833  28.933  25.214  11.621
45234W        W15834  35.930  18.726   0.471
45235W        W15835  29.049  20.900  14.397
45236W        W15836   9.351  10.861  14.888
45237W        W15837  26.006  25.188   2.321
45238W        W15838  27.029   7.863  14.844
45239W        W15839  10.831  15.554  11.060
45240W        W15840  39.932   8.105  10.858
45241W        W15841   1.668  26.487  13.791
45242W        W15842  15.574  26.226  14.805
45243W        W15843  17.724   2.992  12.582
45244W        W15844  38.559  21.960  13.342
45245W        W15845  38.358  28.665   3.890
45246W        W15846  41.578  32.490   2.945
45247W        W15847  17.594  38.906  14.367
45248W        W15848   8.240  18.814   1.869
45249W        W15849  27.532  42.858   4.623
45250W        W15850  10.393  36.428   4.167
45251W        W15851  44.986  11.592   0.919
45252W        W15852   7.041  28.554  11.483
45253W        W15853  22.510  13.455  11.625
45254W        W15854   1.300   8.958   3.985
45255W        W15855  26.220  36.012  12.778
45256W        W15856   9.711   7.120  13.373
45257W        W15857  36.903  23.168  12.158
45258W        W15858  18.618  28.962  11.364
45259W        W15859  34.559  10.658   1.416
45260W        W15860  32.132   9.248  13.033
45261W        W15861  32.489  25.774   1.435
45262W        W15862  16.551   0.234   0.958
45263W        W15863  19.270  25.678  13.435
45264W        W15864  34.961  10.713   4.230
45265W        W15865  10.770  40.226   0.053
45266W        W15866   3.928   1.460  14.337
45267W        W15867  12.511  13.946   1.275
45268W        W15868  14.725  41.613  11.024
45269W        W15869  27.900  30.611  14.060
45270W        W15870   8.824   0.077   1.301
45271W        W15871  27.157   6.837   0.742
45272W        W15872  26.233  28.754  12.108
45273W        W15873  41.321  27.278   3.340
45274W        W15874  43.025  29.000   4.320
45275W        W15875  26.659  14.227   3.391
45276W        W15876  22.911  18.043  11.843
45277W        W15877  26.103   5.945   4.630
45278W        W15878  33.916  14.386   2.177
45279W        W15879  41.744  15.018   1.940
45280W        W15880   9.323  27.639  11.125
45281W        W15881  30.662  11.981  11.132
45282W        W15882   1.232   0.816   0.815
45283W        W15883  28.025   2.050   1.897
45284W        W15884  15.343  35.269  13.916
45285W        W15885  40.016  37.995  12.571
45286W        W15886  30.511  14.376  13.988
45287W        W15887  28.278  34.845   4.720
45288W        W15888  13.585  24.994  12.086
45289W        W15889  31.939  38.055   1.108
45290W        W15890  34.879  42.550  14.340
45291W        W15891  25.882   3.296  10.709
45292W        W15892  21.270  10.961   3.293
45293W        W15893  44.202   6.612  12.956
45294W        W15894  30.117  40.155  11.609
45295W        W15895   6.563  43.470   2.439
45296W        W15896  23.484  44.982  14.526
45297W        W15897   2.508  29.594   0.655
45298W        W15898  33.316  28.157  12.333
45299W        W15899  42.706  40.589  12.490
45300W        W15900  21.104   2.535   3.138
45301W        W15901  28.014   8.728  13.878
45302W        W15902  32.857  14.562  12.427
45303W        W15903  27.037  13.616  14.535
45304W        W15904  21.619  38.161  13.031
45305W        W15905  23.157  30.029   4.508
45306W        W15906   6.275   6.962  11.318
45307W        W15907   0.295  32.965   3.085
45308W        W15908  38.873  36.437  11.676
45309W        W15909  14.309   8.364  12.977
45310W        W15910  25.261  24.634  14.832
45311W        W15911  33.537  41.221   3.049
45312W        W15912  43.041  17.860  11.933
45313W        W15913  35.967  43.880  10.681
45314W        W15914  25.574  36.141   4.091
45315W        W15915  43.493  33.709   2.304
45316W        W15916  42.317   2.479  11.662
45317W        W15917  39.044   1.030  14.002
45318W        W15918  12.334  10.661  13.960
45319W        W15919  28.225  35.579  12.389
45320W        W15920  30.939  22.204  11.405
45321W        W15921  14.329  16.777  12.782
45322W        W15922  43.950   0.029  14.797
45323W        W15923  21.193  10.231   0.250
45324W        W15924  20.043  18.583  13.365
45325W        W15925  38.882  19.632  11.144
45326W        W15926  18.268   4.304   0.329
45327W        W15927  22.796   6.823  11.519
45328W        W15928  27.192  33.166   2.934
45329W        W15929  43.229  16.156  13.053
45330W        W15930   5.835  37.444   0.373
45331W        W15931  43.015  13.786   3.686
45332W        W15932  43.078  42.273  14.086
45333W        W15933  39.382  14.694  12.211
45334W        W15934  24.080  32.555   0.712
45335W        W15935   5.049  44.932  14.236
45336W        W15936  43.060   8.674   3.645
45337W        W15937  38.930  36.944  11.861
45338W        W15938  26.557  29.032   4.497
45339W        W15939  40.455  35.522  14.697
45340W        W15940  44.750   5.368   0.794
45341W        W15941  29.665  27.418  12.602
45342W        W15942   2.317  27.667   4.548
45343W        W15943  15.242  26.499   4.836
45344W        W15944  21.395   6.403   0.305
45345W        W15945   2.645  28.001  10.699
45346W        W15946  35.079  44.489   3.721
45347W        W15947   2.200  40.759  11.078
45348W        W15948  42.288   8.701   2.182
45349W        W15949  31.865   2.432  11.833
45350W        W15950  38.961   4.772  14.976
45351W        W15951  44.303  44.023  14.473
45352W        W15952  24.266   2.999  11.946
45353W        W15953  27.250  34.612  12.533
45354W        W15954   8.366  14.748   0.903
45355W        W15955   6.080   1.554  13.419
45356W        W15956  41.769  37.618  12.558
45357W        W15957  24.707  19.664   1.390
45358W        W15958  36.296  36.148   3.692
45359W        W15959  17.397   7.410   4.031
45360W        W15960  43.964  39.854  10.839
45361W        W15961  18.851   3.120  10.645
45362W        W15962   8.867  15.755  14.317
45363W        W15963  31.190  14.274   3.378
45364W        W15964  30.935  16.882   4.434
45365W        W15965  36.800  31.539  13.440
45366W        W15966   3.027  22.058   1.201
45367W        W15967  16.304  10.573  13.222
45368W        W15968   1.454  26.926   1.709
45369W        W15969  16.261  38.551  13.123
45370W        W15970   0.851  22.619  12.882
45371W        W15971   8.736  43.534  11.585
45372W        W15972  39.869  28.177   4.613
45373W        W15973  34.761   5.328   2.192
45374W        W15974  12.230  42.051  14.006
45375W        W15975  40.850  25.032   1.238
45376W        W15976  26.898  44.403  14.581
45377W        W15977   9.333  37.851  10.668
45378W        W15978  30.876   5.764   4.744
45379W        W15979  18.917   6.478  11.204
45380W        W15980  42.924  29.300  12.108
45381W        W15981  35.625  44.496   3.743
45382W        W15982   4.873  34.972  13.365
45383W        W15983  18.117  23.219   3.872
45384W        W15984  36.205  24.368   1.726
45385W        W15985  19.417  39.549  11.948
45386W        W15986  11.621  27.084   2.511
45387W        W15987  29.763   4.195   4.260
45388W        W15988   7.206  22.066   1.242
45389W        W15989  39.348  31.435   4.972
45390W        W15990   3.973  18.642  15.000
45391W        W15991  19.040  41.306   2.364
45392W        W15992  43.014  11.914   3.099
45393W        W15993  32.390  23.303   1.232
45394W        W15994  12.804  16.062  12.111
45395W        W15995  43.378  33.775   4.448
45396W        W15996  31.434  12.681   2.318
45397W        W15997   8.440  36.657   2.185
45398W        W15998   5.932  30.391  10.482
45399W        W15999  21.971  42.302   0.979
45400W        W16000  19.691  35.351   0.821
45401W        W16001  28.502  42.839   3.652
45402W        W16002  41.775   3.356   2.296
45403W        W16003  11.617  44.393   2.604
45404W        W16004  27.526   2.395   4.551
45405W        W16005   4.165  23.920  13.226
45406W        W16006  15.094  36.447   1.811
45407W        W16007  16.812  35.755  11.217
45408W        W16008  35.696  19.298   3.422
45409W        W16009  29.077  38.494   2.156
45410W        W16010  21.967  20.101  11.114
45411W        W16011   0.794  16.310   3.844
45412W        W16012  22.777  37.519   0.194
45413W        W16013  16.562  37.011  10.107
45414W        W16014  40.869   3.716  11.082
45415W        W16015   3.476  22.109   4.362
45416W        W16016  39.482   4.439  14.303
45417W        W16017   3.855  26.965  11.597
45418W        W16018  44.322  35.593  12.015
45419W        W16019   8.593  13.214   0.870
45420W        W16020  19.050  40.421   2.327
45421W        W16021  41.291  44.589   4.065
45422W        W16022   5.954  28.648   2.766
45423W        W16023  14.164  44.843   0.745
45424W        W16024   3.959  24.095   1.331
45425W        W16025  37.979  11.338   2.622
45426W        W16026  31.602  38.750  14.163
45427W        W16027  40.873  38.040   3.596
45428W        W16028  19.046  28.907  11.655
45429W        W16029  23.486  44.070   0.731
45430W        W16030  14.592  15.209  11.841
45431W        W16031   7.442  14.372  12.333
45432W        W16032   9.968  31.807   5.058
45433W        W16033   9.030  41.364   2.169
45434W        W16034  11.174   8.393  12.092
45435W        W16035   8.317  40.960  13.040
45436W        W16036  18.175  26.145  13.993
45437W        W16037   8.046  29.917  12.100
45438W        W16038   8.439  19.651  11.596
45439W        W16039  25.729  19.047   2.147
45440W        W16040   2.217  33.024   2.393
45441W        W16041   0.669  33.446  11.004
45442W        W16042  37.147  33.166   2.036
45443W        W16043   6.911  44.721   4.799
45444W        W16044  29.911  22.591  12.664
45445W        W16045  34.610   7.119  13.057
45446W        W16046  36.383  29.205  13.884
45447W        W16047  26.774  41.090  12.110
45448W        W16048   9.443  36.896  11.978
45449W        W16049  17.542  37.771   9.824
45450W        W16050  41.760  26.579   3.728
45451W        W16051  29.996  22.737   0.739
45452W        W16052  15.301  29.080   4.795
45453W        W16053   5.627  43.033   1.484
45454W        W16054  33.400  34.448   4.605
45455W        W16055  36.912  37.632   1.259
45456W        W16056  25.214  44.024   9.713
45457W        W16057  38.722  14.449  13.924
45458W        W16058  24.511  25.082   0.000
45459W        W16059   0.409  26.453   1.981
45460W        W16060  44.361  10.810  11.687
45461W        W16061  41.705  26.600  12.063
45462W        W16062  10.348   7.586  12.877
45463W        W16063  26.928  43.559  12.631
45464W        W16064  34.555  20.253  12.592
45465W        W16065  21.111  41.252  14.065
45466W        W16066  31.050  34.791   0.528
45467W        W16067  14.160  15.366  14.933
45468W        W16068  16.684  17.502  14.421
45469W        W16069  40.623  31.569  14.380
45470W        W16070  37.514  18.006  10.298
45471W        W16071  29.500  41.546  14.358
45472W        W16072  15.040  15.931   5.040
45473W        W16073   4.350   6.332  11.829
45474W        W16074  44.969   8.646   4.637
45475W        W16075  36.005  25.756  10.708
45476W        W16076  10.202  15.627   0.600
45477W        W16077   6.698   9.894  14.935
45478W        W16078   4.175   3.973   0.920
45479W        W16079  23.455  11.160  12.444
45480W        W16080  20.939   6.676  13.522
45481W        W16081  19.368  10.230   1.444
45482W        W16082  39.859  22.286   2.205
45483W        W16083  13.444  23.582  12.082
45484W        W16084  10.892  10.892  13.446
45485W        W16085  18.534  22.962   2.003
45486W        W16086  42.411   1.346   0.585
45487W        W16087  38.247  28.955  11.027
45488W        W16088  10.318   8.461   3.656
45489W        W16089  24.426  30.519  14.956
45490W        W16090  23.471  24.149   0.490
45491W        W16091   9.078   2.820   4.260
45492W        W16092   4.189  35.732   1.950
45493W        W16093   8.602  32.216  11.184
45494W        W16094  16.515  38.686   2.654
45495W        W16095   0.392   2.175  14.475
45496W        W16096  29.724   6.378   4.888
45497W        W16097  15.043   5.200   3.311
45498W        W16098  21.280  34.494   1.268
45499W        W16099   7.894   0.740   3.730
45500W        W16100  21.097  42.245  12.649
45501W        W16101  23.019  16.852  14.033
45502W        W16102  30.681  11.678  14.473
45503W        W16103   8.351  17.902  12.095
45504W        W16104  27.023  20.201  13.077
45505W        W16105  13.597  39.926   0.473
45506W        W16106  21.079  17.104   2.701
45507W        W16107  14.077  36.884   0.405
45508W        W16108  19.439  34.057   0.451
45509W        W16109  21.031  11.419   3.206
45510W        W16110  29.441  37.850  10.652
45511W        W16111  29.440  21.115  10.342
45512W        W16112  23.621   7.775   3.417
45513W        W16113  19.277  17.080   2.771
45514W        W16114  14.022   2.868  14.861
45515W        W16115  13.553   8.336  11.009
45516W        W16116  41.926  24.506   3.655
45517W        W16117  19.675  41.056  12.085
45518W        W16118   5.670  32.888  14.374
45519W        W16119  20.369  22.966   3.720
45520W        W16120  27.929  43.780  14.269
45521W        W16121  32.020  26.597   4.686
45522W        W16122  31.253  34.827   1.789
45523W        W16123  21.232  38.102   4.523
45524W        W16124  41.446   0.517  13.443
45525W        W16125  15.028  39.423   1.324
45526W        W16126  25.752  19.845   3.546
45527W        W16127   9.645  44.001   3.201
45528W        W16128  29.347  23.895  12.948
45529W        W16129  31.686   4.969   4.719
45530W        W16130  37.879  29.819  11.112
45531W        W16131  28.008  25.514  11.488
45532W        W16132  26.892  25.207   2.834
45533W        W16133  42.365  23.995   1.670
45534W        W16134  23.641  19.033  11.689
45535W        W16135  13.409  11.394  13.293
45536W        W16136  42.980  11.076  12.470
45537W        W16137  11.392  28.145   4.172
45538W        W16138  31.024  36.145  12.511
45539W        W16139  33.842  25.200   3.721
45540W        W16140  22.606   3.526  12.565
45541W        W16141  33.566  34.158   3.426
45542W        W16142  21.446  31.015  10.344
45543W        W16143  10.707  25.913  14.473
45544W        W16144  12.082   8.129   2.867
45545W        W16145  40.816  27.899  12.094
45546W        W16146   1.136   9.606   0.111
45547W        W16147   9.190   6.367   3.777
45548W        W16148  17.953  15.095   1.226
45549W        W16149  16.455  21.765  11.139
45550W        W16150   6.718   6.697  13.363
45551W        W16151   8.349  22.057   4.583
45552W        W16152   8.176  44.274  12.319
45553W        W16153   5.524  18.331  13.256
45554W        W16154  18.788   8.361  13.454
45555W        W16155   5.418  44.219  12.615
45556W        W16156  34.563  19.937   3.544
45557W        W16157   6.537  11.682   1.853
45558W        W16158  22.263  18.091   4.202
45559W        W16159   9.623   7.613  11.101
45560W        W16160  19.835  29.217   1.313
45561W        W16161  30.871  23.297  14.819
45562W        W16162  23.279  24.558   2.738
45563W        W16163  28.737  18.169  12.099
45564W        W16164  27.258   8.411  14.542
45565W        W16165  14.510   6.940  14.074
45566W        W16166  20.182  32.938   1.888
45567W        W16167  38.089  10.856  11.674
45568W        W16168  12.142  28.590   4.886
45569W        W16169   9.790   1.804  13.903
45570W        W16170  44.268   1.501  11.511
45571W        W16171  29.799   2.469  14.428
45572W        W16172   0.562  18.600   2.356
45573W        W16173   0.457  37.636   4.694
45574W        W16174  18.607  33.591  11.509
45575W        W16175   9.298   6.167  14.409
45576W        W16176  39.193  14.755   3.278
45577W        W16177  43.862  43.827  14.716
45578W        W16178   6.597  38.494  10.411
45579W        W16179   3.277   6.479   4.744
45580W        W16180  17.558  17.688  11.260
45581W        W16181   3.834  10.150  13.851
45582W        W16182  35.343  30.675   5.067
45583W        W16183  14.047   9.760  14.906
45584W        W16184  33.779  40.358   4.186
45585W        W16185  37.602  38.299   2.227
45586W        W16186  11.807  41.437   4.531
45587W        W16187  36.854  25.457  13.900
45588W        W16188  31.387  26.184   2.715
45589W        W16189   4.361  12.698   4.728
45590W        W16190  37.002  43.236  12.367
45591W        W16191  42.592  36.896   2.365
45592W        W16192   6.350  29.637  13.585
45593W        W16193   0.440  42.428  10.599
45594W        W16194   7.429  23.163   2.423
45595W        W16195   6.940  36.937   0.459
45596W        W16196  13.545  41.045  14.351
45597W        W16197  12.726  25.529  13.444
45598W        W16198   4.896  44.843  11.523
45599W        W16199  22.288   3.644   0.450
45600W        W16200  24.559  19.660  14.886
45601W        W16201  15.264  23.505   0.713
45602W        W16202  33.049  35.801   3.537
45603W        W16203   5.263  25.175  13.572
45604W        W16204  36.313  40.844  13.273
45605W        W16205  35.978  28.823  12.568
45606W        W16206  20.689  19.739  10.811
45607W        W16207  24.915   5.228   3.075
45608W        W16208  37.616  41.543   2.756
45609W        W16209  13.475  34.672  14.641
45610W        W16210  33.597  26.002  14.083
45611W        W16211   8.437   4.924   4.791
45612W        W16212  10.198  39.246   0.871
45613W        W16213  21.040  36.749   1.171
45614W        W16214  15.530  40.266  11.219
45615W        W16215   2.306  22.264   2.948
45616W        W16216   5.915  20.220   1.806
45617W        W16217  18.108   3.749   3.971
45618W        W16218  12.843   2.464  12.112
45619W        W16219  35.520  32.302  13.989
45620W        W16220  10.295  14.366  11.591
45621W        W16221   7.211  15.235  14.305
45622W        W16222  28.378  24.715  12.101
45623W        W16223  39.938  44.684  13.917
45624W        W16224  42.169  29.514  14.759
45625W        W16225  18.569   7.408  10.164
45626W        W16226  27.903  16.302   4.102
45627W        W16227  12.491  25.738   1.970
45628W        W16228  44.569  21.035  11.922
45629W        W16229  42.831  14.332   1.168
45630W        W16230  10.124  22.284  13.471
45631W        W16231   7.603  38.836  12.496
45632W        W16232  30.486   9.409  12.868
45633W        W16233  10.440  19.571   2.748
45634W        W16234  31.702   0.398   0.852
45635W        W16235  18.848  34.382  11.688
45636W        W16236  10.623  26.765  12.042
45637W        W16237  24.022  13.222   2.385
45638W        W16238   1.760  31.436  11.105
45639W        W16239   1.453  17.249  13.447
45640W        W16240  12.295  28.418   2.128
45641W        W16241   9.580  29.086  11.383
45642W        W16242  14.008   5.956  13.882
45643W        W16243  33.046  19.370  13.553
45644W        W16244   2.471   4.749   1.372
45645W        W16245  23.885  13.338  13.507
45646W        W16246  11.069  16.752   2.733
45647W        W16247  28.751  20.799  12.070
45648W        W16248  42.443  37.582   0.136
45649W        W16249  22.729  13.877  14.391
45650W        W16250   1.426  40.988   2.808
45651W        W16251  15.209  31.350   2.670
45652W        W16252  10.614   4.855  12.990
45653W        W16253  19.498  39.234  11.543
45654W        W16254  13.615  38.797  12.669
45655W        W16255   1.346  20.784  11.536
45656W        W16256  13.138  39.503   1.545
45657W        W16257   7.119  26.676   4.209
45658W        W16258  17.302  44.729  11.553
45659W        W16259  10.307  23.540  12.867
45660W        W16260  16.335   7.347   4.657
45661W        W16261  39.810  18.390   1.275
45662W        W16262  15.980  27.324   4.650
45663W        W16263  42.299   9.805  14.794
45664W        W16264  43.528  18.610   3.759
45665W        W16265  34.622  11.705   1.331
45666W        W16266  29.572  17.019  14.523
45667W        W16267  11.698  22.949  11.662
45668W        W16268   6.741  23.509   2.617
45669W        W16269  20.770   0.758   1.226
45670W        W16270  19.212   6.346  10.785
45671W        W16271  11.555  22.711  12.097
45672W        W16272  21.452   4.438   2.303
45673W        W16273  31.421   1.719   2.695
45674W        W16274   3.828  44.469  10.311
45675W        W16275  33.843  17.156   2.113
45676W        W16276  30.176  16.326   4.750
45677W        W16277   9.224  44.299   3.325
45678W        W16278   9.335  15.574  14.473
45679W        W16279  27.591  12.868   3.312
45680W        W16280  10.306   5.493  11.920
45681W        W16281  29.244   8.684   3.171
45682W        W16282  10.593   3.410   0.983
45683W        W16283  32.168   2.678   2.424
45684W        W16284   9.809   3.265  13.055
45685W        W16285  19.538  23.655  10.236
45686W        W16286   2.361  18.147  13.032
45687W        W16287  41.932   4.046   0.449
45688W        W16288  15.649  42.024   0.418
45689W        W16289  28.620  43.268   3.931
45690W        W16290  38.948  20.544   1.707
45691W        W16291   7.703  18.785   0.791
45692W        W16292  16.806  44.304   4.765
45693W        W16293  17.533  39.891  12.387
45694W        W16294   4.823  30.979   3.986
45695W        W16295  12.103  25.000   2.286
45696W        W16296  10.006  35.084  11.255
45697W        W16297   2.298  42.369   2.876
45698W        W16298  29.431   4.463  13.306
45699W        W16299  12.560  25.604   0.727
45700W        W16300  38.360  14.423  13.344
45701W        W16301  42.013   7.727  14.478
45702W        W16302  23.467  22.145   1.823
45703W        W16303   5.528  11.265  12.123
45704W        W16304   2.673  24.978  11.733
45705W        W16305  23.085  44.390   2.232
45706W        W16306  34.501  15.866  13.257
45707W        W16307  41.426  14.639  13.076
45708W        W16308  43.975  38.571   2.707
45709W        W16309  17.520  42.489  14.489
45710W        W16310   4.632   7.957   2.752
45711W        W16311  11.188   9.729  12.116
45712W        W16312   8.848   1.745  11.562
45713W        W16313  29.562  17.608   4.716
45714W        W16314  27.263  42.913  11.422
45715W        W16315  34.584   8.828   3.616
45716W        W16316  29.266   0.869  14.548
45717W        W16317  35.397  15.207   4.563
45718W        W16318  38.873  25.226  10.316
45719W        W16319  27.541  39.564   0.084
45720W        W16320  39.072  20.606  14.050
45721W        W16321   1.355   2.276   1.345
45722W        W16322  35.834  34.455  11.469
45723W        W16323  14.355  36.428  13.966
45724W        W16324  20.154  23.043   4.199
45725W        W16325   6.363  41.890  10.433
45726W        W16326  27.509  40.349  13.561
45727W        W16327  40.076   7.177   0.447
45728W        W16328  15.387   0.233  14.583
45729W        W16329  19.744   4.929  14.068
45730W        W16330  43.936   9.223  11.127
45731W        W16331  39.052  21.043  10.692
45732W        W16332  15.076  44.476   4.647
45733W        W16333  33.031   2.615  14.251
45734W        W16334  13.742  18.037   1.829
45735W        W16335  44.437   4.801   2.800
45736W        W16336   4.370  39.032  11.329
45737W        W16337  37.990  14.139   3.244
45738W        W16338  19.102  27.268  14.833
45739W        W16339   0.002  18.341   0.252
45740W        W16340  29.007  11.949  12.477
45741W        W16341  39.630  32.858   2.215
45742W        W16342  29.962  17.696  11.658
45743W        W16343  31.848  40.446   3.564
45744W        W16344  28.036  14.164   3.761
45745W        W16345  24.133  40.457   2.595
45746W        W16346  34.432  37.089   1.374
45747W        W16347  42.835  24.419   4.090
45748W        W16348  34.890   0.172   2.746
45749W        W16349  42.892  28.615   3.671
45750W        W16350   8.437   8.640  13.984
45751W        W16351   0.257  27.835   4.625
45752W        W16352  32.304  34.116  13.349
45753W        W16353  36.306  24.095   1.305
45754W        W16354  10.473  44.453   1.673
45755W        W16355  24.646  23.283  13.447
45756W        W16356  13.708  16.910   0.040
45757W        W16357  32.543  14.861   0.813
45758W        W16358  12.767  24.033   4.656
45759W        W16359  28.423   1.829  12.131
45760W        W16360  19.440   3.740   1.299
45761W        W16361  33.051  20.165   1.964
45762W        W16362  29.969  24.873   0.793
45763W        W16363  17.173  32.030  13.294
45764W        W16364  38.414   6.449  11.241
45765W        W16365  35.885  10.172   4.969
45766W        W16366  32.115   1.996   0.429
45767W        W16367  41.227  43.601   2.726
45768W        W16368  10.948  20.640   4.600
45769W        W16369   5.628  21.656  13.414
45770W        W16370  27.994  13.696   2.128
45771W        W16371  29.233   1.685   3.832
45772W        W16372  19.649   1.451   0.036
45773W        W16373  38.910  40.207   5.266
45774W        W16374  30.904  31.609   2.261
45775W        W16375  24.937  15.555  13.413
45776W        W16376  44.345  33.103  12.785
45777W        W16377  21.723   3.220   1.667
45778W        W16378  24.754  28.992   0.382
45779W        W16379   5.644   6.967  12.998
45780W        W16380  28.601   2.526   1.361
45781W        W16381  17.665  31.679   0.828
45782W        W16382  16.847  10.302   0.902
45783W        W16383  20.911  24.141   5.216
45784W        W16384  23.370  27.983  13.950
45785W        W16385  39.294  22.466   3.741
45786W        W16386   4.613  28.000  11.528
45787W        W16387  32.114  39.301   0.125
45788W        W16388  29.871  41.977  13.841
45789W        W16389  44.979  15.187  14.756
45790W        W16390  36.972   2.306   4.271
45791W        W16391  31.629  31.134   3.718
45792W        W16392  36.634  43.749   0.335
45793W        W16393  42.000  13.292  12.381
45794W        W16394   0.928  20.599   4.515
45795W        W16395  23.053   6.900   0.876
45796W        W16396  14.696   7.356  14.808
45797W        W16397  18.580  22.154   0.304
45798W        W16398  27.594  25.081   1.734
45799W        W16399  44.522  38.824   1.466
45800W        W16400  23.039  12.388   0.945
45801W        W16401  28.070   4.250  14.343
45802W        W16402  27.473  43.349  13.458
45803W        W16403  36.552   2.460   4.532
45804W        W16404  42.010  17.188  10.596
45805W        W16405   1.991   1.821  11.108
45806W        W16406  11.519  32.228   1.655
45807W        W16407   7.619   0.207  11.548
45808W        W16408  17.596  27.684  12.122
45809W        W16409  42.709  35.576   0.901
45810W        W16410   9.283  23.157   0.980
45811W        W16411   8.346   2.077   3.972
45812W        W16412  32.515  16.100   2.147
45813W        W16413  31.346  19.588  11.144
45814W        W16414  23.997   2.282  13.570
45815W        W16415  44.524  28.936   2.264
45816W        W16416  16.067   5.336   1.309
45817W        W16417  33.014  20.470   1.434
45818W        W16418  17.176  44.036   1.267
45819W        W16419  29.519  31.008   4.725
45820W        W16420  32.308   6.844  12.779
45821W        W16421  28.850   5.788  11.512
45822W        W16422  38.319   7.869   3.614
45823W        W16423   6.030  36.658   2.884
45824W        W16424  33.581  23.277  10.307
45825W        W16425   2.099  28.196  13.493
45826W        W16426  15.193  10.131   3.821
45827W        W16427   3.490   2.780   1.635
45828W        W16428  38.116  41.630   2.741
45829W        W16429   5.636  22.508   1.904
45830W        W16430  35.105  29.090  13.479
45831W        W16431  38.111  12.209  12.047
45832W        W16432  14.114  42.308   3.154
45833W        W16433  20.261   7.360  13.118
45834W        W16434   7.272  10.353   3.225
45835W        W16435  30.633  33.093   1.926
45836W        W16436  43.574  27.063  12.886
45837W        W16437  16.161  40.403  14.488
45838W        W16438   5.183  15.661   4.499
45839W        W16439   9.653  30.295  14.792
45840W        W16440  34.121  24.351   0.774
45841W        W16441  38.991  13.302  13.866
45842W        W16442  30.406  39.819   1.390
45843W        W16443  22.830  11.523   3.323
45844W        W16444  29.243  37.641  11.510
45845W        W16445  30.736  16.021   2.228
45846W        W16446  33.580  41.647   2.233
45847W        W16447  26.710  41.906  12.872
45848W        W16448  24.985  36.239   1.875
45849W        W16449  44.520  24.155   4.102
45850W        W16450  35.186   2.280  14.066
45851W        W16451  17.152  44.686  12.375
45852W        W16452  41.021  28.066  14.061
45853W        W16453  30.435  42.265   2.262
45854W        W16454  21.124   4.007  13.593
45855W        W16455  29.022  35.243   0.693
45856W        W16456  10.164   7.132  13.659
45857W        W16457  24.458  28.494   1.441
45858W        W16458   3.631  21.493  13.508
45859W        W16459   0.773   6.351  12.296
45860W        W16460  19.741  43.263   4.476
45861W        W16461  33.418  12.666  10.699
45862W        W16462   7.444  20.156   4.119
45863W        W16463  36.312  20.003   4.250
45864W        W16464  29.024  33.800  14.867
45865W        W16465  22.314  38.862  13.553
45866W        W16466   6.983  36.945  11.729
45867W        W16467   3.726  34.868  12.907
45868W        W16468   7.542  34.775   0.374
45869W        W16469  24.398   5.369  12.531
45870W        W16470  32.153  39.554  10.088
45871W        W16471   9.188  13.717  14.797
45872W        W16472  28.282  18.214  11.210
45873W        W16473   0.213  15.137   2.236
45874W        W16474   3.201  18.610   3.629
45875W        W16475   4.092   5.562  10.858
45876W        W16476  30.687  33.978   0.290
45877W        W16477  33.335  25.984  13.619
45878W        W16478  32.903  15.677   4.385
45879W        W16479   6.427   0.829  11.712
45880W        W16480  17.075  16.459  12.073
45881W        W16481  21.301  19.392  12.119
45882W        W16482  36.073  27.815  10.998
45883W        W16483  15.593  44.803   1.855
45884W        W16484  13.469  19.109  14.963
45885W        W16485  15.543  17.086   0.269
45886W        W16486  44.475   1.013   0.897
45887W        W16487   6.657  11.206  13.646
45888W        W16488   6.977  38.759  11.217
45889W        W16489  11.335  37.699  10.743
45890W        W16490  34.138  14.736  14.396
45891W        W16491  35.155  40.984   1.220
45892W        W16492  26.481  23.022   0.933
45893W        W16493  34.648  44.884   1.176
45894W        W16494  41.489  27.529  14.477
45895W        W16495  42.490  15.327  12.069
45896W        W16496  22.804  37.912  10.606
45897W        W16497  24.589   5.334   2.406
45898W        W16498  10.173  12.357  12.858
45899W        W16499  10.217  18.486  13.852
45900W        W16500  28.872  24.090   2.386
45901W        W16501  30.995  37.600   2.669
45902W        W16502  40.181  42.801  13.970
45903W        W16503  43.104  10.523  13.912
45904W        W16504  32.403  20.561  14.602
45905W        W16505  37.246  12.571  13.612
45906W        W16506  32.982  27.110   3.424
45907W        W16507  20.372  32.067  12.531
45908W        W16508  14.649  34.564  13.908
45909W        W16509  25.678  32.445  11.648
45910W        W16510  33.999  38.122   4.025
45911W        W16511  40.986  44.305   2.280
45912W        W16512  35.692  40.831   1.208
45913W        W16513  11.715   8.232   4.597
45914W        W16514   2.248  38.099   2.828
45915W        W16515  13.147  19.737  11.219
45916W        W16516  21.674  24.526  12.578
45917W        W16517  37.508  21.382  13.948
45918W        W16518  25.049  37.861   2.712
45919W        W16519  35.952  14.658   3.218
45920W        W16520  41.580   1.087  13.394
45921W        W16521  19.153   6.300   3.415
45922W        W16522  29.981  27.848  14.056
45923W        W16523  11.857  44.016  12.800
45924W        W16524   4.246  29.164  11.404
45925W        W16525  29.044  17.224  14.477
45926W        W16526  31.738   6.334  10.498
45927W        W16527  41.835  15.186   3.804
45928W        W16528  34.881  25.106  11.107
45929W        W16529  14.218  33.917  13.959
45930W        W16530  24.118   6.435   1.897
45931W        W16531  11.387  16.974  12.492
45932W        W16532  17.719   4.759   2.897
45933W        W16533  43.437  26.946  13.391
45934W        W16534  10.514  43.838   1.153
45935W        W16535  14.096  35.131  10.619
45936W        W16536   9.761  20.339   4.842
45937W        W16537   4.904  33.055  13.020
45938W        W16538  41.947   8.645   3.828
45939W        W16539  36.418  15.568  12.875
45940W        W16540  40.636  41.882  12.612
45941W        W16541  25.740  24.021  10.627
45942W        W16542  33.052   4.346  14.514
45943W        W16543   9.294  38.838  11.575
45944W        W16544   2.323  21.680  12.979
45945W        W16545  29.617  24.246  11.771
45946W        W16546  35.324  18.758   2.446
45947W        W16547  22.554   5.467  12.041
45948W        W16548   5.515  27.586  10.547
45949W        W16549  36.100  21.288  11.958
45950W        W16550   5.234  14.688  14.339
45951W        W16551  28.927  39.602   2.825
45952W        W16552  15.297  10.408  13.328
45953W        W16553  41.215   0.078   0.760
45954W        W16554  41.277  18.478  14.424
45955W        W16555  19.617  36.941   4.616
45956W        W16556   3.408  13.105   2.348
45957W        W16557   0.197  14.113   3.089
45958W        W16558  19.760  19.560  10.504
45959W        W16559  14.552  39.348  13.805
45960W        W16560   2.030   8.303  13.447
45961W        W16561   8.290  16.126  14.270
45962W        W16562  36.331  34.256   2.356
45963W        W16563   5.519  39.074   1.814
45964W        W16564   2.232  23.806  10.789
45965W        W16565  14.315  29.689  11.222
45966W        W16566  28.169  30.439  14.500
45967W        W16567  26.380   6.972  12.608
45968W        W16568  13.148  18.286  13.080
45969W        W16569  39.412  27.970   4.638
45970W        W16570  38.982   4.271  14.310
45971W        W16571   0.285  33.518  14.779
45972W        W16572  21.683  25.229  13.204
45973W        W16573  33.564  22.306   0.296
45974W        W16574  29.389  16.148  14.825
45975W        W16575  38.040   3.505   1.788
45976W        W16576   1.022  31.518   4.199
45977W        W16577  35.778   6.690   4.539
45978W        W16578  40.568  34.325   1.731
45979W        W16579  35.401   0.356  14.767
45980W        W16580  32.343  15.342   0.739
45981W        W16581  38.153  15.113  14.508
45982W        W16582   0.487  30.589   0.230
45983W        W16583  20.405  15.310  10.668
45984W        W16584  17.804   5.304  14.510
45985W        W16585  38.477  16.499   2.367
45986W        W16586  37.846  16.052   0.378
45987W        W16587   7.124  41.750   0.487
45988W        W16588  21.924  37.671  12.178
45989W        W16589  21.137  33.786  11.130
45990W        W16590  14.577  30.145  14.536
45991W        W16591   6.329  39.315   1.325
45992W        W16592  13.800  18.313   3.249
45993W        W16593  21.434  34.943  14.389
45994W        W16594  11.309   0.959  13.896
45995W        W16595   4.163  20.539  14.400
45996W        W16596  17.850  38.050   5.677
45997W        W16597  43.022   4.521   4.022
45998W        W16598  18.264  41.298   0.351
45999W        W16599  10.354  15.511  12.015
46000W        W16600   3.966  38.926   0.648
46001W        W16601  23.395   3.436   0.686
46002W        W16602  11.354   2.338  13.058
46003W        W16603  38.416  32.220   0.566
46004W        W16604  21.695  40.005   4.634
46005W        W16605  29.330  12.165   3.129
46006W        W16606  24.075   7.912   1.029
46007W        W16607   4.634  10.788  14.519
46008W        W16608  33.083  23.295   2.833
46009W        W16609   4.630  29.215   1.412
46010W        W16610  10.987  11.172   0.245
46011W        W16611  33.210  41.492   1.715
46012W        W16612  39.824  34.985   2.662
46013W        W16613   4.833  27.247  11.966
46014W        W16614  27.683  26.258  11.563
46015W        W16615  20.082   3.076  11.929
46016W        W16616  41.149  21.380   2.841
46017W        W16617  42.036   0.485   4.691
46018W        W16618  31.086  36.945  12.145
46019W        W16619  16.781  34.755  11.441
46020W        W16620   5.177  25.139  14.084
46021W        W16621   0.938  12.821   0.521
46022W        W16622  18.081  28.067  10.118
46023W        W16623  26.082   8.651   2.224
46024W        W16624  43.951   5.905  11.164
46025W        W16625  33.800   2.796  14.907
46026W        W16626   4.992   5.723   4.607
46027W        W16627  19.136   8.834   4.644
46028W        W16628  22.071  35.200  12.165
46029W        W16629  43.033   7.457   0.323
46030W        W16630  32.819  13.692   1.275
46031W        W16631  37.040  43.696  11.513
46032W        W16632  21.215  42.287  10.756
46033W        W16633  18.565  20.580  13.016
46034W        W16634  11.717  43.217   2.030
46035W        W16635  13.593  20.732  14.430
46036W        W16636  23.837  35.363   0.321
46037W        W16637  21.602  22.880   4.323
46038W        W16638  19.011  25.917  12.381
46039W        W16639  19.962   2.054  12.388
46040W        W16640   6.711  15.689  11.943
46041W        W16641  13.278   2.682   1.778
46042W        W16642  12.458  23.569   3.738
46043W        W16643  38.370  30.028   4.912
46044W        W16644   7.956  38.045   0.301
46045W        W16645  31.785  22.807  13.787
46046W        W16646   0.143   0.215   1.429
46047W        W16647  18.671  21.259  14.819
46048W        W16648   2.983  33.940  14.058
46049W        W16649  31.561   2.306  12.883
46050W        W16650  27.454   9.869   1.808
46051W        W16651  37.496  36.276   0.246
46052W        W16652  27.415  32.039   0.603
46053W        W16653  34.032   9.905   4.632
46054W        W16654  37.885  12.288  11.560
46055W        W16655  16.128  31.949   1.307
46056W        W16656  12.023  19.092   0.778
46057W        W16657  29.470   4.380  14.218
46058W        W16658  13.818   2.901   2.862
46059W        W16659  20.376   0.111  13.842
46060W        W16660  43.925  18.979   4.077
46061W        W16661  34.949   6.939  14.993
46062W        W16662   4.831  21.787   2.174
46063W        W16663  35.698  20.224   3.249
46064W        W16664  30.473  17.698  12.484
46065W        W16665  28.150  44.850  10.511
46066W        W16666  28.567   6.713   2.903
46067W        W16667  29.585  34.440  13.416
46068W        W16668  34.583  11.757  11.593
46069W        W16669  29.901  43.691  12.608
46070W        W16670  43.613  16.641   2.720
46071W        W16671  18.365  38.454   2.357
46072W        W16672   5.871  42.983  13.021
46073W        W16673  17.118  37.118   4.583
46074W        W16674  36.218   3.915   4.039
46075W        W16675   4.958  40.258   3.232
46076W        W16676   7.421   4.559   2.199
46077W        W16677  44.844  32.611   1.862
46078W        W16678  35.583   4.992   1.776
46079W        W16679  36.637  36.032  13.001
46080W        W16680  40.080  11.402  12.527
46081W        W16681  22.981  42.628   9.794
46082W        W16682  41.419  31.414   3.931
46083W        W16683  11.370  31.128  13.565
46084W        W16684  33.551  33.389  14.569
46085W        W16685   4.034  22.360  10.203
46086W        W16686  14.788   2.711  14.516
46087W        W16687  22.009  28.994  14.871
46088W        W16688  38.769   2.867   0.040
46089W        W16689  44.724  19.052  10.704
46090W        W16690   7.312  34.783  12.305
46091W        W16691  41.803  32.164   1.801
46092W        W16692  25.055  19.551  14.783
46093W        W16693  33.430  10.282   3.430
46094W        W16694  34.947  39.912  10.773
46095W        W16695  16.229  12.935  11.546
46096W        W16696  35.317  18.165   3.702
46097W        W16697  36.068  25.233   1.893
46098W        W16698   3.933  13.992  12.741
46099W        W16699  34.367  34.845  14.574
46100W        W16700  32.389  36.791   4.723
46101W        W16701  10.845  26.949  10.678
46102W        W16702  35.955  21.434  14.310
46103W        W16703  37.584  22.955  13.422
46104W        W16704   4.375  42.823   3.788
46105W        W16705  15.638  29.119   0.228
46106W        W16706  24.174  15.900   2.459
46107W        W16707  35.069  23.065  10.515
46108W        W16708  13.177  28.912   0.426
46109W        W16709  13.699  44.329  12.422
46110W        W16710  29.145   3.532   1.787
46111W        W16711  13.304  17.348  10.666
46112W        W16712  21.569  25.668  11.148
46113W        W16713  14.119   9.385   0.862
46114W        W16714  39.926  20.894  11.225
46115W        W16715  28.112  22.061  14.808
46116W        W16716  30.049  23.732   4.065
46117W        W16717  28.733  22.145   4.725
46118W        W16718   0.375  17.051  13.921
46119W        W16719  10.428   4.632  13.421
46120W        W16720  32.466  25.269   1.251
46121W        W16721  44.923  43.467  14.263
46122W        W16722  18.124  39.282  12.077
46123W        W16723  37.828  10.681   1.944
46124W        W16724  43.291  41.367  12.585
46125W        W16725  44.163   8.513   4.933
46126W        W16726  10.919  30.997  10.350
46127W        W16727  27.729  35.150  11.052
46128W        W16728  38.784  35.771  11.029
46129W        W16729   2.760   3.875   2.390
46130W        W16730  42.392   9.953  12.074
46131W        W16731  19.768   4.854  13.506
46132W        W16732  40.047  39.955   4.076
46133W        W16733  36.178  18.758  12.366
46134W        W16734   1.291  41.911   1.262
46135W        W16735  40.320   2.770   3.267
46136W        W16736  42.397  15.842  12.111
46137W        W16737  40.567  41.470   2.911
46138W        W16738  18.048  38.376  14.895
46139W        W16739  19.189  17.581  11.420
46140W        W16740  15.706  44.503  12.299
46141W        W16741  35.071   4.722   0.460
46142W        W16742  18.435  36.969   0.097
46143W        W16743  24.030   6.433  13.548
46144W        W16744   6.173   9.127   2.857
46145W        W16745  13.569  23.049   2.168
46146W        W16746  32.950  16.164   0.471
46147W        W16747  30.538  40.004   3.535
46148W        W16748  20.630  27.998  13.426
46149W        W16749   8.124   1.202  11.167
46150W        W16750  34.681  38.823   3.280
46151W        W16751   9.776  33.832  12.917
46152W        W16752  31.715   2.871   1.388
46153W        W16753  26.055  38.902   4.534
46154W        W16754  13.157   8.755  11.930
46155W        W16755  14.749  24.394  14.311
46156W        W16756  20.759   6.147  12.011
46157W        W16757   1.686  15.289   3.237
46158W        W16758   8.885  42.708  11.618
46159W        W16759  33.255   2.323  13.885
46160W        W16760  43.914   9.148  14.494
46161W        W16761   6.716   4.484  13.967
46162W        W16762   1.943  21.343   3.757
46163W        W16763  14.282  31.421   1.229
46164W        W16764  19.660  37.938   2.657
46165W        W16765  31.851   3.127  12.860
46166W        W16766  15.683   5.457   3.597
46167W        W16767  29.353  19.176   1.915
46168W        W16768  36.036  10.193  11.890
46169W        W16769  44.414  26.231   2.708
46170W        W16770  42.716  12.266   3.374
46171W        W16771  30.063  15.804  14.272
46172W        W16772   3.839   7.604   1.665
46173W        W16773  37.543   2.378   3.100
46174W        W16774   1.466  15.597  10.788
46175W        W16775   0.213  39.219   2.650
46176W        W16776   0.146  34.573  13.387
46177W        W16777   3.269   6.359   2.126
46178W        W16778  36.426  15.857   0.976
46179W        W16779  35.565  16.742  10.531
46180W        W16780  29.151   8.248   1.972
46181W        W16781  25.005  39.175  11.072
46182W        W16782  42.765  22.747  13.956
46183W        W16783  23.471  38.251   3.121
46184W        W16784  14.734  21.674  11.628
46185W        W16785  12.049  36.978   1.878
46186W        W16786   6.900  31.002   1.578
46187W        W16787  34.090   5.191  13.097
46188W        W16788  17.615  19.334   0.014
46189W        W16789   5.753  27.110   1.791
46190W        W16790  33.454  41.350  11.083
46191W        W16791   6.494   2.873   3.409
46192W        W16792   6.894  41.343  14.739
46193W        W16793  41.504  38.313  12.052
46194W        W16794  27.476  12.219   2.733
46195W        W16795  38.467  28.893   2.908
46196W        W16796  40.861  40.092  12.123
46197W        W16797  13.814   8.695   1.195
46198W        W16798  22.038  25.706   0.924
46199W        W16799  25.508  30.252   3.779
46200W        W16800  29.511   3.529   0.347
46201W        W16801  16.812  20.248  13.844
46202W        W16802  40.505  18.653   2.924
46203W        W16803  20.872  17.666  13.095
46204W        W16804  30.212  21.006   4.649
46205W        W16805  14.453  44.053   0.401
46206W        W16806   6.586  16.642  14.811
46207W        W16807  11.299  38.848  14.428
46208W        W16808  26.599   6.608   1.316
46209W        W16809  12.399  18.558   2.588
46210W        W16810  10.795  44.926   0.379
46211W        W16811  21.518   3.032   3.930
46212W        W16812  13.681  29.872  11.923
46213W        W16813  27.676  11.615  11.112
46214W        W16814  22.813  27.167   2.115
46215W        W16815   1.035  42.466   1.481
46216W        W16816  24.678  20.581  10.942
46217W        W16817  34.976  33.901   3.129
46218W        W16818  30.443   6.429  13.626
46219W        W16819  29.563  21.352   4.183
46220W        W16820  25.565   6.470  14.346
46221W        W16821  42.948  42.311  10.764
46222W        W16822  37.722  38.585   1.627
46223W        W16823  21.191  11.021   1.036
46224W        W16824  37.314  10.256   1.384
46225W        W16825   1.502  16.710   1.168
46226W        W16826  25.427  13.871   1.032
46227W        W16827   3.345  34.422   2.768
46228W        W16828  11.632  42.923  12.103
46229W        W16829  30.574   4.699  13.323
46230W        W16830   7.077   7.415  14.511
46231W        W16831   4.969   2.968  14.573
46232W        W16832  16.922  27.629   1.716
46233W        W16833  26.030  36.677  12.467
46234W        W16834  15.858  38.519   4.901
46235W        W16835   6.207  26.586   2.749
46236W        W16836  34.430  30.411   4.326
46237W        W16837  28.764  38.079   2.358
46238W        W16838   4.655  35.777  14.875
46239W        W16839   8.070  19.187   4.147
46240W        W16840  37.059  13.157  12.024
46241W        W16841  42.322   5.877  14.296
46242W        W16842   8.987  26.551   2.435
46243W        W16843  13.563   0.132  13.865
46244W        W16844  33.525  20.848  11.626
46245W        W16845   4.282  23.466  13.908
46246W        W16846  32.033  42.941  13.978
46247W        W16847   0.292  18.768  12.560
46248W        W16848  16.196  12.338   1.251
46249W        W16849  41.426  11.897  14.818
46250W        W16850  28.840   9.686   0.022
46251W        W16851   3.483  40.803  11.659
46252W        W16852  16.857  33.901   1.892
46253W        W16853  12.115  36.877  11.199
46254W        W16854  19.747  13.401  13.234
46255W        W16855  19.564  37.183   1.826
46256W        W16856   5.808  37.579  11.549
46257W        W16857  15.816  31.666  10.593
46258W        W16858  21.628  19.118   1.414
46259W        W16859  29.717  15.643  12.956
46260W        W16860   6.319  19.325   0.837
46261W        W16861  15.474   5.808   2.095
46262W        W16862   3.265  20.590   2.271
46263W        W16863  38.738  29.046  10.868
46264W        W16864  19.681  31.661  13.853
46265W        W16865  10.710  31.369  12.437
46266W        W16866   6.716  19.646  11.738
46267W        W16867  40.226  36.950   2.801
46268W        W16868  24.788   7.225  11.931
46269W        W16869  40.395  18.562  13.426
46270W        W16870  25.900  10.799  11.110
46271W        W16871  16.050  34.024  12.797
46272W        W16872  27.517   0.482   3.727
46273W        W16873   1.713  16.233   3.502
46274W        W16874  36.483   8.854  14.404
46275W        W16875  30.367  35.424   3.793
46276W        W16876  41.981  41.442   3.800
46277W        W16877  30.380  12.894   1.329
46278W        W16878  14.365  41.883   2.924
46279W        W16879   6.737  40.966  12.644
46280W        W16880  44.759  12.881  11.546
46281W        W16881  33.410  43.902   1.986
46282W        W16882   1.290  38.109  13.957
46283W        W16883   9.608   0.468   0.367
46284W        W16884  14.643  28.795  13.979
46285W        W16885   5.086  31.753   4.970
46286W        W16886  33.404  19.222  14.464
46287W        W16887  35.576  13.295  11.171
46288W        W16888  31.118   2.095   4.958
46289W        W16889  27.881   5.446   3.542
46290W        W16890  10.217   5.173   4.525
46291W        W16891  11.875  16.982  12.788
46292W        W16892  23.329  44.320  12.511
46293W        W16893  34.563  31.219   4.701
46294W        W16894  10.792   9.705   3.667
46295W        W16895  12.394  44.404  12.080
46296W        W16896  14.736  13.188   4.191
46297W        W16897  37.566  16.723   2.196
46298W        W16898   7.823  43.061   1.383
46299W        W16899  26.575  42.510   4.360
46300W        W16900  28.605   0.279   1.996
46301W        W16901  24.552   1.035   4.471
46302W        W16902  40.829  30.101   4.465
46303W        W16903  14.541  39.276  12.539
46304W        W16904   4.013  24.921  10.135
46305W        W16905  14.211  13.846   0.221
46306W        W16906   9.295  38.024   1.467
46307W        W16907   0.943  34.701  10.681
46308W        W16908  17.310   2.430   2.939
46309W        W16909  43.232  29.093   1.854
46310W        W16910  25.441  30.930   1.742
46311W        W16911  22.990   6.446  14.908
46312W        W16912  43.218  42.113   0.329
46313W        W16913  21.312  10.730  10.951
46314W        W16914  26.759  14.178   1.319
46315W        W16915  18.079  37.175  14.749
46316W        W16916  26.331   2.192   1.314
46317W        W16917  39.041  29.531   0.068
46318W        W16918   9.855  37.032  11.680
46319W        W16919  35.819   6.976   1.805
46320W        W16920  36.280  34.813  14.351
46321W        W16921  15.532   8.096   3.300
46322W        W16922  17.529  40.754   1.342
46323W        W16923  41.789  15.742  11.143
46324W        W16924  26.070  15.522   0.919
46325W        W16925  12.127  42.192   2.841
46326W        W16926  10.612  43.042  11.037
46327W        W16927  44.918  22.567   1.018
46328W        W16928  44.438  40.431   0.486
46329W        W16929  30.474  16.041  14.504
46330W        W16930  31.397   7.344   5.080
46331W        W16931  17.805  30.637   1.474
46332W        W16932  33.145  21.665  13.426
46333W        W16933  40.572  24.686   0.455
46334W        W16934  25.766  12.321   1.512
46335W        W16935   0.485   9.264   1.610
46336W        W16936  29.746  29.878   3.534
46337W        W16937  28.105  15.323  14.970
46338W        W16938  35.075  21.541   1.372
46339W        W16939  32.619  14.156  12.178
46340W        W16940  30.418  18.698   4.116
46341W        W16941  26.705   4.189   4.367
46342W        W16942  32.826  20.629   1.931
46343W        W16943   1.711  14.891  11.202
46344W        W16944  36.030  27.106  13.105
46345W        W16945   9.134   9.005   3.395
46346W        W16946  28.528  37.093   4.244
46347W        W16947  33.005   4.075   2.576
46348W        W16948   6.171   3.399   2.210
46349W        W16949   9.573  32.124  12.006
46350W        W16950  16.578  31.034  11.617
46351W        W16951  24.026  37.508  10.371
46352W        W16952  44.722  12.112   3.153
46353W        W16953  39.553  27.516  13.929
46354W        W16954   1.316  14.198   4.176
46355W        W16955   4.415  14.784   2.234
46356W        W16956  28.402  22.171   4.324
46357W        W16957  21.359   9.911   2.272
46358W        W16958  37.335  34.808   3.256
46359W        W16959   5.619  29.182   3.223
46360W        W16960  44.288  34.427   1.419
46361W        W16961  24.529  41.370  13.331
46362W        W16962  22.574  42.336  13.542
46363W        W16963  36.982  33.871   2.600
46364W        W16964  32.142  12.255  12.881
46365W        W16965   2.219  18.142  13.554
46366W        W16966   5.679  29.706  12.338
46367W        W16967  29.889  36.380  13.410
46368W        W16968  42.436  13.794  13.978
46369W        W16969  40.273  16.658  11.520
46370W        W16970  15.815  38.028  11.990
46371W        W16971  12.137  14.587  14.858
46372W        W16972  39.959  27.102  11.502
46373W        W16973  44.838  10.715  10.769
46374W        W16974  32.691  11.836   0.823
46375W        W16975  23.413   5.384   4.788
46376W        W16976  16.165   2.141  13.410
46377W        W16977  24.197  13.633   2.667
46378W        W16978  31.567  40.248  14.801
46379W        W16979  33.912  29.411  10.948
46380W        W16980  18.916  44.294   4.543
46381W        W16981  17.572   3.663   4.133
46382W        W16982  37.028  18.346  14.330
46383W        W16983  28.547   8.720  13.015
46384W        W16984  25.475  15.559  12.534
46385W        W16985  22.842  23.679   1.226
46386W        W16986   5.249  44.383   3.233
46387W        W16987  42.299  44.166  12.311
46388W        W16988  11.702  13.884  14.928
46389W        W16989  27.699  42.329  11.344
46390W        W16990  25.289  22.750   2.306
46391W        W16991   6.366  23.355  12.017
46392W        W16992  34.513   0.759  12.372
46393W        W16993  20.314  19.243   4.123
46394W        W16994  17.190  12.125   1.540
46395W        W16995  29.419  13.192   4.095
46396W        W16996   0.549  31.356  14.334
46397W        W16997   6.902  36.438  12.851
46398W        W16998  42.735  35.481   3.744
46399W        W16999  36.968   9.400   2.689
46400W        W17000  36.459  16.766   0.517
46401W        W17001  30.542   2.920  12.986
46402W        W17002  13.332  23.766  11.590
46403W        W17003  40.113  23.594  12.948
46404W        W17004  31.466  10.741   2.676
46405W        W17005   7.449   5.900   0.498
46406W        W17006  26.494  16.123   4.250
46407W        W17007  40.802  29.010  14.062
46408W        W17008   5.929  14.373  12.009
46409W        W17009  21.132  31.108   0.476
46410W        W17010  20.775  21.663  13.627
46411W        W17011   9.008  38.246  10.753
46412W        W17012  39.909  41.003   4.011
46413W        W17013  40.392  26.008  12.709
46414W        W17014  32.388  17.693   1.189
46415W        W17015  38.945  28.620   2.887
46416W        W17016  34.606  21.762   1.321
46417W        W17017  33.590  35.530  12.474
46418W        W17018   2.480  24.031  13.320
46419W        W17019  42.423  40.331  11.023
46420W        W17020   4.749  26.602   3.174
46421W        W17021  21.247   6.251   2.510
46422W        W17022  42.930   9.182  11.618
46423W        W17023   3.200  20.106   3.698
46424W        W17024   0.202  31.105   1.564
46425W        W17025  11.405  30.930  11.622
46426W        W17026  37.529  35.063   1.501
46427W        W17027  31.985  28.737   4.123
46428W        W17028  39.521   1.819  12.144
46429W        W17029  33.502   1.591   4.532
46430W        W17030  35.085  21.110  13.958
46431W        W17031  32.603  36.879   3.168
46432W        W17032  43.417  15.367  11.148
46433W        W17033   1.323  18.327   4.826
46434W        W17034  28.009  33.470  11.829
46435W        W17035  12.472  28.367   1.613
46436W        W17036  30.508  36.024  12.484
46437W        W17037  18.321  41.713   3.177
46438W        W17038  38.859  18.731   2.335
46439W        W17039  21.459   5.156  14.169
46440W        W17040  30.903  29.842  14.836
46441W        W17041  38.106  20.533  13.345
46442W        W17042  28.052  42.745  14.398
46443W        W17043  17.577  43.932  11.192
46444W        W17044  32.431  12.721   4.545
46445W        W17045  31.161   8.660  11.389
46446W        W17046   5.609  11.766  13.360
46447W        W17047  42.082  22.535  11.189
46448W        W17048  31.921  26.048  13.559
46449W        W17049  41.257  16.139   1.383
46450W        W17050  19.865  38.361   2.410
46451W        W17051  35.642  36.939  12.882
46452W        W17052  30.471   5.240   3.746
46453W        W17053   7.662  17.349   2.755
46454W        W17054  17.533  32.843   4.699
46455W        W17055  29.954  18.195  11.569
46456W        W17056  14.191   2.239   1.741
46457W        W17057   8.827  38.616   3.645
46458W        W17058  35.801  32.896   1.230
46459W        W17059  23.702  20.018   3.204
46460W        W17060  41.430  14.622  10.673
46461W        W17061  16.849  24.177  12.894
46462W        W17062   0.955   7.627  11.862
46463W        W17063  30.499  24.341   4.540
46464W        W17064  42.245  31.738   0.952
46465W        W17065  20.678  13.818  12.699
46466W        W17066  22.852  28.055  13.908
46467W        W17067  12.374   5.074   2.218
46468W        W17068  15.231   6.469   3.775
46469W        W17069  44.769  33.269   3.583
46470W        W17070  12.922  24.181  10.870
46471W        W17071  15.001   3.827  10.631
46472W        W17072  23.900  40.716  13.559
46473W        W17073   0.841   1.998   0.032
46474W        W17074  44.174   0.919  10.636
46475W        W17075  44.287  36.992   4.555
46476W        W17076  14.031  19.121   2.625
46477W        W17077  25.139  37.556   9.873
46478W        W17078   7.771  12.088   4.931
46479W        W17079  33.052  17.153  13.150
46480W        W17080  25.754  43.776  13.009
46481W        W17081   4.909  23.474   0.104
46482W        W17082  19.690  12.151   4.681
46483W        W17083   1.208   3.302  14.809
46484W        W17084  25.056  26.251  12.020
46485W        W17085  17.219  44.781  13.782
46486W        W17086  13.327  21.623   4.675
46487W        W17087   5.246   1.843  13.442
46488W        W17088  15.235   8.364   1.753
46489W        W17089  29.623  24.903  10.556
46490W        W17090  16.284  28.953  14.567
46491W        W17091  32.154  22.600   4.953
46492W        W17092  34.175   9.850   1.820
46493W        W17093  34.488  41.807   0.399
46494W        W17094  24.643  18.117   0.729
46495W        W17095  28.907   2.238   4.196
46496W        W17096  18.418  40.039   4.785
46497W        W17097  12.818  34.834  13.954
46498W        W17098  31.326  13.610  10.765
46499W        W17099  21.138  36.367  10.997
46500W        W17100   4.771  44.491  14.272
46501W        W17101  20.205   0.077  13.313
46502W        W17102   4.148   2.030   0.682
46503W        W17103  23.687  22.720  12.531
46504W        W17104  17.159  31.577  12.380
46505W        W17105   6.977   4.926   3.367
46506W        W17106   6.775   7.191  12.128
46507W        W17107   3.690   5.659  14.799
46508W        W17108  37.571  40.340   1.116
46509W        W17109  30.130  16.102   4.161
46510W        W17110  26.663  22.524   3.650
46511W        W17111   5.735   9.140  14.351
46512W        W17112  31.131  28.411   2.648
46513W        W17113  32.130  21.345  13.938
46514W        W17114  24.965   8.208  11.761
46515W        W17115  32.329  44.825   3.075
46516W        W17116  31.986   0.713   1.171
46517W        W17117  24.491  29.517  13.118
46518W        W17118  39.797   7.688   2.290
46519W        W17119  23.272  16.156  12.541
46520W        W17120  40.646  21.163  14.376
46521W        W17121  30.020  33.194  14.460
46522W        W17122  37.602   9.633  12.490
46523W        W17123   6.608  33.901   3.376
46524W        W17124  37.932   9.328   2.642
46525W        W17125  23.163   2.055   1.287
46526W        W17126  26.273  14.390   1.260
46527W        W17127  32.176  21.631  11.499
46528W        W17128  33.584  13.802  10.760
46529W        W17129  21.054  23.927  12.324
46530W        W17130  40.828  12.675  13.879
46531W        W17131  35.578  16.767  13.840
46532W        W17132  27.377   1.041  14.424
46533W        W17133  39.836  11.646  12.944
46534W        W17134  10.590  20.584   0.487
46535W        W17135  24.397   8.616  11.342
46536W        W17136  44.426   8.403   1.727
46537W        W17137  24.594  35.440   3.389
46538W        W17138  22.405   3.512   4.156
46539W        W17139   9.212  17.885   1.390
46540W        W17140  10.675  34.014   0.186
46541W        W17141   4.898  37.373   3.333
46542W        W17142  25.991  14.641  13.574
46543W        W17143  10.809  44.098   3.337
46544W        W17144  10.201  16.677   4.513
46545W        W17145   4.826   3.044   2.379
46546W        W17146  44.811  14.163  13.041
46547W        W17147   0.858  41.326   0.028
46548W        W17148  36.898  14.420  13.773
46549W        W17149  21.073   6.336  12.650
46550W        W17150  34.201   8.289  10.665
46551W        W17151  26.572  43.513  11.331
46552W        W17152   9.248  38.825   0.467
46553W        W17153  26.067   3.659   4.887
46554W        W17154   4.036  38.684  11.014
46555W        W17155  28.459  20.249  12.902
46556W        W17156   0.303  32.111   2.309
46557W        W17157   7.415  22.522   1.414
46558W        W17158   6.293  12.657   1.855
46559W        W17159  42.421  41.861  11.890
46560W        W17160   1.742  31.197   1.456
46561W        W17161   9.197  25.131   5.038
46562W        W17162  25.305  36.524   0.438
46563W        W17163  15.418  44.510   2.390
46564W        W17164  44.310  10.171   3.090
46565W        W17165  27.614  16.278  13.109
46566W        W17166  23.658  29.950  14.279
46567W        W17167  15.930  17.114  11.451
46568W        W17168  26.136  27.665   4.578
46569W        W17169   8.247   4.258   4.080
46570W        W17170   0.345  44.776  13.969
46571W        W17171  41.250   4.175   4.064
46572W        W17172  22.224  43.896   1.233
46573W        W17173  36.178  20.064   0.390
46574W        W17174  14.085  42.892  12.299
46575W        W17175   6.151  11.830   2.248
46576W        W17176  41.973  13.167   0.091
46577W        W17177  26.745  23.700  10.214
46578W        W17178  20.665  24.102   2.402
46579W        W17179  33.853  19.073   1.050
46580W        W17180  30.438   6.123  10.756
46581W        W17181  41.460   0.699  10.604
46582W        W17182  18.140   2.693  12.423
46583W        W17183   1.410  27.902   1.596
46584W        W17184  13.131  31.161  11.534
46585W        W17185  10.355   6.299  12.396
46586W        W17186  10.811  30.871  12.377
46587W        W17187   8.809  31.640  13.423
46588W        W17188  28.417   4.968   0.727
46589W        W17189  11.228   8.850  11.090
46590W        W17190   4.302  41.424  13.278
46591W        W17191   9.633  16.152  13.066
46592W        W17192   2.011  23.692  12.060
46593W        W17193  37.077  33.382   4.589
46594W        W17194  15.782  15.568  14.962
46595W        W17195  36.372  26.112  13.444
46596W        W17196  34.008  11.656   2.746
46597W        W17197  36.849   6.037   2.921
46598W        W17198  29.522  33.049  10.358
46599W        W17199  33.456  42.023  11.929
46600W        W17200  24.635  37.840  13.627
46601W        W17201  37.957  24.544   1.755
46602W        W17202  28.678  29.919  11.214
46603W        W17203  34.493  30.588  14.327
46604W        W17204  30.535  35.875   2.323
46605W        W17205  17.707  25.843  14.005
46606W        W17206   4.832  14.850   3.706
46607W        W17207   6.728  30.483  13.754
46608W        W17208  36.589  38.653  10.196
46609W        W17209  21.669  39.137  12.940
46610W        W17210  25.053  31.864   4.100
46611W        W17211  20.375  26.025  14.451
46612W        W17212  41.598  30.518  11.731
46613W        W17213  14.360  27.881  11.613
46614W        W17214   1.600   6.748   3.624
46615W        W17215   3.579  10.870   4.233
46616W        W17216  42.924  39.445  14.310
46617W        W17217  36.546  24.993   3.734
46618W        W17218  31.078  30.017   1.815
46619W        W17219  25.433   7.826   9.965
46620W        W17220  13.619  18.694  10.745
46621W        W17221  38.308  25.974   1.647
46622W        W17222  38.185  10.334  10.385
46623W        W17223  43.011  42.745   0.466
46624W        W17224  30.510  17.481   0.750
46625W        W17225   2.667  11.419   4.053
46626W        W17226   2.852   7.569   4.857
46627W        W17227   9.077  19.057  13.472
46628W        W17228  12.306  25.183   1.820
46629W        W17229  16.660  16.003   1.779
46630W        W17230  36.569  25.781   4.145
46631W        W17231  28.570  24.987  12.498
46632W        W17232   7.383   1.523   3.680
46633W        W17233  12.583  26.688   1.619
46634W        W17234  18.037   8.145  14.766
46635W        W17235  30.953  42.163  11.117
46636W        W17236  26.491  21.523   2.755
46637W        W17237  26.532  13.588   1.620
46638W        W17238   2.402  36.969   4.507
46639W        W17239  18.301  26.131  15.000
46640W        W17240  38.280  41.175   1.388
46641W        W17241  14.617  10.695   4.574
46642W        W17242  24.982   3.372   0.158
46643W        W17243  30.808  25.033  11.249
46644W        W17244   1.452  33.663   1.306
46645W        W17245  29.111  16.873   0.434
46646W        W17246  32.591  31.869   1.727
46647W        W17247   3.689   6.648  13.166
46648W        W17248  23.062  14.715   2.034
46649W        W17249  31.149  18.099   0.762
46650W        W17250  32.229   5.910  11.335
46651W        W17251   9.826  13.385   3.042
46652W        W17252  16.691  36.236  12.511
46653W        W17253  36.853  16.316  13.258
46654W        W17254  26.447  33.103   1.989
46655W        W17255   7.911  44.492  14.539
46656W        W17256  39.291  27.453   4.579
46657W        W17257  18.677  17.681   2.929
46658W        W17258  13.980  27.828  13.603
46659W        W17259   1.926  10.370  14.870
46660W        W17260  44.011  38.884   1.414
46661W        W17261   1.338  21.244  12.258
46662W        W17262  35.993  41.541   1.282
46663W        W17263   5.699  24.931   0.646
46664W        W17264   0.436  41.249   2.164
46665W        W17265  43.746   2.213   2.697
46666W        W17266  31.865  43.150  14.988
46667W        W17267  22.508   6.638   0.010
46668W        W17268  34.543  17.967  14.097
46669W        W17269   6.502  27.977   4.618
46670W        W17270  19.702   3.243  13.886
46671W        W17271  27.672  12.364   1.219
46672W        W17272  18.621  24.998   3.517
46673W        W17273  35.533   0.539  12.774
46674W        W17274  24.738  28.136  13.120
46675W        W17275  15.777  43.810   1.315
46676W        W17276  35.073  31.219  14.384
46677W        W17277  43.811  34.030  12.460
46678W        W17278  38.327  21.839   0.740
46679W        W17279  32.018  14.747  12.696
46680W        W17280  14.164  32.029   4.563
46681W        W17281   6.069  38.078   0.016
46682W        W17282  37.514  19.654  12.053
46683W        W17283  14.304   0.469   2.394
46684W        W17284  19.704  33.976   0.910
46685W        W17285  14.288  26.981   4.189
46686W        W17286  16.389  42.981   2.669
46687W        W17287  29.431  41.259  13.917
46688W        W17288  10.537  39.620   1.026
46689W        W17289   3.789   0.047  14.724
46690W        W17290   5.876  13.083  11.527
46691W        W17291  34.371  23.490  10.751
46692W        W17292  30.218  27.666  11.287
46693W        W17293  31.599   1.855  13.122
46694W        W17294  21.716  21.222  14.787
46695W        W17295   7.109  15.701  14.054
46696W        W17296  29.656  30.728   3.317
46697W        W17297  31.932   4.153  13.393
46698W        W17298  38.490  14.505   1.183
46699W        W17299   7.699  40.263   3.188
46700W        W17300  29.352  40.230  12.130
46701W        W17301   4.462  18.131  14.453
46702W        W17302  29.430   8.995   1.485
46703W        W17303  42.915  33.664  13.502
46704W        W17304  30.947   9.617   1.448
46705W        W17305  22.610  19.980  13.995
46706W        W17306  43.297  22.105  14.317
46707W        W17307  29.944  18.818   1.347
46708W        W17308  38.902  24.718   1.899
46709W        W17309  36.558  15.491  12.376
46710W        W17310  43.050  26.338  13.822
46711W        W17311  13.653   9.643   0.819
46712W        W17312   9.834  20.740  14.828
46713W        W17313  21.109   8.163  14.045
46714W        W17314  20.451  33.581  11.884
46715W        W17315  42.897  37.584  13.712
46716W        W17316  17.382  21.561  13.377
46717W        W17317   7.796  15.594   2.216
46718W        W17318  24.570  44.351   1.594
46719W        W17319  44.390  36.643  12.618
46720W        W17320  34.552  23.528   0.832
46721W        W17321   9.811  42.553   3.166
46722W        W17322  40.797  14.756   4.844
46723W        W17323  28.127   3.811   3.751
46724W        W17324  41.191  24.687   3.131
46725W        W17325  12.531  20.217   4.160
46726W        W17326  32.222  39.070   1.867
46727W        W17327   3.210  22.520  11.104
46728W        W17328  27.926  35.667  14.412
46729W        W17329  28.406  30.736  10.682
46730W        W17330  36.321  31.657  10.643
46731W        W17331  17.536  44.845  11.113
46732W        W17332   8.433  42.243  11.001
46733W        W17333  19.652   5.283  12.564
46734W        W17334  41.816  40.519   2.745
46735W        W17335   2.961   4.848   3.654
46736W        W17336  29.935  10.547   4.595
46737W        W17337  24.258  39.489   3.717
46738W        W17338  27.398  38.008   1.989
46739W        W17339  12.619  11.042  13.125
46740W        W17340   1.683  43.441  12.488
46741W        W17341  16.375  12.341  12.381
46742W        W17342  14.796  10.664  12.423
46743W        W17343  20.194   0.088  12.607
46744W        W17344  40.586  22.070  11.178
46745W        W17345  21.702  41.216   4.989
46746W        W17346  41.319  32.132   0.428
46747W        W17347  33.601  44.724  14.491
46748W        W17348   4.935  22.605   1.163
46749W        W17349  37.986  25.570  11.650
46750W        W17350  35.983  37.586   2.410
46751W        W17351  39.401   7.719   0.099
46752W        W17352   6.311  19.067  10.674
46753W        W17353   4.943  20.661   3.261
46754W        W17354  29.343  30.979   4.249
46755W        W17355  31.472   8.882   4.163
46756W        W17356  35.852  33.804  12.379
46757W        W17357  23.814  12.201   0.477
46758W        W17358  41.201  19.037  12.525
46759W        W17359  18.719   7.025   2.308
46760W        W17360  13.827  42.557   2.815
46761W        W17361  23.173  14.834   3.811
46762W        W17362   6.658   3.432  14.968
46763W        W17363  39.643   1.704  11.266
46764W        W17364   8.446  16.663  11.663
46765W        W17365  12.743  19.914  11.459
46766W        W17366  19.226   6.760   2.763
46767W        W17367  26.494  13.309   4.983
46768W        W17368  42.314  44.480   2.849
46769W        W17369   3.806  24.694   0.798
46770W        W17370   8.326   1.906   2.253
46771W        W17371  14.213   2.926   3.718
46772W        W17372  28.250  24.514   1.700
46773W        W17373  13.034  14.759  14.732
46774W        W17374   0.984  27.747  11.093
46775W        W17375  17.546   5.837  12.746
46776W        W17376   9.151  28.304  12.356
46777W        W17377  43.809  29.898   4.230
46778W        W17378   4.710  43.783   2.488
46779W        W17379  42.839  23.894  11.080
46780W        W17380  37.444   0.832   0.958
46781W        W17381  11.462  26.613   0.794
46782W        W17382  36.574  31.545   3.639
46783W        W17383  11.378  26.345  10.331
46784W        W17384  30.845  11.694   3.552
46785W        W17385  18.363  31.961  13.431
46786W        W17386  15.492  27.711   2.195
46787W        W17387  38.390  12.239  11.601
46788W        W17388  29.633  29.060  11.924
46789W        W17389  14.937   9.213   1.559
46790W        W17390  40.233  38.833   0.182
46791W        W17391  34.320  23.822  11.163
46792W        W17392  15.828  36.227  10.368
46793W        W17393  22.515  15.190  12.956
46794W        W17394  17.123   0.413   1.099
46795W        W17395  24.583   1.486  12.695
46796W        W17396  26.564   6.176  11.163
46797W        W17397   1.287  34.390   3.756
46798W        W17398  42.926  20.213  11.942
46799W        W17399  41.106  36.083  14.562
46800W        W17400  22.721  25.418  11.466
46801W        W17401   9.580  21.641   4.405
46802W        W17402  38.961   1.918   2.459
46803W        W17403   2.833  15.768   2.738
46804W        W17404  15.464  15.584  11.882
46805W        W17405   7.345  10.695  12.133
46806W        W17406  32.508  11.412  14.786
46807W        W17407  10.075  37.130   1.628
46808W        W17408  27.122  20.081  10.778
46809W        W17409   6.822  21.953  12.491
46810W        W17410  23.609  14.863  14.353
46811W        W17411  20.283   6.787  12.519
46812W        W17412  42.295  19.425   0.828
46813W        W17413  15.322   7.039  12.478
46814W        W17414   9.947  17.548   1.787
46815W        W17415  13.702  18.703   3.691
46816W        W17416  12.560  14.879  10.620
46817W        W17417  25.283  16.147  12.787
46818W        W17418  41.352  32.270  10.679
46819W        W17419  38.246  19.235  12.920
46820W        W17420   4.839  38.829  10.581
46821W        W17421  36.800   1.597  11.616
46822W        W17422  44.846  16.499   4.437
46823W        W17423  31.523   2.274  13.410
46824W        W17424  34.125  27.177   0.321
46825W        W17425  36.409  35.823   2.296
46826W        W17426  17.612  44.290  12.940
46827W        W17427   5.562  20.941   0.461
46828W        W17428   9.663  12.259  14.910
46829W        W17429   1.696  22.425   0.223
46830W        W17430  20.634  17.849  14.095
46831W        W17431  31.536  31.194  10.757
46832W        W17432   5.138   9.669   3.185
46833W        W17433  33.006  29.822  10.536
46834W        W17434  33.148  10.370   0.345
46835W        W17435  17.902  30.108  13.256
46836W        W17436  42.294  44.448   1.340
46837W        W17437   4.142   7.694  11.127
46838W        W17438  22.439  36.377   3.225
46839W        W17439  16.052  24.639  11.402
46840W        W17440  33.425  24.065  11.419
46841W        W17441  27.882  20.349   3.289
46842W        W17442  14.670  33.530   0.287
46843W        W17443  44.273  15.224  12.100
46844W        W17444  27.029  31.941   4.687
46845W        W17445  17.333  22.502   1.410
46846W        W17446  16.319  22.567   1.389
46847W        W17447   0.474  34.389   0.817
46848W        W17448  26.222  13.771   2.576
46849W        W17449   3.916  43.925  12.141
46850W        W17450  10.888  29.638  14.577
46851W        W17451  15.430   8.834   3.765
46852W        W17452  44.607  40.096  11.582
46853W        W17453   9.165   5.197  10.756
46854W        W17454  24.995   3.575  11.124
46855W        W17455   8.581   6.560   0.685
46856W        W17456   1.556  28.820  14.775
46857W        W17457  39.785  13.786   2.809
46858W        W17458  16.888  13.291  11.062
46859W        W17459  15.238   4.721   0.188
46860W        W17460   7.428   8.895  12.095
46861W        W17461  26.463  10.634   4.855
46862W        W17462  21.578   6.332  10.386
46863W        W17463   2.204  13.081   2.174
46864W        W17464   7.245  16.021   4.374
46865W        W17465  27.190  30.999   2.180
46866W        W17466  18.248  35.106  12.642
46867W        W17467  22.594  16.231   0.835
46868W        W17468  11.673  23.353   3.218
46869W        W17469  31.535  11.843   2.721
46870W        W17470  25.954  35.574  12.772
46871W        W17471  26.967  13.251  11.576
46872W        W17472  24.244   7.680   1.448
46873W        W17473  18.151   4.160  12.998
46874W        W17474  22.578  24.275   2.375
46875W        W17475   0.020  34.669   3.248
46876W        W17476   6.967  31.893   4.077
46877W        W17477  20.830  43.292   3.274
46878W        W17478   5.065   3.383   4.674
46879W        W17479  41.997   2.046  11.640
46880W        W17480  40.550   3.891   2.140
46881W        W17481  18.572  37.661   4.200
46882W        W17482  32.430  39.503  11.458
46883W        W17483  19.793  14.898   3.191
46884W        W17484  31.443  13.096  14.049
46885W        W17485  38.427  14.138  10.922
46886W        W17486   7.239  10.885   4.715
46887W        W17487  13.839   3.220   4.833
46888W        W17488   9.533  21.464  11.618
46889W        W17489   0.110  24.949   1.045
46890W        W17490  41.792  17.195   1.162
46891W        W17491  21.158  44.257   3.697
46892W        W17492  36.818   9.956   4.197
46893W        W17493  37.676   9.845   0.286
46894W        W17494  19.449  20.497  14.180
46895W        W17495   5.272  14.006   3.575
46896W        W17496   1.771  16.232  11.917
46897W        W17497   4.148  20.667   0.180
46898W        W17498  29.831  23.279  11.187
46899W        W17499   7.435  44.482   2.748
46900W        W17500  22.161  18.831   0.895
46901W        W17501  19.693   7.819   2.702
46902W        W17502   0.369  12.103   1.713
46903W        W17503   9.772  30.614   0.726
46904W        W17504   9.579  10.764  14.416
46905W        W17505  38.618  26.798   4.219
46906W        W17506   7.702   0.351  12.863
46907W        W17507  17.858  31.635   4.376
46908W        W17508  44.833   0.036  12.590
46909W        W17509  18.158  31.553   4.804
46910W        W17510  25.199  29.412  12.550
46911W        W17511  19.190  38.088  11.635
46912W        W17512  43.414   4.163  14.875
46913W        W17513  39.047  22.712   1.453
46914W        W17514  27.018   4.889  13.749
46915W        W17515  23.351   0.788   4.148
46916W        W17516  16.090  35.706  11.675
46917W        W17517  25.565   8.072   1.377
46918W        W17518   8.781   7.998  13.469
46919W        W17519  11.191  38.340  12.413
46920W        W17520  24.475  15.520   4.539
46921W        W17521  34.553  43.555   0.813
46922W        W17522  14.403  36.921  11.963
46923W        W17523   3.302  43.007  13.477
46924W        W17524  14.074   1.391  12.451
46925W        W17525  34.525   5.659   1.871
46926W        W17526  16.024   7.952  14.421
46927W        W17527  37.554  38.341   1.211
46928W        W17528  22.248  21.415  11.506
46929W        W17529  26.069  40.486   4.611
46930W        W17530  27.844  24.337   0.335
46931W        W17531  40.022   2.499   1.189
46932W        W17532  17.593   5.456   3.241
46933W        W17533  32.883  43.884   3.729
46934W        W17534   8.408   4.475   3.634
46935W        W17535  38.436  30.049  11.989
46936W        W17536  38.380  26.078   4.114
46937W        W17537  19.120  38.291  12.093
46938W        W17538  38.523  35.175   1.353
46939W        W17539   9.844  16.200   1.732
46940W        W17540  17.701  31.933   3.620
46941W        W17541   0.182  13.169  11.642
46942W        W17542  43.200  14.916  14.480
46943W        W17543  41.317   7.784  12.498
46944W        W17544   2.925  22.169   3.588
46945W        W17545   1.746  22.537  11.516
46946W        W17546  21.953   2.886   3.702
46947W        W17547  31.099   0.241  14.277
46948W        W17548  33.344  19.722   4.901
46949W        W17549   3.869  20.828   1.002
46950W        W17550  20.967  39.974  12.052
46951W        W17551  37.405  23.437   4.612
46952W        W17552  12.033  16.109  10.478
46953W        W17553  16.274  31.495   4.464
46954W        W17554  15.343  14.841   1.850
46955W        W17555   5.153  23.657  11.462
46956W        W17556  27.937   0.521  12.933
46957W        W17557  22.392  21.550  11.983
46958W        W17558   1.823   8.906   2.831
46959W        W17559   0.005  36.022   2.933
46960W        W17560   9.950  25.077   4.100
46961W        W17561  13.335   7.887   1.565
46962W        W17562  36.250  25.208  12.933
46963W        W17563  21.675  24.334  13.530
46964W        W17564  15.220  11.274   4.772
46965W        W17565  23.212  22.217   2.308
46966W        W17566  37.020  18.659   3.879
46967W        W17567  13.766  24.054   3.541
46968W        W17568  39.953  32.481  11.877
46969W        W17569  44.769  16.221  14.998
46970W        W17570  27.212   9.407  13.086
46971W        W17571  28.914  20.510  14.067
46972W        W17572   9.673  31.544  13.280
46973W        W17573   3.902  23.753  11.007
46974W        W17574  15.562  38.915   3.094
46975W        W17575  43.343   1.413   0.407
46976W        W17576  33.284  40.354   4.025
46977W        W17577   6.653  18.070  12.490
46978W        W17578   2.238  19.699   1.225
46979W        W17579  39.103  34.291   0.245
46980W        W17580  38.377  31.536   3.378
46981W        W17581  12.890  11.666   2.863
46982W        W17582  35.582   0.050  12.983
46983W        W17583  42.995  37.244  11.959
46984W        W17584  25.710  19.031   4.628
46985W        W17585  26.718  36.633  12.006
46986W        W17586  27.495   6.262   1.115
46987W        W17587  38.549  44.507   3.853
46988W        W17588  17.386  21.683  13.892
46989W        W17589   3.150  39.952  13.559
46990W        W17590   8.823  22.851   3.651
46991W        W17591  23.165  41.327   3.349
46992W        W17592  42.077  10.438  11.165
46993W        W17593  31.985  24.104  12.965
46994W        W17594  19.918   7.046  14.456
46995W        W17595  26.087  15.709  10.395
46996W        W17596   9.708  40.757   3.847
46997W        W17597  30.833  37.403   4.195
46998W        W17598  15.108   5.648  14.627
46999W        W17599   7.927  25.061   4.618
47000W        W17600   5.401  23.675   1.365
47001W        W17601   8.700  41.008   2.404
47002W        W17602  30.366  15.602  11.119
47003W        W17603  12.176  41.769   1.158
47004W        W17604  33.464   4.774   4.566
47005W        W17605   3.329   5.886  10.519
47006W        W17606  43.454  30.654  13.080
47007W        W17607  19.847  12.853  13.841
47008W        W17608   8.279  22.498  10.551
47009W        W17609  27.493  28.925  12.169
47010W        W17610  10.197  26.381  10.370
47011W        W17611   7.963   4.667   0.075
47012W        W17612  11.453  22.240   1.800
47013W        W17613  30.498  29.793  14.497
47014W        W17614  13.148  27.642  10.984
47015W        W17615  40.796  33.975  12.898
47016W        W17616  22.565  40.293  10.698
47017W        W17617  26.508   4.717  10.511
47018W        W17618  15.767   2.187   4.900
47019W        W17619   9.889   6.389  11.454
47020W        W17620   5.986  11.349  12.479
47021W        W17621  39.349  27.747  13.451
47022W        W17622  15.397   8.374   2.885
47023W        W17623  23.279   0.773  12.526
47024W        W17624  10.943   0.323  12.717
47025W        W17625  25.764   0.344  10.650
47026W        W17626  10.844  37.099  13.897
47027W        W17627  16.280  10.327   1.812
47028W        W17628  15.183  21.469  13.388
47029W        W17629   2.199   5.733   3.420
47030W        W17630  23.282  27.499  11.592
47031W        W17631   1.412  36.642   2.383
47032W        W17632  39.440  10.277   0.385
47033W        W17633   3.407   6.651   0.293
47034W        W17634  21.053  18.481  10.374
47035W        W17635   6.344  14.495  13.619
47036W        W17636   2.810  35.783   3.892
47037W        W17637  42.259  30.852  12.422
47038W        W17638  44.442   8.548  13.543
47039W        W17639  13.179  15.801  12.856
47040W        W17640   5.836  35.071   1.951
47041W        W17641  13.838  20.081   0.231
47042W        W17642   6.739   4.120   4.161
47043W        W17643  16.563  36.066   1.676
47044W        W17644  20.510  24.614  11.569
47045W        W17645  17.602  28.306  11.468
47046W        W17646  21.631  14.616   3.653
47047W        W17647  14.301  38.250   0.309
47048W        W17648  23.476  21.329  11.377
47049W        W17649   9.394  23.629  13.322
47050W        W17650  21.731  31.325  13.244
47051W        W17651  39.523  38.601  11.528
47052W        W17652   6.931   6.178  10.695
47053W        W17653  39.931   6.234  13.875
47054W        W17654   9.639  18.517   1.785
47055W        W17655  22.236  23.555  13.291
47056W        W17656  20.464   3.333   2.205
47057W        W17657  31.632  43.213  11.963
47058W        W17658  43.582  22.947  11.013
47059W        W17659  33.583  21.586   9.913
47060W        W17660  41.117  33.497  12.447
47061W        W17661  39.452  15.594  10.713
47062W        W17662  33.710  13.585   4.700
47063W        W17663  16.713  37.571   0.674
47064W        W17664  24.759  33.065   0.781
47065W        W17665   0.920  15.897  11.634
47066W        W17666  27.526  22.678  13.582
47067W        W17667  11.695  20.281   4.934
47068W        W17668  12.697  14.528   0.523
47069W        W17669   5.889   1.144  14.306
47070W        W17670  27.152   3.284  12.461
47071W        W17671   2.215  30.181   4.117
47072W        W17672  25.121   3.272  11.557
47073W        W17673  12.103  29.431  13.798
47074W        W17674   6.970  33.919   3.739
47075W        W17675  16.241  25.026   0.948
47076W        W17676  39.589  16.459  12.011
47077W        W17677   2.798   6.660   4.486
47078W        W17678  11.798   9.330  11.544
47079W        W17679  39.994   2.882   0.843
47080W        W17680  24.201   9.549   2.987
47081W        W17681  12.260   2.312  11.295
47082W        W17682   8.337  39.498   3.259
47083W        W17683  16.027  16.196  13.940
47084W        W17684   5.783  28.858   4.180
47085W        W17685   8.487  18.604   4.712
47086W        W17686  38.427  28.393   3.439
47087W        W17687  30.051   3.175   4.326
47088W        W17688  44.319   3.834  10.359
47089W        W17689  21.292  26.274  11.172
47090W        W17690  11.205  32.244  11.623
47091W        W17691  19.675  26.804  14.873
47092W        W17692  41.477  30.404   1.830
47093W        W17693  10.166  35.061  13.784
47094W        W17694  33.681  22.160  11.941
47095W        W17695   2.516  22.106   4.348
47096W        W17696  30.407  38.049   3.721
47097W        W17697  36.545  12.135  14.034
47098W        W17698  10.685  19.755  13.988
47099W        W17699  13.074  41.032   4.452
47100W        W17700  15.964  27.542   2.009
47101W        W17701  16.669   9.184  10.651
47102W        W17702  29.288  42.023   4.145
47103W        W17703  30.944   8.793   3.067
47104W        W17704  26.289  33.053  11.408
47105W        W17705  21.686  10.937  14.788
47106W        W17706  37.124   9.739   0.245
47107W        W17707  17.192   3.992  14.903
47108W        W17708  22.186  27.551  10.739
47109W        W17709  38.382  11.119   2.369
47110W        W17710  29.464   1.378   3.342
47111W        W17711  33.669  35.089  11.899
47112W        W17712  26.002  21.685  12.022
47113W        W17713  41.030  43.464  12.643
47114W        W17714  43.001  40.999   0.788
47115W        W17715  35.001   2.687  13.438
47116W        W17716  22.808  11.324  11.601
47117W        W17717  24.306  26.462   2.324
47118W        W17718  15.110  31.700  14.454
47119W        W17719  38.059  41.804   1.253
47120W        W17720  22.713  17.258   2.364
47121W        W17721  43.309  33.329   0.783
47122W        W17722   0.276  38.947  11.815
47123W        W17723  26.637  11.942   2.613
47124W        W17724  27.043  18.104   3.915
47125W        W17725  35.199  40.316   2.535
47126W        W17726  41.907  18.491   0.787
47127W        W17727  44.378  42.898  13.795
47128W        W17728  35.477  37.066   0.196
47129W        W17729   3.764  42.861   3.108
47130W        W17730  38.648   5.275  12.501
47131W        W17731   8.736  43.027  12.523
47132W        W17732   9.167   4.931   3.753
47133W        W17733  26.720  18.550  13.091
47134W        W17734   5.373  14.773  13.333
47135W        W17735  43.451  21.516   4.689
47136W        W17736  31.852  16.963   1.917
47137W        W17737  14.016  35.882  12.935
47138W        W17738  40.812  20.712  14.773
47139W        W17739  28.067   9.565  14.088
47140W        W17740  34.521  29.257  12.802
47141W        W17741  43.249  11.898  10.451
47142W        W17742  10.709  41.462   2.804
47143W        W17743  22.146   9.819   5.393
47144W        W17744  24.735  28.544  12.749
47145W        W17745  41.554   3.451  14.291
47146W        W17746   9.391  13.796  12.872
47147W        W17747  42.967   0.266   3.246
47148W        W17748   5.335   2.840   2.219
47149W        W17749   2.688   9.251   4.401
47150W        W17750  27.168  29.883  12.546
47151W        W17751  37.855   5.202   3.515
47152W        W17752  36.550  39.597   0.365
47153W        W17753  40.824  22.528  11.173
47154W        W17754  13.413  10.162  10.771
47155W        W17755   5.785  19.385   2.123
47156W        W17756  36.254  21.617   0.217
47157W        W17757  24.502  23.282  14.861
47158W        W17758  39.845   6.438  14.782
47159W        W17759   7.638  26.876  12.459
47160W        W17760  34.501  36.849  13.860
47161W        W17761   8.578  11.767  11.167
47162W        W17762  14.228  24.856   4.513
47163W        W17763  34.079  29.305   0.463
47164W        W17764  11.586  41.060   0.932
47165W        W17765  18.257  33.106   0.388
47166W        W17766  11.610  28.736   1.870
47167W        W17767  23.998  40.316  14.543
47168W        W17768  22.444   1.760  13.309
47169W        W17769  10.904  11.260   1.870
47170W        W17770  31.668  35.306  10.733
47171W        W17771   0.685   0.725  12.565
47172W        W17772  39.874  31.561  12.355
47173W        W17773  31.966   5.110  14.258
47174W        W17774  17.225   7.794   2.227
47175W        W17775   4.344   1.333   0.686
47176W        W17776  10.317  11.031   4.974
47177W        W17777   4.452   5.755   3.220
47178W        W17778  17.491  37.886  13.414
47179W        W17779  23.854  13.153  11.566
47180W        W17780  18.335   6.870   0.431
47181W        W17781  37.512  28.010  13.286
47182W        W17782  13.626   5.143  11.976
47183W        W17783  33.377   9.686  12.380
47184W        W17784  29.683   9.349   2.763
47185W        W17785   0.229  28.155   3.387
47186W        W17786  33.499  29.693  10.725
47187W        W17787  39.656  34.979  10.560
47188W        W17788  33.010  14.076   2.402
47189W        W17789  17.692   1.649  11.986
47190W        W17790  15.303  27.530  13.895
47191W        W17791  38.372  23.274  14.538
47192W        W17792  23.357   0.597   1.497
47193W        W17793  28.581  41.005  13.532
47194W        W17794  36.267   5.912  14.088
47195W        W17795  40.599  34.949   0.436
47196W        W17796  33.182  31.563   0.827
47197W        W17797  32.721   8.899   3.656
47198W        W17798  13.716  25.814   2.210
47199W        W17799  38.122  16.177  12.151
47200W        W17800  42.727  33.006   4.131
47201W        W17801   9.212  44.510   0.442
47202W        W17802  32.609  12.112  12.133
47203W        W17803   4.938  28.459  11.058
47204W        W17804  16.539   3.176  13.019
47205W        W17805   5.739  41.479  12.871
47206W        W17806  34.476  44.065  13.217
47207W        W17807   1.801  20.521   0.234
47208W        W17808  35.934  29.616  14.955
47209W        W17809  22.528  25.038   1.322
47210W        W17810   5.278  11.726  11.374
47211W        W17811   1.723  26.982  13.864
47212W        W17812  19.152  21.524   4.019
47213W        W17813  33.934  44.387   0.887
47214W        W17814  34.373  12.353  14.202
47215W        W17815  36.270  18.318   0.544
47216W        W17816  25.279   9.986   1.134
47217W        W17817  22.674  17.694  12.602
47218W        W17818  24.693  39.775   3.664
47219W        W17819  11.454  35.304  11.090
47220W        W17820  19.082  42.279  12.868
47221W        W17821  13.520  34.727   4.263
47222W        W17822  19.813   4.101   1.409
47223W        W17823   3.442  28.142   2.825
47224W        W17824  21.299  20.262   1.181
47225W        W17825  14.448  36.427  12.160
47226W        W17826  25.397  21.062   5.012
47227W        W17827  35.932  34.059  11.823
47228W        W17828  37.901  18.976  11.078
47229W        W17829  33.518   8.168  12.967
47230W        W17830  28.668  29.181  11.634
47231W        W17831   2.475  23.014  14.353
47232W        W17832   5.486   8.133   2.323
47233W        W17833  39.343   2.866  13.148
47234W        W17834  20.206   3.369   2.674
47235W        W17835  14.941  19.260  14.813
47236W        W17836  10.713  19.994   2.690
47237W        W17837  16.092  43.246  13.483
47238W        W17838  43.864   4.556  11.612
47239W        W17839  12.395  43.985   2.278
47240W        W17840   7.973  43.890  12.047
47241W        W17841  22.230  39.887   2.843
47242W        W17842  13.844  30.406  14.628
47243W        W17843   8.436  26.462   0.933
47244W        W17844  13.580  36.827   4.279
47245W        W17845  12.650  41.344   3.785
47246W        W17846  14.658  28.511  12.348
47247W        W17847  12.277  40.837  11.497
47248W        W17848  39.590   8.666  11.644
47249W        W17849  20.942  35.150  14.431
47250W        W17850   0.333  35.068  12.438
47251W        W17851   4.382  38.191  11.078
47252W        W17852  19.673   4.292   1.863
47253W        W17853  32.964  29.692  12.362
47254W        W17854  24.785  23.919  14.021
47255W        W17855  29.252   9.051  14.435
47256W        W17856  31.272   8.474  12.465
47257W        W17857  38.573  27.269   3.267
47258W        W17858  30.102   1.891  13.809
47259W        W17859  39.066   2.770   1.438
47260W        W17860  37.232   0.977  13.438
47261W        W17861  35.843  37.408  13.019
47262W        W17862  22.089  22.652  12.128
47263W        W17863  18.133  16.730   4.738
47264W        W17864  25.554  20.094   1.302
47265W        W17865  10.473  22.144  14.862
47266W        W17866  26.447  24.926   2.222
47267W        W17867   1.836  33.609   2.720
47268W        W17868  26.087   9.640  11.589
47269W        W17869   7.429  16.745   3.716
47270W        W17870   1.457   6.485  11.993
47271W        W17871   9.888  39.285   3.285
47272W        W17872  33.387  43.482   3.370
47273W        W17873  12.914  30.539   0.089
47274W        W17874  35.328   3.793  10.636
47275W        W17875  27.590   4.439   1.545
47276W        W17876  35.258  29.017   3.226
47277W        W17877   8.614  41.474   4.337
47278W        W17878  37.335  43.134  11.106
47279W        W17879  27.633  14.081   4.129
47280W        W17880  18.080  31.941  10.771
47281W        W17881  30.155  19.052   0.867
47282W        W17882  38.500  30.236   3.962
47283W        W17883  19.631   7.214   3.124
47284W        W17884  32.535  15.498  11.637
47285W        W17885  12.823  22.940  10.807
47286W        W17886  17.704  30.914  11.502
47287W        W17887  20.410   5.218   4.159
47288W        W17888   5.891  40.259   3.293
47289W        W17889   1.100  22.624  10.305
47290W        W17890  22.064   6.397  13.932
47291W        W17891  41.058  40.368  13.191
47292W        W17892   2.092  26.003   4.554
47293W        W17893  40.565  22.186  13.436
47294W        W17894  43.437   2.674   0.770
47295W        W17895  33.461  31.097  14.879
47296W        W17896  36.219  11.296  12.333
47297W        W17897  43.528   0.960  12.050
47298W        W17898  39.543  21.021  11.972
47299W        W17899  37.217  11.814   2.279
47300W        W17900  39.586  21.214  12.936
47301W        W17901   7.294   4.476  12.492
47302W        W17902  36.558  32.534   3.725
47303W        W17903  27.725  17.076   0.045
47304W        W17904  38.794   5.314   2.473
47305W        W17905  32.976  32.493   1.454
47306W        W17906   1.351  33.410  13.911
47307W        W17907   3.258  16.109  11.031
47308W        W17908   2.465  21.258   3.750
47309W        W17909  20.619  37.858   2.822
47310W        W17910  18.228  25.609  13.318
47311W        W17911   1.479  35.908  11.975
47312W        W17912  23.955  27.780  13.021
47313W        W17913  29.685  17.050   1.480
47314W        W17914  27.980   4.688   0.784
47315W        W17915  21.862   6.634   0.291
47316W        W17916  28.452  21.635  10.615
47317W        W17917  13.322  20.003  14.562
47318W        W17918  44.383  28.242   2.977
47319W        W17919  13.883   7.945  14.977
47320W        W17920  19.677  13.642   4.787
47321W        W17921  39.071  26.667  14.039
47322W        W17922  34.824   1.967   3.208
47323W        W17923   7.816  15.073  12.194
47324W        W17924  44.711  22.695  11.600
47325W        W17925  18.342  25.230   0.424
47326W        W17926   2.756  35.484  13.425
47327W        W17927  21.100  36.273  13.929
47328W        W17928  12.798  21.682   1.438
47329W        W17929  33.730  22.537  11.254
47330W        W17930  37.625  38.005   3.736
47331W        W17931  18.108  11.515  14.402
47332W        W17932  13.231  44.796   4.506
47333W        W17933   2.201  20.991  14.440
47334W        W17934  19.691   5.693   4.558
47335W        W17935  24.754  29.370  11.180
47336W        W17936   3.291   2.520  13.536
47337W        W17937   7.152  17.856   3.249
47338W        W17938  20.659  14.166  14.353
47339W        W17939  16.525  18.010  11.492
47340W        W17940  34.135   8.566   0.641
47341W        W17941  31.685  18.759   1.650
47342W        W17942  21.150  13.303   2.735
47343W        W17943  27.487   1.784   0.509
47344W        W17944  35.623   9.254   1.251
47345W        W17945  25.528  42.280  14.365
47346W        W17946  19.757   5.524  13.462
47347W        W17947   7.126  16.578   2.064
47348W        W17948  23.596   6.715  10.331
47349W        W17949  29.403  11.463  11.523
47350W        W17950  27.769  17.642   4.001
47351W        W17951  19.181  30.534   0.843
47352W        W17952  34.799   4.263  11.375
47353W        W17953  33.423  28.874   4.641
47354W        W17954  24.794  11.990   1.356
47355W        W17955  38.211   0.444  12.836
47356W        W17956  13.812   5.184   3.854
47357W        W17957  44.260  41.839   0.481
47358W        W17958  26.143  27.007   3.217
47359W        W17959  43.476  16.784   3.191
47360W        W17960  14.953   6.766  12.124
47361W        W17961  21.834  20.578   0.276
47362W        W17962  40.359  43.509  12.808
47363W        W17963  18.623  21.034  11.166
47364W        W17964  13.568  39.497   4.665
47365W        W17965  42.878  28.929  12.597
47366W        W17966  38.822   7.881  12.041
47367W        W17967  39.419  22.416   0.119
47368W        W17968  39.050   0.091  13.878
47369W        W17969   3.984  21.828  11.097
47370W        W17970   4.804  32.739  11.718
47371W        W17971  30.461  14.262  11.853
47372W        W17972  21.522   9.707   1.052
47373W        W17973  39.056  43.579  13.866
47374W        W17974   3.011  33.085  13.799
47375W        W17975  22.533  43.745   0.751
47376W        W17976  28.108  40.132   1.784
47377W        W17977  38.774   8.700  14.043
47378W        W17978  31.146  26.214  12.900
47379W        W17979  11.780   6.216  11.693
47380W        W17980  21.801  34.782   3.706
47381W        W17981  35.124   0.803  14.782
47382W        W17982  10.902  32.722   4.922
47383W        W17983   4.626  20.842  14.281
47384W        W17984   5.917  19.200   3.691
47385W        W17985   0.287  35.649   0.377
47386W        W17986   8.855  42.779   4.127
47387W        W17987  10.383  41.347  14.845
47388W        W17988  17.713  25.757  12.385
47389W        W17989  14.297  32.493  14.067
47390W        W17990  44.507  34.856   3.143
47391W        W17991  20.680  14.653  12.195
47392W        W17992  43.485   5.071   0.321
47393W        W17993  31.107  43.031   2.287
47394W        W17994   7.710  34.413  10.253
47395W        W17995  31.408  35.068  12.923
47396W        W17996  33.019  31.882  10.612
47397W        W17997  38.262  16.241   0.051
47398W        W17998  34.886  25.168   2.196
47399W        W17999  14.810  12.659   2.161
47400W        W18000  25.589  33.538   4.353
47401W        W18001   2.722  28.534   1.881
47402W        W18002  37.883  32.465  12.097
47403W        W18003  12.236  32.788   2.301
47404W        W18004  13.755  22.875  12.461
47405W        W18005  18.543  40.442  14.033
47406W        W18006   5.262  10.099   2.349
47407W        W18007  42.626   1.052  11.749
47408W        W18008  23.321   8.751  12.209
47409W        W18009  12.358  33.587  13.558
47410W        W18010   8.908  11.734  14.834
47411W        W18011   5.880   7.842  13.445
47412W        W18012   8.094  36.224   0.237
47413W        W18013  44.523  23.369   0.867
47414W        W18014  12.354  44.713  14.886
47415W        W18015  27.491  29.667   3.194
47416W        W18016  15.831  30.112  11.863
47417W        W18017  27.868  22.080   1.034
47418W        W18018  41.431   4.212   0.417
47419W        W18019   0.408  43.180  11.960
47420W        W18020   1.277   0.485  14.058
47421W        W18021  15.551  27.906   3.761
47422W        W18022  37.068  41.190  12.016
47423W        W18023  19.047  22.689  12.933
47424W        W18024  29.812  39.242   5.138
47425W        W18025   6.083   5.824  14.920
47426W        W18026   1.153  23.737   2.668
47427W        W18027   5.861  35.559   2.641
47428W        W18028  19.799  11.189   2.077
47429W        W18029   5.268  10.085   1.432
47430W        W18030  22.208  12.376   1.871
47431W        W18031   1.429   9.287  14.814
47432W        W18032  35.473  25.775  11.184
47433W        W18033  39.219  38.854   1.716
47434W        W18034  22.587  30.430   2.413
47435W        W18035   1.841  36.697   0.704
47436W        W18036   9.287  30.967  11.059
47437W        W18037   7.634  11.247   3.561
47438W        W18038  30.096  40.828   0.449
47439W        W18039  43.437  23.030   3.876
47440W        W18040  31.167   3.151  11.992
47441W        W18041   2.480   1.082   4.234
47442W        W18042  20.786  31.944  11.231
47443W        W18043  12.298  37.088   4.391
47444W        W18044  25.198  15.126  13.283
47445W        W18045   4.293  33.746  14.184
47446W        W18046   5.187  38.535   1.495
47447W        W18047  42.394  44.272  14.824
47448W        W18048  12.396  37.866   0.706
47449W        W18049  35.373  17.986   0.548
47450W        W18050  32.149  42.554   1.748
47451W        W18051  39.681  31.863  13.768
47452W        W18052  18.228  16.812  14.683
47453W        W18053   9.100  25.591  11.757
47454W        W18054   0.024   7.627  14.290
47455W        W18055  20.492  42.545   0.356
47456W        W18056   2.778  15.089   0.773
47457W        W18057  20.691  15.366   0.707
47458W        W18058  25.461  24.438  10.836
47459W        W18059   2.000  14.177  13.034
47460W        W18060  19.583  14.914  14.001
47461W        W18061  21.784  25.744  12.895
47462W        W18062  13.870  15.224  12.378
47463W        W18063  21.994  42.842  10.761
47464W        W18064  16.786  37.866  12.882
47465W        W18065  31.075  31.955  10.385
47466W        W18066  40.368   4.222   1.781
47467W        W18067  16.156  21.765  10.726
47468W        W18068  35.116   2.778  13.948
47469W        W18069  32.938  44.752  10.541
47470W        W18070   0.743   3.357   0.140
47471W        W18071  32.440  31.304  11.971
47472W        W18072   0.760  43.343   3.249
47473W        W18073  20.101  23.652   4.091
47474W        W18074  24.221  16.412  13.117
47475W        W18075  41.013  24.165   3.202
47476W        W18076  27.375   9.119   0.748
47477W        W18077  43.519  16.099   4.429
47478W        W18078  32.228  21.352  12.520
47479W        W18079  27.550  35.724   4.505
47480W        W18080  24.465  44.937  12.466
47481W        W18081  31.108  28.361  11.077
47482W        W18082   3.764  35.322   4.016
47483W        W18083  31.406  23.903  12.522
47484W        W18084  36.974  38.636  14.043
47485W        W18085   8.633  17.287   1.716
47486W        W18086  38.056   5.586  11.287
47487W        W18087   5.177  29.992  10.667
47488W        W18088  39.358  30.527   2.705
47489W        W18089  11.574  21.671   4.663
47490W        W18090  25.100  42.844  13.912
47491W        W18091  22.191   6.305   0.985
47492W        W18092  30.697  15.540   1.372
47493W        W18093  41.769  30.059  12.475
47494W        W18094  23.590  34.038   3.756
47495W        W18095  37.496  28.228   3.124
47496W        W18096  17.556   7.210   1.520
47497W        W18097  18.244  38.135  14.378
47498W        W18098  27.516   2.773  13.611
47499W        W18099  20.129  12.338   1.420
47500W        W18100   2.417  21.566  11.616
47501W        W18101   7.407  35.395   4.736
47502W        W18102  12.914  42.233  11.922
47503W        W18103  37.365  19.178  11.888
47504W        W18104   0.567   7.176   2.155
47505W        W18105  15.093  37.619   1.294
47506W        W18106  41.506  22.102  13.430
47507W        W18107  29.826   0.466  11.405
47508W        W18108  44.414   2.385   3.569
47509W        W18109  23.269  39.908   2.550
47510W        W18110   8.167   7.397   2.679
47511W        W18111  43.756   6.751   4.517
47512W        W18112  35.127   7.110   3.414
47513W        W18113  28.866   9.367   0.913
47514W        W18114   7.270   7.171   1.236
47515W        W18115  11.882  37.249   3.215
47516W        W18116  21.987  13.215  11.066
47517W        W18117   2.361  19.775  11.125
47518W        W18118  25.133  27.952   0.419
47519W        W18119  24.209  23.885  12.907
47520W        W18120   2.972  19.195   0.974
47521W        W18121  32.026  12.163   2.173
47522W        W18122  36.480  10.860   1.357
47523W        W18123  22.278  14.305  11.710
47524W        W18124  25.769  22.186  12.412
47525W        W18125  18.721   6.917   0.934
47526W        W18126  41.040   7.222   4.150
47527W        W18127  26.413  36.833   1.416
47528W        W18128  34.596  19.661   0.882
47529W        W18129  38.382  40.165   0.292
47530W        W18130   6.922  11.305   4.118
47531W        W18131   2.178   1.643  13.102
47532W        W18132  29.191   7.202   2.410
47533W        W18133   1.406  44.890   0.276
47534W        W18134  38.037   7.245  13.277
47535W        W18135  35.510   2.865  13.454
47536W        W18136  27.920   2.088  13.373
47537W        W18137   5.697   3.670   1.526
47538W        W18138  29.589  19.017   3.205
47539W        W18139  35.479  43.238  13.453
47540W        W18140   2.184  25.028   2.904
47541W        W18141  28.634  15.299   4.588
47542W        W18142   5.047  15.442   5.486
47543W        W18143  13.174  21.786  12.566
47544W        W18144  26.176  29.471  14.333
47545W        W18145  31.713  22.298   1.766
47546W        W18146   6.354  12.754  12.520
47547W        W18147  36.684  33.700  10.775
47548W        W18148   9.371  38.023  13.139
47549W        W18149   7.871   7.645  13.024
47550W        W18150  33.925  41.831   0.696
47551W        W18151  29.574  43.909  12.944
47552W        W18152  39.862  23.662   1.349
47553W        W18153  23.690  36.955   4.532
47554W        W18154  35.792   5.189   3.473
47555W        W18155  34.834   1.251   0.501
47556W        W18156  21.508  28.077  13.900
47557W        W18157  37.650  36.063  14.160
47558W        W18158  29.844  16.132  13.925
47559W        W18159  31.921   0.177   1.268
47560W        W18160  21.663   2.636   0.960
47561W        W18161  41.084  34.503   0.855
47562W        W18162  33.416  30.201   3.324
47563W        W18163  30.651  42.919  11.961
47564W        W18164  28.848   2.885  13.632
47565W        W18165  23.469  21.867   2.666
47566W        W18166  23.761  36.959  10.494
47567W        W18167  34.660  40.005  11.192
47568W        W18168   0.611   8.266  14.804
47569W        W18169   3.641  24.227   1.738
47570W        W18170   3.347   5.919   2.917
47571W        W18171  41.834  43.021  13.972
47572W        W18172  23.360  32.057  13.345
47573W        W18173  21.823  27.895   1.900
47574W        W18174  32.666  44.136   2.359
47575W        W18175  17.213  40.820   1.751
47576W        W18176  31.837   8.721   2.656
47577W        W18177  24.192   7.394   5.361
47578W        W18178  27.683  38.445  14.783
47579W        W18179  39.442  34.949   0.475
47580W        W18180  17.906  32.884  14.375
47581W        W18181  14.314  23.066   3.624
47582W        W18182   2.778  10.410   2.197
47583W        W18183  35.998  26.748   0.520
47584W        W18184  35.829  31.759   3.820
47585W        W18185  20.798  18.489  12.121
47586W        W18186  25.586  23.698   3.058
47587W        W18187  32.161  13.158  10.737
47588W        W18188  21.565  10.189   1.255
47589W        W18189  13.171   8.647  14.896
47590W        W18190  41.495  12.373   3.788
47591W        W18191  40.487   0.259  13.279
47592W        W18192   8.381   3.246  12.140
47593W        W18193  38.583   0.009   0.729
47594W        W18194  27.589  38.510   4.327
47595W        W18195  27.054   3.969  13.970
47596W        W18196  19.079  30.894  14.834
47597W        W18197   2.804   6.565   1.872
47598W        W18198   1.834   7.647  13.755
47599W        W18199   8.934  19.832   0.333
47600W        W18200  25.716  24.144   1.348
47601W        W18201  20.705   9.381  10.688
47602W        W18202  30.083  27.284  12.943
47603W        W18203  22.146  42.031  13.970
47604W        W18204  16.634  35.410   2.462
47605W        W18205  20.587  25.473   0.829
47606W        W18206   3.631  19.266   0.198
47607W        W18207  24.341  16.571   1.065
47608W        W18208  10.339  15.129   3.260
47609W        W18209  18.491  23.716   1.227
47610W        W18210  11.591  29.992  12.429
47611W        W18211  41.812   6.677  11.589
47612W        W18212  36.608  43.037   4.538
47613W        W18213  40.793  13.300  13.337
47614W        W18214  25.596   8.485   2.303
47615W        W18215  17.525  41.936  10.442
47616W        W18216   1.980   0.673  10.762
47617W        W18217   0.862   6.326   5.107
47618W        W18218  25.402  40.064  13.548
47619W        W18219  39.131  23.612  13.010
47620W        W18220   9.508  12.670   5.126
47621W        W18221  26.429   2.543   0.920
47622W        W18222  13.907  41.128  10.636
47623W        W18223  18.667  10.303   2.616
47624W        W18224  31.743  24.620  14.391
47625W        W18225   0.928   4.762  10.172
47626W        W18226   7.417  25.597   3.316
47627W        W18227  44.232   5.161  13.587
47628W        W18228   5.280  11.723  10.858
47629W        W18229  23.590   4.143  14.310
47630W        W18230  31.873  16.836   0.781
47631W        W18231  44.039  13.589  11.606
47632W        W18232  32.067  41.064  12.983
47633W        W18233   6.753  40.860   0.844
47634W        W18234   4.288   6.012   2.751
47635W        W18235  36.710   2.301  12.573
47636W        W18236  39.464  21.908  14.379
47637W        W18237  19.795  20.210  13.922
47638W        W18238  31.463   0.235   2.171
47639W        W18239  35.011   5.771   2.374
47640W        W18240   0.469  24.280   2.894
47641W        W18241  24.250  40.401  11.563
47642W        W18242  22.647  17.706   1.092
47643W        W18243  24.423  10.651  12.535
47644W        W18244   5.189  22.937   3.519
47645W        W18245  11.800  36.510   3.770
47646W        W18246  27.251  38.078   4.802
47647W        W18247  42.519  41.390   1.748
47648W        W18248  36.620  30.491  14.292
47649W        W18249  44.722  15.094   0.295
47650W        W18250   5.381  25.754   1.317
47651W        W18251  14.135  17.700  11.527
47652W        W18252  16.092  36.374   2.613
47653W        W18253  21.139  20.272  12.933
47654W        W18254   9.787  20.261  14.241
47655W        W18255   6.777  19.203   1.048
47656W        W18256  23.688  10.309   1.264
47657W        W18257  22.644   9.728   1.829
47658W        W18258  19.570  31.109  14.892
47659W        W18259  17.302  44.486   4.035
47660W        W18260  22.160   6.672  14.365
47661W        W18261  41.605  28.973  12.152
47662W        W18262  20.757  10.289  14.327
47663W        W18263  32.799  30.225  14.486
47664W        W18264   6.823  14.089   0.969
47665W        W18265  19.179  37.288  13.552
47666W        W18266  16.739  32.018   0.866
47667W        W18267  43.927  30.443  13.098
47668W        W18268   8.771  33.242  11.416
47669W        W18269  42.753   4.623   2.167
47670W        W18270   9.537  20.406  11.122
47671W        W18271   1.439   0.181  12.078
47672W        W18272  44.406   4.101   4.269
47673W        W18273  13.750  39.883  14.977
47674W        W18274   6.850  36.102  11.553
47675W        W18275  34.421  40.176  11.637
47676W        W18276  33.065  27.142   2.357
47677W        W18277  33.460  43.702  10.347
47678W        W18278  40.082  31.356   1.527
47679W        W18279   7.682  23.474  14.250
47680W        W18280  36.417  15.040   3.794
47681W        W18281   4.371  26.216   0.400
47682W        W18282  11.726  33.017  11.461
47683W        W18283  13.587  20.624   1.345
47684W        W18284  27.977  29.017  13.393
47685W        W18285   4.847  44.039  12.628
47686W        W18286   4.970  21.592  10.683
47687W        W18287   2.896  39.407   3.847
47688W        W18288  37.086  16.875   1.979
47689W        W18289  43.860  29.437  12.057
47690W        W18290  38.333  38.951  12.074
47691W        W18291   2.963  26.181   4.138
47692W        W18292   2.885  40.228   0.204
47693W        W18293  18.771  33.624   2.412
47694W        W18294   4.791  34.051   2.006
47695W        W18295  25.459   0.245   4.578
47696W        W18296  28.205  38.566  14.674
47697W        W18297  41.072  27.446  12.101
47698W        W18298  10.279  41.589  11.718
47699W        W18299  17.697   6.385   0.081
47700W        W18300  33.689  19.222  12.512
47701W        W18301  35.829  30.692   4.552
47702W        W18302  32.379  38.396   3.676
47703W        W18303  19.503   1.346   4.823
47704W        W18304  37.404  25.302  13.937
47705W        W18305  23.263  42.460   2.205
47706W        W18306   5.640  39.840   0.719
47707W        W18307  35.762  11.412  11.684
47708W        W18308   8.447  26.167   4.668
47709W        W18309  31.361  30.717  12.136
47710W        W18310   9.328  32.532  11.653
47711W        W18311  31.088  16.848   0.325
47712W        W18312   5.040   1.650   2.284
47713W        W18313  32.972   3.662  11.082
47714W        W18314  44.717  35.410   4.217
47715W        W18315   0.389  38.464   0.914
47716W        W18316  21.229  21.601   4.524
47717W        W18317  23.975  11.327  14.243
47718W        W18318  23.654  38.782  14.539
47719W        W18319   2.438  37.900  11.660
47720W        W18320   1.671  37.977  10.977
47721W        W18321  38.322  22.944  13.338
47722W        W18322  28.519  26.612  10.131
47723W        W18323  31.391  44.338   1.462
47724W        W18324  40.467  10.179   0.546
47725W        W18325   1.140   4.234  14.886
47726W        W18326  12.795  17.763  14.928
47727W        W18327  33.927  25.682   0.031
47728W        W18328  44.022  22.715   4.287
47729W        W18329  37.016  15.741  14.904
47730W        W18330  18.295  12.366   3.736
47731W        W18331  34.130  17.696   0.044
47732W        W18332   0.372  28.264   4.361
47733W        W18333   2.546   1.751   3.241
47734W        W18334  41.859  29.256   1.322
47735W        W18335   8.743  42.442   4.720
47736W        W18336   7.120  32.251   4.649
47737W        W18337   4.042  31.203   2.108
47738W        W18338  10.812  18.168   0.998
47739W        W18339  34.117  30.979   1.940
47740W        W18340  34.684   2.466  14.037
47741W        W18341  24.184   7.812  11.625
47742W        W18342  21.713  17.302   3.403
47743W        W18343  33.688   1.415  10.503
47744W        W18344  10.542   3.412   4.612
47745W        W18345  29.618  21.860   1.918
47746W        W18346  43.888  18.583  11.572
47747W        W18347  11.345  27.987   0.869
47748W        W18348   4.421  25.247  10.062
47749W        W18349   3.889  11.626   4.604
47750W        W18350  33.766  36.631  11.231
47751W        W18351  43.095  17.984   3.198
47752W        W18352  39.550  21.152   0.009
47753W        W18353  32.927  41.510  11.839
47754W        W18354  26.703   7.767   2.722
47755W        W18355  27.945   2.000  12.075
47756W        W18356  26.635  33.408   3.739
47757W        W18357   8.285  13.497   3.760
47758W        W18358   3.045   3.353  10.192
47759W        W18359  39.876  11.655   3.412
47760W        W18360  11.862  39.976  14.800
47761W        W18361   1.153  20.779   2.253
47762W        W18362  41.746  14.223  13.456
47763W        W18363   2.762   0.818   4.612
47764W        W18364   8.448   2.907  13.418
47765W        W18365  18.380  22.191   1.857
47766W        W18366  41.851   1.760   1.120
47767W        W18367   3.327  17.986  12.605
47768W        W18368  37.114  36.578  12.057
47769W        W18369  26.757  23.242   1.333
47770W        W18370  37.044  10.649  11.583
47771W        W18371  43.400  41.871  13.973
47772W        W18372  24.601  13.967   1.424
47773W        W18373  32.980  39.751   2.259
47774W        W18374  18.826  41.368  14.494
47775W        W18375  13.542  44.401   3.791
47776W        W18376  27.515   4.798   2.388
47777W        W18377  15.907  43.245   1.201
47778W        W18378   3.956  12.385  13.512
47779W        W18379  43.970   1.477  13.860
47780W        W18380  35.770  16.649  11.235
47781W        W18381  25.610  30.064  11.036
47782W        W18382  28.535  15.881   4.069
47783W        W18383  24.686  43.564   1.043
47784W        W18384  44.464  24.645   2.120
47785W        W18385   4.645  18.312  10.999
47786W        W18386  35.608   1.590   1.000
47787W        W18387  30.094  12.632  12.088
47788W        W18388  24.490  19.982  11.545
47789W        W18389  10.913   9.824   1.194
47790W        W18390   3.384  12.428  13.927
47791W        W18391  34.787  19.368  10.615
47792W        W18392  23.922  21.591   2.758
47793W        W18393  39.622  38.317   4.727
47794W        W18394   7.753  41.702  13.819
47795W        W18395   6.231  26.900  10.220
47796W        W18396  25.591  24.741  10.436
47797W        W18397   8.748  30.621  12.900
47798W        W18398  32.605  20.989  14.831
47799W        W18399  33.812   5.398   3.886
47800W        W18400  13.605  36.442  12.413
47801W        W18401   0.692  20.064  12.078
47802W        W18402  12.915  21.632  14.956
47803W        W18403  21.694  26.959   1.653
47804W        W18404   5.437  37.343   5.034
47805W        W18405   4.707  20.372  12.518
47806W        W18406  37.744  37.462   3.214
47807W        W18407  26.233  11.313  13.633
47808W        W18408  31.100  17.075   1.726
47809W        W18409  40.690  17.606  10.379
47810W        W18410  35.622   4.178   0.907
47811W        W18411  35.863  11.808   4.860
47812W        W18412  35.498  43.086   0.725
47813W        W18413   3.539  23.770  14.767
47814W        W18414  30.039  24.416   0.557
47815W        W18415  29.311  18.079  10.426
47816W        W18416  44.266  13.605   2.862
47817W        W18417  43.901  15.379   1.783
47818W        W18418   2.990  29.060   2.645
47819W        W18419  40.914  22.018  12.941
47820W        W18420  34.286  26.109   1.827
47821W        W18421  35.522  22.596  12.453
47822W        W18422  39.809   0.942  14.944
47823W        W18423  23.037  15.381  12.956
47824W        W18424  30.891  10.719   0.516
47825W        W18425   4.020  13.655   4.111
47826W        W18426   5.851  40.368   4.271
47827W        W18427  10.059  22.536   3.124
47828W        W18428  24.647  24.108   3.888
47829W        W18429  13.042   1.396   1.024
47830W        W18430  10.790  31.035  14.298
47831W        W18431  41.813  25.728  12.687
47832W        W18432   9.472   2.028  12.877
47833W        W18433  16.736  28.152  12.499
47834W        W18434   6.905   4.500  14.452
47835W        W18435   7.022  15.044   4.164
47836W        W18436  37.546  44.242   3.717
47837W        W18437  40.237  27.559  13.234
47838W        W18438   6.496  33.492   4.407
47839W        W18439  26.589  28.549  13.502
47840W        W18440  24.174  28.102  14.390
47841W        W18441   6.318  12.814   3.251
47842W        W18442   5.884  11.258   2.325
47843W        W18443   1.323   1.995  14.509
47844W        W18444   5.380  36.182   4.230
47845W        W18445  11.822  36.009   3.610
47846W        W18446  22.743  31.150   2.186
47847W        W18447  21.865  18.438  14.454
47848W        W18448  20.938  13.682  13.136
47849W        W18449  15.668  26.160  13.035
47850W        W18450  26.163  35.159  13.075
47851W        W18451   6.157   0.909   2.256
47852W        W18452  15.512  11.821   3.693
47853W        W18453  15.811   4.757   3.326
47854W        W18454   0.255  17.777   2.537
47855W        W18455  18.430  41.244   5.095
47856W        W18456  27.410  21.982   1.970
47857W        W18457  17.988   7.173   2.840
47858W        W18458  29.124   7.613  13.910
47859W        W18459  15.291   0.922   2.271
47860W        W18460  42.505  30.807   5.031
47861W        W18461  40.333  24.644  14.993
47862W        W18462  25.438  33.395  12.984
47863W        W18463  16.669  24.472  13.276
47864W        W18464   3.438  12.727  11.283
47865W        W18465  23.162  33.091   4.732
47866W        W18466  43.525  44.898  13.940
47867W        W18467   4.626  43.019   4.629
47868W        W18468  42.768  34.167   3.069
47869W        W18469   9.728  37.055   4.416
47870W        W18470  38.592  25.905  11.623
47871W        W18471  41.905  35.920  11.620
47872W        W18472  44.034  42.563  12.553
47873W        W18473  43.889   8.843   4.601
47874W        W18474   4.457  39.824   1.916
47875W        W18475  28.588   6.343   0.957
47876W        W18476  32.333  22.774   2.205
47877W        W18477  22.167  35.862   1.102
47878W        W18478  19.949  13.228   1.908
47879W        W18479   7.778  16.342   2.701
47880W        W18480  25.087  33.893   1.209
47881W        W18481   9.899  12.620  11.042
47882W        W18482  42.973   4.715  14.031
47883W        W18483  36.401  38.404  12.782
47884W        W18484  44.009   9.148   4.206
47885W        W18485  30.059   8.718   4.127
47886W        W18486   3.449  37.340  13.230
47887W        W18487  13.233  34.976  11.877
47888W        W18488  11.711   0.138   3.652
47889W        W18489   2.381  42.961   3.146
47890W        W18490  27.155  33.511  14.938
47891W        W18491   1.298  21.820   4.469
47892W        W18492  28.187  35.129  12.686
47893W        W18493  24.868   4.064   2.712
47894W        W18494  14.795  42.681  12.026
47895W        W18495  34.889  39.957  12.557
47896W        W18496  33.145  40.546  12.389
47897W        W18497  43.351  31.215  10.691
47898W        W18498   6.439  27.058  13.057
47899W        W18499  38.245   8.804  14.050
47900W        W18500  44.760  24.557  12.793
47901W        W18501   7.146  16.661  13.058
47902W        W18502  12.864   7.674  10.729
47903W        W18503  13.345   3.661   3.098
47904W        W18504  43.484   1.400   1.159
47905W        W18505   0.819  14.033   4.154
47906W        W18506  25.560  40.026  13.045
47907W        W18507   4.744  25.295  13.500
47908W        W18508  21.650  15.329  12.838
47909W        W18509  18.805   5.469   0.668
47910W        W18510  39.590  33.523   2.726
47911W        W18511  17.692  36.907   2.170
47912W        W18512  14.415  21.710  10.692
47913W        W18513  41.462  30.464   0.920
47914W        W18514  21.956  36.372  14.895
47915W        W18515   1.011   8.633   4.731
47916W        W18516  25.015  33.486  11.480
47917W        W18517  10.286  13.092  13.513
47918W        W18518   1.321  41.605  14.968
47919W        W18519   2.803  24.255   0.027
47920W        W18520  16.890  12.755   2.672
47921W        W18521  21.798  32.124  12.627
47922W        W18522  27.711  20.596   3.715
47923W        W18523   2.775  21.093   4.876
47924W        W18524  39.285  42.796   0.940
47925W        W18525  29.477  33.914   0.858
47926W        W18526  10.277   4.450   0.348
47927W        W18527   1.639  16.954  13.829
47928W        W18528  21.853  23.489  12.364
47929W        W18529  33.084  32.978  11.978
47930W        W18530   2.019   2.935   0.335
47931W        W18531   8.780  32.060  14.932
47932W        W18532  43.810  30.549   1.450
47933W        W18533  26.554  17.054  14.059
47934W        W18534  25.328  36.671  11.158
47935W        W18535  16.481  28.438  12.116
47936W        W18536  19.779  20.905  14.139
47937W        W18537  18.350  36.828  13.789
47938W        W18538  40.563   9.602  13.493
47939W        W18539  20.101  22.183   0.229
47940W        W18540   2.462  36.871  13.748
47941W        W18541  22.706  32.908   3.805
47942W        W18542  21.652  25.351   3.608
47943W        W18543  43.234  34.472  14.981
47944W        W18544  12.248   0.280   3.623
47945W        W18545  30.041  28.008   2.673
47946W        W18546  17.697  23.494  11.430
47947W        W18547   4.766  36.960  11.610
47948W        W18548  14.232  10.258  14.887
47949W        W18549  38.519  30.004   4.417
47950W        W18550  34.907  37.863   4.306
47951W        W18551  20.573  30.746  13.128
47952W        W18552  28.696  22.676   4.562
47953W        W18553  23.127  23.089  14.399
47954W        W18554  20.103  14.721  13.960
47955W        W18555  13.821   6.184  12.536
47956W        W18556  40.617  39.851  11.754
47957W        W18557   9.139  12.749  10.520
47958W        W18558  33.149  18.573  12.018
47959W        W18559  31.451  28.480  11.437
47960W        W18560  33.535   7.041   3.261
47961W        W18561  11.074   3.321   0.764
47962W        W18562  32.473   5.181  13.989
47963W        W18563  40.169  37.344  10.695
47964W        W18564  26.634  41.348  12.554
47965W        W18565   8.661  39.453  13.959
47966W        W18566  16.532  32.976   4.542
47967W        W18567  11.344  17.499   4.453
47968W        W18568  16.105  26.663   3.561
47969W        W18569  15.159  17.892   3.290
47970W        W18570  37.963  18.849  12.416
47971W        W18571   9.280  24.070   0.469
47972W        W18572  24.021  14.406  12.578
47973W        W18573  39.010  27.226  14.790
47974W        W18574  11.782  12.521   3.631
47975W        W18575  33.640  43.944   4.146
47976W        W18576  18.691  32.089   3.924
47977W        W18577  18.529  38.676  12.599
47978W        W18578  44.970  35.295  12.777
47979W        W18579  28.885  12.681  13.781
47980W        W18580  15.003  12.086  12.139
47981W        W18581  12.700  25.182   3.725
47982W        W18582  34.244  17.787   0.535
47983W        W18583  36.528  33.212   1.377
47984W        W18584  38.011  38.103   1.356
47985W        W18585  14.195  38.832   4.389
47986W        W18586  11.844  26.973  13.531
47987W        W18587   4.021  24.025   3.643
47988W        W18588  11.370  31.351   2.883
47989W        W18589  18.335  32.778   3.301
47990W        W18590  27.199  11.694  13.518
47991W        W18591  26.581  31.490  11.923
47992W        W18592   1.683  14.286   3.241
47993W        W18593  34.882  36.431   3.179
47994W        W18594  29.016  36.915  13.510
47995W        W18595   2.397   3.968   4.570
47996W        W18596  40.942  33.829   4.281
47997W        W18597  41.011   8.359  11.596
47998W        W18598  34.647  27.037  13.564
47999W        W18599  43.836  33.100   2.703
48000W        W18600  21.666   0.325   1.631
48001W        W18601  15.583  44.961  10.977
48002W        W18602   0.826   2.350  10.540
48003W        W18603  41.211  20.749   4.990
48004W        W18604  28.964  43.014  11.601
48005W        W18605  35.007  37.912   2.300
48006W        W18606   5.565  34.089   1.349
48007W        W18607  40.857  19.302  14.253
48008W        W18608   5.068  31.031  13.561
48009W        W18609  33.983  42.354  10.725
48010W        W18610  25.491  43.948  13.428
48011W        W18611  16.682  11.889  13.492
48012W        W18612  17.840  19.151   3.152
48013W        W18613  29.432   7.600   0.266
48014W        W18614   5.114   7.176   1.757
48015W        W18615  22.967  35.519   1.388
48016W        W18616  42.459  14.650   4.320
48017W        W18617  39.946   0.239   2.159
48018W        W18618  24.184   9.710  13.605
48019W        W18619   1.258   0.709   2.256
48020W        W18620  15.084   6.665   3.287
48021W        W18621  25.123  24.433  12.938
48022W        W18622  28.268  29.250   4.316
48023W        W18623  41.497  33.937   4.809
48024W        W18624  42.899  38.337   0.625
48025W        W18625  42.595  22.938   0.808
48026W        W18626  18.631  34.808  12.418
48027W        W18627  34.354  32.853   4.332
48028W        W18628  13.850  29.047   4.367
48029W        W18629  18.181  40.609  11.054
48030W        W18630  40.526  37.658  12.342
48031W        W18631  17.289  17.242  10.774
48032W        W18632   5.361  18.890   1.723
48033W        W18633  40.517  15.315   1.841
48034W        W18634  28.895  30.344  14.825
48035W        W18635  30.444   1.025   4.665
48036W        W18636  11.877  39.372  14.475
48037W        W18637  11.833   2.493  12.937
48038W        W18638  44.865   9.096  14.242
48039W        W18639  39.366  32.649   1.764
48040W        W18640  10.376  13.423  14.403
48041W        W18641  31.989  16.105   4.849
48042W        W18642  44.834  10.786   0.353
48043W        W18643  39.420  41.284   2.430
48044W        W18644   7.114  29.013   0.945
48045W        W18645  30.599  21.234  11.467
48046W        W18646   2.419  10.183  11.456
48047W        W18647  13.185  31.028  11.051
48048W        W18648  35.127   5.334  11.787
48049W        W18649  37.288   9.218  12.570
48050W        W18650  30.263  14.010  14.340
48051W        W18651   7.895  14.146  11.758
48052W        W18652  40.863  41.457   2.476
48053W        W18653  33.643  13.017   2.386
48054W        W18654  40.208   2.772  13.688
48055W        W18655  18.374  20.832  13.452
48056W        W18656   9.602  32.900   1.350
48057W        W18657  39.787  40.424  13.942
48058W        W18658  38.099  39.513  12.169
48059W        W18659   0.387  24.927   5.072
48060W        W18660  44.846   0.491  13.364
48061W        W18661  44.981   8.462   1.214
48062W        W18662  18.067  10.925  11.939
48063W        W18663  43.267   1.356   4.429
48064W        W18664  30.354  34.530  13.922
48065W        W18665  19.829   6.870   3.447
48066W        W18666  36.847  14.204   0.952
48067W        W18667   9.575  11.960  11.060
48068W        W18668  10.616  13.168  12.396
48069W        W18669  36.050   4.304   2.996
48070W        W18670  41.532  22.950  12.105
48071W        W18671  34.428   2.255   0.370
48072W        W18672   4.909  19.730   1.162
48073W        W18673   0.940  16.165   4.780
48074W        W18674   0.067   6.962  14.581
48075W        W18675   7.935  14.859   1.221
48076W        W18676   1.924  26.190   0.850
48077W        W18677  27.919  15.011  12.646
48078W        W18678  14.068  34.028   3.728
48079W        W18679  20.653   1.270   1.337
48080W        W18680  17.755  16.968   0.474
48081W        W18681  36.611   8.847  12.041
48082W        W18682  28.594  28.130  14.141
48083W        W18683  12.689  31.017  11.334
48084W        W18684  29.987  14.865   2.292
48085W        W18685   6.872  13.154   1.244
48086W        W18686  23.000   6.467  13.475
48087W        W18687  21.454  27.350  10.278
48088W        W18688  17.035  25.651   5.511
48089W        W18689   4.239  39.324  13.873
48090W        W18690  10.454  29.679  10.738
48091W        W18691  28.743  14.128   0.720
48092W        W18692  17.587  20.588   1.889
48093W        W18693  40.282  11.570   5.157
48094W        W18694   9.323  37.568   0.256
48095W        W18695  36.789  35.054  12.084
48096W        W18696  28.164  34.868  12.238
48097W        W18697  14.305  25.298  12.911
48098W        W18698   6.663  31.212   0.682
48099W        W18699  19.287  41.773   2.277
48100W        W18700  42.451  14.654   2.900
48101W        W18701  41.278   9.674   4.424
48102W        W18702  41.069  21.672  11.959
48103W        W18703  31.113   4.909   4.602
48104W        W18704  27.449  40.577   2.199
48105W        W18705  13.884  33.563   0.887
48106W        W18706  20.021  27.407  14.416
48107W        W18707  22.191   7.933  10.307
48108W        W18708   5.657  34.415  12.194
48109W        W18709   3.458  28.610   0.750
48110W        W18710   4.479  35.534   3.626
48111W        W18711  16.173   4.406  12.583
48112W        W18712  32.270  26.229  11.248
48113W        W18713  42.207  38.382   2.492
48114W        W18714  37.929  33.166  14.801
48115W        W18715  14.771  41.827   3.258
48116W        W18716  12.117  12.989  13.059
48117W        W18717  17.087   6.557   0.765
48118W        W18718  35.973  12.299   2.249
48119W        W18719  22.160  37.948   2.579
48120W        W18720  14.563  36.238   3.656
48121W        W18721   2.846  37.556  13.737
48122W        W18722  15.821  15.430   5.412
48123W        W18723  19.315  37.837  14.839
48124W        W18724  22.754  41.399  14.427
48125W        W18725  18.940  26.990  13.039
48126W        W18726   6.218  41.461  11.476
48127W        W18727   8.485   5.059  10.794
48128W        W18728  37.513  17.444   2.868
48129W        W18729  34.557  26.695  13.045
48130W        W18730  34.439   1.346  14.596
48131W        W18731  20.033   6.947   4.356
48132W        W18732  22.594  27.267   3.787
48133W        W18733  32.479  12.833   1.899
48134W        W18734  12.864   0.971  11.916
48135W        W18735  28.660  39.386  12.117
48136W        W18736   8.166   6.904  13.351
48137W        W18737  28.474  15.312   3.226
48138W        W18738  29.624   3.449  14.751
48139W        W18739  30.320  25.129  13.058
48140W        W18740   0.249  38.878  10.807
48141W        W18741  13.359  26.043  11.367
48142W        W18742  40.554   1.032   0.195
48143W        W18743  40.345  14.860  10.693
48144W        W18744  43.289  24.333   2.773
48145W        W18745  13.271  22.118  11.140
48146W        W18746  32.716  39.034   3.864
48147W        W18747  15.249  10.914  11.216
48148W        W18748  30.495  42.312  14.859
48149W        W18749  28.119  44.906  12.131
48150W        W18750  35.344  43.212  14.355
48151W        W18751   1.890  36.210   0.483
48152W        W18752  12.205  37.957   1.382
48153W        W18753  40.830  18.625   1.985
48154W        W18754  39.565  11.672   4.098
48155W        W18755  21.564  20.691   2.766
48156W        W18756   0.161  19.319  10.843
48157W        W18757   0.690  41.537  10.641
48158W        W18758  24.119  19.955   4.772
48159W        W18759  10.397  29.066   1.445
48160W        W18760   7.550   4.415  11.408
48161W        W18761  23.019  15.258   2.219
48162W        W18762  16.280  41.328   2.242
48163W        W18763  14.995  26.691   2.286
48164W        W18764   9.211  29.241   1.724
48165W        W18765  42.987  17.047   3.241
48166W        W18766   6.860  38.030  10.375
48167W        W18767  29.319  10.228  13.796
48168W        W18768  35.636  26.074   0.684
48169W        W18769  41.578  30.950  12.943
48170W        W18770   7.161   8.433  10.749
48171W        W18771  24.163  11.177   0.310
48172W        W18772  25.215  24.170   1.339
48173W        W18773   2.700  36.428  14.528
48174W        W18774  15.607  24.060   2.318
48175W        W18775  31.045  31.429  13.905
48176W        W18776  33.065  26.578  13.629
48177W        W18777  41.928   3.979  11.672
48178W        W18778  39.359   7.380  12.504
48179W        W18779   9.813  34.498   1.488
48180W        W18780  21.711  15.363  14.997
48181W        W18781  31.978   2.915  13.759
48182W        W18782  42.413  31.074   2.274
48183W        W18783  11.533  34.079  10.702
48184W        W18784  11.352  42.897   4.944
48185W        W18785  20.568  19.243  14.214
48186W        W18786  33.867  33.840  13.928
48187W        W18787  25.042  30.225   3.161
48188W        W18788  35.029   6.330   4.572
48189W        W18789  31.136  26.137   0.247
48190W        W18790  23.991  25.963   4.018
48191W        W18791  35.211  25.860   0.843
48192W        W18792   1.689  31.791  13.561
48193W        W18793  23.624  32.482  13.101
48194W        W18794  21.242  10.003  11.665
48195W        W18795   8.710  17.137  14.360
48196W        W18796  27.456  38.307   2.771
48197W        W18797  14.514  24.355  11.738
48198W        W18798  15.156   7.187   0.619
48199W        W18799  38.444  16.121  13.812
48200W        W18800  44.015  26.541   4.146
48201W        W18801  11.340   0.510  12.417
48202W        W18802  11.007  37.384   3.200
48203W        W18803  21.456  17.687   0.012
48204W        W18804  37.520   7.445  14.512
48205W        W18805  11.914  30.619  13.611
48206W        W18806  35.098  15.067  11.585
48207W        W18807   7.807  10.061  11.219
48208W        W18808  43.939  27.612  10.787
48209W        W18809  16.119  20.214   0.829
48210W        W18810  29.707  36.025  10.785
48211W        W18811  37.305  18.569  13.918
48212W        W18812  33.698  10.429   4.257
48213W        W18813  15.512  16.671  13.567
48214W        W18814  18.293  41.868  11.679
48215W        W18815  14.618   7.823  11.027
48216W        W18816  10.926  32.835   2.485
48217W        W18817   1.461   1.499   0.392
48218W        W18818  18.314  12.770   1.364
48219W        W18819   4.082  20.586  12.881
48220W        W18820  14.284  44.198   3.348
48221W        W18821  22.785  31.349  13.901
48222W        W18822  12.867  36.317   2.157
48223W        W18823  40.954  32.691  11.785
48224W        W18824   0.110  40.159  13.511
48225W        W18825  26.369  39.758   4.432
48226W        W18826   0.167  32.429  13.459
48227W        W18827  19.142  23.938  12.334
48228W        W18828   8.794  22.143  11.753
48229W        W18829  29.001   1.406  13.886
48230W        W18830  23.018  41.077  14.736
48231W        W18831  19.235  28.026   1.938
48232W        W18832  35.633  28.620   1.918
48233W        W18833  44.570  25.689  12.467
48234W        W18834   4.650  41.630   4.381
48235W        W18835  39.916  16.600   0.047
48236W        W18836   8.340  42.738  14.352
48237W        W18837  17.983  24.115   0.954
48238W        W18838  11.954  22.698   2.872
48239W        W18839  20.023  44.451  10.180
48240W        W18840  43.230  23.619  10.597
48241W        W18841  42.668  41.422   4.512
48242W        W18842   1.567  30.554  14.478
48243W        W18843  26.538  27.907  12.979
48244W        W18844  35.978   8.723  14.377
48245W        W18845  39.650  37.364  10.712
48246W        W18846   2.992  41.994   1.915
48247W        W18847  33.373  39.785   0.221
48248W        W18848  12.006   0.808  14.429
48249W        W18849  41.105  34.440   1.736
48250W        W18850  29.602   8.342  11.142
48251W        W18851  31.949  14.201   1.974
48252W        W18852  29.145  17.787  11.872
48253W        W18853  41.576  33.516  10.704
48254W        W18854  16.712   2.551  11.607
48255W        W18855  29.916  29.763   4.766
48256W        W18856   3.520  41.738  12.689
48257W        W18857  44.816  43.505   0.228
48258W        W18858  36.854  21.777  11.889
48259W        W18859  14.306   2.665  11.108
48260W        W18860  21.482  35.946  13.081
48261W        W18861  33.907  29.843   4.757
48262W        W18862  42.621   8.815  13.428
48263W        W18863  43.131   3.690   2.197
48264W        W18864   7.237  20.975  10.770
48265W        W18865   9.763  35.327   0.306
48266W        W18866  20.819   9.905   3.595
48267W        W18867  21.617  33.089  11.522
48268W        W18868  27.703  32.681   2.764
48269W        W18869  38.102  14.587  12.131
48270W        W18870  36.866   7.242  13.867
48271W        W18871  18.716   6.459  13.597
48272W        W18872  42.794  43.256   1.522
48273W        W18873  44.240   6.674   0.471
48274W        W18874  13.359  14.543  13.357
48275W        W18875  14.033  34.811   4.180
48276W        W18876   7.415   4.358  14.362
48277W        W18877  21.654   6.205  11.904
48278W        W18878  27.990  17.926  10.885
48279W        W18879   2.363  17.310   3.284
48280W        W18880   7.826  39.108   1.869
48281W        W18881   1.897  10.218  12.588
48282W        W18882  27.472  18.657   2.780
48283W        W18883  24.254  39.484   0.919
48284W        W18884  44.043  20.494   5.044
48285W        W18885  39.571  31.324   2.876
48286W        W18886  18.317   9.273   1.255
48287W        W18887   5.469   5.842   1.411
48288W        W18888  24.522  27.239  10.510
48289W        W18889   4.226  20.617   0.684
48290W        W18890  25.920  44.341   3.288
48291W        W18891  35.380   9.742   4.263
48292W        W18892  20.288   9.696  11.588
48293W        W18893  16.802  23.452  13.357
48294W        W18894  40.532  17.533  11.222
48295W        W18895   1.996  12.409  11.211
48296W        W18896  17.488  14.159   0.639
48297W        W18897  26.694   0.100   2.355
48298W        W18898  24.516  21.254  11.585
48299W        W18899  20.246  20.766   0.364
48300W        W18900   7.343  39.454  13.278
48301W        W18901  31.442  33.964  12.161
48302W        W18902   4.036  16.639   2.269
48303W        W18903  18.471  36.667  11.178
48304W        W18904   0.376  19.806  12.474
48305W        W18905  10.837   6.677   1.225
48306W        W18906  10.334  24.162  14.460
48307W        W18907  11.209  29.739  14.984
48308W        W18908   6.340  42.707   4.055
48309W        W18909  39.755   6.202   2.104
48310W        W18910  12.219  25.466   3.726
48311W        W18911  28.891  42.778  14.413
48312W        W18912  35.361  21.683  10.512
48313W        W18913  16.865  12.150   0.869
48314W        W18914  24.123  33.657  12.044
48315W        W18915  39.443  13.290   4.523
48316W        W18916  23.308  24.211   4.157
48317W        W18917  27.508  12.265  14.869
48318W        W18918  30.607  24.970  10.773
48319W        W18919   4.257   6.274   4.140
48320W        W18920   6.860  24.904  14.395
48321W        W18921   5.688  26.611   2.748
48322W        W18922   8.226  27.925  11.045
48323W        W18923  42.938  12.308   0.681
48324W        W18924   8.293   3.896  13.486
48325W        W18925   1.853  32.300   3.621
48326W        W18926  25.211   9.023  11.459
48327W        W18927  42.827  23.172  11.580
48328W        W18928  40.091  30.104  14.306
48329W        W18929  40.005  30.167  12.871
48330W        W18930   6.293  36.966  12.309
48331W        W18931  31.032  43.374   4.538
48332W        W18932  26.022   2.286  14.538
48333W        W18933  24.677  38.198  11.157
48334W        W18934   7.010   2.317  11.193
48335W        W18935  32.644  10.757  11.123
48336W        W18936  41.464  29.861  14.379
48337W        W18937  27.762  33.848  14.430
48338W        W18938  34.526  31.490   2.575
48339W        W18939   9.825  15.834   0.337
48340W        W18940  27.324   5.815   0.910
48341W        W18941  16.109  25.284  13.543
48342W        W18942  17.836  38.289   1.384
48343W        W18943   0.832   0.448  13.737
48344W        W18944  10.176  44.871  12.881
48345W        W18945  21.720  43.275  11.946
48346W        W18946  40.964  16.866  13.515
48347W        W18947   7.850  42.844   1.953
48348W        W18948  20.985   0.428   3.141
48349W        W18949  40.124  10.206   4.640
48350W        W18950   7.026  28.477   0.930
48351W        W18951  18.660  33.667  14.869
48352W        W18952   3.326  10.817   2.899
48353W        W18953   0.425  41.305  12.166
48354W        W18954  22.876   3.849  13.307
48355W        W18955  14.359  32.055  10.792
48356W        W18956  44.494  24.532   3.725
48357W        W18957   4.308   5.386   1.184
48358W        W18958   4.780  20.334  10.962
48359W        W18959  16.394  32.721   3.689
48360W        W18960  35.108  11.335  10.869
48361W        W18961  15.508  41.694   1.681
48362W        W18962  25.207  26.661   2.278
48363W        W18963  33.443  15.869  11.589
48364W        W18964  11.070   5.370   2.834
48365W        W18965  34.584  21.573   4.108
48366W        W18966   8.791  20.072  10.755
48367W        W18967  29.151   2.740   1.351
48368W        W18968  10.624   4.095   0.547
48369W        W18969  26.871  20.565   0.855
48370W        W18970  16.869  28.580  11.799
48371W        W18971   5.716  41.358   3.237
48372W        W18972  13.173  27.235  10.692
48373W        W18973  33.630  38.956  14.188
48374W        W18974   6.189  27.094   1.529
48375W        W18975  14.912  24.556  13.004
48376W        W18976   3.067  22.022  11.879
48377W        W18977  34.488  27.953  13.848
48378W        W18978   8.196   3.460   3.836
48379W        W18979   3.142   1.922   0.402
48380W        W18980  24.999   5.948  13.089
48381W        W18981  37.527  18.121  13.957
48382W        W18982  39.123  37.037  13.840
48383W        W18983  27.745  34.627  11.165
48384W        W18984  31.132  26.066  12.404
48385W        W18985  16.575  29.406  12.879
48386W        W18986   4.188  28.749  11.731
48387W        W18987  12.216  30.396   4.967
48388W        W18988  42.465  20.831   3.226
48389W        W18989  28.486  38.709  12.157
48390W        W18990  23.978  33.384   3.705
48391W        W18991  18.232   6.726   2.601
48392W        W18992   5.266  15.861  10.130
48393W        W18993  23.527  26.159   3.995
48394W        W18994  38.473  44.809  12.595
48395W        W18995  18.102  39.326  12.981
48396W        W18996  29.002  28.787  12.748
48397W        W18997  10.184  41.424   2.846
48398W        W18998  28.628  24.801  11.664
48399W        W18999  33.512  44.762   0.393
48400W        W19000  16.694  25.312  12.045
48401W        W19001  25.390  27.310   1.859
48402W        W19002  42.316  10.936   3.726
48403W        W19003  28.966   6.371   0.396
48404W        W19004  40.282  28.541   1.649
48405W        W19005   8.644  28.607  14.926
48406W        W19006  40.858  41.526   3.376
48407W        W19007   9.667   5.594   4.857
48408W        W19008  44.340  44.737  10.334
48409W        W19009  30.642  12.859   2.656
48410W        W19010  35.041  35.901   3.878
48411W        W19011  36.382  30.915  14.981
48412W        W19012   7.423  42.898   1.667
48413W        W19013   1.804  23.526   3.917
48414W        W19014  16.569  38.274  12.591
48415W        W19015  11.606  26.656  10.708
48416W        W19016  38.866  28.452  12.128
48417W        W19017  21.545  11.327  11.400
48418W        W19018  40.262   4.959   0.144
48419W        W19019   9.194  10.585   3.283
48420W        W19020  11.748  40.942  10.719
48421W        W19021  27.071  10.792   0.058
48422W        W19022  38.284  20.913  14.553
48423W        W19023   8.598   2.931   3.097
48424W        W19024  33.819  44.379   3.329
48425W        W19025  29.617  23.218  11.757
48426W        W19026   7.288  24.211  12.854
48427W        W19027  34.568  42.313   2.230
48428W        W19028  31.348  19.676  14.984
48429W        W19029   0.131  27.668   2.845
48430W        W19030  24.138   9.663   4.442
48431W        W19031  22.263  25.524   1.366
48432W        W19032  31.380  24.017   4.179
48433W        W19033  16.032  14.177   0.837
48434W        W19034  22.192  35.153  14.058
48435W        W19035   0.885  34.935  13.725
48436W        W19036  11.223  36.595  12.906
48437W        W19037  39.967  32.324   2.373
48438W        W19038  36.413  20.192  11.421
48439W        W19039  43.217   7.677   4.209
48440W        W19040  42.821  17.518  11.623
48441W        W19041  42.035  41.920  14.870
48442W        W19042   1.444  16.313  14.320
48443W        W19043  19.590  41.517   3.191
48444W        W19044  31.740  20.803   0.894
48445W        W19045  21.364  21.003   4.137
48446W        W19046  12.059  31.451   0.435
48447W        W19047   9.567  26.863   2.586
48448W        W19048  18.692  28.634   1.842
48449W        W19049   9.346  32.022  11.567
48450W        W19050  43.674  44.720   0.899
48451W        W19051  32.733  40.072   1.949
48452W        W19052   3.255  42.229   0.836
48453W        W19053  40.451  39.843   3.332
48454W        W19054  15.232  21.975  13.466
48455W        W19055  19.844  18.015  10.745
48456W        W19056  13.353  20.118   0.471
48457W        W19057  15.003  30.937   2.891
48458W        W19058   5.389  11.310  13.623
48459W        W19059  16.596  40.104   2.949
48460W        W19060  43.545  38.531  13.048
48461W        W19061  28.447  11.405   1.784
48462W        W19062  35.324   9.210   1.696
48463W        W19063  25.913  40.940  13.512
48464W        W19064  30.830  30.748   1.201
48465W        W19065  32.155   7.836   0.956
48466W        W19066   0.330  34.565   2.306
48467W        W19067  30.253  26.705   0.467
48468W        W19068  10.196  27.769  11.066
48469W        W19069  12.676  13.783   5.035
48470W        W19070   4.454  31.480  14.431
48471W        W19071   3.885   3.273  11.300
48472W        W19072  26.227  33.059  10.899
48473W        W19073  32.558  33.136   2.143
48474W        W19074   1.896   9.375  11.902
48475W        W19075  22.397  41.871   4.586
48476W        W19076   9.858  13.504  10.473
48477W        W19077  26.644  25.690   4.049
48478W        W19078   5.267  12.738  10.412
48479W        W19079  28.611  13.742   4.374
48480W        W19080   4.339  31.890   0.744
48481W        W19081  31.577  40.947  11.698
48482W        W19082  29.899  34.775  12.008
48483W        W19083  40.836   2.766  12.894
48484W        W19084  34.421  26.123   4.690
48485W        W19085  23.974  42.343   2.301
48486W        W19086  30.595   5.163   1.925
48487W        W19087  28.166  32.920   2.675
48488W        W19088  39.104   3.350   1.839
48489W        W19089  38.311   5.824  12.443
48490W        W19090  20.873  37.286   1.732
48491W        W19091   9.649  38.415   4.134
48492W        W19092   2.399   5.441  14.971
48493W        W19093   2.862  12.822   0.798
48494W        W19094  41.401  13.344   0.065
48495W        W19095  15.110  44.407   3.736
48496W        W19096   1.595  40.382  12.369
48497W        W19097  14.879  26.550  10.025
48498W        W19098   5.860   1.548  12.092
48499W        W19099  25.274  31.374   1.429
48500W        W19100  33.074  17.727   2.264
48501W        W19101  37.940  22.989   1.949
48502W        W19102   9.064  33.481  10.279
48503W        W19103  35.132  36.372   0.424
48504W        W19104  26.564  17.839  14.838
48505W        W19105  43.870  22.819  14.406
48506W        W19106  36.002  20.758  13.490
48507W        W19107  16.695  40.406   0.183
48508W        W19108  38.506  12.667  10.926
48509W        W19109  17.207  43.337  12.955
48510W        W19110  40.983   2.368  11.590
48511W        W19111   6.165  39.646  13.981
48512W        W19112  20.021  42.896  11.645
48513W        W19113  28.220  23.599   4.220
48514W        W19114  10.619  20.183   1.285
48515W        W19115   2.310  25.646   0.547
48516W        W19116  41.275   5.335   2.262
48517W        W19117  11.674  34.892   2.172
48518W        W19118   8.198  19.916   4.991
48519W        W19119   9.063   8.691  11.942
48520W        W19120   0.804  14.216   1.743
48521W        W19121   1.515  26.529   0.892
48522W        W19122  41.921   0.193  14.468
48523W        W19123  12.633  32.014  12.074
48524W        W19124  37.797  28.036   0.393
48525W        W19125  44.402  14.729  12.048
48526W        W19126  39.798   9.764   2.151
48527W        W19127  20.844  44.070   2.863
48528W        W19128  42.500   8.699  10.873
48529W        W19129   4.748   5.408  12.939
48530W        W19130  41.280  15.132  11.535
48531W        W19131  16.231  16.375  13.394
48532W        W19132   3.530  42.394   4.549
48533W        W19133  13.700  35.483  12.989
48534W        W19134  43.421   4.219   4.142
48535W        W19135   1.188  39.864   0.289
48536W        W19136  38.929  11.329  10.718
48537W        W19137  31.879   2.460   3.873
48538W        W19138  25.607  38.828   1.709
48539W        W19139  34.958  25.644   1.683
48540W        W19140  41.012   4.396  12.761
48541W        W19141  44.611  20.091   0.082
48542W        W19142  22.528   4.452   0.809
48543W        W19143  16.155  35.858   1.944
48544W        W19144  30.296   6.279   3.145
48545W        W19145  24.759  13.096   3.142
48546W        W19146  39.256  34.024   4.483
48547W        W19147  26.845  24.538   1.774
48548W        W19148  23.643  21.676   4.762
48549W        W19149   5.912   9.075  11.572
48550W        W19150  14.946  43.979  11.862
48551W        W19151  41.996  43.045  11.507
48552W        W19152  41.067  13.615   3.271
48553W        W19153   2.764  20.342   4.208
48554W        W19154  36.442  19.514   1.944
48555W        W19155  17.034   5.327   1.426
48556W        W19156  31.357  13.951  11.494
48557W        W19157  41.324  13.971  12.430
48558W        W19158  36.817  14.063   1.466
48559W        W19159   1.841  35.420   0.950
48560W        W19160   7.615  16.305   3.544
48561W        W19161  14.255  33.236   0.198
48562W        W19162   9.850   3.877  12.379
48563W        W19163  20.041  40.135  14.063
48564W        W19164   7.258  12.349   3.304
48565W        W19165  31.593  28.951  11.224
48566W        W19166  17.199  32.889  12.883
48567W        W19167  36.083  28.277  14.313
48568W        W19168  32.879  30.566  12.955
48569W        W19169  37.789  26.589   0.351
48570W        W19170  11.054  19.536  12.585
48571W        W19171   6.114   3.181   1.756
48572W        W19172  43.441  30.949   4.091
48573W        W19173   9.653  31.502   3.273
48574W        W19174  19.639   2.883  12.869
48575W        W19175  20.400  35.399  13.319
48576W        W19176  40.769  13.523  11.390
48577W        W19177  42.129  20.114  14.473
48578W        W19178  11.071  40.028   3.705
48579W        W19179  35.435  38.290  11.091
48580W        W19180  24.553   3.699  10.811
48581W        W19181  40.250   3.008  10.525
48582W        W19182   1.993   2.450  13.870
48583W        W19183  36.279  44.771   0.358
48584W        W19184  11.454  42.466  12.263
48585W        W19185  41.549  15.582  10.714
48586W        W19186  22.789  38.420  14.806
48587W        W19187  36.826  10.191  11.484
48588W        W19188   7.041  23.472  11.248
48589W        W19189  21.099  31.912  13.032
48590W        W19190  32.479  27.243   1.795
48591W        W19191  32.275  18.154  14.035
48592W        W19192  36.884  35.367   2.827
48593W        W19193  20.669  42.566  12.058
48594W        W19194  31.068  12.938   2.058
48595W        W19195   9.937  43.281  14.901
48596W        W19196  11.794   4.495  10.752
48597W        W19197  44.450  44.906  14.096
48598W        W19198   4.282  34.167  14.557
48599W        W19199   0.637   6.951   2.630
48600W        W19200   6.225  39.059   1.763
48601W        W19201  22.546  21.718   1.038
48602W        W19202  30.619  11.593   0.549
48603W        W19203  31.367  33.924  13.476
48604W        W19204  39.273  22.454   2.769
48605W        W19205  44.704   4.777   2.352
48606W        W19206  42.925   4.961  13.540
48607W        W19207   8.298  37.614   1.395
48608W        W19208  24.206  39.351   4.579
48609W        W19209  44.884  23.669   4.063
48610W        W19210   2.401  34.854  11.486
48611W        W19211  42.802  11.695  11.721
48612W        W19212   0.975   2.068   4.981
48613W        W19213  36.159  44.820   1.267
48614W        W19214  34.435   9.420  13.459
48615W        W19215  24.800   3.094  11.166
48616W        W19216  32.430   0.808   0.825
48617W        W19217  11.084   1.945   4.166
48618W        W19218  20.621  22.992   2.229
48619W        W19219  43.393  18.550  12.602
48620W        W19220   2.910  22.951   0.642
48621W        W19221   0.053  17.240   1.842
48622W        W19222  35.092  16.933  10.692
48623W        W19223  44.606  21.020   1.848
48624W        W19224  39.414  22.560   4.677
48625W        W19225  40.701  14.157  12.000
48626W        W19226   8.669   1.413   3.968
48627W        W19227  31.814  37.924  11.094
48628W        W19228  38.800  18.011  12.651
48629W        W19229   7.438  39.399   2.064
48630W        W19230  16.126  24.993   2.298
48631W        W19231  44.330  13.479   3.737
48632W        W19232   1.252  23.744   1.848
48633W        W19233  15.671  33.818  12.014
48634W        W19234  42.552  33.044   1.414
48635W        W19235  34.566  18.447  12.423
48636W        W19236  39.116  27.970   3.818
48637W        W19237   2.958  34.143   0.581
48638W        W19238  34.134  43.912   3.238
48639W        W19239  14.532   7.635   2.278
48640W        W19240  24.242  31.779  12.930
48641W        W19241   9.013  29.682  11.559
48642W        W19242  23.994  27.244   1.834
48643W        W19243   4.461  36.346   2.281
48644W        W19244  32.044  32.639   0.801
48645W        W19245  44.436  20.812   3.151
48646W        W19246  25.735  33.084  13.373
48647W        W19247  31.357   9.920   1.371
48648W        W19248   4.464  29.899   4.608
48649W        W19249   3.382  10.599   3.369
48650W        W19250  36.399   0.749  13.024
48651W        W19251  15.627   2.162  12.008
48652W        W19252  14.501  44.840   1.618
48653W        W19253  10.329  24.718   2.672
48654W        W19254  30.999   8.136   1.442
48655W        W19255  39.102  21.039   1.749
48656W        W19256   3.445  28.575   1.263
48657W        W19257  32.672  24.794  13.282
48658W        W19258  10.768  34.568  11.110
48659W        W19259  23.923  11.025  13.822
48660W        W19260  44.462  44.400  12.093
48661W        W19261   7.925  33.809   1.210
48662W        W19262  11.347  14.288   0.045
48663W        W19263   8.555  43.018   4.468
48664W        W19264  27.511  35.703   2.018
48665W        W19265  26.927  10.092   2.739
48666W        W19266  20.685  19.205   3.263
48667W        W19267  44.815   0.381   0.308
48668W        W19268   1.501   4.130  12.418
48669W        W19269  30.621  25.210   4.528
48670W        W19270  31.635  39.428  13.371
48671W        W19271   6.189  14.513   3.676
48672W        W19272  24.647  31.461   3.621
48673W        W19273  20.186  26.491  12.882
48674W        W19274  29.544  35.090   4.346
48675W        W19275  26.539  21.746   3.227
48676W        W19276  31.016  19.401   0.441
48677W        W19277  24.190  28.414   2.706
48678W        W19278   0.392   4.888   4.816
48679W        W19279  24.021  31.563  12.483
48680W        W19280  21.513   1.746   2.647
48681W        W19281  44.857   5.814   0.533
48682W        W19282  21.667  13.750  12.480
48683W        W19283   4.181  30.054  10.670
48684W        W19284  21.536  25.845   2.646
48685W        W19285  21.414  16.603   1.787
48686W        W19286  40.733   7.217  13.746
48687W        W19287  26.652  28.064   0.754
48688W        W19288  23.133   8.883  12.950
48689W        W19289  11.819  26.211  12.381
48690W        W19290  23.008  35.833   2.745
48691W        W19291  43.448  18.555  11.315
48692W        W19292  26.082  17.237  10.468
48693W        W19293  17.680  14.204  14.658
48694W        W19294   2.934  14.761  10.699
48695W        W19295  26.542  36.850  14.738
48696W        W19296  34.348  38.993   2.833
48697W        W19297  16.038  22.117   1.418
48698W        W19298  39.410  32.467   4.010
48699W        W19299  38.593   9.905  13.338
48700W        W19300  40.421  21.734   0.647
48701W        W19301  29.536   3.147   4.144
48702W        W19302  29.053  43.476  14.012
48703W        W19303  20.392  20.181  11.478
48704W        W19304  35.050  37.121  14.904
48705W        W19305  33.415  41.433  13.497
48706W        W19306  29.158  20.312  13.622
48707W        W19307   7.519  40.555  12.480
48708W        W19308   6.355  15.253  14.229
48709W        W19309  11.702  20.413  10.661
48710W        W19310  41.891   0.269  13.502
48711W        W19311  16.578  30.267   2.612
48712W        W19312  14.821  41.300  11.866
48713W        W19313  37.112   7.805   3.332
48714W        W19314  24.419  36.726   0.379
48715W        W19315  28.671  42.943   3.140
48716W        W19316  24.998  34.339   3.674
48717W        W19317  23.812  40.427  13.981
48718W        W19318   3.915  17.077  11.986
48719W        W19319  12.233  23.149   2.843
48720W        W19320   6.322   8.817   0.435
48721W        W19321  28.990  43.754  13.565
48722W        W19322  36.009   8.776  12.471
48723W        W19323  41.759  40.258   3.212
48724W        W19324   5.757  42.390  11.406
48725W        W19325   8.234  15.335   2.243
48726W        W19326  36.446  34.104  11.949
48727W        W19327  40.312   6.672   0.477
48728W        W19328  13.105  34.410  10.624
48729W        W19329  44.892   6.636  13.338
48730W        W19330  27.510  40.173   5.104
48731W        W19331  35.205  26.078   2.743
48732W        W19332  33.870  10.666  10.654
48733W        W19333  29.063  35.074   1.174
48734W        W19334  34.597  13.257  11.556
48735W        W19335  15.457  17.780  10.278
48736W        W19336   9.829  38.041   1.556
48737W        W19337  12.039  38.561  12.886
48738W        W19338  15.757  33.473   2.339
48739W        W19339  35.065  28.686  11.188
48740W        W19340   4.692  35.427  12.204
48741W        W19341  32.180  28.936  12.974
48742W        W19342  14.594   0.862   4.266
48743W        W19343  38.797   8.820  10.704
48744W        W19344  32.363  11.673   0.341
48745W        W19345  20.884  16.794  14.703
48746W        W19346   1.683  18.576  14.483
48747W        W19347  25.188   8.763   4.089
48748W        W19348  35.520  41.530  14.885
48749W        W19349  30.180  26.203   0.321
48750W        W19350   6.726  29.984  11.431
48751W        W19351  10.811  21.817  12.999
48752W        W19352  23.025  39.022  12.327
48753W        W19353  27.544  25.999  13.419
48754W        W19354  16.759  36.021  14.645
48755W        W19355  17.137   8.365   1.392
48756W        W19356  18.657   1.816  13.425
48757W        W19357  42.120  37.273  12.678
48758W        W19358  13.135  11.578   4.344
48759W        W19359   9.078  21.027   5.097
48760W        W19360  27.571  38.033   4.059
48761W        W19361   9.789  16.354   2.233
48762W        W19362   6.620  15.356   0.911
48763W        W19363  33.998  41.028  12.619
48764W        W19364  13.668   4.999   2.811
48765W        W19365  39.549  41.239   0.350
48766W        W19366   1.180  34.088   1.380
48767W        W19367   3.470   7.186  12.528
48768W        W19368  19.338   4.779  13.803
48769W        W19369  19.230  19.790  11.598
48770W        W19370   9.298   3.733   1.226
48771W        W19371  26.779  40.749   3.687
48772W        W19372  24.679  42.420   0.105
48773W        W19373  11.221  20.010   2.762
48774W        W19374  41.017   6.516   1.755
48775W        W19375  42.739  42.405  11.237
48776W        W19376  17.076   8.564   1.916
48777W        W19377  40.908   2.380  12.561
48778W        W19378  28.725  20.937   2.134
48779W        W19379  36.060  12.648  12.114
48780W        W19380  33.469  14.180   5.130
48781W        W19381  20.851   4.889   2.833
48782W        W19382  36.296  30.356   1.198
48783W        W19383  35.164  41.256  11.969
48784W        W19384  28.717  27.240  13.330
48785W        W19385  34.926  10.559   0.757
48786W        W19386   7.845  24.264  10.717
48787W        W19387  26.868  37.548  13.832
48788W        W19388  25.657   8.821   3.906
48789W        W19389   3.391  19.232  12.152
48790W        W19390  38.355  30.147  12.810
48791W        W19391  16.095   4.017   1.187
48792W        W19392   4.456  15.041  14.166
48793W        W19393  41.980   2.193  14.009
48794W        W19394  22.080  12.840  12.330
48795W        W19395  34.954  16.511   3.722
48796W        W19396   6.764  39.072  14.425
48797W        W19397   0.891  37.965   4.500
48798W        W19398   8.559  31.570   2.717
48799W        W19399  21.654   1.287   1.538
48800W        W19400  27.298   3.247  14.546
48801W        W19401  11.109   6.676   2.269
48802W        W19402  33.606  14.309  10.724
48803W        W19403   2.308  40.865  14.297
48804W        W19404  38.093  12.618   0.857
48805W        W19405  40.578  31.662  10.539
48806W        W19406  25.161  13.819  11.011
48807W        W19407  11.281   2.992   4.728
48808W        W19408  33.278   2.680  11.132
48809W        W19409  30.112  14.027   0.867
48810W        W19410  29.629  13.357  12.417
48811W        W19411  20.517   8.927   4.897
48812W        W19412   6.984   0.611  13.433
48813W        W19413   2.977  18.183  11.671
48814W        W19414  33.942  11.382  11.999
48815W        W19415  17.715  10.695  10.598
48816W        W19416  29.428  15.091   1.350
48817W        W19417  31.359  39.509  13.813
48818W        W19418   5.853  22.973   4.131
48819W        W19419   2.305   5.285  11.561
48820W        W19420  29.836  43.058   4.995
48821W        W19421  40.343   4.731   1.948
48822W        W19422  33.602  35.635   3.292
48823W        W19423  33.151  14.827   1.780
48824W        W19424  34.265  32.538  14.287
48825W        W19425  37.195  15.343   4.198
48826W        W19426  16.768  38.381  12.111
48827W        W19427  37.224   9.607   4.678
48828W        W19428  36.841  10.756   0.640
48829W        W19429  23.534   6.199   3.608
48830W        W19430  37.879  13.101  10.642
48831W        W19431  41.328  11.725  13.027
48832W        W19432  37.625  22.310  13.882
48833W        W19433  34.406  13.628  10.682
48834W        W19434   2.358  15.261  12.019
48835W        W19435  38.344  38.899  10.712
48836W        W19436  24.968  14.507   4.998
48837W        W19437  37.050  18.178  11.678
48838W        W19438  18.257  20.447  14.834
48839W        W19439  35.076  42.466   2.280
48840W        W19440  42.413  41.455   0.329
48841W        W19441   5.314   6.167  13.392
48842W        W19442  36.509  18.096   3.642
48843W        W19443  25.051  34.786  10.619
48844W        W19444   3.424  16.203   4.573
48845W        W19445  21.511  16.229   1.301
48846W        W19446  37.631  19.246  12.335
48847W        W19447  22.813  11.328  13.006
48848W        W19448  15.792  14.740  12.100
48849W        W19449   4.972  31.826  14.032
48850W        W19450  41.346   1.365  12.933
48851W        W19451  28.602   9.672   1.250
48852W        W19452  24.684  33.510   2.227
48853W        W19453  22.784  11.839  13.851
48854W        W19454  34.409  37.740  13.070
48855W        W19455   5.388  21.777  14.928
48856W        W19456  42.253  23.195  14.524
48857W        W19457  29.547  20.758   2.894
48858W        W19458  15.239  44.830  10.612
48859W        W19459   6.103   8.826   4.598
48860W        W19460  25.747   4.209   1.187
48861W        W19461  18.234  19.244  14.335
48862W        W19462  10.941  28.876  13.367
48863W        W19463  28.533  26.640  12.522
48864W        W19464   4.776   5.217   2.956
48865W        W19465  16.067  27.527  12.034
48866W        W19466   8.326  18.267   2.797
48867W        W19467  14.428  37.417   0.921
48868W        W19468  44.282   5.886  12.888
48869W        W19469  43.981  17.876   0.840
48870W        W19470  10.883  41.759  11.415
48871W        W19471  27.840   4.430  11.956
48872W        W19472  11.830  10.316   2.208
48873W        W19473  39.609  21.091  14.499
48874W        W19474  38.754   4.741  12.569
48875W        W19475   4.461  29.221   0.173
48876W        W19476   0.751  18.462  12.477
48877W        W19477   2.034   5.824  12.671
48878W        W19478  24.935  28.539   2.198
48879W        W19479  11.435   9.246   2.272
48880W        W19480  43.373  23.606  13.522
48881W        W19481  30.949  43.520  13.214
48882W        W19482  17.166  25.106   4.620
48883W        W19483   7.580  24.278  14.868
48884W        W19484  32.103  27.010  12.949
48885W        W19485   2.189  23.651   3.074
48886W        W19486  33.856   3.645  13.901
48887W        W19487  34.353  42.363  11.157
48888W        W19488  32.636  42.279  11.107
48889W        W19489  39.393  21.730   1.362
48890W        W19490  19.012   8.691   3.747
48891W        W19491  13.099  37.451  12.100
48892W        W19492  23.620  29.974   4.753
48893W        W19493  32.347  43.679   4.993
48894W        W19494   2.774  15.729   3.261
48895W        W19495   2.396  44.591  12.570
48896W        W19496  32.556  15.923  11.319
48897W        W19497  27.891  15.704  13.358
48898W        W19498  15.356  44.538   4.198
48899W        W19499   8.151   9.441   1.739
48900W        W19500  30.408  36.300  14.089
48901W        W19501  42.686  14.833  10.920
48902W        W19502  11.794  23.453  11.671
48903W        W19503  25.955  30.927   1.644
48904W        W19504  29.337  18.784   2.283
48905W        W19505  25.188   9.562   3.731
48906W        W19506   9.245  33.414  10.771
48907W        W19507  33.006   3.764   3.211
48908W        W19508  19.087  42.055  11.257
48909W        W19509   4.351  22.179   2.813
48910W        W19510  34.031  32.996   3.502
48911W        W19511  16.444  42.354   9.242
48912W        W19512  16.884  10.353  11.574
48913W        W19513  44.805  27.982   1.243
48914W        W19514  16.034  34.561  12.030
48915W        W19515  38.528   4.613   3.692
48916W        W19516  13.944  37.862   3.648
48917W        W19517  11.400  34.584   4.045
48918W        W19518   1.656  39.894  13.507
48919W        W19519  11.136   4.499   4.402
48920W        W19520   6.125  24.776  14.854
48921W        W19521  30.109  36.070   2.677
48922W        W19522  23.051  33.489   2.602
48923W        W19523  12.421  36.373   2.427
48924W        W19524  44.492  27.779  10.680
48925W        W19525   5.666  40.325  10.365
48926W        W19526  40.479  18.573  12.566
48927W        W19527  38.982   6.072   2.977
48928W        W19528  25.068  26.559   3.830
48929W        W19529   4.253  43.052  11.933
48930W        W19530  29.174   4.891   0.272
48931W        W19531  37.439   8.209  11.405
48932W        W19532  40.075  40.926   0.727
48933W        W19533  22.384   2.465  13.018
48934W        W19534  10.994  25.958   2.897
48935W        W19535  31.824   2.344   4.376
48936W        W19536  20.685  12.274   0.957
48937W        W19537  37.005  35.306  11.652
48938W        W19538  38.982  22.392   3.174
48939W        W19539  21.280  28.980  13.831
48940W        W19540  40.015  29.517   2.449
48941W        W19541  28.008   9.187  11.394
48942W        W19542  43.519  19.287   4.049
48943W        W19543  19.256  11.073   4.287
48944W        W19544  19.841   4.428   4.800
48945W        W19545  27.385  16.804   1.795
48946W        W19546  36.865   2.407  11.607
48947W        W19547  43.425  42.824  13.438
48948W        W19548  21.126  10.350   3.402
48949W        W19549  28.072   4.745  11.443
48950W        W19550   0.536  24.236   0.379
48951W        W19551  25.114  31.401   2.265
48952W        W19552  37.401   7.325   1.676
48953W        W19553  12.305  21.647   1.199
48954W        W19554  13.193   9.284   3.620
48955W        W19555   2.893  20.342   2.640
48956W        W19556  27.878  12.183   4.604
48957W        W19557  19.743  40.800  11.513
48958W        W19558  17.803  28.927  11.648
48959W        W19559  22.113   7.683  14.428
48960W        W19560  30.573  18.627  12.081
48961W        W19561  24.553  21.591   3.225
48962W        W19562  26.089  30.224  11.139
48963W        W19563  32.775  31.099  12.952
48964W        W19564  14.660   0.979  10.243
48965W        W19565  10.608  13.832   3.418
48966W        W19566  27.439  14.831   0.883
48967W        W19567  19.579  30.659  11.891
48968W        W19568  11.982  22.402   0.431
48969W        W19569  22.622   6.548  10.541
48970W        W19570  27.160  43.906  13.790
48971W        W19571  11.904  24.935   0.835
48972W        W19572  16.022  38.484   1.280
48973W        W19573  23.304  18.956  13.424
48974W        W19574  17.237  19.536   1.424
48975W        W19575   5.750  27.187   0.843
48976W        W19576  29.044  23.642  10.745
48977W        W19577  39.076  35.977   1.866
48978W        W19578  19.114  27.673  12.036
48979W        W19579  17.699  31.317   4.821
48980W        W19580  35.353  42.545  10.901
48981W        W19581  26.859   4.061  14.955
48982W        W19582  26.701  24.312   2.773
48983W        W19583  27.597   1.406  12.531
48984W        W19584  44.556  12.910  11.063
48985W        W19585  12.074   9.827   4.691
48986W        W19586  17.581   6.386   3.245
48987W        W19587  37.031  38.992   4.381
48988W        W19588  33.164  21.804  14.928
48989W        W19589  40.830  17.575  11.641
48990W        W19590  13.282  26.096  14.856
48991W        W19591  22.377  22.751  11.132
48992W        W19592   6.369   4.384  10.202
48993W        W19593   8.324  16.808  12.144
48994W        W19594  22.289  42.463  14.451
48995W        W19595  11.266  31.101  14.569
48996W        W19596  24.139  30.793  14.461
48997W        W19597   6.482  20.584  12.978
48998W        W19598  20.042  14.713  13.300
48999W        W19599  18.274  21.570  13.963
49000W        W19600   2.093  40.494  11.499
49001W        W19601  31.504  17.176   0.399
49002W        W19602  29.922   5.942  12.907
49003W        W19603  35.004  37.814   4.879
49004W        W19604  17.851  43.451   3.250
49005W        W19605  13.373   3.415   3.551
49006W        W19606   5.030  29.222  11.945
49007W        W19607  30.650  40.327   1.400
49008W        W19608   1.850  35.117  12.541
49009W        W19609   0.736  33.870   3.198
49010W        W19610  18.843  37.878   1.470
49011W        W19611  42.026  17.272   2.119
49012W        W19612   4.249  20.126   1.031
49013W        W19613  17.492  14.848  12.904
49014W        W19614   0.043   8.625   3.748
49015W        W19615  38.911  24.089  13.782
49016W        W19616  28.635  25.118   4.916
49017W        W19617   5.817  29.034  13.034
49018W        W19618  31.116  26.481   4.141
49019W        W19619  11.567  16.148   4.112
49020W        W19620   7.028  34.887  13.486
49021W        W19621  41.541  30.034   3.257
49022W        W19622  41.844   2.778   1.357
49023W        W19623  42.335  33.037  13.370
49024W        W19624   9.844   1.229   4.538
49025W        W19625  40.055   1.820   2.369
49026W        W19626  43.843  36.338   1.877
49027W        W19627   9.946  20.497   2.877
49028W        W19628  24.242  24.658   4.273
49029W        W19629  16.856  29.010   0.934
49030W        W19630  26.655  32.189   0.242
49031W        W19631  10.922  44.154   1.288
49032W        W19632  37.043  35.032   1.691
49033W        W19633  20.658  27.725  10.642
49034W        W19634  14.568   7.442  11.811
49035W        W19635  29.904  38.856   0.401
49036W        W19636  32.553  20.592  13.614
49037W        W19637  20.684  26.422   2.168
49038W        W19638  17.178  18.307   2.780
49039W        W19639  20.721   6.787   2.885
49040W        W19640   0.058  13.084  13.813
49041W        W19641   9.606   7.345  11.707
49042W        W19642  43.712  23.537   3.276
49043W        W19643  28.171  22.300   3.285
49044W        W19644  15.697  38.303   2.277
49045W        W19645   3.169  16.699   4.348
49046W        W19646  13.895  25.465   0.492
49047W        W19647  38.807  14.411   3.258
49048W        W19648  11.140   9.330  10.920
49049W        W19649  25.091  16.272   4.671
49050W        W19650  44.009  40.563   2.090
49051W        W19651  26.787  22.537  14.320
49052W        W19652  28.143  10.341  14.910
49053W        W19653  26.797  29.146   1.157
49054W        W19654  36.605  26.716  12.002
49055W        W19655   1.443  35.915  14.421
49056W        W19656  31.046  28.082   4.284
49057W        W19657  31.364  36.633  10.884
49058W        W19658  32.676  12.981  13.961
49059W        W19659  44.798  23.983  14.700
49060W        W19660  37.012   9.270  13.003
49061W        W19661  16.638  17.945   0.366
49062W        W19662  41.514  41.251  10.666
49063W        W19663  14.832  13.365   2.716
49064W        W19664  40.394   9.662  11.025
49065W        W19665   9.247  40.505  11.997
49066W        W19666  34.651   9.206   0.940
49067W        W19667  40.860  34.593   2.680
49068W        W19668  17.971  10.379   0.727
49069W        W19669   6.376  15.661   2.586
49070W        W19670   3.373   6.404   3.144
49071W        W19671  44.034  40.586   0.194
49072W        W19672   0.443  34.453  13.847
49073W        W19673  36.653  40.117   0.408
49074W        W19674  42.201   9.347   3.451
49075W        W19675  31.450   6.332   1.307
49076W        W19676  13.175  42.020   0.369
49077W        W19677  42.211  33.663  11.073
49078W        W19678  44.249   5.384  12.613
49079W        W19679  20.149  29.564  14.276
49080W        W19680  22.541  42.837  14.849
49081W        W19681  34.607  42.383  12.474
49082W        W19682   0.313   3.853   1.150
49083W        W19683  36.618   2.039   3.588
49084W        W19684  15.735  44.825   3.224
49085W        W19685  40.793  44.872  13.088
49086W        W19686  21.678   2.258  11.963
49087W        W19687  20.932   6.763   4.250
49088W        W19688   8.721  17.232   4.684
49089W        W19689  28.157  43.473   3.857
49090W        W19690  11.742  33.164   2.919
49091W        W19691   6.596  42.481  10.833
49092W        W19692  41.438  37.164  14.073
49093W        W19693   3.788  30.500   4.583
49094W        W19694   6.336   2.444  14.325
49095W        W19695   8.665  33.907   3.401
49096W        W19696  13.839  15.116   2.703
49097W        W19697   6.400  29.182   1.512
49098W        W19698  40.942  31.535   4.157
49099W        W19699  20.431  10.104  11.916
49100W        W19700  28.053  30.161   0.339
49101W        W19701  23.528  29.672   0.874
49102W        W19702   5.839  11.550  13.795
49103W        W19703  28.133  12.774   1.887
49104W        W19704  18.511  42.429   4.717
49105W        W19705  28.364   2.891  12.120
49106W        W19706   0.494  39.863   2.451
49107W        W19707  31.975   8.752   3.176
49108W        W19708  28.185  43.530  11.952
49109W        W19709  44.360  29.623   4.135
49110W        W19710  33.520  17.207   1.467
49111W        W19711  32.551  42.829  13.822
49112W        W19712  10.298  18.221   2.850
49113W        W19713  11.168  12.133   0.795
49114W        W19714  39.568  44.920   2.368
49115W        W19715  43.971  30.387   4.399
49116W        W19716   4.825  12.665  10.681
49117W        W19717  42.524  24.103   4.847
49118W        W19718  36.123  39.817   1.356
49119W        W19719   0.942   8.203   2.073
49120W        W19720  35.271  24.048   4.058
49121W        W19721  30.539  40.852   1.296
49122W        W19722  22.013  12.572   4.399
49123W        W19723  17.732  16.204  11.632
49124W        W19724  16.086  34.430   1.568
49125W        W19725  40.493   7.664  12.084
49126W        W19726  23.518  39.198   0.403
49127W        W19727  43.802  41.870   1.828
49128W        W19728  24.966  36.897   0.656
49129W        W19729   0.692   6.969  13.454
49130W        W19730   5.894  25.213  10.762
49131W        W19731   4.191  34.475   2.145
49132W        W19732  43.937  16.234  13.917
49133W        W19733  35.867  29.274  13.997
49134W        W19734  23.652  20.780  10.719
49135W        W19735   9.611  36.570  14.872
49136W        W19736  44.511   7.424   2.002
49137W        W19737  21.321  30.973  12.563
49138W        W19738  18.655  24.304  12.681
49139W        W19739  17.229  25.978  12.433
49140W        W19740  28.147  39.914   5.001
49141W        W19741  39.948  44.885  10.672
49142W        W19742  11.658   5.851  13.971
49143W        W19743  28.852  10.690  14.558
49144W        W19744   9.223  28.243  13.220
49145W        W19745  14.199  12.081   3.669
49146W        W19746  33.478  32.527   1.279
49147W        W19747  26.786  14.846  14.454
49148W        W19748  36.643  40.864  14.770
49149W        W19749  28.850  19.719   2.221
49150W        W19750  23.983  26.540  10.677
49151W        W19751  37.569  15.751  13.376
49152W        W19752  28.204  28.079  14.766
49153W        W19753  44.075  30.005  14.359
49154W        W19754  29.900  35.026  11.290
49155W        W19755  11.572  37.972  13.119
49156W        W19756  14.858  14.370   0.155
49157W        W19757  13.548  23.770  12.570
49158W        W19758   2.207  15.795  14.356
49159W        W19759   7.212  18.718   3.655
49160W        W19760  39.287  29.961  13.929
49161W        W19761  25.002  34.465  11.183
49162W        W19762  21.524  24.504  13.991
49163W        W19763  23.034  19.123   4.065
49164W        W19764  19.529  15.645   0.166
49165W        W19765  17.726  41.477  11.601
49166W        W19766   8.732   4.978  12.991
49167W        W19767  40.032   8.729  11.962
49168W        W19768  31.525  35.533   1.485
49169W        W19769  40.351  18.051  13.428
49170W        W19770  29.096   2.286  14.923
49171W        W19771  16.160  10.191  14.073
49172W        W19772  17.564  39.055   0.848
49173W        W19773  28.221  24.057   4.440
49174W        W19774   2.534  35.369  13.886
49175W        W19775  32.284  10.651   0.382
49176W        W19776   8.271   6.027  11.430
49177W        W19777  33.902  38.511   3.652
49178W        W19778  22.126  32.584   2.101
49179W        W19779  18.769  27.617  14.983
49180W        W19780  22.979  19.778  13.491
49181W        W19781  20.213  27.976  10.644
49182W        W19782  34.047  10.451   4.662
49183W        W19783  44.122  41.792   4.876
49184W        W19784  31.834  33.083  14.754
49185W        W19785  18.535  33.378  12.550
49186W        W19786  42.745  38.983  13.048
49187W        W19787  14.567  24.928   0.303
49188W        W19788  11.719  11.426  13.891
49189W        W19789  32.480  32.340   0.815
49190W        W19790  22.556  18.982   0.521
49191W        W19791  33.070  18.804  12.517
49192W        W19792  38.917  13.225  12.426
49193W        W19793  22.114  30.788  11.521
49194W        W19794   1.495  23.712  11.941
49195W        W19795  30.940  16.131  13.216
49196W        W19796  18.669  39.974  13.390
49197W        W19797  39.093  12.633   0.754
49198W        W19798  23.366   3.190  13.062
49199W        W19799  14.079  11.156   2.845
49200W        W19800  15.306   8.940  11.976
49201W        W19801  14.798  26.124  12.674
49202W        W19802  31.927   1.708   2.878
49203W        W19803  42.239  22.700  10.731
49204W        W19804  27.456   4.711  14.038
49205W        W19805  17.731  30.522  12.477
49206W        W19806  44.235  15.445  11.211
49207W        W19807  23.086  42.970  14.553
49208W        W19808  25.563   8.955  14.714
49209W        W19809  35.749  10.351   3.226
49210W        W19810   7.381   3.492  14.285
49211W        W19811   6.666  30.105  10.926
49212W        W19812  25.467  24.174  12.543
49213W        W19813  24.027  43.192  11.130
49214W        W19814  17.473  22.323  14.507
49215W        W19815  38.493  29.155  13.100
49216W        W19816  30.387  24.702  11.890
49217W        W19817  24.472  29.087  11.494
49218W        W19818  29.022  34.565   4.576
49219W        W19819   4.717   4.310   3.283
49220W        W19820  15.986  36.815  14.313
49221W        W19821   3.190  32.432  12.144
49222W        W19822  22.180  12.087   3.155
49223W        W19823  14.818   1.853  11.185
49224W        W19824  27.187  26.808   1.916
49225W        W19825  19.360  41.086   4.224
49226W        W19826  44.678  42.360   3.666
49227W        W19827  19.183   7.755   1.774
49228W        W19828  12.770   6.841   4.791
49229W        W19829  14.113  15.365   4.939
49230W        W19830   4.535  22.411   0.889
49231W        W19831  13.226  44.664  10.721
49232W        W19832  42.846  32.362  14.813
49233W        W19833   6.813  40.514  10.667
49234W        W19834  12.850   0.833   2.899
49235W        W19835  41.817  26.237   1.976
49236W        W19836  35.960  19.924   1.214
49237W        W19837  24.120  42.042   3.273
49238W        W19838  13.938  28.030  14.058
49239W        W19839  39.577  11.013  11.262
49240W        W19840   3.361  22.732  10.664
49241W        W19841   1.394  32.544  14.310
49242W        W19842  28.428  11.772  11.606
49243W        W19843  41.779  11.735   4.110
49244W        W19844  35.217  19.531  14.446
49245W        W19845  41.339  40.843  12.500
49246W        W19846  33.692   9.756  14.741
49247W        W19847   6.368  44.528   2.782
49248W        W19848  13.295   1.270   1.995
49249W        W19849  13.849  40.862  14.724
49250W        W19850  15.572  22.509  11.992
49251W        W19851  24.259   4.832   3.608
49252W        W19852  14.535  41.377  11.432
49253W        W19853   9.773  40.583   0.861
49254W        W19854  25.996  41.048   4.526
49255W        W19855  44.748  10.144  12.078
49256W        W19856  10.681  21.148  13.719
49257W        W19857  18.182  37.485   2.679
49258W        W19858  44.006  34.959   4.334
49259W        W19859  10.443  36.343  13.280
49260W        W19860  38.085  36.434   3.484
49261W        W19861  41.984  38.656  12.482
49262W        W19862   4.910  42.369  12.501
49263W        W19863  20.026  36.828  14.182
49264W        W19864  18.734  23.685  14.809
49265W        W19865  42.897   1.733   3.195
49266W        W19866  12.369  31.807  14.401
49267W        W19867  34.509  23.348   2.246
49268W        W19868  10.664   1.424   3.647
49269W        W19869  25.503  25.528   0.003
49270W        W19870  10.464  11.123  12.466
49271W        W19871  35.591  12.214  11.027
49272W        W19872  23.674  40.147   3.246
49273W        W19873  19.806  39.040   1.277
49274W        W19874  36.499  32.873  14.858
49275W        W19875  23.192   0.904  14.267
49276W        W19876   8.741  30.748   5.091
49277W        W19877   7.116  26.667  10.782
49278W        W19878  26.934  15.097  11.609
49279W        W19879  30.485  24.211  11.713
49280W        W19880   2.181  39.442  12.743
49281W        W19881   8.969  24.069   0.935
49282W        W19882  43.817  24.381  11.612
49283W        W19883  25.201  36.025   0.590
49284W        W19884   7.903  10.688   1.319
49285W        W19885  20.815   8.059  13.424
49286W        W19886   3.546  17.000   1.814
49287W        W19887   4.418  31.707  11.068
49288W        W19888  42.408   6.903  11.570
49289W        W19889   5.874  24.603  13.907
49290W        W19890  29.011  33.926  12.706
49291W        W19891  21.287  40.138   0.841
49292W        W19892  28.413   5.662  12.034
49293W        W19893  36.589  23.022   2.331
49294W        W19894  27.657   0.510  12.479
49295W        W19895   5.972  41.812  13.196
49296W        W19896  31.640  23.543  14.333
49297W        W19897   5.335  44.975   1.549
49298W        W19898  44.491   5.937   0.891
49299W        W19899  33.956  30.341   4.556
49300W        W19900  15.333  13.856   1.288
49301W        W19901  21.731  39.916   1.905
49302W        W19902  18.983  11.171   1.808
49303W        W19903  30.088  29.886   2.991
49304W        W19904  13.935  19.353   0.003
49305W        W19905  19.374  44.890  14.925
49306W        W19906  21.520   9.454   1.769
49307W        W19907   1.505   8.647   2.471
49308W        W19908  20.463  40.451   2.371
49309W        W19909  13.310  19.623  13.089
49310W        W19910  24.071  28.070  11.025
49311W        W19911  17.583  26.520  14.578
49312W        W19912   9.797  34.475  12.591
49313W        W19913  34.786  36.399   4.619
49314W        W19914   8.903  18.450   3.597
49315W        W19915  32.379  32.187  13.647
49316W        W19916  20.661  22.332  14.001
49317W        W19917  27.240  38.665  14.983
49318W        W19918  33.477  33.405   0.095
49319W        W19919   5.405  15.615   2.331
49320W        W19920  26.191  14.826  11.436
49321W        W19921  34.935   3.021  10.346
49322W        W19922  23.968  15.353  10.686
49323W        W19923  15.213  30.822  14.383
49324W        W19924  44.528   9.316   1.909
49325W        W19925  37.084  14.007   0.134
49326W        W19926  39.378  36.783  12.576
49327W        W19927  23.164  11.392   1.657
49328W        W19928   6.705  36.158  10.833
49329W        W19929  15.174  37.885   0.241
49330W        W19930  34.143  34.020   2.755
49331W        W19931  43.019  33.879   4.038
49332W        W19932   2.314  39.389   2.100
49333W        W19933   1.737   1.781  14.781
49334W        W19934  25.719  11.142  10.591
49335W        W19935  14.119  12.848   1.172
49336W        W19936  40.933  28.773  12.400
49337W        W19937  42.321  31.653  12.037
49338W        W19938   9.135   0.325  14.478
49339W        W19939   0.905  40.358   4.942
49340W        W19940  15.530   4.153   4.923
49341W        W19941   6.753   8.421  12.584
49342W        W19942  32.165  33.713  11.412
49343W        W19943   3.851  24.736   3.288
49344W        W19944  34.984  13.102  13.969
49345W        W19945  19.101  37.469  12.454
49346W        W19946  13.139   1.081  11.113
49347W        W19947  20.322  23.743   1.231
49348W        W19948  37.312  26.730   1.299
49349W        W19949  16.735   7.176  10.689
49350W        W19950  15.384  17.360   1.240
49351W        W19951   4.762  26.005   3.624
49352W        W19952  33.853  29.919  11.539
49353W        W19953   8.693  32.623  11.986
49354W        W19954   7.014   6.950  14.297
49355W        W19955   6.250   2.762   2.052
49356W        W19956   9.243  16.166   0.656
49357W        W19957  35.584  16.166  11.237
49358W        W19958   4.174   8.661   3.374
49359W        W19959  12.749  34.147  11.126
49360W        W19960  30.691  11.674   1.947
49361W        W19961   9.299  33.041  11.468
49362W        W19962  29.390  37.292  14.344
49363W        W19963  24.713  30.988  14.074
49364W        W19964  19.453  14.635  14.824
49365W        W19965  33.760  23.226   4.561
49366W        W19966   3.320   3.496   4.196
49367W        W19967  35.832  24.389  12.418
49368W        W19968  44.497  22.065  11.004
49369W        W19969  21.619  18.637   0.686
49370W        W19970  33.830  10.144  10.713
49371W        W19971  24.276  16.273  12.601
49372W        W19972  34.556  20.426   3.684
49373W        W19973  36.110  11.039  11.912
49374W        W19974  10.291  25.096   4.944
49375W        W19975  15.830  21.599   0.434
49376W        W19976  34.513  37.526  12.561
49377W        W19977  41.842  42.629   4.231
49378W        W19978  31.911  26.506   3.609
49379W        W19979  28.795   2.795  12.437
49380W        W19980  25.949  10.771   3.303
49381W        W19981  22.715   8.273   3.897
49382W        W19982   1.113  17.747   4.160
49383W        W19983   6.752   1.960   1.920
49384W        W19984  44.030  10.497  12.366
49385W        W19985  33.089  27.428  14.927
49386W        W19986  43.221  28.788   1.292
49387W        W19987   7.074  18.017  11.985
49388W        W19988  35.299   8.330  11.601
49389W        W19989  38.567  40.917  10.977
49390W        W19990  43.868  16.847  14.402
49391W        W19991  32.505   2.869  10.656
49392W        W19992   1.790  35.074   3.624
49393W        W19993  44.442  15.581   2.325
49394W        W19994  38.834  35.997  12.473
49395W        W19995  41.259  26.576  14.487
49396W        W19996  38.624  44.070  13.844
49397W        W19997  29.615  33.122   0.008
49398W        W19998  31.370  28.161  14.068
49399W        W19999  16.251  14.252  14.979
49400W        W20000   7.781   4.248  11.828
49401W        W20001  13.383  11.360  13.835
49402W        W20002  31.065  19.213   1.381
49403W        W20003  23.529   7.839   1.930
49404W        W20004  20.701  14.858   0.798
49405W        W20005  37.980  15.052  13.071
49406W        W20006  37.185   7.690  13.951
49407W        W20007   6.682  42.160  11.710
49408W        W20008  37.481   2.506  14.992
49409W        W20009   0.095  26.021   4.413
49410W        W20010  29.432  37.112  14.834
49411W        W20011   7.327  36.085   1.788
49412W        W20012  44.044  16.652   3.072
49413W        W20013  26.292  18.279  13.018
49414W        W20014  29.946  19.684  10.933
49415W        W20015   5.748  30.841   4.146
49416W        W20016  36.093  30.226  11.140
49417W        W20017  26.015  16.591   3.898
49418W        W20018  44.902   9.688   1.047
49419W        W20019  27.272   9.354  12.575
49420W        W20020  10.643   1.329  12.355
49421W        W20021   5.254  24.616  13.344
49422W        W20022  23.111  11.958  12.159
49423W        W20023  28.976  30.893  12.101
49424W        W20024   1.311  40.959   1.805
49425W        W20025  33.559  24.738  13.295
49426W        W20026  17.853  44.324  14.748
49427W        W20027  43.208  36.372   0.788
49428W        W20028  24.645  34.846   0.291
49429W        W20029  21.238  16.759  14.306
49430W        W20030  40.011  10.667   0.869
49431W        W20031   2.484   2.545  14.094
49432W        W20032  30.611  38.026  10.923
49433W        W20033  27.475  40.417   4.629
49434W        W20034  30.946  18.071   3.681
49435W        W20035  18.814   2.479   3.041
49436W        W20036  39.349   8.676  14.923
49437W        W20037  24.628  22.291  11.305
49438W        W20038   1.561  19.231   0.808
49439W        W20039  29.625  19.313  14.856
49440W        W20040  38.876  23.144   2.716
49441W        W20041  36.619  38.778   1.452
49442W        W20042  13.069  28.613  11.467
49443W        W20043  25.117   4.274   0.044
49444W        W20044  43.834  40.283  11.154
49445W        W20045  28.383   6.243  13.901
49446W        W20046  20.712  18.274   4.571
49447W        W20047  44.298   1.236   2.071
49448W        W20048  11.813  40.762   0.546
49449W        W20049  42.881   3.142  14.046
49450W        W20050  31.799  21.689  11.860
49451W        W20051   8.898  39.020  14.062
49452W        W20052  14.246  22.306   1.390
49453W        W20053  19.805  26.677   2.111
49454W        W20054   2.882  41.291  12.139
49455W        W20055  10.481  21.520   1.498
49456W        W20056   7.366  30.111   2.134
49457W        W20057  24.601   6.816  14.311
49458W        W20058  17.570  38.512  11.155
49459W        W20059  11.518  20.102   4.130
49460W        W20060  37.591  11.162  11.175
49461W        W20061  25.544  14.677   2.317
49462W        W20062  30.119  31.954   3.685
49463W        W20063   5.778   3.342   3.312
49464W        W20064  36.547  28.678   0.964
49465W        W20065  44.803  22.132  13.615
49466W        W20066  23.784  32.802   1.827
49467W        W20067  15.098  21.013  14.187
49468W        W20068  20.294   2.754  14.378
49469W        W20069  12.414  43.445  12.622
49470W        W20070  33.606  11.868  12.589
49471W        W20071  31.102  30.314  10.172
49472W        W20072  11.068  16.793   0.968
49473W        W20073  17.073   6.339   3.264
49474W        W20074  36.855   6.950  10.983
49475W        W20075  25.083  28.607  13.609
49476W        W20076  23.099  14.805   1.047
49477W        W20077  18.578  23.439   3.274
49478W        W20078   3.520  22.217  13.147
49479W        W20079  37.527  14.117   4.073
49480W        W20080   5.814  10.561  12.903
49481W        W20081   6.770  13.562   4.187
49482W        W20082  35.928  39.938   2.855
49483W        W20083  31.441  42.760   4.176
49484W        W20084   9.369  10.884   3.686
49485W        W20085  21.117   7.342   1.826
49486W        W20086  27.135  37.420  10.514
49487W        W20087  15.763  34.619   3.272
49488W        W20088   6.913  41.483  13.920
49489W        W20089  41.797  42.425  12.102
49490W        W20090  41.951  43.265   1.255
49491W        W20091  41.285  17.689  14.805
49492W        W20092  33.105  14.275  12.012
49493W        W20093  19.612  21.955   1.694
49494W        W20094  16.170  25.360   1.880
49495W        W20095  22.203  10.089   3.796
49496W        W20096  21.514   8.795   0.581
49497W        W20097  13.884  39.201  13.009
49498W        W20098  41.183  34.025   0.313
49499W        W20099   7.904  27.525  11.101
49500W        W20100  19.025  20.184  11.891
49501W        W20101  14.306   2.173   4.704
49502W        W20102  35.445   5.492   1.723
49503W        W20103  19.604  34.474   3.736
49504W        W20104  24.606   0.241  12.836
49505W        W20105  16.952  34.961  14.659
49506W        W20106  17.487   0.210  13.994
49507W        W20107  27.716  29.708   3.784
49508W        W20108  29.480   3.741   3.310
49509W        W20109  17.359  33.838   3.074
49510W        W20110   4.416  12.436   2.021
49511W        W20111  40.870   6.396  14.791
49512W        W20112  16.657  42.068  10.958
49513W        W20113   4.240   5.477   2.232
49514W        W20114  41.736  13.589   0.366
49515W        W20115  24.938  14.681   0.794
49516W        W20116  12.190  44.487   2.152
49517W        W20117  23.704   9.441   0.962
49518W        W20118  23.099  39.482  11.130
49519W        W20119   7.241   5.982  13.628
49520W        W20120  11.559  17.708   0.587
49521W        W20121  17.131  28.200   4.594
49522W        W20122  30.574   9.346  10.586
49523W        W20123   4.984   3.918   4.645
49524W        W20124   1.933  30.028  14.443
49525W        W20125   5.358   3.519   0.366
49526W        W20126  10.455  13.416  11.547
49527W        W20127  30.379  29.996   4.730
49528W        W20128  27.459  23.208   3.998
49529W        W20129  28.356  13.634  11.450
49530W        W20130  35.992  18.838  13.468
49531W        W20131   8.712   2.504   3.343
49532W        W20132  13.688   4.835  10.196
49533W        W20133  13.760  15.602   0.800
49534W        W20134  15.197  11.440  13.591
49535W        W20135  11.760  41.843   2.479
49536W        W20136   0.996  12.717  13.453
49537W        W20137   0.952  37.604  10.712
49538W        W20138   9.135  32.529   3.903
49539W        W20139  14.264  29.036  14.257
49540W        W20140  25.094  35.183   4.570
49541W        W20141  22.371  44.830  13.762
49542W        W20142  31.374   7.741  13.837
49543W        W20143  40.108   6.913   2.723
49544W        W20144   3.024  38.330   1.888
49545W        W20145  19.169  34.611  13.098
49546W        W20146  29.054  14.990   2.624
49547W        W20147  35.623  14.806   1.668
49548W        W20148  32.946   1.013   2.618
49549W        W20149  43.492  12.170   4.235
49550W        W20150   6.542   5.179   2.229
49551W        W20151  13.346  30.338  13.867
49552W        W20152   3.485  25.924   5.003
49553W        W20153   5.724  44.198  11.009
49554W        W20154  27.652   2.974   1.318
49555W        W20155  35.904  41.599   2.293
49556W        W20156  12.843  40.777   1.133
49557W        W20157  38.895  31.714   4.232
49558W        W20158   7.723  28.611  14.482
49559W        W20159  28.183  29.482   1.546
49560W        W20160  12.113  25.610   1.051
49561W        W20161  31.053   8.114  13.032
49562W        W20162  17.326  22.507  10.998
49563W        W20163   1.341  28.271  13.896
49564W        W20164  10.031  17.479  13.688
49565W        W20165  38.851   6.635  14.569
49566W        W20166  27.651  22.197  13.455
49567W        W20167  20.429  32.013   4.654
49568W        W20168   2.534  20.503  13.511
49569W        W20169  33.038  12.417  14.329
49570W        W20170  21.481   3.761   3.348
49571W        W20171  44.384  40.038  14.066
49572W        W20172  30.789  19.935   2.707
49573W        W20173  35.956  15.196   2.002
49574W        W20174  23.672  38.253  13.885
49575W        W20175  44.590  34.615   4.539
49576W        W20176   4.865  28.567  14.691
49577W        W20177  23.967  22.538  13.923
49578W        W20178  14.892   0.422   4.341
49579W        W20179  30.929  40.604  12.012
49580W        W20180  36.370  38.586   3.668
49581W        W20181   0.925   9.159   1.318
49582W        W20182  35.438  15.208   1.951
49583W        W20183   7.949  32.885   0.814
49584W        W20184  44.720  38.399   2.410
49585W        W20185  26.224  26.418  14.062
49586W        W20186  24.246  33.422   2.521
49587W        W20187  26.496   5.661  11.416
49588W        W20188  13.989  16.457   4.192
49589W        W20189  40.211  26.455  12.016
49590W        W20190   0.953  44.791   0.542
49591W        W20191  41.832  23.868   2.264
49592W        W20192  16.633  42.484   1.472
49593W        W20193   9.822  26.506   2.871
49594W        W20194  18.653   3.789   2.758
49595W        W20195  12.613   8.731  12.160
49596W        W20196   4.009  29.101  13.527
49597W        W20197  28.057  16.347  12.825
49598W        W20198   9.307  34.371   4.102
49599W        W20199  19.734   6.775   2.901
49600W        W20200  26.947  10.866  11.016
49601W        W20201  43.540  20.807   3.163
49602W        W20202  15.265  27.605   2.665
49603W        W20203  24.628  39.114   0.966
49604W        W20204  22.543  21.071  11.775
49605W        W20205  27.971  17.617   1.939
49606W        W20206   9.233  17.981  12.816
49607W        W20207  27.760  25.028  12.546
49608W        W20208  34.511   2.163  12.133
49609W        W20209   2.223  20.336  11.259
49610W        W20210  40.465   5.869  14.794
49611W        W20211  33.628   0.288   3.369
49612W        W20212   0.438  32.644  13.031
49613W        W20213  29.594  17.828  13.637
49614W        W20214  24.296  26.959   3.605
49615W        W20215  39.397   0.545  13.875
49616W        W20216   3.121  20.063  11.949
49617W        W20217  26.654  20.018  13.375
49618W        W20218  26.528   5.629   4.710
49619W        W20219  37.973  35.343   1.457
49620W        W20220  18.342  11.882   1.707
49621W        W20221  16.642  19.298   2.155
49622W        W20222  13.422  22.696   3.672
49623W        W20223  25.725  33.923  11.320
49624W        W20224  32.122   5.852  12.000
49625W        W20225   9.866  40.126  11.280
49626W        W20226  42.912   5.947   3.298
49627W        W20227   9.574  24.141   2.637
49628W        W20228  28.933  42.797   4.716
49629W        W20229  16.921  17.825  13.387
49630W        W20230  32.361  14.596   0.406
49631W        W20231  30.533  43.285   4.296
49632W        W20232   4.973  33.905  12.750
49633W        W20233  42.283  32.867  12.887
49634W        W20234  33.997  33.330   4.347
49635W        W20235  20.626   1.797  11.208
49636W        W20236  37.378  44.253   4.613
49637W        W20237  19.147   5.106  12.008
49638W        W20238  41.347  30.974  14.784
49639W        W20239   1.623  36.445   3.272
49640W        W20240  32.867  24.710   0.759
49641W        W20241   7.225  42.678   0.324
49642W        W20242  28.505  12.379  13.986
49643W        W20243   1.506  12.430   3.676
49644W        W20244  41.756   1.694   2.725
49645W        W20245  23.226  19.083   0.706
49646W        W20246  18.098  44.679   4.416
49647W        W20247  43.320  33.953  11.900
49648W        W20248  17.544  31.930  10.725
49649W        W20249   7.280  22.418   0.327
49650W        W20250  43.909  21.131   2.253
49651W        W20251   8.267  23.600   4.572
49652W        W20252   6.770  33.834  11.025
49653W        W20253  36.359   7.802   2.374
49654W        W20254  27.477   4.102  12.185
49655W        W20255  28.495  13.704  12.332
49656W        W20256  13.041  34.843   3.090
49657W        W20257   4.504  38.985   3.174
49658W        W20258  35.855  37.027  13.751
49659W        W20259   3.739  24.724   0.243
49660W        W20260  41.389   1.262   2.881
49661W        W20261   4.444  41.787   0.844
49662W        W20262  18.711  21.311  13.858
49663W        W20263  21.007  18.033  12.386
49664W        W20264  24.766   1.004  12.618
49665W        W20265  18.104  10.911   1.373
49666W        W20266  39.826   8.262  14.490
49667W        W20267   3.337   6.807   1.330
49668W        W20268  36.111  30.831   2.300
49669W        W20269   0.642   0.144  13.307
49670W        W20270  41.737  35.140   3.009
49671W        W20271  34.333  15.836   3.807
49672W        W20272  18.279  14.257  10.876
49673W        W20273  23.458   1.929  10.764
49674W        W20274  33.539  25.546  13.820
49675W        W20275  25.561   4.662  12.996
49676W        W20276  25.587  42.438   2.357
49677W        W20277   1.221  17.340   2.839
49678W        W20278  11.095  31.886   1.721
49679W        W20279  43.828  21.554  11.194
49680W        W20280  26.012  39.451   1.681
49681W        W20281   0.867  14.280   1.240
49682W        W20282  20.656  24.669   0.464
49683W        W20283  36.628   4.477  11.630
49684W        W20284  44.991  17.256  11.081
49685W        W20285  20.310  43.455   0.398
49686W        W20286  26.461  12.366  14.944
49687W        W20287  38.482  40.330   1.130
49688W        W20288  15.597  12.647   1.695
49689W        W20289   4.244  10.234   4.273
49690W        W20290  12.864  30.603  12.616
49691W        W20291   2.487  42.584   1.254
49692W        W20292  35.210  10.911  10.571
49693W        W20293   2.732  21.594   3.207
49694W        W20294  28.453  33.196  14.338
49695W        W20295  44.250  28.551  14.906
49696W        W20296  29.618  21.256  11.895
49697W        W20297   4.678  30.070  10.481
49698W        W20298   4.744  26.614  12.531
49699W        W20299  39.600  44.511  12.991
49700W        W20300  15.570   0.344  11.851
49701W        W20301  40.950  14.545   1.888
49702W        W20302  22.097  23.241   1.623
49703W        W20303  43.045  12.851   2.902
49704W        W20304  19.750   9.351   1.253
49705W        W20305   1.520   9.875   3.043
49706W        W20306   1.323  22.015   1.769
49707W        W20307  11.146  40.395  13.874
49708W        W20308  35.155  15.714  11.121
49709W        W20309  40.133  10.043  11.815
49710W        W20310  34.684  24.023   0.752
49711W        W20311  26.227  40.892  10.547
49712W        W20312  32.669  40.582   1.912
49713W        W20313  15.326  18.721   3.791
49714W        W20314  40.786  30.544   1.647
49715W        W20315  29.624  29.105   4.332
49716W        W20316  35.472  28.625  14.899
49717W        W20317   5.392  16.337   1.780
49718W        W20318  27.480  34.161  11.618
49719W        W20319  14.240  37.886   2.159
49720W        W20320  20.572  32.460   3.231
49721W        W20321   1.301   7.484  14.903
49722W        W20322   5.170  37.463  14.206
49723W        W20323  37.152   2.287  13.578
49724W        W20324  22.221  16.603   3.141
49725W        W20325  25.999  15.858   4.655
49726W        W20326  23.813   3.550  14.898
49727W        W20327  21.656   0.502   2.152
49728W        W20328  35.740  39.315   3.849
49729W        W20329   2.890  14.218   4.322
49730W        W20330  18.671  34.283  10.881
49731W        W20331  30.959  16.762  10.750
49732W        W20332  13.682  31.378  12.079
49733W        W20333  42.917  43.351  10.894
49734W        W20334  43.892  19.611  10.463
49735W        W20335   7.400   0.830  11.572
49736W        W20336  17.082  15.391   5.030
49737W        W20337  40.902  31.415  10.908
49738W        W20338   4.779   7.925   0.246
49739W        W20339   4.794   7.099   0.696
49740W        W20340   4.480  32.497   1.928
49741W        W20341  21.950  31.562  14.502
49742W        W20342   1.581  39.788  14.476
49743W        W20343  37.072  24.725  11.648
49744W        W20344  25.391  10.316  11.707
49745W        W20345   7.736  12.145  14.332
49746W        W20346  24.666   1.526  14.348
49747W        W20347  33.340  28.777   9.843
49748W        W20348  32.877   1.372   1.199
49749W        W20349  25.682   3.754  14.071
49750W        W20350  37.885  13.677  13.729
49751W        W20351  10.463  22.636  13.655
49752W        W20352   9.240   9.139  14.118
49753W        W20353  15.498  38.869  10.271
49754W        W20354  21.809  10.794   0.554
49755W        W20355  38.813  15.626   4.887
49756W        W20356  31.701  38.176   3.165
49757W        W20357  31.681   2.749  14.622
49758W        W20358  24.690  44.818   2.206
49759W        W20359  10.141   7.358   4.525
49760W        W20360   6.185  28.411   4.619
49761W        W20361   4.794  42.983   1.177
49762W        W20362  15.185  29.350  11.051
49763W        W20363  35.325  19.001  13.304
49764W        W20364  37.446  10.418   3.662
49765W        W20365  44.535  13.317   0.740
49766W        W20366  38.030  18.901   3.071
49767W        W20367   9.008   9.805   4.538
49768W        W20368  32.572  40.850  11.385
49769W        W20369  41.684  30.896   0.713
49770W        W20370   2.628  36.926   3.798
49771W        W20371   9.985  11.932   2.744
49772W        W20372  18.607  10.647   4.831
49773W        W20373  37.904   1.289  11.094
49774W        W20374  44.956  11.590  12.974
49775W        W20375  28.276   8.664  14.336
49776W        W20376   0.669   7.173  12.157
49777W        W20377  20.898  27.640  11.076
49778W        W20378  21.227   4.412   3.216
49779W        W20379  22.565  37.788   3.915
49780W        W20380  38.752   6.221   3.922
49781W        W20381  24.560  37.809   3.901
49782W        W20382  41.063  33.494   0.813
49783W        W20383   7.340  43.400  13.444
49784W        W20384  22.683  12.319   3.799
49785W        W20385  32.417  33.445   2.838
49786W        W20386  42.247  40.970   1.883
49787W        W20387  32.191  12.281  11.921
49788W        W20388  21.500  38.103  14.883
49789W        W20389  16.759  44.524  13.215
49790W        W20390   1.759  30.056   3.886
49791W        W20391   8.830   7.960   4.612
49792W        W20392  33.279   3.027  13.395
49793W        W20393  31.923  23.029   1.312
49794W        W20394  29.006  33.259   4.172
49795W        W20395  40.228  44.717  14.998
49796W        W20396  30.370  10.792   0.517
49797W        W20397  16.892   7.996   5.028
49798W        W20398  31.186   4.643   4.154
49799W        W20399  19.593   2.831   0.231
49800W        W20400  36.094  19.651  11.035
49801W        W20401   2.436   2.840  12.295
49802W        W20402   0.456  10.265  12.862
49803W        W20403  35.180   9.950  14.990
49804W        W20404  13.624  10.598  13.373
49805W        W20405  28.174  19.821   4.313
49806W        W20406  40.014  27.548   2.386
49807W        W20407  14.095  10.444  12.616
49808W        W20408  25.582  37.584  10.177
49809W        W20409   4.147  40.006   3.872
49810W        W20410  17.790  37.953   0.046
49811W        W20411  18.055  29.997   2.831
49812W        W20412  23.760  14.059   0.398
49813W        W20413   3.084  28.092   4.038
49814W        W20414  32.665   3.264   3.241
49815W        W20415   3.648  40.882   2.326
49816W        W20416  25.534  15.336  14.798
49817W        W20417   6.886  36.342   1.900
49818W        W20418   9.236   2.215  14.219
49819W        W20419  23.768   5.712   3.508
49820W        W20420  14.349   8.175  11.259
49821W        W20421   1.914  14.790  10.747
49822W        W20422  22.450  41.492  12.378
49823W        W20423  20.623  30.035   3.618
49824W        W20424  35.943  11.066   1.373
49825W        W20425   1.746  16.152   0.331
49826W        W20426  27.746  44.846  10.831
49827W        W20427  15.896  32.002  14.306
49828W        W20428  31.863   9.246  12.583
49829W        W20429   6.711  24.987  11.168
49830W        W20430  26.082  34.515  14.889
49831W        W20431   4.879  21.260  11.075
49832W        W20432  37.480   8.776   1.479
49833W        W20433  39.019  31.357  12.139
49834W        W20434  34.839  22.492   3.794
49835W        W20435   2.307  20.716  12.200
49836W        W20436  23.296  39.767  10.602
49837W        W20437  30.541  40.246  12.604
49838W        W20438  10.277  18.660  14.357
49839W        W20439  20.347   4.732   2.774
49840W        W20440  11.599  24.340   3.409
49841W        W20441  15.733  11.204   4.648
49842W        W20442  41.917  25.215   3.374
49843W        W20443   4.722   2.314  10.626
49844W        W20444   9.200  32.925  10.969
49845W        W20445  35.827  31.442   2.292
49846W        W20446  37.484  40.093   2.469
49847W        W20447  16.968  40.582  14.379
49848W        W20448  31.844  12.108  13.289
49849W        W20449  43.511  40.766   2.328
49850W        W20450  26.274  36.330  13.525
49851W        W20451   7.933  29.698  10.243
49852W        W20452   3.738  29.348   1.311
49853W        W20453  34.607  30.674  12.883
49854W        W20454  10.568   2.006  13.571
49855W        W20455   5.818  23.114  10.832
49856W        W20456  39.835  13.631   4.611
49857W        W20457  15.666  21.296  11.421
49858W        W20458  31.417  38.893  11.974
49859W        W20459  34.324  36.992  12.439
49860W        W20460   9.268   6.127   2.376
49861W        W20461  44.763  17.109  11.543
49862W        W20462   1.966   0.998  12.150
49863W        W20463   3.120  35.112  10.846
49864W        W20464  12.387  15.179   3.255
49865W        W20465  15.056   3.190  11.160
49866W        W20466  14.619  25.575   2.766
49867W        W20467  20.004   7.959   4.177
49868W        W20468  35.959   6.827   0.838
49869W        W20469  10.223  10.097  14.314
49870W        W20470  15.806  39.773  14.543
49871W        W20471   3.867  21.118  13.260
49872W        W20472   4.274  17.769   0.818
49873W        W20473   7.632  23.142   0.730
49874W        W20474  21.108  21.805  14.331
49875W        W20475   7.474  22.085   1.680
49876W        W20476  34.380  37.609   1.422
49877W        W20477  38.438  18.609   4.225
49878W        W20478  28.065   3.302  10.277
49879W        W20479  30.901  42.482   4.565
49880W        W20480  27.925  11.331  12.162
49881W        W20481  15.996  27.127  13.006
49882W        W20482  11.705  10.961  14.114
49883W        W20483   0.739   7.267   5.398
49884W        W20484  39.717   2.217  11.226
49885W        W20485   2.788   7.291  10.677
49886W        W20486  40.959  28.644  11.605
49887W        W20487  33.040  26.256   4.342
49888W        W20488  19.366  35.135  10.865
49889W        W20489   7.215  23.493  11.732
49890W        W20490  34.038   5.430  11.493
49891W        W20491   8.453  12.380  11.992
49892W        W20492  44.534  17.363   4.617
49893W        W20493  27.085  29.906   2.850
49894W        W20494  38.105  31.859   2.785
49895W        W20495  11.008  19.604  14.411
49896W        W20496  42.408   3.911  12.949
49897W        W20497  43.453  42.542   0.258
49898W        W20498  37.004  44.304  10.704
49899W        W20499   5.334  24.505   1.738
49900W        W20500   6.309  41.958  14.423
49901W        W20501  18.487  12.793  12.083
49902W        W20502  39.303   1.042   3.261
49903W        W20503   2.202  26.728  14.631
49904W        W20504  27.344  14.604  10.592
49905W        W20505  21.668  35.277   4.674
49906W        W20506  16.380  34.398   4.024
49907W        W20507  10.300   1.422   1.225
49908W        W20508  39.961  39.256   1.996
49909W        W20509   9.817  29.241   2.443
49910W        W20510  25.554  17.814   0.012
49911W        W20511  25.440  31.592  11.965
49912W        W20512  34.037  43.002  11.978
49913W        W20513   2.485  10.436  14.863
49914W        W20514  25.183  10.061   3.782
49915W        W20515  35.086  20.960  13.096
49916W        W20516  44.366  27.353  14.481
49917W        W20517  35.174  16.116   4.638
49918W        W20518  39.583  26.019  12.617
49919W        W20519  34.609  38.249  11.450
49920W        W20520  33.506  30.210  14.105
49921W        W20521  31.038   1.993   2.410
49922W        W20522  34.091  36.631  11.623
49923W        W20523  16.770  23.970   1.974
49924W        W20524  34.123  21.610  13.378
49925W        W20525  21.004  29.711  13.355
49926W        W20526  12.657  26.471  13.979
49927W        W20527  41.849  33.829   3.405
49928W        W20528  13.074  17.630  14.391
49929W        W20529   1.782  39.897  11.006
49930W        W20530  23.654  40.565   3.560
49931W        W20531   3.464   0.440  12.475
49932W        W20532  34.998   3.301  11.226
49933W        W20533  28.118  10.695   4.115
49934W        W20534  33.941   5.067  14.425
49935W        W20535  41.403  30.897   1.708
49936W        W20536  16.090  14.404   3.286
49937W        W20537  44.928   9.723  13.449
49938W        W20538  15.342  12.862  14.517
49939W        W20539   2.217  29.455  13.321
49940W        W20540   5.701  34.047   2.860
49941W        W20541  12.987  42.063   3.250
49942W        W20542  34.560   8.291   0.489
49943W        W20543  35.576  32.839  13.939
49944W        W20544  42.319  15.833  13.954
49945W        W20545  14.868  35.494   3.207
49946W        W20546   7.861  18.363   1.068
49947W        W20547   9.898  44.956   2.798
49948W        W20548  13.211  15.805   4.739
49949W        W20549  24.978   9.378  13.037
49950W        W20550   6.910  29.685  14.808
49951W        W20551  26.112  29.924  14.060
49952W        W20552  23.447  30.440   0.822
49953W        W20553  32.818   6.661  12.645
49954W        W20554  20.151  37.684  12.417
49955W        W20555  16.215  12.683  12.001
49956W        W20556  21.516  40.457   2.653
49957W        W20557  35.760  30.482   2.647
49958W        W20558  20.423   1.463   0.918
49959W        W20559  41.813   6.495   5.078
49960W        W20560  43.941  20.716  13.049
49961W        W20561   6.595  21.070  12.914
49962W        W20562  32.645   3.934  13.408
49963W        W20563   6.269  36.606  14.906
49964W        W20564  44.775  24.221  13.233
49965W        W20565   5.396  39.749  14.835
49966W        W20566  23.264  40.428   3.269
49967W        W20567  40.878  39.035   3.213
49968W        W20568  29.042  23.720   0.559
49969W        W20569  18.179  40.532   1.736
49970W        W20570  16.877   5.329   4.990
49971W        W20571  15.137  14.867   1.344
49972W        W20572  34.953  41.768   3.316
49973W        W20573  38.018  26.119   2.372
49974W        W20574  37.670  31.017   1.433
49975W        W20575  36.519  20.005   3.354
49976W        W20576  21.639  22.010   2.241
49977W        W20577  18.655  28.433  12.571
49978W        W20578   1.257  30.071   4.054
49979W        W20579  38.614  19.962   2.154
49980W        W20580  42.516   4.940  13.880
49981W        W20581  36.512  23.442   4.706
49982W        W20582  23.944  25.599  10.596
49983W        W20583  16.498  15.196   1.162
49984W        W20584  33.817  42.975   3.641
49985W        W20585  14.104  13.268   1.517
49986W        W20586  33.671  20.934   2.821
49987W        W20587  40.000  22.856   2.469
49988W        W20588   0.861  17.206   2.313
49989W        W20589   0.438   9.734  13.773
49990W        W20590  25.129  13.307  11.181
49991W        W20591   7.650   1.986   0.940
49992W        W20592  27.532  36.330  13.344
49993W        W20593  35.403   1.730  10.653
49994W        W20594   4.437  20.004   1.872
49995W        W20595  26.154  40.723   2.391
49996W        W20596   3.759  16.695   0.066
49997W        W20597  17.542  43.795   2.764
49998W        W20598   3.602  37.043   0.685
49999W        W20599  40.868  35.542   4.609
50000W        W20600  23.321  13.914   1.713
50001W        W20601  41.965  27.990   3.065
50002W        W20602  44.962   4.834   2.786
50003W        W20603  43.697  17.290   4.315
50004W        W20604   4.349  25.192  11.031
50005W        W20605  30.254  11.846   1.715
50006W        W20606  36.930   3.182  13.794
50007W        W20607  35.484  44.598   4.665
50008W        W20608  28.700  15.798  14.386
50009W        W20609  43.617   8.383   1.403
50010W        W20610   0.601   2.865   0.081
50011W        W20611  27.080   5.302  12.572
50012W        W20612  42.682   1.797  14.864
50013W        W20613  23.123  24.968  11.587
50014W        W20614  26.092  24.513  14.031
50015W        W20615  35.645  30.424   0.251
50016W        W20616  35.682  44.205  12.562
50017W        W20617  39.446   8.391   2.856
50018W        W20618   5.256   3.287   5.309
50019W        W20619  41.543  22.158   4.259
50020W        W20620  23.165  10.213  11.611
50021W        W20621  32.978  34.047   0.547
50022W        W20622  25.676  43.826   9.846
50023W        W20623   2.789  19.572  14.529
50024W        W20624  37.010   5.247   4.095
50025W        W20625  15.364  24.011   1.883
50026W        W20626   4.910  10.260  13.277
50027W        W20627  19.657   9.747   4.617
50028W        W20628   4.475  34.629   0.447
50029W        W20629  43.575  23.898   0.676
50030W        W20630  36.842  34.956  14.357
50031W        W20631   0.342   6.614  13.610
50032W        W20632  16.314  21.672   2.473
50033W        W20633  41.617  28.204   0.721
50034W        W20634  35.823  40.487   4.112
50035W        W20635   6.038   7.787  11.049
50036W        W20636  25.692   5.314   2.965
50037W        W20637  40.827  26.085   1.282
50038W        W20638  15.105  38.766  13.556
50039W        W20639   9.928  25.276   4.599
50040W        W20640   8.321  28.741   0.317
50041W        W20641  25.511  18.452  11.346
50042W        W20642   8.470  20.735  10.637
50043W        W20643   0.728  14.731  12.182
50044W        W20644   8.818   2.960  14.122
50045W        W20645  38.085  27.640   1.328
50046W        W20646  41.055  21.672   4.622
50047W        W20647  44.306  13.842  14.917
50048W        W20648   6.273  11.767  10.163
50049W        W20649  36.632   9.368   3.590
50050W        W20650  14.846  21.122   4.154
50051W        W20651  17.899  28.737  13.968
50052W        W20652  12.817  43.974   1.448
50053W        W20653   9.147  39.522   3.882
50054W        W20654  33.837  21.190  14.273
50055W        W20655  13.093  33.961   2.312
50056W        W20656  19.676  34.545   0.364
50057W        W20657  17.336  17.223   0.343
50058W        W20658  29.482   3.639   1.401
50059W        W20659  42.903  21.677  14.845
50060W        W20660  35.051  26.465  10.403
50061W        W20661   3.065  11.319   3.684
50062W        W20662  39.143  28.664   4.210
50063W        W20663  24.733  18.729   2.977
50064W        W20664  40.377  16.214   1.804
50065W        W20665  17.477   9.356  14.015
50066W        W20666  14.312   3.969   0.996
50067W        W20667  10.931  39.582  11.141
50068W        W20668  42.524  29.826   3.456
50069W        W20669  42.740  24.694   3.284
50070W        W20670  41.466  35.793  11.888
50071W        W20671   5.844  40.028  14.719
50072W        W20672   6.472  11.201  12.389
50073W        W20673  30.896   3.074   4.933
50074W        W20674  10.876  36.327   1.829
50075W        W20675   8.171  35.116  14.883
50076W        W20676  21.222   5.867  11.889
50077W        W20677  28.150   3.780  14.885
50078W        W20678  28.184  27.505  11.081
50079W        W20679  30.405  29.714  12.436
50080W        W20680   4.511   5.531   4.705
50081W        W20681  43.694  33.598  11.840
50082W        W20682  10.390   3.145  11.981
50083W        W20683  22.600  34.858  10.356
50084W        W20684   1.761  21.957  12.947
50085W        W20685   6.721  24.013   0.716
50086W        W20686   9.240  22.583  13.885
50087W        W20687   2.705  39.292   1.741
50088W        W20688  14.910  18.378  11.396
50089W        W20689  21.407  15.296  11.536
50090W        W20690   5.290  35.524  12.625
50091W        W20691  19.747   9.658  14.893
50092W        W20692  32.643  13.100   3.366
50093W        W20693  10.601   1.863   3.383
50094W        W20694  14.878  34.947   2.681
50095W        W20695  36.754  34.303  11.572
50096W        W20696  22.732   5.804  13.772
50097W        W20697  32.419  43.415   0.805
50098W        W20698  36.145   1.690  12.882
50099W        W20699  21.519  34.056  14.348
50100W        W20700  31.616  20.156   0.489
50101W        W20701   7.323  19.232  12.647
50102W        W20702  39.483  42.552  13.314
50103W        W20703   5.734  13.604  11.520
50104W        W20704  24.193  16.201  13.631
50105W        W20705   9.792  36.008   4.507
50106W        W20706  35.485  33.847   3.274
50107W        W20707  31.318  11.852   4.519
50108W        W20708  20.225  36.969  11.911
50109W        W20709  36.861  17.726   3.700
50110W        W20710  29.719  32.447   4.591
50111W        W20711   2.339   3.517  14.459
50112W        W20712   8.136   7.822   0.690
50113W        W20713  10.858   5.105   0.536
50114W        W20714   5.286  20.119  13.871
50115W        W20715  20.318  28.579  11.044
50116W        W20716  32.942  28.925  14.956
50117W        W20717  11.526  22.771  14.623
50118W        W20718  18.996  27.060  13.974
50119W        W20719  43.960  16.860   1.191
50120W        W20720   8.923  19.696   4.839
50121W        W20721  40.866  15.574  12.971
50122W        W20722  26.139  25.674   2.292
50123W        W20723  34.787  10.263   5.096
50124W        W20724  36.633  18.692  10.628
50125W        W20725  37.380  20.283  13.808
50126W        W20726   6.955  24.278  12.462
50127W        W20727  41.684  43.085   2.294
50128W        W20728  35.115  24.498  14.876
50129W        W20729  33.621  35.918  13.387
50130W        W20730   7.845  44.187   2.669
50131W        W20731   1.405  34.504   4.798
50132W        W20732   3.173   3.012  13.466
50133W        W20733  44.293  26.963   4.306
50134W        W20734  36.002  19.785   3.198
50135W        W20735  14.069  24.068   3.125
50136W        W20736  26.960  10.260   0.911
50137W        W20737  16.033  26.934   4.980
50138W        W20738  21.505  18.133   2.877
50139W        W20739  24.973  15.676  12.511
50140W        W20740  38.765  41.907   1.856
50141W        W20741  40.436  15.970  14.713
50142W        W20742  20.153   0.317   1.008
50143W        W20743  33.048   8.869  14.080
50144W        W20744  42.332  14.512  13.534
50145W        W20745  35.937  11.306   2.352
50146W        W20746  23.269  35.123   4.438
50147W        W20747  14.555  15.278  13.508
50148W        W20748  36.256  44.508  10.184
50149W        W20749  24.947   9.192  14.364
50150W        W20750  21.993  28.022  11.630
50151W        W20751   9.779   2.406  12.572
50152W        W20752  39.923  20.711   3.563
50153W        W20753   5.428  25.986  14.526
50154W        W20754  14.271  31.158  13.810
50155W        W20755   6.206  33.382  12.853
50156W        W20756  14.583  31.740  14.522
50157W        W20757   4.048  25.250   3.325
50158W        W20758  20.093  14.836   3.601
50159W        W20759  16.032  15.760   0.410
50160W        W20760   5.153   7.893   2.740
50161W        W20761  40.200  34.686   1.720
50162W        W20762  42.781   2.529  14.311
50163W        W20763   2.265  25.154  12.960
50164W        W20764  41.502  13.647  12.843
50165W        W20765  39.702   2.513   1.611
50166W        W20766  18.792   9.774   1.894
50167W        W20767   2.501  37.479   1.232
50168W        W20768   3.737  39.350   1.637
50169W        W20769  25.792  29.504   4.225
50170W        W20770  26.013  37.953  11.083
50171W        W20771  16.170  13.552   1.813
50172W        W20772  20.045  32.027  12.927
50173W        W20773   0.733  11.138   3.090
50174W        W20774  31.971  11.341   0.580
50175W        W20775  14.124  34.002   4.637
50176W        W20776  23.774   2.248   1.948
50177W        W20777  40.380  12.599   3.071
50178W        W20778  30.341  20.355  11.116
50179W        W20779  13.840  40.581   2.727
50180W        W20780   9.778   7.449   2.238
50181W        W20781   4.694  41.261   3.180
50182W        W20782  40.249  22.607   4.036
50183W        W20783   2.447  32.034   1.934
50184W        W20784  25.535  20.548  13.989
50185W        W20785  22.873  40.479  13.032
50186W        W20786  37.002  35.408   0.878
50187W        W20787   6.682   4.685   0.415
50188W        W20788  29.678  25.163  14.373
50189W        W20789  43.003  41.045   4.664
50190W        W20790   0.027  39.932   2.158
50191W        W20791  27.071  17.763   3.502
50192W        W20792  25.663  27.232  14.671
50193W        W20793  32.982  20.842   2.395
50194W        W20794   1.499  26.233  11.597
50195W        W20795   1.429   4.289  11.421
50196W        W20796  23.736  27.029  12.019
50197W        W20797  12.164  10.357   0.825
50198W        W20798   8.663  43.428  10.645
50199W        W20799  32.181   7.115  12.087
50200W        W20800  16.987  15.884   2.161
50201W        W20801  28.214  19.468  14.708
50202W        W20802  37.494  31.162  13.376
50203W        W20803  27.885   5.862  13.021
50204W        W20804  11.727   8.050   0.099
50205W        W20805   4.923  42.006   4.110
50206W        W20806  23.691  20.237   1.770
50207W        W20807   4.294  26.758  12.825
50208W        W20808   8.410   3.217  13.921
50209W        W20809  21.914  27.095   4.266
50210W        W20810  12.717  42.303   3.654
50211W        W20811   2.449  42.440   2.403
50212W        W20812   5.127  11.554  10.372
50213W        W20813  17.629  39.895   1.970
50214W        W20814  37.109   0.959  12.097
50215W        W20815  42.652  14.820  10.414
50216W        W20816  27.381  33.670  11.635
50217W        W20817  17.667   2.748   3.307
50218W        W20818  31.163  37.808   4.835
50219W        W20819   4.422  10.151  14.965
50220W        W20820  22.238  35.966  14.728
50221W        W20821   2.839  18.159  12.762
50222W        W20822   2.031  13.067   4.687
50223W        W20823  21.325  27.579  12.983
50224W        W20824  17.032   3.999  13.359
50225W        W20825  36.431   1.822   1.309
50226W        W20826  27.453  42.939   3.800
50227W        W20827   1.901  26.705   2.786
50228W        W20828  42.912   3.323   1.817
50229W        W20829  44.883  23.152  12.375
50230W        W20830  23.545  43.882  14.443
50231W        W20831   7.289  17.166  13.848
50232W        W20832  40.529  20.274  12.632
50233W        W20833   8.056  23.172   0.457
50234W        W20834  21.023  32.096   0.152
50235W        W20835   6.440   1.237  13.608
50236W        W20836  36.833  35.969   1.258
50237W        W20837  38.918  27.010  12.224
50238W        W20838  41.924  40.111  11.159
50239W        W20839  18.654  22.206   4.766
50240W        W20840  12.593   8.329  12.552
50241W        W20841  20.185  13.289   1.444
50242W        W20842   5.733  12.283   0.902
50243W        W20843   9.955  24.547  14.479
50244W        W20844  39.255   6.962  12.075
50245W        W20845  40.838   3.128  12.061
50246W        W20846  35.587  22.237  14.569
50247W        W20847  41.739  33.999   4.317
50248W        W20848   9.258   8.872  12.394
50249W        W20849   1.891  43.052   2.304
50250W        W20850  34.473   5.733   2.370
50251W        W20851   6.518   2.579  11.160
50252W        W20852  24.495  14.581   2.284
50253W        W20853   1.427   4.945   0.385
50254W        W20854  37.439  39.430  13.814
50255W        W20855   6.349   4.375  14.749
50256W        W20856   6.020  16.225  11.057
50257W        W20857  37.917  17.769  14.992
50258W        W20858  20.179  40.389   4.595
50259W        W20859   2.904   8.930   2.242
50260W        W20860  26.579  41.042   2.330
50261W        W20861  25.847  24.624  11.824
50262W        W20862  11.763  29.479   2.653
50263W        W20863   1.396  42.761   4.832
50264W        W20864  12.520   8.069   3.160
50265W        W20865  11.449  43.621   1.276
50266W        W20866  10.703   0.338   2.669
50267W        W20867  39.970  12.784  11.043
50268W        W20868  21.075  42.893  12.485
50269W        W20869   1.250  19.290   4.648
50270W        W20870  10.305  25.443  14.990
50271W        W20871  16.211  14.346   1.346
50272W        W20872  13.508   5.470   3.311
50273W        W20873   3.519  37.051  11.053
50274W        W20874   3.917  33.178  12.906
50275W        W20875  44.459   7.197   4.155
50276W        W20876   1.394  21.348  14.345
50277W        W20877  24.259  19.810  12.406
50278W        W20878   4.817  39.823  10.765
50279W        W20879  19.086  10.837   4.813
50280W        W20880   7.378  43.507   0.497
50281W        W20881  34.436  17.516  14.680
50282W        W20882   0.431  35.650   2.181
50283W        W20883   8.593  16.841  13.930
50284W        W20884   6.333   2.244   1.803
50285W        W20885  24.164   1.420   4.602
50286W        W20886  15.148  35.815   4.579
50287W        W20887  21.724   7.535   0.139
50288W        W20888  34.653  44.565  11.903
50289W        W20889  12.806  33.626  12.440
50290W        W20890  15.790  40.262   1.892
50291W        W20891  43.514  39.593  12.966
50292W        W20892  10.968  20.189   1.672
50293W        W20893  44.075   9.869  13.340
50294W        W20894  39.319  11.240   4.221
50295W        W20895  19.436  33.980  13.485
50296W        W20896  20.364  19.288   2.335
50297W        W20897  18.110   3.711   2.704
50298W        W20898  15.542  15.717  14.347
50299W        W20899  32.677   8.368   1.231
50300W        W20900  26.085  31.477  13.232
50301W        W20901  23.881   7.513   2.750
50302W        W20902   6.204  18.979  13.239
50303W        W20903   4.771  25.995   4.505
50304W        W20904  39.734  39.238  10.468
50305W        W20905  18.687  41.875   4.056
50306W        W20906  33.830  44.827  10.728
50307W        W20907  19.589  14.667   4.628
50308W        W20908  26.919  13.698   1.252
50309W        W20909  41.015  31.619   3.635
50310W        W20910   5.306  21.587   2.166
50311W        W20911  16.777  25.028   1.009
50312W        W20912  41.451  18.211  14.828
50313W        W20913  42.021   7.733   3.413
50314W        W20914  21.277  30.163  12.116
50315W        W20915   7.677  13.270   2.797
50316W        W20916  24.150  35.828   1.370
50317W        W20917  43.928  36.428   2.752
50318W        W20918  11.819  35.892   4.201
50319W        W20919   5.469  18.342   1.639
50320W        W20920  43.446  21.110   3.576
50321W        W20921   6.283  38.708  13.107
50322W        W20922  13.184  40.012   1.422
50323W        W20923   2.127  34.967  13.016
50324W        W20924  37.582  10.169   1.849
50325W        W20925  16.776  42.459   4.319
50326W        W20926  36.158   6.768  14.388
50327W        W20927   7.386  38.949   1.424
50328W        W20928  33.795  28.617  11.022
50329W        W20929  22.101  19.281  12.890
50330W        W20930  38.525  26.928   0.828
50331W        W20931  21.615  15.065   1.863
50332W        W20932  15.755  24.316  14.381
50333W        W20933  26.406   2.822   4.312
50334W        W20934  38.890  34.459   3.694
50335W        W20935  40.004  27.156  13.052
50336W        W20936  28.734  24.009   0.246
50337W        W20937  38.103  37.430   0.349
50338W        W20938   7.365   8.653  14.948
50339W        W20939  12.571  24.113  14.811
50340W        W20940   5.430   2.696  12.854
50341W        W20941  35.324  43.174   1.784
50342W        W20942  35.876  27.411   4.271
50343W        W20943  35.605  12.105  13.143
50344W        W20944  13.063   9.723   2.071
50345W        W20945  37.313  27.519   0.404
50346W        W20946  19.757  15.087   4.387
50347W        W20947   3.333  37.807   1.189
50348W        W20948  30.453   1.206   4.170
50349W        W20949  40.403  22.675   4.526
50350W        W20950  11.747   2.564   3.594
50351W        W20951   9.344   7.434   0.411
50352W        W20952   1.897  27.167   1.873
50353W        W20953   0.768   1.229  12.532
50354W        W20954  26.743  22.158  12.079
50355W        W20955   4.331  33.397   2.886
50356W        W20956  16.698  10.571   2.541
50357W        W20957  23.265  31.856   0.829
50358W        W20958  30.732  31.833  10.761
50359W        W20959   1.030   0.323   3.389
50360W        W20960  13.297  32.182   1.303
50361W        W20961  36.707  10.375  14.407
50362W        W20962  39.037   7.574   4.107
50363W        W20963  16.962   4.416   0.917
50364W        W20964  31.728  29.787  14.931
50365W        W20965  36.086  37.876  13.390
50366W        W20966   3.361  12.665   0.801
50367W        W20967   2.865  28.260  14.847
50368W        W20968  36.787  29.859   2.316
50369W        W20969  24.379  22.812   2.905
50370W        W20970  29.071  18.615   0.115
50371W        W20971   1.348   6.359   2.838
50372W        W20972  31.079   2.168  11.566
50373W        W20973   6.890  42.503   2.736
50374W        W20974  16.454  34.530  12.391
50375W        W20975   1.757  44.811   0.663
50376W        W20976  36.585  21.533   3.248
50377W        W20977  18.787  26.043  13.140
50378W        W20978  16.137  38.035   2.165
50379W        W20979  44.286  13.155  14.526
50380W        W20980   1.973  36.412  14.020
50381W        W20981  16.117  40.667  10.685
50382W        W20982  39.111   9.867  11.581
50383W        W20983  36.963  40.769  13.853
50384W        W20984  37.277  33.868   3.213
50385W        W20985  12.534  19.724  14.251
50386W        W20986   7.741  26.521   3.326
50387W        W20987  11.675  16.033   0.404
50388W        W20988  12.061  27.084   4.170
50389W        W20989   0.265  29.016  11.915
50390W        W20990  35.153   1.411   4.631
50391W        W20991   6.768  19.884  12.457
50392W        W20992  15.963  24.456  11.888
50393W        W20993  44.983  24.939  13.064
50394W        W20994  27.733  30.621   1.663
50395W        W20995  27.957  15.506  12.510
50396W        W20996  15.627  16.767   0.703
50397W        W20997  42.527  20.094   4.280
50398W        W20998   5.886  35.948   1.838
50399W        W20999  22.703  11.825  14.773
50400W        W21000  44.731  10.658   3.761
50401W        W21001   7.730  15.462   5.046
50402W        W21002   4.844  11.266   0.962
50403W        W21003  19.185   8.144   3.138
50404W        W21004  38.129  19.262  13.777
50405W        W21005   2.697  32.803   3.644
50406W        W21006  14.113  12.780  13.118
50407W        W21007   4.220  39.950   0.443
50408W        W21008  27.538  22.083   4.678
50409W        W21009  36.115   7.232   2.163
50410W        W21010  11.718  43.459   2.906
50411W        W21011  30.019  37.053   4.636
50412W        W21012  31.856  19.328   4.102
50413W        W21013  33.899  13.034   1.601
50414W        W21014   9.668   5.619   0.357
50415W        W21015  35.137   0.154  13.506
50416W        W21016  33.955  16.138  13.897
50417W        W21017  21.631  15.869  10.625
50418W        W21018   8.127  24.378  11.458
50419W        W21019  25.678  41.579  11.079
50420W        W21020  40.005  43.027   4.169
50421W        W21021  26.029  10.206  10.411
50422W        W21022  18.757  13.157   4.393
50423W        W21023   8.549  22.703  12.506
50424W        W21024  23.425  22.722  12.963
50425W        W21025  14.065   0.007   4.099
50426W        W21026  27.059  14.376  13.733
50427W        W21027  37.904  42.925   0.339
50428W        W21028  40.742  36.583  11.638
50429W        W21029  36.002   3.910   2.654
50430W        W21030   1.663  13.228  14.776
50431W        W21031  40.602   4.468  12.450
50432W        W21032  39.799  27.967  12.332
50433W        W21033   3.803  30.918   1.328
50434W        W21034  21.024   2.227  14.292
50435W        W21035  37.599   5.185   0.443
50436W        W21036   2.416  18.564  12.452
50437W        W21037  44.997  24.500   3.790
50438W        W21038  37.989   7.323  12.286
50439W        W21039  15.225  30.773  11.956
50440W        W21040  19.895  19.081   1.434
50441W        W21041   1.441  43.844  13.372
50442W        W21042   5.500  21.725  12.902
50443W        W21043  23.512  27.694  11.188
50444W        W21044  23.596  38.995  11.506
50445W        W21045  41.891  20.221  12.574
50446W        W21046  40.655  33.125   2.205
50447W        W21047  25.232  10.863  14.875
50448W        W21048  16.529  32.342  11.229
50449W        W21049   0.277  18.812  11.533
50450W        W21050  32.303  36.827  12.492
50451W        W21051  11.740  13.612  14.495
50452W        W21052   9.300  16.655   4.134
50453W        W21053   6.822  24.688   4.530
50454W        W21054  17.262   3.172   4.447
50455W        W21055   9.275  40.092   1.306
50456W        W21056  10.817  17.791   1.688
50457W        W21057   2.230   8.373   3.237
50458W        W21058  16.984  16.576   4.417
50459W        W21059  16.656  21.556  11.561
50460W        W21060  42.845   1.556   4.711
50461W        W21061  16.765  35.862  13.687
50462W        W21062  16.620  39.778   1.485
50463W        W21063  12.355   7.116  11.449
50464W        W21064   5.777   6.900   4.137
50465W        W21065  11.493  36.487   1.792
50466W        W21066  10.182  20.000  13.967
50467W        W21067   9.069  18.264   4.056
50468W        W21068   6.253   2.337  10.723
50469W        W21069   6.819   1.742  11.284
50470W        W21070  34.380  33.411   3.995
50471W        W21071  23.249  31.376  12.920
50472W        W21072   6.763   6.218  13.664
50473W        W21073   8.798  22.052   1.472
50474W        W21074   1.456  29.527  10.400
50475W        W21075  39.474  27.276   2.716
50476W        W21076  35.060  26.088  10.757
50477W        W21077  42.024   0.838  13.345
50478W        W21078  31.329  25.989   0.910
50479W        W21079  22.647  14.394  11.380
50480W        W21080  26.621  26.867  12.154
50481W        W21081  23.090   7.916   1.658
50482W        W21082   0.743  38.344   4.145
50483W        W21083  34.510   6.730  13.389
50484W        W21084  44.827  24.832   3.429
50485W        W21085   8.593  44.988  13.453
50486W        W21086  34.869  33.592   4.027
50487W        W21087  27.201  41.898  10.662
50488W        W21088  18.577  39.536   4.756
50489W        W21089  31.481  36.682  12.968
50490W        W21090  33.917  37.094   0.275
50491W        W21091  41.701  39.916   0.386
50492W        W21092  44.024   0.973   3.781
50493W        W21093  15.265  25.979  11.693
50494W        W21094   7.198  28.711   1.394
50495W        W21095  11.989   1.620   3.459
50496W        W21096   0.560  32.059   2.744
50497W        W21097  38.809  18.544  12.526
50498W        W21098   5.824  31.401   2.904
50499W        W21099  27.246  36.032  12.150
50500W        W21100  43.823  43.756  11.069
50501W        W21101  39.878  39.349   2.941
50502W        W21102  42.382  33.684   0.814
50503W        W21103  21.482  17.182  11.800
50504W        W21104  10.596  18.235   1.482
50505W        W21105  26.458  40.763   0.530
50506W        W21106  37.004  28.430  11.972
50507W        W21107  37.284  20.739   0.538
50508W        W21108  19.548  44.874   3.565
50509W        W21109   0.427  35.545   4.558
50510W        W21110  15.803   1.682  13.723
50511W        W21111  17.110  35.052   0.161
50512W        W21112   0.042  15.138  10.764
50513W        W21113   4.035  35.204   5.393
50514W        W21114  31.743  13.609   1.670
50515W        W21115  17.263   7.728   4.614
50516W        W21116  27.631  18.133  12.898
50517W        W21117  13.105  22.206   2.349
50518W        W21118  31.901  15.342   3.762
50519W        W21119  11.179  23.043   1.172
50520W        W21120  39.851  24.131   1.603
50521W        W21121  11.637   5.081   4.070
50522W        W21122   6.546  10.710   1.016
50523W        W21123  35.366  21.494   3.638
50524W        W21124  16.683  44.201   1.448
50525W        W21125   0.025  29.224  13.556
50526W        W21126  31.007   2.892  12.737
50527W        W21127  34.312   4.311  10.642
50528W        W21128  37.126  33.576   3.613
50529W        W21129  35.116  25.765  13.298
50530W        W21130  39.181  15.576   0.927
50531W        W21131  16.370  38.305   3.162
50532W        W21132  35.417  30.447   3.944
50533W        W21133  25.889  27.424   1.780
50534W        W21134  10.710  29.719   0.906
50535W        W21135  22.487  25.949   2.542
50536W        W21136  15.547  15.824   2.783
50537W        W21137  44.440  14.631  13.856
50538W        W21138  20.697  29.163   4.520
50539W        W21139  12.567  24.045  11.226
50540W        W21140  44.309   8.197  14.405
50541W        W21141  27.087  26.062   0.560
50542W        W21142  43.514   3.669  11.527
50543W        W21143   5.824  41.131   1.234
50544W        W21144  30.554  30.386  10.885
50545W        W21145  32.141  12.224   1.659
50546W        W21146  39.574  28.544  14.040
50547W        W21147  35.615  31.034   1.694
50548W        W21148  13.166  10.494  14.379
50549W        W21149   3.461   4.877  13.813
50550W        W21150  15.521  31.022  10.693
50551W        W21151  31.033  13.513  11.509
50552W        W21152  33.103  37.737   4.196
50553W        W21153  13.184   1.505   4.733
50554W        W21154  43.833  20.754  11.582
50555W        W21155   0.736  34.534  11.121
50556W        W21156  28.299  31.629  10.674
50557W        W21157  40.621  31.099   2.279
50558W        W21158  13.417  16.848   0.473
50559W        W21159  34.360  33.458  11.909
50560W        W21160  24.635   2.631   1.812
50561W        W21161  36.430  39.324  11.628
50562W        W21162  32.517   0.497  14.840
50563W        W21163  19.122  23.686  13.025
50564W        W21164  14.270   2.838   2.632
50565W        W21165  21.030  28.230  11.720
50566W        W21166  44.540  33.589  11.611
50567W        W21167  27.059  33.141  12.897
50568W        W21168   3.857  17.031  14.656
50569W        W21169  17.296  25.056  13.988
50570W        W21170  34.516  41.313   1.881
50571W        W21171   6.478  14.877  13.290
50572W        W21172  19.153   1.888   2.320
50573W        W21173  15.357  38.731   4.252
50574W        W21174  44.240  27.087  14.041
50575W        W21175   8.949  41.921   2.077
50576W        W21176  19.275   2.549   0.892
50577W        W21177  37.622  17.320   0.403
50578W        W21178  43.508  34.384  12.221
50579W        W21179  44.021  13.304   0.866
50580W        W21180   4.694  40.716   4.063
50581W        W21181   2.422  33.995   1.392
50582W        W21182  10.710  14.819   1.824
50583W        W21183  17.844  27.787  14.041
50584W        W21184  15.063  16.002   2.837
50585W        W21185  36.885   4.196  14.012
50586W        W21186   1.761  12.462   0.930
50587W        W21187   6.268  23.512   2.849
50588W        W21188  43.163  25.289   5.095
50589W        W21189   1.602  23.333  11.144
50590W        W21190   1.188  10.153  12.036
50591W        W21191  10.663  19.630  14.933
50592W        W21192  38.333  10.771   4.813
50593W        W21193  25.226  41.847  13.067
50594W        W21194  24.397   9.187   0.592
50595W        W21195  29.670  33.765  13.478
50596W        W21196  19.598  19.848  10.898
50597W        W21197  32.149  44.985  13.514
50598W        W21198  24.151  25.622   2.244
50599W        W21199   3.282   7.664  11.725
50600W        W21200  12.091   6.853   4.196
50601W        W21201  11.232  36.087  12.955
50602W        W21202  14.695  19.575  14.445
50603W        W21203   8.373   0.961  10.627
50604W        W21204  37.610  43.848   0.277
50605W        W21205  35.091  21.975  12.207
50606W        W21206  34.021  22.484   0.486
50607W        W21207  38.059  17.604  13.649
50608W        W21208  30.397  37.065   2.774
50609W        W21209  21.473  43.312  13.537
50610W        W21210   8.513  15.310  11.554
50611W        W21211   3.179   8.731  12.968
50612W        W21212   5.771  36.825  11.044
50613W        W21213  22.583  23.798   2.566
50614W        W21214  42.992  28.460  13.931
50615W        W21215  16.608  30.692   3.378
50616W        W21216  10.752  41.506   3.717
50617W        W21217  33.591  32.479  11.097
50618W        W21218   8.724   1.530   0.300
50619W        W21219  37.520  42.550   1.336
50620W        W21220   8.901  43.891  12.920
50621W        W21221  17.963  18.761  10.632
50622W        W21222   1.130  21.506  14.791
50623W        W21223  44.453   1.488   0.677
50624W        W21224  27.475   7.389   3.768
50625W        W21225  14.512  42.917  13.998
50626W        W21226  40.534   6.199   1.694
50627W        W21227   4.866  42.898   3.626
50628W        W21228   0.902  19.177  12.082
50629W        W21229  34.918  35.817  14.568
50630W        W21230  21.764  26.090  10.950
50631W        W21231   6.095  23.146  12.440
50632W        W21232  22.603   8.394  11.557
50633W        W21233  42.937  11.676  10.804
50634W        W21234  41.301  17.064   1.195
50635W        W21235  34.511  21.734   3.214
50636W        W21236  21.594  33.449   2.218
50637W        W21237  43.510  12.399  12.072
50638W        W21238  32.529  41.799   2.086
50639W        W21239  16.521  20.190  14.449
50640W        W21240  37.136  17.831  12.055
50641W        W21241  41.429  14.506  11.591
50642W        W21242   5.307  40.332  13.865
50643W        W21243  16.262  36.082  10.638
50644W        W21244  33.084  28.404   3.811
50645W        W21245  27.920  36.716  14.479
50646W        W21246  31.122   7.220   1.303
50647W        W21247  31.351   2.423  11.903
50648W        W21248  26.355  30.673   4.252
50649W        W21249  13.659  37.376  13.925
50650W        W21250  13.550  33.860   3.330
50651W        W21251   7.975  24.685   3.169
50652W        W21252  39.480  12.576  12.927
50653W        W21253  31.813   7.678   5.042
50654W        W21254  25.644  19.539  14.128
50655W        W21255  20.064   5.429  11.258
50656W        W21256   9.159  17.976   4.463
50657W        W21257  44.716  12.411  14.843
50658W        W21258  43.013  28.519   3.155
50659W        W21259  29.133   0.487  10.837
50660W        W21260  26.862  32.594  13.570
50661W        W21261  36.872  29.524   1.213
50662W        W21262   5.592  32.337  12.033
50663W        W21263  12.044   2.253   5.072
50664W        W21264  32.418  25.185  13.849
50665W        W21265  16.147  14.871   2.380
50666W        W21266  28.890  33.045   0.241
50667W        W21267   5.760  33.296  12.102
50668W        W21268  27.225  15.570  10.321
50669W        W21269  38.426  36.127  11.149
50670W        W21270  26.187   6.989   2.865
50671W        W21271  35.567  39.545   1.826
50672W        W21272  29.265  28.453  14.506
50673W        W21273   1.537  42.365   3.345
50674W        W21274   2.399  19.432   2.015
50675W        W21275   5.930  23.901  11.214
50676W        W21276  12.953   7.991  12.348
50677W        W21277   3.809  27.706  12.864
50678W        W21278  21.476  40.474  12.051
50679W        W21279  26.629  21.530  13.551
50680W        W21280  11.583  32.964  14.839
50681W        W21281  15.251  33.511  12.014
50682W        W21282  19.604   4.883   4.536
50683W        W21283  15.878  29.694  12.180
50684W        W21284   8.248   5.254  14.071
50685W        W21285  36.336  25.907   3.317
50686W        W21286  21.907   6.937  11.164
50687W        W21287  14.795  14.831   3.729
50688W        W21288   3.150  19.078   4.300
50689W        W21289  40.960   8.357   4.714
50690W        W21290  36.463  13.585  13.267
50691W        W21291  39.088  39.589   1.392
50692W        W21292   6.224  37.465   3.792
50693W        W21293   2.190   0.139   1.343
50694W        W21294  32.840  11.822  13.488
50695W        W21295  22.646  39.232  13.232
50696W        W21296  38.829  10.139   3.228
50697W        W21297  17.003  38.304   3.949
50698W        W21298  29.887  36.981   2.762
50699W        W21299  41.949  33.154  12.610
50700W        W21300  42.450  28.452   4.602
50701W        W21301  37.382   0.336  13.332
50702W        W21302  25.674  27.189  14.164
50703W        W21303  26.436  41.280  14.768
50704W        W21304  14.709   3.624   4.751
50705W        W21305  33.882  13.763  12.434
50706W        W21306  32.021   1.814   1.381
50707W        W21307  31.237  23.155  10.862
50708W        W21308  31.997  42.053  14.458
50709W        W21309  21.167  15.105   4.583
50710W        W21310  13.276   2.653  12.986
50711W        W21311   3.205  43.805  10.763
50712W        W21312  15.305  40.610   0.756
50713W        W21313  37.819  38.871   3.255
50714W        W21314  17.009  33.676  13.218
50715W        W21315  24.197  33.120   4.512
50716W        W21316  14.985   4.369  10.596
50717W        W21317  33.934  41.440   2.648
50718W        W21318  24.596  40.473   2.369
50719W        W21319  41.989  20.801  13.817
50720W        W21320  14.473   8.121   0.666
50721W        W21321   6.859  15.116   2.192
50722W        W21322  44.808  38.041  10.454
50723W        W21323  29.964   2.384   4.674
50724W        W21324  30.454  21.589  11.804
50725W        W21325  10.128  29.040   3.351
50726W        W21326  34.323   9.569   2.321
50727W        W21327  32.078  30.057   2.131
50728W        W21328  30.485  33.681  14.921
50729W        W21329  11.077  39.012  14.877
50730W        W21330  10.660  19.438  12.289
50731W        W21331  17.788  16.526  13.542
50732W        W21332  41.758   9.545  11.107
50733W        W21333  28.390  37.896  11.516
50734W        W21334  26.160   0.276  14.531
50735W        W21335  39.136  26.913  11.210
50736W        W21336  42.998  34.786  11.144
50737W        W21337  18.511  27.549  11.198
50738W        W21338  40.343   6.375  14.845
50739W        W21339  12.365  20.430  13.992
50740W        W21340   3.357   2.858   2.955
50741W        W21341  24.185  20.980  14.838
50742W        W21342  39.948  43.400   2.974
50743W        W21343   3.735   2.757   2.647
50744W        W21344  25.621  19.478   0.478
50745W        W21345   4.324  29.613   2.907
50746W        W21346  40.039   8.311   4.617
50747W        W21347  41.960   9.280   1.248
50748W        W21348  31.051  11.373   3.198
50749W        W21349  17.743  41.938   4.050
50750W        W21350  24.692   7.902  14.136
50751W        W21351  23.547  40.155  14.380
50752W        W21352   7.241  24.456   2.573
50753W        W21353  25.740   5.633   1.668
50754W        W21354  23.950  35.883  13.362
50755W        W21355   9.607   6.274  13.301
50756W        W21356  42.778  44.298  10.795
50757W        W21357   2.681  37.006   1.160
50758W        W21358  10.184  43.808  10.901
50759W        W21359  40.756   8.678  12.593
50760W        W21360  19.865  32.497  12.850
50761W        W21361  42.199  38.404   3.738
50762W        W21362   2.915   6.403  11.751
50763W        W21363   4.798   1.301  13.839
50764W        W21364  22.069   8.579  13.010
50765W        W21365  26.085   5.896   0.297
50766W        W21366  16.366  43.961   0.028
50767W        W21367   0.204  17.347   2.831
50768W        W21368  39.700  31.118  12.572
50769W        W21369   5.143  19.070  11.952
50770W        W21370  14.467  16.070  13.955
50771W        W21371   1.505  21.652  10.590
50772W        W21372  21.465  37.655   0.475
50773W        W21373  23.023  18.515   4.045
50774W        W21374  37.469  24.750  14.782
50775W        W21375  33.419  41.446  14.405
50776W        W21376  36.572  27.940   3.801
50777W        W21377  38.372  26.018   1.121
50778W        W21378  23.430  14.342   3.567
50779W        W21379  18.722  33.004   0.208
50780W        W21380   6.739  10.659  12.888
50781W        W21381  36.901  16.546   0.296
50782W        W21382  21.204  40.473  11.612
50783W        W21383  44.391  19.333  12.379
50784W        W21384  11.031   9.363   3.145
50785W        W21385  35.510  36.651   1.720
50786W        W21386   2.782  29.784  12.516
50787W        W21387   4.797  42.894   4.141
50788W        W21388  19.596  40.085   3.758
50789W        W21389  21.068  44.844   2.586
50790W        W21390  15.323  12.021   9.724
50791W        W21391  25.637  40.542  11.127
50792W        W21392  34.339  12.541  11.993
50793W        W21393  32.852  23.529   1.193
50794W        W21394  35.481  36.905   3.358
50795W        W21395  18.747   7.391   3.698
50796W        W21396  35.150  12.142   1.777
50797W        W21397  44.324  11.744   4.512
50798W        W21398  31.407  24.436  14.753
50799W        W21399  14.752   2.046  11.954
50800W        W21400   4.038   7.447   1.196
50801W        W21401  21.667  35.909   2.815
50802W        W21402  42.857  20.501  12.366
50803W        W21403  13.491  16.329  14.295
50804W        W21404  27.479  21.169   0.519
50805W        W21405  17.234   2.250  12.500
50806W        W21406  41.466  16.910  11.194
50807W        W21407  18.995   8.711   1.409
50808W        W21408   5.933  23.198   3.212
50809W        W21409  39.918  12.936  12.422
50810W        W21410  43.625   8.642   5.002
50811W        W21411  20.755  44.379  11.993
50812W        W21412  36.875  42.680  14.437
50813W        W21413  22.338  28.059  13.481
50814W        W21414  10.329  38.978   3.257
50815W        W21415   0.270  18.710   1.938
50816W        W21416  37.345  20.279  12.801
50817W        W21417  16.300  39.898  14.407
50818W        W21418  14.894  22.805   1.362
50819W        W21419   3.410  10.076   3.316
50820W        W21420  25.135  43.361   4.640
50821W        W21421  39.718  18.561  13.809
50822W        W21422  31.516  18.128   3.785
50823W        W21423  30.980  17.091  13.558
50824W        W21424  35.956  30.017   1.391
50825W        W21425  36.191  14.201  12.563
50826W        W21426   5.935  42.988   3.638
50827W        W21427  14.753  12.161   3.655
50828W        W21428  11.544  10.629   1.638
50829W        W21429  11.644  43.282  13.839
50830W        W21430  29.826  19.095   0.452
50831W        W21431  31.296   1.474  11.129
50832W        W21432   1.884  38.018   3.226
50833W        W21433  24.243  14.914  10.751
50834W        W21434   6.626  13.040  14.735
50835W        W21435  27.261   0.821   2.846
50836W        W21436  40.436  32.089  12.159
50837W        W21437  29.103  16.432   1.249
50838W        W21438  40.885   2.810  10.264
50839W        W21439   2.862   3.264   1.133
50840W        W21440  32.797  11.283  12.250
50841W        W21441   5.482   0.926   4.531
50842W        W21442   8.001  44.013   3.681
50843W        W21443  18.045  15.085  12.493
50844W        W21444  21.745  37.586   0.002
50845W        W21445  44.053  36.358   1.387
50846W        W21446  27.894   6.744   4.380
50847W        W21447  13.382  26.563  13.984
50848W        W21448  30.606  22.310   2.900
50849W        W21449  35.568  38.384  14.497
50850W        W21450  35.818  10.489   0.635
50851W        W21451   7.685  38.614  13.565
50852W        W21452   7.629   4.899  11.603
50853W        W21453  15.666  19.305   2.366
50854W        W21454   0.847  34.349   2.318
50855W        W21455  42.835  30.848  14.925
50856W        W21456  23.159  19.256   4.535
50857W        W21457   7.226  39.468  14.842
50858W        W21458  42.768  17.791   0.383
50859W        W21459  34.845  26.536  14.785
50860W        W21460  28.541  11.928  14.751
50861W        W21461   0.006  17.580   3.255
50862W        W21462   9.694  39.329   1.561
50863W        W21463  14.687   7.221  12.268
50864W        W21464   5.776  12.981  13.294
50865W        W21465  38.100  22.493   4.923
50866W        W21466  33.405  21.631  10.410
50867W        W21467   4.192  36.629  10.436
50868W        W21468  16.161  41.404  11.085
50869W        W21469   8.748   9.184   0.462
50870W        W21470   0.240  16.469  14.915
50871W        W21471  28.613  13.122   1.299
50872W        W21472  15.770  44.306   4.504
50873W        W21473  24.244  32.672  11.955
50874W        W21474  11.522   9.624  10.711
50875W        W21475   4.497  12.666  11.409
50876W        W21476  16.111   3.130  10.341
50877W        W21477   2.865  42.801   3.005
50878W        W21478  34.454   4.923   0.951
50879W        W21479  29.671  37.442  13.916
50880W        W21480   0.378  31.017   4.165
50881W        W21481  29.008  34.564   2.770
50882W        W21482  26.385  17.101   2.433
50883W        W21483   9.364  12.320  10.335
50884W        W21484  33.373  20.527   4.183
50885W        W21485  37.134  31.655  14.864
50886W        W21486  21.522  31.523   0.322
50887W        W21487  40.112  18.252   0.051
50888W        W21488   1.742  13.631   2.760
50889W        W21489  33.447  16.967  12.406
50890W        W21490  20.076  29.473   2.279
50891W        W21491  27.955  33.121   1.353
50892W        W21492  24.578  35.965  14.438
50893W        W21493   1.433  12.686  12.027
50894W        W21494  44.001  39.337  10.693
50895W        W21495  32.459  19.139   3.533
50896W        W21496  42.506   2.614   0.175
50897W        W21497  19.801   7.815   5.073
50898W        W21498   3.730  42.716  12.655
50899W        W21499  34.737  38.400   1.751
50900W        W21500  39.819  33.276  12.382
50901W        W21501   4.063   6.881   2.423
50902W        W21502  36.921  41.860   2.253
50903W        W21503   7.359  10.760   4.228
50904W        W21504  30.913   3.762   3.230
50905W        W21505   1.416  33.349  13.379
50906W        W21506  11.495   5.388   1.900
50907W        W21507  38.257   6.807  13.369
50908W        W21508  42.295   0.194  10.999
50909W        W21509  41.604  15.587   4.106
50910W        W21510  22.213  15.171  12.001
50911W        W21511  20.106  30.128  13.573
50912W        W21512  29.640   2.765  10.951
50913W        W21513  22.652  11.066  14.311
50914W        W21514   0.351  41.963   4.013
50915W        W21515   4.718   6.389   3.621
50916W        W21516  37.783  29.270   4.531
50917W        W21517   5.724  12.887  11.997
50918W        W21518  42.352   1.545  11.641
50919W        W21519  17.392  10.200   9.876
50920W        W21520   1.660  19.732   3.762
50921W        W21521  10.654   8.349   1.448
50922W        W21522  18.582   6.131   4.670
50923W        W21523  43.049  22.919  11.119
50924W        W21524   4.265  32.444  14.921
50925W        W21525  34.452  42.473  14.627
50926W        W21526  24.125  36.829  14.085
50927W        W21527  40.102  36.203  13.769
50928W        W21528  28.496  11.820  13.518
50929W        W21529  27.993   2.507  12.083
50930W        W21530  15.875  41.162   3.384
50931W        W21531  23.418  30.555  14.885
50932W        W21532   8.726  28.856  10.934
50933W        W21533  24.904  26.582  12.577
50934W        W21534  21.681  20.604   1.655
50935W        W21535  44.396  29.704   0.317
50936W        W21536  19.418  13.152  12.928
50937W        W21537  34.330  38.357  11.888
50938W        W21538  41.323  34.842   2.806
50939W        W21539  20.746   4.315   4.389
50940W        W21540  17.517  16.173   3.643
50941W        W21541  21.657  42.449  11.452
50942W        W21542  28.157  30.605   3.883
50943W        W21543  43.927  23.586   4.253
50944W        W21544  42.827  43.553  14.681
50945W        W21545  11.725   5.282   2.816
50946W        W21546  12.438   2.162   1.855
50947W        W21547   2.446  38.623  11.091
50948W        W21548  26.023  24.760  12.290
50949W        W21549   0.011   4.983  11.259
50950W        W21550  33.684  16.020   4.162
50951W        W21551  12.639  28.758   1.909
50952W        W21552   8.825  36.298   1.367
50953W        W21553  39.129  36.472   0.992
50954W        W21554  10.650  23.515   2.395
50955W        W21555   2.339  34.593  11.970
50956W        W21556   7.352  29.373  10.884
50957W        W21557  38.254  43.883  14.193
50958W        W21558   3.695  25.497  14.423
50959W        W21559  12.938   3.288   3.806
50960W        W21560   5.338  15.592  12.496
50961W        W21561  34.552  29.485  13.557
50962W        W21562  24.327  13.241  11.778
50963W        W21563  36.440  31.009  12.583
50964W        W21564  23.710  36.334  13.351
50965W        W21565  21.503  21.004  11.165
50966W        W21566  36.877  35.552  11.165
50967W        W21567  21.600  26.609  13.426
50968W        W21568  12.057  33.962  11.294
50969W        W21569  37.957  35.857   9.854
50970W        W21570   0.363   3.813  11.911
50971W        W21571   1.776  35.929   2.360
50972W        W21572  44.067  17.166   4.751
50973W        W21573  31.452  17.882   1.692
50974W        W21574  11.813  41.358  14.964
50975W        W21575  24.242   8.948   0.141
50976W        W21576  14.710  37.307   2.732
50977W        W21577  17.634  43.666   3.656
50978W        W21578  32.036  42.059  13.042
50979W        W21579   0.009  23.568   1.656
50980W        W21580  37.837  18.556  13.925
50981W        W21581  19.908  41.062  14.302
50982W        W21582  34.667  25.789   3.979
50983W        W21583  29.584   2.650  13.027
50984W        W21584  19.292  19.979  14.896
50985W        W21585  24.372   8.683  10.721
50986W        W21586  33.580  14.984   4.540
50987W        W21587   9.085  22.426   2.846
50988W        W21588  28.513  12.437  14.715
50989W        W21589  23.693  32.327   4.205
50990W        W21590  42.410   4.452  11.672
50991W        W21591   4.816   4.467   2.259
50992W        W21592  44.318   1.028  13.884
50993W        W21593  13.804  30.221  12.767
50994W        W21594  30.921  32.027   2.765
50995W        W21595  16.383   6.747  10.610
50996W        W21596   6.806  16.138  14.009
50997W        W21597  27.197  12.673   1.842
50998W        W21598   3.816  17.844   1.958
50999W        W21599  27.194  41.191   2.810
51000W        W21600  28.561  32.838   0.750
51001W        W21601  40.032  17.925   2.359
51002W        W21602  43.263  18.110  11.522
51003W        W21603  38.141  22.913  14.902
51004W        W21604  24.606  27.042   4.014
51005W        W21605  29.211  10.811  13.049
51006W        W21606  18.458   2.395  12.714
51007W        W21607  11.346   4.906   2.174
51008W        W21608   6.521  26.559  13.369
51009W        W21609  32.357  34.439   2.708
51010W        W21610  33.032  43.539   1.558
51011W        W21611  14.084  21.300  11.924
51012W        W21612  42.017  24.646   2.765
51013W        W21613   9.745  10.614   2.818
51014W        W21614  28.640  44.196   0.272
51015W        W21615  30.569  12.205  14.244
51016W        W21616  22.549   6.678   5.217
51017W        W21617  21.995  44.759  14.474
51018W        W21618   0.966  29.433  14.771
51019W        W21619   7.112  19.940   0.671
51020W        W21620  16.540   3.363   2.301
51021W        W21621  36.864  32.568  12.941
51022W        W21622  37.960  38.958   3.847
51023W        W21623  29.799  14.902  13.990
51024W        W21624  30.757  10.134   0.765
51025W        W21625  38.262  28.997   4.304
51026W        W21626  10.791  18.308   4.542
51027W        W21627  42.789  27.146  11.524
51028W        W21628  37.189  44.468  11.163
51029W        W21629   2.637  40.636  10.802
51030W        W21630  35.121   7.170   1.343
51031W        W21631  12.441  27.064   1.937
51032W        W21632   7.845  13.723   1.718
51033W        W21633  39.072  29.142   4.758
51034W        W21634  18.158  16.215  12.917
51035W        W21635  43.330  17.591   4.631
51036W        W21636   9.780   2.866  13.673
51037W        W21637  44.005  36.372  12.854
51038W        W21638  19.256  28.274  12.488
51039W        W21639   5.250   7.877  11.518
51040W        W21640  31.680  32.896  13.470
51041W        W21641  22.061  28.439   0.320
51042W        W21642   3.324  26.867  14.248
51043W        W21643  12.652  31.449   5.116
51044W        W21644  40.018  35.428  14.944
51045W        W21645  11.667   6.672  13.557
51046W        W21646  10.392  26.710   0.793
51047W        W21647  15.649  20.777  14.463
51048W        W21648   9.698   7.699  14.488
51049W        W21649  36.441   9.760   3.262
51050W        W21650  35.625  24.485  12.926
51051W        W21651  18.659  17.195  10.771
51052W        W21652   0.979  26.938   2.437
51053W        W21653  33.381  32.311   3.607
51054W        W21654  36.264  34.175  11.457
51055W        W21655   9.541  42.986   4.646
51056W        W21656  29.637   4.226  10.645
51057W        W21657  21.347  24.549   1.716
51058W        W21658  20.320  14.726   1.161
51059W        W21659  29.214   2.297  13.063
51060W        W21660  32.923  14.327  10.987
51061W        W21661  41.088   6.862   3.738
51062W        W21662   9.712  11.153   3.964
51063W        W21663  17.312  35.716  12.107
51064W        W21664  27.980  44.434   4.203
51065W        W21665  40.708   2.244  11.152
51066W        W21666  38.496  30.555  14.876
51067W        W21667  18.335  21.335  13.487
51068W        W21668  26.485  19.415   4.724
51069W        W21669  27.392  14.668  13.440
51070W        W21670  23.643  44.961  10.083
51071W        W21671  11.220  24.947   2.401
51072W        W21672   6.152  32.059   4.551
51073W        W21673  21.044  27.134   2.316
51074W        W21674  19.379   2.749  12.428
51075W        W21675  40.894  44.810   0.485
51076W        W21676   3.689  34.808   5.478
51077W        W21677  32.672  19.330   4.406
51078W        W21678  27.605   9.693  11.818
51079W        W21679  22.581  24.133   3.392
51080W        W21680  28.113  19.192   0.983
51081W        W21681  37.520  14.687  11.461
51082W        W21682  44.118  40.795  12.047
51083W        W21683  18.512  19.101   1.807
51084W        W21684  29.521  38.614  11.435
51085W        W21685  22.713   4.630  13.451
51086W        W21686   7.057  28.911   1.879
51087W        W21687  28.899  39.551   1.497
51088W        W21688  26.253   0.437   4.917
51089W        W21689  43.033  11.419   1.782
51090W        W21690   1.482  29.679   4.778
51091W        W21691  28.452  11.427   0.865
51092W        W21692  21.116  30.980  11.147
51093W        W21693  20.213  29.557   1.406
51094W        W21694  24.036  43.370  10.628
51095W        W21695  42.050  42.737  11.085
51096W        W21696   5.893  30.205  11.007
51097W        W21697  14.868  40.294   2.775
51098W        W21698  12.060  18.161  11.218
51099W        W21699  34.790  17.551  14.298
51100W        W21700  17.044   0.001  14.827
51101W        W21701   0.960  36.337  11.311
51102W        W21702  18.447   7.231   1.847
51103W        W21703  12.429  38.039  14.446
51104W        W21704  25.737   2.410  12.899
51105W        W21705  20.547  30.070  14.753
51106W        W21706  41.423   4.329   2.249
51107W        W21707  33.096  35.442  12.615
51108W        W21708  24.534  29.115   4.229
51109W        W21709  37.610  43.556  12.812
51110W        W21710  43.827  12.395  11.505
51111W        W21711  13.103  39.436  11.724
51112W        W21712  27.333  18.923   4.417
51113W        W21713  40.862   5.934   0.582
51114W        W21714   5.640  43.559  11.995
51115W        W21715   2.505  21.984  13.420
51116W        W21716  18.876   3.824   2.145
51117W        W21717  14.044  42.857  14.222
51118W        W21718  39.195  21.256   4.060
51119W        W21719  36.383  23.224  12.849
51120W        W21720   1.948  11.085  11.559
51121W        W21721   8.740   2.915  11.383
51122W        W21722  22.695  36.830  11.581
51123W        W21723  37.763  20.195  11.583
51124W        W21724  14.578  24.181   4.679
51125W        W21725  36.421  43.312  13.860
51126W        W21726   6.387  13.735   3.137
51127W        W21727  30.001  44.229   1.257
51128W        W21728  33.068  34.623   0.483
51129W        W21729  41.497  26.110   3.095
51130W        W21730  35.451  21.291  14.484
51131W        W21731  24.803  16.562   1.358
51132W        W21732  11.827  19.844  13.434
51133W        W21733  19.721  30.932  13.204
51134W        W21734   9.627  34.019   0.229
51135W        W21735  28.608  33.664   2.881
51136W        W21736  23.176  32.347   4.149
51137W        W21737  21.456   4.371  11.811
51138W        W21738  16.115  26.062  14.011
51139W        W21739   4.464  40.969  10.946
51140W        W21740  10.832   2.796   4.583
51141W        W21741  22.763   8.475   3.435
51142W        W21742  44.673  22.569   3.447
51143W        W21743  31.993  20.063  11.215
51144W        W21744  31.056   3.345   4.531
51145W        W21745  25.594   8.768  14.221
51146W        W21746   7.448  21.075  12.014
51147W        W21747  34.433  34.962  12.214
51148W        W21748  11.131  15.072   3.728
51149W        W21749  26.552  35.023   3.661
51150W        W21750  42.482  30.414  12.288
51151W        W21751   9.295  22.564   4.601
51152W        W21752   3.508  19.116   3.349
51153W        W21753  26.721  26.370   4.627
51154W        W21754  44.743  22.572   2.001
51155W        W21755  24.806  20.566   1.204
51156W        W21756   0.577   2.006   2.243
51157W        W21757  44.563  10.457  12.900
51158W        W21758  19.232  32.119   3.380
51159W        W21759  38.579  22.153   2.905
51160W        W21760  22.058  23.485  12.826
51161W        W21761  36.059  14.741   4.241
51162W        W21762  32.111  28.589  10.771
51163W        W21763   9.762  33.420   2.054
51164W        W21764   2.370  41.189   1.188
51165W        W21765   2.303  26.530  12.416
51166W        W21766   0.526  14.705   1.828
51167W        W21767  26.257  11.095  12.376
51168W        W21768  18.723  19.032   3.138
51169W        W21769  37.337   3.674   2.719
51170W        W21770  37.222  37.063  12.229
51171W        W21771   2.720  33.845   3.595
51172W        W21772  29.517   0.398   1.951
51173W        W21773  18.302  18.788  14.116
51174W        W21774  21.161  34.090   1.629
51175W        W21775   6.300  17.490   1.382
51176W        W21776   8.899  31.946   2.886
51177W        W21777  21.776   5.342  10.916
51178W        W21778  16.643   4.700  13.002
51179W        W21779   7.172  27.245   1.224
51180W        W21780  27.116  39.736  14.096
51181W        W21781  19.848  38.078   1.289
51182W        W21782  32.053  31.356  13.903
51183W        W21783   3.534  34.424  10.592
51184W        W21784  13.172  16.185   2.176
51185W        W21785  30.265  13.880   1.356
51186W        W21786  39.751   4.913  11.440
51187W        W21787  44.838  39.690  11.784
51188W        W21788  11.899   3.614   0.753
51189W        W21789  37.545  31.702   4.855
51190W        W21790  44.543   4.979  14.939
51191W        W21791   0.749  44.785  11.151
51192W        W21792  41.468   6.899   4.221
51193W        W21793  32.732  27.469  13.972
51194W        W21794  38.814  42.921   2.411
51195W        W21795  38.088  38.105  11.026
51196W        W21796  43.486  43.962   4.059
51197W        W21797   5.267   4.210   2.352
51198W        W21798  32.652   9.769   3.713
51199W        W21799  42.576   9.654  14.315
51200W        W21800  39.294  41.594   4.300
51201W        W21801  22.205   7.203   3.263
51202W        W21802  24.140  29.252   2.336
51203W        W21803  32.407   2.343   2.115
51204W        W21804  21.434  21.643  12.330
51205W        W21805   2.893  36.485   4.718
51206W        W21806   4.239  35.607   4.071
51207W        W21807   1.354  34.638  14.313
51208W        W21808  21.045  15.983   4.122
51209W        W21809  25.108  24.529  12.431
51210W        W21810  28.033   7.809   1.677
51211W        W21811  24.038  11.984  12.688
51212W        W21812   6.702  12.847   2.777
51213W        W21813  28.771  40.259   1.781
51214W        W21814  10.870  37.094   5.189
51215W        W21815  35.418  31.148   0.217
51216W        W21816  39.127   1.700  11.379
51217W        W21817  30.652   0.763   0.775
51218W        W21818  10.873  21.706   3.699
51219W        W21819   2.209  39.967  13.471
51220W        W21820  14.908  26.573  14.081
51221W        W21821  13.437  10.731   1.827
51222W        W21822  15.631  15.088   0.882
51223W        W21823   8.834   9.065  12.644
51224W        W21824  40.413  37.589  12.835
51225W        W21825  42.912  35.247   4.150
51226W        W21826   1.348  11.621   2.673
51227W        W21827  36.352  39.591   2.834
51228W        W21828  18.339   2.423   3.248
51229W        W21829  27.624  19.884  10.715
51230W        W21830  32.324  14.422  10.304
51231W        W21831  25.462  43.442   0.902
51232W        W21832  41.114  20.331   3.759
51233W        W21833  14.534  27.464   4.155
51234W        W21834  33.547   6.099   4.470
51235W        W21835  40.471  23.081   4.191
51236W        W21836  36.375  42.950   4.082
51237W        W21837  23.583  40.584   0.331
51238W        W21838  12.293  17.058  14.770
51239W        W21839  24.670  17.226   0.634
51240W        W21840  22.630  32.463   2.130
51241W        W21841  13.134  25.603  11.230
51242W        W21842  19.565  34.606  13.794
51243W        W21843  12.425  17.156  13.938
51244W        W21844  30.872  18.596   3.927
51245W        W21845   9.694   4.292   0.813
51246W        W21846   0.441  29.850  10.630
51247W        W21847   1.176  11.643   2.158
51248W        W21848  28.038  10.336   3.715
51249W        W21849   2.993  35.286   1.599
51250W        W21850  43.349  16.681  10.257
51251W        W21851  22.457  24.609   3.239
51252W        W21852   2.893   7.285  11.181
51253W        W21853  17.969  43.208  14.944
51254W        W21854  10.962  13.638  11.043
51255W        W21855  43.398  40.100  14.617
51256W        W21856  44.790   6.178   2.669
51257W        W21857  39.830  11.887   2.935
51258W        W21858  17.996  38.488   3.285
51259W        W21859  36.381  44.887  11.810
51260W        W21860  20.600  41.032  11.205
51261W        W21861  28.646  20.589   2.948
51262W        W21862  29.054  13.258   3.739
51263W        W21863  39.883  20.825   2.199
51264W        W21864  21.742  23.181  11.401
51265W        W21865  42.369  40.410   1.168
51266W        W21866  19.952   4.867  12.593
51267W        W21867  33.121   7.980  11.710
51268W        W21868  29.991   7.930   4.845
51269W        W21869  29.487  32.940   2.448
51270W        W21870  36.878  10.801   2.186
51271W        W21871  25.012  21.861   4.652
51272W        W21872  14.145  37.381  11.974
51273W        W21873  16.033  19.451   3.611
51274W        W21874  33.462  27.497   3.836
51275W        W21875  12.094  43.748   2.658
51276W        W21876  26.506  28.884   0.811
51277W        W21877  10.328  24.748   1.776
51278W        W21878   6.296  24.792  12.073
51279W        W21879  14.882   0.290  13.412
51280W        W21880  18.236  43.327   1.501
51281W        W21881  30.523  27.543  13.930
51282W        W21882   9.835  21.122   4.169
51283W        W21883   4.077  44.363   4.583
51284W        W21884  28.423  40.609   1.894
51285W        W21885  13.322  14.134   2.951
51286W        W21886  40.394  24.375   4.942
51287W        W21887  20.701   3.241   3.670
51288W        W21888   7.789  34.883   1.748
51289W        W21889  18.094  24.485   4.121
51290W        W21890   0.218   2.721   2.687
51291W        W21891  17.984  31.051   1.896
51292W        W21892  40.027  41.889  10.797
51293W        W21893  38.139  13.147   2.313
51294W        W21894   4.190  37.548   4.689
51295W        W21895   9.352  27.881   0.825
51296W        W21896   0.580  15.112  12.490
51297W        W21897  18.183  14.692  11.147
51298W        W21898  30.090  24.922   2.741
51299W        W21899  41.040   2.849  13.372
51300W        W21900  40.184  23.707  10.731
51301W        W21901  41.041   2.323   2.314
51302W        W21902  20.739  32.420  12.549
51303W        W21903   2.188  37.861  10.836
51304W        W21904   8.774  19.692  12.598
51305W        W21905  37.905  36.523  13.131
51306W        W21906  25.135  39.591   1.633
51307W        W21907  15.107   9.601  11.581
51308W        W21908  20.649  42.087  12.325
51309W        W21909  30.891  19.154  12.345
51310W        W21910  11.037  28.135  10.364
51311W        W21911  43.833   6.910  13.134
51312W        W21912  36.937   0.466   1.425
51313W        W21913  18.157  32.617   0.360
51314W        W21914  38.885   6.384  10.593
51315W        W21915  17.263   1.568  11.097
51316W        W21916  30.660  15.239  13.966
51317W        W21917  26.483  23.567  14.347
51318W        W21918  44.249  43.910  12.460
51319W        W21919  44.916  22.220  11.554
51320W        W21920  19.532  38.363   3.339
51321W        W21921  30.647   6.632   1.759
51322W        W21922  27.957  29.274   3.891
51323W        W21923  11.309   7.887  11.393
51324W        W21924  28.618  10.779   4.475
51325W        W21925  36.877   7.819   2.356
51326W        W21926   3.169  10.229   4.299
51327W        W21927  18.583  30.681   3.361
51328W        W21928  38.877  21.439  13.866
51329W        W21929  22.019  38.348  11.722
51330W        W21930  44.408  16.832   4.503
51331W        W21931  28.606  27.161   4.540
51332W        W21932  23.535  37.569  12.972
51333W        W21933  10.643  26.037   1.740
51334W        W21934  34.195  43.602   0.438
51335W        W21935  20.557  15.595   1.682
51336W        W21936  19.536  14.231   3.810
51337W        W21937  35.370  23.801   3.610
51338W        W21938  24.266  24.053   3.122
51339W        W21939   4.749  37.511  12.927
51340W        W21940  11.493  14.113   3.530
51341W        W21941  43.913  36.591   0.258
51342W        W21942  15.016  20.606   2.570
51343W        W21943  43.110  13.760  14.405
51344W        W21944   9.665  28.196  13.506
51345W        W21945  30.862  28.284  11.811
51346W        W21946  13.248  11.804   3.900
51347W        W21947  36.528   9.840  11.194
51348W        W21948   3.243  42.819   2.310
51349W        W21949  42.397  26.950  13.931
51350W        W21950  41.988  33.311  13.086
51351W        W21951  21.104  25.291  13.932
51352W        W21952   3.319   7.108  11.462
51353W        W21953  38.603  11.823  14.899
51354W        W21954   6.871   7.589   0.343
51355W        W21955  25.041   0.649  14.573
51356W        W21956  31.179   8.428   3.352
51357W        W21957  30.656  32.718   3.733
51358W        W21958  17.414  12.436   2.263
51359W        W21959  25.633  41.659   9.916
51360W        W21960  31.686  20.498  11.640
51361W        W21961  26.124   1.447   2.877
51362W        W21962  13.681  26.026   1.142
51363W        W21963  12.145  16.252   0.345
51364W        W21964  12.296  27.060   0.273
51365W        W21965  27.933   6.792  12.890
51366W        W21966  24.102  42.696  14.604
51367W        W21967  33.887  43.725   2.782
51368W        W21968  15.426  28.636  13.966
51369W        W21969  14.192   8.859  14.475
51370W        W21970  11.915  38.833  12.108
51371W        W21971   5.012  43.468  10.603
51372W        W21972  14.688  22.802   0.898
51373W        W21973  35.064   1.301  13.955
51374W        W21974  41.466  10.649   3.383
51375W        W21975  23.560   3.381  13.526
51376W        W21976  19.820  32.339   0.885
51377W        W21977   0.553  19.555  11.059
51378W        W21978  31.727  31.456  11.577
51379W        W21979  44.673  13.687   0.283
51380W        W21980  15.034   6.951   3.732
51381W        W21981  40.071  33.628  11.566
51382W        W21982  40.734   4.918   0.379
51383W        W21983   5.118  33.731  14.459
51384W        W21984  14.673  17.109  11.769
51385W        W21985  18.635  29.668   1.021
51386W        W21986  10.130  33.312   0.403
51387W        W21987  19.853  26.449   3.533
51388W        W21988  44.513   4.784   1.876
51389W        W21989   1.470   0.348   0.877
51390W        W21990  38.443  23.220   0.923
51391W        W21991  38.504  21.707   1.219
51392W        W21992  34.399   8.153  12.726
51393W        W21993   4.891  11.194  13.582
51394W        W21994  26.647  36.163  13.873
51395W        W21995  11.881  15.943  13.010
51396W        W21996  40.303  39.980   0.342
51397W        W21997   4.178  19.618   1.160
51398W        W21998  17.093  30.493   0.838
51399W        W21999  38.866  13.233   4.219
51400W        W22000  29.179  18.254   0.468
51401W        W22001   9.936  11.818  14.883
51402W        W22002  38.907  12.235  13.333
51403W        W22003   3.229  42.768  12.826
51404W        W22004  15.808  23.743   2.870
51405W        W22005  11.705  10.208  13.373
51406W        W22006   7.229   5.881   1.814
51407W        W22007  17.065  22.257  10.627
51408W        W22008  16.823   8.230   4.539
51409W        W22009   5.298  29.926  11.502
51410W        W22010   7.947  36.345  12.095
51411W        W22011  39.297  16.057  10.999
51412W        W22012  32.012  41.579  12.154
51413W        W22013  33.527   9.471   3.393
51414W        W22014  19.702   2.727   4.099
51415W        W22015  23.034  14.539   4.804
51416W        W22016   3.058   1.881  14.020
51417W        W22017  13.307  28.839  13.903
51418W        W22018   7.833  25.756   2.229
51419W        W22019  16.419  28.514  13.783
51420W        W22020   8.889   7.714   0.108
51421W        W22021  34.364  15.629  12.433
51422W        W22022  13.379   8.142  11.466
51423W        W22023  44.267  22.476  14.831
51424W        W22024  19.942  28.048   1.007
51425W        W22025  25.410  17.459  13.431
51426W        W22026  42.742  13.193   3.215
51427W        W22027  35.786  24.255   1.327
51428W        W22028   6.132  25.644   3.948
51429W        W22029   7.391  22.999   2.898
51430W        W22030   8.424   6.816  12.902
51431W        W22031  13.078  37.598   0.891
51432W        W22032  28.008  30.196  13.741
51433W        W22033  29.069   9.913   1.429
51434W        W22034  10.290  17.715  13.324
51435W        W22035  22.534  25.936   3.745
51436W        W22036  25.192  29.216   4.841
51437W        W22037  29.090  18.667   3.849
51438W        W22038  21.283   1.438  11.993
51439W        W22039  41.483  29.840   0.405
51440W        W22040  40.285  27.147   0.415
51441W        W22041  13.236  31.450  12.327
51442W        W22042  44.533  12.632   2.978
51443W        W22043  35.059  13.337  11.763
51444W        W22044  33.101  18.139   1.466
51445W        W22045  17.543  40.345  13.944
51446W        W22046  39.974  43.860   2.671
51447W        W22047   9.658   0.523  11.723
51448W        W22048   8.863  33.104   0.819
51449W        W22049  31.367  22.878  12.528
51450W        W22050   6.882  23.465  12.125
51451W        W22051  31.011  36.374  11.195
51452W        W22052  23.039  27.432   3.133
51453W        W22053  24.928  11.350   3.638
51454W        W22054   5.287   8.654   4.137
51455W        W22055  28.113  21.240   1.913
51456W        W22056  28.393  12.310   2.407
51457W        W22057   2.238  29.058   0.326
51458W        W22058  34.843  24.997  13.005
51459W        W22059  17.039  42.328  14.416
51460W        W22060  40.029   3.792  12.094
51461W        W22061  24.590  30.040  12.430
51462W        W22062  31.358  26.157  10.489
51463W        W22063  23.678  19.562  13.912
51464W        W22064  20.331  30.846  11.576
51465W        W22065  18.642  34.058  10.056
51466W        W22066  38.525  38.271  13.013
51467W        W22067  36.440  38.622  12.304
51468W        W22068  37.412   4.232   1.869
51469W        W22069  14.251   3.392   3.527
51470W        W22070  21.199  14.092   0.868
51471W        W22071  32.071  15.564   1.640
51472W        W22072  20.974   4.637   1.327
51473W        W22073  30.953  31.046   2.693
51474W        W22074   8.700  24.550   1.724
51475W        W22075  39.627  44.625  11.215
51476W        W22076   0.525  21.173  11.933
51477W        W22077  36.311  13.276   4.059
51478W        W22078  15.653  19.179   4.665
51479W        W22079  38.598   6.259  12.216
51480W        W22080  25.564   6.172   0.450
51481W        W22081  20.613  20.163   3.394
51482W        W22082  34.060  18.805  13.996
51483W        W22083  43.795  20.280   0.412
51484W        W22084  44.181  39.496  11.144
51485W        W22085  42.294   8.989  13.915
51486W        W22086  29.861  27.744  14.542
51487W        W22087   9.659  29.298   4.226
51488W        W22088   7.602  28.223   5.004
51489W        W22089   3.220  43.693   2.561
51490W        W22090   9.997  15.515   3.233
51491W        W22091  43.955  23.976  13.353
51492W        W22092  34.614   3.785   1.578
51493W        W22093  44.107   6.199   0.673
51494W        W22094  35.248  42.213  14.484
51495W        W22095  11.706  30.630   4.661
51496W        W22096  35.574  20.568  12.503
51497W        W22097  33.321  23.311   1.331
51498W        W22098  31.614   7.654   1.818
51499W        W22099   5.169  15.371  11.439
51500W        W22100  11.688  20.944   4.129
51501W        W22101   4.169  11.432  13.323
51502W        W22102  41.381   3.211  13.279
51503W        W22103   2.947  20.243   0.777
51504W        W22104  13.640  24.411   1.869
51505W        W22105  26.482  30.939   1.510
51506W        W22106  38.116  29.961  13.535
51507W        W22107  37.197  42.065  11.097
51508W        W22108  23.740  30.997  14.712
51509W        W22109  21.957  16.245  14.320
51510W        W22110  23.072  28.359   0.040
51511W        W22111   6.049   6.665  13.170
51512W        W22112  40.447  37.383   2.119
51513W        W22113  17.117  20.323   4.246
51514W        W22114  37.093  35.915   0.817
51515W        W22115  36.633  10.725  13.900
51516W        W22116  43.996  39.014   0.555
51517W        W22117  21.016   9.693   0.921
51518W        W22118  29.708  15.765  12.016
51519W        W22119  43.945  30.076   4.812
51520W        W22120  37.550  31.851  11.524
51521W        W22121  41.933  22.162  14.075
51522W        W22122   5.288   7.756  14.324
51523W        W22123   9.837  21.313  12.002
51524W        W22124  32.469   5.352  10.772
51525W        W22125  16.254  18.864  14.878
51526W        W22126  38.101   4.895   2.738
51527W        W22127  13.652  17.136  10.984
51528W        W22128  26.445  38.535  12.105
51529W        W22129  21.319   8.097   3.688
51530W        W22130  29.087   0.468  14.283
51531W        W22131  41.669  33.833   0.343
51532W        W22132   8.153  13.847  10.668
51533W        W22133  30.518  28.459  12.144
51534W        W22134  25.155  35.921   1.324
51535W        W22135  34.598  35.438   0.990
51536W        W22136  19.505  18.202   1.213
51537W        W22137  32.731  13.907  14.933
51538W        W22138  40.814  42.336   2.975
51539W        W22139  38.260  28.704  13.239
51540W        W22140  43.234  37.489  13.331
51541W        W22141   4.102   4.164   1.942
51542W        W22142  37.489  32.136  11.973
51543W        W22143  22.209  33.159  13.948
51544W        W22144   6.135   9.707  10.673
51545W        W22145  40.484   8.153  10.756
51546W        W22146  39.289  32.009   1.322
51547W        W22147  17.249  24.199   0.283
51548W        W22148  36.846  19.255  11.938
51549W        W22149  44.824  23.792  12.291
51550W        W22150  43.492  39.685   3.534
51551W        W22151  42.918  26.532  13.311
51552W        W22152   0.369  18.367   3.908
51553W        W22153  29.911  24.826  11.139
51554W        W22154  28.064  28.948   2.740
51555W        W22155   5.770  37.967   0.451
51556W        W22156   7.211  35.345   4.221
51557W        W22157  42.008  16.303   2.314
51558W        W22158  15.230  34.435  13.357
51559W        W22159  31.543   3.800   3.811
51560W        W22160  39.315  13.356   0.752
51561W        W22161  23.969  17.571   3.409
51562W        W22162  26.185  12.759   0.629
51563W        W22163   2.883   2.186  11.885
51564W        W22164  17.614  19.553  10.720
51565W        W22165  41.211  35.561   0.806
51566W        W22166  39.654  16.096  10.630
51567W        W22167  39.520  20.074   2.113
51568W        W22168  38.543  41.374   4.571
51569W        W22169  37.483   6.364  10.431
51570W        W22170  39.397   6.193   1.670
51571W        W22171  31.367  23.926  14.889
51572W        W22172   9.300  29.271  12.179
51573W        W22173  28.509  16.744  10.646
51574W        W22174  23.439  26.001   1.947
51575W        W22175  14.094  23.111   3.085
51576W        W22176  27.056  29.670   4.573
51577W        W22177  11.251  11.843   4.560
51578W        W22178  15.255  40.285  13.433
51579W        W22179  19.129   2.975   3.131
51580W        W22180   4.778  37.643   0.435
51581W        W22181  42.929  37.414  14.962
51582W        W22182   3.173  30.121   2.941
51583W        W22183  20.988  16.236   1.464
51584W        W22184  23.637  15.278  12.941
51585W        W22185  31.891   5.834   2.186
51586W        W22186  12.754  41.025   0.701
51587W        W22187  12.008  40.302   3.808
51588W        W22188  10.889   9.342  14.449
51589W        W22189  20.545   2.464   2.641
51590W        W22190  21.132   9.076   2.607
51591W        W22191  23.369  27.285   3.736
51592W        W22192  17.990   4.499  11.455
51593W        W22193   2.766  36.941   2.141
51594W        W22194  38.909  26.140  12.022
51595W        W22195   5.008  44.006  13.414
51596W        W22196  35.656  42.707  12.641
51597W        W22197  16.411   4.859   2.541
51598W        W22198   1.675  32.977  11.462
51599W        W22199   9.358   0.845  11.492
51600W        W22200  34.548  30.797  14.842
51601W        W22201  25.751  21.735  12.720
51602W        W22202  10.278  36.185   3.683
51603W        W22203  11.196   8.683  12.955
51604W        W22204   0.714  25.175   4.756
51605W        W22205  16.569  42.304   3.875
51606W        W22206   0.283  38.994   3.129
51607W        W22207   5.113  18.753   3.587
51608W        W22208   3.848  28.056   3.717
51609W        W22209  38.548  12.220  14.049
51610W        W22210  33.725  41.511   1.758
51611W        W22211  23.124  10.224   0.435
51612W        W22212   4.665   7.429   1.866
51613W        W22213  22.049  28.032   2.332
51614W        W22214  18.235  20.971  14.819
51615W        W22215  43.385  18.068   1.573
51616W        W22216  17.186  20.725   0.659
51617W        W22217  37.124  35.513  12.112
51618W        W22218  39.925  22.243   3.575
51619W        W22219   1.867  33.797   0.870
51620W        W22220  24.658  20.929  14.420
51621W        W22221  34.900  15.160   4.472
51622W        W22222   0.790  26.809  10.259
51623W        W22223  35.970   0.791  12.672
51624W        W22224   1.196  19.996  12.098
51625W        W22225  32.827  40.037  14.901
51626W        W22226  22.439   2.060  12.116
51627W        W22227  23.461   0.002   2.838
51628W        W22228  35.854  41.235   0.868
51629W        W22229  18.630   7.781   1.845
51630W        W22230  29.161  15.356   4.660
51631W        W22231  28.521  27.921  12.874
51632W        W22232  18.692  32.942   3.680
51633W        W22233   6.826  38.756  13.572
51634W        W22234  17.711   1.868  10.571
51635W        W22235  16.315  14.601   3.722
51636W        W22236  16.823   2.745   3.827
51637W        W22237  18.945  23.650   1.470
51638W        W22238  19.075   8.619  11.083
51639W        W22239  24.147  11.350  11.115
51640W        W22240   8.734  12.734  14.835
51641W        W22241  18.813  17.288   0.051
51642W        W22242  43.025  17.199  11.999
51643W        W22243  12.963   8.142   0.293
51644W        W22244  36.736  38.027  12.972
51645W        W22245  37.154  14.436   1.296
51646W        W22246  44.557  16.033  12.430
51647W        W22247   4.458   9.156   4.720
51648W        W22248  25.958   4.892   2.237
51649W        W22249  42.151   4.553   3.580
51650W        W22250  15.859   0.750  11.206
51651W        W22251   8.801  12.329   1.430
51652W        W22252  15.614  24.076   3.212
51653W        W22253  43.782  15.091  12.081
51654W        W22254  42.709  34.090  11.693
51655W        W22255  30.124  43.504  10.586
51656W        W22256  29.037  33.393  11.534
51657W        W22257   0.847  29.496   3.280
51658W        W22258  22.919  22.505   3.844
51659W        W22259  25.486  28.644   1.387
51660W        W22260  31.617  11.847   4.095
51661W        W22261  34.391  24.663   1.704
51662W        W22262  14.594  36.342   1.800
51663W        W22263  32.127  18.789  14.005
51664W        W22264   8.394   1.867  11.962
51665W        W22265  11.332  43.367   0.828
51666W        W22266  30.179  33.596  13.133
51667W        W22267   0.004  43.342   4.456
51668W        W22268   5.348   9.700   4.072
51669W        W22269  31.219   3.516   2.291
51670W        W22270  19.152  39.505   2.435
51671W        W22271  28.592   4.838  12.163
51672W        W22272  11.079  27.539  14.543
51673W        W22273   3.768  40.564  10.464
51674W        W22274   0.749  28.195  11.231
51675W        W22275  25.286   2.798   2.290
51676W        W22276  14.568   0.494  12.093
51677W        W22277   2.861  37.868   5.019
51678W        W22278  36.519  26.963  12.447
51679W        W22279  42.312  34.819  13.118
51680W        W22280  15.073  25.961   1.189
51681W        W22281  21.629  37.777  14.501
51682W        W22282  24.694   7.834   3.968
51683W        W22283  26.913  43.419  14.423
51684W        W22284  35.019  32.556   2.473
51685W        W22285  10.316  30.714  12.542
51686W        W22286  41.291   6.837  10.673
51687W        W22287   5.766  36.186   0.936
51688W        W22288  25.194  40.899  10.877
51689W        W22289  18.619   5.801  11.931
51690W        W22290  16.713   4.803   1.190
51691W        W22291   5.365  26.035   1.754
51692W        W22292  10.238  18.992  13.957
51693W        W22293  18.171  23.754  11.577
51694W        W22294   5.834  39.726   2.279
51695W        W22295  29.556   8.244   4.780
51696W        W22296  18.669  32.569  11.623
51697W        W22297  37.229   4.637   4.640
51698W        W22298  19.754  37.541  14.702
51699W        W22299   8.806  10.977  14.886
51700W        W22300   0.407  34.045   2.295
51701W        W22301   1.247  12.053   1.814
51702W        W22302   3.091  12.045   4.761
51703W        W22303  43.840  13.671   2.546
51704W        W22304   5.623   3.453   2.404
51705W        W22305  25.732  22.472   2.316
51706W        W22306  26.667  24.193   4.519
51707W        W22307   1.815  31.600  13.065
51708W        W22308  26.183  17.844  10.867
51709W        W22309   6.331  16.770   3.772
51710W        W22310  26.081  22.735  11.107
51711W        W22311  14.410  32.139   5.011
51712W        W22312  15.684   9.805   1.327
51713W        W22313  30.991  38.706   3.468
51714W        W22314  10.109  22.506   0.037
51715W        W22315  22.186   8.685  11.518
51716W        W22316  14.161  35.175  12.306
51717W        W22317  15.027  36.357   0.983
51718W        W22318  11.295  17.283   2.125
51719W        W22319  33.691  39.762  10.926
51720W        W22320  39.904  42.505  11.602
51721W        W22321  22.613  10.391   0.483
51722W        W22322  33.385   0.762   4.064
51723W        W22323  40.400   9.740   4.546
51724W        W22324   1.299  19.829   3.233
51725W        W22325  37.310  14.567   4.278
51726W        W22326  42.299  17.666  11.568
51727W        W22327  16.776  12.093   0.351
51728W        W22328  38.935  18.300   3.226
51729W        W22329  25.083   8.186  14.483
51730W        W22330  13.218  20.929  13.865
51731W        W22331  34.859  25.712   1.187
51732W        W22332  33.577  28.745  10.499
51733W        W22333  29.077  35.558  13.554
51734W        W22334  35.332  42.107  12.146
51735W        W22335  10.717  42.763   3.739
51736W        W22336  41.281   7.366   4.992
51737W        W22337  34.632  15.162  12.522
51738W        W22338   1.439  13.069   1.730
51739W        W22339  33.383  16.883  14.800
51740W        W22340  38.874   2.780   4.549
51741W        W22341   8.041   3.410  11.375
51742W        W22342  18.826  20.315  14.043
51743W        W22343  10.803   5.970  11.674
51744W        W22344  36.399  19.688   0.053
51745W        W22345  22.432  27.153  14.504
51746W        W22346  32.640   1.659   4.780
51747W        W22347   5.521  35.548   4.511
51748W        W22348  35.901  11.018   0.846
51749W        W22349  15.204  10.914  13.404
51750W        W22350  33.059  33.359   2.291
51751W        W22351  39.017  11.732  13.384
51752W        W22352   2.311   7.854   4.114
51753W        W22353  33.221  39.697   2.794
51754W        W22354   6.367   1.857   1.173
51755W        W22355  11.055  26.678   1.718
51756W        W22356  39.581  10.662   3.273
51757W        W22357   8.309   3.246   4.311
51758W        W22358   7.298  29.532  11.895
51759W        W22359   3.196  44.055  12.411
51760W        W22360   1.901  26.691  11.523
51761W        W22361  10.194  17.708  11.546
51762W        W22362   3.866  24.667   4.191
51763W        W22363  35.011  23.387  10.042
51764W        W22364  20.690  20.488   3.791
51765W        W22365  12.143  14.392  14.354
51766W        W22366   4.266  44.759   0.397
51767W        W22367  28.431  41.383  11.126
51768W        W22368  35.720  26.607  11.759
51769W        W22369  16.630  35.931   0.129
51770W        W22370   5.315  40.437   2.173
51771W        W22371  12.142   3.258  10.887
51772W        W22372  44.215  39.037   2.838
51773W        W22373  43.521  21.175  11.087
51774W        W22374  10.193  43.211  12.929
51775W        W22375  17.270   3.991   0.856
51776W        W22376  40.480  10.270   3.279
51777W        W22377  34.579  21.005   1.939
51778W        W22378  39.531  40.772  11.176
51779W        W22379  39.802   6.459  11.393
51780W        W22380  12.172  26.698  13.930
51781W        W22381  33.569  29.580   1.531
51782W        W22382  17.690   3.171   1.325
51783W        W22383  31.917  28.178   1.270
51784W        W22384  31.721  35.258   0.325
51785W        W22385   5.613  26.654  10.407
51786W        W22386  34.616  14.762  13.469
51787W        W22387  27.071   0.407  11.155
51788W        W22388  16.028  42.090  13.835
51789W        W22389  11.770   8.988   2.633
51790W        W22390   5.688  37.587  10.638
51791W        W22391  19.744   0.947  12.954
51792W        W22392  19.093  40.841   1.616
51793W        W22393  16.631  40.551   0.681
51794W        W22394  30.840  19.045   2.790
51795W        W22395   0.540  20.051   2.648
51796W        W22396   4.847  35.104   4.623
51797W        W22397  22.570  34.471   4.844
51798W        W22398  40.543  16.367   3.663
51799W        W22399  34.528  24.572   4.634
51800W        W22400  13.226  33.388   3.346
51801W        W22401  17.251  34.550  11.475
51802W        W22402  10.933  16.901   1.897
51803W        W22403  12.649  29.625   1.992
51804W        W22404  22.408  11.351   0.890
51805W        W22405  17.891   9.713   4.150
51806W        W22406  40.797  15.237   4.622
51807W        W22407  10.592  19.178  14.318
51808W        W22408  28.456  44.418  11.690
51809W        W22409  27.223  25.026  14.336
51810W        W22410  29.982  39.666  14.494
51811W        W22411  10.461  33.401   1.345
51812W        W22412  24.532  33.648  12.751
51813W        W22413  11.062   3.513  14.276
51814W        W22414  35.436  12.740   0.978
51815W        W22415  37.480   5.880  13.539
51816W        W22416  37.628  34.436  14.573
51817W        W22417  34.779  20.719  14.626
51818W        W22418   1.897  37.497   2.399
51819W        W22419  30.593   1.429  11.546
51820W        W22420  40.976  11.636   0.855
51821W        W22421   8.800  22.172  14.159
51822W        W22422   8.677  10.688   3.276
51823W        W22423  17.594  10.936   3.828
51824W        W22424  23.503  15.554   2.847
51825W        W22425  10.201  36.975   3.170
51826W        W22426  30.087  42.649   0.693
51827W        W22427  29.946  39.018   9.885
51828W        W22428  42.972  20.952  13.288
51829W        W22429  36.995   1.594   2.691
51830W        W22430  41.089  36.162   0.105
51831W        W22431  14.319   5.045  14.825
51832W        W22432  27.945   3.506   2.201
51833W        W22433  32.463  22.287   2.395
51834W        W22434   5.302  42.748  11.854
51835W        W22435  15.279   0.483   4.660
51836W        W22436   2.746  29.622   0.201
51837W        W22437  11.209  14.514   3.719
51838W        W22438  40.275  37.946  14.958
51839W        W22439  39.040  26.744   1.691
51840W        W22440  40.744  37.361  14.556
51841W        W22441  40.033   2.913  14.888
51842W        W22442  41.413  37.848  11.809
51843W        W22443  28.386  36.885   2.814
51844W        W22444  33.813  29.402  10.438
51845W        W22445  17.037  26.916  13.071
51846W        W22446  20.671  36.824   2.909
51847W        W22447  12.230  29.386  14.920
51848W        W22448  26.553  17.169   1.516
51849W        W22449  34.916  11.834  11.979
51850W        W22450  23.592  10.704  13.120
51851W        W22451  31.324  17.140  13.957
51852W        W22452  36.185  20.470   1.635
51853W        W22453  25.548  29.495  13.475
51854W        W22454  38.559  12.230  14.576
51855W        W22455  42.529  14.668   3.802
51856W        W22456  17.362  32.882   4.145
51857W        W22457  36.231  37.080  10.534
51858W        W22458  19.657  35.413   4.567
51859W        W22459  35.330  29.430   3.628
51860W        W22460  43.802  21.307   0.833
51861W        W22461   8.766   1.439  13.807
51862W        W22462  32.984  13.318  12.237
51863W        W22463  11.679  23.423  12.633
51864W        W22464  30.588  43.359   1.728
51865W        W22465  32.955  29.949  12.828
51866W        W22466  30.811  41.396  11.819
51867W        W22467  29.124  18.238   2.360
51868W        W22468   1.752  13.860   0.848
51869W        W22469   7.389   8.355   1.647
51870W        W22470  27.776  44.316  14.895
51871W        W22471  44.364  33.606  12.922
51872W        W22472   8.331   9.931   0.800
51873W        W22473  21.834   7.114   2.202
51874W        W22474   3.705  32.373  13.191
51875W        W22475  16.814  13.745  11.331
51876W        W22476  10.364  36.471  11.883
51877W        W22477  24.595  27.095   0.233
51878W        W22478   7.968   8.477   3.686
51879W        W22479  12.785   6.145   3.932
51880W        W22480  14.836  10.931   1.344
51881W        W22481  40.304  39.598   3.782
51882W        W22482  24.093  14.591   3.684
51883W        W22483  23.773  20.210   2.673
51884W        W22484  26.752   4.913   1.780
51885W        W22485  27.662  11.883  13.388
51886W        W22486  28.441  42.493   3.184
51887W        W22487  14.500  26.218  13.062
51888W        W22488  21.335   4.800   2.647
51889W        W22489   8.840  29.215  14.039
51890W        W22490  24.262  42.754   2.581
51891W        W22491  20.741  22.056  10.223
51892W        W22492   1.371  38.048   2.911
51893W        W22493  20.738  14.460   4.057
51894W        W22494  26.085   7.818   0.730
51895W        W22495   7.726  27.991   4.544
51896W        W22496   1.660  11.714  12.438
51897W        W22497   0.106  30.719  14.878
51898W        W22498  33.349  11.294   3.145
51899W        W22499  31.211  16.281  11.845
51900W        W22500  39.946   2.944   1.416
51901W        W22501  33.472  23.543   2.539
51902W        W22502  35.991  40.752  13.666
51903W        W22503  34.565  14.205  11.462
51904W        W22504   2.979  39.552   4.681
51905W        W22505  34.455  16.593  14.496
51906W        W22506  27.897  22.981  12.069
51907W        W22507  33.750   5.830   1.331
51908W        W22508  12.711   4.965  12.975
51909W        W22509  24.495  42.702  12.246
51910W        W22510   0.408  32.262  14.471
51911W        W22511  12.237  30.977  14.118
51912W        W22512  10.655  26.438  14.369
51913W        W22513  28.538  26.605   1.729
51914W        W22514  16.799  36.544  10.140
51915W        W22515  39.819  15.278   0.524
51916W        W22516  37.987  37.008   4.186
51917W        W22517  30.924   0.181   1.695
51918W        W22518  24.633  44.274  14.781
51919W        W22519  13.298  22.706  10.728
51920W        W22520  40.598  44.423  14.829
51921W        W22521   2.485  30.444  12.918
51922W        W22522  26.229   8.149  13.981
51923W        W22523  21.629   1.769  11.585
51924W        W22524  43.925  15.644   2.311
51925W        W22525   7.773  24.691  12.527
51926W        W22526  23.627  30.996  11.711
51927W        W22527  42.435  25.130   2.078
51928W        W22528  38.929   0.899   0.983
51929W        W22529  16.222  15.738  14.067
51930W        W22530   7.765  18.072   4.434
51931W        W22531  26.400  11.191  14.287
51932W        W22532  34.877  39.767   3.774
51933W        W22533   9.789  37.855  14.412
51934W        W22534  25.175  26.387  13.006
51935W        W22535  44.519   0.260   4.817
51936W        W22536  30.516  34.493  14.474
51937W        W22537  29.455   5.436   4.638
51938W        W22538  14.235  41.740  11.228
51939W        W22539  31.334  11.909   0.261
51940W        W22540   6.843  39.851  14.863
51941W        W22541  21.199  15.993  12.624
51942W        W22542   3.939  15.112   2.710
51943W        W22543  15.069   4.679   3.816
51944W        W22544  33.950  20.209   1.929
51945W        W22545  15.053  27.498  12.022
51946W        W22546   1.810   2.984   0.840
51947W        W22547  41.761  35.142  14.294
51948W        W22548  17.667  38.423   2.920
51949W        W22549  16.360  14.281  13.622
51950W        W22550  44.873  21.715   3.945
51951W        W22551  38.321  16.248   4.656
51952W        W22552  22.026  43.535   9.653
51953W        W22553  38.056  19.783  12.943
51954W        W22554   8.416  43.957  14.859
51955W        W22555   8.721   5.340   4.593
51956W        W22556  18.497   4.987  10.819
51957W        W22557  14.398  12.414  13.376
51958W        W22558  21.014  25.783   0.833
51959W        W22559  31.577  30.571   4.248
51960W        W22560  23.642  19.191   2.875
51961W        W22561  21.306  18.372   3.371
51962W        W22562   2.332  27.671  12.213
51963W        W22563   5.102  25.744   2.700
51964W        W22564  20.515   5.680  14.341
51965W        W22565  18.696  29.690   4.346
51966W        W22566  35.082  44.326   1.806
51967W        W22567   0.464  27.951  10.873
51968W        W22568  40.960  42.358  12.575
51969W        W22569   2.574   1.027  13.993
51970W        W22570  10.705  19.094   2.898
51971W        W22571   5.933  42.401   0.680
51972W        W22572  18.286   5.379  11.484
51973W        W22573  37.533  29.178  13.867
51974W        W22574   3.191  10.254   1.738
51975W        W22575   1.523  24.170  11.142
51976W        W22576  28.442   8.251   4.123
51977W        W22577  15.768  29.749  12.668
51978W        W22578   4.746  38.696  14.411
51979W        W22579  34.618   1.843  13.860
51980W        W22580  36.125   1.342   4.416
51981W        W22581  39.222  32.357  13.075
51982W        W22582  31.010  29.409   2.783
51983W        W22583   3.386  44.889   4.393
51984W        W22584   8.650  32.098  12.100
51985W        W22585  30.536  25.200   2.785
51986W        W22586  31.059  16.750   3.174
51987W        W22587  36.461  17.169  10.875
51988W        W22588  35.878  33.304  11.916
51989W        W22589  28.565  38.079   4.396
51990W        W22590  24.100  44.606   2.808
51991W        W22591  17.687   2.192   4.120
51992W        W22592  23.134   3.431  12.025
51993W        W22593  39.842   1.400  12.160
51994W        W22594  11.259  23.759   1.234
51995W        W22595  31.184  32.416   4.830
51996W        W22596  27.993   0.761   2.336
51997W        W22597   5.102  41.000   4.268
51998W        W22598   5.517  43.301   4.446
51999W        W22599  11.163  23.606   2.448
52000W        W22600  13.522  22.795  14.500
52001W        W22601  20.588  12.414   0.028
52002W        W22602  16.743  27.608  14.737
52003W        W22603  39.788  18.931   2.820
52004W        W22604  38.558  15.242   1.669
52005W        W22605  23.289   4.273   2.893
52006W        W22606  29.392  11.754  13.477
52007W        W22607  19.804  17.788  14.118
52008W        W22608  25.916  26.974   0.854
52009W        W22609  41.552  34.476   4.160
52010W        W22610  23.098  22.945  10.728
52011W        W22611  27.572  41.798  12.613
52012W        W22612  23.546  19.978  14.845
52013W        W22613   8.131  42.278   1.322
52014W        W22614  28.617  42.551  13.090
52015W        W22615   8.883  32.761  11.552
52016W        W22616  32.412  38.446  10.584
52017W        W22617  44.069  14.572   0.724
52018W        W22618  23.062  33.087  11.566
52019W        W22619  44.458  36.646  13.562
52020W        W22620  12.674   7.739  13.267
52021W        W22621   6.816   5.253  11.207
52022W        W22622   9.289  15.994  12.698
52023W        W22623   1.374  41.130  12.185
52024W        W22624  12.872  39.211   2.768
52025W        W22625  33.065  32.952   1.839
52026W        W22626  34.890  32.476  12.899
52027W        W22627  44.848  39.198  11.635
52028W        W22628  14.334   5.438  12.983
52029W        W22629  41.083  40.390  12.656
52030W        W22630   5.810   6.272  14.946
52031W        W22631   8.425   6.078   0.784
52032W        W22632  11.013  15.806  14.565
52033W        W22633  33.679   3.185   1.161
52034W        W22634   1.144  11.472   1.617
52035W        W22635   6.856  29.123   4.813
52036W        W22636  26.992  40.442   1.172
52037W        W22637  43.777  32.938   0.360
52038W        W22638  23.005  23.545  12.989
52039W        W22639  43.973  13.552  14.665
52040W        W22640  39.304   1.820  13.566
52041W        W22641   2.020  44.499  13.457
52042W        W22642  15.906  34.623   2.428
52043W        W22643  37.004  23.191  14.417
52044W        W22644  10.878  14.145   2.306
52045W        W22645  39.216  31.719   3.313
52046W        W22646  10.908   0.938   3.697
52047W        W22647  19.592  31.683   2.436
52048W        W22648   0.321  20.807  13.494
52049W        W22649  35.630  41.747   4.102
52050W        W22650   5.218   9.705  10.760
52051W        W22651  21.476  15.630  12.403
52052W        W22652  13.836  40.273  12.070
52053W        W22653  29.198   6.422  12.575
52054W        W22654   7.220  38.922   3.270
52055W        W22655  20.809  30.478   4.008
52056W        W22656  43.379  23.842   2.702
52057W        W22657   3.837  35.090  14.884
52058W        W22658   1.471  25.062  14.827
52059W        W22659  19.282  36.581   4.786
52060W        W22660  29.368  25.642   0.957
52061W        W22661  32.959  28.550   0.832
52062W        W22662  10.250   1.425   3.324
52063W        W22663  39.371  30.048  10.694
52064W        W22664  12.760  22.633   1.191
52065W        W22665  30.989  13.927   5.077
52066W        W22666   5.773   1.074  10.756
52067W        W22667   2.067  27.452  13.015
52068W        W22668  23.448  13.100   0.231
52069W        W22669  12.729  15.741  10.674
52070W        W22670  33.646  31.418  11.145
52071W        W22671  27.409  30.137   3.778
52072W        W22672  19.518  18.322   3.188
52073W        W22673  44.426  35.450   2.299
52074W        W22674  22.449  15.175  11.556
52075W        W22675  35.330  19.620  12.439
52076W        W22676  20.569  11.600   1.153
52077W        W22677   2.502  20.374   4.684
52078W        W22678  14.940  38.457   4.438
52079W        W22679  30.544  35.868   4.113
52080W        W22680  41.487  36.296   3.815
52081W        W22681  14.325  28.346   4.074
52082W        W22682   7.432  27.550   4.678
52083W        W22683  20.130  28.009   4.100
52084W        W22684  39.925  28.086  11.863
52085W        W22685  19.817   4.883   2.635
52086W        W22686   7.154  15.409   3.113
52087W        W22687  37.028  35.280  10.756
52088W        W22688   4.368  13.204   0.211
52089W        W22689  36.659  31.075   1.483
52090W        W22690  27.085   7.461   2.580
52091W        W22691   7.861  29.604   1.032
52092W        W22692  34.287  41.560  13.039
52093W        W22693   2.422  44.217   2.114
52094W        W22694  27.585  39.061  11.575
52095W        W22695   5.967  23.970   3.913
52096W        W22696  36.936  29.249  11.662
52097W        W22697  19.204  38.675  13.360
52098W        W22698  33.549   6.604   4.652
52099W        W22699  25.529  30.952   1.211
52100W        W22700  13.677  31.870  13.567
52101W        W22701  14.592   8.773  13.132
52102W        W22702  20.666  44.255  13.521
52103W        W22703   0.941  23.613   4.960
52104W        W22704   2.445  41.476  12.390
52105W        W22705  16.797  18.996   1.636
52106W        W22706  27.671   1.912   3.840
52107W        W22707  25.527  21.694   0.813
52108W        W22708   6.821  33.111   4.956
52109W        W22709  35.356  24.433   2.689
52110W        W22710  23.285   0.958  11.593
52111W        W22711   3.646   5.302  14.023
52112W        W22712  25.187  19.484   4.124
52113W        W22713  37.952  38.962   1.913
52114W        W22714  43.796  32.868   2.239
52115W        W22715  22.427  15.830  12.658
52116W        W22716  38.236   3.480  12.061
52117W        W22717  39.096  37.520   4.433
52118W        W22718  44.842  44.939   3.470
52119W        W22719  13.716   7.422  14.911
52120W        W22720  26.006  36.165  10.662
52121W        W22721  21.333  24.638  10.779
52122W        W22722   7.872  13.320   1.379
52123W        W22723  34.912  10.035   0.778
52124W        W22724  21.691  28.028   3.133
52125W        W22725  32.397  40.358  14.164
52126W        W22726  40.142  41.473   1.939
52127W        W22727  16.202  40.099  10.613
52128W        W22728  20.017  21.255  12.617
52129W        W22729  37.820  38.559   0.657
52130W        W22730  11.818  34.558   3.368
52131W        W22731  30.578  19.795   1.898
52132W        W22732   6.198  29.656   2.707
52133W        W22733   6.435  40.501  12.726
52134W        W22734  42.992  22.610   0.833
52135W        W22735  35.824  36.116   0.910
52136W        W22736  24.254  21.712  11.428
52137W        W22737  30.740   2.020   4.582
52138W        W22738   0.488  12.863   2.288
52139W        W22739  13.609  35.570   3.829
52140W        W22740  26.212  42.537   0.538
52141W        W22741  30.399   6.824  13.007
52142W        W22742  19.521  28.608  11.140
52143W        W22743  35.387  21.009  13.541
52144W        W22744  25.032   9.687  13.493
52145W        W22745   2.307   0.744  14.781
52146W        W22746  44.894  43.200  11.991
52147W        W22747   0.075  31.874   3.652
52148W        W22748  18.142  16.983  13.494
52149W        W22749  38.146  23.559  12.915
52150W        W22750  20.248  42.895  13.178
52151W        W22751  30.900  39.015   0.399
52152W        W22752   7.849   5.641  12.105
52153W        W22753  20.765   5.633  12.050
52154W        W22754  33.373   8.262   3.919
52155W        W22755  21.573  27.229   2.655
52156W        W22756   2.470  19.072  14.736
52157W        W22757  41.458  44.772   1.130
52158W        W22758  41.675   0.837   4.029
52159W        W22759  11.312  24.101   3.757
52160W        W22760  26.721  30.229   2.658
52161W        W22761  24.824  23.624   2.351
52162W        W22762  39.026  11.629   0.925
52163W        W22763  37.541   3.643   1.015
52164W        W22764   2.779  12.180  14.744
52165W        W22765  44.917  18.850  14.512
52166W        W22766  35.482  29.841  12.821
52167W        W22767  24.479  14.874  14.555
52168W        W22768   4.071  23.202   4.720
52169W        W22769  44.722   8.571   0.215
52170W        W22770  37.897  44.279   2.686
52171W        W22771  39.579  23.175  12.013
52172W        W22772   9.935  40.532  11.607
52173W        W22773  14.799   8.198   4.504
52174W        W22774  23.021   0.672  13.837
52175W        W22775  33.031  37.898  13.575
52176W        W22776   9.319  42.451  12.029
52177W        W22777  22.045  40.827   4.913
52178W        W22778  17.195  21.181   2.681
52179W        W22779  44.798   2.723   3.668
52180W        W22780  24.887  18.067   2.696
52181W        W22781  29.032  39.663   1.024
52182W        W22782  18.184  13.300  12.937
52183W        W22783  20.542   5.276   2.652
52184W        W22784  43.058   8.313   0.200
52185W        W22785  25.629  16.629  14.295
52186W        W22786  24.271  20.571   0.127
52187W        W22787   3.330  37.518  11.066
52188W        W22788  27.924   7.827  13.789
52189W        W22789  22.699  41.994   3.358
52190W        W22790  15.024  32.587  11.770
52191W        W22791   3.821  34.197   2.805
52192W        W22792   4.261  40.473  14.325
52193W        W22793  30.927  33.132   2.359
52194W        W22794  20.070  29.421   0.898
52195W        W22795  30.488  39.734   3.104
52196W        W22796  30.947   0.832  12.547
52197W        W22797   3.132  13.263  12.428
52198W        W22798   3.394   3.733  13.849
52199W        W22799  40.538  41.950  10.732
52200W        W22800   6.390  33.389  12.368
52201W        W22801  13.911   1.276   9.728
52202W        W22802  21.528  11.561  13.403
52203W        W22803  29.914  43.075  11.500
52204W        W22804  32.549  42.849  11.117
52205W        W22805  36.312  18.741  11.493
52206W        W22806  40.641  19.584  13.809
52207W        W22807  34.355  20.643  14.305
52208W        W22808  17.299  41.412  11.908
52209W        W22809  26.651  18.829  11.297
52210W        W22810  17.094  31.582   3.593
52211W        W22811  13.198  17.769  10.941
52212W        W22812  17.736   1.667   2.159
52213W        W22813  26.378  17.875  11.599
52214W        W22814  24.499  16.659   3.794
52215W        W22815  41.945  29.094   4.149
52216W        W22816  14.415  19.438  10.529
52217W        W22817  27.054   5.521  14.481
52218W        W22818  20.753  28.468  13.662
52219W        W22819  24.673  26.160   2.694
52220W        W22820  11.383  38.862  12.177
52221W        W22821  22.737   1.488  11.103
52222W        W22822  11.059  21.926   4.112
52223W        W22823  16.097  14.604  12.931
52224W        W22824   5.352  40.278  14.785
52225W        W22825  35.327  43.841  12.670
52226W        W22826  11.790  30.848   3.415
52227W        W22827  36.415  24.962   4.562
52228W        W22828  21.472  39.799  11.207
52229W        W22829   9.814   3.733  13.338
52230W        W22830  44.944  33.131   1.767
52231W        W22831  23.194  41.824   3.142
52232W        W22832  25.529  13.432  11.476
52233W        W22833  30.638  28.591   4.788
52234W        W22834  12.624  30.229  14.799
52235W        W22835  18.303  16.072  14.530
52236W        W22836  41.953   2.176   3.803
52237W        W22837   3.667  42.949  13.113
52238W        W22838  26.113  29.462   0.449
52239W        W22839  19.892   0.477   3.351
52240W        W22840   9.102   3.256   3.651
52241W        W22841   7.619  27.706  14.489
52242W        W22842  38.378   2.566   1.942
52243W        W22843  35.882  11.510   0.688
52244W        W22844  44.922  44.847  14.479
52245W        W22845  39.006  32.398   0.424
52246W        W22846  29.610  44.717  10.406
52247W        W22847  29.633  41.800  12.098
52248W        W22848   3.189   2.758  13.992
52249W        W22849  15.984  11.132  10.650
52250W        W22850  18.582   8.281  12.253
52251W        W22851   8.701  36.797   1.407
52252W        W22852   3.274   5.856   4.169
52253W        W22853  33.965  18.843  12.236
52254W        W22854  21.022  21.658  10.605
52255W        W22855  33.505   3.779   4.801
52256W        W22856   8.615   7.742  11.946
52257W        W22857  33.393  24.626   1.822
52258W        W22858  14.933  32.662  13.002
52259W        W22859  26.931  14.258  10.653
52260W        W22860  41.206  29.852   4.207
52261W        W22861   9.957  22.666   3.956
52262W        W22862  33.506  13.328   9.512
52263W        W22863  30.118  22.813   2.641
52264W        W22864  19.290  39.960  13.689
52265W        W22865  28.597  18.159   3.258
52266W        W22866  36.646  29.672   4.283
52267W        W22867  34.577  19.755  11.587
52268W        W22868  23.726  28.636   1.861
52269W        W22869  19.960  17.527   4.913
52270W        W22870  21.695  31.744   4.042
52271W        W22871  16.235  11.848   1.057
52272W        W22872  19.284  41.062   0.723
52273W        W22873  30.712  42.060   5.497
52274W        W22874  21.652  16.323  14.766
52275W        W22875  24.389  26.525  11.008
52276W        W22876  30.400  30.847  11.579
52277W        W22877  13.364   1.838  13.578
52278W        W22878  23.113  21.712   2.294
52279W        W22879  16.247   7.825   4.843
52280W        W22880  36.092  21.739   4.125
52281W        W22881  21.110   8.441  13.578
52282W        W22882  16.419  24.926   4.451
52283W        W22883   9.394  11.839  10.588
52284W        W22884   8.140  22.482  14.894
52285W        W22885  44.797  36.709  11.127
52286W        W22886  27.538   7.541   4.651
52287W        W22887  37.067  14.727  12.149
52288W        W22888  41.748  15.086  10.592
52289W        W22889  27.003   7.553   3.087
52290W        W22890  23.994  41.219  13.446
52291W        W22891  34.037   6.865   0.179
52292W        W22892  14.955  13.079  10.446
52293W        W22893  19.964  37.350   2.322
52294W        W22894   2.494  11.210  14.769
52295W        W22895   7.424  40.236   2.746
52296W        W22896  12.672  43.587  11.964
52297W        W22897  26.108  34.244  12.028
52298W        W22898  11.523  33.504   5.380
52299W        W22899  31.602  28.197   2.802
52300W        W22900  43.866   4.471   2.454
52301W        W22901  14.741   3.899   0.250
52302W        W22902  31.010   8.220  14.912
52303W        W22903  42.803   7.894   0.436
52304W        W22904  35.633  39.532  14.874
52305W        W22905  40.214   0.727   1.149
52306W        W22906  16.602  33.510   2.115
52307W        W22907  29.037   9.845  14.008
52308W        W22908  32.126  10.768   4.364
52309W        W22909  11.652   5.762  11.912
52310W        W22910  14.528   1.789  10.771
52311W        W22911   9.888   6.762   3.893
52312W        W22912  18.515  24.503   1.856
52313W        W22913   0.015  37.551  11.223
52314W        W22914  23.853   1.458  13.965
52315W        W22915  17.214  13.074   4.662
52316W        W22916  13.274  37.595  10.313
52317W        W22917  23.617  37.403   4.141
52318W        W22918  26.465  38.008  12.348
52319W        W22919  12.558   2.243  13.509
52320W        W22920  26.938  21.105   1.410
52321W        W22921  18.780  13.642   4.638
52322W        W22922   4.851  29.960   0.984
52323W        W22923  42.759  17.001  10.752
52324W        W22924  30.926  17.695  10.772
52325W        W22925   1.981   8.975   0.352
52326W        W22926   2.811   0.891  14.914
52327W        W22927  37.973  10.274   0.273
52328W        W22928  32.129   9.698   2.805
52329W        W22929  16.768   7.227  12.138
52330W        W22930  19.054  29.578   0.702
52331W        W22931   7.968  16.760  13.485
52332W        W22932   0.960  15.669  12.086
52333W        W22933  21.117  43.773   3.231
52334W        W22934  41.094  21.192   1.655
52335W        W22935  41.942  28.634  14.230
52336W        W22936  14.515  32.940  13.853
52337W        W22937  26.704  34.780   4.109
52338W        W22938  41.501  15.081   4.160
52339W        W22939  10.378  18.916   4.997
52340W        W22940  17.001  31.157  12.075
52341W        W22941  36.596   7.649   0.777
52342W        W22942   9.003   7.813   4.139
52343W        W22943  28.109  36.447   2.447
52344W        W22944  15.181  39.106  14.435
52345W        W22945   5.366  41.444  12.519
52346W        W22946  42.658  30.831  13.276
52347W        W22947  17.235  21.687   0.205
52348W        W22948  25.763  38.970   2.205
52349W        W22949  38.807  41.547  14.002
52350W        W22950  29.125   6.647  14.873
52351W        W22951   5.227  16.705  10.955
52352W        W22952  38.105  32.301  12.583
52353W        W22953  43.883   6.895  14.125
52354W        W22954  43.278  38.118  12.875
52355W        W22955  22.574  29.126   3.746
52356W        W22956  42.843  35.270   1.310
52357W        W22957   8.870  18.017  13.469
52358W        W22958  35.513  43.236   2.277
52359W        W22959  22.335   8.603  12.555
52360W        W22960  30.056  23.996  11.535
52361W        W22961  39.062  19.102  12.664
52362W        W22962  44.977  28.017  14.815
52363W        W22963  24.024  41.306   3.870
52364W        W22964  37.446  29.093  11.252
52365W        W22965  33.366  14.205  13.423
52366W        W22966  36.909  14.068  10.864
52367W        W22967  16.124   8.331   1.918
52368W        W22968  27.116  22.705   2.178
52369W        W22969  19.179   5.784   4.636
52370W        W22970   9.796  40.806   2.394
52371W        W22971  43.940  24.197  12.049
52372W        W22972  19.826  29.949   2.307
52373W        W22973   8.244  32.989  13.294
52374W        W22974   4.833  37.014   4.188
52375W        W22975  15.716   7.216  12.173
52376W        W22976   9.108  16.105  11.561
52377W        W22977  37.951  17.282   3.373
52378W        W22978  40.076   2.325  13.923
52379W        W22979   1.504  30.759   0.364
52380W        W22980  13.154  24.794   1.168
52381W        W22981  36.348   6.820  13.560
52382W        W22982  25.347  22.109  11.974
52383W        W22983  24.240  15.601  10.317
52384W        W22984  38.283  35.954   3.380
52385W        W22985   4.220  22.892  11.081
52386W        W22986   9.214  19.810  12.979
52387W        W22987   3.487  40.570   1.925
52388W        W22988  41.239  36.841   0.782
52389W        W22989   8.195  31.381   2.378
52390W        W22990  35.133  26.582   0.210
52391W        W22991  28.185  29.029  10.974
52392W        W22992  30.418  24.561   0.886
52393W        W22993  33.544  15.190   1.696
52394W        W22994  10.238  33.902  14.423
52395W        W22995   4.228  44.253   0.499
52396W        W22996  19.522  20.100  11.326
52397W        W22997  36.521  25.443   1.608
52398W        W22998  35.052  28.939   0.354
52399W        W22999   9.388  10.104  13.924
52400W        W23000  36.477  32.712   4.188
52401W        W23001  14.311   7.718   1.794
52402W        W23002  22.538  12.949   3.155
52403W        W23003  42.513  27.557  12.615
52404W        W23004  14.188  15.379  14.006
52405W        W23005  18.145  14.645  14.699
52406W        W23006   6.490  40.247  14.811
52407W        W23007  15.382   4.634   2.171
52408W        W23008  25.099  35.016   1.508
52409W        W23009  36.543  19.938  12.832
52410W        W23010  44.925  30.927   1.149
52411W        W23011   9.112  35.556  12.343
52412W        W23012  35.528  37.584   0.199
52413W        W23013  29.923   5.510   4.885
52414W        W23014  27.169   4.511   4.204
52415W        W23015  18.153   4.783   2.574
52416W        W23016  22.393  14.823  11.187
52417W        W23017  16.794  13.232   1.264
52418W        W23018  42.098  19.029   2.483
52419W        W23019  19.011  12.263   3.341
52420W        W23020  30.500  17.320  13.439
52421W        W23021  13.374  18.805   4.067
52422W        W23022  40.190   2.435  12.134
52423W        W23023  40.792  14.679  14.837
52424W        W23024   5.917  14.138   1.477
52425W        W23025  11.828  10.381   3.141
52426W        W23026  28.462  29.210   2.519
52427W        W23027   2.716  11.460  11.729
52428W        W23028  42.840   5.901  14.360
52429W        W23029  44.490  33.427   0.248
52430W        W23030  31.060  10.145  12.827
52431W        W23031  22.464  12.687   4.080
52432W        W23032  11.663   3.941  12.863
52433W        W23033  26.482  40.462   0.997
52434W        W23034  44.988  31.647  13.349
52435W        W23035  25.981   3.460  13.271
52436W        W23036  11.604  15.667  12.546
52437W        W23037  39.015  10.818  11.868
52438W        W23038  20.864   3.919   2.530
52439W        W23039  18.646  21.271   4.354
52440W        W23040   1.662  17.575  10.689
52441W        W23041  23.045  36.032   1.353
52442W        W23042  31.509  37.088  11.173
52443W        W23043  42.861  42.497  13.093
52444W        W23044  20.256  22.014   3.911
52445W        W23045  16.328  25.259   2.739
52446W        W23046  12.778  18.040   3.364
52447W        W23047  23.150  32.315  12.881
52448W        W23048  16.509  15.342  13.821
52449W        W23049  10.298  28.595   3.589
52450W        W23050   4.256  16.810  14.909
52451W        W23051  12.208  18.589   0.691
52452W        W23052  32.423  41.024   3.136
52453W        W23053  13.116  41.821   2.682
52454W        W23054  36.319  12.977   1.802
52455W        W23055  12.174   7.663  13.885
52456W        W23056  31.133  27.462  10.672
52457W        W23057  41.810   8.385   1.737
52458W        W23058  37.998  31.912   0.658
52459W        W23059  26.390   0.499  14.962
52460W        W23060   9.947  11.737  10.750
52461W        W23061   0.810  18.637   4.342
52462W        W23062  42.560  44.897   3.047
52463W        W23063  29.402   1.935   4.235
52464W        W23064  30.558  24.852   0.496
52465W        W23065  18.711   7.883   0.306
52466W        W23066   6.121  30.015  10.143
52467W        W23067  27.457  17.378   4.902
52468W        W23068  27.550  10.952  14.863
52469W        W23069  23.717  27.960  12.584
52470W        W23070  31.676  13.928   1.270
52471W        W23071  39.965  18.093   2.836
52472W        W23072  26.049  35.916  13.285
52473W        W23073  10.296  25.443   3.604
52474W        W23074  11.737  40.312  10.989
52475W        W23075  17.174  19.476  12.558
52476W        W23076   1.763   2.501   0.201
52477W        W23077   9.139  31.532   3.101
52478W        W23078  32.106  32.880  13.802
52479W        W23079  26.154  30.471   0.232
52480W        W23080  30.514  16.880   4.143
52481W        W23081   4.154  24.697   3.726
52482W        W23082  32.022  44.536   0.466
52483W        W23083  40.134  43.492  12.312
52484W        W23084   7.002  11.880   3.663
52485W        W23085   0.673  44.458   4.278
52486W        W23086   1.466  18.572  13.398
52487W        W23087  17.777  24.217  14.483
52488W        W23088  16.821  17.034   0.520
52489W        W23089  10.315  15.741   4.561
52490W        W23090  33.823  28.202  12.471
52491W        W23091  20.813  25.229   3.708
52492W        W23092  10.265  41.500  12.610
52493W        W23093  41.768   0.549  13.011
52494W        W23094  34.281   9.206  12.453
52495W        W23095  12.309   3.510   3.133
52496W        W23096   1.561   9.795  11.984
52497W        W23097  16.669   1.401   2.586
52498W        W23098  36.405  30.459  13.494
52499W        W23099  29.943  32.812  10.669
52500W        W23100  35.046  28.431  13.852
52501W        W23101  43.111  36.536  11.310
52502W        W23102  10.078  34.568   9.994
52503W        W23103  32.995   6.777  12.133
52504W        W23104   3.657   3.331  12.617
52505W        W23105  26.140   8.710   3.640
52506W        W23106  30.898  29.230   1.305
52507W        W23107  20.298  18.138   4.235
52508W        W23108  44.756  18.749   1.740
52509W        W23109   7.153   9.893  10.728
52510W        W23110  12.745   1.793   4.721
52511W        W23111  22.022  19.082  14.485
52512W        W23112  30.607  40.426  14.938
52513W        W23113  18.223   9.734  12.681
52514W        W23114  12.589   1.897   4.220
52515W        W23115  25.503   4.149   3.365
52516W        W23116  29.157  24.298  12.070
52517W        W23117  19.608  27.231   0.208
52518W        W23118  16.000  11.710   4.691
52519W        W23119  41.739  33.166  14.500
52520W        W23120  17.795  13.025   5.307
52521W        W23121   6.208  30.595   2.669
52522W        W23122  32.663  17.250   0.925
52523W        W23123  42.549  17.326   0.243
52524W        W23124  31.509  12.914  13.462
52525W        W23125   9.744  31.595   3.791
52526W        W23126  28.692   2.416   2.247
52527W        W23127  40.035  18.617   1.675
52528W        W23128  15.751  22.100   2.131
52529W        W23129  32.288  44.513   2.388
52530W        W23130  30.701  25.582   4.167
52531W        W23131   9.397  39.051  13.899
52532W        W23132  17.266   6.817   4.720
52533W        W23133   2.225   4.310  12.932
52534W        W23134   4.226  16.225  14.086
52535W        W23135  26.260  40.825   0.008
52536W        W23136  35.584   2.822   2.474
52537W        W23137  40.648  38.886  14.861
52538W        W23138  30.689  28.412   3.474
52539W        W23139  41.326  16.767  12.513
52540W        W23140   7.135  18.662   0.070
52541W        W23141  25.210  19.753   2.209
52542W        W23142  10.961  22.145   1.933
52543W        W23143  41.353  12.398  14.801
52544W        W23144  43.686  37.893  11.631
52545W        W23145  12.253  25.512   0.134
52546W        W23146  24.736  34.059  11.975
52547W        W23147  39.539  15.987   3.062
52548W        W23148   5.825  31.674   2.467
52549W        W23149  24.948  38.934  10.628
52550W        W23150  31.616  40.512  12.617
52551W        W23151   1.504   4.586  14.084
52552W        W23152  36.914  41.625  13.586
52553W        W23153  15.580  22.512  12.528
52554W        W23154  31.443  44.839   2.551
52555W        W23155   4.342   3.955  11.964
52556W        W23156  12.914  17.213  14.127
52557W        W23157  43.331   2.739   1.288
52558W        W23158  39.903  21.546  12.683
52559W        W23159   5.736   0.589   4.232
52560W        W23160  20.829  15.892  14.773
52561W        W23161   3.169  13.921  13.919
52562W        W23162  12.194   2.372   2.306
52563W        W23163   8.399   1.270   1.782
52564W        W23164   8.594  25.942  11.075
52565W        W23165  11.276  27.439   0.427
52566W        W23166  20.152  16.374   0.879
52567W        W23167  12.361  14.321   2.939
52568W        W23168  11.608  24.507   1.755
52569W        W23169   5.304  42.264  11.595
52570W        W23170  21.289  19.826  14.345
52571W        W23171   0.267  19.326  13.449
52572W        W23172   8.241  23.804  12.849
52573W        W23173  42.462  37.304  13.697
52574W        W23174  30.590   9.514  13.766
52575W        W23175   4.272  26.722   0.372
52576W        W23176  38.120  22.665  12.897
52577W        W23177  10.833  40.367  12.045
52578W        W23178  13.744  12.533   1.966
52579W        W23179  17.097  22.619   1.893
52580W        W23180  30.627  31.686   4.647
52581W        W23181  10.224  13.859  11.676
52582W        W23182  20.330  42.786  11.265
52583W        W23183  35.138   6.110  12.318
52584W        W23184  24.530   4.341  11.602
52585W        W23185   0.292  33.164  10.791
52586W        W23186  25.586  39.996   2.739
52587W        W23187  10.208  29.527  12.400
52588W        W23188  11.617  20.422  13.695
52589W        W23189  11.777   9.897   1.267
52590W        W23190   5.344  44.714   4.129
52591W        W23191  10.295  16.094  13.471
52592W        W23192   1.939  13.240   4.190
52593W        W23193  42.466  18.554   1.153
52594W        W23194  12.607  19.984  10.579
52595W        W23195  19.232   0.333  13.393
52596W        W23196  40.820  18.889  11.245
52597W        W23197  15.053  37.126  12.497
52598W        W23198  28.532  23.759  13.929
52599W        W23199   4.293   8.727  11.092
52600W        W23200  16.790   4.275   1.912
52601W        W23201  16.627   4.683  13.888
52602W        W23202  12.643  39.956  11.180
52603W        W23203  37.426   6.990   0.723
52604W        W23204   8.321  16.546   3.370
52605W        W23205  26.094  44.317   0.717
52606W        W23206  12.180  32.114  14.980
52607W        W23207  31.610  25.149  14.296
52608W        W23208   1.864  35.681  14.602
52609W        W23209  30.769   6.188   3.358
52610W        W23210   0.346  20.964   0.808
52611W        W23211  32.317  15.780   5.101
52612W        W23212  13.801  16.915  11.979
52613W        W23213   2.957  15.281   3.392
52614W        W23214  17.704  31.892   1.944
52615W        W23215  27.036  41.339   2.353
52616W        W23216  32.590  34.137   2.298
52617W        W23217  36.016   7.698   3.338
52618W        W23218  13.835  44.697  13.878
52619W        W23219  29.473  32.034   1.717
52620W        W23220  30.565  42.943   2.038
52621W        W23221   4.306   1.809  10.622
52622W        W23222  25.499  18.944  11.234
52623W        W23223   4.700  15.659   3.283
52624W        W23224  33.919   3.005   0.746
52625W        W23225  24.872   8.274   0.435
52626W        W23226  44.982  14.301  12.562
52627W        W23227   1.978   0.158   4.300
52628W        W23228  10.899   4.788   0.039
52629W        W23229  22.357  30.085  14.329
52630W        W23230   9.309  35.702  11.456
52631W        W23231   5.134  18.015  12.357
52632W        W23232  44.554   6.934  14.797
52633W        W23233   7.353  38.027   0.512
52634W        W23234  34.618   4.156   0.839
52635W        W23235  37.178  37.106   4.448
52636W        W23236  44.784   0.946  12.560
52637W        W23237  35.519  24.286  14.441
52638W        W23238  38.237  22.976  12.419
52639W        W23239  40.395  16.739  12.737
52640W        W23240  21.552   6.764  13.400
52641W        W23241   0.501  21.467   1.866
52642W        W23242  10.957   8.751  11.537
52643W        W23243  18.636  37.108  13.340
52644W        W23244  41.048   8.837  11.050
52645W        W23245  43.563  13.390  11.671
52646W        W23246   6.120  34.029  13.629
52647W        W23247  12.242   1.005  12.596
52648W        W23248  35.637  40.059   1.668
52649W        W23249  16.438  44.705  11.227
52650W        W23250  18.731   9.267   4.117
52651W        W23251  15.189  31.024   1.280
52652W        W23252  33.447  17.981   3.728
52653W        W23253  44.944  44.378   3.644
52654W        W23254  35.301  28.623   2.858
52655W        W23255  26.932  12.247   4.990
52656W        W23256  25.594  38.403  10.576
52657W        W23257  43.351  40.040   1.692
52658W        W23258   0.671  40.555  14.957
52659W        W23259  42.572  18.639  12.333
52660W        W23260  14.234  44.077   1.255
52661W        W23261  37.054  21.326   3.173
52662W        W23262   9.082  26.387   4.140
52663W        W23263   8.633   0.484   0.292
52664W        W23264  36.877  32.593   0.215
52665W        W23265  11.854  43.089  14.274
52666W        W23266  35.976   5.699   2.903
52667W        W23267  15.542  13.957   4.455
52668W        W23268  36.967   9.552   1.906
52669W        W23269  18.251   1.165  12.540
52670W        W23270  40.981  43.908   0.422
52671W        W23271  12.747  33.374  11.579
52672W        W23272  36.035  13.432  10.834
52673W        W23273  36.445  25.743  13.021
52674W        W23274   3.687  20.199   2.319
52675W        W23275  27.563   7.959  14.144
52676W        W23276  20.216  32.341  10.785
52677W        W23277   0.177   6.932   2.399
52678W        W23278  43.462  35.086  11.154
52679W        W23279  35.355   0.939   4.335
52680W        W23280  13.196  33.878  10.977
52681W        W23281  22.868   6.906  14.134
52682W        W23282  15.738   3.464   1.925
52683W        W23283  29.572   9.783  13.938
52684W        W23284  40.105   5.557  11.496
52685W        W23285  42.879  21.269  12.802
52686W        W23286  28.416  31.553  13.105
52687W        W23287  33.308  34.266  11.497
52688W        W23288  20.975  30.174   4.922
52689W        W23289  19.541  22.653  12.099
52690W        W23290  18.264  16.668   3.778
52691W        W23291  17.590   9.893   3.201
52692W        W23292  20.010  44.551   3.361
52693W        W23293  23.564  18.080   1.416
52694W        W23294  39.568  14.079   1.876
52695W        W23295   1.308   6.167  12.999
52696W        W23296   0.777   3.229  12.950
52697W        W23297  20.449  24.044  13.432
52698W        W23298  22.146  28.179   2.925
52699W        W23299  13.341  42.277   0.786
52700W        W23300   9.060   4.941  13.725
52701W        W23301  39.790  40.725   0.325
52702W        W23302  31.513  22.820   3.201
52703W        W23303  14.191  41.237   0.521
52704W        W23304   2.814  34.430  12.931
52705W        W23305  42.770  36.749   4.575
52706W        W23306  12.644   6.838  12.162
52707W        W23307   3.527   0.838  13.996
52708W        W23308  42.504   7.752  12.048
52709W        W23309   4.288  25.488  12.847
52710W        W23310  28.442  40.436  11.182
52711W        W23311  16.172   5.524   1.787
52712W        W23312  37.472  10.877  14.837
52713W        W23313   7.778  25.535  13.045
52714W        W23314  35.986   0.515  11.670
52715W        W23315  33.566  20.032  10.535
52716W        W23316   9.346  33.476  14.043
52717W        W23317  18.068  13.060  11.434
52718W        W23318  19.047  23.697   1.973
52719W        W23319  21.094  18.664  10.874
52720W        W23320  28.945  21.410   2.319
52721W        W23321   0.454   5.910   1.719
52722W        W23322  27.279  14.219  11.549
52723W        W23323  32.853  33.166  11.572
52724W        W23324   4.829  40.308  11.717
52725W        W23325  36.039  15.594  14.221
52726W        W23326  16.908  37.644   1.834
52727W        W23327  33.931  36.115  12.091
52728W        W23328  23.517  12.865   4.559
52729W        W23329  40.822  41.442  12.427
52730W        W23330  40.466  39.479   4.678
52731W        W23331  21.673   6.699  10.751
52732W        W23332  33.811  16.299   3.259
52733W        W23333  16.610  12.776   3.771
52734W        W23334   7.438  21.821   3.717
52735W        W23335  42.214  33.463  12.303
52736W        W23336   1.494   0.857  12.330
52737W        W23337   3.738  38.642  10.532
52738W        W23338   2.436  11.795  13.591
52739W        W23339   5.297  30.784   3.803
52740W        W23340  25.541  42.937   0.776
52741W        W23341  36.398   3.775  10.447
52742W        W23342  21.729  27.014  11.971
52743W        W23343   8.550  22.911  10.707
52744W        W23344  24.558   5.792  13.343
52745W        W23345  41.533  44.892  13.773
52746W        W23346  42.935  42.766   4.616
52747W        W23347  14.799  32.404  12.580
52748W        W23348  30.128   2.421  14.011
52749W        W23349   2.748  12.648   2.715
52750W        W23350  30.602   5.019   0.668
52751W        W23351   1.065  22.666   3.241
52752W        W23352  13.675  33.611  12.024
52753W        W23353  26.098  28.458  10.701
52754W        W23354  32.516  17.800  11.238
52755W        W23355  41.460   7.822  10.720
52756W        W23356  39.529  42.020   1.333
52757W        W23357   8.771  28.378   1.870
52758W        W23358  27.891  40.065   2.838
52759W        W23359  11.406  10.583   3.770
52760W        W23360   8.423  21.265   1.779
52761W        W23361  41.426  38.991   1.388
52762W        W23362  16.828  29.265   2.789
52763W        W23363  34.143  27.933  10.355
52764W        W23364  32.472  41.367  12.098
52765W        W23365  42.109  19.915   0.914
52766W        W23366  22.729   0.226  13.828
52767W        W23367  16.020   1.507   1.451
52768W        W23368  43.293  11.263  14.818
52769W        W23369  40.456  29.013  12.318
52770W        W23370  22.332  31.905  14.375
52771W        W23371  34.392  23.959  14.501
52772W        W23372  39.637  19.679  13.893
52773W        W23373   3.645  24.759  11.540
52774W        W23374  16.971  42.358  10.671
52775W        W23375  41.485  34.806  12.060
52776W        W23376  12.733   5.788   1.671
52777W        W23377  12.628   0.715   2.418
52778W        W23378   0.378  30.709   3.035
52779W        W23379  13.753   3.935   2.661
52780W        W23380   1.273  25.875   4.006
52781W        W23381  24.286   8.921  10.256
52782W        W23382  29.866  31.400  11.196
52783W        W23383  18.077  21.103   0.875
52784W        W23384  21.943  38.288   3.754
52785W        W23385  21.705  25.623  10.653
52786W        W23386  26.680  32.498   3.083
52787W        W23387  39.470  31.575  12.016
52788W        W23388  36.540  34.563   2.866
52789W        W23389  14.184  33.047   0.905
52790W        W23390  24.230  36.560  11.572
52791W        W23391  13.949  21.616  12.886
52792W        W23392   4.711  16.727   0.232
52793W        W23393  40.496  30.219  10.779
52794W        W23394   4.440  35.382   5.094
52795W        W23395  13.794  37.799  13.008
52796W        W23396  19.775   9.169   2.263
52797W        W23397  35.926   3.850  14.873
52798W        W23398  14.638  42.060   0.387
52799W        W23399  11.137  18.686   1.754
52800W        W23400  36.484  42.961  14.775
52801W        W23401  36.685  25.079  13.474
52802W        W23402  16.128  18.220  10.584
52803W        W23403  12.452  25.015  10.962
52804W        W23404  31.043  29.149  11.550
52805W        W23405   6.738  18.764  10.629
52806W        W23406  44.735  23.252   0.389
52807W        W23407  36.509  37.452  12.805
52808W        W23408  12.668  14.993  11.157
52809W        W23409   4.522  37.852   0.892
52810W        W23410  18.530  39.007  11.260
52811W        W23411  12.932  33.571   2.019
52812W        W23412  17.107  11.737   1.866
52813W        W23413  28.455  34.255   3.724
52814W        W23414   5.405  17.946  14.478
52815W        W23415   7.755  15.825   0.447
52816W        W23416  38.958  44.559   1.341
52817W        W23417  42.935  23.777   4.873
52818W        W23418  17.002  15.091   1.053
52819W        W23419   7.803   7.307   3.033
52820W        W23420  32.828  40.861   0.406
52821W        W23421  44.507  21.176   4.547
52822W        W23422  40.244  29.988  12.391
52823W        W23423  41.025  40.024   1.210
52824W        W23424  44.037   5.374  11.181
52825W        W23425  20.155   7.165  12.172
52826W        W23426   7.322  32.648  11.968
52827W        W23427  25.534   1.457   0.350
52828W        W23428  17.145  35.472  13.489
52829W        W23429  40.756   2.753   3.699
52830W        W23430  37.970  42.400   4.072
52831W        W23431   9.901  18.818  13.530
52832W        W23432   8.184   7.759  11.667
52833W        W23433  35.089  27.153  11.588
52834W        W23434  14.813  15.760  13.516
52835W        W23435  41.094  21.569  13.883
52836W        W23436  20.001  15.658  14.351
52837W        W23437  15.637  30.109  14.120
52838W        W23438  30.693  38.914   5.398
52839W        W23439   7.797  26.971  14.234
52840W        W23440  27.027  29.057  11.028
52841W        W23441  18.285   6.609  13.883
52842W        W23442  12.614  19.282   3.195
52843W        W23443  24.728  39.556   0.699
52844W        W23444  33.412   2.436   1.748
52845W        W23445   7.008   0.251   2.408
52846W        W23446  37.857  39.938   0.972
52847W        W23447  28.109  39.303   3.245
52848W        W23448  43.052   2.367   2.020
52849W        W23449   0.892  16.345  14.440
52850W        W23450  44.064  30.652   1.883
52851W        W23451  42.453  14.589   1.420
52852W        W23452  33.648   1.706   1.282
52853W        W23453   6.899  30.449   0.497
52854W        W23454  15.205   1.770  12.992
52855W        W23455  12.767   1.813   3.275
52856W        W23456  22.453  31.089   2.636
52857W        W23457  26.277   9.259   0.410
52858W        W23458  34.674   4.340   2.278
52859W        W23459   2.516   8.598  14.517
52860W        W23460  20.075  21.972  13.860
52861W        W23461  15.745  17.373   4.590
52862W        W23462  15.232  13.621   2.527
52863W        W23463  38.774  37.644  14.412
52864W        W23464  44.136  27.311  11.224
52865W        W23465  32.517  11.410   1.911
52866W        W23466  39.530  34.118   0.029
52867W        W23467  27.092   7.147  11.103
52868W        W23468  33.795   6.899  12.508
52869W        W23469   2.431   1.404  13.494
52870W        W23470  17.691   1.689  14.842
52871W        W23471  10.032  33.879   4.722
52872W        W23472  35.161  13.154  13.057
52873W        W23473  37.452   0.974  14.633
52874W        W23474  26.447   8.367   1.347
52875W        W23475  38.462  34.641   2.938
52876W        W23476  33.549  41.914  12.601
52877W        W23477  34.279   4.002   1.208
52878W        W23478  16.139  14.191  11.118
52879W        W23479  23.779  20.720   0.121
52880W        W23480  18.271  31.196   3.675
52881W        W23481  33.432  33.798  11.669
52882W        W23482   0.772   9.657   1.425
52883W        W23483  25.224  31.076   0.734
52884W        W23484   3.482  21.578  10.419
52885W        W23485  15.547  25.434  14.543
52886W        W23486   4.165  38.716   2.822
52887W        W23487   0.764   5.660  14.937
52888W        W23488   9.181  22.256   0.673
52889W        W23489  33.829  43.513  12.082
52890W        W23490  42.523  38.835   3.785
52891W        W23491  36.527  29.938   1.428
52892W        W23492  18.402  16.749  12.282
52893W        W23493  39.677   1.431   2.357
52894W        W23494  13.403  30.500  11.862
52895W        W23495   9.632  26.994  12.457
52896W        W23496  43.125  35.364  14.421
52897W        W23497  31.349  14.396  12.399
52898W        W23498  37.820  13.724   1.360
52899W        W23499  28.693  30.425   4.922
52900W        W23500  39.959  29.092  13.495
52901W        W23501   5.500   8.235  14.364
52902W        W23502  27.890  13.203   2.030
52903W        W23503  13.078   3.894  13.952
52904W        W23504  43.138   0.490   2.793
52905W        W23505  26.584  23.013   2.779
52906W        W23506  15.809  42.405   2.858
52907W        W23507  14.945   4.314  14.992
52908W        W23508  35.851  41.489  13.018
52909W        W23509   2.970   5.963  13.504
52910W        W23510  17.468  33.531  13.399
52911W        W23511  36.077  36.485  14.430
52912W        W23512  11.305  41.896  10.484
52913W        W23513  43.674  26.006   2.198
52914W        W23514  37.526  32.034  14.854
52915W        W23515  15.621   7.592   4.150
52916W        W23516  21.021  22.397   3.852
52917W        W23517  28.598  34.842   1.405
52918W        W23518  16.605  21.749   2.925
52919W        W23519  41.786   5.877  13.360
52920W        W23520  30.593  44.294  12.322
52921W        W23521  24.638  35.954   3.351
52922W        W23522  15.840  32.938   2.945
52923W        W23523   4.682  34.602  11.863
52924W        W23524  34.463  20.273   0.311
52925W        W23525  34.212  37.784   2.760
52926W        W23526   8.245   8.212   4.333
52927W        W23527  12.254  13.134   2.842
52928W        W23528  36.875  22.190  13.920
52929W        W23529  27.562  26.348  14.462
52930W        W23530  40.756  23.699   1.665
52931W        W23531  27.503   2.801  11.392
52932W        W23532  37.001  39.206   3.453
52933W        W23533   7.764   8.996   5.209
52934W        W23534  20.064  38.821   3.678
52935W        W23535  36.854  24.699   0.306
52936W        W23536  14.760  44.601  13.071
52937W        W23537   8.457  39.941   1.230
52938W        W23538  35.533   4.573  12.575
52939W        W23539  20.311  31.035   2.567
52940W        W23540  29.511   9.448   1.244
52941W        W23541  32.217  25.931   0.018
52942W        W23542   7.690  44.750  14.170
52943W        W23543  18.766  20.695   1.991
52944W        W23544   9.593  14.659  11.650
52945W        W23545  35.193  28.913   4.508
52946W        W23546  38.327   7.355   3.689
52947W        W23547  38.565  24.910  14.730
52948W        W23548  23.643  32.616  12.090
52949W        W23549  26.167  33.357   3.539
52950W        W23550  42.528  11.859   2.138
52951W        W23551  38.319  24.918  12.068
52952W        W23552  37.006  26.542  11.136
52953W        W23553  43.321  10.335  11.436
52954W        W23554   7.298  27.278   3.142
52955W        W23555  29.625  19.548   0.316
52956W        W23556   3.619  36.581  11.895
52957W        W23557  32.535  43.342  12.141
52958W        W23558  24.688  44.324  12.911
52959W        W23559   1.658  19.031  11.628
52960W        W23560  42.002  43.832  10.624
52961W        W23561   5.660  40.738  10.689
52962W        W23562  15.107  32.134   2.889
52963W        W23563  17.399  43.145  12.417
52964W        W23564  31.840  20.031   3.699
52965W        W23565   8.647  23.910   2.910
52966W        W23566  34.142  11.437   4.641
52967W        W23567   9.791  17.694   0.054
52968W        W23568  13.261   8.209   4.681
52969W        W23569  20.140  37.598  13.629
52970W        W23570  16.012  12.151   2.651
52971W        W23571   2.561  36.786  11.183
52972W        W23572  42.561  27.388   3.559
52973W        W23573  19.055  40.597   0.666
52974W        W23574  17.295  16.292   0.481
52975W        W23575  10.164  36.813  10.606
52976W        W23576  37.920   7.205   1.616
52977W        W23577  30.696  44.267   1.968
52978W        W23578   3.902  35.136  14.339
52979W        W23579  14.739  36.373  14.328
52980W        W23580  10.754  24.478   4.502
52981W        W23581  33.100  39.414   1.879
52982W        W23582  38.999  28.877  13.887
52983W        W23583   9.012   0.625  13.378
52984W        W23584   0.546  37.915  13.010
52985W        W23585  25.517  26.102  14.397
52986W        W23586  14.845  11.334  10.131
52987W        W23587  28.207   5.895  10.730
52988W        W23588  17.270  31.111   3.613
52989W        W23589  41.856  17.596  13.919
52990W        W23590  41.445   0.926  11.067
52991W        W23591  24.934  34.361  13.382
52992W        W23592  25.005  41.590  14.566
52993W        W23593  12.897   8.652   4.035
52994W        W23594  41.273  27.243  12.529
52995W        W23595  17.952  28.901  14.905
52996W        W23596  25.034  10.529  10.583
52997W        W23597  24.555  29.189  10.743
52998W        W23598  14.616  15.606   1.894
52999W        W23599   9.877   1.307  10.937
53000W        W23600   3.278  34.044  11.356
53001W        W23601  39.058  28.098   2.928
53002W        W23602  15.163  42.503   1.111
53003W        W23603  43.807  40.133   1.381
53004W        W23604   6.947  16.960   3.092
53005W        W23605  38.001  22.720   3.120
53006W        W23606  37.908  23.891   1.194
53007W        W23607  44.473  40.926  12.398
53008W        W23608  14.867  30.219   2.337
53009W        W23609  36.015  31.128  12.322
53010W        W23610  39.298  28.440   3.752
53011W        W23611  38.479  44.884   3.014
53012W        W23612  20.156  33.564  10.061
53013W        W23613  16.895  44.011  14.839
53014W        W23614  25.603   1.949  14.555
53015W        W23615  40.628   3.706  14.974
53016W        W23616   9.140  14.514  11.440
53017W        W23617  25.136  15.223  12.791
53018W        W23618   9.097  25.060  13.561
53019W        W23619  43.758   8.660   4.129
53020W        W23620  30.492  25.957   3.269
53021W        W23621  35.624  43.730   3.250
53022W        W23622  27.985  23.003   0.756
53023W        W23623  29.433  21.720   0.287
53024W        W23624  37.244  28.207  11.582
53025W        W23625  10.686  18.437   4.052
53026W        W23626  39.374  19.483   3.573
53027W        W23627  32.096  25.053   3.372
53028W        W23628  25.007  43.326   0.722
53029W        W23629   1.944  43.519  11.071
53030W        W23630   9.420   3.461  10.692
53031W        W23631  20.154  26.198  14.919
53032W        W23632  19.553  12.079   1.961
53033W        W23633   2.369  34.457   1.719
53034W        W23634  17.618   3.623   0.978
53035W        W23635  41.283  36.387   1.009
53036W        W23636  18.546  17.643  12.941
53037W        W23637  22.751  36.320  11.633
53038W        W23638  21.775  42.608   3.736
53039W        W23639  16.046  43.014   1.647
53040W        W23640   1.788  33.131  13.773
53041W        W23641  20.029  13.253   3.188
53042W        W23642   6.886  34.068   2.370
53043W        W23643  34.296  20.304  13.100
53044W        W23644   7.624  39.375   4.558
53045W        W23645  24.596  13.573  13.824
53046W        W23646   6.383  24.930   2.852
53047W        W23647   3.268   4.700   0.045
53048W        W23648  40.773  16.424  11.009
53049W        W23649  41.234   1.443  11.598
53050W        W23650  14.157  32.763   0.440
53051W        W23651  15.424  35.937  11.193
53052W        W23652  25.416  40.433  10.669
53053W        W23653  25.219  38.773   4.116
53054W        W23654  20.723  11.182  14.454
53055W        W23655   6.416  35.390   3.521
53056W        W23656   6.437  16.160  10.271
53057W        W23657  42.996   3.253   4.323
53058W        W23658  22.121   0.992   4.835
53059W        W23659  15.843   1.680  11.171
53060W        W23660  32.527  15.425  12.490
53061W        W23661  29.706  25.602  11.590
53062W        W23662  31.879  15.404  14.424
53063W        W23663  12.523  41.979   4.060
53064W        W23664  29.596  41.809   4.919
53065W        W23665   4.595  21.143   4.671
53066W        W23666   3.607  20.760  10.343
53067W        W23667  29.102   4.917  13.336
53068W        W23668  32.169  32.269   4.487
53069W        W23669   7.767  17.236   4.651
53070W        W23670  31.191  22.266  10.964
53071W        W23671  30.564  23.443  14.429
53072W        W23672  12.083   0.209   2.734
53073W        W23673  12.632  30.111  13.375
53074W        W23674  30.621  18.041   0.104
53075W        W23675  21.251  35.944  10.726
53076W        W23676  13.367  20.610  13.368
53077W        W23677  32.530  16.985   4.175
53078W        W23678  26.492  28.420  13.006
53079W        W23679  10.820   0.799   4.758
53080W        W23680  22.636   8.762  14.756
53081W        W23681   5.341   1.660   1.237
53082W        W23682  28.468  11.190   0.395
53083W        W23683  31.204   3.420   0.710
53084W        W23684   9.093   2.867   3.273
53085W        W23685   3.242  18.382   0.426
53086W        W23686  36.803  15.980   1.287
53087W        W23687   7.711  37.756  13.848
53088W        W23688  12.209  17.067  12.414
53089W        W23689  14.306   7.317  14.447
53090W        W23690  41.071   6.743  11.149
53091W        W23691  11.070  14.704   2.221
53092W        W23692   1.750  25.575   4.526
53093W        W23693   0.402  41.402   3.125
53094W        W23694   3.746   1.378   3.748
53095W        W23695  19.301  44.082  13.411
53096W        W23696  20.709  37.565   1.278
53097W        W23697  39.115  19.263   2.310
53098W        W23698  37.897  31.525   3.121
53099W        W23699  30.944  13.192  12.922
53100W        W23700   7.377   5.244   4.572
53101W        W23701  34.883  23.039  11.379
53102W        W23702  32.892  26.976   0.953
53103W        W23703  40.260  31.361   2.547
53104W        W23704  18.142  12.038  14.384
53105W        W23705  43.925  22.984  13.511
53106W        W23706  43.357  18.912  12.977
53107W        W23707  33.918   4.823  12.235
53108W        W23708   1.995  32.593   5.002
53109W        W23709  34.257  27.761   3.360
53110W        W23710  22.170  42.183   3.164
53111W        W23711  25.964  25.597   4.778
53112W        W23712  23.301  38.501  14.791
53113W        W23713   6.796  12.602   3.222
53114W        W23714   7.965  20.303  12.815
53115W        W23715  43.447   9.153   3.286
53116W        W23716   5.981  34.427  11.195
53117W        W23717  25.499  34.470  11.276
53118W        W23718  12.836  20.208  11.054
53119W        W23719  10.117  35.422   2.697
53120W        W23720  37.092  39.054  12.257
53121W        W23721  21.161  42.412  11.676
53122W        W23722  16.719  41.726   1.377
53123W        W23723  41.073  37.767  14.299
53124W        W23724  14.308  24.596   2.415
53125W        W23725   0.342  18.284  14.350
53126W        W23726  21.037  23.583   1.769
53127W        W23727  35.457  35.360   2.257
53128W        W23728  31.031  16.297   1.227
53129W        W23729  10.308   4.881   2.374
53130W        W23730  33.482  35.079   3.974
53131W        W23731  40.044  43.946  11.671
53132W        W23732   5.673  25.720  11.604
53133W        W23733   9.249  10.083  14.891
53134W        W23734   0.818  25.954  13.990
53135W        W23735  38.399  22.964   2.878
53136W        W23736  30.886  18.904   0.350
53137W        W23737  23.769  19.677  12.361
53138W        W23738   6.703  40.047  12.573
53139W        W23739  12.222   7.210  14.860
53140W        W23740  43.134   2.310   1.498
53141W        W23741  27.652  24.892   0.749
53142W        W23742  24.389  27.580   0.363
53143W        W23743  15.659  22.634  13.963
53144W        W23744  31.140  24.960  10.871
53145W        W23745   3.010  30.572  14.934
53146W        W23746   2.856  31.861  13.377
53147W        W23747  33.448  21.610   0.883
53148W        W23748  43.121   4.459   0.889
53149W        W23749  20.578  30.348   4.611
53150W        W23750  13.706  23.505  13.838
53151W        W23751  18.809   2.234  10.682
53152W        W23752   5.359  10.798  12.870
53153W        W23753   6.118  41.450  14.352
53154W        W23754  40.599  28.414   3.665
53155W        W23755  38.102  34.663  12.864
53156W        W23756  10.666  27.685   4.105
53157W        W23757  14.075  18.658  12.104
53158W        W23758   6.256  18.021   2.256
53159W        W23759  41.711  12.278   1.934
53160W        W23760   8.274  33.196   1.910
53161W        W23761  11.044  10.317  12.617
53162W        W23762   8.221  34.719  12.043
53163W        W23763  28.489  13.733   1.705
53164W        W23764  37.445  11.949  10.789
53165W        W23765   0.459  43.796  10.674
53166W        W23766   4.895  20.064  11.834
53167W        W23767  19.768  17.110   0.360
53168W        W23768  38.262  20.645   0.821
53169W        W23769  40.859   3.314   5.028
53170W        W23770  39.384  35.618   0.425
53171W        W23771  16.821  10.706   0.543
53172W        W23772  40.571   2.654  13.341
53173W        W23773  16.656  34.573   3.587
53174W        W23774  10.620  25.925  13.173
53175W        W23775  13.208   4.640  14.487
53176W        W23776  11.091  41.551   4.524
53177W        W23777  39.095  41.490  11.324
53178W        W23778  30.364  38.584   1.823
53179W        W23779  12.393  27.599  14.228
53180W        W23780  44.262  29.173  13.036
53181W        W23781  13.709   2.017   3.187
53182W        W23782  30.461  30.311  13.461
53183W        W23783   9.020  34.153   3.729
53184W        W23784  25.072  40.467   0.335
53185W        W23785  28.524  39.356  13.041
53186W        W23786  18.501  43.508  12.031
53187W        W23787  14.382   0.358  12.552
53188W        W23788  13.151  18.477  14.049
53189W        W23789  22.718  10.629  12.105
53190W        W23790  19.551  41.336   2.285
53191W        W23791  24.181  24.966  14.031
53192W        W23792  15.439  24.564   3.244
53193W        W23793  27.687  15.930  14.232
53194W        W23794  28.526  33.611  14.022
53195W        W23795  19.524  16.072   2.901
53196W        W23796  25.761   4.061   5.031
53197W        W23797   3.684   8.761  13.028
53198W        W23798  12.960  23.953   1.257
53199W        W23799  26.575  27.710   2.835
53200W        W23800  44.055  37.381   2.572
53201W        W23801  19.030  28.104  14.966
53202W        W23802  11.410  19.104   2.302
53203W        W23803  27.416  38.033  12.480
53204W        W23804  22.691  43.757   3.674
53205W        W23805   3.483  38.897  12.970
53206W        W23806  37.424  14.083   2.235
53207W        W23807  40.832  11.371  13.330
53208W        W23808  25.224  10.999  13.763
53209W        W23809  13.988  41.838   4.223
53210W        W23810  19.733  36.052   0.372
53211W        W23811  35.394  20.984   3.528
53212W        W23812  31.294  39.436  12.060
53213W        W23813  31.780  33.394   3.305
53214W        W23814   4.368  13.815  14.498
53215W        W23815  40.142  44.500   4.651
53216W        W23816   1.882  35.348  14.992
53217W        W23817  43.940   4.868   0.509
53218W        W23818  34.591  26.187  10.963
53219W        W23819  31.944  15.948   9.997
53220W        W23820  33.858  32.998   4.698
53221W        W23821  39.092  30.276  13.374
53222W        W23822  11.831   2.202   3.220
53223W        W23823  43.997   9.100   2.435
53224W        W23824  36.628  41.454  12.066
53225W        W23825   9.251  25.739   1.062
53226W        W23826  19.158  18.849  11.699
53227W        W23827  39.640   6.294   3.078
53228W        W23828   9.386   1.367  14.512
53229W        W23829  44.002  10.662   1.218
53230W        W23830  30.485  42.756  10.748
53231W        W23831  35.432  13.345  13.840
53232W        W23832  17.004  43.792   2.747
53233W        W23833  35.043  26.951   4.247
53234W        W23834  12.744   1.550  10.620
53235W        W23835  31.224   2.652   3.288
53236W        W23836  43.043  28.146  11.480
53237W        W23837  30.047  36.363   2.260
53238W        W23838  11.551  18.224  11.173
53239W        W23839  43.355  12.571  11.588
53240W        W23840  14.234  17.208  13.670
53241W        W23841  12.581  28.870  13.626
53242W        W23842  25.520   5.172   1.467
53243W        W23843  17.578   6.648  10.642
53244W        W23844  36.974   0.917  11.148
53245W        W23845   1.411  14.523   1.978
53246W        W23846  24.721  31.371   1.384
53247W        W23847  25.602  38.282   1.742
53248W        W23848  31.732  12.101  12.498
53249W        W23849   3.617  32.400  11.819
53250W        W23850  41.957  44.550  14.852
53251W        W23851  20.169   6.856  13.030
53252W        W23852   1.735  29.229   3.600
53253W        W23853  19.046  33.004  11.035
53254W        W23854  41.845  19.634  10.240
53255W        W23855   7.671  23.510   3.496
53256W        W23856  38.072  24.709   0.860
53257W        W23857  28.700   7.817   2.594
53258W        W23858  24.992  36.030   4.253
53259W        W23859  15.038  24.134   0.507
53260W        W23860  14.113  34.860  13.910
53261W        W23861  36.889  32.868  13.516
53262W        W23862   7.960  37.484  10.556
53263W        W23863  44.745   7.688   0.681
53264W        W23864   9.856  29.755   2.435
53265W        W23865   2.210  31.884   2.396
53266W        W23866  37.076  16.855   4.582
53267W        W23867  34.572   0.808  10.988
53268W        W23868  28.656  38.889   1.393
53269W        W23869   8.345  43.013  12.923
53270W        W23870  35.775  32.014   1.174
53271W        W23871   8.702  20.193  12.441
53272W        W23872  15.113   1.559  12.492
53273W        W23873   4.819   3.385  14.289
53274W        W23874  40.339  13.530   4.549
53275W        W23875  18.763  16.721   3.923
53276W        W23876  34.475  41.849  11.083
53277W        W23877  13.856  14.637  12.377
53278W        W23878  23.905  39.031  11.050
53279W        W23879  42.212   8.787  12.515
53280W        W23880   3.312  11.698  12.460
53281W        W23881  36.413   3.702  10.952
53282W        W23882  33.147  31.147   3.753
53283W        W23883  21.098  42.972   1.265
53284W        W23884  43.984  36.070   3.154
53285W        W23885  32.644  35.115   4.260
53286W        W23886  19.626  29.436   2.520
53287W        W23887  22.727  32.528  12.164
53288W        W23888  28.375  42.815  10.692
53289W        W23889  37.427  30.112  11.827
53290W        W23890  18.708  18.117  14.658
53291W        W23891  31.117  16.346   2.137
53292W        W23892  44.000  44.202  11.980
53293W        W23893  16.290   0.265   1.685
53294W        W23894  31.370  25.258  13.859
53295W        W23895  39.033  18.534   1.006
53296W        W23896  12.498  38.386   4.257
53297W        W23897  33.194  44.168   4.060
53298W        W23898  12.807  39.832   1.754
53299W        W23899  30.007  40.638  14.137
53300W        W23900  36.045   2.598  10.697
53301W        W23901  16.043  16.619  14.421
53302W        W23902   5.314  26.573   3.856
53303W        W23903  25.201  27.523  10.345
53304W        W23904  10.256  10.412   2.792
53305W        W23905   5.393  38.566   1.958
53306W        W23906  31.733   8.675   3.657
53307W        W23907  39.825  42.367  10.712
53308W        W23908  40.449  34.816  11.962
53309W        W23909   4.191  44.455  12.198
53310W        W23910  14.914  24.608  12.072
53311W        W23911  29.854   9.278   2.230
53312W        W23912  35.841  18.106   1.477
53313W        W23913  23.782  24.941   1.924
53314W        W23914  44.420   4.861   3.855
53315W        W23915  23.781  11.310  11.468
53316W        W23916  43.335   4.404  13.853
53317W        W23917   9.724   9.481  12.755
53318W        W23918  43.779  20.502  14.916
53319W        W23919  44.907  42.821   3.713
53320W        W23920  33.935  42.000   1.880
53321W        W23921  11.287   6.238  11.012
53322W        W23922  12.655  18.298   2.945
53323W        W23923  15.201  16.146   0.454
53324W        W23924  29.942  28.932   1.755
53325W        W23925  28.961  33.700   0.720
53326W        W23926  26.734  40.549   0.147
53327W        W23927  19.304  34.546  12.577
53328W        W23928  33.926  14.283  12.639
53329W        W23929  44.312  42.207   5.423
53330W        W23930  12.658   6.151  13.880
53331W        W23931  14.135   2.276   3.687
53332W        W23932  36.932  33.681  14.361
53333W        W23933  20.537  33.911   2.739
53334W        W23934  38.466  40.774   2.410
53335W        W23935  36.587  29.617  11.681
53336W        W23936  16.904  19.883  10.138
53337W        W23937  24.810   9.132  12.401
53338W        W23938  20.236  29.834   0.617
53339W        W23939  18.211  44.964   1.866
53340W        W23940  24.468  29.699   1.904
53341W        W23941  21.561  37.002  13.323
53342W        W23942   1.363  26.051   2.677
53343W        W23943  43.259  26.269  14.712
53344W        W23944  41.801  29.154   2.653
53345W        W23945   7.830  13.249  11.603
53346W        W23946  40.247   4.801   2.521
53347W        W23947  43.035  43.010   1.905
53348W        W23948  26.688  26.286   2.803
53349W        W23949  17.277  30.296  11.293
53350W        W23950  31.426  34.130  14.841
53351W        W23951  13.641   7.894   3.119
53352W        W23952  31.111  44.257  13.890
53353W        W23953  27.805  24.653   1.438
53354W        W23954  36.711  15.302  14.929
53355W        W23955  32.442   8.400   4.721
53356W        W23956  31.581  13.070   0.928
53357W        W23957  28.901   9.194  14.808
53358W        W23958  38.526   6.422  13.158
53359W        W23959  27.542  14.185  13.705
53360W        W23960  26.223   2.752  14.663
53361W        W23961  35.609   2.845   4.797
53362W        W23962   2.011  31.827   3.765
53363W        W23963  14.311  13.803  14.719
53364W        W23964   1.217  24.476  14.359
53365W        W23965  33.550  20.529  14.922
53366W        W23966  41.485  10.089   4.171
53367W        W23967   3.545  12.411   0.364
53368W        W23968  30.445  35.121   0.169
53369W        W23969  44.820  35.549   3.727
53370W        W23970  36.031   9.073  12.900
53371W        W23971  44.006  23.122  13.025
53372W        W23972   5.960   4.690   0.007
53373W        W23973  11.913  44.490  11.855
53374W        W23974  35.981   5.289   2.601
53375W        W23975   9.890  19.431  12.469
53376W        W23976   0.037   0.403   2.261
53377W        W23977   6.914  29.599   3.351
53378W        W23978  17.385  43.270   3.416
53379W        W23979  16.813  32.623   3.184
53380W        W23980   3.484  35.349   1.348
53381W        W23981   1.504  17.747   2.092
53382W        W23982  14.729  17.397   0.533
53383W        W23983   2.019   6.409   4.920
53384W        W23984  33.034   3.871  13.759
53385W        W23985  19.527   3.206   3.363
53386W        W23986  31.603  34.418   2.403
53387W        W23987  32.565   7.335  10.730
53388W        W23988  23.242  25.875   3.192
53389W        W23989  43.831  14.221   0.413
53390W        W23990  16.863  25.532  13.894
53391W        W23991  17.139  12.869  11.877
53392W        W23992  19.785  22.639  13.483
53393W        W23993  24.721  16.488   4.269
53394W        W23994  40.601  11.406  12.454
53395W        W23995  37.412  27.958  14.458
53396W        W23996  19.063  44.276   4.038
53397W        W23997  26.253  29.497  11.533
53398W        W23998  41.230   0.382  13.932
53399W        W23999  35.571  38.415  11.827
53400W        W24000  34.939  19.649   1.400
53401W        W24001  29.101  33.454   1.155
53402W        W24002  16.870  31.228   1.409
53403W        W24003  43.772  17.784  12.642
53404W        W24004  44.893   7.210   3.888
53405W        W24005  37.902  22.839  12.073
53406W        W24006  37.104  23.946   0.778
53407W        W24007  29.317  15.359   3.823
53408W        W24008  24.344  12.382  11.410
53409W        W24009   5.170  34.662   5.256
53410W        W24010  21.740  27.803   0.518
53411W        W24011  16.974  44.990   2.329
53412W        W24012  30.550  11.030  14.282
53413W        W24013  20.933  31.621   2.243
53414W        W24014  13.455  29.227  11.561
53415W        W24015  15.337  37.421   0.443
53416W        W24016   7.930   2.297   3.716
53417W        W24017  17.144   9.140  13.280
53418W        W24018   4.899  11.624   4.712
53419W        W24019   2.912  25.104   0.862
53420W        W24020  14.130  43.796  14.469
53421W        W24021  42.907  35.609  10.679
53422W        W24022  28.575  34.822  12.522
53423W        W24023  28.411   4.241   3.809
53424W        W24024  24.494  34.650   1.470
53425W        W24025  13.269  29.108   3.643
53426W        W24026  20.755  32.996  14.673
53427W        W24027  39.899  22.565   0.383
53428W        W24028   7.897   5.302   0.824
53429W        W24029   3.335  18.726  12.071
53430W        W24030  41.085  10.737   0.936
53431W        W24031   8.168   6.358  12.271
53432W        W24032  10.859   2.976  11.232
53433W        W24033  22.227  12.149  14.943
53434W        W24034  13.595   0.126  13.021
53435W        W24035  40.365  29.881   3.128
53436W        W24036  44.679  41.031   4.017
53437W        W24037  24.616  25.677  12.688
53438W        W24038   1.344  40.207  11.192
53439W        W24039  20.821  15.684  11.153
53440W        W24040  26.919  23.915   1.114
53441W        W24041  27.702  14.011   1.141
53442W        W24042  14.229  35.951   3.409
53443W        W24043  37.396   5.543   4.291
53444W        W24044  36.312  32.435  11.521
53445W        W24045  19.280  38.902  14.799
53446W        W24046   9.770  27.436  14.263
53447W        W24047  39.853  19.243  14.762
53448W        W24048  13.941  20.610   4.159
53449W        W24049  18.925  13.214   0.607
53450W        W24050   6.044  18.099   4.171
53451W        W24051  36.894  39.240  12.909
53452W        W24052   8.394  27.861   1.176
53453W        W24053  39.876  26.077   1.165
53454W        W24054  13.608  28.145  13.398
53455W        W24055  12.106  31.634  14.862
53456W        W24056   6.104  38.901   2.930
53457W        W24057   3.951  14.733  10.607
53458W        W24058  35.318  33.638  12.953
53459W        W24059  23.738  23.001   4.248
53460W        W24060  38.831  11.381  13.048
53461W        W24061  25.150  10.796  14.341
53462W        W24062   4.749   6.417  11.106
53463W        W24063  33.592  32.113   4.043
53464W        W24064  24.876  18.318   1.180
53465W        W24065   1.716  31.344   4.517
53466W        W24066  39.516  11.299   3.733
53467W        W24067   0.502  10.392   4.625
53468W        W24068  34.855  40.287   0.497
53469W        W24069   6.845  23.672   4.656
53470W        W24070  16.762  33.160  14.940
53471W        W24071   8.785  18.286  11.322
53472W        W24072  42.079   2.778   5.093
53473W        W24073  29.880  37.455  14.411
53474W        W24074   2.573  40.479  11.288
53475W        W24075  33.430   8.905  11.584
53476W        W24076  11.111  15.523   3.464
53477W        W24077  31.544   7.113  12.476
53478W        W24078  38.866  24.034   1.204
53479W        W24079  34.285  21.700   1.808
53480W        W24080  10.198   3.166  12.459
53481W        W24081  38.891  14.618   4.579
53482W        W24082  42.020  21.758  12.831
53483W        W24083  38.508  22.313  14.308
53484W        W24084   8.061  17.337   0.886
53485W        W24085  24.358  30.603   5.108
53486W        W24086  16.955  12.992   1.702
53487W        W24087  41.167  23.551   0.787
53488W        W24088  19.618  12.904  13.348
53489W        W24089  30.369  42.161   5.135
53490W        W24090  43.065  37.976  13.334
53491W        W24091  22.718  35.461  10.993
53492W        W24092  18.283  39.804  11.656
53493W        W24093  35.533   4.640   2.731
53494W        W24094  19.520   2.818  14.729
53495W        W24095  33.605  44.888  13.787
53496W        W24096  23.739  11.953  14.731
53497W        W24097   0.669  36.623   1.942
53498W        W24098  17.491  43.521   2.339
53499W        W24099  28.167  27.208  10.635
53500W        W24100  39.822   1.753  12.599
53501W        W24101   7.438   2.814   4.529
53502W        W24102  24.454  12.143  14.656
53503W        W24103  43.281   5.895   0.755
53504W        W24104  24.026  26.367  11.571
53505W        W24105   0.750  43.909   0.404
53506W        W24106  26.218  25.086  11.839
53507W        W24107  17.970   7.102  13.150
53508W        W24108  34.501  23.347   4.048
53509W        W24109   3.001   0.828   2.695
53510W        W24110   0.904  20.691   0.011
53511W        W24111  21.119  15.146   0.931
53512W        W24112  38.361  40.882  10.472
53513W        W24113  23.085   4.505  12.078
53514W        W24114  24.092  21.370   3.244
53515W        W24115  15.286  36.860  13.792
53516W        W24116  25.675  40.864   4.085
53517W        W24117  36.956  43.186  11.476
53518W        W24118  18.073  13.631   2.840
53519W        W24119  20.474   4.254   2.651
53520W        W24120  29.996   8.576   1.992
53521W        W24121   9.065  18.094  14.337
53522W        W24122  21.653  28.956  13.475
53523W        W24123  42.344  33.522   1.361
53524W        W24124   4.729  21.181   9.971
53525W        W24125   2.748   6.940   4.059
53526W        W24126  40.307   7.638   1.455
53527W        W24127   3.039  35.309   3.996
53528W        W24128  28.695  27.758  13.333
53529W        W24129  40.877  20.687  14.259
53530W        W24130  38.977  11.246   1.283
53531W        W24131   5.347  34.868   2.701
53532W        W24132   7.204  20.452  10.751
53533W        W24133  17.689   8.395   4.051
53534W        W24134   7.118  38.101   1.835
53535W        W24135   3.955  36.398   3.830
53536W        W24136  44.911   7.873   2.047
53537W        W24137  29.099  39.281  10.288
53538W        W24138   3.700  28.901   0.413
53539W        W24139  33.799   1.731  12.930
53540W        W24140   0.505   3.990  13.383
53541W        W24141  17.038  36.286   0.897
53542W        W24142  21.681   5.165   1.288
53543W        W24143  21.059  34.314  11.072
53544W        W24144   5.826  26.085  14.205
53545W        W24145  26.492  36.915  12.421
53546W        W24146  24.952   8.276  12.916
53547W        W24147  44.205  17.246   4.245
53548W        W24148   3.380  38.742   1.850
53549W        W24149  18.579  35.133  14.410
53550W        W24150  41.917  16.993  14.735
53551W        W24151   0.960  42.929  14.784
53552W        W24152  23.366   1.600  13.800
53553W        W24153  21.437   0.019   1.180
53554W        W24154  16.862  22.681   9.743
53555W        W24155   7.188   9.857   3.285
53556W        W24156   8.657   4.048   2.874
53557W        W24157   3.327  10.606  12.155
53558W        W24158  11.598   4.920   1.725
53559W        W24159  21.804   0.043  12.943
53560W        W24160  24.570  23.168  14.354
53561W        W24161  16.102  20.695   3.247
53562W        W24162  12.833  37.038  10.664
53563W        W24163  18.138  27.449  13.787
53564W        W24164  39.821   6.054  10.653
53565W        W24165  18.794  13.097   2.210
53566W        W24166   0.314   9.356   1.128
53567W        W24167  25.749  21.205  12.700
53568W        W24168   7.125  40.266  13.478
53569W        W24169  18.062   0.394  11.250
53570W        W24170  20.686  33.590  13.373
53571W        W24171  24.996  21.343   3.016
53572W        W24172   5.511  11.815   0.795
53573W        W24173   8.366   8.842  12.480
53574W        W24174  36.046  18.812   0.965
53575W        W24175  29.242  29.798   3.614
53576W        W24176  39.300   2.940  14.172
53577W        W24177   0.987  17.467  12.423
53578W        W24178  33.539   5.283  14.152
53579W        W24179  39.569  33.642  11.504
53580W        W24180  30.074  32.456  12.346
53581W        W24181   2.412  22.587  12.119
53582W        W24182  13.403  10.802  14.816
53583W        W24183  18.187  11.114   4.688
53584W        W24184  30.026   2.886   1.858
53585W        W24185  10.720  12.285  14.975
53586W        W24186  21.315  39.313  11.229
53587W        W24187  22.414  19.469  13.283
53588W        W24188  44.289   8.766   3.364
53589W        W24189  40.922  30.513   2.613
53590W        W24190  21.634  39.916   4.115
53591W        W24191  39.511  22.043   0.952
53592W        W24192  42.951   6.178  14.979
53593W        W24193  27.425  40.137   9.712
53594W        W24194  34.476  38.959   4.172
53595W        W24195  44.098  39.480  12.052
53596W        W24196  11.768  36.552   0.888
53597W        W24197   6.089  11.857  14.195
53598W        W24198   8.944   9.188   4.005
53599W        W24199  29.165  24.037  11.579
53600W        W24200  20.963   7.979   2.480
53601W        W24201  34.069  30.808  11.533
53602W        W24202  23.918  24.934   2.590
53603W        W24203  30.255  24.074  14.526
53604W        W24204  40.666   3.293  10.292
53605W        W24205  12.873  24.670  11.032
53606W        W24206  43.043   5.849  13.873
53607W        W24207  21.141  23.067   4.631
53608W        W24208  40.530  23.308  12.990
53609W        W24209   8.805  42.302  11.988
53610W        W24210  36.465  36.887   4.214
53611W        W24211  17.832  14.049  13.231
53612W        W24212  32.804  44.635   2.339
53613W        W24213  26.152  19.278   1.839
53614W        W24214   0.256  11.594  11.557
53615W        W24215  28.425   9.954   0.835
53616W        W24216  14.323   6.334   0.462
53617W        W24217   6.275  13.209   0.132
53618W        W24218  36.400  41.510  12.910
53619W        W24219   0.346  19.075   2.448
53620W        W24220  21.104  15.032  11.201
53621W        W24221  33.553  21.791  13.713
53622W        W24222   5.326  30.951   2.321
53623W        W24223  41.041  23.021  12.002
53624W        W24224   6.194  12.701   4.131
53625W        W24225  13.718  37.611  14.653
53626W        W24226  13.203   0.097   0.403
53627W        W24227  24.768  35.086   2.787
53628W        W24228  31.066  35.750  13.463
53629W        W24229  11.935  44.253  12.320
53630W        W24230  32.706  24.305   3.459
53631W        W24231   4.822  26.535   3.669
53632W        W24232  34.301  21.451  14.242
53633W        W24233  42.216  14.656   3.381
53634W        W24234  16.822  12.942  10.684
53635W        W24235  22.406  18.130   0.280
53636W        W24236  39.896  24.210  14.736
53637W        W24237   7.957  15.269   4.594
53638W        W24238  34.328  31.157   0.429
53639W        W24239  28.098  23.484  10.588
53640W        W24240  18.062  31.841  14.943
53641W        W24241  31.066  42.242  12.477
53642W        W24242  42.314   0.710  10.841
53643W        W24243  16.243  42.091  12.521
53644W        W24244  41.499  42.320  12.539
53645W        W24245  24.150  27.436   3.663
53646W        W24246  33.902  41.521  13.392
53647W        W24247   0.848  35.384   2.334
53648W        W24248  41.675  39.859  14.554
53649W        W24249  34.448  40.665  11.718
53650W        W24250  22.294   0.969  12.934
53651W        W24251  35.034   1.756  11.029
53652W        W24252  19.730  31.970   1.680
53653W        W24253   2.887  32.619   1.265
53654W        W24254  23.760  13.556  12.598
53655W        W24255  12.574  26.056   2.817
53656W        W24256  26.044  17.310   0.782
53657W        W24257  30.685   9.424   2.594
53658W        W24258  19.857  14.067   1.101
53659W        W24259  40.282  30.492  12.504
53660W        W24260  36.841  30.207   0.052
53661W        W24261  40.083  20.230  14.820
53662W        W24262  20.445  42.356  13.983
53663W        W24263  43.686  36.899  11.586
53664W        W24264   2.582  31.612  10.745
53665W        W24265  16.737  41.572   2.360
53666W        W24266   4.564  42.171  13.630
53667W        W24267  44.551  30.208   0.346
53668W        W24268   1.370  14.319   0.440
53669W        W24269  10.426   8.710  11.419
53670W        W24270  36.596  42.044   4.216
53671W        W24271  25.066   9.826   3.316
53672W        W24272   1.998  44.932  11.453
53673W        W24273  14.313  21.007   3.412
53674W        W24274  41.590  37.753  14.410
53675W        W24275  20.810  22.241  14.496
53676W        W24276   2.119  39.005  14.955
53677W        W24277  39.414   5.690   1.793
53678W        W24278  10.276   7.786  11.917
53679W        W24279  19.365  43.168  12.337
53680W        W24280  37.131  34.573  14.553
53681W        W24281  29.065   4.788   4.122
53682W        W24282  10.566  36.139   2.217
53683W        W24283   1.027  37.468  10.208
53684W        W24284   6.913  44.052  11.988
53685W        W24285  19.770  12.230  12.485
53686W        W24286  11.787   0.745  12.544
53687W        W24287  35.503  41.808   0.331
53688W        W24288  17.989  12.468   4.167
53689W        W24289   8.257  35.363   2.665
53690W        W24290   3.157  13.119  14.964
53691W        W24291   3.760  43.218  13.578
53692W        W24292  35.790  10.117   2.286
53693W        W24293  27.512  21.257   2.734
53694W        W24294  33.119   3.806   1.703
53695W        W24295  27.769  29.589  10.419
53696W        W24296  34.679   4.363   0.359
53697W        W24297   1.334  24.909  11.888
53698W        W24298  23.679  38.446  12.618
53699W        W24299  44.521  21.940   4.260
53700W        W24300   1.772   7.330  13.011
53701W        W24301   9.868  36.140   0.001
53702W        W24302   1.857  17.780   1.326
53703W        W24303  13.740   8.627  14.363
53704W        W24304   6.535  23.219  13.415
53705W        W24305  17.535  20.630   0.268
53706W        W24306   6.677   5.381   0.913
53707W        W24307  41.234  41.489  14.681
53708W        W24308  23.668  11.194   4.974
53709W        W24309  28.680   2.398  12.945
53710W        W24310  35.298  19.819  13.001
53711W        W24311  18.205   6.430  11.587
53712W        W24312  42.168  39.290   2.876
53713W        W24313   7.199  23.474  14.984
53714W        W24314  41.991  42.394  13.075
53715W        W24315   6.506  44.443  11.428
53716W        W24316  28.258  11.754   0.152
53717W        W24317  19.921  32.824   0.877
53718W        W24318  32.981  25.643  11.421
53719W        W24319  41.517  38.789  14.378
53720W        W24320  36.540  15.968  12.516
53721W        W24321  41.790  14.094   2.259
53722W        W24322  13.090  20.877  14.467
53723W        W24323  40.314  25.200  12.939
53724W        W24324  23.014  41.347   4.900
53725W        W24325  20.002  11.621  14.415
53726W        W24326  26.779  38.601  14.783
53727W        W24327  26.538  44.726  12.752
53728W        W24328  10.697  12.033   0.433
53729W        W24329   7.211   5.939   0.957
53730W        W24330  36.498  34.910  11.093
53731W        W24331  12.436   2.317   2.781
53732W        W24332  33.485  19.989   0.847
53733W        W24333  13.278  40.928   2.299
53734W        W24334  36.759  37.458   0.378
53735W        W24335  38.862  21.839   1.612
53736W        W24336   1.270  21.327   4.331
53737W        W24337  13.558  42.776  13.541
53738W        W24338  17.406  39.686  13.615
53739W        W24339  29.175  27.192  12.963
53740W        W24340  29.639  40.499  14.483
53741W        W24341  19.085  18.742  12.194
53742W        W24342  36.216  33.667  12.059
53743W        W24343  30.267  43.699   3.184
53744W        W24344  26.752  41.050  12.953
53745W        W24345  16.769  33.908   0.749
53746W        W24346  36.477  13.172  14.085
53747W        W24347  35.642  19.572   0.963
53748W        W24348  35.974  38.374  10.902
53749W        W24349  44.966  17.076   3.200
53750W        W24350  32.126  36.444   5.016
53751W        W24351  20.248   9.198   2.796
53752W        W24352  39.804   1.793   4.463
53753W        W24353  25.064  41.284  13.865
53754W        W24354  35.568  32.883  14.806
53755W        W24355  18.645  21.514   0.292
53756W        W24356  16.218  31.679   3.614
53757W        W24357  14.732  40.786   2.803
53758W        W24358  29.749  12.744   2.840
53759W        W24359   5.157  22.085  12.936
53760W        W24360  42.485  30.104  11.154
53761W        W24361  42.098  30.561  10.954
53762W        W24362  30.845  23.890   1.768
53763W        W24363  11.893  16.908  10.826
53764W        W24364  11.815   0.251   0.969
53765W        W24365  39.336  14.350   4.485
53766W        W24366  32.559  20.908   4.559
53767W        W24367  44.707   4.368   2.675
53768W        W24368  37.418  20.657   1.942
53769W        W24369  27.957  27.200  14.059
53770W        W24370  30.558  36.146  11.170
53771W        W24371   4.313  14.668   0.056
53772W        W24372  20.675   2.395  14.630
53773W        W24373  39.233  21.543  10.859
53774W        W24374   6.758   6.792  12.440
53775W        W24375  42.331  21.815   4.078
53776W        W24376  25.050  11.239   3.129
53777W        W24377  21.236  11.664  13.940
53778W        W24378  43.146  33.961  11.415
53779W        W24379   5.466   0.050  13.376
53780W        W24380  11.975  14.742  13.403
53781W        W24381  27.398  16.241  14.540
53782W        W24382   0.005  36.894  14.094
53783W        W24383  15.571  26.535  13.401
53784W        W24384  44.274  40.983   9.861
53785W        W24385  21.632  35.823   4.672
53786W        W24386  40.990  23.034  12.868
53787W        W24387  17.979   0.971  13.319
53788W        W24388  15.917   9.245  12.827
53789W        W24389  15.151  14.123  14.824
53790W        W24390  35.165   2.599  12.207
53791W        W24391  32.295  39.348   3.177
53792W        W24392  23.225  33.046   2.844
53793W        W24393   5.288  31.177   1.341
53794W        W24394  34.600  11.327  14.395
53795W        W24395  43.048   3.440  12.461
53796W        W24396  20.473  17.064  11.224
53797W        W24397   2.912   3.763   4.536
53798W        W24398   0.995  14.929  14.563
53799W        W24399  38.914   3.240   1.335
53800W        W24400  38.008  10.908   1.521
53801W        W24401  35.797  27.037   0.922
53802W        W24402  11.385  21.709   3.751
53803W        W24403  37.802  41.153  10.392
53804W        W24404  40.797  14.317   4.575
53805W        W24405  21.851  29.598   4.065
53806W        W24406   5.025  36.980   2.983
53807W        W24407  24.518  39.169   2.776
53808W        W24408   5.869   4.501  12.573
53809W        W24409  40.574  34.364   0.854
53810W        W24410  14.012   4.646  14.935
53811W        W24411  18.953  29.634   2.702
53812W        W24412  24.560  17.109  12.025
53813W        W24413   2.315  11.139  11.952
53814W        W24414  18.232   3.685  12.793
53815W        W24415  16.767  10.130   4.530
53816W        W24416  12.576   1.807  13.845
53817W        W24417   2.260  25.247   2.432
53818W        W24418  22.051  29.902   3.140
53819W        W24419  26.210  24.169   1.226
53820W        W24420  14.334  29.719   3.370
53821W        W24421  16.273   6.532  14.029
53822W        W24422  23.064  43.866   2.311
53823W        W24423   3.808  31.943   1.393
53824W        W24424  33.330   4.098   3.821
53825W        W24425   4.266  28.370   3.720
53826W        W24426   2.527  21.611   1.811
53827W        W24427  18.735   4.794  13.952
53828W        W24428   6.876  24.757  11.604
53829W        W24429   5.816   2.773  11.543
53830W        W24430  10.142  18.009  11.090
53831W        W24431  31.012  35.440   4.549
53832W        W24432  42.869  22.247  13.971
53833W        W24433  23.128   7.441   1.909
53834W        W24434  33.596  11.171  14.329
53835W        W24435   3.938  31.973   4.156
53836W        W24436  35.862   0.234   0.445
53837W        W24437  18.096  37.373   1.111
53838W        W24438  36.554  25.538  10.700
53839W        W24439   5.965   5.136   0.357
53840W        W24440  17.565  42.474   4.814
53841W        W24441  36.451  29.531  14.810
53842W        W24442   9.348  13.391  12.126
53843W        W24443  39.564  17.147  10.942
53844W        W24444  12.813  32.090   0.403
53845W        W24445  21.651   1.772   0.617
53846W        W24446   6.049   7.239  14.865
53847W        W24447  42.467  44.636  11.062
53848W        W24448  44.755  41.110  13.538
53849W        W24449  25.654  22.588   4.552
53850W        W24450   7.233  29.459  12.446
53851W        W24451   4.135  33.290   0.768
53852W        W24452   0.813   0.215   0.288
53853W        W24453  10.398  15.000   4.143
53854W        W24454  13.589  20.557  13.853
53855W        W24455   1.880  34.619   2.739
53856W        W24456  11.465   7.777   4.669
53857W        W24457  43.494  36.287  12.967
53858W        W24458  17.446  35.612   2.550
53859W        W24459  28.887  12.167   2.255
53860W        W24460  32.904  42.780  13.424
53861W        W24461  41.827  16.075  13.814
53862W        W24462  24.767  32.941   3.803
53863W        W24463  38.017  19.395   3.264
53864W        W24464  35.462  39.253  14.419
53865W        W24465   9.499  25.569   0.648
53866W        W24466  34.516  41.884   2.560
53867W        W24467  39.281   8.895  10.635
53868W        W24468  26.953  37.880   4.398
53869W        W24469   2.976  17.099   3.272
53870W        W24470  20.155  44.828  14.238
53871W        W24471  31.059   6.414  12.236
53872W        W24472  42.891   1.200   1.295
53873W        W24473  25.767  30.195   0.486
53874W        W24474   0.190  34.406   0.355
53875W        W24475  28.863  44.448   3.795
53876W        W24476  35.643  41.401   1.878
53877W        W24477  31.549  29.641   4.945
53878W        W24478   4.922  13.562   4.670
53879W        W24479  23.029  23.014   0.417
53880W        W24480  43.021  23.677   0.903
53881W        W24481  35.114  12.783  10.809
53882W        W24482  17.575  16.142   2.240
53883W        W24483  40.438  10.857  11.737
53884W        W24484  42.928  27.623   3.242
53885W        W24485  30.369   8.588  12.492
53886W        W24486   1.781  18.570   3.149
53887W        W24487  44.968  29.954  11.631
53888W        W24488  43.376  25.812  12.572
53889W        W24489  20.568  28.244  14.484
53890W        W24490   6.464  43.556   1.186
53891W        W24491  19.635   5.917   1.739
53892W        W24492  18.071  27.553   3.034
53893W        W24493  38.884  25.106   4.174
53894W        W24494  18.604  32.896   1.702
53895W        W24495  43.265  12.730   0.697
53896W        W24496   7.765  38.497   2.535
53897W        W24497  11.320   1.875  10.389
53898W        W24498   2.450  30.698  10.763
53899W        W24499   2.192  40.319  10.835
53900W        W24500  27.043  11.224   1.311
53901W        W24501  21.867   3.536  11.563
53902W        W24502  18.959  35.758  14.844
53903W        W24503   4.647  31.080  11.150
53904W        W24504  38.015   3.892  14.470
53905W        W24505  44.336  32.412  11.596
53906W        W24506  41.995  36.848  13.079
53907W        W24507  21.712   1.249   4.578
53908W        W24508   2.219  11.822  10.839
53909W        W24509  43.784  15.381   2.901
53910W        W24510  16.629   2.345  13.470
53911W        W24511  41.836   4.026  12.181
53912W        W24512  34.446  14.935  14.823
53913W        W24513  18.911  42.663  12.448
53914W        W24514  38.111   1.662   0.985
53915W        W24515  22.547  11.110   3.340
53916W        W24516   2.791   5.635   1.618
53917W        W24517  34.601  21.166  12.966
53918W        W24518  36.321  12.918   2.722
53919W        W24519   7.638  28.787   0.047
53920W        W24520  24.843   8.719  10.910
53921W        W24521  22.148  27.663   0.814
53922W        W24522  26.743  18.156   0.691
53923W        W24523   8.968  16.810  11.664
53924W        W24524  16.606  21.001  13.309
53925W        W24525  18.317  38.819  13.807
53926W        W24526  34.317   9.823  13.155
53927W        W24527  44.980  31.476   4.527
53928W        W24528   2.817  31.141  10.722
53929W        W24529  33.608  44.801   3.544
53930W        W24530  15.211  40.921   2.028
53931W        W24531  28.113  43.200   2.187
53932W        W24532  24.453  19.105  11.294
53933W        W24533  30.699  39.462   0.496
53934W        W24534  40.363   9.799  13.928
53935W        W24535  26.914   5.410   1.950
53936W        W24536  13.174  10.678   4.283
53937W        W24537  37.842  26.556   4.620
53938W        W24538  29.204  33.976   3.392
53939W        W24539  22.361  39.863  14.603
53940W        W24540  31.409  40.479  11.823
53941W        W24541  30.976  36.552  11.704
53942W        W24542  37.021  24.266   3.731
53943W        W24543   5.737  44.432  13.816
53944W        W24544  40.328  33.191  14.380
53945W        W24545  34.648   3.948  13.374
53946W        W24546  23.495  18.261  14.367
53947W        W24547  36.573  22.036  11.414
53948W        W24548  38.356  32.567  11.953
53949W        W24549  23.602  13.813   4.952
53950W        W24550  43.041   9.306   2.338
53951W        W24551  42.878  26.464  12.282
53952W        W24552  21.532  39.342  12.487
53953W        W24553  27.927  42.770   0.897
53954W        W24554  27.514  29.153  11.174
53955W        W24555  22.251   2.656  10.739
53956W        W24556  26.583  25.416   2.159
53957W        W24557  13.177  42.912  14.974
53958W        W24558   9.558  10.654  11.048
53959W        W24559   8.778   3.742  13.162
53960W        W24560  24.137  10.295  14.347
53961W        W24561  42.476   5.763   9.374
53962W        W24562  10.806  40.792  13.872
53963W        W24563   2.247   2.392  12.594
53964W        W24564  19.487  11.911   0.301
53965W        W24565  32.729  35.426  12.987
53966W        W24566  18.578  31.837  10.826
53967W        W24567  33.226  39.433   5.063
53968W        W24568   4.686  26.595   0.662
53969W        W24569   9.661  29.450   2.001
53970W        W24570  11.806  25.030  10.391
53971W        W24571  31.240  42.931  13.352
53972W        W24572  15.318   4.963   1.748
53973W        W24573   1.726  43.917  13.815
53974W        W24574  32.587  17.320  14.483
53975W        W24575  26.525  36.896  11.590
53976W        W24576  10.461   4.648  14.818
53977W        W24577  33.670  37.582   2.212
53978W        W24578  39.368   0.488  11.883
53979W        W24579   7.892   8.999  13.319
53980W        W24580  20.540  39.386   1.302
53981W        W24581  36.901  21.234   4.728
53982W        W24582  35.263   5.261   2.156
53983W        W24583   8.462   1.298   3.051
53984W        W24584   4.666   6.129  13.917
53985W        W24585   4.352  23.088  12.008
53986W        W24586  34.963  21.985  13.836
53987W        W24587  43.032  10.841  11.208
53988W        W24588   9.888   7.278  12.156
53989W        W24589  31.608   5.540   0.388
53990W        W24590  16.900  29.111   4.093
53991W        W24591   6.671  41.326   4.114
53992W        W24592  36.426   2.766   0.445
53993W        W24593   1.095  19.426   2.291
53994W        W24594   9.405  16.531   4.627
53995W        W24595   9.455  13.162  10.464
53996W        W24596  20.570   3.883   0.836
53997W        W24597  16.077   7.354   1.150
53998W        W24598  28.307  38.444   0.727
53999W        W24599  39.357   5.083  14.811
54000W        W24600  43.558  14.634   3.533
54001W        W24601  18.336  29.913  12.087
54002W        W24602  33.995  35.568  13.550
54003W        W24603   8.714  17.576   3.645
54004W        W24604   1.235  14.110  10.449
54005W        W24605  39.834  31.052  14.585
54006W        W24606  29.304   7.269  13.517
54007W        W24607  28.852  14.676  11.093
54008W        W24608   0.885  17.030   5.088
54009W        W24609  25.516  19.028  12.624
54010W        W24610  22.954  16.430  13.092
54011W        W24611  34.171   2.533  10.932
54012W        W24612  26.651  38.910   1.769
54013W        W24613  20.644   5.178   3.666
54014W        W24614  22.964  40.345  14.955
54015W        W24615   7.647   9.809  14.878
54016W        W24616  34.049  38.814  11.067
54017W        W24617  34.902  22.321   2.961
54018W        W24618  27.170  23.333   1.030
54019W        W24619  31.904  16.575  11.036
54020W        W24620  23.951  20.475  12.904
54021W        W24621   0.151   7.155   1.347
54022W        W24622  34.185  15.206  13.005
54023W        W24623  15.161   8.839   2.879
54024W        W24624   0.709  41.281   5.004
54025W        W24625   9.127  15.985  14.721
54026W        W24626  24.469   6.279  10.620
54027W        W24627  39.584  17.109   4.312
54028W        W24628   4.521   2.523  11.101
54029W        W24629  27.664  22.151  10.914
54030W        W24630  18.757   5.351  12.772
54031W        W24631  35.983  35.383   2.789
54032W        W24632  28.210  35.097  13.227
54033W        W24633   5.476  42.317   3.114
54034W        W24634  15.874   1.191  12.062
54035W        W24635  27.130  21.283   2.347
54036W        W24636  18.034  43.336  11.890
54037W        W24637  42.723  16.188  12.918
54038W        W24638  20.938  40.716  13.407
54039W        W24639  11.264  23.340   4.121
54040W        W24640  36.433  20.585  11.039
54041W        W24641  11.238  24.641  14.293
54042W        W24642  18.465  43.990  13.898
54043W        W24643   8.779  18.860  13.045
54044W        W24644  26.355   9.963  13.550
54045W        W24645  42.082  44.572  12.528
54046W        W24646  14.141  42.113  11.986
54047W        W24647   4.168  41.328   1.735
54048W        W24648  15.832   5.948   1.739
54049W        W24649  39.331  12.365  12.488
54050W        W24650   6.238   4.033   2.791
54051W        W24651   6.136  27.068   4.515
54052W        W24652  33.545  41.016   0.666
54053W        W24653  12.123  28.166  12.502
54054W        W24654   2.347  36.694  14.239
54055W        W24655  41.389  11.186   3.329
54056W        W24656   3.129  37.001   0.881
54057W        W24657  23.931   6.837   0.995
54058W        W24658  12.160   7.174   1.763
54059W        W24659   7.908  39.703  11.532
54060W        W24660  30.413   6.988  12.021
54061W        W24661  23.508   2.127  14.404
54062W        W24662  44.248  16.540  13.286
54063W        W24663  41.784  19.652   0.583
54064W        W24664  31.648   5.931  14.429
54065W        W24665  19.552  21.308  14.814
54066W        W24666  42.846  13.729  12.943
54067W        W24667  32.667  30.730   1.472
54068W        W24668  23.207  33.646   0.658
54069W        W24669  36.058  38.225   3.480
54070W        W24670  13.240  23.960   4.853
54071W        W24671  25.549  33.458  11.524
54072W        W24672  10.362  25.949  14.952
54073W        W24673  16.568  40.293  14.167
54074W        W24674  30.339  34.929   3.606
54075W        W24675  13.316  12.800  11.864
54076W        W24676   9.716   2.432   4.193
54077W        W24677  23.311  11.636  12.593
54078W        W24678  28.648  32.102   1.672
54079W        W24679  15.347  20.010   0.406
54080W        W24680   7.972  31.701   1.535
54081W        W24681  37.004  34.177  14.251
54082W        W24682  14.080  13.677  11.531
54083W        W24683  15.702   8.998   2.347
54084W        W24684  19.258  15.462   3.802
54085W        W24685  44.046   0.471   2.101
54086W        W24686  19.152  33.511  14.984
54087W        W24687  18.650  39.278   0.949
54088W        W24688   7.209  32.615  14.322
54089W        W24689  22.315  36.059   3.690
54090W        W24690  37.509  33.228   3.613
54091W        W24691  15.581  39.847  12.007
54092W        W24692   4.168  35.977   3.594
54093W        W24693   1.317  27.913   4.044
54094W        W24694  13.334   2.790  13.478
54095W        W24695  30.777  35.247   3.538
54096W        W24696  21.142  11.200  11.085
54097W        W24697  23.566  10.812   0.462
54098W        W24698   8.734  16.254  14.485
54099W        W24699  36.860  43.232   1.866
54100W        W24700  25.426  40.477   2.895
54101W        W24701  38.600  10.793  11.503
54102W        W24702  35.993  13.793   3.855
54103W        W24703  17.948  43.721   2.213
54104W        W24704  18.735  31.375   0.982
54105W        W24705  16.624  15.234  14.708
54106W        W24706   2.027  29.574   3.377
54107W        W24707  32.347  43.386  14.999
54108W        W24708   2.547  18.641   4.898
54109W        W24709  34.935  17.637   1.609
54110W        W24710  22.912  33.781   1.795
54111W        W24711  15.103  42.741   3.615
54112W        W24712   9.105   6.771  12.419
54113W        W24713  12.789  31.987  13.597
54114W        W24714  33.412  26.856   2.622
54115W        W24715  10.797  35.083  13.906
54116W        W24716  41.720   9.239  12.069
54117W        W24717   7.170  44.043  11.178
54118W        W24718   2.414  44.439   0.655
54119W        W24719  16.276  26.420  12.503
54120W        W24720  27.016  20.936   0.503
54121W        W24721  12.223   9.052   3.217
54122W        W24722  11.135  41.878  11.870
54123W        W24723  39.807   9.468   2.663
54124W        W24724  38.844  33.127   4.856
54125W        W24725   2.168  40.732  12.855
54126W        W24726  15.207  39.910   2.754
54127W        W24727  28.495  34.733   2.813
54128W        W24728  37.641  19.081   1.378
54129W        W24729  29.608  37.118   1.927
54130W        W24730   0.806  12.380   1.810
54131W        W24731  32.127  10.200   3.015
54132W        W24732  35.755  42.285  14.333
54133W        W24733  31.120  39.363   0.075
54134W        W24734   1.902  40.499  14.228
54135W        W24735   3.985  43.496   1.435
54136W        W24736   4.303  28.422  13.162
54137W        W24737  17.046  36.140  12.134
54138W        W24738   5.810  27.513   3.753
54139W        W24739  39.771   3.023  10.857
54140W        W24740  23.231  29.927   3.017
54141W        W24741  36.659  32.727   1.468
54142W        W24742  40.963   3.276   9.840
54143W        W24743  21.045  13.878  10.589
54144W        W24744  23.578   8.095  12.895
54145W        W24745  20.434  43.782   4.079
54146W        W24746  25.464   1.436   3.640
54147W        W24747  22.378  12.455  12.499
54148W        W24748  19.076  15.503  14.959
54149W        W24749  12.158  18.061   3.591
54150W        W24750  41.869   1.581  10.798
54151W        W24751  29.080  12.648   1.807
54152W        W24752  29.207   6.567  13.913
54153W        W24753  15.767  27.698  11.646
54154W        W24754  27.616  33.100  13.746
54155W        W24755  29.078   8.132  14.935
54156W        W24756  41.361  12.715  12.047
54157W        W24757  18.761  12.657  14.933
54158W        W24758  10.155   3.005  14.837
54159W        W24759  43.250  35.438   3.795
54160W        W24760   3.144   9.207  14.484
54161W        W24761  33.027  11.096   1.883
54162W        W24762  28.553  21.672   4.282
54163W        W24763  18.576  36.591   3.293
54164W        W24764  11.567  35.569   1.766
54165W        W24765   6.253  18.616   0.478
54166W        W24766   2.696  19.552   5.077
54167W        W24767   5.637  24.233   4.723
54168W        W24768  28.579  43.287   0.443
54169W        W24769  13.166  16.797   2.809
54170W        W24770  16.656  13.287  11.531
54171W        W24771  22.215   0.501  12.009
54172W        W24772  22.479  15.247   2.669
54173W        W24773  15.575  19.009   2.777
54174W        W24774  10.279   7.162   3.195
54175W        W24775  11.405  36.924  14.533
54176W        W24776   0.307   9.889   1.302
54177W        W24777  10.088  18.838   0.794
54178W        W24778  12.126   7.560  12.969
54179W        W24779  20.505  33.178   2.222
54180W        W24780   6.393  31.060   3.369
54181W        W24781  28.019  21.695  11.417
54182W        W24782  36.956  38.585  10.570
54183W        W24783  11.872  11.121  13.518
54184W        W24784  21.184  26.435   4.986
54185W        W24785  21.634  19.295   2.913
54186W        W24786  41.845   1.508  11.580
54187W        W24787  10.191  15.867   1.470
54188W        W24788  38.823  19.637   5.532
54189W        W24789  28.133  19.845  11.078
54190W        W24790  18.780   8.777  13.974
54191W        W24791  12.685  19.654  14.758
54192W        W24792  18.762  14.059   5.035
54193W        W24793  16.645  35.418   1.904
54194W        W24794  29.989   1.403  13.498
54195W        W24795  31.473   3.893  14.503
54196W        W24796  39.774  23.696   1.959
54197W        W24797  41.505   1.224   4.492
54198W        W24798  11.673  35.268  14.103
54199W        W24799  42.252  20.953  11.513
54200W        W24800  16.501  12.821  14.039
54201W        W24801   3.714  25.465   2.891
54202W        W24802  26.547   1.745   0.386
54203W        W24803  39.827  15.309  11.079
54204W        W24804   6.214  32.170   2.767
54205W        W24805  19.347  33.911   1.267
54206W        W24806   9.826  38.606   2.151
54207W        W24807  40.071  28.267  12.626
54208W        W24808  14.274   2.380  10.674
54209W        W24809  33.000  10.831   4.869
54210W        W24810  37.786  39.067   0.712
54211W        W24811  13.908   3.677  12.509
54212W        W24812   3.287  38.311   0.001
54213W        W24813  22.950  21.590  14.367
54214W        W24814  34.482  38.820   1.913
54215W        W24815   0.225  32.088   1.194
54216W        W24816   0.930   8.073   4.001
54217W        W24817  13.636  29.623  13.397
54218W        W24818  25.398   6.793  12.387
54219W        W24819  43.202  41.927  14.474
54220W        W24820  21.717  42.406   3.242
54221W        W24821   0.750  39.926   4.161
54222W        W24822  15.730  44.505  13.113
54223W        W24823  29.923  16.137  14.765
54224W        W24824  13.599  14.952   3.175
54225W        W24825  12.871   3.754  14.422
54226W        W24826  11.877   3.843   4.191
54227W        W24827   8.687  37.052  13.058
54228W        W24828  11.144  11.805  14.460
54229W        W24829  36.550  28.665   4.264
54230W        W24830  12.206  18.860   2.179
54231W        W24831  32.385  18.003   4.106
54232W        W24832  22.418  14.276   2.628
54233W        W24833  41.323   7.044  12.456
54234W        W24834   4.794  29.185  13.131
54235W        W24835  38.672  35.771  10.265
54236W        W24836  18.974  10.606  11.510
54237W        W24837  33.612  10.772  13.959
54238W        W24838  11.512  21.106   0.983
54239W        W24839  21.198   8.683  14.024
54240W        W24840  25.429  37.908  11.506
54241W        W24841  25.571  30.084   4.769
54242W        W24842  28.703  38.221  12.236
54243W        W24843  20.067  36.493  12.118
54244W        W24844  25.020  13.232  14.497
54245W        W24845   4.986  37.310  12.523
54246W        W24846   4.062  10.719   4.128
54247W        W24847  41.315  30.935   4.170
54248W        W24848   1.856   1.545  13.783
54249W        W24849  32.390   5.141   1.922
54250W        W24850  14.816  44.392  12.608
54251W        W24851  37.093  19.130   4.105
54252W        W24852   1.931   9.933   2.315
54253W        W24853  26.510  41.304   1.711
54254W        W24854  27.302  40.630   3.608
54255W        W24855  34.395  27.005  12.656
54256W        W24856  32.319   1.840   3.354
54257W        W24857  35.897  16.641   4.053
54258W        W24858  19.651  15.650   0.660
54259W        W24859  31.977   4.434   2.788
54260W        W24860  11.841  22.393   4.153
54261W        W24861   6.353   1.732   1.662
54262W        W24862  31.928  41.207   2.294
54263W        W24863  34.797   3.536   0.844
54264W        W24864  42.981  41.774  10.737
54265W        W24865  42.197   4.464   1.789
54266W        W24866  15.195  29.053   2.314
54267W        W24867  32.636  14.119  10.597
54268W        W24868  14.433  19.271  14.893
54269W        W24869  31.949   3.419   1.761
54270W        W24870  35.286   9.713  10.802
54271W        W24871  17.733  28.643   2.414
54272W        W24872   7.715  38.896   0.461
54273W        W24873  28.216   3.005   1.681
54274W        W24874  19.040   9.939   3.338
54275W        W24875  19.040  23.673   3.228
54276W        W24876  25.655   2.846   1.284
54277W        W24877  19.815   9.287  12.568
54278W        W24878  18.750  40.815   2.945
54279W        W24879   9.654  40.321   2.633
54280W        W24880   4.632   0.476  11.533
54281W        W24881  44.828  24.020   3.702
54282W        W24882  39.976  19.148  12.753
54283W        W24883  27.668  39.574   3.161
54284W        W24884  43.532  42.303  14.364
54285W        W24885   0.484  42.063   0.651
54286W        W24886  14.358  41.467   4.135
54287W        W24887   4.576  20.587  11.978
54288W        W24888  15.051  12.234   2.339
54289W        W24889  29.965  40.940   0.965
54290W        W24890  19.725   0.299   3.849
54291W        W24891   5.509  35.011  11.247
54292W        W24892  29.797  28.583  14.493
54293W        W24893  11.106   9.371  10.405
54294W        W24894  33.323  25.506  13.358
54295W        W24895  16.598   8.653   2.080
54296W        W24896  18.127  33.482   4.004
54297W        W24897  15.140  41.502   0.749
54298W        W24898  38.053  28.196   2.260
54299W        W24899   5.922  14.830  13.337
54300W        W24900   9.780  35.871  10.363
54301W        W24901  11.783  38.252   4.666
54302W        W24902  44.349  38.826  10.872
54303W        W24903  22.192   6.638  12.486
54304W        W24904  28.959  44.045  12.258
54305W        W24905  39.262   4.844   3.609
54306W        W24906  38.343  37.571   3.769
54307W        W24907   6.664  38.986   0.294
54308W        W24908   1.349   9.753  11.459
54309W        W24909   1.880  39.131  10.592
54310W        W24910  44.784  18.639  11.546
54311W        W24911   9.182  29.612   0.317
54312W        W24912  16.887  20.341   0.424
54313W        W24913   4.508  44.992  10.871
54314W        W24914  33.871  41.995  14.869
54315W        W24915  44.327   0.351  12.000
54316W        W24916  44.698   0.624  13.864
54317W        W24917  30.897  40.361  10.814
54318W        W24918   5.319  43.846  10.957
54319W        W24919  40.486  33.884  11.422
54320W        W24920  20.046   0.811   3.741
54321W        W24921  35.936  20.863  11.729
54322W        W24922  16.309   1.961   0.123
54323W        W24923  16.941   9.194   1.323
54324W        W24924  36.643  14.428  12.393
54325W        W24925  44.281  42.915  11.862
54326W        W24926  41.642  42.858   0.288
54327W        W24927   9.025  43.793   2.466
54328W        W24928   8.191   0.741   4.193
54329W        W24929  30.648  21.272   4.596
54330W        W24930  35.332  36.536   4.586
54331W        W24931  38.851  33.601  12.625
54332W        W24932  41.809  31.166   4.210
54333W        W24933  19.226   7.067   2.305
54334W        W24934  19.576  32.210   2.406
54335W        W24935  11.709   1.828  13.972
54336W        W24936  17.618  23.452  11.929
54337W        W24937  39.854  13.288   2.641
54338W        W24938   3.257  13.368   4.350
54339W        W24939   3.748  18.235  12.928
54340W        W24940  35.825  37.971  13.853
54341W        W24941   6.675  26.010   1.784
54342W        W24942  25.599  44.279   4.635
54343W        W24943  25.806  10.620  11.582
54344W        W24944  33.623  17.090   3.884
54345W        W24945  14.800  17.065   0.923
54346W        W24946   0.011  29.623   0.945
54347W        W24947  44.697  33.271   2.673
54348W        W24948  22.192  43.386   4.134
54349W        W24949  34.946  17.587   2.146
54350W        W24950  19.283  12.703  14.958
54351W        W24951  32.218  23.532  11.495
54352W        W24952  33.435   2.276  14.376
54353W        W24953  35.311  30.454  13.888
54354W        W24954  33.944  20.085   2.433
54355W        W24955  21.612  18.149  13.310
54356W        W24956  30.547  31.162   4.570
54357W        W24957  32.439  27.099  10.695
54358W        W24958  21.943  31.117   2.726
54359W        W24959  29.804  22.335  13.171
54360W        W24960  27.205  32.281  12.513
54361W        W24961   7.091  10.782  10.812
54362W        W24962  41.971  13.785   1.863
54363W        W24963   6.062   7.652  11.874
54364W        W24964  37.198   7.095  14.765
54365W        W24965  37.255  41.981   3.600
54366W        W24966  43.997  40.852   0.663
54367W        W24967  25.412  11.895   2.400
54368W        W24968  38.547  21.104   2.258
54369W        W24969  22.189   0.676   3.881
54370W        W24970   9.724  15.484   3.717
54371W        W24971  10.198  14.169   1.990
54372W        W24972  24.880  27.087  12.012
54373W        W24973   1.563  44.340  13.581
54374W        W24974  27.481  21.725  10.674
54375W        W24975  32.675  35.646   1.925
54376W        W24976  15.264  36.002   0.701
54377W        W24977  38.434  15.325  12.022
54378W        W24978  31.143   0.990  13.579
54379W        W24979  44.851  40.143  11.141
54380W        W24980  42.819   9.562   0.669
54381W        W24981  38.878   1.466  14.186
54382W        W24982   8.866   9.815   1.210
54383W        W24983  12.759   6.864  11.202
54384W        W24984  28.440  28.418  13.742
54385W        W24985  33.380  13.901   1.253
54386W        W24986  10.356   0.296   3.482
54387W        W24987   1.230  13.093  12.382
54388W        W24988  35.295  43.547   3.639
54389W        W24989  21.300  41.283  10.682
54390W        W24990  14.692  29.424   3.612
54391W        W24991  35.055  22.675   3.336
54392W        W24992  40.835  29.931  13.961
54393W        W24993   4.691  24.245  10.662
54394W        W24994  35.077   1.038   2.315
54395W        W24995  38.342  24.508   0.457
54396W        W24996  14.373   6.762  12.821
54397W        W24997  29.102  39.279  12.992
54398W        W24998  37.893  32.935   1.197
54399W        W24999  23.212  40.837   3.575
54400W        W25000  22.578  25.894   0.773
54401W        W25001  27.141  21.654   3.858
54402W        W25002  12.102  35.661   1.909
54403W        W25003  35.425  44.893   4.050
54404W        W25004  15.671  36.858  13.397
54405W        W25005   8.938   5.345  14.844
54406W        W25006   1.317   9.591  10.478
54407W        W25007  22.249  33.355   0.518
54408W        W25008  35.498  14.758   0.345
54409W        W25009   7.936  17.290   3.706
54410W        W25010  41.349  21.998  10.773
54411W        W25011  19.237  18.672   0.513
54412W        W25012  13.138  18.070   0.533
54413W        W25013  29.168  27.997  13.402
54414W        W25014  27.975  34.757  14.166
54415W        W25015  38.642  26.194   0.245
54416W        W25016  39.844  16.077  11.517
54417W        W25017  16.974  34.541  10.537
54418W        W25018  33.692   3.308  14.313
54419W        W25019  15.315  23.131   1.431
54420W        W25020  37.472   5.062  11.010
54421W        W25021  30.875  12.831   1.183
54422W        W25022  28.934  34.385  12.085
54423W        W25023  20.075  15.838   1.672
54424W        W25024  33.525  30.924  13.334
54425W        W25025   0.450  29.734   0.029
54426W        W25026  43.754  30.009   1.743
54427W        W25027  22.775  43.186  12.914
54428W        W25028  11.120   9.236  11.424
54429W        W25029   9.901  44.304  13.420
54430W        W25030  29.473  19.303  13.960
54431W        W25031  15.838   9.683  12.061
54432W        W25032  32.905  15.843   3.891
54433W        W25033   4.900  42.011   4.639
54434W        W25034  22.219  26.703  11.133
54435W        W25035  40.504  14.271  11.518
54436W        W25036  29.663  26.475  11.584
54437W        W25037   8.576  11.764  14.437
54438W        W25038   4.192  41.000  14.219
54439W        W25039   6.427  35.986   1.203
54440W        W25040  27.486  15.755   0.488
54441W        W25041  17.794  15.990  14.459
54442W        W25042  37.400  44.322  13.964
54443W        W25043   9.272   7.748   1.504
54444W        W25044  28.618  22.091  10.386
54445W        W25045  36.024  27.598  12.925
54446W        W25046   0.993  21.777  13.381
54447W        W25047  29.232  29.157   2.216
54448W        W25048  35.643  14.079  13.189
54449W        W25049  44.167  38.530   1.763
54450W        W25050  28.025  36.786   1.655
54451W        W25051  33.930  16.373   0.542
54452W        W25052   8.937  27.184  14.946
54453W        W25053  37.543  33.510  13.915
54454W        W25054  22.200  22.655   0.771
54455W        W25055  20.794  27.212   1.477
54456W        W25056  15.195  27.201  12.418
54457W        W25057  39.714  38.915   4.063
54458W        W25058  27.631   9.378   1.725
54459W        W25059  19.770   1.805   4.517
54460W        W25060  35.610   5.983  12.585
54461W        W25061   0.357  16.706   4.451
54462W        W25062  33.612  43.383  10.731
54463W        W25063  16.695  39.955   0.482
54464W        W25064  39.319  23.379   2.904
54465W        W25065  43.474  43.672  14.395
54466W        W25066  41.015  31.784   5.071
54467W        W25067  31.919  16.779   4.171
54468W        W25068   3.919  19.501   4.615
54469W        W25069  12.166  39.817   3.833
54470W        W25070  11.334  26.903   3.098
54471W        W25071   9.859   3.938   1.165
54472W        W25072  10.238  40.370   0.806
54473W        W25073  23.991  12.617   3.127
54474W        W25074   7.390  43.289  12.490
54475W        W25075  26.479  22.620  12.100
54476W        W25076  44.811  27.458  12.599
54477W        W25077  39.390  24.948   1.906
54478W        W25078  21.239  14.933  13.640
54479W        W25079  13.530  40.530  11.737
54480W        W25080  29.677  17.343  13.409
54481W        W25081   5.142  32.105  12.427
54482W        W25082  24.243  10.631  13.860
54483W        W25083  24.530  35.436  11.010
54484W        W25084   3.440  36.347   3.859
54485W        W25085   7.329   0.043  11.146
54486W        W25086  12.642   9.960   2.278
54487W        W25087  18.396  38.752   0.004
54488W        W25088  16.966  26.530   2.158
54489W        W25089  29.231  13.707   0.324
54490W        W25090  37.889   6.266  13.960
54491W        W25091  31.898  28.687  13.508
54492W        W25092   5.771  20.661   3.416
54493W        W25093  26.982   1.998  11.996
54494W        W25094  22.365   8.718  10.262
54495W        W25095  13.037  40.393  11.694
54496W        W25096  44.979  21.770  12.508
54497W        W25097   5.682  21.182   5.159
54498W        W25098  40.166   4.225  12.639
54499W        W25099  17.245  23.732   3.722
54500W        W25100  41.808  36.442  10.746
54501W        W25101  10.284   2.353   1.228
54502W        W25102  24.073  44.953  12.807
54503W        W25103  31.013  25.236  11.686
54504W        W25104  42.922   8.694  11.539
54505W        W25105  13.725   8.880   4.554
54506W        W25106  30.393  32.582  10.989
54507W        W25107  26.971  12.279   2.899
54508W        W25108  23.291   4.191   1.029
54509W        W25109  37.285  38.982  10.600
54510W        W25110  11.360   9.666   1.492
54511W        W25111  17.115   9.341   2.431
54512W        W25112  26.151  43.297   1.445
54513W        W25113  31.762  29.909  13.475
54514W        W25114  44.938   1.464  13.814
54515W        W25115  38.616  13.001   2.262
54516W        W25116  16.209  44.348  14.021
54517W        W25117  10.632  12.932  11.548
54518W        W25118   0.441   4.715  11.482
54519W        W25119  22.722  20.972   3.238
54520W        W25120  25.133   2.245  14.404
54521W        W25121  16.417  34.609  14.137
54522W        W25122   1.424  21.019  13.017
54523W        W25123  26.051  42.274   1.307
54524W        W25124   9.360  18.671   4.165
54525W        W25125  22.614  18.594   0.154
54526W        W25126  40.527  29.907  12.785
54527W        W25127  26.659  26.983  14.583
54528W        W25128  12.708  36.892   4.184
54529W        W25129   6.845  24.247  11.627
54530W        W25130  42.894  24.179  12.089
54531W        W25131  23.704  43.749  13.960
54532W        W25132  38.581  32.100  12.543
54533W        W25133  12.540  29.582   0.462
54534W        W25134  31.016  16.633  11.248
54535W        W25135   3.023   4.151   1.776
54536W        W25136  43.192   1.906   1.807
54537W        W25137  11.779  15.048   4.143
54538W        W25138  29.434   4.389   3.625
54539W        W25139  35.892   9.664   4.187
54540W        W25140  22.210  44.340  12.438
54541W        W25141  10.780  31.712   4.613
54542W        W25142  28.428  20.380   0.853
54543W        W25143  15.697  32.302  11.588
54544W        W25144  43.788  17.579  13.969
54545W        W25145   1.752  28.884  13.937
54546W        W25146  11.736  19.490  10.386
54547W        W25147   6.339  23.306   0.949
54548W        W25148   8.906  28.345   2.707
54549W        W25149   0.357  37.109  10.645
54550W        W25150   6.524   7.850   1.631
54551W        W25151  27.934  30.869  11.986
54552W        W25152  19.567  30.324  11.526
54553W        W25153  30.111   4.972  11.684
54554W        W25154  40.343  28.424   4.570
54555W        W25155  23.114  28.564   4.292
54556W        W25156   8.873  37.310   0.329
54557W        W25157  21.802  11.740   2.578
54558W        W25158   1.527  29.780  14.005
54559W        W25159  24.951  23.145  13.002
54560W        W25160  42.068  26.053  11.481
54561W        W25161  42.998  31.641   2.770
54562W        W25162  10.544  21.738  12.074
54563W        W25163  11.702  31.091   0.450
54564W        W25164  42.401  16.526   1.439
54565W        W25165  35.920  16.104  12.915
54566W        W25166  38.999  35.836   4.310
54567W        W25167  16.321  15.608   5.421
54568W        W25168   6.241  28.402   3.163
54569W        W25169  31.067  30.103   0.695
54570W        W25170  22.432  29.236   1.448
54571W        W25171  33.726  37.945   0.649
54572W        W25172  18.779   0.717  14.312
54573W        W25173  13.642  25.641  11.102
54574W        W25174  11.523  21.217   2.238
54575W        W25175  36.337  26.610   2.247
54576W        W25176  23.091  16.509  11.664
54577W        W25177   2.869  39.720   0.077
54578W        W25178  43.525   4.734   3.200
54579W        W25179  11.826   7.129   3.785
54580W        W25180  37.754  12.230   0.719
54581W        W25181  14.125  24.324   4.435
54582W        W25182  30.873  38.064   0.172
54583W        W25183   5.952  10.595   4.833
54584W        W25184   9.049  31.477  14.307
54585W        W25185   7.681  22.487  12.385
54586W        W25186   8.934  11.867  11.499
54587W        W25187  38.937  23.186   3.750
54588W        W25188  31.443  27.147  11.690
54589W        W25189   5.212  18.553  12.378
54590W        W25190  36.458  33.687   0.367
54591W        W25191   1.907  12.561   1.431
54592W        W25192   5.036   4.564  10.534
54593W        W25193   5.644   2.325  12.519
54594W        W25194  24.265  15.188  11.186
54595W        W25195   5.230  24.013   0.352
54596W        W25196  33.011  38.784   1.174
54597W        W25197  13.646  44.775   2.635
54598W        W25198  20.687   8.758  11.930
54599W        W25199  33.137   6.720  13.040
54600W        W25200  18.929  31.222  12.146
54601W        W25201  11.589  21.649  14.398
54602W        W25202  36.721  44.898  13.997
54603W        W25203  15.664   6.352   3.543
54604W        W25204  34.028  44.748   4.176
54605W        W25205   5.403  44.054   0.245
54606W        W25206   7.770  28.920   4.685
54607W        W25207  24.491   7.745   3.505
54608W        W25208  44.239  44.262   1.727
54609W        W25209   0.784  41.590   2.341
54610W        W25210  19.103  22.323  13.294
54611W        W25211  24.035  18.265  10.659
54612W        W25212  25.366   3.940   2.774
54613W        W25213   5.533   4.950   1.329
54614W        W25214  38.814  17.271  13.889
54615W        W25215  20.169  39.891  13.286
54616W        W25216  34.877  43.943  10.555
54617W        W25217  37.994  28.683   2.753
54618W        W25218  11.306  11.207   2.233
54619W        W25219   0.300  17.283   2.328
54620W        W25220  35.727  24.805  11.611
54621W        W25221   9.366   8.697  14.356
54622W        W25222  13.690  36.331   2.357
54623W        W25223  21.659  22.896   4.848
54624W        W25224  11.379  18.656  14.458
54625W        W25225  38.778  27.912   0.359
54626W        W25226  42.411  44.985  12.451
54627W        W25227  21.044  24.684  12.995
54628W        W25228  12.385  28.138  10.658
54629W        W25229  21.817  41.570   2.774
54630W        W25230  10.821   2.228  13.961
54631W        W25231   3.970  36.328   4.755
54632W        W25232  19.567  25.292  14.951
54633W        W25233  16.084  14.693   2.862
54634W        W25234  19.263  31.550   4.168
54635W        W25235  17.753   7.189   1.040
54636W        W25236  10.917   0.386   1.637
54637W        W25237  31.005   8.647   4.198
54638W        W25238  10.283  14.684   4.553
54639W        W25239   3.701   0.884   2.202
54640W        W25240  24.979   3.955   1.385
54641W        W25241  13.604  31.912  11.123
54642W        W25242  19.080  12.214  14.866
54643W        W25243   3.905   4.308  11.470
54644W        W25244  43.560  40.089   0.892
54645W        W25245   1.201  16.850  14.863
54646W        W25246  15.791  37.306  14.666
54647W        W25247  16.016  11.875   3.695
54648W        W25248  20.971  27.758   3.122
54649W        W25249  37.939  40.096   4.525
54650W        W25250  13.152  42.697   1.759
54651W        W25251  40.397  43.001  10.477
54652W        W25252   5.148  18.294  10.081
54653W        W25253  24.042   9.729   3.955
54654W        W25254   6.319  29.642  11.694
54655W        W25255  12.881  30.487  10.681
54656W        W25256  24.246  19.696  10.268
54657W        W25257  42.311  41.795   4.558
54658W        W25258  23.244   4.751   2.658
54659W        W25259  39.849  31.222  11.954
54660W        W25260   4.278  10.502  12.036
54661W        W25261   1.362  17.822   0.721
54662W        W25262  41.508  36.403   2.813
54663W        W25263   0.956  40.477  14.449
54664W        W25264  41.051  15.155  14.767
54665W        W25265  12.770   5.830  14.787
54666W        W25266  15.207  26.252  14.393
54667W        W25267  35.891  41.347  14.463
54668W        W25268  27.201  35.599   0.972
54669W        W25269  27.040   5.777   4.597
54670W        W25270  33.346  23.301  13.659
54671W        W25271  26.565   3.933  14.339
54672W        W25272  26.077  34.797  11.899
54673W        W25273   1.757   6.095  11.886
54674W        W25274  32.557  36.608   1.310
54675W        W25275  29.547  27.407   4.205
54676W        W25276  33.419  37.022  11.245
54677W        W25277   8.391  18.509  12.993
54678W        W25278  19.317  44.260   0.527
54679W        W25279  12.783  42.390  13.423
54680W        W25280  31.724   2.943   4.121
54681W        W25281   3.206  22.472   1.469
54682W        W25282  31.500  33.559  14.843
54683W        W25283  21.989  42.790  13.436
54684W        W25284  14.023  14.591  14.560
54685W        W25285  23.535  36.973   2.016
54686W        W25286  11.224  34.148   3.308
54687W        W25287  37.473   5.247  11.891
54688W        W25288   9.882  44.037  12.928
54689W        W25289  42.867  15.377   0.346
54690W        W25290  40.027  33.482  13.821
54691W        W25291  39.880  16.240   4.467
54692W        W25292  26.856  25.410  10.682
54693W        W25293  31.097  43.135  13.969
54694W        W25294   2.410  19.570   2.509
54695W        W25295  29.833   7.384   0.664
54696W        W25296  36.762  29.350  12.958
54697W        W25297  10.805   9.620  13.851
54698W        W25298   3.449  14.714  10.700
54699W        W25299  12.082  36.435  13.412
54700W        W25300   2.506  23.321   2.285
54701W        W25301  36.007   2.102   0.388
54702W        W25302   5.720  21.422  14.778
54703W        W25303  23.952   5.221   3.510
54704W        W25304  10.533   9.879  10.740
54705W        W25305   2.478  26.342   5.077
54706W        W25306  11.187  17.280   0.212
54707W        W25307   9.345  16.961  13.101
54708W        W25308   6.829  40.543   3.744
54709W        W25309   5.448   9.824   0.715
54710W        W25310  40.989  15.015  13.813
54711W        W25311  13.408   0.299  12.557
54712W        W25312  25.560  22.212   1.806
54713W        W25313  22.964   3.899  12.742
54714W        W25314   3.045  22.053   2.116
54715W        W25315  25.990  30.981   0.273
54716W        W25316  10.838   2.328   3.235
54717W        W25317  27.834  15.132   1.010
54718W        W25318   2.742  31.374  14.480
54719W        W25319   3.820  39.322  14.458
54720W        W25320  32.313  32.804   4.536
54721W        W25321   5.619  11.645  14.232
54722W        W25322  23.663  13.786  14.414
54723W        W25323  22.489  11.709  12.923
54724W        W25324   9.566  32.537   4.176
54725W        W25325  27.236  42.375  13.424
54726W        W25326  42.359   7.226   4.448
54727W        W25327   8.778  28.496   0.900
54728W        W25328  36.415  16.847  12.512
54729W        W25329  14.779  30.620  14.564
54730W        W25330  38.831  34.460  10.721
54731W        W25331  36.145   8.278   2.285
54732W        W25332  11.204  43.101   0.394
54733W        W25333   0.362  31.859   1.868
54734W        W25334  41.779   1.341   4.080
54735W        W25335  14.776  35.422  14.846
54736W        W25336  17.344  27.098   3.290
54737W        W25337  41.345  23.426  11.932
54738W        W25338  44.298  33.035   3.431
54739W        W25339   6.258  11.686  11.183
54740W        W25340  18.232  14.629  11.636
54741W        W25341  31.357  35.560  12.000
54742W        W25342  35.664  24.585   2.216
54743W        W25343   7.218  26.584   3.219
54744W        W25344  17.275  13.343  12.471
54745W        W25345  30.485   3.374   1.307
54746W        W25346  25.832   6.067   4.178
54747W        W25347   6.212  29.254   1.009
54748W        W25348   5.911   3.314  12.401
54749W        W25349  15.657   4.329  10.540
54750W        W25350   8.649  39.967   0.237
54751W        W25351  30.212  12.101   2.755
54752W        W25352  41.000  43.519  12.147
54753W        W25353  32.854   2.090  13.033
54754W        W25354  15.299  34.341   1.331
54755W        W25355  21.700   6.204   4.474
54756W        W25356  11.698   0.300   3.100
54757W        W25357  43.878  11.494   3.635
54758W        W25358  19.289   8.618  14.002
54759W        W25359  42.385  22.681   1.636
54760W        W25360  26.434   4.184  11.127
54761W        W25361   9.066   9.411   2.781
54762W        W25362  39.438  40.831   2.131
54763W        W25363  19.641  20.222  13.409
54764W        W25364  38.065  17.060   0.395
54765W        W25365  24.922  17.039   3.604
54766W        W25366  28.415   5.767  13.511
54767W        W25367  27.216  26.498   2.802
54768W        W25368  11.155  10.081   3.827
54769W        W25369  40.039  11.733  10.276
54770W        W25370  22.249  24.065   4.021
54771W        W25371  16.313  33.643   0.740
54772W        W25372  19.285  40.955  11.652
54773W        W25373   8.384  30.416  14.648
54774W        W25374   4.260  44.605   3.297
54775W        W25375   1.201  38.939  11.686
54776W        W25376   1.685  24.726  14.258
54777W        W25377  39.491   8.897  11.169
54778W        W25378   2.389  28.177   3.588
54779W        W25379   2.395  25.666  11.047
54780W        W25380  39.139  24.023   2.353
54781W        W25381  24.610   2.804   4.430
54782W        W25382   2.663  13.053  12.549
54783W        W25383  40.961  15.384   0.747
54784W        W25384  31.427  22.358   2.980
54785W        W25385  13.094  25.431  12.584
54786W        W25386  33.727  33.276   2.309
54787W        W25387  29.919  12.741  13.777
54788W        W25388  12.759  39.019  11.649
54789W        W25389   8.423  27.683  13.336
54790W        W25390  32.065  35.781  14.496
54791W        W25391  24.362  18.528  14.798
54792W        W25392   8.730  20.294   0.323
54793W        W25393  39.917   1.207  12.660
54794W        W25394   3.980  26.194  12.020
54795W        W25395  24.242  29.735   0.400
54796W        W25396  43.720  40.167   0.199
54797W        W25397  23.328   0.241  13.114
54798W        W25398  41.119  19.684  13.949
54799W        W25399  41.798  25.165   1.214
54800W        W25400  23.547  36.827  13.338
54801W        W25401   9.640   2.755   0.879
54802W        W25402  17.223  11.687  12.689
54803W        W25403  30.288   4.577  14.580
54804W        W25404  34.833  35.595   0.039
54805W        W25405  19.546  42.268  11.447
54806W        W25406  29.960  27.503   2.782
54807W        W25407  12.537  30.806   3.548
54808W        W25408   9.760  18.233   0.403
54809W        W25409   9.716  26.768   4.113
54810W        W25410  30.702  37.467  13.112
54811W        W25411  21.846   1.090   3.776
54812W        W25412  41.795  26.466  10.264
54813W        W25413  44.349  25.674   4.267
54814W        W25414   3.492  36.590  14.786
54815W        W25415  32.337  32.405  14.483
54816W        W25416   3.810  26.545  12.667
54817W        W25417   3.608   3.095  12.163
54818W        W25418   4.669   8.018  14.261
54819W        W25419  18.247  24.474   2.303
54820W        W25420  10.826  28.433   4.637
54821W        W25421  12.379  25.226   4.952
54822W        W25422  19.273  36.104   4.231
54823W        W25423  41.394  44.236  12.055
54824W        W25424  42.088   6.249  11.614
54825W        W25425   1.455  39.733   2.199
54826W        W25426   3.419  33.752  11.767
54827W        W25427  16.536  41.533   1.835
54828W        W25428  27.503   6.650   2.286
54829W        W25429  33.539   4.812  10.974
54830W        W25430  10.609  22.090  12.528
54831W        W25431  18.783   2.765   3.992
54832W        W25432  14.784  19.705  10.746
54833W        W25433  44.060  37.125   2.120
54834W        W25434  38.397  15.278  10.684
54835W        W25435  13.201  22.744   3.180
54836W        W25436   9.847  27.709   2.235
54837W        W25437  40.719  22.747  13.298
54838W        W25438  32.905  13.652   2.129
54839W        W25439  22.525  24.898   5.087
54840W        W25440   8.535  33.613   1.697
54841W        W25441  20.518  39.470  13.465
54842W        W25442  36.025   4.540  12.378
54843W        W25443   1.188  36.015  12.975
54844W        W25444  24.439  18.036   1.212
54845W        W25445   8.777  18.510  10.742
54846W        W25446   4.805   8.693   1.679
54847W        W25447  39.834  26.246  11.062
54848W        W25448   8.679  12.371   3.654
54849W        W25449  27.300  27.475  11.235
54850W        W25450  38.084  33.604  11.631
54851W        W25451  12.335  25.594   3.235
54852W        W25452  14.605  39.286   0.862
54853W        W25453  32.585  37.822  12.317
54854W        W25454  44.924   6.001  12.145
54855W        W25455  25.624  15.320   1.914
54856W        W25456   9.370  22.698  10.721
54857W        W25457  20.105   2.723  10.617
54858W        W25458  32.362  40.274  12.605
54859W        W25459   2.464  12.145   2.058
54860W        W25460   4.262  14.134  13.778
54861W        W25461  29.645   9.294  12.086
54862W        W25462  16.127  12.213   4.774
54863W        W25463  10.216  25.884   3.134
54864W        W25464  38.147  35.337  12.228
54865W        W25465  17.850  12.948   4.290
54866W        W25466  35.579  35.320   1.409
54867W        W25467  34.515  10.864   0.920
54868W        W25468  21.529  10.787  11.463
54869W        W25469  30.938  43.910   4.526
54870W        W25470  42.789  44.461  13.031
54871W        W25471  21.549  17.204  14.464
54872W        W25472  31.675  34.939  13.345
54873W        W25473  32.525   2.267  13.397
54874W        W25474  27.773  23.790  11.679
54875W        W25475  43.779  35.171   0.541
54876W        W25476   9.408  36.150   4.124
54877W        W25477  12.134   9.540   3.066
54878W        W25478   6.518  22.665  11.405
54879W        W25479  35.995  43.273  13.174
54880W        W25480   8.080  25.921  11.192
54881W        W25481   9.291   6.560   4.492
54882W        W25482  23.264  10.147  11.091
54883W        W25483  22.024  13.153   2.297
54884W        W25484   9.628  40.672  10.651
54885W        W25485   4.186  22.679   4.641
54886W        W25486  13.263  17.519  13.371
54887W        W25487  22.441  25.192   4.224
54888W        W25488  26.005   6.834  10.635
54889W        W25489  33.515   1.017  10.784
54890W        W25490  37.976  39.036  14.875
54891W        W25491  12.428  14.805  12.510
54892W        W25492  24.380  32.423   2.884
54893W        W25493   3.354  27.667  11.122
54894W        W25494   2.292  33.549   3.617
54895W        W25495  36.634  32.141   0.397
54896W        W25496  20.713  17.586  14.541
54897W        W25497  32.105  25.005  12.416
54898W        W25498  32.257   9.911  13.440
54899W        W25499  14.279  30.650  13.854
54900W        W25500  36.059  23.032  13.503
54901W        W25501  33.141  22.071   2.595
54902W        W25502  27.509   4.135  11.682
54903W        W25503  30.190  31.877  12.964
54904W        W25504  44.768   4.351  13.850
54905W        W25505   8.702   5.673   4.134
54906W        W25506  22.954  36.944   1.958
54907W        W25507  12.374  32.858  11.991
54908W        W25508  14.330  12.354  12.461
54909W        W25509  21.818  28.519   9.383
54910W        W25510  24.271  15.359   0.986
54911W        W25511  22.936   3.023  14.015
54912W        W25512  18.987   4.301  13.124
54913W        W25513   6.665   1.846  13.039
54914W        W25514  26.902  38.595  13.026
54915W        W25515  39.143  23.905   0.783
54916W        W25516  15.107  22.041  11.626
54917W        W25517   5.271  28.970   1.100
54918W        W25518   6.478  14.257   3.291
54919W        W25519  27.478  24.207  11.583
54920W        W25520  42.340  43.331  12.082
54921W        W25521   4.397  20.397   3.744
54922W        W25522  14.775   3.863   0.763
54923W        W25523  33.038  33.623   4.647
54924W        W25524  23.279  32.986  11.120
54925W        W25525  43.415  29.245  13.873
54926W        W25526   6.299  36.084  12.092
54927W        W25527  11.310  39.378   1.845
54928W        W25528  25.063   2.535   2.721
54929W        W25529  14.069  15.612   1.909
54930W        W25530  29.914  30.869   1.107
54931W        W25531  31.998  34.552  11.377
54932W        W25532  16.169  35.943   0.329
54933W        W25533  17.771  29.002   2.039
54934W        W25534   5.875  27.016  11.347
54935W        W25535   9.164  41.467  13.498
54936W        W25536  36.447  42.753   2.735
54937W        W25537   9.925  35.885   1.441
54938W        W25538   9.112   7.909   2.812
54939W        W25539  25.712  29.941   1.878
54940W        W25540   4.346  20.264  10.633
54941W        W25541  10.673  26.583   0.293
54942W        W25542  37.803  38.762   2.371
54943W        W25543  27.796  31.790   4.164
54944W        W25544  26.074  26.506  10.582
54945W        W25545  36.708  44.076  11.622
54946W        W25546   6.397  29.435   3.730
54947W        W25547  23.489  15.622  13.689
54948W        W25548  24.775   7.031   2.872
54949W        W25549   9.393   0.792   2.766
54950W        W25550  26.518  12.899   9.707
54951W        W25551  14.056  36.500   4.020
54952W        W25552  28.080  14.514  14.394
54953W        W25553  13.047  40.439   2.400
54954W        W25554   7.281  10.795  14.074
54955W        W25555  36.084  37.437   2.904
54956W        W25556  29.675   6.352   4.371
54957W        W25557  27.513   0.930  11.761
54958W        W25558  36.098  31.715   1.789
54959W        W25559   6.113  21.978  14.319
54960W        W25560  22.069  10.142  13.823
54961W        W25561  14.657   6.383  10.615
54962W        W25562  26.590  12.659   3.566
54963W        W25563   2.338  32.257  12.347
54964W        W25564  34.383  15.399   1.779
54965W        W25565   7.255  27.466   1.831
54966W        W25566  18.272  42.449   1.861
54967W        W25567   5.332  12.324   4.193
54968W        W25568   6.469  24.231   0.299
54969W        W25569  10.222  21.262  10.344
54970W        W25570  26.685  26.919   0.496
54971W        W25571  22.213  29.029  13.734
54972W        W25572  15.560  15.176  12.178
54973W        W25573   8.442   9.286   2.141
54974W        W25574  22.794  13.764  13.897
54975W        W25575   1.303  13.044   3.112
54976W        W25576   1.808  35.730   1.878
54977W        W25577   2.197   8.783   1.290
54978W        W25578  44.341  34.558  13.006
54979W        W25579  36.940  22.672   4.574
54980W        W25580  33.914  29.361  13.943
54981W        W25581  23.367  36.805   3.363
54982W        W25582  32.425  33.373   0.902
54983W        W25583  18.241  29.505   1.775
54984W        W25584  29.712  27.671   0.041
54985W        W25585  33.233   0.862  11.205
54986W        W25586  21.063  29.714   0.239
54987W        W25587  17.181  32.000  13.824
54988W        W25588  30.642  34.979   4.013
54989W        W25589  19.493  44.495  11.660
54990W        W25590  40.507  43.047   2.701
54991W        W25591  37.903  11.019   3.595
54992W        W25592  21.427  18.636  14.740
54993W        W25593   7.709  16.294   4.477
54994W        W25594   8.140  40.353   1.959
54995W        W25595  43.988  23.615   0.849
54996W        W25596  19.939  37.848   0.073
54997W        W25597  22.668  25.134  13.621
54998W        W25598  15.192  18.717   1.519
54999W        W25599  41.268  25.120  13.361
55000W        W25600   2.396   7.886  12.608
55001W        W25601  29.491  26.170   1.029
55002W        W25602  24.587   1.863   1.318
55003W        W25603  41.900  11.068  12.910
55004W        W25604  41.422  28.807  11.338
55005W        W25605   7.075   8.654   2.852
55006W        W25606  36.889   8.844  14.736
55007W        W25607  32.575  43.318  14.022
55008W        W25608  27.764  22.127  11.985
55009W        W25609  15.584  13.556  11.509
55010W        W25610   6.326  30.876  11.118
55011W        W25611  32.502   8.932   3.160
55012W        W25612  29.437  43.869  11.937
55013W        W25613   1.451  42.286  11.705
55014W        W25614   7.333  36.617   1.818
55015W        W25615  40.229  36.559  11.637
55016W        W25616   1.753   7.157   0.544
55017W        W25617  34.850  11.793  14.504
55018W        W25618  31.672   6.170   2.819
55019W        W25619  30.097   0.694  12.605
55020W        W25620  16.367  21.601   3.344
55021W        W25621   2.915   4.908  14.729
55022W        W25622  14.686  20.883  12.883
55023W        W25623  25.259  38.400   2.736
55024W        W25624  43.408  28.728  11.512
55025W        W25625  35.370  29.528  14.751
55026W        W25626  26.187  43.399  10.630
55027W        W25627  26.101  42.744   4.358
55028W        W25628  12.321  14.170  12.057
55029W        W25629  39.862   3.789   4.464
55030W        W25630  32.577  10.241  11.173
55031W        W25631  36.151  41.546   1.792
55032W        W25632  29.048  19.000  13.893
55033W        W25633  13.625  11.601   4.184
55034W        W25634  21.511   5.851   2.321
55035W        W25635   2.391  39.599   3.048
55036W        W25636  20.575  32.015  12.990
55037W        W25637  28.154   5.326  13.710
55038W        W25638  23.150  37.777   3.197
55039W        W25639  32.140  36.824  11.459
55040W        W25640  31.692  11.141  10.963
55041W        W25641  11.842  16.634  11.245
55042W        W25642  36.894  11.750  10.980
55043W        W25643  38.401  12.025   3.882
55044W        W25644   0.296  22.565  14.905
55045W        W25645  43.034   6.476  10.301
55046W        W25646  34.408  42.484   4.351
55047W        W25647  17.785  24.692   0.776
55048W        W25648  37.436  29.583   4.795
55049W        W25649  18.213  20.083   1.950
55050W        W25650  37.478  14.780   0.551
55051W        W25651  25.000  26.870  13.000
55052W        W25652  39.299  19.774   5.369
55053W        W25653  23.396  22.059   0.023
55054W        W25654   0.747  17.618  10.453
55055W        W25655   7.170  15.334   1.522
55056W        W25656  27.520  35.678  10.422
55057W        W25657  36.913   0.015  13.528
55058W        W25658  26.744  39.950  14.955
55059W        W25659  22.537  23.305   2.760
55060W        W25660   8.256  25.692  14.423
55061W        W25661   4.378  33.003   2.153
55062W        W25662  43.862  24.204  14.500
55063W        W25663   2.108  44.778  12.994
55064W        W25664   3.535  17.847  11.090
55065W        W25665  28.560  26.913   2.842
55066W        W25666   2.751  28.528  12.461
55067W        W25667   9.164   1.929  11.097
55068W        W25668  23.501   8.813  11.196
55069W        W25669  17.754   4.930  14.868
55070W        W25670   5.998  17.592  12.541
55071W        W25671   1.915  30.583  10.869
55072W        W25672  31.027  14.231  13.956
55073W        W25673  33.551  40.354   1.932
55074W        W25674  44.522  41.825   2.967
55075W        W25675  34.477  34.361   4.148
55076W        W25676   5.729  41.368  13.382
55077W        W25677  18.062  43.229  10.619
55078W        W25678  44.476  35.842   4.075
55079W        W25679  26.605  27.218   1.365
55080W        W25680   9.697   6.940   0.867
55081W        W25681  22.308  32.774  12.053
55082W        W25682   4.620  44.299   2.440
55083W        W25683  43.192  26.801   2.780
55084W        W25684  30.624  10.423   2.295
55085W        W25685  40.029  37.868  14.492
55086W        W25686   7.652  13.550  10.712
55087W        W25687  27.615  24.534  12.627
55088W        W25688  21.195  20.531  12.490
55089W        W25689  13.868  16.781   1.277
55090W        W25690  23.783  32.961  14.895
55091W        W25691  34.618  11.250   0.340
55092W        W25692  10.029  29.039  12.439
55093W        W25693  10.202   4.470   0.890
55094W        W25694   5.814  21.072   4.644
55095W        W25695  32.935  12.387   4.557
55096W        W25696   7.566  20.374  13.749
55097W        W25697  36.048  26.547  11.178
55098W        W25698  15.555  37.856  13.397
55099W        W25699   0.089   9.562  12.968
55100W        W25700   1.087  23.081  13.757
55101W        W25701  44.301   0.832   4.730
55102W        W25702   3.279  35.637   3.221
55103W        W25703  25.714  30.052  10.543
55104W        W25704   4.915  19.240  13.117
55105W        W25705   7.903  14.092   2.365
55106W        W25706  34.011  13.874   3.077
55107W        W25707   2.552  30.365   4.459
55108W        W25708  29.260  41.050  10.274
55109W        W25709  13.224  23.725  13.030
55110W        W25710   9.936  11.325   3.125
55111W        W25711   1.845  21.281   4.563
55112W        W25712   7.923  36.627   1.408
55113W        W25713   7.283  15.317  11.005
55114W        W25714  15.371  23.638   4.109
55115W        W25715  24.286  39.948   3.970
55116W        W25716  36.464   9.278   4.650
55117W        W25717  24.109  21.094   2.819
55118W        W25718   8.700  36.279  11.052
55119W        W25719  28.600  42.072  13.431
55120W        W25720  40.370  11.720   3.604
55121W        W25721  27.206  13.390   3.793
55122W        W25722  11.202  43.884   2.596
55123W        W25723  42.543  43.988   1.179
55124W        W25724  35.675  24.016   2.731
55125W        W25725   4.744   1.450  11.529
55126W        W25726   4.482   0.948  13.582
55127W        W25727  15.868  33.361  10.360
55128W        W25728  14.227   9.686   0.434
55129W        W25729  37.081  22.929  13.467
55130W        W25730   5.826  44.709  11.004
55131W        W25731  23.645  41.564  14.578
55132W        W25732  33.941  40.862  14.830
55133W        W25733  30.937  34.547   0.967
55134W        W25734  19.660   0.978  11.505
55135W        W25735  16.589  24.641  13.746
55136W        W25736  15.398  32.552   0.185
55137W        W25737  21.359  20.781   0.342
55138W        W25738  44.763  29.107  11.322
55139W        W25739  37.422  22.955   1.908
55140W        W25740  27.633  20.817  11.059
55141W        W25741  14.735   0.739  13.623
55142W        W25742  40.570  27.049   1.833
55143W        W25743  43.103  37.173   1.887
55144W        W25744   5.310  12.041   2.106
55145W        W25745  40.711  11.792   4.928
55146W        W25746  37.792   0.588  12.507
55147W        W25747   3.496  44.250  10.757
55148W        W25748  28.119   6.374   1.907
55149W        W25749  42.049   7.486  11.852
55150W        W25750  27.937   8.224   3.187
55151W        W25751  21.495  26.509   1.317
55152W        W25752  17.997  10.171   1.785
55153W        W25753  23.200  12.311  12.922
55154W        W25754  21.271  32.015   2.158
55155W        W25755  15.468  32.160   5.167
55156W        W25756   8.278  40.012   4.131
55157W        W25757  23.045  30.900  13.871
55158W        W25758   2.708  25.602   0.899
55159W        W25759  37.511  37.203  10.789
55160W        W25760  14.805   4.673  10.969
55161W        W25761  35.166  42.900   0.383
55162W        W25762  44.763  29.863  13.008
55163W        W25763  28.651   3.344  13.839
55164W        W25764  40.863  25.478   0.067
55165W        W25765  13.317  28.928   4.122
55166W        W25766   7.168  16.661  13.968
55167W        W25767   0.444  41.577   4.696
55168W        W25768  35.386  23.107  12.673
55169W        W25769   6.160  18.061  12.385
55170W        W25770  38.625   7.279   1.209
55171W        W25771  37.255  15.844   2.052
55172W        W25772   6.849  26.290   4.580
55173W        W25773   2.480  16.611  11.224
55174W        W25774  20.217  33.953   0.837
55175W        W25775  12.457  44.567   4.653
55176W        W25776  21.753   4.756  11.613
55177W        W25777   2.863  42.547   4.648
55178W        W25778  39.078  12.788   2.304
55179W        W25779  39.151  22.180  13.039
55180W        W25780   2.204  34.944  13.906
55181W        W25781  22.238   6.143   9.802
55182W        W25782  26.052  26.972  10.863
55183W        W25783  23.224  25.624   4.076
55184W        W25784  11.582  33.234  12.296
55185W        W25785  24.639   6.291   1.409
55186W        W25786  20.894  20.966  12.550
55187W        W25787  10.015  44.442  12.567
55188W        W25788  42.873   7.286   1.856
55189W        W25789  33.890  21.461  10.317
55190W        W25790   7.310  41.439  12.632
55191W        W25791  11.951  18.682   2.785
55192W        W25792  27.087   9.768   1.438
55193W        W25793  19.607  19.699   4.583
55194W        W25794  39.320  37.576   2.271
55195W        W25795  19.483  31.742  12.515
55196W        W25796  28.626  30.899   1.964
55197W        W25797   5.260   3.923   1.309
55198W        W25798  42.735  26.443   1.887
55199W        W25799  19.707  22.446   3.236
55200W        W25800  24.609  28.760  13.805
55201W        W25801   7.191   0.711   0.788
55202W        W25802   7.966  19.335  13.949
55203W        W25803  30.474  25.637  13.089
55204W        W25804   6.081  13.615   1.265
55205W        W25805   0.850  10.664  12.946
55206W        W25806  12.217  25.683   4.217
55207W        W25807  14.409  24.620   4.074
55208W        W25808  10.069  43.792  10.399
55209W        W25809   8.903  16.976   4.251
55210W        W25810  16.985  21.213   3.694
55211W        W25811  39.862  33.172  10.822
55212W        W25812  17.778  11.332   1.346
55213W        W25813  43.410  34.038   1.884
55214W        W25814  21.229   4.932   2.165
55215W        W25815   1.318  15.394  12.710
55216W        W25816  44.739  16.644  13.451
55217W        W25817  33.030  20.328   2.454
55218W        W25818  40.543  19.675  11.977
55219W        W25819  16.672  34.961  13.649
55220W        W25820  43.325  12.317  10.764
55221W        W25821  44.783  37.035   3.294
55222W        W25822   9.175  14.693  14.991
55223W        W25823  10.228  32.890  14.412
55224W        W25824   5.251  32.456  11.585
55225W        W25825  23.570  43.002  13.292
55226W        W25826  34.725   4.829  12.881
55227W        W25827  25.190  12.470   1.942
55228W        W25828  20.160   8.984  12.369
55229W        W25829  38.266  22.181   3.312
55230W        W25830  37.525  11.263  13.505
55231W        W25831   9.399  25.831   2.291
55232W        W25832   2.827   1.293  11.385
55233W        W25833  31.964  29.483   1.685
55234W        W25834  14.764  43.018  14.485
55235W        W25835   6.986   6.504  14.033
55236W        W25836  38.411  28.222  13.366
55237W        W25837  27.450  11.655   3.468
55238W        W25838  33.405  11.799  10.271
55239W        W25839  40.933   9.141  12.730
55240W        W25840  42.757  22.672  10.707
55241W        W25841  35.374  11.808   2.790
55242W        W25842  23.090   5.203   2.453
55243W        W25843  39.342  40.483   0.958
55244W        W25844  38.791   5.685   3.296
55245W        W25845  37.985  12.901   4.609
55246W        W25846  19.470  16.691  10.619
55247W        W25847  33.658  16.774   3.424
55248W        W25848  38.432   1.268   2.786
55249W        W25849  12.145  31.938   2.580
55250W        W25850  44.760  11.668   3.670
55251W        W25851  34.551  11.362  12.540
55252W        W25852   7.134   6.888   0.824
55253W        W25853  31.924   3.647   3.173
55254W        W25854  17.147  31.332  14.997
55255W        W25855  18.124   5.781   2.746
55256W        W25856  26.642  18.029   2.606
55257W        W25857  28.975  29.394  13.383
55258W        W25858   4.698  31.374   0.827
55259W        W25859  18.660  41.938   3.549
55260W        W25860  21.452  22.087   0.688
55261W        W25861  26.741  18.691  14.457
55262W        W25862   3.001  32.327   5.064
55263W        W25863  20.318  32.432   0.017
55264W        W25864   3.367  31.941   0.646
55265W        W25865  39.980  23.688  14.396
55266W        W25866  27.945  11.270  14.467
55267W        W25867   3.723  33.563  12.659
55268W        W25868  30.563  14.113  10.851
55269W        W25869  28.478  31.115   4.450
55270W        W25870  17.635   5.801   3.675
55271W        W25871  30.380  19.754   3.264
55272W        W25872   8.403  32.360   1.440
55273W        W25873  20.151  44.181  14.898
55274W        W25874  35.001  41.222   1.671
55275W        W25875  22.132   7.179  10.763
55276W        W25876  22.715  22.100  12.631
55277W        W25877  16.850  35.392  13.901
55278W        W25878   1.205  30.992   3.637
55279W        W25879   3.333   0.400   2.702
55280W        W25880  24.941  19.072   0.263
55281W        W25881  24.409   7.091   0.984
55282W        W25882  31.471  42.805  13.819
55283W        W25883  36.897  17.136   1.144
55284W        W25884  11.792  18.302   4.571
55285W        W25885   6.745  10.788   2.510
55286W        W25886  34.102  13.735  11.959
55287W        W25887   2.034  10.357  11.784
55288W        W25888  32.397  44.915  11.113
55289W        W25889  31.940  23.094  11.582
55290W        W25890  38.106   9.301  13.897
55291W        W25891  37.281  23.390   0.150
55292W        W25892   7.149   5.760  11.658
55293W        W25893  11.139   5.792   1.223
55294W        W25894  30.570  36.909  11.990
55295W        W25895  14.711   2.304  12.869
55296W        W25896  13.166  13.681  13.046
55297W        W25897   6.747  42.975  10.718
55298W        W25898  31.373   7.735  11.922
55299W        W25899   1.383   2.213  14.969
55300W        W25900  13.266   3.416   2.126
55301W        W25901  37.436   1.413   1.274
55302W        W25902  19.234  41.670   1.394
55303W        W25903   6.742  36.480   2.368
55304W        W25904  40.790  34.068   4.731
55305W        W25905   2.865  40.761   0.383
55306W        W25906  19.643   1.800   2.619
55307W        W25907  37.331   4.556  11.129
55308W        W25908  10.383  41.934   0.730
55309W        W25909  25.485   1.178   4.526
55310W        W25910  42.827  27.555   0.236
55311W        W25911  35.886   2.654   1.235
55312W        W25912   8.024  35.651   1.205
55313W        W25913  10.360  14.274   3.313
55314W        W25914  33.010  12.933  14.358
55315W        W25915  31.971  21.686  10.403
55316W        W25916  19.708   4.495  10.729
55317W        W25917  34.462  40.046  14.544
55318W        W25918   1.937  44.713   3.234
55319W        W25919  33.269  32.535  14.477
55320W        W25920  32.571   7.824   2.302
55321W        W25921  38.431  16.728  11.239
55322W        W25922  15.356  30.072   2.419
55323W        W25923  35.362   4.717  12.042
55324W        W25924  15.689  16.418  14.886
55325W        W25925  10.765  24.411   0.733
55326W        W25926  40.293  17.278   0.312
55327W        W25927  22.284  13.376   2.717
55328W        W25928  21.948  32.401  12.082
55329W        W25929   6.299  11.039   0.689
55330W        W25930  14.326  42.357   5.035
55331W        W25931  15.787  22.543   2.431
55332W        W25932  27.449   8.892  14.608
55333W        W25933  34.946  18.289  13.869
55334W        W25934  26.028  34.367   1.696
55335W        W25935  41.637  39.678   4.117
55336W        W25936  35.732  38.833  14.273
55337W        W25937  40.343  13.239  13.577
55338W        W25938  10.032  18.338   3.932
55339W        W25939  20.723  18.098  14.772
55340W        W25940  37.971  26.906  13.323
55341W        W25941   5.880  42.541   1.850
55342W        W25942  34.564  25.848   0.170
55343W        W25943  30.372  14.338   3.780
55344W        W25944   9.409  30.894   0.436
55345W        W25945  37.866   7.689  13.075
55346W        W25946  43.844  18.091  14.871
55347W        W25947  40.357  10.719  12.248
55348W        W25948  19.239   9.631   4.202
55349W        W25949  36.842   8.817   5.075
55350W        W25950  20.738  18.990  11.480
55351W        W25951   3.205  31.917   4.777
55352W        W25952  35.805  22.564  13.398
55353W        W25953  18.256   6.484  14.380
55354W        W25954  33.851   0.784   3.148
55355W        W25955   7.329   1.895  11.146
55356W        W25956  29.586   3.255  11.101
55357W        W25957  32.352  31.568  12.396
55358W        W25958  40.904  21.679   0.441
55359W        W25959  35.042  18.185   3.246
55360W        W25960  20.677  44.249  14.982
55361W        W25961  22.281  25.070   2.504
55362W        W25962   8.894  26.467   4.611
55363W        W25963  31.112   2.354  12.579
55364W        W25964  35.991   5.478  10.826
55365W        W25965  32.003  38.797  13.478
55366W        W25966  42.302   7.785  10.485
55367W        W25967   2.448  25.213   4.170
55368W        W25968  42.873  20.560  10.657
55369W        W25969   3.463  21.168  12.526
55370W        W25970  33.832  13.075   9.807
55371W        W25971  22.031  22.176   3.707
55372W        W25972  21.185  20.084   2.682
55373W        W25973  39.618  16.327  13.432
55374W        W25974  23.098  20.351   1.511
55375W        W25975  13.276  19.571  14.833
55376W        W25976   1.207  44.969   3.754
55377W        W25977  33.530  19.759  13.505
55378W        W25978  40.142  38.400   4.589
55379W        W25979  23.131  12.734  11.299
55380W        W25980  42.289  10.422   4.527
55381W        W25981  29.218  43.226  11.205
55382W        W25982   5.546  30.385   4.373
55383W        W25983   8.633  15.224   0.734
55384W        W25984  26.495  17.667  12.090
55385W        W25985  40.857  26.689   4.668
55386W        W25986   1.981  24.066  10.399
55387W        W25987  35.101  38.516  13.542
55388W        W25988  10.312  31.873  14.511
55389W        W25989  40.939  14.894  14.336
55390W        W25990   4.470  24.672  14.447
55391W        W25991   7.766   2.333   1.597
55392W        W25992  22.946   6.273  10.849
55393W        W25993  14.577   9.873  13.926
55394W        W25994  13.825  43.407   0.401
55395W        W25995  41.489  16.017  11.475
55396W        W25996   9.134   5.199  14.345
55397W        W25997   6.792  17.051  13.035
55398W        W25998  19.029   2.839  14.862
55399W        W25999  24.168   1.186   0.986
55400W        W26000   8.223  12.364  12.964
55401W        W26001  14.378  10.342  13.494
55402W        W26002  33.369   6.677  14.272
55403W        W26003  19.170  19.665   1.165
55404W        W26004   5.367  14.571  12.472
55405W        W26005   6.314  43.601  11.592
55406W        W26006   1.979   3.233   3.734
55407W        W26007   4.449  13.668  13.602
55408W        W26008  32.958  17.694  13.090
55409W        W26009  33.553   6.585  11.005
55410W        W26010   5.509  17.279   4.005
55411W        W26011  24.742   8.689  13.802
55412W        W26012  40.641  10.718   0.664
55413W        W26013  44.513  18.572  11.083
55414W        W26014  34.987   4.911   0.933
55415W        W26015   3.411   0.113  13.470
55416W        W26016  30.095  31.058  13.988
55417W        W26017  11.671  17.824   4.766
55418W        W26018  15.690  26.928   3.198
55419W        W26019  18.405  44.312   4.598
55420W        W26020  33.674  13.258  10.756
55421W        W26021  26.182  38.269   2.803
55422W        W26022  31.067  31.108   4.571
55423W        W26023   7.701  14.124  13.473
55424W        W26024  32.820  28.474   1.350
55425W        W26025  34.642  38.688  12.789
55426W        W26026  40.441  41.748  14.981
55427W        W26027   1.429  39.320   1.342
55428W        W26028  13.697  23.782  10.791
55429W        W26029  26.003  24.669   2.268
55430W        W26030   3.134   3.275  14.753
55431W        W26031  43.782  30.253  11.182
55432W        W26032  37.791  21.812   2.782
55433W        W26033  22.893  16.219  10.506
55434W        W26034   5.839  41.859  14.206
55435W        W26035   7.740  39.346   1.387
55436W        W26036   2.427  38.888   2.809
55437W        W26037  39.353  41.061  10.771
55438W        W26038  37.320  31.450  14.404
55439W        W26039   4.358  34.728  12.630
55440W        W26040  20.995  10.135  14.761
55441W        W26041  40.902  33.866   3.755
55442W        W26042  22.562   0.045   0.732
55443W        W26043  44.606   2.013  14.159
55444W        W26044  23.316   7.134  14.045
55445W        W26045  17.766  24.624   2.327
55446W        W26046  10.320  12.974   4.733
55447W        W26047  14.677  20.283   3.116
55448W        W26048  44.700  29.133   2.717
55449W        W26049  21.107  37.437  13.890
55450W        W26050   9.698  33.621   1.077
55451W        W26051  23.428   4.355  13.863
55452W        W26052  35.876   1.820  12.472
55453W        W26053   7.345   5.749  12.130
55454W        W26054  34.174  35.230  11.873
55455W        W26055   5.833  30.059  11.501
55456W        W26056  39.672  29.987   0.346
55457W        W26057  44.178  37.313   0.784
55458W        W26058  12.729  19.339  12.521
55459W        W26059  38.369   4.844  14.723
55460W        W26060  20.324   8.130  13.518
55461W        W26061   9.521  11.286  13.556
55462W        W26062  41.466  11.604  13.993
55463W        W26063  41.051   7.711  11.064
55464W        W26064  37.481  38.454   4.388
55465W        W26065  15.271  19.244  10.998
55466W        W26066   7.630  43.356   1.000
55467W        W26067  41.786  41.918  13.078
55468W        W26068   1.308  29.867   1.675
55469W        W26069  22.044  21.209   1.542
55470W        W26070  16.158   9.596   1.373
55471W        W26071  43.394  24.533  13.781
55472W        W26072  29.675   7.201  12.660
55473W        W26073  28.658  23.998  12.416
55474W        W26074   8.444  25.546   0.786
55475W        W26075  24.107  37.925   3.636
55476W        W26076  13.517  33.503   4.181
55477W        W26077  12.293  23.379  14.273
55478W        W26078  24.295  43.978  12.729
55479W        W26079  19.119  11.750   1.312
55480W        W26080  15.598  13.290  13.170
55481W        W26081   3.759  24.062  11.598
55482W        W26082  24.198  16.233  14.149
55483W        W26083  41.817  32.082   0.263
55484W        W26084  37.475   4.439   3.217
55485W        W26085  39.435  44.743  10.749
55486W        W26086  13.407   8.863  11.094
55487W        W26087  23.913  14.104  10.678
55488W        W26088  30.635  42.186  13.437
55489W        W26089  12.886  41.963   0.794
55490W        W26090   0.425  14.777  13.881
55491W        W26091  14.137  23.234  13.808
55492W        W26092  41.770  29.608  11.668
55493W        W26093  16.547  22.115   1.237
55494W        W26094  38.739   9.702   1.903
55495W        W26095  19.886  21.268   2.383
55496W        W26096  25.967   5.683  11.553
55497W        W26097  37.432   2.213   0.406
55498W        W26098  37.075  25.216  11.521
55499W        W26099   3.242  44.775   1.047
55500W        W26100   9.037  30.833  13.373
55501W        W26101   2.398  18.272   0.362
55502W        W26102   4.738  13.255  13.442
55503W        W26103  24.477  26.934  14.765
55504W        W26104  24.505  42.309   2.476
55505W        W26105   0.025  11.013   2.573
55506W        W26106   5.293  21.655  11.598
55507W        W26107  25.793  36.335   0.283
55508W        W26108  41.111   9.715  14.346
55509W        W26109  12.865  27.833  14.058
55510W        W26110   4.773  41.380  11.688
55511W        W26111  34.584  24.529  12.005
55512W        W26112  42.269  10.015  10.355
55513W        W26113   3.805  30.867   0.242
55514W        W26114  42.255  18.763  14.588
55515W        W26115  40.328  16.274   2.716
55516W        W26116  39.906  37.490   0.953
55517W        W26117  20.126  27.490   4.135
55518W        W26118  26.516  31.661  13.538
55519W        W26119  25.096  33.929   2.862
55520W        W26120  18.291  27.263   4.437
55521W        W26121  36.372  40.948   0.690
55522W        W26122  11.358  16.046   1.744
55523W        W26123  41.403   3.232   3.176
55524W        W26124  34.681  27.949   2.575
55525W        W26125  21.583  34.919   2.460
55526W        W26126  16.493  13.073   0.860
55527W        W26127  16.265  34.820   3.318
55528W        W26128  25.675   3.712  12.955
55529W        W26129  38.341  17.877   4.632
55530W        W26130  35.481  33.027  12.148
55531W        W26131  28.267   0.416  14.541
55532W        W26132   3.511  28.918  14.754
55533W        W26133  44.018  29.589   3.752
55534W        W26134  38.020  19.325   4.634
55535W        W26135   7.752  20.205   2.405
55536W        W26136  26.506  25.242   0.249
55537W        W26137   5.733  43.955  12.327
55538W        W26138  26.980   1.016   2.466
55539W        W26139   5.672  16.314   0.432
55540W        W26140   7.753   4.325   3.920
55541W        W26141  40.870   9.672  14.796
55542W        W26142   3.625  41.118   0.869
55543W        W26143  35.149  16.642   2.235
55544W        W26144  11.810  19.393  12.630
55545W        W26145   9.847  14.017   2.382
55546W        W26146  35.838  11.452   1.719
55547W        W26147   1.809  43.806  14.942
55548W        W26148  33.423   8.126   0.028
55549W        W26149  26.921  20.607   1.671
55550W        W26150  36.752  11.795   4.604
55551W        W26151   4.663  33.124  13.450
55552W        W26152  27.202  21.142   3.140
55553W        W26153  18.719  36.282  13.102
55554W        W26154  15.630  39.802  10.612
55555W        W26155  11.651  41.831  11.726
55556W        W26156  10.147  32.619  14.844
55557W        W26157   5.881   2.520   3.808
55558W        W26158  43.986  31.421   0.465
55559W        W26159  18.538  10.583   1.340
55560W        W26160  29.090  30.765   4.916
55561W        W26161  39.416  22.612  12.970
55562W        W26162   8.122  28.935  12.923
55563W        W26163   0.687  18.640  12.970
55564W        W26164  17.674  17.999  14.446
55565W        W26165  31.682   3.847  12.084
55566W        W26166  43.097  37.971   0.303
55567W        W26167   5.879   4.315  11.057
55568W        W26168   5.419  17.838   4.852
55569W        W26169  15.167  24.143  12.155
55570W        W26170  26.291   7.757   2.428
55571W        W26171  24.385  17.702   4.661
55572W        W26172  42.957  24.982  12.382
55573W        W26173   4.327  18.584   0.447
55574W        W26174  38.802   4.369  13.817
55575W        W26175  43.787  18.400  13.525
55576W        W26176   4.291   5.225  10.526
55577W        W26177  14.645   1.753  13.884
55578W        W26178  40.244  44.786  12.521
55579W        W26179  33.976  36.835  13.901
55580W        W26180  39.643  28.033   3.766
55581W        W26181  42.131   6.941   2.682
55582W        W26182  38.385   8.511  12.289
55583W        W26183   9.373  15.117   0.250
55584W        W26184   2.553   5.864   4.633
55585W        W26185  20.657   6.599   1.395
55586W        W26186  10.340   6.463   3.753
55587W        W26187  24.629  11.851  14.260
55588W        W26188  14.066  38.878  10.924
55589W        W26189   3.486  27.007  11.963
55590W        W26190  28.524  31.879   3.065
55591W        W26191  34.510  28.204   0.177
55592W        W26192  34.860  14.455   1.204
55593W        W26193  19.752  41.381  14.684
55594W        W26194   4.526  16.244   0.990
55595W        W26195  23.613  19.292  14.363
55596W        W26196  34.839  44.772   1.830
55597W        W26197  43.290  13.575   0.474
55598W        W26198  33.537  38.421   0.480
55599W        W26199  27.667  35.366   1.023
55600W        W26200  37.990  38.102  11.926
55601W        W26201  36.833  35.663   0.427
55602W        W26202  17.456  28.153   0.983
55603W        W26203  29.553  13.867   0.851
55604W        W26204  19.335   6.912   0.318
55605W        W26205  42.782  41.954   4.619
55606W        W26206  37.968   7.223  14.362
55607W        W26207  37.539  43.873  13.608
55608W        W26208   8.747  37.604   1.917
55609W        W26209  27.562  41.867  11.583
55610W        W26210  23.013  19.503  10.570
55611W        W26211  21.186  18.155   0.028
55612W        W26212  17.068  24.001  14.017
55613W        W26213  35.457  20.448   0.254
55614W        W26214  44.330  31.917  11.386
55615W        W26215  12.733   0.982   3.781
55616W        W26216  37.783  33.611  12.038
55617W        W26217  34.249  25.995  13.373
55618W        W26218   4.841  36.669   2.152
55619W        W26219  14.649   4.817  10.494
55620W        W26220  14.069  14.882  14.121
55621W        W26221   7.612  34.476   0.837
55622W        W26222  15.327  27.245   4.397
55623W        W26223  35.681  10.797  14.894
55624W        W26224  19.612  27.525  11.991
55625W        W26225   7.641  33.992   3.022
55626W        W26226  32.692   8.266   4.227
55627W        W26227  38.331   5.164   1.339
55628W        W26228   2.599  27.252  13.118
55629W        W26229   6.901  22.467   0.963
55630W        W26230  11.102  34.934   3.822
55631W        W26231  11.118   1.923   2.159
55632W        W26232  22.931  42.415   0.798
55633W        W26233  26.584  21.264   4.148
55634W        W26234  16.595  44.857   2.681
55635W        W26235  18.264  39.602   1.197
55636W        W26236   3.875  20.716   4.872
55637W        W26237   8.339   7.790  12.795
55638W        W26238  22.701  14.172   0.333
55639W        W26239  28.842  42.731  12.573
55640W        W26240   2.277   0.925  11.117
55641W        W26241   9.018  23.648   4.202
55642W        W26242   2.908  25.964   3.292
55643W        W26243  15.131  44.663   0.015
55644W        W26244  43.123  33.979  10.621
55645W        W26245  23.585   4.680   4.343
55646W        W26246  24.202   9.801  14.140
55647W        W26247  30.064  32.627   2.269
55648W        W26248  24.657  21.184  14.924
55649W        W26249  11.769   4.961  12.997
55650W        W26250  14.333  42.472   4.142
55651W        W26251  18.338  30.551   4.793
55652W        W26252  44.366  27.584  13.899
55653W        W26253   9.366  35.674   0.445
55654W        W26254  24.496  39.025  10.919
55655W        W26255  12.089  20.241  13.626
55656W        W26256   7.917  21.008   4.012
55657W        W26257  19.125   6.800   4.144
55658W        W26258  33.584  32.430   2.286
55659W        W26259   9.256  29.412  10.301
55660W        W26260  14.616  28.675  14.945
55661W        W26261  18.149   6.669  14.925
55662W        W26262  21.736  17.136  12.601
55663W        W26263  29.958  29.132  14.483
55664W        W26264  14.853  16.736   2.301
55665W        W26265  27.554  36.430  14.248
55666W        W26266  24.540  31.547  12.547
55667W        W26267  43.055  16.091  13.757
55668W        W26268  28.446  23.113   1.989
55669W        W26269  18.141   3.477  13.945
55670W        W26270  28.954  38.283   3.211
55671W        W26271  42.393  32.350   2.840
55672W        W26272  35.461  21.070   0.820
55673W        W26273  37.074  30.944  11.702
55674W        W26274  12.239  26.790  11.641
55675W        W26275  41.334  28.083   1.728
55676W        W26276   2.647  40.511   4.413
55677W        W26277  22.095  34.610   3.187
55678W        W26278  16.837   9.885  11.966
55679W        W26279  18.586  41.408   1.795
55680W        W26280  32.612  13.823   0.786
55681W        W26281  42.452  35.447   2.456
55682W        W26282   6.925  25.699   4.704
55683W        W26283   1.335  14.545   2.903
55684W        W26284  18.576  42.069  12.906
55685W        W26285  28.578  31.837  14.641
55686W        W26286  22.410  32.929   4.209
55687W        W26287   5.240  14.753  14.853
55688W        W26288   2.300  22.597   5.083
55689W        W26289  15.002  30.485   3.115
55690W        W26290  38.812  39.456  11.422
55691W        W26291  44.823  25.643  12.907
55692W        W26292   7.118  31.054  14.810
55693W        W26293  16.041  16.683  11.780
55694W        W26294  37.413   3.174  11.011
55695W        W26295   9.809   2.652  10.786
55696W        W26296  40.117  42.872   0.321
55697W        W26297  27.452  29.593   0.361
55698W        W26298  25.875  37.973  10.578
55699W        W26299   4.767  28.187  13.221
55700W        W26300   9.912   8.985   1.256
55701W        W26301   4.751  12.798  12.627
55702W        W26302  21.674  12.357  14.068
55703W        W26303  21.165  28.685  13.421
55704W        W26304  38.282  24.729  10.602
55705W        W26305  44.025  42.449   1.265
55706W        W26306  33.474   7.262  14.029
55707W        W26307  42.501  19.297   9.907
55708W        W26308  29.934  23.139   1.401
55709W        W26309  16.647  25.977   0.296
55710W        W26310  37.535   0.215  13.827
55711W        W26311   4.480  12.940  13.051
55712W        W26312  29.093  28.958   3.943
55713W        W26313  27.240  42.426  11.612
55714W        W26314   0.984   7.323  11.207
55715W        W26315   9.152  31.337  11.998
55716W        W26316  27.145  29.376   1.479
55717W        W26317  18.968  28.911  13.026
55718W        W26318   1.904  19.160  14.575
55719W        W26319   6.887  42.711  13.498
55720W        W26320  17.673  17.503  13.235
55721W        W26321  42.691  13.474  11.143
55722W        W26322  23.993  18.305   0.102
55723W        W26323  23.140  41.299   4.416
55724W        W26324  15.856   4.833   5.248
55725W        W26325   0.892  10.397  12.490
55726W        W26326  21.470  15.721   1.329
55727W        W26327   5.295  28.060  12.402
55728W        W26328  10.535  14.284  13.442
55729W        W26329  38.378   2.966   4.551
55730W        W26330  28.237  12.186  12.827
55731W        W26331  40.332  42.582  11.882
55732W        W26332  37.507  17.537   3.370
55733W        W26333  38.846   9.737  10.583
55734W        W26334  43.309  31.177   3.213
55735W        W26335  30.764  21.798  11.102
55736W        W26336   1.940  19.314  14.083
55737W        W26337  42.247  37.670   1.175
55738W        W26338  39.872  13.889   1.408
55739W        W26339  25.008  24.628   1.278
55740W        W26340  13.456  25.127  11.162
55741W        W26341  26.085  12.620   1.857
55742W        W26342  35.850  13.038   0.010
55743W        W26343  29.010  13.728   1.660
55744W        W26344   7.730  17.667   2.325
55745W        W26345  38.312  13.264  11.577
55746W        W26346  11.147  12.912  13.334
55747W        W26347  29.426  17.201   3.929
55748W        W26348  13.817  25.447  12.008
55749W        W26349  41.229  37.587  13.824
55750W        W26350  32.012  27.399  14.447
55751W        W26351  24.206   0.308   3.219
55752W        W26352   0.767  30.501   2.188
55753W        W26353  27.512  41.288  12.601
55754W        W26354   5.273   2.188   4.467
55755W        W26355   4.936  29.706   4.607
55756W        W26356  31.955   1.627  12.793
55757W        W26357  13.611  20.554   0.309
55758W        W26358  44.795  16.004   0.479
55759W        W26359   6.678   9.211  11.200
55760W        W26360  27.733  31.150   1.847
55761W        W26361  31.113  28.542   4.553
55762W        W26362  40.080  23.120   4.539
55763W        W26363  11.893   4.129  13.299
55764W        W26364  30.966  14.213  12.092
55765W        W26365  44.720  11.056  12.126
55766W        W26366  33.523   5.942  13.555
55767W        W26367  38.439  29.746   1.971
55768W        W26368   9.214   3.724  14.845
55769W        W26369  33.594   1.044   3.680
55770W        W26370   4.796  15.999  14.782
55771W        W26371  26.138  15.762   4.163
55772W        W26372  25.963  38.577  12.987
55773W        W26373   1.358   2.693   0.852
55774W        W26374  25.554  42.397   1.321
55775W        W26375   1.944  28.420   3.761
55776W        W26376  42.322  24.904  13.468
55777W        W26377  17.714  22.129  11.151
55778W        W26378   0.853  22.708   4.584
55779W        W26379  32.615  38.784  11.964
55780W        W26380  27.844   0.221   4.207
55781W        W26381  18.799  17.087   1.308
55782W        W26382   8.534  30.969  14.775
55783W        W26383  10.163  37.033   2.125
55784W        W26384  18.257  30.369   2.313
55785W        W26385  20.300  29.004   2.412
55786W        W26386  38.502  43.812  10.488
55787W        W26387  16.749  33.578  12.582
55788W        W26388  30.995  23.020   4.637
55789W        W26389  34.017  39.456  10.663
55790W        W26390  23.055  42.354  13.831
55791W        W26391  31.673  40.440   0.789
55792W        W26392   5.248  25.529   1.756
55793W        W26393  20.049  10.393  13.617
55794W        W26394  31.945  10.265  13.189
55795W        W26395   9.224  31.551   1.320
55796W        W26396   8.439  11.946  11.637
55797W        W26397  19.092  15.793  14.342
55798W        W26398  26.984   4.469  14.054
55799W        W26399  16.973  42.024   4.054
55800W        W26400  37.589  40.499   0.594
55801W        W26401  30.545   7.294   1.277
55802W        W26402  10.894  15.054  11.129
55803W        W26403  12.150  36.345  11.158
55804W        W26404  18.773  25.141  14.410
55805W        W26405  25.138  10.531   4.686
55806W        W26406   9.846  37.340  14.453
55807W        W26407   1.988  38.968   2.174
55808W        W26408  14.684   9.731  11.267
55809W        W26409   1.117   6.530  13.807
55810W        W26410  29.074  33.789   4.219
55811W        W26411  10.578  14.633  13.057
55812W        W26412  29.426  42.076   3.600
55813W        W26413   1.313  16.758  13.411
55814W        W26414  28.379  28.129   1.367
55815W        W26415  39.008  11.388   3.641
55816W        W26416  23.129  24.953   2.354
55817W        W26417  13.946  34.675  13.394
55818W        W26418   7.226  43.431   4.580
55819W        W26419  37.130  32.591  13.871
55820W        W26420  15.634  42.966  11.411
55821W        W26421  35.938  40.915   4.437
55822W        W26422  15.918  10.326  11.029
55823W        W26423  37.088  14.889  14.491
55824W        W26424  31.420  41.494   3.747
55825W        W26425  37.496  12.576  12.810
55826W        W26426   9.826  38.002  10.771
55827W        W26427  28.602   1.326  10.677
55828W        W26428  29.389  17.820   2.235
55829W        W26429  28.713   9.501  12.315
55830W        W26430  19.097  40.491  13.893
55831W        W26431  38.756   8.994   0.852
55832W        W26432  29.242  36.565   4.614
55833W        W26433  26.277  38.346   0.672
55834W        W26434  33.889  37.105  14.368
55835W        W26435  33.119  39.477  13.465
55836W        W26436   6.287  41.328   2.844
55837W        W26437  17.600  44.774  13.089
55838W        W26438  30.368   4.718   5.014
55839W        W26439  43.892  12.883  12.867
55840W        W26440  21.257  40.435  13.108
55841W        W26441   3.610  28.032  10.779
55842W        W26442   5.691  44.307  14.322
55843W        W26443  43.584   3.251  10.765
55844W        W26444  41.763   7.262   3.450
55845W        W26445  20.777  23.958  10.908
55846W        W26446   5.279  30.741  13.941
55847W        W26447  11.910  37.991  14.427
55848W        W26448  10.679   2.309   4.755
55849W        W26449  12.398  39.883  14.800
55850W        W26450  36.394  38.430  11.187
55851W        W26451  13.687   9.204  12.384
55852W        W26452  22.811  33.106  12.875
55853W        W26453  30.584  10.299  13.610
55854W        W26454  44.499  38.354  11.045
55855W        W26455  35.333  36.567  14.392
55856W        W26456  44.701  40.016   0.378
55857W        W26457   6.704  30.905   3.009
55858W        W26458  35.149  20.185  11.543
55859W        W26459  20.095   7.892   0.712
55860W        W26460  37.832  26.448  11.700
55861W        W26461  43.031  40.910  12.751
55862W        W26462   6.830  31.417   2.992
55863W        W26463   9.866  36.055  13.997
55864W        W26464  34.367  19.243   1.591
55865W        W26465  33.039  17.074  10.636
55866W        W26466  28.625  41.532  13.466
55867W        W26467  16.932  40.497   2.897
55868W        W26468  25.585  40.545  13.803
55869W        W26469  37.667   0.255  12.101
55870W        W26470  15.200   0.196  10.004
55871W        W26471   6.449  29.451   4.661
55872W        W26472  41.324   6.358  10.904
55873W        W26473  39.983  18.629  12.724
55874W        W26474  14.168  20.129  13.560
55875W        W26475   9.404  31.720  12.433
55876W        W26476  10.469  39.800   0.184
55877W        W26477  29.564   1.302   3.833
55878W        W26478  13.695  17.717  10.773
55879W        W26479   7.837  25.593  13.556
55880W        W26480   5.478  11.255  10.645
55881W        W26481  20.689   0.370   3.994
55882W        W26482  39.463  39.483   3.436
55883W        W26483  29.327  38.699  13.687
55884W        W26484  18.445  12.770   4.198
55885W        W26485  25.462  43.730   0.474
55886W        W26486   8.012  11.303   4.189
55887W        W26487   0.491  27.372   4.545
55888W        W26488  29.244  18.451   1.900
55889W        W26489  38.256  44.288  10.053
55890W        W26490  40.868  43.263   1.964
55891W        W26491   4.531   4.680   1.351
55892W        W26492  10.985   7.968   1.652
55893W        W26493  15.270  31.565   4.601
55894W        W26494  43.843  11.103   2.278
55895W        W26495  11.185   7.643   1.303
55896W        W26496  36.424  42.762  11.159
55897W        W26497  33.895  11.686  10.447
55898W        W26498  36.866  20.305  13.003
55899W        W26499  39.809  27.433   1.924
55900W        W26500  43.393  32.076   1.299
55901W        W26501  38.348  34.958   4.590
55902W        W26502   0.477  44.667  13.488
55903W        W26503  41.228  38.363   3.741
55904W        W26504  32.700   4.701   0.384
55905W        W26505  18.116  10.207  12.969
55906W        W26506  13.758   2.124  12.846
55907W        W26507  33.682  10.834  11.514
55908W        W26508  33.514   2.629   4.641
55909W        W26509   4.419  30.389  12.585
55910W        W26510  26.131  26.462  14.962
55911W        W26511  21.978  35.799  11.108
55912W        W26512  14.225  40.924   2.726
55913W        W26513  15.058  38.999   3.147
55914W        W26514  35.983  18.882   3.533
55915W        W26515  38.553   5.821   1.609
55916W        W26516  27.298   8.200   4.193
55917W        W26517  34.580  41.934   1.246
55918W        W26518  20.786  14.328  10.698
55919W        W26519  39.291   1.993  11.010
55920W        W26520  15.989  16.366   4.474
55921W        W26521  38.392  43.695   0.245
55922W        W26522  37.394  35.588   2.893
55923W        W26523  20.309  25.076   1.396
55924W        W26524  11.466   9.223   0.781
55925W        W26525  29.431  31.631   1.339
55926W        W26526  18.105   9.860   3.152
55927W        W26527   9.322  37.877  12.171
55928W        W26528  10.427  23.544   1.395
55929W        W26529  36.520  20.469   4.300
55930W        W26530  22.002  12.622   2.305
55931W        W26531  31.539  16.100   0.347
55932W        W26532   4.298  21.046  12.957
55933W        W26533  32.866   4.346   3.852
55934W        W26534  11.480  13.098  10.506
55935W        W26535  25.958  23.107   1.828
55936W        W26536  15.097   3.140   4.123
55937W        W26537  17.575   7.289   0.111
55938W        W26538  12.588  43.635   4.194
55939W        W26539  38.126  10.771  13.973
55940W        W26540  43.033  29.620  12.510
55941W        W26541  26.436   8.367   0.417
55942W        W26542  10.048   5.156   4.018
55943W        W26543  12.185  37.315  13.496
55944W        W26544  10.424   9.604   2.348
55945W        W26545   4.935  30.373  12.486
55946W        W26546   7.464  20.795  11.582
55947W        W26547   3.344  41.364  12.362
55948W        W26548  39.776   7.369  13.912
55949W        W26549  44.969  21.243   1.009
55950W        W26550  15.198  30.537   2.611
55951W        W26551  10.029  27.586  10.581
55952W        W26552  14.423  43.033   0.447
55953W        W26553  14.071   9.295   4.664
55954W        W26554  16.575  42.079  12.025
55955W        W26555  11.149  34.963   4.327
55956W        W26556  18.948  16.706  10.668
55957W        W26557  35.095  34.780  11.105
55958W        W26558  30.566  16.682   4.714
55959W        W26559  10.241  44.245  10.605
55960W        W26560   7.378  38.035   1.023
55961W        W26561   7.560  31.023   4.175
55962W        W26562  32.729  37.072   0.256
55963W        W26563  13.561  14.246   2.456
55964W        W26564  35.510  40.532  10.736
55965W        W26565   7.605  41.490   1.772
55966W        W26566  14.113  24.417   3.678
55967W        W26567  29.648  29.779   2.739
55968W        W26568  16.763  22.001   3.344
55969W        W26569  36.815   9.304   0.420
55970W        W26570  32.103  41.405   3.281
55971W        W26571  18.953  19.676   0.113
55972W        W26572   7.546   3.485   4.196
55973W        W26573  12.687  27.299  11.618
55974W        W26574  44.413  24.971  12.900
55975W        W26575  16.403  16.118   2.765
55976W        W26576  12.337  10.521  12.024
55977W        W26577   3.338  32.939  14.169
55978W        W26578   5.934   1.898   0.905
55979W        W26579  18.192  29.437   0.820
55980W        W26580  17.994  42.916  11.023
55981W        W26581  37.677   3.621  11.095
55982W        W26582  40.692   1.341   3.306
55983W        W26583  40.774  13.255  12.831
55984W        W26584  21.838  41.070  14.320
55985W        W26585  28.561  12.450   1.919
55986W        W26586  24.810  11.592  12.479
55987W        W26587  14.891   6.146  11.584
55988W        W26588  10.667  22.125  13.417
55989W        W26589  14.175  17.149   2.182
55990W        W26590  11.282  31.081   3.313
55991W        W26591  33.661  19.136   2.353
55992W        W26592  35.938  36.821   1.332
55993W        W26593  15.488  14.062   1.755
55994W        W26594   3.689  29.086  13.946
55995W        W26595   4.920   8.973  13.349
55996W        W26596  40.334  23.780   2.878
55997W        W26597   7.967   5.205  11.891
55998W        W26598  12.653  12.086  12.870
55999W        W26599  17.918  14.697  10.187
56000W        W26600   6.866  31.424  13.518
56001W        W26601  20.990  10.730  14.324
56002W        W26602  30.546   6.773  12.507
56003W        W26603  12.275  19.695   4.346
56004W        W26604   5.290   9.444   3.637
56005W        W26605  15.712  14.869   4.531
56006W        W26606  36.780  10.194   3.235
56007W        W26607  40.589   6.799   3.840
56008W        W26608   0.487   3.296  11.705
56009W        W26609  42.025  28.507   3.214
56010W        W26610  19.364  38.027  13.776
56011W        W26611  17.244   3.467  11.986
56012W        W26612  14.162  17.720  13.803
56013W        W26613  22.182  11.603  14.043
56014W        W26614  38.845   6.132   0.794
56015W        W26615  10.297   6.340   1.871
56016W        W26616   2.692  35.602   2.512
56017W        W26617  16.652  39.308   1.136
56018W        W26618  40.319  20.421   4.232
56019W        W26619  20.168  37.739  14.152
56020W        W26620  11.535   8.289  12.951
56021W        W26621  22.814   8.866  12.525
56022W        W26622  11.292  16.654  14.574
56023W        W26623   0.541  17.059   1.930
56024W        W26624  27.951  20.358   2.401
56025W        W26625  23.328  14.279  12.864
56026W        W26626   6.357  15.590   1.292
56027W        W26627  28.482  42.528  14.572
56028W        W26628  27.138  16.678  14.496
56029W        W26629  35.132  36.001   2.539
56030W        W26630  18.619  26.077  12.671
56031W        W26631  18.056  26.209   0.456
56032W        W26632   4.645  38.344  10.634
56033W        W26633  37.884   2.834  11.698
56034W        W26634  34.975  34.237  13.836
56035W        W26635   9.775  17.675  11.237
56036W        W26636  40.852  29.024  10.532
56037W        W26637  36.452   8.777  13.409
56038W        W26638  10.113  22.131  11.613
56039W        W26639  38.563  17.119   0.270
56040W        W26640  32.161   6.413   2.806
56041W        W26641  43.559   9.359   2.309
56042W        W26642  22.206  27.419   3.499
56043W        W26643   7.168  22.197  11.530
56044W        W26644  18.147  32.951   1.447
56045W        W26645  42.088  12.655  10.131
56046W        W26646   6.663  10.763  11.075
56047W        W26647  15.542   1.206  11.202
56048W        W26648  20.787  26.874  11.485
56049W        W26649   5.372   9.890  12.615
56050W        W26650  28.022  13.631  14.904
56051W        W26651  43.835   5.888   0.166
56052W        W26652  21.750   9.416  11.506
56053W        W26653  10.869  23.850  12.128
56054W        W26654  28.973   4.619  14.866
56055W        W26655  18.249   7.109   3.981
56056W        W26656  15.039   2.976  14.881
56057W        W26657   3.128  16.065   3.079
56058W        W26658  27.415   7.587   0.975
56059W        W26659  26.193  21.214   2.204
56060W        W26660  27.162  26.150  12.940
56061W        W26661  34.307  23.657   1.309
56062W        W26662  26.005  38.477   3.289
56063W        W26663  19.632  11.908   3.298
56064W        W26664   9.157  31.709   4.609
56065W        W26665  43.228  31.424   3.679
56066W        W26666   5.416  34.463  13.849
56067W        W26667  37.317   0.680   5.048
56068W        W26668  35.374  22.605  11.943
56069W        W26669   8.600  12.751   1.198
56070W        W26670  26.632  22.532  13.442
56071W        W26671   6.334  30.970   4.779
56072W        W26672   5.131  28.145  14.852
56073W        W26673   4.685   7.207  12.855
56074W        W26674   7.869   6.420  14.202
56075W        W26675  36.534   4.437   3.368
56076W        W26676  11.781  29.646  13.417
56077W        W26677  34.832  19.824  14.236
56078W        W26678  11.330  43.992  13.083
56079W        W26679  22.253  26.208  11.863
56080W        W26680   4.376  24.789   1.264
56081W        W26681   0.722  11.753  13.429
56082W        W26682  19.169  38.372   1.437
56083W        W26683  42.298  33.217   2.238
56084W        W26684  40.367  14.926   4.602
56085W        W26685  30.207  34.141   0.398
56086W        W26686  14.883   8.762  12.719
56087W        W26687  13.327  32.731  12.509
56088W        W26688  25.231  34.592   4.111
56089W        W26689  19.303   9.764   0.533
56090W        W26690  17.249  38.110  12.837
56091W        W26691  43.775  28.044   1.236
56092W        W26692  16.573  27.641  12.044
56093W        W26693  21.604   6.503   4.903
56094W        W26694  14.385  41.438   2.340
56095W        W26695  31.109   4.646  11.721
56096W        W26696  34.472  39.687  11.570
56097W        W26697  10.912  18.144  14.611
56098W        W26698  22.998  10.726  12.511
56099W        W26699   0.403  11.258  14.875
56100W        W26700  25.133  13.712  14.400
56101W        W26701   8.264  40.931   0.765
56102W        W26702  13.377  22.511   1.294
56103W        W26703   4.698   4.385   0.373
56104W        W26704  44.859  22.656   1.523
56105W        W26705  30.316  40.440   1.814
56106W        W26706  35.720  42.453  12.213
56107W        W26707  32.988  13.278  11.182
56108W        W26708  43.202  17.301   0.005
56109W        W26709   5.186  43.955   2.715
56110W        W26710  40.419  16.805  10.659
56111W        W26711  34.701  34.074  14.822
56112W        W26712  31.612   0.889   1.488
56113W        W26713  26.662  29.449   4.814
56114W        W26714  20.698  10.392   0.407
56115W        W26715  25.768   9.214   0.353
56116W        W26716  37.543   2.879  14.447
56117W        W26717  11.694  33.621   2.713
56118W        W26718  19.642  20.426   1.772
56119W        W26719   6.161  44.373   2.306
56120W        W26720  27.645   9.140  13.040
56121W        W26721  21.077   2.432   3.655
56122W        W26722  23.387  36.347  13.766
56123W        W26723   3.362  10.140  11.871
56124W        W26724  25.864  36.178   1.741
56125W        W26725  31.863  14.112  13.499
56126W        W26726  23.559  11.396   4.472
56127W        W26727  17.294  34.758  14.289
56128W        W26728  33.940  24.789  14.043
56129W        W26729  34.861   9.187  14.059
56130W        W26730  36.101  44.403   0.023
56131W        W26731   9.349  35.537   2.166
56132W        W26732  12.643  38.817   1.979
56133W        W26733  17.273  36.590   2.171
56134W        W26734  17.684   9.904  14.906
56135W        W26735  38.947  27.611  14.398
56136W        W26736  44.296   6.584  11.659
56137W        W26737   5.703  31.410  12.077
56138W        W26738  24.177   0.233   0.283
56139W        W26739  16.008  11.233  12.068
56140W        W26740   4.189   6.979   0.979
56141W        W26741   6.781  12.566  13.936
56142W        W26742  32.656  43.591  13.589
56143W        W26743  16.760  43.484  10.189
56144W        W26744  42.810  24.242   3.579
56145W        W26745  19.966   8.246   1.890
56146W        W26746  33.149   6.014   1.750
56147W        W26747  15.282  12.222   1.448
56148W        W26748  16.261  12.618  13.116
56149W        W26749  33.981   3.684   4.281
56150W        W26750  16.270  43.555  11.444
56151W        W26751  44.548  23.221   4.870
56152W        W26752   0.460  40.826   0.410
56153W        W26753  10.814   9.664   2.690
56154W        W26754   1.460  37.373   1.238
56155W        W26755  26.231   9.898   2.041
56156W        W26756   0.742  29.997  12.449
56157W        W26757  14.087   1.338   2.640
56158W        W26758  43.950  39.026  11.124
56159W        W26759  19.838  23.093   2.708
56160W        W26760  31.723  36.080   0.653
56161W        W26761  26.927   9.400  14.260
56162W        W26762  24.097   3.848   0.222
56163W        W26763  27.568   1.326   3.176
56164W        W26764  34.987  15.660   3.066
56165W        W26765   8.638  43.309  12.064
56166W        W26766  37.846  20.190  10.683
56167W        W26767  22.790   1.660   1.213
56168W        W26768  26.801  10.612  11.531
56169W        W26769  36.571   4.855   0.322
56170W        W26770  14.805  39.027   0.400
56171W        W26771   9.134  37.338  14.831
56172W        W26772   5.995   1.013  13.444
56173W        W26773  22.158  36.811   0.618
56174W        W26774  11.777  11.137   2.501
56175W        W26775  10.137  37.426   2.888
56176W        W26776   0.649  28.040   3.078
56177W        W26777  32.850  30.690   3.808
56178W        W26778   4.948  17.784  11.697
56179W        W26779  41.562   8.245   3.884
56180W        W26780  31.893  15.749  12.385
56181W        W26781  41.808  31.572  14.941
56182W        W26782  14.335  17.663   3.595
56183W        W26783  41.934  38.320   1.685
56184W        W26784  44.980  37.313   2.792
56185W        W26785  43.759  10.267   0.953
56186W        W26786  11.086  17.791   0.380
56187W        W26787  16.164  30.988   4.577
56188W        W26788  33.142  23.757  11.717
56189W        W26789   0.006  34.874   0.497
56190W        W26790  11.309  16.351   0.812
56191W        W26791  42.353   7.271  13.254
56192W        W26792  34.200  34.919   3.646
56193W        W26793  25.018  22.492  11.931
56194W        W26794   4.877  36.611  14.540
56195W        W26795   4.954  42.544   1.798
56196W        W26796  21.393  34.056  12.443
56197W        W26797  39.982   8.308   1.143
56198W        W26798  41.235  17.566   1.307
56199W        W26799  16.672  40.158  13.685
56200W        W26800  40.827  37.578   0.595
56201W        W26801  18.645  35.861   1.498
56202W        W26802  22.206   3.686  11.177
56203W        W26803  38.038  30.038   4.137
56204W        W26804  19.001  17.690  14.713
56205W        W26805  44.993  16.225   1.839
56206W        W26806   7.912   0.848   4.598
56207W        W26807  29.526   9.245  10.734
56208W        W26808  33.432   3.083   3.845
56209W        W26809  22.145  11.811  10.293
56210W        W26810   4.920  17.106  13.366
56211W        W26811  27.643  38.540  11.576
56212W        W26812  35.897   7.061   2.650
56213W        W26813  19.141  27.022   0.314
56214W        W26814  30.327   1.760   1.953
56215W        W26815   8.379   2.210  14.017
56216W        W26816  19.126   8.173  10.458
56217W        W26817   0.920   8.457   2.532
56218W        W26818  33.117  15.240  10.739
56219W        W26819  29.953  20.581   3.657
56220W        W26820  40.040  42.247   3.690
56221W        W26821  34.614   4.744  10.671
56222W        W26822   7.618   6.952  12.541
56223W        W26823  14.249   9.370  14.361
56224W        W26824  32.040  26.141   0.462
56225W        W26825  26.005  36.094   3.282
56226W        W26826  35.576  44.470   1.892
56227W        W26827   2.531  14.760   0.430
56228W        W26828  12.298  12.454  13.303
56229W        W26829  33.149  31.934   1.697
56230W        W26830   0.718  31.434  11.076
56231W        W26831  15.880   6.885  10.553
56232W        W26832  26.566  20.763   1.336
56233W        W26833  35.486  29.039  14.523
56234W        W26834  31.246  23.172   2.231
56235W        W26835  15.890  19.299  12.069
56236W        W26836   8.966  35.491  10.693
56237W        W26837  41.975   4.863  13.446
56238W        W26838   5.886  42.273  13.456
56239W        W26839  40.337  39.837   2.415
56240W        W26840  27.073  42.995   0.451
56241W        W26841  34.954  16.005   1.171
56242W        W26842  21.993   5.870   4.056
56243W        W26843  23.690  14.322   1.280
56244W        W26844  15.232  11.701   5.044
56245W        W26845  34.797   6.210   2.232
56246W        W26846  11.051  35.055   3.319
56247W        W26847  18.142  28.653  13.490
56248W        W26848   9.274  17.318  14.614
56249W        W26849  16.460  24.046  14.911
56250W        W26850  29.544  13.233  13.349
56251W        W26851  14.437  16.303   3.943
56252W        W26852  17.505  15.835   4.027
56253W        W26853  12.258  20.073   2.830
56254W        W26854   7.469   7.746  14.472
56255W        W26855   3.424  24.678  10.538
56256W        W26856   6.196   3.715   4.079
56257W        W26857  35.419  15.688  13.005
56258W        W26858   9.207  40.639   4.606
56259W        W26859  26.506  30.469  10.814
56260W        W26860  14.626  37.541   4.513
56261W        W26861  35.674  26.071  11.950
56262W        W26862  22.913  36.162   3.127
56263W        W26863  37.531  35.593   1.630
56264W        W26864  10.092  22.969  13.748
56265W        W26865   3.783   3.893   1.280
56266W        W26866  41.599   7.252  12.051
56267W        W26867  44.445  38.959  12.700
56268W        W26868  21.618  44.247   0.820
56269W        W26869  14.587  16.133  11.221
56270W        W26870   9.820  14.575  14.161
56271W        W26871  17.095   6.965  14.831
56272W        W26872   7.340  14.292   2.227
56273W        W26873  17.588  39.445   3.393
56274W        W26874   1.974   9.259   1.229
56275W        W26875  32.449  25.253  12.023
56276W        W26876   4.215  19.216   2.800
56277W        W26877  41.824  12.600  13.946
56278W        W26878  33.546  29.060  13.276
56279W        W26879  19.706   0.931   1.274
56280W        W26880  37.380  24.264   3.323
56281W        W26881  33.335  34.939   0.869
56282W        W26882   6.768  41.522  10.585
56283W        W26883   1.792  26.010   4.129
56284W        W26884  37.613   4.372  11.536
56285W        W26885  29.082  36.203  11.099
56286W        W26886  20.763  23.751   2.760
56287W        W26887  16.663  43.296  14.333
56288W        W26888  20.335  28.282   4.489
56289W        W26889   6.968  34.540   2.231
56290W        W26890  12.635  28.945  13.059
56291W        W26891   6.798  26.841  11.550
56292W        W26892  26.109  12.702   4.903
56293W        W26893   3.743  26.163  13.045
56294W        W26894   4.754  25.869   4.999
56295W        W26895  14.546  13.168   1.265
56296W        W26896   7.687  40.308  13.540
56297W        W26897  25.265  14.837   2.749
56298W        W26898  14.808  26.485   1.214
56299W        W26899  18.094  15.309   0.767
56300W        W26900   7.817   7.016  10.409
56301W        W26901  20.567   0.377  10.153
56302W        W26902  24.164   3.604   3.731
56303W        W26903   1.256   0.495   1.730
56304W        W26904  40.499  12.323  14.074
56305W        W26905   7.292   7.931  10.642
56306W        W26906  14.713   9.667  13.097
56307W        W26907  29.539  10.467  11.235
56308W        W26908  32.979   6.869   1.755
56309W        W26909  15.729  32.611   1.411
56310W        W26910  12.220  30.461   1.778
56311W        W26911  23.605  28.910  14.139
56312W        W26912  22.251  26.157  11.089
56313W        W26913   1.899  19.159  12.071
56314W        W26914  38.024   9.804  13.978
56315W        W26915  12.568  13.033  12.779
56316W        W26916  40.725   7.918   2.378
56317W        W26917  10.359  41.125   3.792
56318W        W26918  38.791   4.482   5.056
56319W        W26919  29.113  24.035   3.940
56320W        W26920  36.224  43.723  12.993
56321W        W26921   9.926   9.696   4.718
56322W        W26922  43.528  43.218   3.128
56323W        W26923  10.352  36.795  11.102
56324W        W26924   1.828   8.200  14.692
56325W        W26925  34.690  15.886  14.965
56326W        W26926  26.394  42.539   1.018
56327W        W26927  41.290  36.466  10.717
56328W        W26928  43.018  18.717  12.081
56329W        W26929  16.803  14.081   0.533
56330W        W26930  29.792  42.008   3.961
56331W        W26931   4.673  10.867   2.763
56332W        W26932  26.565  38.079   2.412
56333W        W26933  29.210  21.539  13.038
56334W        W26934  22.309  24.895   3.801
56335W        W26935  27.955  29.899  11.625
56336W        W26936  34.688  20.623  13.027
56337W        W26937   4.748  25.216   0.849
56338W        W26938  18.943   8.268  14.607
56339W        W26939  22.018   9.169  14.037
56340W        W26940  38.068   9.800   4.417
56341W        W26941  23.742  29.395  14.369
56342W        W26942  32.492  34.031  14.347
56343W        W26943   0.280  19.562  12.934
56344W        W26944  12.863  40.607   0.401
56345W        W26945  15.365  18.870  12.430
56346W        W26946  43.308   0.909   1.259
56347W        W26947  34.160  16.672   3.319
56348W        W26948  10.224  34.570   0.832
56349W        W26949  40.514  17.664   2.600
56350W        W26950  18.789  15.888  12.497
56351W        W26951  23.464  25.081   4.073
56352W        W26952  29.454  25.746   1.848
56353W        W26953   1.785  39.348   4.195
56354W        W26954  29.424  44.225   3.086
56355W        W26955   0.407  31.577   2.730
56356W        W26956  25.415  34.730  11.914
56357W        W26957  11.309  29.227   4.893
56358W        W26958  20.127  41.836   2.799
56359W        W26959  41.590  19.133   2.383
56360W        W26960  35.996   6.377  10.680
56361W        W26961  14.848  29.696   3.182
56362W        W26962  22.726   5.862  12.894
56363W        W26963  17.669  17.596  12.700
56364W        W26964   9.812  35.160  14.321
56365W        W26965  11.742  43.295  11.531
56366W        W26966  22.438  32.890   2.383
56367W        W26967  29.938  24.651   3.622
56368W        W26968  16.326  43.794   4.699
56369W        W26969  24.183  25.611  13.537
56370W        W26970  28.453  18.601  11.984
56371W        W26971  18.089  37.574   5.081
56372W        W26972  32.806  29.038   1.789
56373W        W26973   8.112  33.401  12.466
56374W        W26974  22.680  27.796   1.429
56375W        W26975  42.728  41.949  12.848
56376W        W26976  44.629   7.715  11.612
56377W        W26977  29.049   7.852   1.638
56378W        W26978  27.709   8.156   2.251
56379W        W26979  37.779  44.765  11.997
56380W        W26980  18.782  10.103  13.572
56381W        W26981  44.016  12.979  12.349
56382W        W26982  37.194  26.021   4.824
56383W        W26983   7.276   8.830   0.445
56384W        W26984  11.102  25.304  11.193
56385W        W26985  33.434  37.943   4.659
56386W        W26986  13.902  20.815  11.403
56387W        W26987   3.873  42.798   3.610
56388W        W26988  13.858   2.351   0.410
56389W        W26989  10.916  14.061  14.854
56390W        W26990  26.998  10.789   1.611
56391W        W26991  37.165   6.402   0.189
56392W        W26992  19.617  11.357  10.803
56393W        W26993  25.188  36.231  11.673
56394W        W26994  24.176  33.504   1.497
56395W        W26995  36.822   4.955   4.535
56396W        W26996  34.494   6.283  13.705
56397W        W26997  36.077   8.596  11.217
56398W        W26998   4.796   5.681  12.497
56399W        W26999   7.483  38.943  14.090
56400W        W27000  41.600  27.480   2.340
56401W        W27001  16.524  11.261  12.099
56402W        W27002  21.045  33.814   2.622
56403W        W27003   2.230  24.181  12.257
56404W        W27004  43.430  35.947   3.183
56405W        W27005  35.552  11.221   3.664
56406W        W27006  16.900  35.403  12.955
56407W        W27007  43.303  35.547   1.282
56408W        W27008   6.486   3.818  12.865
56409W        W27009   9.890  32.398   2.725
56410W        W27010   2.299  28.222  13.006
56411W        W27011  21.063  21.220  13.449
56412W        W27012  42.532   5.524   0.309
56413W        W27013  44.449  38.505  12.966
56414W        W27014   8.511  28.091   3.548
56415W        W27015  43.145  40.559  14.537
56416W        W27016   6.467   1.755  13.700
56417W        W27017  44.009  38.334  11.602
56418W        W27018   7.782  26.646  11.976
56419W        W27019  40.281  19.809  14.541
56420W        W27020  22.694  29.209   4.772
56421W        W27021   8.253  18.096   4.619
56422W        W27022  25.737  26.336  13.910
56423W        W27023  27.588  23.263   1.348
56424W        W27024  31.633  35.005  14.353
56425W        W27025  25.608  41.899  13.398
56426W        W27026  38.038  13.735  14.217
56427W        W27027  32.247  14.880   3.429
56428W        W27028  14.746   5.356   0.738
56429W        W27029  43.213  16.355  11.108
56430W        W27030   3.345   6.039  11.785
56431W        W27031  24.571   5.791  12.810
56432W        W27032   0.877   9.302   4.133
56433W        W27033  39.644  40.430  14.883
56434W        W27034  22.013  28.171  13.908
56435W        W27035   8.929   1.366   1.833
56436W        W27036  18.606  30.208  11.535
56437W        W27037  40.415  40.486   2.653
56438W        W27038  33.888  34.223  11.947
56439W        W27039  27.212  38.356  14.556
56440W        W27040  21.781  26.932   1.127
56441W        W27041  23.522   7.464   0.447
56442W        W27042  41.113  44.640  11.171
56443W        W27043   9.429   2.894   2.757
56444W        W27044   3.131  24.476   3.683
56445W        W27045   5.912  13.173   0.524
56446W        W27046  38.045  23.653  11.520
56447W        W27047  25.657   2.868  10.604
56448W        W27048  10.210   5.246  12.367
56449W        W27049  11.371   6.260   2.772
56450W        W27050   9.976   7.176   3.599
56451W        W27051   1.036  34.033   0.060
56452W        W27052  26.770  28.704   1.441
56453W        W27053  16.792  24.969   0.494
56454W        W27054   9.266  22.214   1.195
56455W        W27055  14.171  40.352   0.839
56456W        W27056  16.076  42.566  13.166
56457W        W27057  21.450  19.494   0.685
56458W        W27058  18.711   9.781  14.038
56459W        W27059  12.685  15.261   1.243
56460W        W27060   3.984  22.474   4.192
56461W        W27061  36.388   3.426   1.413
56462W        W27062  15.934   1.124   4.208
56463W        W27063  41.485  19.581   3.201
56464W        W27064  32.341  35.494  13.388
56465W        W27065  33.832   0.702  14.079
56466W        W27066   9.869  34.443   1.998
56467W        W27067  29.383  34.977  13.658
56468W        W27068  10.858   0.328  14.213
56469W        W27069  18.255   2.723  13.422
56470W        W27070  44.825  22.744   0.526
56471W        W27071  35.425  30.630  12.385
56472W        W27072  43.427   3.712   4.110
56473W        W27073   5.428  44.709  12.879
56474W        W27074   9.298  36.531   0.660
56475W        W27075  36.414  39.949   3.705
56476W        W27076   5.380  13.025  13.640
56477W        W27077  39.006   5.438   1.998
56478W        W27078  30.073  28.063  13.592
56479W        W27079  13.113  23.013  13.569
56480W        W27080  36.416  27.009  10.919
56481W        W27081   1.649   0.388   1.370
56482W        W27082  44.277   7.126  12.992
56483W        W27083  21.443   8.815  13.579
56484W        W27084  30.651  24.890  13.415
56485W        W27085  18.225  40.254  13.410
56486W        W27086  10.558  25.411  14.526
56487W        W27087  33.420   6.890   4.197
56488W        W27088  24.141  18.943   2.279
56489W        W27089  17.620  28.473   3.829
56490W        W27090  39.247  25.983   4.673
56491W        W27091  26.743  31.851  14.517
56492W        W27092  41.454   0.466   0.980
56493W        W27093  39.073  23.134  14.672
56494W        W27094  24.584  43.934   0.255
56495W        W27095  13.364  26.008   0.720
56496W        W27096  23.635  38.410   4.083
56497W        W27097  14.746  28.990  13.503
56498W        W27098  32.054   1.753  12.269
56499W        W27099  38.274  37.468  14.018
56500W        W27100  24.458  30.643   0.804
56501W        W27101  30.432  17.034   2.311
56502W        W27102  41.569  21.218  11.168
56503W        W27103  42.708   4.269   2.713
56504W        W27104  43.799  30.818   2.299
56505W        W27105  34.802  19.667   4.520
56506W        W27106  15.707  36.788  14.738
56507W        W27107  42.480   0.254   3.437
56508W        W27108  19.143  20.276  13.200
56509W        W27109   6.357  41.469   2.339
56510W        W27110  42.944  13.580   4.166
56511W        W27111  27.132   2.294   2.174
56512W        W27112  39.527  23.933   0.396
56513W        W27113  36.835  44.764  10.924
56514W        W27114  33.970  23.174  10.631
56515W        W27115  27.657   1.817   2.846
56516W        W27116   1.464  30.707   1.295
56517W        W27117  41.804  30.079  11.957
56518W        W27118   2.200   2.920  13.797
56519W        W27119  26.080  32.059   2.363
56520W        W27120  34.088  19.779  11.811
56521W        W27121  39.869  13.104   4.756
56522W        W27122   0.745  36.978  14.469
56523W        W27123   1.783  33.659   0.269
56524W        W27124  20.869  42.347   4.265
56525W        W27125  37.458  31.040   3.743
56526W        W27126  26.121  18.166   4.332
56527W        W27127   8.324  33.457  11.595
56528W        W27128   7.761  13.118   4.617
56529W        W27129  39.969  12.101  10.705
56530W        W27130  41.144  33.860  14.437
56531W        W27131   4.935   9.184   1.535
56532W        W27132  21.522  36.061  14.813
56533W        W27133  16.395  28.466  12.756
56534W        W27134  17.779   8.335  11.203
56535W        W27135   6.157  31.128  10.707
56536W        W27136  23.396  18.839   4.319
56537W        W27137  38.234   1.640   1.764
56538W        W27138  39.017  44.264   3.671
56539W        W27139  10.328  39.345  12.278
56540W        W27140  27.161   2.310  11.604
56541W        W27141  16.278  20.786   4.222
56542W        W27142  22.509  12.418   2.303
56543W        W27143  19.644   3.762  11.384
56544W        W27144  42.866  19.056  11.622
56545W        W27145  20.746   0.335   5.524
56546W        W27146   9.667  23.526   0.794
56547W        W27147  35.150   3.357  12.733
56548W        W27148  29.598   2.282   1.278
56549W        W27149  34.373   0.266  14.856
56550W        W27150   9.561   2.567  11.713
56551W        W27151  36.014   4.256  13.834
56552W        W27152  38.489  28.945   0.698
56553W        W27153  27.998   8.757   0.290
56554W        W27154  36.013   6.171   1.477
56555W        W27155  16.982  26.232   3.567
56556W        W27156   6.819  44.735   3.923
56557W        W27157  16.092  18.224   1.844
56558W        W27158  13.799  30.615  13.121
56559W        W27159  15.803  14.249   2.813
56560W        W27160  24.574  38.946  13.431
56561W        W27161  43.188  11.576   4.920
56562W        W27162  25.998  39.763   4.081
56563W        W27163   0.731  12.456  11.649
56564W        W27164  24.111  26.139   3.111
56565W        W27165   4.053  37.016  14.338
56566W        W27166  42.848  10.527  14.813
56567W        W27167  10.673  14.791  13.547
56568W        W27168   0.596   8.570  14.327
56569W        W27169  15.709  22.122  13.832
56570W        W27170   1.210  29.172  11.158
56571W        W27171  22.248  13.683  13.846
56572W        W27172  26.655  29.976  12.537
56573W        W27173   5.801  33.182   2.149
56574W        W27174  17.687  12.156   0.205
56575W        W27175   5.131  43.529  14.493
56576W        W27176  20.022  39.505   1.339
56577W        W27177   5.577  42.403  10.575
56578W        W27178  19.238  31.566   1.711
56579W        W27179  31.627  32.439   3.057
56580W        W27180  14.795   6.186   0.310
56581W        W27181  11.823  34.788  13.285
56582W        W27182  25.126  43.755   4.071
56583W        W27183   3.388  39.926  11.480
56584W        W27184   0.963  41.153  10.444
56585W        W27185  42.527  22.284  11.461
56586W        W27186  16.770   2.416  12.580
56587W        W27187  30.567   9.744  11.411
56588W        W27188  31.481  10.145   1.842
56589W        W27189  24.182  23.614   2.858
56590W        W27190  35.167  37.948  10.649
56591W        W27191   4.718  30.932  10.663
56592W        W27192  34.003  44.218   2.857
56593W        W27193  40.723  13.655  13.957
56594W        W27194  25.782  24.590  14.856
56595W        W27195  26.543  34.261   1.693
56596W        W27196  22.448  31.946   0.361
56597W        W27197  12.283  11.011  11.173
56598W        W27198  24.971   4.393   1.092
56599W        W27199  38.236  10.643  13.007
56600W        W27200   2.450   0.070   4.103
56601W        W27201  18.271  34.003   3.868
56602W        W27202  16.178  10.866   3.682
56603W        W27203  17.124   1.377  14.038
56604W        W27204  28.191  11.655  11.163
56605W        W27205  38.643  40.107  12.593
56606W        W27206  30.886  24.121   2.241
56607W        W27207  12.322  44.716  10.610
56608W        W27208  35.470  34.339  13.907
56609W        W27209  15.329  36.606   0.031
56610W        W27210  25.405  11.325  14.690
56611W        W27211  28.073   7.914  10.199
56612W        W27212  22.001  41.408  12.704
56613W        W27213   8.820  19.174   4.626
56614W        W27214  26.157  37.267  14.944
56615W        W27215  29.082   0.540  13.244
56616W        W27216  22.910   0.807   2.348
56617W        W27217  16.093  19.050   2.777
56618W        W27218  44.266  33.891   0.204
56619W        W27219   8.272  38.777  14.703
56620W        W27220  43.852  34.926   3.854
56621W        W27221   9.118  39.038   1.456
56622W        W27222  12.172   1.913  14.218
56623W        W27223  26.551  24.268  11.118
56624W        W27224  40.339  32.804  12.991
56625W        W27225  26.752  15.714  14.274
56626W        W27226  28.028  32.550  10.433
56627W        W27227  19.061  38.267   0.080
56628W        W27228  16.390   0.468   0.477
56629W        W27229  44.534  26.877  14.426
56630W        W27230  15.503  11.656   4.600
56631W        W27231  20.667  29.566  12.200
56632W        W27232  44.423  39.894  12.048
56633W        W27233  27.923   9.245   3.292
56634W        W27234   1.301  19.211  10.792
56635W        W27235   7.390  10.095   1.758
56636W        W27236   9.635  32.499   3.671
56637W        W27237  40.265  33.382  12.128
56638W        W27238  20.327  28.725  13.747
56639W        W27239  15.848  31.147  14.486
56640W        W27240  40.137  39.383   4.250
56641W        W27241  12.928  14.898   2.697
56642W        W27242  14.848  11.333   3.287
56643W        W27243  10.788  11.679  11.313
56644W        W27244   6.329  28.013  12.679
56645W        W27245  19.600  42.804   0.485
56646W        W27246  35.517  21.279   1.304
56647W        W27247  20.499  30.865  13.653
56648W        W27248  26.635  32.661   1.770
56649W        W27249   0.055  26.074   1.887
56650W        W27250  29.437  28.084   0.327
56651W        W27251   7.481   9.197  13.054
56652W        W27252  29.680  30.138  12.079
56653W        W27253  21.685  13.794   3.269
56654W        W27254  44.168  19.928  13.285
56655W        W27255  44.063  23.447   2.356
56656W        W27256   4.438  42.429   0.394
56657W        W27257  31.130  37.808   5.429
56658W        W27258  43.744  28.631   2.163
56659W        W27259  34.230  26.160   0.942
56660W        W27260   0.179   3.206  13.988
56661W        W27261  17.081  33.321   9.975
56662W        W27262  31.903  21.109  13.352
56663W        W27263   5.744  27.108  11.822
56664W        W27264   0.617   0.395  10.869
56665W        W27265  44.286  11.847   2.374
56666W        W27266  37.487   4.012   4.072
56667W        W27267  15.824  29.005  13.395
56668W        W27268   8.882   3.524  11.871
56669W        W27269  23.672  41.631  12.209
56670W        W27270  43.035  32.652   3.202
56671W        W27271  38.500   0.219  14.260
56672W        W27272   1.835   4.371  14.462
56673W        W27273  17.021   0.890  13.852
56674W        W27274  36.975  38.395   0.068
56675W        W27275  20.619  24.116   4.356
56676W        W27276  17.781  30.079   0.715
56677W        W27277  17.673  23.564  14.705
56678W        W27278  33.348  18.073  11.096
56679W        W27279  25.195  41.590  12.625
56680W        W27280  35.889  44.392   1.457
56681W        W27281   8.115  14.297   0.993
56682W        W27282  34.981  40.763  10.663
56683W        W27283  33.857  35.695   1.350
56684W        W27284  12.433  11.199   1.250
56685W        W27285  21.462  15.972  11.926
56686W        W27286   4.031   4.299   0.054
56687W        W27287  12.463  29.018  12.034
56688W        W27288  31.538  32.970   2.591
56689W        W27289  13.699  38.764  11.641
56690W        W27290   1.417  23.247   1.893
56691W        W27291  33.923  19.301  12.021
56692W        W27292  34.493  12.868  14.168
56693W        W27293   5.892  36.505   1.982
56694W        W27294  27.474   2.862   4.307
56695W        W27295  35.484   4.390   1.689
56696W        W27296  32.416   4.624   3.141
56697W        W27297  12.678  18.070  12.960
56698W        W27298   4.388   5.360   0.128
56699W        W27299   9.989  19.753  14.506
56700W        W27300  15.250   8.332  14.818
56701W        W27301   3.342  42.311   2.485
56702W        W27302  39.601  10.817   4.217
56703W        W27303   5.254  17.894   3.308
56704W        W27304  27.082   0.676  11.639
56705W        W27305  15.742  17.089   3.266
56706W        W27306  31.945  37.719   1.747
56707W        W27307  44.818   3.719  10.586
56708W        W27308  41.400  44.213  12.873
56709W        W27309  37.479  38.829  13.872
56710W        W27310  30.215  17.225  10.657
56711W        W27311   2.092  21.117  14.962
56712W        W27312  37.874   5.868  12.792
56713W        W27313  30.549  18.372  11.502
56714W        W27314  24.739  22.050  10.833
56715W        W27315   4.836  12.830  12.094
56716W        W27316  39.888  10.862  10.892
56717W        W27317   8.940   5.734   0.184
56718W        W27318  40.902  26.538   0.992
56719W        W27319  44.297  34.334   2.220
56720W        W27320  10.761  20.556   2.043
56721W        W27321  39.975  40.417  14.468
56722W        W27322  35.411  23.990  13.995
56723W        W27323  30.617   4.223   1.129
56724W        W27324  24.443  35.525  11.501
56725W        W27325   6.158  36.036  10.844
56726W        W27326  18.807  40.025  10.631
56727W        W27327   8.289  10.389   1.516
56728W        W27328  24.145   6.192  11.571
56729W        W27329  15.162   9.883  11.173
56730W        W27330   4.706   9.452   0.405
56731W        W27331  30.276  24.066  12.996
56732W        W27332  27.003  30.822  14.220
56733W        W27333   0.337  42.023   1.143
56734W        W27334   5.392  31.835  12.053
56735W        W27335  36.486   2.862  10.686
56736W        W27336  19.831  42.473   1.742
56737W        W27337  10.198  12.263   1.750
56738W        W27338  32.198  25.224  14.344
56739W        W27339  33.945  11.139  10.467
56740W        W27340   3.896   1.295   0.318
56741W        W27341   0.264  29.481  10.971
56742W        W27342  39.672  17.812   1.888
56743W        W27343  22.739  19.776  11.187
56744W        W27344  20.366  26.581   0.862
56745W        W27345  19.112  23.164   3.258
56746W        W27346   7.738  21.147  14.521
56747W        W27347  27.802   5.691  11.653
56748W        W27348   5.492   6.622   3.279
56749W        W27349   6.198  31.013   2.372
56750W        W27350  14.007  25.754  13.763
56751W        W27351  19.716   5.849   0.844
56752W        W27352  14.826  25.115   0.714
56753W        W27353  29.284  30.027  12.872
56754W        W27354  25.161  28.443  13.078
56755W        W27355   3.469  30.631   4.196
56756W        W27356  22.148   6.736   2.339
56757W        W27357  17.100  20.688   3.845
56758W        W27358   0.287  10.265  13.807
56759W        W27359  22.123  15.534  12.973
56760W        W27360  14.980  33.053  11.554
56761W        W27361  32.535  10.272  10.132
56762W        W27362  43.870  41.486   2.168
56763W        W27363  43.808   0.169  11.929
56764W        W27364  43.190  26.741  11.505
56765W        W27365  32.098  14.054   4.683
56766W        W27366  35.821  19.536  12.306
56767W        W27367   9.242  17.558  13.735
56768W        W27368  27.050  29.735  14.662
56769W        W27369  35.278  41.066   2.097
56770W        W27370  41.569  39.743  13.359
56771W        W27371   5.844  18.100  12.775
56772W        W27372  42.596  41.971  11.035
56773W        W27373  43.317  27.804  12.411
56774W        W27374  10.393   4.279   1.364
56775W        W27375  20.177  20.545  10.673
56776W        W27376  10.138  23.259  13.302
56777W        W27377  33.151   9.821   1.869
56778W        W27378  34.820  41.662   3.797
56779W        W27379  26.882   3.983   0.809
56780W        W27380  33.787  38.480  13.592
56781W        W27381  12.723  34.956  14.445
56782W        W27382  12.260   6.473  12.042
56783W        W27383   1.964  17.272  12.513
56784W        W27384  16.309  27.840   2.451
56785W        W27385  36.059  21.902  11.373
56786W        W27386  31.937  38.932   4.154
56787W        W27387  24.405  44.108  12.243
56788W        W27388  22.496   4.458   3.672
56789W        W27389  25.181  39.575   3.531
56790W        W27390   3.697  30.837   1.835
56791W        W27391  33.545  37.430   4.504
56792W        W27392  43.954  18.596   1.312
56793W        W27393  27.632  37.316   2.653
56794W        W27394  21.953  40.315   1.635
56795W        W27395   6.397  41.086   4.489
56796W        W27396  11.738  26.949   4.570
56797W        W27397  26.411  27.680  14.059
56798W        W27398  18.012  22.192   2.844
56799W        W27399  28.457  15.310  14.389
56800W        W27400  37.339   5.738  12.063
56801W        W27401  29.097  17.143  12.633
56802W        W27402  30.521  21.258  12.424
56803W        W27403  17.536   6.563  13.237
56804W        W27404  26.907  13.481   0.774
56805W        W27405   5.152  23.065   0.276
56806W        W27406  28.859  31.041   4.101
56807W        W27407  17.586   4.434  13.297
56808W        W27408  19.469  28.644   3.808
56809W        W27409  14.078  18.942   4.237
56810W        W27410   1.993  24.686   0.988
56811W        W27411  36.080  18.540   1.845
56812W        W27412  38.372  36.129   3.846
56813W        W27413  22.331  26.185  13.400
56814W        W27414  22.642  35.841   2.372
56815W        W27415  40.122   1.843  11.153
56816W        W27416  13.870  38.006   1.034
56817W        W27417  29.052  14.056   1.227
56818W        W27418  19.173   9.355   4.622
56819W        W27419  13.280   4.131  14.534
56820W        W27420  23.137   2.867   2.379
56821W        W27421  13.783   0.438   4.103
56822W        W27422  11.167  42.102  12.492
56823W        W27423  37.882  20.262   5.054
56824W        W27424  20.424  32.962   0.899
56825W        W27425   9.002   9.647  14.721
56826W        W27426   4.267  25.935   0.822
56827W        W27427  14.280   5.235  13.826
56828W        W27428   6.633  20.531  11.265
56829W        W27429  31.968  41.278   0.444
56830W        W27430  18.684  17.023  14.071
56831W        W27431  31.575  40.506   0.247
56832W        W27432  24.028  41.389  12.503
56833W        W27433  29.272  21.457   1.872
56834W        W27434   9.158  31.143   2.221
56835W        W27435  10.254  29.189  11.995
56836W        W27436  43.569  27.026   3.504
56837W        W27437   2.034  38.444   2.058
56838W        W27438  28.881  27.026   1.364
56839W        W27439  10.735  17.705  13.053
56840W        W27440  41.546  28.014   3.588
56841W        W27441  44.516   5.236   2.182
56842W        W27442  14.875  23.068   1.800
56843W        W27443  17.028  14.821   2.202
56844W        W27444  12.519  12.581   1.522
56845W        W27445  38.790  23.091   2.201
56846W        W27446  17.290  20.100   0.190
56847W        W27447   5.408  20.643  14.080
56848W        W27448  30.913  39.541  12.878
56849W        W27449  29.963   4.549   0.396
56850W        W27450  17.650  28.543   4.353
56851W        W27451  27.541  40.861  13.391
56852W        W27452  39.186  23.483  10.731
56853W        W27453   4.877  18.992  12.642
56854W        W27454  33.863  34.476  10.674
56855W        W27455  41.499  33.341  11.538
56856W        W27456  39.933   4.620   2.934
56857W        W27457  26.976  14.324  11.942
56858W        W27458  39.503   3.922   5.067
56859W        W27459  42.654  34.961   1.773
56860W        W27460  33.461  19.605  10.274
56861W        W27461  14.731  18.642   3.752
56862W        W27462  21.310   0.027  12.136
56863W        W27463  40.441  12.072   4.423
56864W        W27464  42.967  39.218   4.481
56865W        W27465  37.319  26.054  11.218
56866W        W27466   7.184   8.517   0.849
56867W        W27467   3.992   3.170   2.484
56868W        W27468  37.247   1.332   1.772
56869W        W27469  25.991  33.356   4.040
56870W        W27470  15.710  28.393   3.761
56871W        W27471   2.760   2.014  10.661
56872W        W27472  18.556  34.098  11.348
56873W        W27473   2.332  32.743  12.151
56874W        W27474   9.506  35.396  12.663
56875W        W27475  33.833  25.801   0.964
56876W        W27476  29.045  37.493  11.993
56877W        W27477  22.498  20.496   3.228
56878W        W27478  31.098  19.236   3.200
56879W        W27479  17.560  12.023   1.942
56880W        W27480  26.804  12.672   0.667
56881W        W27481  12.386  22.324  12.513
56882W        W27482  33.607  19.491   0.874
56883W        W27483  40.782  24.682   2.763
56884W        W27484   6.082  32.604  14.699
56885W        W27485  16.675  26.450   0.739
56886W        W27486  13.657  14.134   1.388
56887W        W27487  31.932  44.929   2.197
56888W        W27488  31.009  34.465   4.535
56889W        W27489  39.000   2.752   0.913
56890W        W27490  35.062   3.447   4.224
56891W        W27491   1.238  19.368   0.386
56892W        W27492  12.299  13.657  12.035
56893W        W27493  33.596  32.056  11.873
56894W        W27494  14.343   7.231   3.226
56895W        W27495  43.441  10.265   3.226
56896W        W27496  13.788  29.510  14.778
56897W        W27497   4.434   3.024   3.317
56898W        W27498  34.455  40.572   2.993
56899W        W27499  43.840  41.921   3.882
56900W        W27500   2.255  41.245  12.834
56901W        W27501  13.228  14.054   9.358
56902W        W27502  27.929   0.263  11.541
56903W        W27503  25.954  42.747  11.997
56904W        W27504   4.949  26.741  12.039
56905W        W27505  31.984  21.722  10.927
56906W        W27506  18.613  34.027  14.170
56907W        W27507  23.753  24.210  11.637
56908W        W27508  13.314  32.512   0.890
56909W        W27509  21.556   2.226   4.424
56910W        W27510  41.609  24.479   4.769
56911W        W27511  18.534  16.403   3.113
56912W        W27512   8.748  31.658   0.261
56913W        W27513   1.298  20.526  12.943
56914W        W27514  14.087  31.088  12.368
56915W        W27515  40.798  19.080   0.313
56916W        W27516  11.924   9.264   2.189
56917W        W27517  39.081  21.035  11.698
56918W        W27518   1.539   5.188  14.941
56919W        W27519  26.430  36.012   1.486
56920W        W27520  23.629  43.431   2.422
56921W        W27521  23.479  27.713   1.507
56922W        W27522  39.380   1.522  10.795
56923W        W27523  17.188  12.871  11.017
56924W        W27524  42.768  41.187   4.061
56925W        W27525  26.573  10.197   3.804
56926W        W27526  24.885  17.721  10.895
56927W        W27527  12.738  16.040   4.289
56928W        W27528  18.771  21.255   3.782
56929W        W27529   7.914  16.050   0.899
56930W        W27530  39.608   5.711  11.573
56931W        W27531  15.785  27.371   0.690
56932W        W27532   7.008  42.998   4.766
56933W        W27533  22.932  31.542  11.900
56934W        W27534   9.712  31.115   0.817
56935W        W27535  17.301   5.466  13.015
56936W        W27536   3.008  22.247  13.337
56937W        W27537  34.681  37.475  10.314
56938W        W27538  24.218  30.342  12.672
56939W        W27539  35.891  25.095   1.397
56940W        W27540  16.246  29.668   1.431
56941W        W27541  23.734  22.421   0.201
56942W        W27542  37.654  39.399   3.237
56943W        W27543  32.908  35.491  10.989
56944W        W27544  12.647  26.635  10.904
56945W        W27545  18.491   7.927  13.555
56946W        W27546   0.166   3.467  10.908
56947W        W27547   7.318  17.044   2.190
56948W        W27548  20.676  41.512  14.277
56949W        W27549  38.482  17.877   0.591
56950W        W27550  14.631   0.260  13.865
56951W        W27551  43.512   4.006   1.754
56952W        W27552  41.538   5.254   1.264
56953W        W27553   3.251  37.549  12.782
56954W        W27554   9.101  22.075   2.435
56955W        W27555  15.815  35.028  12.542
56956W        W27556  33.335   1.964  12.939
56957W        W27557  43.234  38.221  14.844
56958W        W27558  31.513  14.114   1.729
56959W        W27559  38.987  43.359   4.561
56960W        W27560   3.485  33.282  11.574
56961W        W27561  13.710  21.705  11.973
56962W        W27562   9.272  32.095   3.694
56963W        W27563  40.439   1.687  13.045
56964W        W27564   1.828  43.023   4.637
56965W        W27565  20.703  12.686   3.312
56966W        W27566  11.675  12.934  10.959
56967W        W27567  27.091  12.655   2.372
56968W        W27568   6.554  36.152  13.721
56969W        W27569  38.446  33.521   1.694
56970W        W27570  15.757  31.436  11.455
56971W        W27571  32.844   4.677   1.930
56972W        W27572  26.493  32.211  13.696
56973W        W27573  27.524   6.696  12.595
56974W        W27574  25.512  35.318   3.150
56975W        W27575  38.063  26.306   2.865
56976W        W27576  26.407  32.423  12.837
56977W        W27577  40.429  19.647   1.049
56978W        W27578  43.740   3.904  12.291
56979W        W27579  41.151   8.588   0.036
56980W        W27580   0.836  26.212  12.105
56981W        W27581  10.440  34.050  11.774
56982W        W27582   9.995  15.874  10.870
56983W        W27583  39.930  21.417  12.127
56984W        W27584  22.426  32.581   1.669
56985W        W27585  12.331  28.931  11.102
56986W        W27586  27.017  20.946  14.934
56987W        W27587  28.564   5.147  13.421
56988W        W27588   6.955  29.889  12.502
56989W        W27589   5.298  13.898   2.645
56990W        W27590  23.152  23.723  11.123
56991W        W27591  14.776  30.510  10.699
56992W        W27592   1.221  21.591   0.353
56993W        W27593  41.007  25.533   0.555
56994W        W27594  26.161  33.536   2.186
56995W        W27595  39.378  19.342  14.516
56996W        W27596   5.114  14.234  10.814
56997W        W27597  15.583   9.987   2.345
56998W        W27598  12.345  19.579  13.765
56999W        W27599  11.554  41.246  11.102
57000W        W27600  35.020  13.059  11.295
57001W        W27601  43.726  27.509   0.701
57002W        W27602  33.425  26.160   0.896
57003W        W27603  39.425  15.145  13.920
57004W        W27604   9.322  17.578  11.513
57005W        W27605  19.391  32.612  13.026
57006W        W27606   8.774  37.623  13.911
57007W        W27607  39.267  33.672   0.057
57008W        W27608   2.178   3.446  10.598
57009W        W27609  34.128  20.219  14.455
57010W        W27610  22.007  31.086  11.017
57011W        W27611  37.884  16.327   3.531
57012W        W27612   3.256  31.071  13.847
57013W        W27613  32.869  11.895  14.362
57014W        W27614  15.484   9.383   2.755
57015W        W27615  17.384  29.058   4.343
57016W        W27616  19.316  38.347  14.645
57017W        W27617  38.032   0.521   1.362
57018W        W27618  16.011  24.023  12.569
57019W        W27619  29.509  33.050  11.358
57020W        W27620  28.974  22.490  13.123
57021W        W27621   3.827  41.972  10.750
57022W        W27622  33.999  14.538   2.668
57023W        W27623  19.596  38.262  10.997
57024W        W27624  24.084  30.229  10.619
57025W        W27625  40.670   0.352  14.762
57026W        W27626  35.173  10.199   4.127
57027W        W27627  44.899   7.247   4.416
57028W        W27628   6.753  23.726  11.652
57029W        W27629  21.147   9.916  12.476
57030W        W27630  39.295  35.729   2.631
57031W        W27631  36.919  17.257  13.084
57032W        W27632  23.557  26.419  10.953
57033W        W27633  15.807  28.612   0.269
57034W        W27634  21.673  40.575  14.396
57035W        W27635   4.167  36.845  12.447
57036W        W27636  40.814  30.920  14.800
57037W        W27637  19.750  21.671  13.556
57038W        W27638  44.516   3.146  12.539
57039W        W27639  36.703   1.043  10.651
57040W        W27640  26.397   4.709  12.305
57041W        W27641   4.374  43.812   0.721
57042W        W27642  38.866   4.350  10.241
57043W        W27643  16.542  25.140  13.828
57044W        W27644   0.486  43.953  12.319
57045W        W27645  28.529   8.913   1.716
57046W        W27646  20.387  30.589  10.265
57047W        W27647  26.243  42.756  11.562
57048W        W27648   3.735  36.440   4.282
57049W        W27649  36.495  35.376   0.755
57050W        W27650  35.952   8.563   3.787
57051W        W27651  27.695  29.307   1.403
57052W        W27652  30.617   1.396   3.711
57053W        W27653  41.292  40.474   5.073
57054W        W27654   5.362  23.554  12.874
57055W        W27655  28.079  14.013  12.944
57056W        W27656  29.441  19.109  10.731
57057W        W27657  43.144  19.584   1.744
57058W        W27658   4.228  11.799   2.652
57059W        W27659  15.524  27.228   2.402
57060W        W27660  14.539   5.373   1.223
57061W        W27661  25.686  18.208   0.704
57062W        W27662   0.857   1.188   1.995
57063W        W27663  44.421   6.730   1.319
57064W        W27664  35.130   5.376  13.089
57065W        W27665  21.068  19.345  14.339
57066W        W27666  37.846   2.959   4.697
57067W        W27667  36.616   6.386  11.740
57068W        W27668  26.227   3.385  11.564
57069W        W27669  25.087  32.497   0.007
57070W        W27670  19.939  14.874  11.483
57071W        W27671  30.168  39.468   0.472
57072W        W27672   3.209  36.856   1.885
57073W        W27673  39.019  20.488  12.552
57074W        W27674  23.011   8.717  11.356
57075W        W27675  36.655  25.217   0.708
57076W        W27676   4.691  15.134  13.134
57077W        W27677  25.099  20.535  11.682
57078W        W27678  36.563  37.147   2.834
57079W        W27679  23.306  41.033   1.675
57080W        W27680  14.788  21.587   3.878
57081W        W27681  23.095  30.681  11.123
57082W        W27682  23.144  28.693  12.623
57083W        W27683  17.342   3.275   2.747
57084W        W27684  43.235  33.487  12.131
57085W        W27685  24.112  21.320   2.338
57086W        W27686   0.128  25.098   4.641
57087W        W27687  44.310  14.276   2.167
57088W        W27688  40.419  23.973   0.934
57089W        W27689   8.254  12.569   2.673
57090W        W27690  38.769  26.210  13.337
57091W        W27691  24.945  26.575   4.682
57092W        W27692  17.430  27.200  12.102
57093W        W27693  41.404  33.471  14.217
57094W        W27694  42.614  24.341  11.214
57095W        W27695   1.298   8.235   4.894
57096W        W27696   1.415  16.068  10.560
57097W        W27697  12.045   3.883  14.086
57098W        W27698   4.802  14.466   3.358
57099W        W27699  10.247   3.273   0.278
57100W        W27700  27.819   6.344   1.496
57101W        W27701   5.528  26.647   1.690
57102W        W27702   6.287   6.916  10.812
57103W        W27703  10.047   0.478   5.008
57104W        W27704  16.647   9.098   4.551
57105W        W27705  40.170  21.990  13.009
57106W        W27706  30.361  35.608  12.003
57107W        W27707  15.024  11.236   5.768
57108W        W27708  20.619   4.740   4.667
57109W        W27709  43.367   6.777  14.038
57110W        W27710  27.677   5.788  10.754
57111W        W27711  44.637  38.010   0.336
57112W        W27712  37.536   8.929   3.843
57113W        W27713   8.955  22.669   4.186
57114W        W27714   9.363   1.279   0.084
57115W        W27715  24.635   7.371  10.653
57116W        W27716  36.540  41.437  13.919
57117W        W27717   1.271   8.778  13.456
57118W        W27718  25.129  40.611   1.720
57119W        W27719  35.044  11.855   2.226
57120W        W27720  10.630  12.320   2.028
57121W        W27721  43.566  38.825   3.664
57122W        W27722  32.309   8.570   2.818
57123W        W27723  43.840  38.705   0.961
57124W        W27724  15.904   7.623   0.362
57125W        W27725   7.726  13.561  12.007
57126W        W27726  30.500  18.703   3.565
57127W        W27727  35.757  41.107   2.301
57128W        W27728  33.013  11.822  10.625
57129W        W27729   8.123  23.854  11.575
57130W        W27730  31.433  27.587   0.952
57131W        W27731  16.237  16.354   1.223
57132W        W27732  20.762  16.204  12.549
57133W        W27733  42.841  20.508  11.533
57134W        W27734  28.602  17.712   0.641
57135W        W27735  27.092  12.885   4.317
57136W        W27736  27.643  12.540   3.721
57137W        W27737   4.130  12.680   0.354
57138W        W27738   5.852  13.104   1.491
57139W        W27739  27.710  13.778  10.382
57140W        W27740  14.664   1.879   0.338
57141W        W27741  21.639  31.474  11.074
57142W        W27742  33.328  43.981  14.000
57143W        W27743  33.669  23.509  14.019
57144W        W27744  38.091  19.716  10.706
57145W        W27745  41.791  10.297   2.953
57146W        W27746  36.836  41.726   4.604
57147W        W27747  24.288  42.195   1.228
57148W        W27748  20.273  16.328  12.525
57149W        W27749   2.194  43.547   2.874
57150W        W27750  15.011  27.026   4.780
57151W        W27751  21.643  19.184   2.418
57152W        W27752  42.074  22.197   1.051
57153W        W27753  13.982  33.704  12.441
57154W        W27754  37.242  13.664   3.612
57155W        W27755  17.034  31.854   3.172
57156W        W27756  21.563  11.453  10.897
57157W        W27757  39.540   8.045   1.994
57158W        W27758  36.944  12.144   1.923
57159W        W27759  38.583  18.117  11.437
57160W        W27760  31.416  15.325   2.150
57161W        W27761   5.960   8.198  14.150
57162W        W27762  44.351  22.431  12.884
57163W        W27763  27.630   8.056   4.558
57164W        W27764  12.364  21.153  14.422
57165W        W27765  19.174  22.981  12.386
57166W        W27766  33.351  19.843  11.233
57167W        W27767  19.862   5.345   4.877
57168W        W27768  30.624  19.217   2.353
57169W        W27769   9.781   9.282   0.438
57170W        W27770  23.051  21.203   2.426
57171W        W27771  36.928  30.392   0.702
57172W        W27772  29.543   6.784   4.627
57173W        W27773  14.252   5.431   4.751
57174W        W27774  15.400  30.037   3.880
57175W        W27775  26.435  32.453   5.082
57176W        W27776   9.230  38.557   4.949
57177W        W27777  17.659   5.405   2.345
57178W        W27778  23.481  18.544  13.684
57179W        W27779  32.158  17.010  11.138
57180W        W27780  17.266  26.076  13.037
57181W        W27781   5.715  34.843  13.077
57182W        W27782  43.353  11.672  12.663
57183W        W27783   8.368  25.805   3.051
57184W        W27784   5.816  23.780  12.988
57185W        W27785  39.396  13.089  13.039
57186W        W27786  26.922  25.172  14.938
57187W        W27787  33.186  40.123  12.108
57188W        W27788   1.408  33.354   0.878
57189W        W27789  15.530   2.179  12.865
57190W        W27790  19.655  34.435  13.289
57191W        W27791  34.491  21.491   0.873
57192W        W27792  22.952  25.790   2.751
57193W        W27793   0.444  29.956  13.361
57194W        W27794  14.360  31.643   4.875
57195W        W27795   8.925  36.548   3.684
57196W        W27796  24.685  28.614  11.554
57197W        W27797  23.085  26.800   2.980
57198W        W27798   5.093  14.649   0.469
57199W        W27799  36.138  24.173  10.693
57200W        W27800  27.696  30.912  12.436
57201W        W27801  13.586  16.852   3.322
57202W        W27802  27.922  44.799   3.605
57203W        W27803   3.072  21.448  11.110
57204W        W27804  17.573  24.613   4.093
57205W        W27805  29.118  16.194  14.372
57206W        W27806  42.815  11.845   4.609
57207W        W27807   5.850  16.213   2.427
57208W        W27808  34.280   3.918  13.728
57209W        W27809  10.708   4.028   3.581
57210W        W27810   6.672  30.045   3.196
57211W        W27811  28.142  24.700   2.652
57212W        W27812  17.376   9.307   3.406
57213W        W27813   1.436  23.542   1.411
57214W        W27814  31.438   6.662   3.954
57215W        W27815  19.191  12.715  11.367
57216W        W27816  29.151  17.354   2.233
57217W        W27817   0.339  39.392   0.049
57218W        W27818   3.409  35.559   3.726
57219W        W27819  33.478   1.844  10.679
57220W        W27820  19.282  17.233  12.489
57221W        W27821  21.387  23.660   4.981
57222W        W27822  31.632  40.251  13.070
57223W        W27823   7.405  12.809  12.977
57224W        W27824   6.744   9.192  14.445
57225W        W27825  40.888   7.489   2.822
57226W        W27826  11.221  34.601  10.589
57227W        W27827  11.191   3.167  10.846
57228W        W27828  16.753  22.663  12.753
57229W        W27829  12.727   4.601  13.340
57230W        W27830   7.468  15.020  13.490
57231W        W27831  38.169  21.138   3.923
57232W        W27832  35.895   2.998  11.629
57233W        W27833  17.614  41.088   4.669
57234W        W27834  43.071  14.379  14.442
57235W        W27835   6.982  28.606  13.795
57236W        W27836  11.677  28.233  11.154
57237W        W27837  26.464   6.773   0.296
57238W        W27838  32.590  37.050  11.637
57239W        W27839  34.949   8.400   0.818
57240W        W27840  33.597  10.758   4.664
57241W        W27841  26.445  40.834  13.304
57242W        W27842  15.166  25.103  13.369
57243W        W27843   6.139  24.082   4.693
57244W        W27844  13.832   4.324   1.005
57245W        W27845   1.253  25.707  13.793
57246W        W27846  18.077  28.893   0.428
57247W        W27847  30.507   7.672   3.394
57248W        W27848  10.363  21.123   0.378
57249W        W27849  17.997  34.948   1.441
57250W        W27850  33.590  22.047  10.131
57251W        W27851  21.092   8.624   0.846
57252W        W27852  27.180  24.968  12.060
57253W        W27853  21.388   4.130   0.537
57254W        W27854  40.793   1.895   3.060
57255W        W27855  27.064  12.133   2.403
57256W        W27856  24.670  41.685  13.718
57257W        W27857  44.902  33.542   4.524
57258W        W27858  31.217  33.195   3.346
57259W        W27859  24.945  23.015  14.893
57260W        W27860  13.188  23.146  12.193
57261W        W27861  43.515  12.989  12.512
57262W        W27862  21.302  19.705  11.550
57263W        W27863  20.697  27.162   2.866
57264W        W27864  13.274  23.141   4.663
57265W        W27865  42.283   0.928  13.775
57266W        W27866   1.069   9.140  13.769
57267W        W27867  36.328  41.450   0.872
57268W        W27868   9.629  22.972   1.777
57269W        W27869  40.597  33.505  12.563
57270W        W27870  27.567  15.349  10.948
57271W        W27871  25.594  12.063   1.093
57272W        W27872   5.838  28.558  14.749
57273W        W27873  11.535   1.539  13.591
57274W        W27874  33.612  15.590  12.011
57275W        W27875  25.884  24.184   3.268
57276W        W27876  23.143  26.572   4.624
57277W        W27877  37.037  20.520   0.032
57278W        W27878  14.411  44.537  11.162
57279W        W27879   9.896  24.144   3.548
57280W        W27880  42.024  20.015   3.447
57281W        W27881  38.903  43.032  14.791
57282W        W27882  40.569  22.037   2.756
57283W        W27883   7.153  34.031  14.380
57284W        W27884  39.651  25.055   3.783
57285W        W27885  12.112  23.795  10.628
57286W        W27886  26.119  24.760  14.496
57287W        W27887  12.750   0.473   3.828
57288W        W27888  41.846  11.128   3.599
57289W        W27889  17.185   7.211  14.313
57290W        W27890  22.120  26.596   3.167
57291W        W27891  14.519   9.597  14.756
57292W        W27892   1.268  24.695  11.368
57293W        W27893  15.806  22.956  10.757
57294W        W27894  34.162   2.929   1.770
57295W        W27895  24.902  23.685   1.402
57296W        W27896  44.014  12.882  13.412
57297W        W27897   1.970   8.461   3.741
57298W        W27898  32.034  37.069   2.388
57299W        W27899  13.713  42.483  14.431
57300W        W27900  14.438  20.362   4.141
57301W        W27901  17.641  16.897   4.796
57302W        W27902  22.157   2.140  14.345
57303W        W27903   7.652  15.321  12.623
57304W        W27904  25.081   5.400   2.612
57305W        W27905   5.266   0.465   4.560
57306W        W27906  31.333  24.463  10.869
57307W        W27907  43.851  19.067  11.746
57308W        W27908   1.389  19.761  11.666
57309W        W27909  12.663  18.832  12.507
57310W        W27910  37.465  16.620  12.190
57311W        W27911   1.986   0.714   3.750
57312W        W27912   8.294  22.495  13.871
57313W        W27913   5.162  18.274   5.004
57314W        W27914  43.439  16.313   1.903
57315W        W27915  22.013  23.235   4.359
57316W        W27916  18.572  15.239  11.049
57317W        W27917  22.142  10.116  10.145
57318W        W27918  23.605  22.532   4.711
57319W        W27919   0.946  11.007   1.388
57320W        W27920  31.696  12.499  11.505
57321W        W27921   8.218  33.871   4.194
57322W        W27922  42.228   1.309   3.620
57323W        W27923  34.524  23.263  13.080
57324W        W27924  18.086  29.915   9.413
57325W        W27925  40.031  15.520  13.339
57326W        W27926  39.402  18.658   3.155
57327W        W27927  29.544  15.534  11.574
57328W        W27928  37.750   5.754  13.959
57329W        W27929   3.325  30.583  12.553
57330W        W27930   4.086   1.719   3.300
57331W        W27931  21.025  23.210  10.619
57332W        W27932  36.061  31.436   4.245
57333W        W27933  20.209   2.264  11.940
57334W        W27934   5.650  32.555  12.906
57335W        W27935  12.166  41.356  12.445
57336W        W27936  13.515  25.013  10.267
57337W        W27937   5.760  36.919  12.353
57338W        W27938  17.773  36.879  13.974
57339W        W27939   4.539   4.751  10.422
57340W        W27940  28.678  34.035  14.440
57341W        W27941  37.952  27.705  10.640
57342W        W27942   6.284  10.512   0.544
57343W        W27943  21.669  41.863  12.080
57344W        W27944  44.950  38.422  10.768
57345W        W27945  33.904  10.220   0.721
57346W        W27946  44.913   6.802  10.671
57347W        W27947   2.389  18.264  14.436
57348W        W27948  19.728  33.816   1.609
57349W        W27949  34.492  30.651   3.882
57350W        W27950   1.542  35.785  11.171
57351W        W27951  34.905  29.495   2.841
57352W        W27952  11.329   4.585   1.417
57353W        W27953  16.161  42.402  11.686
57354W        W27954  44.192   4.859   2.337
57355W        W27955  41.739  42.893   5.065
57356W        W27956   6.295  35.627  14.433
57357W        W27957  36.356  25.614  13.999
57358W        W27958  25.778  18.306   3.946
57359W        W27959   0.515   3.871  12.392
57360W        W27960  33.630   4.143   0.360
57361W        W27961  24.755   0.997   0.322
57362W        W27962   6.578   7.918   3.346
57363W        W27963   9.259  37.853  13.981
57364W        W27964  39.032  36.909   0.191
57365W        W27965  34.819   9.294   1.798
57366W        W27966  43.397  28.877  10.984
57367W        W27967  20.825  36.433  13.515
57368W        W27968  17.056  22.190   2.937
57369W        W27969  12.740  17.793  11.589
57370W        W27970   4.942  35.911  12.104
57371W        W27971  30.095  13.742   2.266
57372W        W27972  13.865  15.996  14.516
57373W        W27973   8.792  44.078   1.347
57374W        W27974  42.824   4.727  14.923
57375W        W27975  18.668   6.942  10.479
57376W        W27976   5.712  40.554   4.743
57377W        W27977   0.172  22.571   3.563
57378W        W27978  31.394  38.540   1.888
57379W        W27979  42.374   1.709  12.881
57380W        W27980   7.205   2.380   0.200
57381W        W27981  19.354   9.264  13.472
57382W        W27982  22.000   9.061  11.201
57383W        W27983  34.690   3.755  12.427
57384W        W27984  34.093  23.527   3.263
57385W        W27985  41.339  10.819  11.505
57386W        W27986  24.605  29.213   2.615
57387W        W27987  26.964   9.182   2.284
57388W        W27988  16.774   4.182  13.932
57389W        W27989  18.074  35.790  14.678
57390W        W27990   3.221  44.336  13.815
57391W        W27991   4.229  33.003  11.601
57392W        W27992  30.600   2.454  10.694
57393W        W27993  27.613  44.232   0.921
57394W        W27994   6.455   4.600   1.378
57395W        W27995  31.037  16.823   1.266
57396W        W27996  28.486   4.346  11.322
57397W        W27997  27.665  25.212   3.207
57398W        W27998  25.738  15.324  13.926
57399W        W27999  38.883   9.480   2.672
57400W        W28000  22.980  15.389  10.712
57401W        W28001  17.089  29.969  14.928
57402W        W28002  24.540  24.721  10.574
57403W        W28003   4.922  25.489  14.420
57404W        W28004  30.621  30.390  10.362
57405W        W28005  41.434  34.472   0.337
57406W        W28006  12.776   4.165   0.806
57407W        W28007  32.673  26.024  14.251
57408W        W28008  34.640  41.845  13.294
57409W        W28009  40.275  17.022   1.971
57410W        W28010   1.950   8.921   2.330
57411W        W28011  25.957  26.019  12.105
57412W        W28012  25.755  22.781  12.572
57413W        W28013   6.313  38.545   3.296
57414W        W28014  11.038  35.901  12.153
57415W        W28015  41.413   9.387   0.387
57416W        W28016  36.145  26.620  13.377
57417W        W28017  35.370  40.282  14.329
57418W        W28018   2.557  38.996  13.381
57419W        W28019  16.349  34.971  12.113
57420W        W28020  26.225  21.202   0.765
57421W        W28021  22.471   0.977   2.808
57422W        W28022   1.486  24.417  11.735
57423W        W28023   4.000  15.159  13.411
57424W        W28024  31.336  18.701  11.241
57425W        W28025  38.772  39.345  13.823
57426W        W28026   3.945   2.211  12.073
57427W        W28027  15.697  18.162   2.438
57428W        W28028  38.003  28.654  11.957
57429W        W28029  40.038   9.675  14.339
57430W        W28030  44.032   5.714   1.841
57431W        W28031  15.601  32.888  10.228
57432W        W28032  41.636  13.195  13.493
57433W        W28033  35.674   9.161  10.444
57434W        W28034  23.768   5.335  14.677
57435W        W28035  30.205  11.806   0.332
57436W        W28036  34.452  13.583   3.783
57437W        W28037  20.159  26.394  12.375
57438W        W28038  16.313  30.610  10.545
57439W        W28039   0.494  20.545  11.004
57440W        W28040  34.079  23.813  14.073
57441W        W28041  11.093  11.724  10.930
57442W        W28042  41.162  15.962   4.928
57443W        W28043  25.483  31.382  14.751
57444W        W28044  22.350  11.566   3.158
57445W        W28045  22.059  37.421  10.855
57446W        W28046  35.102   0.282   0.700
57447W        W28047  31.700  17.525  12.939
57448W        W28048  37.533  14.798  12.978
57449W        W28049  15.663   4.499  13.861
57450W        W28050  34.348  12.153   1.418
57451W        W28051   3.999  26.165   4.152
57452W        W28052  33.864  19.943  11.298
57453W        W28053  15.511   0.780   4.998
57454W        W28054   0.474   1.956   3.108
57455W        W28055   5.737  29.449   0.938
57456W        W28056  18.614   1.239   1.264
57457W        W28057  13.567   0.315  12.089
57458W        W28058  35.392  39.949   0.734
57459W        W28059   7.912   9.769  14.422
57460W        W28060  21.110   4.402   0.893
57461W        W28061   2.559  40.998  14.783
57462W        W28062   0.157  35.592  11.053
57463W        W28063  22.660  24.362   1.855
57464W        W28064  37.436  33.136   2.687
57465W        W28065  41.392   0.220  12.905
57466W        W28066  22.743  42.784   2.825
57467W        W28067  40.405  38.866   2.369
57468W        W28068  17.994  32.048   2.770
57469W        W28069  15.068  38.894   4.677
57470W        W28070   5.917  24.692  10.801
57471W        W28071   1.493   1.801   3.294
57472W        W28072   1.334  16.752   4.468
57473W        W28073   7.258  41.024   1.006
57474W        W28074  21.680  36.088   4.220
57475W        W28075  38.871  33.794   1.711
57476W        W28076  42.977  43.506  12.571
57477W        W28077   5.333  19.391   1.873
57478W        W28078  18.283   6.224   1.890
57479W        W28079  23.991  33.895  11.599
57480W        W28080  29.514   8.430  14.022
57481W        W28081  13.379   8.776   3.772
57482W        W28082  41.426  27.890   2.702
57483W        W28083  44.910  14.549   2.381
57484W        W28084  33.676  13.311   1.968
57485W        W28085  39.948  35.233  14.021
57486W        W28086  24.836  14.634  12.366
57487W        W28087   1.991  20.673  10.503
57488W        W28088  18.584   8.766  10.490
57489W        W28089  19.456  12.230  12.044
57490W        W28090   5.358  18.238  12.756
57491W        W28091  40.825  44.514  10.746
57492W        W28092   7.630  20.696  11.027
57493W        W28093  31.080  38.276   5.622
57494W        W28094  33.879  17.143  11.649
57495W        W28095  19.222   0.487   3.990
57496W        W28096  18.291   5.117   0.946
57497W        W28097  34.495  28.080   1.744
57498W        W28098  31.464  13.453   3.968
57499W        W28099  22.563  13.853  13.440
57500W        W28100  17.870  27.572  12.538
57501W        W28101  39.585   1.624   5.066
57502W        W28102  29.412   4.162   1.316
57503W        W28103  32.927  37.348  12.894
57504W        W28104  17.284  42.997   2.313
57505W        W28105  26.023  12.774   0.142
57506W        W28106  39.782  27.160   0.318
57507W        W28107  36.868  41.201  11.550
57508W        W28108  11.708  23.201   2.715
57509W        W28109  15.983  37.393  13.274
57510W        W28110  28.892  23.243   2.587
57511W        W28111  39.557  18.806  12.005
57512W        W28112  37.381   4.196  12.860
57513W        W28113  24.312  36.876  12.096
57514W        W28114  44.366  15.830   0.022
57515W        W28115   9.391  20.477  13.923
57516W        W28116  32.088  20.611  13.373
57517W        W28117  39.522  33.676  13.303
57518W        W28118   8.297  38.478   2.457
57519W        W28119  35.579  23.134  14.415
57520W        W28120   7.702   6.951  10.908
57521W        W28121  37.853   8.426   0.325
57522W        W28122   4.852  17.798   0.309
57523W        W28123   0.540  12.580   0.246
57524W        W28124  41.594   6.841   3.730
57525W        W28125   6.872  36.597   3.646
57526W        W28126   8.592  39.749   4.567
57527W        W28127  17.600  20.701   3.975
57528W        W28128   7.200  27.451   0.748
57529W        W28129   6.307   5.377   1.793
57530W        W28130  41.287  20.482   1.847
57531W        W28131  37.642  36.078  11.513
57532W        W28132  39.873  13.969  13.113
57533W        W28133  10.579  16.780   0.835
57534W        W28134  22.714  15.969   4.141
57535W        W28135  20.466  14.569  10.363
57536W        W28136  30.443  23.196   1.213
57537W        W28137  42.467  33.615  13.790
57538W        W28138  42.588  17.221   3.541
57539W        W28139   0.125   7.873  11.555
57540W        W28140  21.209  20.990  14.784
57541W        W28141   9.559  15.926  13.518
57542W        W28142   1.779  29.509   4.396
57543W        W28143   9.178  25.605   4.780
57544W        W28144   8.976  24.499   1.268
57545W        W28145  36.973   8.341   0.790
57546W        W28146  14.200   9.372   4.171
57547W        W28147  39.453   4.884   1.211
57548W        W28148  29.604  39.915  12.498
57549W        W28149  32.377   1.331  13.022
57550W        W28150   1.656   4.259  14.943
57551W        W28151  32.102  26.674   2.199
57552W        W28152  41.213  10.182   4.625
57553W        W28153  19.544  16.825   4.159
57554W        W28154   5.149  29.285   3.455
57555W        W28155   0.887  21.698  10.680
57556W        W28156  12.174  41.820  10.607
57557W        W28157  28.087   4.913  11.975
57558W        W28158   9.242   7.262   0.889
57559W        W28159   5.892  23.175   0.712
57560W        W28160   4.418  32.517   0.404
57561W        W28161  38.631  16.757   4.466
57562W        W28162  28.520   1.271   4.523
57563W        W28163  28.552  44.018  14.766
57564W        W28164  26.975  38.991  13.390
57565W        W28165   4.937  32.486  11.153
57566W        W28166  34.867  36.826  14.511
57567W        W28167  14.152   1.482  10.582
57568W        W28168  21.821  27.741   3.631
57569W        W28169  19.298  38.865   4.041
57570W        W28170  22.124  24.429  10.879
57571W        W28171   2.224  30.666  11.639
57572W        W28172  43.485   1.013   3.628
57573W        W28173  13.262   2.922   3.657
57574W        W28174   9.083   1.052   2.417
57575W        W28175   0.401  36.383   2.865
57576W        W28176  40.380  10.868  13.985
57577W        W28177  27.760   8.606  12.590
57578W        W28178  20.329  36.346  13.513
57579W        W28179  27.465  10.072   4.210
57580W        W28180  18.596  20.011  12.146
57581W        W28181   0.238  27.838   0.325
57582W        W28182  35.894   1.867  11.210
57583W        W28183  44.322  16.053  14.208
57584W        W28184  23.939   3.334  11.071
57585W        W28185  16.616  10.226   1.392
57586W        W28186   5.934  34.841  12.129
57587W        W28187  35.763  14.337   0.480
57588W        W28188  39.904   2.445   3.220
57589W        W28189  11.021  34.111  10.514
57590W        W28190  39.957  38.323   3.172
57591W        W28191  18.539  31.000   2.938
57592W        W28192  20.247   6.319   3.665
57593W        W28193  11.877  18.499   1.801
57594W        W28194  33.349  15.127   2.165
57595W        W28195  21.106  25.236   0.894
57596W        W28196  36.003  32.839   4.059
57597W        W28197  30.944   7.458   3.677
57598W        W28198  19.635   3.803   2.727
57599W        W28199   8.315  40.554   0.401
57600W        W28200  25.030  25.894  12.931
57601W        W28201  33.570  23.073   3.679
57602W        W28202   8.882   3.446  11.372
57603W        W28203  38.458   4.153  14.267
57604W        W28204   0.119  37.044  12.581
57605W        W28205   7.089  42.464  11.597
57606W        W28206   0.803  33.954  13.313
57607W        W28207  25.110  21.241  10.726
57608W        W28208  16.109   5.587  11.725
57609W        W28209  15.703  34.021   1.423
57610W        W28210  16.422  15.330  12.063
57611W        W28211  39.734  39.578  12.377
57612W        W28212   0.575  43.290  10.517
57613W        W28213  38.605  20.315   0.362
57614W        W28214  17.046  41.215  10.937
57615W        W28215  39.886   5.598   2.653
57616W        W28216  17.581  29.053  14.246
57617W        W28217  44.542  33.891  10.719
57618W        W28218  11.816   9.427  13.971
57619W        W28219  26.432   9.297  14.467
57620W        W28220  19.214  16.516  11.068
57621W        W28221  31.200   5.888   1.551
57622W        W28222  17.795  44.942  11.563
57623W        W28223  30.826   0.441   3.501
57624W        W28224   6.365  24.467  13.946
57625W        W28225  33.090  10.351  13.507
57626W        W28226  41.141  37.813   4.980
57627W        W28227   3.107  36.164  12.939
57628W        W28228  35.530  29.079   0.568
57629W        W28229   5.827  18.755  12.159
57630W        W28230  40.033  10.555  11.896
57631W        W28231  44.105  10.856  11.237
57632W        W28232  24.754   5.289  13.608
57633W        W28233  12.355  44.172  13.009
57634W        W28234  37.322   0.557   4.529
57635W        W28235  26.727   5.153  10.762
57636W        W28236  43.387  24.087  14.697
57637W        W28237   4.094  13.185   3.566
57638W        W28238  35.973  23.964  13.635
57639W        W28239  32.169   2.731   4.250
57640W        W28240   4.307  32.035   1.241
57641W        W28241   7.120  32.956  11.197
57642W        W28242  16.739   7.696   2.397
57643W        W28243  30.675  41.252  13.927
57644W        W28244  21.046  31.599   3.356
57645W        W28245  15.065   0.889  11.067
57646W        W28246  15.673   6.321   0.389
57647W        W28247  40.121  27.067   0.900
57648W        W28248  11.823  13.764   1.901
57649W        W28249  29.128  44.844   3.505
57650W        W28250   4.880  41.346  14.750
57651W        W28251  33.495  33.691   3.611
57652W        W28252  33.096  20.783  14.936
57653W        W28253   5.272  23.040  12.960
57654W        W28254  24.500  43.082   2.915
57655W        W28255  20.559  31.327   4.286
57656W        W28256  38.421  28.903  10.503
57657W        W28257  44.223  34.745  10.664
57658W        W28258  40.996  13.588   5.047
57659W        W28259  15.572  41.820  13.737
57660W        W28260  13.901   5.352   2.472
57661W        W28261  36.273  14.055   4.938
57662W        W28262  35.501  31.144  12.402
57663W        W28263  32.913  19.017   1.875
57664W        W28264  36.738   0.224   0.960
57665W        W28265  25.602  26.901  11.158
57666W        W28266  41.932   1.827   4.168
57667W        W28267  35.130  14.832  12.906
57668W        W28268  42.520   2.027  11.552
57669W        W28269  44.214  37.906  11.433
57670W        W28270   8.818  12.441   4.229
57671W        W28271  33.131  36.389  12.376
57672W        W28272  31.736  16.864  12.386
57673W        W28273  11.718   8.435  12.460
57674W        W28274  19.162  20.248   1.880
57675W        W28275  42.487  39.916   1.345
57676W        W28276  18.234   5.891  11.609
57677W        W28277  25.991  26.170   2.274
57678W        W28278   5.722   0.541  10.701
57679W        W28279  29.215  33.853  11.714
57680W        W28280  34.288  21.782  12.567
57681W        W28281  38.481  13.531   2.410
57682W        W28282  12.986  14.903  11.561
57683W        W28283  14.689   3.743  14.366
57684W        W28284  36.888  30.456  10.655
57685W        W28285   0.861  24.462  13.955
57686W        W28286   5.710  40.844  12.102
57687W        W28287  43.543  41.834   2.372
57688W        W28288  16.634  22.122   2.608
57689W        W28289  21.446  13.737  13.031
57690W        W28290  17.238   9.939  10.674
57691W        W28291  41.550  11.741   0.878
57692W        W28292  29.849  34.070  13.120
57693W        W28293  24.240  32.505  14.194
57694W        W28294   0.480  32.830  14.541
57695W        W28295   9.777   0.957   0.296
57696W        W28296   8.339  13.790   4.190
57697W        W28297  38.113  38.062   3.852
57698W        W28298  44.806  41.835  13.962
57699W        W28299   4.839  33.412  12.519
57700W        W28300  24.940   7.441  14.010
57701W        W28301  26.392  12.884  14.748
57702W        W28302  16.310  28.297   4.138
57703W        W28303   4.706  31.602   4.582
57704W        W28304  38.914  14.828  12.446
57705W        W28305  31.540  41.139   1.268
57706W        W28306  44.426  37.172   1.774
57707W        W28307  37.261   2.455   1.376
57708W        W28308  17.367  25.684  12.007
57709W        W28309   0.905  23.605   2.230
57710W        W28310  18.116  13.619  13.347
57711W        W28311  42.002  23.920   4.120
57712W        W28312  20.213  19.544  12.077
57713W        W28313   7.584  25.778  13.975
57714W        W28314  21.035  22.798  12.979
57715W        W28315  27.675   3.364  14.198
57716W        W28316  29.556  20.278  11.004
57717W        W28317  16.149  17.691  10.597
57718W        W28318   4.878   4.302   1.365
57719W        W28319   1.922  36.902   3.223
57720W        W28320  23.166  29.927  14.903
57721W        W28321  26.255  30.854   3.183
57722W        W28322  32.236   0.238  12.263
57723W        W28323   8.628  13.124  10.660
57724W        W28324   5.939  19.094   1.108
57725W        W28325  28.904  26.968   9.997
57726W        W28326  39.505  35.937  10.625
57727W        W28327  34.858  13.612  13.028
57728W        W28328  21.143   4.889  14.533
57729W        W28329  41.395  29.631   2.935
57730W        W28330  42.929  40.304   3.985
57731W        W28331   9.857   0.727   0.771
57732W        W28332  22.253   0.362  14.025
57733W        W28333  20.850   2.267   2.216
57734W        W28334  15.046   0.693  10.034
57735W        W28335  43.323  16.004   1.311
57736W        W28336  37.017   9.905   2.866
57737W        W28337  20.051  35.026   2.166
57738W        W28338  18.725  33.803  12.343
57739W        W28339  32.397   8.773   0.417
57740W        W28340   6.274  26.993  12.174
57741W        W28341  39.853   7.289  12.517
57742W        W28342   0.238  37.953  12.592
57743W        W28343  11.115  44.214  14.850
57744W        W28344  34.623  23.764  11.571
57745W        W28345   9.711   0.879  12.084
57746W        W28346  38.908   7.413  10.746
57747W        W28347  39.543  32.479   1.301
57748W        W28348  36.231  31.835   0.405
57749W        W28349  37.953  18.558  13.394
57750W        W28350   7.800   9.946   0.847
57751W        W28351  38.584  13.692  11.708
57752W        W28352  11.921  37.065   0.941
57753W        W28353  37.973   0.123   0.578
57754W        W28354  27.572  21.697  11.706
57755W        W28355   8.928  21.124   1.836
57756W        W28356   4.399   8.665   1.998
57757W        W28357  17.653  39.668  12.865
57758W        W28358   2.900   0.997  12.580
57759W        W28359  25.846   3.329   0.383
57760W        W28360   4.171  23.207   2.909
57761W        W28361  19.071  37.276   2.671
57762W        W28362  35.569   1.062  11.194
57763W        W28363  30.506  10.806  10.476
57764W        W28364  42.182  34.170  11.077
57765W        W28365  15.853  20.442  13.973
57766W        W28366   9.237  15.569  10.314
57767W        W28367   2.418  42.913   1.630
57768W        W28368  24.422  36.309  11.136
57769W        W28369   6.518  20.599  10.330
57770W        W28370  31.402  44.257  12.003
57771W        W28371   9.905  39.840   2.872
57772W        W28372  39.984  28.080   4.137
57773W        W28373   2.726  32.061   3.086
57774W        W28374   3.879  12.820  12.202
57775W        W28375   0.273  40.925  12.951
57776W        W28376  39.575  31.043   1.489
57777W        W28377   0.721  28.342  14.650
57778W        W28378  34.868   9.817  12.598
57779W        W28379  31.674  15.571   3.313
57780W        W28380  39.913  35.066   4.638
57781W        W28381  41.485   9.899   0.431
57782W        W28382  35.844  19.212   0.667
57783W        W28383   2.298  20.232   1.946
57784W        W28384  22.314   4.342   1.332
57785W        W28385  40.520  26.711   0.648
57786W        W28386  27.160  11.579  14.390
57787W        W28387   6.306   1.837   2.170
57788W        W28388  15.732  30.387   1.354
57789W        W28389  27.739  14.330  11.715
57790W        W28390  28.932  12.729   1.305
57791W        W28391   4.693  29.651  11.974
57792W        W28392  11.610  30.898   2.940
57793W        W28393   9.644   4.992  10.912
57794W        W28394   4.793  28.236  11.936
57795W        W28395  32.037  27.195   0.432
57796W        W28396  36.865   7.316   4.082
57797W        W28397   4.354   9.198   4.205
57798W        W28398  37.331  41.588   2.345
57799W        W28399  20.867  39.550   1.782
57800W        W28400   8.750  23.384  10.738
57801W        W28401  24.642   2.844   3.919
57802W        W28402  14.911   6.391  12.905
57803W        W28403  15.209  37.998   2.165
57804W        W28404  29.476  38.971   3.833
57805W        W28405  37.331   5.329   3.713
57806W        W28406  10.497  44.676  11.560
57807W        W28407  37.171  12.862   1.193
57808W        W28408  27.485   1.814  11.885
57809W        W28409  38.935  37.335  11.501
57810W        W28410  13.314  13.504   5.250
57811W        W28411  19.993   7.740  13.357
57812W        W28412   5.061  12.622  13.690
57813W        W28413  40.139  23.946   0.088
57814W        W28414  38.298  30.629   1.854
57815W        W28415  41.414  22.592   3.143
57816W        W28416  34.782  12.710   5.106
57817W        W28417  20.794  26.917   0.855
57818W        W28418  25.732  27.629   4.191
57819W        W28419  41.299   4.119   1.801
57820W        W28420  37.436  24.946  14.304
57821W        W28421  40.051  18.895  11.738
57822W        W28422  31.504  19.947   4.084
57823W        W28423   8.452  35.302   0.289
57824W        W28424  11.368  24.718  12.932
57825W        W28425  30.387  18.351   0.485
57826W        W28426  36.945  14.849   4.492
57827W        W28427  26.567  23.619  11.999
57828W        W28428   5.229  10.470  11.141
57829W        W28429   4.925  30.932   2.672
57830W        W28430  33.335  32.056  14.252
57831W        W28431   9.592  30.579  12.920
57832W        W28432  20.184  38.085  13.372
57833W        W28433   9.340  33.959  14.419
57834W        W28434  20.321  35.978   2.409
57835W        W28435  25.681   6.700  11.016
57836W        W28436   5.804  22.243  14.642
57837W        W28437  36.466  18.027  13.106
57838W        W28438  12.239  11.404   2.460
57839W        W28439   9.369  20.692  12.099
57840W        W28440   2.296   9.651  10.563
57841W        W28441  44.693  37.129  11.409
57842W        W28442  11.084  30.266  13.451
57843W        W28443  36.134  21.764   3.293
57844W        W28444   3.757  24.177   3.225
57845W        W28445  30.284  23.314   3.736
57846W        W28446  21.209  30.950  11.643
57847W        W28447  14.692  18.823   1.635
57848W        W28448  15.516  26.145  12.127
57849W        W28449   0.787  18.745  11.497
57850W        W28450  11.586   3.227   0.955
57851W        W28451  13.042  18.281  10.307
57852W        W28452  16.809   6.692   1.215
57853W        W28453  23.959  17.536   0.780
57854W        W28454  19.253   2.016  12.641
57855W        W28455  10.580   9.709   4.651
57856W        W28456  10.710   0.943   0.766
57857W        W28457  23.067  16.268   1.065
57858W        W28458  41.436  30.492   2.357
57859W        W28459  35.453  44.760  13.389
57860W        W28460  42.189  30.902   0.625
57861W        W28461  32.403  20.060   4.985
57862W        W28462   8.299  21.523   4.639
57863W        W28463  21.206  43.785  11.568
57864W        W28464  39.088  24.056   3.229
57865W        W28465  40.065  40.479   4.024
57866W        W28466  31.566  32.398  11.889
57867W        W28467  14.749  31.356  11.634
57868W        W28468  38.898   7.542  13.381
57869W        W28469   4.502  36.253  11.195
57870W        W28470  41.886  13.107  14.581
57871W        W28471   6.035   3.777  13.111
57872W        W28472  11.554   6.817   4.202
57873W        W28473  19.932  44.329  14.434
57874W        W28474  25.405  44.836  12.425
57875W        W28475   9.846  15.405  11.132
57876W        W28476  24.454  41.421   4.145
57877W        W28477  23.693  18.555   4.644
57878W        W28478  22.753  32.548   1.247
57879W        W28479   9.454  19.483   0.716
57880W        W28480  16.995  19.604  13.907
57881W        W28481  28.430  40.268   1.390
57882W        W28482  16.200  16.776   1.614
57883W        W28483  38.946  28.162   2.035
57884W        W28484  36.406  22.998  11.076
57885W        W28485  23.864  17.249   4.316
57886W        W28486  17.988  39.943   2.829
57887W        W28487  17.756  40.762  12.546
57888W        W28488  15.735   4.224  12.028
57889W        W28489  15.961  20.235  11.977
57890W        W28490  33.851  29.014  11.774
57891W        W28491  26.942  14.138  14.576
57892W        W28492  28.160  38.880   1.188
57893W        W28493   9.856  20.020  11.202
57894W        W28494  19.106  37.085  11.688
57895W        W28495  31.365  19.624  14.025
57896W        W28496   7.000  13.464  10.988
57897W        W28497   8.469  26.762  13.793
57898W        W28498  32.765  43.403   0.387
57899W        W28499  12.415  16.520  13.148
57900W        W28500  31.155  38.465   2.364
57901W        W28501  31.949   5.190  13.275
57902W        W28502   4.747   1.309   1.013
57903W        W28503  16.151  44.379   3.683
57904W        W28504  44.831  42.906   2.705
57905W        W28505  26.942  42.341  13.887
57906W        W28506  21.594   1.263   0.631
57907W        W28507   6.334  43.979   3.646
57908W        W28508  23.061   6.390  11.668
57909W        W28509  10.130  25.949   5.084
57910W        W28510  18.268  19.315   2.401
57911W        W28511  30.564  30.970  12.585
57912W        W28512  34.473   3.613  11.949
57913W        W28513   8.895  28.159  14.000
57914W        W28514  21.889  30.447   3.142
57915W        W28515  25.402   3.787  11.443
57916W        W28516  33.067  22.558   3.228
57917W        W28517   2.225  21.501   3.345
57918W        W28518  24.258  19.060  11.878
57919W        W28519  30.570  11.221   3.646
57920W        W28520  27.181  38.026  13.021
57921W        W28521  34.085   8.306   2.361
57922W        W28522  13.702  19.321  14.545
57923W        W28523  19.663  37.802  14.209
57924W        W28524  20.706  24.572   4.667
57925W        W28525   8.745  30.127  10.689
57926W        W28526   5.929  22.609   3.776
57927W        W28527  34.505  26.501  14.373
57928W        W28528  30.846   6.224   0.393
57929W        W28529  30.159   9.974  13.509
57930W        W28530  21.657  32.639   4.533
57931W        W28531  37.411  43.784  14.792
57932W        W28532  18.538  22.521   2.313
57933W        W28533  16.102  36.477   4.084
57934W        W28534   4.367  40.799  11.925
57935W        W28535  40.860  20.337  13.421
57936W        W28536  33.011   8.800  14.574
57937W        W28537  40.526   4.943  11.657
57938W        W28538  16.767  31.902  11.149
57939W        W28539   1.193   6.893  13.405
57940W        W28540  12.272  44.540  14.016
57941W        W28541  36.204  41.738  12.021
57942W        W28542  35.969  39.616   4.216
57943W        W28543  36.046  28.594  12.082
57944W        W28544  21.526  33.134  13.962
57945W        W28545  20.584  24.606   4.160
57946W        W28546  16.563  27.590  14.263
57947W        W28547  22.684  10.910   0.966
57948W        W28548  41.483  11.417  14.985
57949W        W28549  11.274  23.986  11.516
57950W        W28550  18.021  12.836   0.939
57951W        W28551  41.896   1.855  13.615
57952W        W28552   0.854  34.368   3.201
57953W        W28553  34.343  16.722  13.354
57954W        W28554  15.659  43.267   0.723
57955W        W28555  25.190  11.118   4.492
57956W        W28556  34.474  23.054   2.676
57957W        W28557  37.476  16.168   3.803
57958W        W28558  19.204  29.475   5.087
57959W        W28559  39.327  37.966   4.501
57960W        W28560  40.990  42.951  13.437
57961W        W28561   2.569  18.921   0.766
57962W        W28562  14.456  44.976   3.740
57963W        W28563  32.296  43.584  13.192
57964W        W28564   6.498  19.773  12.996
57965W        W28565  24.348  29.618  12.242
57966W        W28566  16.954  40.049   4.933
57967W        W28567  19.230   6.840   1.434
57968W        W28568  30.481   5.643   1.757
57969W        W28569  11.749  40.000   1.951
57970W        W28570  44.989  29.859   2.397
57971W        W28571  18.709   9.290  13.775
57972W        W28572  44.010  31.675   1.810
57973W        W28573  32.328   4.498   0.053
57974W        W28574  12.482  43.651   5.062
57975W        W28575   3.782  12.687  14.088
57976W        W28576  26.658  36.348  14.731
57977W        W28577  14.849   5.872   4.258
57978W        W28578  29.457  38.440   2.576
57979W        W28579  21.581   9.312   2.642
57980W        W28580  40.945  43.522  13.300
57981W        W28581  23.550   9.737  13.066
57982W        W28582   7.199  28.928   3.218
57983W        W28583   1.335   4.804  13.623
57984W        W28584   2.238   1.489  12.609
57985W        W28585  33.418  17.746   1.252
57986W        W28586   9.735   9.995  12.635
57987W        W28587  27.912  11.529   2.403
57988W        W28588  44.581  39.353  12.062
57989W        W28589  28.640  13.888   3.318
57990W        W28590  12.644  39.932  10.589
57991W        W28591  31.702  29.406  14.404
57992W        W28592  16.582  42.887   3.156
57993W        W28593  34.023  24.824  11.171
57994W        W28594  27.733  31.633   2.647
57995W        W28595  13.340   0.025   2.270
57996W        W28596  20.341   4.876  12.185
57997W        W28597  36.163  44.274   4.110
57998W        W28598  22.291   1.418   2.204
57999W        W28599  34.934  29.548   1.919
58000W        W28600  41.035   9.753   0.666
58001W        W28601   5.818  21.694   2.031
58002W        W28602   8.460  17.644  11.664
58003W        W28603  37.045  33.871  11.543
58004W        W28604  23.680  31.452   1.573
58005W        W28605  11.586  12.144  12.948
58006W        W28606   6.781  13.304  11.446
58007W        W28607  11.100  14.858  11.567
58008W        W28608  38.395  23.570   4.142
58009W        W28609  11.694  18.242  14.391
58010W        W28610  20.191  28.644  13.236
58011W        W28611  43.380  36.906   0.917
58012W        W28612  39.181  12.251   0.393
58013W        W28613  23.002  20.042  12.024
58014W        W28614  15.739  39.889   1.528
58015W        W28615  10.623  31.394   1.161
58016W        W28616  21.040  24.066   4.708
58017W        W28617  25.897  12.409   0.873
58018W        W28618  23.739  23.101  10.934
58019W        W28619   1.577   9.264  11.497
58020W        W28620  34.303  21.547  10.666
58021W        W28621  39.412  13.744  12.211
58022W        W28622  32.474  10.811  10.633
58023W        W28623   7.135  12.748   1.496
58024W        W28624  14.751  34.288   1.862
58025W        W28625  22.591   2.591   1.720
58026W        W28626   6.376  16.997   1.321
58027W        W28627  34.674  31.028   2.820
58028W        W28628  24.939  16.732  12.022
58029W        W28629   2.343  26.448  13.417
58030W        W28630  25.273  15.666  13.015
58031W        W28631  15.192   2.511  11.636
58032W        W28632  34.741  23.305  13.560
58033W        W28633  12.247   0.416  12.541
58034W        W28634  22.153  24.425   3.617
58035W        W28635  19.248  16.771  14.654
58036W        W28636  27.993   6.792  11.530
58037W        W28637  42.290  34.854   3.139
58038W        W28638  42.594  43.710  13.974
58039W        W28639  38.571  41.415  11.198
58040W        W28640   7.251  14.247  10.949
58041W        W28641   3.258  16.080   0.206
58042W        W28642   3.692  29.532   1.764
58043W        W28643  34.584  15.535  12.875
58044W        W28644  43.064  31.122   2.680
58045W        W28645  26.568  40.830  12.502
58046W        W28646  17.443  18.130   3.190
58047W        W28647  15.798  37.915  14.921
58048W        W28648   5.811  11.653   4.584
58049W        W28649  28.395  18.544   0.753
58050W        W28650  38.104  15.702  10.739
58051W        W28651  23.091  40.833   0.659
58052W        W28652   6.365  44.663  12.275
58053W        W28653  34.606  11.390  13.486
58054W        W28654  16.240  41.173  10.648
58055W        W28655   6.000  36.009   2.391
58056W        W28656  43.305  25.957   0.442
58057W        W28657  37.453  39.249   0.297
58058W        W28658  43.538  14.357   4.214
58059W        W28659   6.444  30.691  11.583
58060W        W28660  42.857  42.222  13.538
58061W        W28661  32.150  42.247   3.547
58062W        W28662  42.711  44.474  14.440
58063W        W28663  14.708  32.947  10.668
58064W        W28664  16.064  37.013   2.274
58065W        W28665  15.736  16.079   3.200
58066W        W28666  43.504  22.012   1.333
58067W        W28667  27.433  24.027   4.103
58068W        W28668  28.367   7.564  13.728
58069W        W28669  17.779  27.606   3.945
58070W        W28670   6.890  41.058   3.692
58071W        W28671  40.037  16.975   5.005
58072W        W28672  35.954  37.405  14.483
58073W        W28673  31.138   7.749   2.182
58074W        W28674  25.906   5.094   4.299
58075W        W28675  31.778  44.038  11.565
58076W        W28676  30.086  25.927  12.154
58077W        W28677  43.360   9.731  13.104
58078W        W28678  10.288   9.831   5.042
58079W        W28679  31.486  16.050   1.169
58080W        W28680  38.854  30.356  11.946
58081W        W28681   8.261  22.420  11.565
58082W        W28682  11.815  15.355  10.748
58083W        W28683  26.732   6.687  11.089
58084W        W28684  30.966   8.855   3.610
58085W        W28685   6.376  23.690   0.520
58086W        W28686  33.505  18.444   2.012
58087W        W28687  18.579   3.435   1.913
58088W        W28688  32.088  26.101   1.332
58089W        W28689  36.971   3.695  14.340
58090W        W28690  16.818   7.948  14.998
58091W        W28691  33.696  16.668   1.516
58092W        W28692  44.851   4.819   0.334
58093W        W28693  10.206  20.050   2.783
58094W        W28694  32.907   7.298   2.032
58095W        W28695   4.465  15.452  12.373
58096W        W28696  24.194  43.434   0.912
58097W        W28697  35.472  10.637  13.027
58098W        W28698  41.519   8.779   1.572
58099W        W28699  12.069  37.989  12.934
58100W        W28700  13.023  33.484  10.681
58101W        W28701   9.265  14.336  11.903
58102W        W28702   1.318  43.798   4.581
58103W        W28703  26.228  32.845   3.565
58104W        W28704  29.344  16.728  12.094
58105W        W28705   4.924  40.067   1.994
58106W        W28706  34.368  35.452  13.949
58107W        W28707  43.403  15.421  12.023
58108W        W28708  13.774  21.325   0.050
58109W        W28709  21.738  40.532  11.614
58110W        W28710  18.046   3.826  11.564
58111W        W28711   3.673  43.067   4.260
58112W        W28712  25.269  40.390  11.744
58113W        W28713   5.410  29.927   4.603
58114W        W28714   6.688  39.344  14.871
58115W        W28715  36.012  18.325  12.590
58116W        W28716  16.299   2.725  14.316
58117W        W28717   2.379  23.944   0.015
58118W        W28718   7.540  30.762  12.359
58119W        W28719  42.796  44.296  12.108
58120W        W28720  36.913  21.410   1.473
58121W        W28721  23.747  38.437   1.853
58122W        W28722   8.645  44.277   5.039
58123W        W28723   0.922  12.274   0.393
58124W        W28724   8.026  32.098   1.224
58125W        W28725  26.360  37.513   4.547
58126W        W28726  39.549  13.301   3.582
58127W        W28727  31.558  19.811  14.475
58128W        W28728  32.585  30.680   0.432
58129W        W28729  42.354   9.322  14.994
58130W        W28730  37.825  36.094   3.172
58131W        W28731   8.730  32.388   0.795
58132W        W28732  39.845  11.639   4.877
58133W        W28733   0.267   0.811   0.360
58134W        W28734  17.195   9.325  14.454
58135W        W28735  31.493  24.626   3.759
58136W        W28736  19.862   9.084  13.454
58137W        W28737   1.239  32.920  11.194
58138W        W28738  14.331   1.324   4.112
58139W        W28739   3.960  16.699   4.064
58140W        W28740  41.870  39.201  10.177
58141W        W28741  30.843   2.470   0.151
58142W        W28742  31.983  32.495   5.374
58143W        W28743  14.116  43.554   1.774
58144W        W28744   8.654  24.216   3.345
58145W        W28745  36.526  17.024  11.365
58146W        W28746  44.532   5.788  12.433
58147W        W28747  33.487  34.727   2.187
58148W        W28748  36.900  18.236   2.639
58149W        W28749  21.671   6.966   1.148
58150W        W28750  34.885  37.576  12.963
58151W        W28751  27.434  43.184   1.842
58152W        W28752  27.005  19.282   3.159
58153W        W28753  32.410  36.464   3.937
58154W        W28754  18.174   5.314   1.438
58155W        W28755  17.701  37.463   4.743
58156W        W28756  11.444  29.549  11.594
58157W        W28757  29.661   3.163  13.787
58158W        W28758  40.440  41.573   1.028
58159W        W28759  14.844  12.680  13.752
58160W        W28760  40.605   7.635  10.777
58161W        W28761   7.377  35.806  12.574
58162W        W28762   1.225  39.987  11.652
58163W        W28763  25.173  17.318  13.863
58164W        W28764  35.904  25.192   4.328
58165W        W28765  27.381   8.386   1.364
58166W        W28766  16.584  44.696   3.667
58167W        W28767  29.582   7.373  13.976
58168W        W28768  15.220  19.543   0.745
58169W        W28769  26.733  38.138  11.089
58170W        W28770  21.036  24.419   4.303
58171W        W28771  40.927  34.099  14.834
58172W        W28772   4.941  44.005  14.346
58173W        W28773  27.049  19.052   4.007
58174W        W28774  32.536  36.805  14.837
58175W        W28775  37.406   7.199  13.918
58176W        W28776   2.437  24.646  10.961
58177W        W28777  18.861  21.541   2.316
58178W        W28778  19.763   3.203   2.894
58179W        W28779   2.774  25.104  13.005
58180W        W28780  42.406   7.248  11.169
58181W        W28781  19.026  24.180  10.694
58182W        W28782   7.345  43.956   0.246
58183W        W28783   8.957  30.152   3.716
58184W        W28784  31.639  13.131  10.807
58185W        W28785  43.796   5.209   0.896
58186W        W28786   0.923  44.229   3.363
58187W        W28787  18.595  35.646  11.110
58188W        W28788  18.300  12.662  13.870
58189W        W28789  28.192  30.472   4.818
58190W        W28790  31.255  18.180  11.201
58191W        W28791  36.357  36.423   3.266
58192W        W28792  40.628  20.350   0.739
58193W        W28793  11.197  38.388  11.891
58194W        W28794  40.223  32.069   0.337
58195W        W28795  15.101  26.079  10.819
58196W        W28796  16.649  27.274  11.685
58197W        W28797  19.895   4.919  11.926
58198W        W28798  23.474  44.544   3.178
58199W        W28799   9.096   6.467  13.404
58200W        W28800  10.707  32.675   1.632
58201W        W28801  16.237  32.089   2.373
58202W        W28802  38.409  18.644  14.853
58203W        W28803  29.924   3.687   4.204
58204W        W28804   7.794  38.749   4.091
58205W        W28805  16.840  10.575  11.097
58206W        W28806   3.791  32.012  12.194
58207W        W28807  26.590  14.971   4.530
58208W        W28808   1.386  33.090  14.435
58209W        W28809  11.893  38.354   1.334
58210W        W28810  36.496  20.606   2.967
58211W        W28811  23.496  36.891  14.799
58212W        W28812  42.942  34.435   0.393
58213W        W28813   6.879  16.080   4.744
58214W        W28814  25.477   1.328  12.161
58215W        W28815  34.581  21.046  14.086
58216W        W28816   0.248  21.524  12.879
58217W        W28817   4.220  28.924   3.585
58218W        W28818  12.813   7.336  12.395
58219W        W28819  38.981  43.334  14.314
58220W        W28820  28.601  10.126   0.388
58221W        W28821  30.411  44.388  14.571
58222W        W28822  15.374   0.698  11.434
58223W        W28823  26.613  23.183   4.564
58224W        W28824  32.925  44.681  14.905
58225W        W28825  24.006  36.872  14.585
58226W        W28826  37.947  24.918   1.312
58227W        W28827  22.118  41.858  11.004
58228W        W28828  17.594  12.057  10.330
58229W        W28829  31.413  37.782   3.749
58230W        W28830  23.524  14.256   4.077
58231W        W28831  35.551  23.116  13.554
58232W        W28832  40.357   9.174   0.989
58233W        W28833  13.769  34.434  11.403
58234W        W28834  31.405  18.992   0.564
58235W        W28835  18.036  28.465   3.042
58236W        W28836  36.482  28.392   1.930
58237W        W28837   6.112  36.470  13.935
58238W        W28838  16.380  27.086   3.720
58239W        W28839  15.548   4.518   3.702
58240W        W28840  11.912  12.336  14.281
58241W        W28841   2.951  19.519   1.780
58242W        W28842  34.385   9.695   0.357
58243W        W28843  28.195  40.102  12.488
58244W        W28844  23.943  29.663  11.467
58245W        W28845  24.085  44.370   3.731
58246W        W28846  39.383   2.753  12.087
58247W        W28847  27.620  32.443  10.758
58248W        W28848  20.588   5.792   4.450
58249W        W28849  44.680  21.756  14.467
58250W        W28850  36.275  44.907  10.529
58251W        W28851  43.250  15.678   4.584
58252W        W28852  37.518  13.820  14.048
58253W        W28853  34.009  38.173   3.289
58254W        W28854   7.902  38.756   4.588
58255W        W28855  39.282  27.564  11.155
58256W        W28856  17.089  27.558  13.833
58257W        W28857  16.022   4.804  11.953
58258W        W28858  13.833  11.356   1.435
58259W        W28859  21.496   3.471   4.197
58260W        W28860  16.474   6.226   2.335
58261W        W28861  43.938  14.015   2.949
58262W        W28862   0.910  25.391   2.325
58263W        W28863   1.314  30.092   3.040
58264W        W28864  34.232  26.238   2.733
58265W        W28865  23.104  44.995  12.185
58266W        W28866  13.682  41.222   1.589
58267W        W28867   3.063  42.792  11.901
58268W        W28868   4.267  18.111   1.267
58269W        W28869  31.928  40.992   3.000
58270W        W28870  39.681  37.029  11.124
58271W        W28871  35.957  32.457  11.913
58272W        W28872  16.083   3.461  12.984
58273W        W28873  36.260   1.764   4.125
58274W        W28874  36.346  21.561   0.750
58275W        W28875  39.383  33.917  11.103
58276W        W28876  32.533   0.627   3.840
58277W        W28877  41.911  21.509   0.320
58278W        W28878  22.251  24.416   0.863
58279W        W28879  10.525  19.629  10.645
58280W        W28880  27.154  18.315  12.969
58281W        W28881   4.144  14.885   3.117
58282W        W28882  27.734  15.334   0.330
58283W        W28883  19.229  13.062   2.592
58284W        W28884  28.895  17.161   0.838
58285W        W28885  12.792  24.009   2.814
58286W        W28886   5.161  31.251  14.040
58287W        W28887  13.167  35.866  11.884
58288W        W28888   3.779  25.479  11.369
58289W        W28889  24.519  38.626   0.303
58290W        W28890   1.628  28.051  14.301
58291W        W28891   2.813  22.627  14.442
58292W        W28892  18.750  10.204  14.334
58293W        W28893  10.284  40.732   2.563
58294W        W28894  20.307  17.147  10.762
58295W        W28895  33.065  30.617  14.280
58296W        W28896  42.962  27.878   0.910
58297W        W28897  44.925  31.686  10.693
58298W        W28898  10.657  16.119   4.129
58299W        W28899  34.690  20.702  10.840
58300W        W28900   6.902  16.760   2.513
58301W        W28901  42.777   8.935   3.992
58302W        W28902  33.017  19.461   1.244
58303W        W28903  26.442  10.302  10.716
58304W        W28904  40.347   3.275   1.307
58305W        W28905  11.131   2.544  12.118
58306W        W28906  37.904  13.635   4.120
58307W        W28907  41.408  18.183  13.507
58308W        W28908  16.782  42.575  11.108
58309W        W28909   5.886   3.268   2.808
58310W        W28910   5.152  22.149  11.490
58311W        W28911  25.682  23.062  10.949
58312W        W28912  39.422  19.725  11.170
58313W        W28913  26.097   4.351  11.493
58314W        W28914  25.576  43.848   3.029
58315W        W28915  14.426  44.030  11.176
58316W        W28916  16.299  30.115  12.062
58317W        W28917  29.946  36.881  14.795
58318W        W28918   8.064  22.832  12.412
58319W        W28919   8.592  41.545   1.939
58320W        W28920   6.257  25.226   1.067
58321W        W28921  13.337   3.854   2.377
58322W        W28922  10.907  25.948   2.356
58323W        W28923  12.078  16.924  14.327
58324W        W28924  19.241   6.286  14.465
58325W        W28925  44.509  10.352   4.536
58326W        W28926  40.465   4.898  12.191
58327W        W28927  44.290  30.986   2.233
58328W        W28928  27.889   6.862   1.711
58329W        W28929  43.855  11.702   4.313
58330W        W28930  23.111  15.645  11.737
58331W        W28931  10.848  26.536  11.605
58332W        W28932  10.394  26.884   4.644
58333W        W28933  44.272   8.198   2.712
58334W        W28934  11.225  35.642  10.715
58335W        W28935   2.943   2.785   3.255
58336W        W28936   7.818  33.235  13.796
58337W        W28937  33.702  26.327   1.295
58338W        W28938  39.729  10.833  13.519
58339W        W28939  35.604   8.173  12.001
58340W        W28940  42.879  11.902   1.730
58341W        W28941  34.308  15.080   0.881
58342W        W28942  27.675   2.251   0.705
58343W        W28943  35.321   9.585   3.346
58344W        W28944  36.677  16.829   2.298
58345W        W28945  38.054   9.427   0.313
58346W        W28946  31.843  42.890  11.106
58347W        W28947  26.753  35.313   4.058
58348W        W28948  26.206  37.932  13.304
58349W        W28949  42.825  35.987  12.389
58350W        W28950  21.267   7.758   1.039
58351W        W28951  18.537  17.962   4.178
58352W        W28952   6.193  19.574  12.027
58353W        W28953  38.061  39.972  11.341
58354W        W28954  35.461  12.872   4.142
58355W        W28955   9.787  34.779   4.682
58356W        W28956   7.653   1.932   3.405
58357W        W28957  41.394   5.491  13.430
58358W        W28958  34.887   1.267   1.902
58359W        W28959  16.222   2.432   4.725
58360W        W28960   1.976  24.716  12.994
58361W        W28961  32.116  20.315  13.841
58362W        W28962  12.704  32.431   4.298
58363W        W28963  10.537  44.913   4.185
58364W        W28964  20.991   6.849   0.758
58365W        W28965  37.362  25.195   4.248
58366W        W28966  33.063  40.342   2.246
58367W        W28967  26.530   9.798   0.293
58368W        W28968   9.378   1.644   4.205
58369W        W28969  20.004   0.183   2.311
58370W        W28970   2.980  44.950   0.338
58371W        W28971  28.648  38.319   5.587
58372W        W28972  42.755  15.047  13.874
58373W        W28973  39.515   9.399  11.732
58374W        W28974  36.662   4.165   4.054
58375W        W28975   3.455  30.113   4.443
58376W        W28976  28.077   8.919   1.408
58377W        W28977   2.029  24.134  14.674
58378W        W28978  41.957  31.344   2.269
58379W        W28979  15.816   2.191  13.819
58380W        W28980  14.019  11.716   3.297
58381W        W28981  36.148  30.992  13.057
58382W        W28982  23.778   9.269   1.458
58383W        W28983  37.985  39.492   1.728
58384W        W28984  13.599   5.945  12.931
58385W        W28985  18.224  33.372  14.891
58386W        W28986   0.212  31.514  11.109
58387W        W28987   5.380  12.342   1.686
58388W        W28988   9.126  40.795  12.514
58389W        W28989   5.459  28.977   4.552
58390W        W28990  14.545  36.310  10.782
58391W        W28991   8.350  16.374   0.861
58392W        W28992  43.670  40.922   2.849
58393W        W28993  38.930  44.645  10.768
58394W        W28994   5.920  11.088   9.966
58395W        W28995   6.677  42.526   4.677
58396W        W28996  39.431   5.268  13.118
58397W        W28997  13.153  16.267   2.696
58398W        W28998  17.819  14.890   1.788
58399W        W28999  24.582  13.712  11.817
58400W        W29000  35.477  32.474   0.364
58401W        W29001  11.559  19.207   4.022
58402W        W29002  19.453  21.547  12.668
58403W        W29003  40.134   3.263   1.766
58404W        W29004  34.574  24.776   4.156
58405W        W29005  17.702   0.298   1.871
58406W        W29006  40.751  18.514  12.987
58407W        W29007  14.719  34.020  11.652
58408W        W29008  30.020  29.371   0.248
58409W        W29009  22.591  12.133  13.253
58410W        W29010  44.325  42.198   2.670
58411W        W29011  25.148   9.457  13.941
58412W        W29012  27.086  39.579   1.642
58413W        W29013  23.980  16.108   3.182
58414W        W29014  34.379   7.346  13.899
58415W        W29015  26.269  25.201   4.736
58416W        W29016   0.792  15.404   2.758
58417W        W29017  10.415  36.146   1.683
58418W        W29018   8.174  22.775   1.764
58419W        W29019  20.576  34.438  13.013
58420W        W29020  27.902  11.246   1.524
58421W        W29021   1.039  36.711  14.053
58422W        W29022  43.792  12.582  10.644
58423W        W29023   0.050  25.412   1.301
58424W        W29024  28.417  13.353  10.673
58425W        W29025  44.814   1.698  11.499
58426W        W29026  17.052  14.899  13.168
58427W        W29027   4.788  17.718  10.611
58428W        W29028  27.187   0.279  12.465
58429W        W29029  44.781  39.750   0.816
58430W        W29030  16.257  22.161   2.257
58431W        W29031  39.055   8.769  14.473
58432W        W29032  27.911   2.553   1.752
58433W        W29033  36.719   4.416   1.302
58434W        W29034   1.698  25.142   0.851
58435W        W29035  37.036  34.244  13.380
58436W        W29036  28.253  29.595   4.704
58437W        W29037  42.219  25.687  13.005
58438W        W29038  38.373   3.039   2.204
58439W        W29039  40.601  39.272   4.085
58440W        W29040  38.824  29.777   1.023
58441W        W29041  16.620  36.026   1.154
58442W        W29042  36.849  26.615   2.341
58443W        W29043  23.361  44.737  14.063
58444W        W29044  10.176  44.311  11.685
58445W        W29045  22.007   4.179  12.590
58446W        W29046  33.016  44.399  10.904
58447W        W29047  31.040   5.767   3.184
58448W        W29048  32.908  29.846   2.275
58449W        W29049  23.017  14.665  12.651
58450W        W29050  37.665  41.850  14.001
58451W        W29051  19.281   0.248  10.755
58452W        W29052  32.127  21.583  14.399
58453W        W29053   0.355  41.942   1.702
58454W        W29054   7.257  20.712   4.109
58455W        W29055  43.974  24.058  11.024
58456W        W29056  40.540  26.121   3.218
58457W        W29057  44.937  34.904   0.992
58458W        W29058  28.481  35.262  12.078
58459W        W29059   2.269  14.694   0.872
58460W        W29060  36.435   0.370   3.352
58461W        W29061  35.152  11.167   2.620
58462W        W29062  30.009  41.693  11.290
58463W        W29063   2.518   9.104  13.070
58464W        W29064  41.420  26.740  14.028
58465W        W29065  26.913   6.551   0.337
58466W        W29066   1.877  32.468  12.065
58467W        W29067  41.556  35.801   2.123
58468W        W29068  33.974  35.809  14.003
58469W        W29069  37.069  40.373   4.646
58470W        W29070  44.097   3.475  12.481
58471W        W29071  10.292  26.373   4.809
58472W        W29072   6.750  27.029  13.482
58473W        W29073  41.572  34.450  13.357
58474W        W29074  11.893  24.310  12.687
58475W        W29075  21.104  42.418   2.523
58476W        W29076  34.378   6.298  10.990
58477W        W29077  24.227  35.688   2.173
58478W        W29078  34.603   5.548   2.860
58479W        W29079  30.997  20.172   4.014
58480W        W29080  38.919  33.307   1.906
58481W        W29081  35.544  34.065   4.528
58482W        W29082  20.485   7.356  13.977
58483W        W29083   0.332  14.260   0.371
58484W        W29084   4.668   7.945   4.254
58485W        W29085   0.074   9.123   3.665
58486W        W29086  18.036   9.813  11.140
58487W        W29087   2.695  25.901   1.335
58488W        W29088  34.552  21.192   4.611
58489W        W29089  14.294  31.569  11.673
58490W        W29090  28.913  34.948   0.285
58491W        W29091  15.664  42.460   1.394
58492W        W29092  29.533  34.808  11.013
58493W        W29093  31.170  26.531  10.119
58494W        W29094  43.037  14.346  12.641
58495W        W29095  15.141  39.228  13.368
58496W        W29096  11.421  33.413  11.026
58497W        W29097  27.144  43.753  14.791
58498W        W29098  43.495  32.991  13.426
58499W        W29099   6.423  21.068  12.117
58500W        W29100  15.249  42.044   2.950
58501W        W29101  24.423  14.098   2.418
58502W        W29102  31.086  32.643   1.188
58503W        W29103  43.309  39.923  13.590
58504W        W29104  41.907  36.077   0.889
58505W        W29105  14.174  29.169   0.301
58506W        W29106  27.690  22.100  10.382
58507W        W29107   1.833  16.777  11.564
58508W        W29108   3.169   3.459  10.709
58509W        W29109  25.031  38.601   3.216
58510W        W29110  23.562  16.400   1.718
58511W        W29111  34.182   8.665  12.466
58512W        W29112   9.259  22.183   3.339
58513W        W29113  27.196  36.439   1.289
58514W        W29114  36.507  19.731   2.428
58515W        W29115  37.485  21.975   0.185
58516W        W29116  38.475  26.551   2.673
58517W        W29117  17.119  14.574  14.122
58518W        W29118  12.532  43.902  11.125
58519W        W29119  20.105  41.358   2.298
58520W        W29120   0.322  25.411   4.019
58521W        W29121   6.134  16.864  14.989
58522W        W29122   1.733  33.858  12.110
58523W        W29123  38.358  30.141   3.471
58524W        W29124  18.751  17.989   5.043
58525W        W29125  16.902  43.266  12.548
58526W        W29126   7.904  16.868   0.335
58527W        W29127  16.210   3.222  13.427
58528W        W29128  33.057   0.486   2.618
58529W        W29129  37.077  24.661   1.133
58530W        W29130   8.464   8.140  13.883
58531W        W29131  23.819   2.193  12.051
58532W        W29132   9.322   7.698   2.332
58533W        W29133   7.248  30.724   3.658
58534W        W29134  13.861   4.367   4.096
58535W        W29135  40.957  24.980   0.207
58536W        W29136  33.400  39.011   3.179
58537W        W29137  40.760  15.377   3.709
58538W        W29138  13.808  19.471  13.795
58539W        W29139  11.376  27.994  11.653
58540W        W29140  43.254  11.499   3.717
58541W        W29141  41.357   6.916  11.566
58542W        W29142   9.777  24.263  10.847
58543W        W29143   4.154  31.940  12.564
58544W        W29144  26.150  44.769   3.821
58545W        W29145  34.808   8.178  11.581
58546W        W29146  13.617  25.087   1.274
58547W        W29147   7.434   9.344   2.429
58548W        W29148  31.780  29.135  13.254
58549W        W29149  16.581  14.745   1.401
58550W        W29150  11.305  21.523  12.585
58551W        W29151  25.326  18.733   2.275
58552W        W29152  15.060  32.162  12.984
58553W        W29153  18.198  41.870  14.942
58554W        W29154  32.196  33.638   4.187
58555W        W29155  20.267  27.607  13.026
58556W        W29156   9.361  21.300   0.875
58557W        W29157  32.698  20.104   3.345
58558W        W29158   8.903  23.641  13.507
58559W        W29159  19.681  43.264  13.562
58560W        W29160   2.406  10.418  11.019
58561W        W29161   1.285  25.944  11.995
58562W        W29162  33.408  44.465   0.837
58563W        W29163  28.489  38.986   4.901
58564W        W29164  33.050  29.414  14.797
58565W        W29165   7.264  22.565  12.088
58566W        W29166  28.110   4.350   3.415
58567W        W29167  39.759  12.813   4.298
58568W        W29168  18.617  14.305   3.655
58569W        W29169  13.145  26.717   3.068
58570W        W29170  37.688  12.363  14.822
58571W        W29171  25.290   7.669   2.979
58572W        W29172  28.843  32.887  14.002
58573W        W29173  38.959  34.977  14.276
58574W        W29174  43.938  17.279  12.613
58575W        W29175  41.980   9.591  14.440
58576W        W29176  35.639  11.271  14.388
58577W        W29177  24.285  39.861   4.468
58578W        W29178  43.386  23.896  11.003
58579W        W29179  17.719  34.468  13.107
58580W        W29180  17.974  42.014   1.855
58581W        W29181   0.444  39.014  14.314
58582W        W29182  37.931  38.569   4.677
58583W        W29183  11.785  16.529  14.478
58584W        W29184  14.443  24.783  12.967
58585W        W29185  25.785  19.137  11.637
58586W        W29186  43.194  24.789   4.973
58587W        W29187  30.079  33.858   1.679
58588W        W29188  27.234  24.290   3.663
58589W        W29189  27.545  42.796   0.533
58590W        W29190  21.089  41.113   0.858
58591W        W29191  22.998   1.191  13.863
58592W        W29192  42.330   7.496  14.150
58593W        W29193  30.843  30.505   2.184
58594W        W29194  17.380  19.711  13.496
58595W        W29195  18.795  18.182   4.559
58596W        W29196   7.126  22.102  11.042
58597W        W29197  32.466  17.259  11.920
58598W        W29198   1.937   8.362   1.124
58599W        W29199   9.481  32.464   2.425
58600W        W29200  17.786   9.316  13.556
58601W        W29201  14.417   8.677  10.899
58602W        W29202  41.301  22.594   4.126
58603W        W29203   8.889  23.931   3.775
58604W        W29204  20.071  24.529  14.385
58605W        W29205  18.724  25.255   2.100
58606W        W29206  22.174  37.017   2.705
58607W        W29207  28.993  35.591   3.684
58608W        W29208  32.587  24.455   2.962
58609W        W29209  41.849  22.738  13.737
58610W        W29210   8.616  37.075   0.946
58611W        W29211  42.865  39.456   3.583
58612W        W29212   1.373  10.779  13.704
58613W        W29213  22.275  18.271  12.957
58614W        W29214   0.825  38.611  12.440
58615W        W29215  14.576  13.108  13.931
58616W        W29216   1.297   0.687  10.982
58617W        W29217  28.380  35.023  14.350
58618W        W29218  36.072  38.473  14.496
58619W        W29219  24.269  34.462  12.604
58620W        W29220  29.676  41.960   0.225
58621W        W29221  28.090  13.419  14.058
58622W        W29222  16.332  10.798   0.309
58623W        W29223  12.359  26.663   4.128
58624W        W29224  44.806   8.203   0.759
58625W        W29225  28.756  28.564  12.351
58626W        W29226  21.078  31.195   5.034
58627W        W29227  12.112   5.660  14.210
58628W        W29228  12.327   8.926   2.194
58629W        W29229  10.726  30.505  14.231
58630W        W29230  16.053  37.642   1.472
58631W        W29231  30.320   1.165  11.217
58632W        W29232  30.035  21.784   4.109
58633W        W29233  38.572  18.358   0.738
58634W        W29234  43.829  10.264   2.003
58635W        W29235   6.830  35.336  12.017
58636W        W29236   8.323  29.112  14.582
58637W        W29237  29.493  13.497   1.704
58638W        W29238  31.894  25.828   5.092
58639W        W29239  12.714   4.061   0.282
58640W        W29240  40.258  14.181  11.063
58641W        W29241  31.938   4.842   1.927
58642W        W29242  29.309  27.633  11.050
58643W        W29243  13.700  23.129  11.990
58644W        W29244   2.941  20.244  12.844
58645W        W29245  12.715  28.268  14.301
58646W        W29246  26.918  13.672  10.752
58647W        W29247  22.218  13.766   3.155
58648W        W29248  11.711  19.775   5.078
58649W        W29249  39.198  14.965  13.468
58650W        W29250   4.790  20.733   3.752
58651W        W29251  40.042  35.399   1.473
58652W        W29252  32.731   0.196   5.120
58653W        W29253  17.059  24.080   3.361
58654W        W29254  33.322  39.142  12.697
58655W        W29255  44.763  16.080  14.509
58656W        W29256  20.701   1.265   3.364
58657W        W29257   6.328   7.439  11.482
58658W        W29258  33.029  30.350   1.428
58659W        W29259   3.368  11.121   1.729
58660W        W29260  35.011   9.191   3.097
58661W        W29261  34.946   2.772  11.356
58662W        W29262  28.628  33.085  11.406
58663W        W29263   3.013   8.715  14.548
58664W        W29264  21.144  20.540   2.385
58665W        W29265  24.074  13.259   3.364
58666W        W29266  20.694  21.665   4.276
58667W        W29267  13.699  43.030   4.154
58668W        W29268  33.662  26.203  12.425
58669W        W29269  36.551  13.153   0.451
58670W        W29270  27.266  18.554   0.301
58671W        W29271   5.170   2.347   2.378
58672W        W29272  15.239  14.568   2.307
58673W        W29273  33.486  28.065   3.267
58674W        W29274  19.487   5.842  14.285
58675W        W29275  22.530  19.646   1.179
58676W        W29276  42.753   0.440  13.968
58677W        W29277  40.472  18.473  14.713
58678W        W29278  16.601  11.731   1.699
58679W        W29279  25.929  21.802  14.432
58680W        W29280  41.886  19.879   1.399
58681W        W29281  23.492  27.383   1.924
58682W        W29282  25.117  12.826   3.882
58683W        W29283  33.557  29.374   0.625
58684W        W29284  12.839  18.196   0.936
58685W        W29285  32.416  27.193  11.968
58686W        W29286   9.207  23.314   2.517
58687W        W29287  44.241  33.918  14.333
58688W        W29288  41.745   8.126  14.289
58689W        W29289  35.349  23.531   4.078
58690W        W29290  18.052  10.886  11.399
58691W        W29291   1.777  44.759  11.027
58692W        W29292  12.299  16.425  14.445
58693W        W29293  15.781  13.080   4.183
58694W        W29294   7.873  18.853  13.415
58695W        W29295  37.576   6.688  13.935
58696W        W29296  25.725  25.047   1.064
58697W        W29297   1.147  34.876  14.720
58698W        W29298   0.229  30.034  11.087
58699W        W29299  10.417  15.294  10.033
58700W        W29300  29.362   2.774  10.534
58701W        W29301  33.068  15.604  13.658
58702W        W29302  18.023  42.488  12.330
58703W        W29303  23.805  32.355   1.499
58704W        W29304  40.381  44.548  11.600
58705W        W29305  43.795  15.539  11.450
58706W        W29306   4.793   4.654  11.380
58707W        W29307  22.000   8.761   0.906
58708W        W29308  39.592  13.605   4.138
58709W        W29309  40.061   6.796  11.122
58710W        W29310  26.288   3.070  13.315
58711W        W29311  15.829  32.521   0.454
58712W        W29312  36.559  43.807  11.159
58713W        W29313  12.755   9.990   4.977
58714W        W29314   9.324  36.844  13.904
58715W        W29315  37.623  44.990   2.164
58716W        W29316  30.004  33.562  14.047
58717W        W29317  38.062  41.491  11.120
58718W        W29318  26.582   8.713   4.929
58719W        W29319   6.380  29.782  13.067
58720W        W29320  14.300   7.651  10.654
58721W        W29321  40.492  37.512   1.114
58722W        W29322  38.854  16.567   0.416
58723W        W29323  37.910  29.160  11.966
58724W        W29324  20.671  15.148  14.400
58725W        W29325   0.835   1.970   2.689
58726W        W29326  33.622  24.008  14.873
58727W        W29327  44.940  15.793   3.685
58728W        W29328  31.558  39.181   1.345
58729W        W29329  38.072  43.482  10.698
58730W        W29330  44.323  19.072  11.026
58731W        W29331  16.891  20.726   2.189
58732W        W29332  25.606   7.628  10.705
58733W        W29333  37.886   9.817   2.346
58734W        W29334  42.974   0.197   1.229
58735W        W29335  40.452  12.359  14.921
58736W        W29336  30.381   9.994   3.193
58737W        W29337  12.676  33.037   2.660
58738W        W29338  44.323   6.799   3.315
58739W        W29339  36.580   1.315   3.256
58740W        W29340   1.526   7.361  13.454
58741W        W29341  25.866  27.453   3.264
58742W        W29342   1.620  12.250   4.596
58743W        W29343  17.719   1.232   3.308
58744W        W29344  43.019  19.486  12.477
58745W        W29345  33.044  35.332   3.734
58746W        W29346  30.439  15.014   2.685
58747W        W29347  18.444  16.783  11.548
58748W        W29348  39.338  10.352  11.646
58749W        W29349  23.121  21.143   4.685
58750W        W29350  30.185   5.776   0.070
58751W        W29351  42.275  34.582  13.984
58752W        W29352  40.500  43.960   1.835
58753W        W29353  30.713  29.966  11.151
58754W        W29354  34.085  11.268   0.410
58755W        W29355  40.316  27.176  10.651
58756W        W29356  38.533  34.908  12.964
58757W        W29357  37.802  42.076   2.762
58758W        W29358   9.202  19.673   2.198
58759W        W29359  23.294  34.184  13.908
58760W        W29360  37.937  28.527   4.156
58761W        W29361  29.103   1.754  14.340
58762W        W29362  39.481  10.740   1.002
58763W        W29363   2.689  28.108  14.362
58764W        W29364   7.773  31.327  12.003
58765W        W29365  12.094  25.369   0.603
58766W        W29366   6.886  34.610   4.701
58767W        W29367  20.526  30.575   3.579
58768W        W29368  36.385  13.003   3.618
58769W        W29369  10.198  30.661   3.112
58770W        W29370  30.723  39.852  10.758
58771W        W29371  33.093  33.532  14.752
58772W        W29372  42.249  41.836   1.747
58773W        W29373  40.259  13.746  13.712
58774W        W29374  10.626   5.616   2.740
58775W        W29375   0.281  22.787   3.105
58776W        W29376  15.626  20.522  10.646
58777W        W29377  13.607  15.540  13.102
58778W        W29378   7.357  27.252  14.299
58779W        W29379  36.507  31.230  12.110
58780W        W29380   1.212  21.137   3.841
58781W        W29381  41.885  41.622   1.289
58782W        W29382   4.174  29.050   4.944
58783W        W29383   3.934  10.603   4.633
58784W        W29384  36.886   3.717  13.816
58785W        W29385  17.973  14.386   2.367
58786W        W29386  33.145   9.913   2.699
58787W        W29387  38.483   8.415  12.786
58788W        W29388  22.163  15.809  13.430
58789W        W29389  36.263  16.230  14.811
58790W        W29390  21.826   0.991  11.032
58791W        W29391  44.042  28.873   4.089
58792W        W29392  25.077  10.699  13.328
58793W        W29393   2.515  19.949   0.814
58794W        W29394  35.917   0.004  10.893
58795W        W29395  31.560  31.778  14.844
58796W        W29396  26.887   4.268   3.863
58797W        W29397   7.767  21.510  12.605
58798W        W29398  40.972  15.680  12.132
58799W        W29399  25.197  12.996   0.882
58800W        W29400  29.188  27.665   4.633
58801W        W29401  23.968   0.753   0.779
58802W        W29402  30.119  14.229   0.375
58803W        W29403  18.467  13.786  14.630
58804W        W29404  43.717  35.852   2.765
58805W        W29405   2.810  40.314   2.092
58806W        W29406  17.002   5.174   3.681
58807W        W29407   9.168   5.371   1.801
58808W        W29408  23.139   5.724   4.146
58809W        W29409  33.601  36.545   1.457
58810W        W29410   2.748  28.945  11.111
58811W        W29411  23.756  33.621   2.267
58812W        W29412   7.220  23.254   3.331
58813W        W29413  15.121  22.816   3.291
58814W        W29414  22.624  32.224  14.928
58815W        W29415  21.742   6.087   0.139
58816W        W29416  31.336  39.995  13.546
58817W        W29417  35.905  37.290  14.991
58818W        W29418  37.095   9.157   3.699
58819W        W29419  36.910  19.338  11.108
58820W        W29420  44.456   8.843   2.493
58821W        W29421  32.878  16.743  14.716
58822W        W29422  30.890  19.665   4.053
58823W        W29423   2.605  19.360   1.430
58824W        W29424  32.042  15.206  12.462
58825W        W29425  11.373  13.695  12.924
58826W        W29426  37.401   5.497   2.204
58827W        W29427  10.172  44.004  12.350
58828W        W29428  25.044  15.741   4.573
58829W        W29429  24.199  23.399  12.708
58830W        W29430  43.895   4.357   4.242
58831W        W29431  43.777  34.456  14.999
58832W        W29432  22.558   6.362  13.758
58833W        W29433  42.433  15.778  13.005
58834W        W29434  41.831   3.723  10.800
58835W        W29435  26.729  43.917   2.747
58836W        W29436  32.890  24.982   4.025
58837W        W29437  12.926  43.054   0.439
58838W        W29438  26.354   8.868  13.025
58839W        W29439  20.448  12.627   2.600
58840W        W29440   8.277  43.496   4.403
58841W        W29441  39.006  16.831   4.104
58842W        W29442  31.052   3.929   1.877
58843W        W29443  19.675   5.147   3.221
58844W        W29444  32.512  12.646  12.130
58845W        W29445  17.585   8.408   1.768
58846W        W29446  25.086  31.661  11.578
58847W        W29447   6.390   1.937  14.685
58848W        W29448  13.137  33.003   0.870
58849W        W29449  33.334  34.781  10.957
58850W        W29450  19.053  28.360  14.465
58851W        W29451   6.244  30.670   1.162
58852W        W29452  17.975  23.651   1.183
58853W        W29453  35.054  40.262   3.700
58854W        W29454  26.637  29.583  13.367
58855W        W29455  43.670  35.638  14.336
58856W        W29456  40.518  39.499   1.808
58857W        W29457  17.587  13.245   3.173
58858W        W29458   4.198  42.887   0.277
58859W        W29459  43.878  39.238   1.022
58860W        W29460   7.685  33.900   0.259
58861W        W29461   9.262  21.965   4.686
58862W        W29462  19.933  38.563  12.476
58863W        W29463  26.756  43.574   3.632
58864W        W29464  28.360  17.945   1.950
58865W        W29465  27.049  39.032  12.073
58866W        W29466  26.252  19.658  13.323
58867W        W29467  17.267   9.568  11.962
58868W        W29468  27.651  19.312  13.826
58869W        W29469  39.943  23.234  10.788
58870W        W29470  21.679   7.346  11.724
58871W        W29471  43.958  41.011   2.415
58872W        W29472  26.004  34.511   2.655
58873W        W29473  25.537   1.555   4.145
58874W        W29474  40.965  37.335   2.861
58875W        W29475  20.020  30.848  14.943
58876W        W29476  17.001  42.346   3.564
58877W        W29477  15.221   9.485  13.185
58878W        W29478   6.425   3.468  13.275
58879W        W29479  15.857  41.950  11.597
58880W        W29480  37.107  32.395  13.366
58881W        W29481  35.323  34.667   4.556
58882W        W29482  39.152   6.272  14.294
58883W        W29483   8.963  13.085  13.486
58884W        W29484  34.034  13.742   4.075
58885W        W29485  11.614   3.698  13.357
58886W        W29486  43.893  38.833  10.626
58887W        W29487  19.092  33.128  13.569
58888W        W29488   0.501  28.102   2.488
58889W        W29489  20.103  23.215   3.141
58890W        W29490  30.510  44.761  12.141
58891W        W29491  41.096  24.950  13.811
58892W        W29492  42.829  37.070   2.810
58893W        W29493   9.285   4.704  10.124
58894W        W29494  26.885  16.316  11.975
58895W        W29495   1.422   6.591   2.347
58896W        W29496  13.154  21.917   2.766
58897W        W29497  33.381  40.685  11.429
58898W        W29498   9.268  22.793   2.341
58899W        W29499  10.457  27.793  13.052
58900W        W29500  28.582  33.965   4.205
58901W        W29501  41.460  31.896  12.555
58902W        W29502  37.412   1.673   0.323
58903W        W29503  35.312   9.308  12.436
58904W        W29504  25.525  38.828  13.080
58905W        W29505  31.940  12.036  11.553
58906W        W29506  19.777  15.435  13.943
58907W        W29507  16.363  36.270   2.176
58908W        W29508   2.623  37.516   4.090
58909W        W29509  11.825  12.750  13.945
58910W        W29510   8.134  44.071  10.058
58911W        W29511  12.097  33.699  11.751
58912W        W29512  40.509   6.014  13.508
58913W        W29513  23.991  11.637  13.085
58914W        W29514  44.579   6.286  12.987
58915W        W29515  33.036  18.371  14.368
58916W        W29516  43.363   7.263  12.152
58917W        W29517  35.915  21.717   1.902
58918W        W29518  32.947  33.551   2.766
58919W        W29519  14.130  12.840   4.594
58920W        W29520   3.354  26.772  10.844
58921W        W29521  40.487  39.116  13.562
58922W        W29522  21.135  15.775  11.593
58923W        W29523  26.180  14.321   0.308
58924W        W29524  34.309  42.851   2.207
58925W        W29525  32.771  43.866  12.683
58926W        W29526  40.351  39.870  10.794
58927W        W29527   5.742  25.465  13.428
58928W        W29528  32.620   4.174   2.238
58929W        W29529   4.742  44.840   0.189
58930W        W29530  13.720  44.279  11.906
58931W        W29531  25.507   0.781  10.886
58932W        W29532   5.130  11.205  14.054
58933W        W29533   3.933  41.491   3.073
58934W        W29534  38.648  16.315  12.095
58935W        W29535  17.703   0.849   1.135
58936W        W29536  23.638   8.301  11.493
58937W        W29537   0.135   8.459   1.808
58938W        W29538  15.622   9.806   4.524
58939W        W29539  14.085  32.557  11.509
58940W        W29540  17.634  30.904   4.516
58941W        W29541   9.345  19.016  13.937
58942W        W29542  22.740  21.709   3.706
58943W        W29543   9.081  32.103   5.335
58944W        W29544   8.448  14.316  14.037
58945W        W29545  18.901  35.630   2.184
58946W        W29546  19.992  18.069   1.317
58947W        W29547  37.088  10.460  11.101
58948W        W29548  25.598   6.179  12.402
58949W        W29549   9.401  33.713   1.846
58950W        W29550  39.859  43.503   4.291
58951W        W29551   5.080  36.201  13.346
58952W        W29552   4.803  31.864   0.987
58953W        W29553  24.773  18.648  14.505
58954W        W29554  20.721   9.400   2.713
58955W        W29555   7.237  36.128  11.911
58956W        W29556  37.425  17.238   2.182
58957W        W29557   1.984  37.992  14.721
58958W        W29558   7.512  25.739   4.161
58959W        W29559  20.971  28.066   2.256
58960W        W29560  21.773  19.908   0.749
58961W        W29561  10.714  22.655   9.742
58962W        W29562  30.665  20.582  11.915
58963W        W29563  26.390   2.389   2.717
58964W        W29564   6.282  44.302   4.047
58965W        W29565  32.790   3.241   2.751
58966W        W29566  19.646  18.276  11.161
58967W        W29567   7.927   6.235   0.772
58968W        W29568  12.273   0.341  14.462
58969W        W29569  37.496   2.179   1.760
58970W        W29570  35.615  25.809  13.363
58971W        W29571   1.716  24.035   3.093
58972W        W29572  19.840   9.341  14.483
58973W        W29573   3.165  41.033   2.249
58974W        W29574  37.017  11.943  13.365
58975W        W29575  21.628  16.717   1.337
58976W        W29576  24.532  35.054   3.747
58977W        W29577  34.997   0.655  13.420
58978W        W29578  17.674  25.000  11.808
58979W        W29579  28.915  43.968  11.247
58980W        W29580  31.184  23.010   4.147
58981W        W29581  20.518  33.448  14.923
58982W        W29582  11.619  35.939  12.044
58983W        W29583  35.424  34.169   1.877
58984W        W29584  15.800  19.998   1.191
58985W        W29585   5.716  13.202   1.007
58986W        W29586  30.033  39.758  12.744
58987W        W29587  36.185  20.653   3.839
58988W        W29588  36.398  20.399  10.565
58989W        W29589   9.365  20.295   0.995
58990W        W29590  24.988   0.808  10.727
58991W        W29591   9.590   5.929  13.970
58992W        W29592  20.210   9.440   3.267
58993W        W29593  20.428   9.485  11.123
58994W        W29594  15.618  17.664  12.586
58995W        W29595   4.133  27.529  14.398
58996W        W29596  11.334  40.987   2.664
58997W        W29597  31.666  22.210  11.129
58998W        W29598  24.348  14.413  10.644
58999W        W29599  17.152  23.495  14.003
59000W        W29600  37.291  21.622  14.357
59001W        W29601  30.550  18.216  12.412
59002W        W29602  38.002  32.295   1.920
59003W        W29603  23.747  21.701   1.816
59004W        W29604   5.186  33.421   0.959
59005W        W29605   5.853  38.462  13.315
59006W        W29606   4.321   3.932   2.795
59007W        W29607   1.138  11.839  12.328
59008W        W29608  10.378  16.857  14.347
59009W        W29609  31.461   0.559  10.759
59010W        W29610  44.583  23.855   0.321
59011W        W29611  25.594  24.679  12.540
59012W        W29612  11.742  28.949   1.386
59013W        W29613  36.058  16.717  14.747
59014W        W29614  41.407  38.426   3.248
59015W        W29615  17.690  11.191  14.243
59016W        W29616   1.685   7.451  12.166
59017W        W29617  17.114  42.476   2.254
59018W        W29618  23.478  43.723   2.018
59019W        W29619  32.931  30.651   1.031
59020W        W29620  27.620  23.131   4.566
59021W        W29621  21.398   7.697   1.550
59022W        W29622  23.119  25.814  12.058
59023W        W29623   4.344  38.005   0.231
59024W        W29624  15.592  44.370   0.158
59025W        W29625  38.737  29.105  12.560
59026W        W29626   0.871  39.424   3.232
59027W        W29627  18.124  19.642   1.012
59028W        W29628  20.169  34.137  13.065
59029W        W29629  33.156   6.416   4.337
59030W        W29630   2.264   4.129   2.297
59031W        W29631  39.981  28.119   3.066
59032W        W29632   0.411  22.494  10.978
59033W        W29633  17.866   1.179  12.173
59034W        W29634  38.424  34.611   3.455
59035W        W29635  19.594  11.294   2.592
59036W        W29636  26.173   1.989   3.667
59037W        W29637  18.950   0.837  13.504
59038W        W29638  36.353  13.267   4.943
59039W        W29639   7.819  29.083  14.658
59040W        W29640  41.431  17.436   4.057
59041W        W29641   2.445  29.715   2.243
59042W        W29642  37.371  22.480  13.466
59043W        W29643   0.971   6.845   2.260
59044W        W29644  29.730  29.707   0.559
59045W        W29645  29.177  43.518  12.202
59046W        W29646   4.928   1.550  14.287
59047W        W29647  22.718  44.076   0.412
59048W        W29648  24.643  20.854   0.350
59049W        W29649  43.773  10.992   3.657
59050W        W29650  35.408   1.572  14.257
59051W        W29651  13.158  40.488  14.993
59052W        W29652   0.368  15.124  11.185
59053W        W29653  32.080  24.596   2.890
59054W        W29654  37.032  23.165  11.151
59055W        W29655  31.980  20.759  14.883
59056W        W29656   1.986   1.945  12.475
59057W        W29657  28.590  25.559  14.255
59058W        W29658   1.338  29.648   2.259
59059W        W29659  13.072  16.915   3.328
59060W        W29660  27.366  11.805  11.486
59061W        W29661  16.205  16.856   1.109
59062W        W29662  14.739  38.019   0.497
59063W        W29663  39.517   2.814  12.605
59064W        W29664  26.925  41.408  10.787
59065W        W29665  42.846  33.881  12.145
59066W        W29666  12.408  30.605  13.413
59067W        W29667  21.028  21.985  12.387
59068W        W29668  44.179  33.836   2.163
59069W        W29669  35.892  19.334  13.604
59070W        W29670  34.857   9.257  13.156
59071W        W29671  19.629  36.439   2.603
59072W        W29672  15.384   7.651   0.449
59073W        W29673  18.303  28.711   5.138
59074W        W29674  20.393  20.072   3.837
59075W        W29675  12.554   6.043  12.864
59076W        W29676  32.891   4.432   2.947
59077W        W29677   4.725   0.289  13.086
59078W        W29678  12.208  42.569  14.119
59079W        W29679  21.562  31.296  14.777
59080W        W29680  44.582   4.665  10.502
59081W        W29681   1.371  44.031  11.515
59082W        W29682  17.080  16.772   3.083
59083W        W29683  42.762  40.948   1.919
59084W        W29684  29.382  25.610   3.819
59085W        W29685   6.290   3.495   3.579
59086W        W29686   6.418   8.103   3.818
59087W        W29687  39.818  32.055   1.157
59088W        W29688  36.409  16.256   0.304
59089W        W29689  37.076   6.518   2.640
59090W        W29690  17.628  28.574  12.315
59091W        W29691   0.009  20.166  11.486
59092W        W29692  12.894  12.687  14.501
59093W        W29693  42.571  11.781  11.193
59094W        W29694  30.660  38.432   1.398
59095W        W29695  31.115  24.544   4.658
59096W        W29696  23.520  40.420  14.842
59097W        W29697   2.914  30.685  14.001
59098W        W29698   6.901  14.945  11.057
59099W        W29699  33.385  10.418  11.573
59100W        W29700  17.788  11.698  12.895
59101W        W29701  32.411   4.332  12.041
59102W        W29702  18.468  43.741   2.174
59103W        W29703  24.979  31.045  10.745
59104W        W29704  21.884  43.516   1.330
59105W        W29705  34.865   3.469  13.192
59106W        W29706   2.491   7.361   4.205
59107W        W29707  39.055  22.081   0.666
59108W        W29708  32.960  44.763   4.903
59109W        W29709  10.717   2.660  10.851
59110W        W29710  30.047  35.485  11.101
59111W        W29711  32.438  34.844  12.083
59112W        W29712  44.258  33.573  14.776
59113W        W29713  16.700  41.855  12.477
59114W        W29714   5.677   9.337  13.408
59115W        W29715  36.891  35.595  12.955
59116W        W29716  14.420   6.452   5.063
59117W        W29717   6.653   9.381   4.189
59118W        W29718  29.557  28.125  14.812
59119W        W29719  23.160  10.768   2.331
59120W        W29720   5.647   5.866   0.908
59121W        W29721   7.357  12.228  10.570
59122W        W29722  18.682   8.231  11.749
59123W        W29723  26.923  22.495   1.191
59124W        W29724   7.662  13.819   0.252
59125W        W29725  39.174  25.313   0.251
59126W        W29726  21.565   0.520   1.147
59127W        W29727  28.523  11.234   3.698
59128W        W29728   6.895  23.143   2.964
59129W        W29729  25.681  40.852   0.871
59130W        W29730   1.889  20.717  10.999
59131W        W29731   6.173  23.673  11.650
59132W        W29732  37.178  27.708  11.608
59133W        W29733  42.918  14.155  10.606
59134W        W29734  19.319  42.340  12.391
59135W        W29735   6.014  22.947  11.971
59136W        W29736   1.612  41.779   3.286
59137W        W29737   8.363   8.109  11.349
59138W        W29738  22.718  22.000   3.193
59139W        W29739  13.110   8.392   0.773
59140W        W29740   9.251   4.682  12.614
59141W        W29741  29.964  18.609   0.321
59142W        W29742  30.196  21.021   3.778
59143W        W29743   9.675  42.762   1.198
59144W        W29744  24.931  14.675  13.356
59145W        W29745   0.756  38.897  12.941
59146W        W29746   5.906  44.457  10.563
59147W        W29747   1.519  29.217   4.070
59148W        W29748  27.618  33.738   1.900
59149W        W29749  21.702  37.055  14.935
59150W        W29750  33.062  34.529   1.401
59151W        W29751  32.198  28.488   4.539
59152W        W29752  11.670  10.885  11.639
59153W        W29753  41.559  21.673   4.738
59154W        W29754  44.290  28.009   1.164
59155W        W29755  23.490   7.155   4.051
59156W        W29756   7.394  34.388  14.668
59157W        W29757  43.313   4.117  13.434
59158W        W29758  25.629  15.299   0.726
59159W        W29759  15.805  37.142  12.133
59160W        W29760   2.528   9.927  14.943
59161W        W29761  12.827   5.043   1.205
59162W        W29762  14.291  29.743   1.848
59163W        W29763  38.455   9.283   1.845
59164W        W29764  22.054  41.979  14.487
59165W        W29765  32.361  14.006   1.281
59166W        W29766  41.127  17.334  14.393
59167W        W29767  26.264   8.360  12.481
59168W        W29768  25.051  33.421   3.038
59169W        W29769  27.619   8.144  12.831
59170W        W29770  17.880  11.250   0.267
59171W        W29771  26.839  28.982  14.778
59172W        W29772  33.704  12.980   3.705
59173W        W29773  10.091   7.294   5.052
59174W        W29774  12.221   6.156  12.472
59175W        W29775  12.590   5.236  14.883
59176W        W29776   4.310   0.891  12.372
59177W        W29777  20.582  30.285   0.806
59178W        W29778   2.049   3.156   4.603
59179W        W29779   2.302  31.252  12.444
59180W        W29780  11.603  22.441  11.599
59181W        W29781  31.923  43.089  14.479
59182W        W29782   8.952  40.290  12.386
59183W        W29783   5.390  35.670   0.368
59184W        W29784   5.943  10.201   3.588
59185W        W29785   3.230  12.708   3.378
59186W        W29786  12.322  11.044  12.029
59187W        W29787  37.590  20.600  12.455
59188W        W29788  18.059  43.481   3.901
59189W        W29789  28.148  28.027   3.252
59190W        W29790   4.163  28.044   3.310
59191W        W29791  14.510  17.850   1.415
59192W        W29792   5.473   2.336  12.000
59193W        W29793   7.321  28.210   0.472
59194W        W29794  38.925   9.871   2.343
59195W        W29795   1.777   6.290   2.117
59196W        W29796  31.706   4.259  10.675
59197W        W29797  32.990  34.454  12.985
59198W        W29798  26.196  41.880  11.941
59199W        W29799  35.067  15.798   0.704
59200W        W29800   6.151  10.359   1.848
59201W        W29801   8.806  23.670  14.010
59202W        W29802  28.148  28.377  14.320
59203W        W29803   2.596  35.123   3.215
59204W        W29804  41.315  41.495   1.300
59205W        W29805  31.015  37.541   1.628
59206W        W29806  28.195  27.872   4.234
59207W        W29807  38.607  13.856  13.078
59208W        W29808  39.640  10.722  10.471
59209W        W29809  37.398  21.016  11.213
59210W        W29810  27.208  10.373  12.491
59211W        W29811  22.040  22.512   2.862
59212W        W29812  37.754  27.383   3.321
59213W        W29813  37.847   4.087  11.163
59214W        W29814   5.667  39.442   4.294
59215W        W29815  35.650  14.802  13.356
59216W        W29816  22.335   5.230  14.774
59217W        W29817  25.450  22.019  14.459
59218W        W29818  13.854  37.063  13.591
59219W        W29819  18.535   0.305  14.109
59220W        W29820   8.842   5.768   0.704
59221W        W29821  37.309  18.698   1.440
59222W        W29822  44.252   0.459  14.591
59223W        W29823  31.886   1.940  13.615
59224W        W29824  38.282   8.684   0.497
59225W        W29825  25.286  17.096   1.692
59226W        W29826  16.370  33.383  10.509
59227W        W29827  13.210  15.083  13.539
59228W        W29828  28.312   5.991   4.540
59229W        W29829  22.187  35.087  10.613
59230W        W29830  35.812  43.233   3.201
59231W        W29831  18.629  39.435  11.553
59232W        W29832  42.685   6.265  10.729
59233W        W29833   1.794  38.001   2.602
59234W        W29834  33.236  34.396  12.178
59235W        W29835  25.841   2.131  11.070
59236W        W29836  39.525  44.786   3.669
59237W        W29837  11.572   7.663   2.394
59238W        W29838  28.702   6.122  13.293
59239W        W29839  40.978  38.087   2.325
59240W        W29840   9.264  32.744   4.920
59241W        W29841   1.873   6.843  12.872
59242W        W29842  36.561  43.443   4.215
59243W        W29843   9.622   8.158   3.651
59244W        W29844   3.229  13.301   1.281
59245W        W29845  40.916  17.595   4.142
59246W        W29846  39.934  37.477  11.148
59247W        W29847  40.919  35.646   4.095
59248W        W29848   0.884  32.534  12.532
59249W        W29849  44.868  34.503  12.943
59250W        W29850  41.305   5.707   0.415
59251W        W29851  32.674  41.354   0.650
59252W        W29852  30.066  36.232  11.741
59253W        W29853  41.783   9.959  14.776
59254W        W29854   6.258  37.844   4.571
59255W        W29855  11.662   4.931   5.167
59256W        W29856  40.807   0.452   3.207
59257W        W29857   1.562  41.842  14.265
59258W        W29858  17.257  37.043   2.458
59259W        W29859   5.398  22.027   3.920
59260W        W29860  20.627  34.486   3.192
59261W        W29861  24.742  10.340   3.743
59262W        W29862  14.367  11.623   2.930
59263W        W29863  41.045   1.698  13.892
59264W        W29864  15.579  26.245  10.753
59265W        W29865  17.640  35.616  13.497
59266W        W29866  40.325  44.065   4.820
59267W        W29867  22.523  42.844  13.413
59268W        W29868  38.046  15.306   1.765
59269W        W29869  22.155   6.191  13.472
59270W        W29870   0.894  36.155   1.887
59271W        W29871  43.128   3.689  11.189
59272W        W29872   2.057  44.568   1.352
59273W        W29873  42.242  43.801  12.669
59274W        W29874  32.351  18.182  14.554
59275W        W29875  30.896   2.267  12.089
59276W        W29876  14.925  33.587  14.438
59277W        W29877  30.027  18.863  14.444
59278W        W29878   6.354  22.774   5.020
59279W        W29879  15.662  11.142  13.435
59280W        W29880  21.984  38.559   0.976
59281W        W29881  31.613  10.307   3.168
59282W        W29882  39.308  16.145   2.631
59283W        W29883  41.298  34.397  14.303
59284W        W29884   2.559  41.676  11.941
59285W        W29885   2.761  43.526   0.490
59286W        W29886  40.282  27.126   2.254
59287W        W29887  41.993   9.237   2.449
59288W        W29888  24.574  20.849  12.333
59289W        W29889  28.783  44.530  13.511
59290W        W29890  11.853  37.491  12.980
59291W        W29891  35.046  38.415   3.251
59292W        W29892  42.242   0.904  12.319
59293W        W29893  43.285   3.781   1.328
59294W        W29894   2.221  34.486   0.164
59295W        W29895   5.862  23.814   2.561
59296W        W29896  15.277   2.848  14.428
59297W        W29897  42.363  19.308  14.027
59298W        W29898  34.571  23.302   3.168
59299W        W29899  14.085   7.244   1.833
59300W        W29900   2.348  13.631  12.044
59301W        W29901  38.782  16.478   3.571
59302W        W29902  43.029  21.832   1.211
59303W        W29903  17.054   8.016   3.221
59304W        W29904   8.976  30.098   0.282
59305W        W29905  14.380  30.167  12.020
59306W        W29906  38.352  13.819   0.588
59307W        W29907  20.147  17.593  11.106
59308W        W29908   6.495   7.573  14.861
59309W        W29909  37.790   7.216   9.809
59310W        W29910  37.576  32.981  13.894
59311W        W29911  19.194  22.334   4.612
59312W        W29912  21.647   6.983   4.700
59313W        W29913   0.313  42.039  11.143
59314W        W29914   6.224  35.756  11.713
59315W        W29915  31.736  34.926  12.533
59316W        W29916   0.287   8.924   1.974
59317W        W29917   9.294  13.791   2.220
59318W        W29918   7.727  41.490  13.362
59319W        W29919  43.545  11.662  11.386
59320W        W29920  11.234  30.011  11.460
59321W        W29921  11.314  31.308   3.765
59322W        W29922  39.946  38.851   3.156
59323W        W29923  11.540  35.187   0.822
59324W        W29924  27.256  14.353  11.040
59325W        W29925  38.755  12.817  13.761
59326W        W29926   6.926  28.484   2.719
59327W        W29927  21.726  27.399   2.192
59328W        W29928   8.207  11.585   2.391
59329W        W29929  25.249  42.319   3.461
59330W        W29930  21.280   0.007  14.918
59331W        W29931   8.048  21.231  12.033
59332W        W29932  29.233  19.870  14.427
59333W        W29933   6.358  21.923   4.523
59334W        W29934  14.606  26.463  14.473
59335W        W29935  25.714  42.504   3.657
59336W        W29936   9.937  44.229   5.059
59337W        W29937  15.112  24.166   3.175
59338W        W29938  15.290   0.364   3.645
59339W        W29939  34.115   6.424   1.837
59340W        W29940   6.319   6.435   1.745
59341W        W29941   0.817  27.638  10.603
59342W        W29942  32.099  29.920  12.847
59343W        W29943  10.736  21.154  10.609
59344W        W29944  12.298  40.093   1.162
59345W        W29945  27.760  22.628  13.120
59346W        W29946  39.996  40.213  10.649
59347W        W29947  11.637  25.144   0.438
59348W        W29948  24.590   9.482   0.979
59349W        W29949  18.914  10.905  13.109
59350W        W29950  43.931   7.806   0.019
59351W        W29951  34.966  30.631   2.582
59352W        W29952  15.274  15.560  14.820
59353W        W29953   9.221  35.736   5.064
59354W        W29954  12.207  36.924   0.495
59355W        W29955  23.974  14.399  12.062
59356W        W29956  29.111   2.901   3.707
59357W        W29957  36.631  34.469  14.481
59358W        W29958  23.816   8.823  13.407
59359W        W29959   7.313  25.550  11.569
59360W        W29960  34.591  10.794   1.913
59361W        W29961  38.653  21.238  11.477
59362W        W29962  23.588  15.185   2.326
59363W        W29963  25.759  14.945  11.181
59364W        W29964  13.878  24.143  10.418
59365W        W29965  22.906   3.326   2.404
59366W        W29966  30.295  35.018   1.725
59367W        W29967  12.898   5.633  12.082
59368W        W29968  38.302  42.945   2.416
59369W        W29969  33.992  44.760  14.078
59370W        W29970   4.767  28.286  10.610
59371W        W29971  13.435  38.279   4.168
59372W        W29972  37.991  36.202   0.896
59373W        W29973  10.883  37.581   2.280
59374W        W29974   2.475  27.607  11.257
59375W        W29975  18.900   4.727  11.034
59376W        W29976  20.266  25.570   1.239
59377W        W29977  26.579  32.065  13.195
59378W        W29978  32.987  33.865   2.137
59379W        W29979  12.269  32.166   4.101
59380W        W29980  15.569   1.355   4.488
59381W        W29981  27.776  36.682   2.102
59382W        W29982  38.921   9.398   1.125
59383W        W29983  24.527  25.569   3.628
59384W        W29984  39.547  35.830   4.436
59385W        W29985  33.532  41.171  13.927
59386W        W29986  25.749   6.922  11.998
59387W        W29987  20.573  13.853  10.843
59388W        W29988  28.475  26.506  10.641
59389W        W29989  36.447   6.496   1.421
59390W        W29990  16.896  16.504   1.389
59391W        W29991  10.350  33.335   2.706
59392W        W29992   1.228  32.027   4.130
59393W        W29993  19.191  28.361  13.916
59394W        W29994  24.623  23.643   4.190
59395W        W29995   0.394  13.094   0.270
59396W        W29996   3.096  12.986   5.121
59397W        W29997   2.333   5.480  12.443
59398W        W29998  11.097  27.978   3.758
59399W        W29999  44.535  41.052   3.122
59400W        W30000  24.631  15.036  12.098
59401W        W30001   2.550   1.798  10.219
59402W        W30002  21.098  36.785  13.088
59403W        W30003  36.294  29.152   1.894
59404W        W30004   0.719  15.142   2.294
59405W        W30005  10.788  38.600  13.240
59406W        W30006  38.854  22.494   4.006
59407W        W30007   4.639  26.703   1.175
59408W        W30008  36.621  44.788   2.199
59409W        W30009  32.238   0.321   2.004
59410W        W30010   6.108  29.028   3.832
59411W        W30011  22.003  28.378   3.382
59412W        W30012  32.514  23.675   0.821
59413W        W30013   1.274   9.074  10.602
59414W        W30014  14.257   7.922   2.643
59415W        W30015  24.613  13.863  14.295
59416W        W30016  24.532  24.223  14.714
59417W        W30017   3.228   1.382   3.594
59418W        W30018  10.243  15.973   3.314
59419W        W30019  35.995  28.815  10.793
59420W        W30020  38.096  25.078  11.559
59421W        W30021   3.475  14.842  13.071
59422W        W30022  17.352  13.117   4.180
59423W        W30023  17.775   8.906  13.967
59424W        W30024   8.709  38.799  13.370
59425W        W30025  40.582  33.362   1.722
59426W        W30026   2.456  15.543   4.493
59427W        W30027  34.006  32.043   0.536
59428W        W30028  28.682  32.193   1.165
59429W        W30029   6.215  24.330   2.222
59430W        W30030  23.896  27.914  13.958
59431W        W30031  12.041   6.964  10.452
59432W        W30032  35.151  28.665   1.750
59433W        W30033  13.269  28.485   4.715
59434W        W30034  11.268   3.933   2.322
59435W        W30035  16.939  10.061  11.100
59436W        W30036   6.181  21.642   0.470
59437W        W30037  40.190  28.157   4.994
59438W        W30038  21.944   8.890  13.583
59439W        W30039  23.459  15.206  10.609
59440W        W30040  23.540  26.258   2.396
59441W        W30041  11.349  22.130   2.294
59442W        W30042  23.741  40.634   3.054
59443W        W30043  19.528  22.136   0.784
59444W        W30044  29.923   1.204  12.550
59445W        W30045  35.781  18.675   2.233
59446W        W30046  29.026  27.712  10.630
59447W        W30047  40.328  24.492   4.397
59448W        W30048  35.881  37.805  14.879
59449W        W30049   4.312  17.053   2.949
59450W        W30050  30.324  42.736   2.459
59451W        W30051  28.478  33.982   3.271
59452W        W30052  34.000  15.576   2.813
59453W        W30053  17.644  34.307  11.688
59454W        W30054   3.750   5.801   2.322
59455W        W30055  11.645   5.427  11.544
59456W        W30056  32.876  12.406   2.792
59457W        W30057  14.285  23.729   2.334
59458W        W30058  17.377  25.404   2.725
59459W        W30059  13.717   2.514   4.243
59460W        W30060  34.946   8.159   4.227
59461W        W30061   8.271   8.632  14.980
59462W        W30062  34.769  13.163  12.739
59463W        W30063  36.817  38.791  12.610
59464W        W30064  23.679  12.451   2.752
59465W        W30065  32.251  39.248  11.027
59466W        W30066  40.286   0.346  14.381
59467W        W30067  35.473  41.037  10.647
59468W        W30068  25.060   2.013   2.630
59469W        W30069  44.158  15.138   2.257
59470W        W30070   9.612  23.128  13.817
59471W        W30071  13.077  44.766   2.619
59472W        W30072   6.967  12.808   4.583
59473W        W30073  32.588  22.413   0.311
59474W        W30074   4.338  17.310  14.894
59475W        W30075   7.304  17.078  12.831
59476W        W30076   1.001  39.004   1.268
59477W        W30077  13.813  27.996  14.943
59478W        W30078  31.715  33.376   0.321
59479W        W30079  38.895  38.149  14.691
59480W        W30080  18.099  33.415   1.244
59481W        W30081  24.502   3.337   4.135
59482W        W30082   7.652  42.402  10.719
59483W        W30083  26.269  25.161  12.471
59484W        W30084  33.438  42.927   0.340
59485W        W30085  42.093  23.712  11.538
59486W        W30086   1.951   8.890  11.625
59487W        W30087  16.186  22.371  14.465
59488W        W30088  21.564  36.471  13.112
59489W        W30089   0.366   7.350   0.408
59490W        W30090  21.002  20.040  14.741
59491W        W30091  43.826  27.384   3.228
59492W        W30092  38.621  19.271   0.594
59493W        W30093  16.316  39.080  11.422
59494W        W30094  23.891  19.713   1.822
59495W        W30095  36.297   5.836   4.356
59496W        W30096  15.574  10.286   1.429
59497W        W30097   1.655  20.672  13.809
59498W        W30098   9.817   2.236  10.469
59499W        W30099   1.903   2.955   2.707
59500W        W30100   7.804  25.573  12.527
59501W        W30101  35.073  23.118  14.505
59502W        W30102  19.360  40.429  12.357
59503W        W30103  11.867   3.711  12.448
59504W        W30104  15.515  32.001   4.657
59505W        W30105  31.895  39.422   1.677
59506W        W30106  41.721  20.429  14.347
59507W        W30107   6.829  12.612  12.611
59508W        W30108  32.088  22.791  12.863
59509W        W30109  38.647  43.912   3.696
59510W        W30110  21.216  40.854   1.740
59511W        W30111  21.515  22.244   3.710
59512W        W30112  24.980   2.227   1.163
59513W        W30113  16.616  26.163   2.186
59514W        W30114  42.974  27.643   3.777
59515W        W30115  26.216  14.880  10.889
59516W        W30116  38.376  21.248   1.432
59517W        W30117  37.128   2.774  11.838
59518W        W30118  40.056   2.832   4.209
59519W        W30119  27.423  36.918  14.334
59520W        W30120  11.912  12.108  10.672
59521W        W30121  21.733  32.857   1.825
59522W        W30122  43.165   2.421   0.404
59523W        W30123  27.198  40.615  11.920
59524W        W30124   8.943  34.230   2.444
59525W        W30125  16.830   6.986   4.013
59526W        W30126  43.778  34.157   2.271
59527W        W30127  12.793  20.410  11.581
59528W        W30128  36.465  37.505  10.239
59529W        W30129  25.069  17.198   3.092
59530W        W30130  32.664   5.891  12.446
59531W        W30131  31.614  16.161  12.140
59532W        W30132  29.099  18.034  14.080
59533W        W30133  14.216   0.529   2.908
59534W        W30134  43.068  10.836   4.488
59535W        W30135  38.447  32.829  12.861
59536W        W30136  13.704  23.265  14.734
59537W        W30137   1.705  41.660  13.818
59538W        W30138   7.463   3.661   0.129
59539W        W30139  30.963  10.782  14.086
59540W        W30140  29.243  22.776   2.593
59541W        W30141   5.566  13.537   1.378
59542W        W30142   9.403  10.192  10.080
59543W        W30143   1.603   6.618  14.824
59544W        W30144  26.093  43.735   2.228
59545W        W30145   6.224  25.215   4.192
59546W        W30146  31.614  39.965   2.807
59547W        W30147   8.474  37.596  10.460
59548W        W30148   5.843  43.493   1.655
59549W        W30149   1.473   0.427  14.532
59550W        W30150  35.434  23.519  10.631
59551W        W30151  18.869   5.785  12.450
59552W        W30152  42.948  44.414   5.018
59553W        W30153   4.199   0.782   2.368
59554W        W30154  34.558  10.839  12.610
59555W        W30155  24.126  24.512  14.888
59556W        W30156   2.927   4.322  11.071
59557W        W30157   2.921  20.710   1.844
59558W        W30158   0.270  39.038  12.819
59559W        W30159   6.149   1.309   2.913
59560W        W30160  40.421  12.145   3.918
59561W        W30161  20.363  41.401   4.527
59562W        W30162  27.451   1.810   2.382
59563W        W30163  20.803  44.397  11.107
59564W        W30164   1.903  31.845   0.869
59565W        W30165  19.244  30.113  11.029
59566W        W30166  21.489  38.466  13.422
59567W        W30167   5.284  15.706   0.787
59568W        W30168  20.643   8.676   2.206
59569W        W30169  13.126  31.685   1.425
59570W        W30170   4.318  20.509  11.092
59571W        W30171  42.036  42.608   4.713
59572W        W30172  29.618  31.634   3.000
59573W        W30173  40.108  12.205  11.591
59574W        W30174  27.495   2.760   2.895
59575W        W30175  24.396   8.928   1.845
59576W        W30176  43.327  37.511   2.250
59577W        W30177  28.964  29.240  12.487
59578W        W30178   9.126  14.174  14.461
59579W        W30179  16.776  16.223  12.457
59580W        W30180  42.019  22.012   2.928
59581W        W30181  13.880   5.470   2.964
59582W        W30182  44.476   3.992  14.119
59583W        W30183  37.518   6.929  14.397
59584W        W30184  14.769  22.005   4.174
59585W        W30185  32.650  39.554  13.241
59586W        W30186  11.345  20.255   3.680
59587W        W30187  38.424  29.343   3.148
59588W        W30188  25.104  40.491   2.229
59589W        W30189  39.313  24.766   4.085
59590W        W30190  41.060   1.490   2.345
59591W        W30191  32.070  12.297  14.168
59592W        W30192   6.309  32.719  10.781
59593W        W30193   3.805  11.285   1.931
59594W        W30194  41.350  39.571   3.684
59595W        W30195  35.492  15.016   3.629
59596W        W30196  33.291  40.931   2.647
59597W        W30197  22.604  28.306   1.519
59598W        W30198  33.366  16.326   1.282
59599W        W30199  31.642   0.765   0.498
59600W        W30200   1.550  24.259  10.629
59601W        W30201   5.682  25.785   0.893
59602W        W30202  14.738   6.288   1.349
59603W        W30203   5.517  10.623   1.207
59604W        W30204  39.811  20.014  12.428
59605W        W30205  39.833   2.937  13.028
59606W        W30206  38.953  22.451  13.967
59607W        W30207  20.398  12.266   2.924
59608W        W30208  11.149  14.638  10.919
59609W        W30209  21.693  21.697   0.938
59610W        W30210  23.154  21.110  14.522
59611W        W30211  11.533   1.704  12.377
59612W        W30212   5.881  12.798  14.280
59613W        W30213  18.527   0.806   2.289
59614W        W30214  41.892  23.087  12.426
59615W        W30215  41.031  27.856  14.953
59616W        W30216   7.853  31.627  13.349
59617W        W30217  28.864  19.039   1.928
59618W        W30218  42.758  14.836  11.904
59619W        W30219  20.774  17.967   4.985
59620W        W30220  41.881   3.925   4.538
59621W        W30221   6.654   8.654  13.946
59622W        W30222   6.566  35.017  11.584
59623W        W30223  25.344   2.156   5.047
59624W        W30224  28.906  26.693   0.486
59625W        W30225  40.072  17.051  14.790
59626W        W30226  12.663  34.020  14.384
59627W        W30227  39.965   2.806   1.948
59628W        W30228   9.810  15.112   4.740
59629W        W30229  15.328   0.420  11.003
59630W        W30230   1.442  20.896   4.564
59631W        W30231  42.905  16.007   3.130
59632W        W30232  30.559  38.279  12.141
59633W        W30233  21.177   5.864   3.700
59634W        W30234  17.589  21.214   4.489
59635W        W30235  42.030   5.761  14.707
59636W        W30236  24.123  37.621   2.217
59637W        W30237  26.182  42.994   0.307
59638W        W30238  29.805  32.875   1.686
59639W        W30239  12.879   1.928   1.902
59640W        W30240  40.081  16.173   2.242
59641W        W30241  42.524   2.632  12.517
59642W        W30242  42.463   3.954  14.764
59643W        W30243   5.139  39.601   1.864
59644W        W30244  28.216  34.387  11.160
59645W        W30245   7.219  13.132  11.796
59646W        W30246  24.643  35.425   2.400
59647W        W30247  22.451  10.903   4.859
59648W        W30248   3.902  18.596  12.584
59649W        W30249   0.591   1.533  14.982
59650W        W30250  41.291  37.838   3.857
59651W        W30251  20.611  12.169   2.421
59652W        W30252  28.266  11.259   3.266
59653W        W30253  24.926  41.859   0.421
59654W        W30254   8.692  23.173   1.678
59655W        W30255   7.851  21.109   3.237
59656W        W30256   3.391   9.831   4.538
59657W        W30257   7.438  31.703   0.444
59658W        W30258   5.225   3.940  12.917
59659W        W30259  11.601  38.403  14.460
59660W        W30260  15.306  41.458  12.038
59661W        W30261  21.540  32.641   2.834
59662W        W30262  16.552  39.401  14.273
59663W        W30263  31.316  43.409  13.555
59664W        W30264  18.150   0.884  11.846
59665W        W30265  10.243  15.611   3.675
59666W        W30266  39.547  34.666   0.962
59667W        W30267  22.117   3.380   4.606
59668W        W30268  21.018  26.735  14.133
59669W        W30269  27.143  24.391  10.754
59670W        W30270  34.846  13.802   2.317
59671W        W30271  22.458  25.761   4.595
59672W        W30272  11.024  27.449  13.513
59673W        W30273   5.772  43.810   0.544
59674W        W30274   1.635  15.072  12.983
59675W        W30275   7.024   5.359   2.240
59676W        W30276  21.754  10.420   4.661
59677W        W30277  25.544   1.046  13.105
59678W        W30278  32.619  34.644   2.258
59679W        W30279  13.387  21.898   0.632
59680W        W30280  12.268   0.054  13.992
59681W        W30281  33.595  10.236  13.512
59682W        W30282   7.077  10.716   0.915
59683W        W30283  27.323  34.430  14.866
59684W        W30284  27.542   2.373  10.590
59685W        W30285   5.916   9.164   0.328
59686W        W30286   2.678  21.244   0.777
59687W        W30287  28.358  21.405  14.956
59688W        W30288  28.543  16.654  11.502
59689W        W30289   9.649  30.811  14.961
59690W        W30290  38.152  13.762   1.779
59691W        W30291  43.409   4.839  12.923
59692W        W30292  27.489   5.761  12.078
59693W        W30293  19.333  24.291   2.739
59694W        W30294  18.399  10.155   1.020
59695W        W30295   8.730  37.973   4.344
59696W        W30296   7.265  33.128   4.677
59697W        W30297   1.476   5.369  10.641
59698W        W30298  15.022  28.478   1.714
59699W        W30299  22.629  22.986  12.392
59700W        W30300   6.953  11.524   2.774
59701W        W30301  35.181  24.976  11.538
59702W        W30302  12.709  30.543   1.569
59703W        W30303   1.003  44.590  10.757
59704W        W30304  10.099  11.489  12.398
59705W        W30305  26.558   0.206  11.249
59706W        W30306   0.200  20.059  11.969
59707W        W30307  33.004  26.054   3.101
59708W        W30308   9.776  27.473  11.005
59709W        W30309  22.386  10.418  10.502
59710W        W30310  31.513  19.188  13.491
59711W        W30311  21.712  21.802  13.436
59712W        W30312   5.671  31.175   0.949
59713W        W30313  15.356  32.509  13.291
59714W        W30314  17.028  25.476  11.679
59715W        W30315  35.424  10.226   3.646
59716W        W30316  11.786  24.432   0.824
59717W        W30317   3.709   6.296   4.984
59718W        W30318  35.526  43.046   2.763
59719W        W30319  15.242  27.894  12.960
59720W        W30320  38.321  28.639   1.909
59721W        W30321   8.528  31.904  11.646
59722W        W30322   9.446   1.313   2.686
59723W        W30323  27.959  14.541  12.999
59724W        W30324  38.987  19.065  14.745
59725W        W30325  10.707  20.617   1.006
59726W        W30326   8.880   5.294   2.240
59727W        W30327  16.287  34.506  11.575
59728W        W30328  35.360   2.315   2.747
59729W        W30329  32.586  32.029   3.585
59730W        W30330   6.074  26.520  10.586
59731W        W30331  39.005  42.546   2.105
59732W        W30332  31.198  34.423   1.416
59733W        W30333  29.449  18.046   1.256
59734W        W30334  23.507  16.606  13.444
59735W        W30335  20.689  37.437  14.369
59736W        W30336  19.784  38.557  14.554
59737W        W30337  27.504  19.623   3.722
59738W        W30338  25.395  39.987   2.250
59739W        W30339  19.464  13.181  13.763
59740W        W30340  20.474  32.657   2.251
59741W        W30341   3.239   1.776  13.096
59742W        W30342  24.154  20.684   3.771
59743W        W30343  35.952   1.566  11.630
59744W        W30344  29.727  11.777   0.905
59745W        W30345  23.474  30.968  10.816
59746W        W30346  41.772  43.575   0.884
59747W        W30347   9.210  13.150   3.766
59748W        W30348  19.971   7.388  14.066
59749W        W30349   2.350  42.876   2.144
59750W        W30350  36.479  15.349   2.313
59751W        W30351   8.596   1.942  13.288
59752W        W30352   1.279   6.000  12.125
59753W        W30353  23.983  21.189  10.666
59754W        W30354  35.338  19.099   0.727
59755W        W30355  21.228  38.732   2.223
59756W        W30356  17.495  10.760   3.355
59757W        W30357  41.433  10.846  12.843
59758W        W30358  44.782  19.564   0.973
59759W        W30359   3.868  35.929  13.816
59760W        W30360  36.428  20.179  13.301
59761W        W30361   2.152  25.650   4.192
59762W        W30362  31.424  39.290  12.930
59763W        W30363  13.456  37.605  11.180
59764W        W30364  38.386  18.204  12.429
59765W        W30365  40.361   2.858  14.161
59766W        W30366  19.778  35.281  14.948
59767W        W30367  30.966   8.303   2.892
59768W        W30368  20.541  10.673  11.385
59769W        W30369   3.925  40.418  10.926
59770W        W30370  20.472  35.698   4.541
59771W        W30371  18.675  30.149   3.359
59772W        W30372   7.976   6.488   3.113
59773W        W30373  42.695  34.108  14.377
59774W        W30374   0.353   8.687   3.328
59775W        W30375   7.498   7.851   4.294
59776W        W30376  34.074   1.422   3.508
59777W        W30377  37.807  30.543   1.635
59778W        W30378  36.135  34.495  11.066
59779W        W30379   2.970  28.537  14.390
59780W        W30380  35.506   9.669  11.264
59781W        W30381  23.708  10.606  11.029
59782W        W30382  36.114  14.066  13.931
59783W        W30383  21.641  36.951   2.810
59784W        W30384  35.476   3.960   3.313
59785W        W30385  21.385  12.562   3.153
59786W        W30386   2.642  36.650  12.152
59787W        W30387  39.902   5.712  12.017
59788W        W30388  28.146  14.092  11.140
59789W        W30389  15.573   0.869   0.793
59790W        W30390  21.143   6.353  13.171
59791W        W30391  44.658  38.645   1.958
59792W        W30392   6.646  17.965   3.149
59793W        W30393  24.568  43.227  13.114
59794W        W30394  20.716  42.992  12.869
59795W        W30395  35.383   8.635  11.999
59796W        W30396  31.563   5.677   1.832
59797W        W30397  38.295   0.817  12.490
59798W        W30398  29.533  43.386   0.800
59799W        W30399  40.442  11.819   0.723
59800W        W30400  32.432   2.865   2.861
59801W        W30401   1.920   1.391  10.807
59802W        W30402  33.000  42.543  13.906
59803W        W30403  38.076   6.299   4.678
59804W        W30404  39.214  20.537  11.655
59805W        W30405   6.450   9.919   1.765
59806W        W30406  14.816  20.749  12.396
59807W        W30407  34.383   4.123  11.642
59808W        W30408  14.035   3.788   3.777
59809W        W30409  35.339  25.053  12.038
59810W        W30410  12.406  27.016  14.286
59811W        W30411  19.860  18.864   2.697
59812W        W30412  44.283   4.307   1.674
59813W        W30413   0.029  12.029  10.311
59814W        W30414  14.617  35.407  14.316
59815W        W30415  42.466  25.063   4.585
59816W        W30416  13.343  42.279  14.138
59817W        W30417   9.197  29.081   4.299
59818W        W30418  44.353   2.144  12.557
59819W        W30419  16.011  21.161   0.648
59820W        W30420  11.947   4.631  13.360
59821W        W30421  21.210  27.910  12.103
59822W        W30422  27.431  10.755   3.380
59823W        W30423  32.498  43.768  11.827
59824W        W30424  22.226  25.431  11.414
59825W        W30425  30.620   7.897   2.925
59826W        W30426  35.887  14.687   2.127
59827W        W30427  43.847  13.222   4.744
59828W        W30428  40.401  43.227   2.202
59829W        W30429  18.274  30.495  13.313
59830W        W30430  42.805  17.126   2.622
59831W        W30431  30.013   6.161  13.789
59832W        W30432  11.170   2.007   1.182
59833W        W30433  42.625  18.650   3.309
59834W        W30434  34.768   5.724  12.939
59835W        W30435   8.543  30.123   2.820
59836W        W30436   0.482  17.450  11.608
59837W        W30437   5.413  23.580   4.125
59838W        W30438  31.257  27.213  12.980
59839W        W30439   3.802   1.950  10.746
59840W        W30440  26.538  36.190   2.371
59841W        W30441  37.499  12.703   4.564
59842W        W30442   2.467   7.555   3.716
59843W        W30443  37.297  43.452   0.945
59844W        W30444   4.918   3.447  12.827
59845W        W30445  31.991  10.732  13.436
59846W        W30446  21.539   0.956   1.924
59847W        W30447  36.071   4.874   1.648
59848W        W30448  36.996  18.003  14.768
59849W        W30449  35.419  31.826  10.676
59850W        W30450  11.201  19.574   2.295
59851W        W30451   4.797  34.131   2.859
59852W        W30452   3.467   1.016   0.506
59853W        W30453  28.008  44.844   2.684
59854W        W30454  11.021   9.786  10.701
59855W        W30455  23.109  44.273   4.010
59856W        W30456   8.717  33.412   3.605
59857W        W30457  40.368  42.457   0.954
59858W        W30458  34.929  29.438  12.508
59859W        W30459  17.295   8.341   4.360
59860W        W30460  18.865  29.051   2.117
59861W        W30461  29.931  42.156  10.319
59862W        W30462   3.327  39.096  12.514
59863W        W30463  30.200   7.424  14.383
59864W        W30464  28.836  39.027   2.339
59865W        W30465   8.218   5.433   3.945
59866W        W30466  28.496   0.590   2.396
59867W        W30467  43.664  31.158   4.867
59868W        W30468  36.866  17.031   0.097
59869W        W30469   9.050  34.403  13.612
59870W        W30470  44.894  26.419   0.428
59871W        W30471  11.884  21.685   3.741
59872W        W30472   7.802  11.160  14.424
59873W        W30473  22.700  43.272   5.405
59874W        W30474  27.928  39.665   0.437
59875W        W30475  41.027  24.441  11.970
59876W        W30476  39.983  29.302  12.528
59877W        W30477  12.332  18.064  10.740
59878W        W30478  16.761   3.187  14.743
59879W        W30479  21.060  27.093  12.857
59880W        W30480  41.431  39.745   1.937
59881W        W30481  16.835  22.681   1.398
59882W        W30482   0.480  39.765   1.373
59883W        W30483   6.512  39.547   0.467
59884W        W30484  32.136   8.716  11.706
59885W        W30485  40.765  41.906   2.696
59886W        W30486  43.799  29.106  11.574
59887W        W30487  14.876  23.712  12.266
59888W        W30488  18.381  42.818   1.323
59889W        W30489  24.223   6.396   0.434
59890W        W30490   4.403  32.855  12.071
59891W        W30491  24.915  28.456  12.078
59892W        W30492   3.955  39.023   1.184
59893W        W30493  11.418  21.257  14.949
59894W        W30494  24.637  27.811  14.387
59895W        W30495   3.498  25.634  13.931
59896W        W30496  24.183  18.556   3.214
59897W        W30497  22.091  15.029  13.852
59898W        W30498  23.322  31.327  13.858
59899W        W30499  27.405  13.063  13.962
59900W        W30500  21.140  39.539   4.786
59901W        W30501  36.056  26.934   4.410
59902W        W30502  23.123  10.480  12.947
59903W        W30503  41.969  26.631   3.240
59904W        W30504  19.684  42.820   2.793
59905W        W30505  41.941  35.926  13.956
59906W        W30506  27.242  20.178   4.545
59907W        W30507  37.253   9.731  12.945
59908W        W30508  44.382  13.085   2.782
59909W        W30509  12.093  34.103   3.274
59910W        W30510   1.031  21.049   3.291
59911W        W30511  12.365  11.628  12.954
59912W        W30512  40.857  16.546   0.370
59913W        W30513   0.580   0.427   2.362
59914W        W30514  13.753  40.195   3.127
59915W        W30515  19.385  26.144  13.228
59916W        W30516  12.700  21.140  12.115
59917W        W30517  11.041  18.340  11.092
59918W        W30518  12.879  18.660   3.995
59919W        W30519  43.903  30.626   4.888
59920W        W30520   3.641  44.358  12.080
59921W        W30521  20.299  22.272  14.363
59922W        W30522  33.955  31.731   1.292
59923W        W30523   8.970  23.550  11.163
59924W        W30524  36.354  30.669   4.636
59925W        W30525  41.038  19.318   3.238
59926W        W30526   1.943  42.673   3.186
59927W        W30527  10.245  34.547  12.927
59928W        W30528  21.323  39.172   5.107
59929W        W30529  17.591  33.575   2.624
59930W        W30530   0.480  26.924  10.986
59931W        W30531  17.764   0.267  13.064
59932W        W30532  23.459  39.638   4.116
59933W        W30533  23.774  39.970  13.044
59934W        W30534  13.858   2.520  13.945
59935W        W30535  32.443  43.553  10.674
59936W        W30536  17.063  10.418   2.159
59937W        W30537  17.485  13.330   0.862
59938W        W30538  28.837  39.926   2.439
59939W        W30539  32.904  26.678   4.644
59940W        W30540  10.385  11.405  11.142
59941W        W30541   4.228   7.260   1.637
59942W        W30542  18.119   8.417  12.413
59943W        W30543  22.017  23.951  13.556
59944W        W30544  16.371  12.243   0.746
59945W        W30545  29.658  44.408  12.578
59946W        W30546  14.617  26.046   1.430
59947W        W30547  31.030  30.156  11.543
59948W        W30548  38.193  11.372   0.680
59949W        W30549  18.538  44.760   2.769
59950W        W30550  39.030  38.829   2.952
59951W        W30551  38.849  35.391   4.028
59952W        W30552  18.851  23.101  14.294
59953W        W30553  34.352   3.993   4.064
59954W        W30554  29.903  37.941  12.935
59955W        W30555  29.852  29.586   4.263
59956W        W30556  34.066  21.198   0.916
59957W        W30557   0.393   6.747  14.962
59958W        W30558  26.656   4.431  11.522
59959W        W30559  36.792  18.562  13.925
59960W        W30560  41.827  36.038   5.102
59961W        W30561   1.670  16.626  10.686
59962W        W30562  20.920   3.766   1.478
59963W        W30563  24.933  25.473  11.519
59964W        W30564  15.063  18.174   2.713
59965W        W30565  30.991  34.269   2.641
59966W        W30566  44.025  27.416  12.855
59967W        W30567  22.666  29.062  14.003
59968W        W30568  31.559   0.977   1.981
59969W        W30569  21.228   3.886  12.032
59970W        W30570  24.713  10.250  13.095
59971W        W30571  12.910   8.322   1.284
59972W        W30572  12.278  18.830   1.145
59973W        W30573  43.251  14.095   2.384
59974W        W30574  22.981   1.779   1.692
59975W        W30575   5.414   2.611   0.847
59976W        W30576  26.281  26.621   4.433
59977W        W30577   0.969  14.581  14.930
59978W        W30578  15.121   0.201   0.032
59979W        W30579  19.545  43.323   2.160
59980W        W30580  16.723   3.407  13.501
59981W        W30581  18.321  23.483  12.587
59982W        W30582  12.917  15.153   3.243
59983W        W30583  44.481  26.554   3.177
59984W        W30584  25.194  32.639  14.491
59985W        W30585  28.034  23.108  14.885
59986W        W30586   1.137  28.117   3.288
59987W        W30587  20.757  41.039  12.083
59988W        W30588  16.573  11.302   1.415
59989W        W30589   6.801  40.745  11.899
59990W        W30590  22.607  32.713  13.126
59991W        W30591   3.174   1.534  12.626
59992W        W30592   3.345   0.297   0.976
59993W        W30593  24.734  35.609   1.238
59994W        W30594  28.172   3.260   4.964
59995W        W30595  41.787   7.921   5.043
59996W        W30596  14.178  34.764  11.401
59997W        W30597  43.376  43.479  11.162
59998W        W30598   4.717   0.407  10.676
59999W        W30599  33.611  31.935  11.243
60000W        W30600  43.248  31.342   1.834
60001W        W30601  38.998  27.607  11.569
60002W        W30602   6.384  43.239   4.132
60003W        W30603  12.734  34.394   3.072
60004W        W30604   0.050   5.455  11.014
60005W        W30605  20.172  10.886   0.746
60006W        W30606  14.569  34.715  12.970
60007W        W30607  20.079  15.665   0.342
60008W        W30608  24.598  21.727  14.843
60009W        W30609  35.573  20.761  11.052
60010W        W30610  33.286  38.237   1.866
60011W        W30611  13.797  18.136   0.009
60012W        W30612  23.679  16.028   2.656
60013W        W30613  18.386  10.779  13.856
60014W        W30614  15.228   1.316  10.789
60015W        W30615  38.142  38.780  12.556
60016W        W30616   5.967  18.570  13.036
60017W        W30617  41.983  28.862   2.262
60018W        W30618  38.311  34.418  10.754
60019W        W30619   7.652  41.764   0.735
60020W        W30620  30.900  32.111   4.519
60021W        W30621  31.532  34.451  13.459
60022W        W30622  24.246  10.283  10.905
60023W        W30623  42.348  42.424  13.602
60024W        W30624  35.107  35.245   3.275
60025W        W30625  32.946   9.479   0.287
60026W        W30626  30.567  33.022  11.186
60027W        W30627  13.647  39.378  14.918
60028W        W30628  38.357  10.901  13.426
60029W        W30629  41.321  27.985  13.399
60030W        W30630   0.291   1.155  14.452
60031W        W30631   2.642  16.104   3.614
60032W        W30632  41.396   4.730  11.677
60033W        W30633  35.487  38.792  12.767
60034W        W30634  20.002  36.049   3.710
60035W        W30635  26.114  35.618   1.452
60036W        W30636  19.871  17.980   3.424
60037W        W30637   3.374   4.937   0.513
60038W        W30638  10.238  27.262   1.892
60039W        W30639   8.159  37.753  14.939
60040W        W30640  22.210  12.763  13.338
60041W        W30641  18.556  42.766   4.158
60042W        W30642  44.043  11.813  14.424
60043W        W30643  16.790  37.331  12.941
60044W        W30644  33.491   2.208   1.262
60045W        W30645  11.823  17.272   0.833
60046W        W30646  42.254  27.863  11.661
60047W        W30647   8.748  23.153  12.742
60048W        W30648  24.669   4.202   3.222
60049W        W30649   5.793   7.732  14.414
60050W        W30650  13.270  10.697   2.719
60051W        W30651  30.129  20.203   3.123
60052W        W30652  11.667  17.122   0.361
60053W        W30653  29.157  42.555  12.954
60054W        W30654  43.608  26.556   5.023
60055W        W30655  10.716  10.828   4.134
60056W        W30656  24.713  13.825   0.500
60057W        W30657   3.854   3.808  11.205
60058W        W30658  26.094  23.794  11.898
60059W        W30659  10.873  22.925   4.137
60060W        W30660  37.836  11.338  11.616
60061W        W30661  28.431  34.647  13.952
60062W        W30662   4.902   8.204   3.347
60063W        W30663  35.044  34.308  12.034
60064W        W30664   9.296  18.153   0.662
60065W        W30665  38.079   0.808  11.055
60066W        W30666  17.805  38.785   1.232
60067W        W30667  44.608  26.270  14.964
60068W        W30668  30.977  32.489  13.363
60069W        W30669   1.227  37.868  12.485
60070W        W30670   2.907  42.568   0.028
60071W        W30671  20.722   1.973   2.639
60072W        W30672  34.741  34.243   3.442
60073W        W30673   1.219   5.919  11.186
60074W        W30674  34.994  44.698  12.608
60075W        W30675   5.089  25.347   3.053
60076W        W30676  19.721  32.509   1.383
60077W        W30677   6.124   4.739   4.176
60078W        W30678   9.184  32.990  10.423
60079W        W30679  28.022  41.164  13.432
60080W        W30680  28.775  43.013  10.997
60081W        W30681  42.712  34.439  14.916
60082W        W30682  38.617  35.927  13.848
60083W        W30683  26.681   7.128   1.256
60084W        W30684  40.980  39.882  13.858
60085W        W30685   4.907  15.418   1.558
60086W        W30686  34.999   0.931  10.668
60087W        W30687  37.060  40.803   1.765
60088W        W30688  26.276  30.847  14.841
60089W        W30689  31.937  36.520  14.900
60090W        W30690   6.633  40.941   2.848
60091W        W30691  30.161  32.499   3.773
60092W        W30692   4.739  26.289  12.980
60093W        W30693   5.774   2.060   3.562
60094W        W30694  39.966  23.557  11.191
60095W        W30695  30.150  12.658  14.267
60096W        W30696  43.472  32.524   0.313
60097W        W30697  29.941  34.612   1.759
60098W        W30698   3.237   1.716   4.555
60099W        W30699  40.491  16.698   4.975
60100W        W30700   2.540  21.525  12.471
60101W        W30701  21.659   6.594  12.226
60102W        W30702  17.520  38.025  11.568
60103W        W30703  11.310  24.146   0.418
60104W        W30704  12.529  32.340  11.531
60105W        W30705  16.286  32.358  13.408
60106W        W30706  42.291  14.851  13.080
60107W        W30707  18.576  19.527  12.329
60108W        W30708  37.905  35.807  14.519
60109W        W30709  40.484  24.082  13.733
60110W        W30710   3.958  13.192   1.672
60111W        W30711  44.895   2.709  11.599
60112W        W30712  11.335   1.533   1.253
60113W        W30713   5.243  19.060   2.723
60114W        W30714   1.247  24.978  12.386
60115W        W30715   7.599   4.736   2.738
60116W        W30716   0.752  40.052  12.435
60117W        W30717  19.758   9.172  12.057
60118W        W30718  26.062  38.179  12.107
60119W        W30719  25.611  20.462  14.502
60120W        W30720  40.990  29.657   0.274
60121W        W30721  37.220  16.764  13.798
60122W        W30722  14.660  21.303   1.706
60123W        W30723  11.180   0.896  11.146
60124W        W30724  12.173  25.798  10.534
60125W        W30725  10.845  42.298   0.189
60126W        W30726  11.022  40.310   2.233
60127W        W30727  12.668  31.045  13.350
60128W        W30728   8.751  12.353  11.557
60129W        W30729  18.603   9.203  11.389
60130W        W30730  17.960  40.125  14.272
60131W        W30731  19.643  18.260   2.670
60132W        W30732  38.123   4.502   0.092
60133W        W30733  30.234  38.560  13.463
60134W        W30734  28.206   2.243  14.863
60135W        W30735  24.645   0.764  14.878
60136W        W30736  20.613   9.494   4.105
60137W        W30737  10.237  20.547   4.683
60138W        W30738  20.299  14.118   0.836
60139W        W30739  14.699  33.121  14.335
60140W        W30740   0.893   8.867  11.516
60141W        W30741   9.645  21.576   3.066
60142W        W30742  21.677  27.260   3.781
60143W        W30743  36.324  14.863  14.962
60144W        W30744  35.108   7.797  13.977
60145W        W30745   6.774  18.894  14.324
60146W        W30746  29.191  34.832  11.421
60147W        W30747   3.028  31.749  11.558
60148W        W30748  42.970  40.529  13.113
60149W        W30749   3.736  16.098  14.287
60150W        W30750  43.854  25.674   4.867
60151W        W30751   8.414  16.928   4.388
60152W        W30752  25.060  13.348  13.965
60153W        W30753  12.547  11.166  11.584
60154W        W30754  38.034  39.770   2.263
60155W        W30755  22.478  41.894   1.386
60156W        W30756  11.075  42.727  14.104
60157W        W30757   4.905  10.107  12.792
60158W        W30758  32.046   7.545  10.687
60159W        W30759  36.421  43.921   1.156
60160W        W30760  42.550   5.976  11.182
60161W        W30761  33.080  35.389   4.245
60162W        W30762  35.134  38.370   2.096
60163W        W30763  11.684  35.071  11.489
60164W        W30764  33.488  38.616   1.300
60165W        W30765  34.160   1.654   1.290
60166W        W30766  41.849   3.224   4.900
60167W        W30767   8.842   1.496   4.448
60168W        W30768  44.772  27.009   1.279
60169W        W30769  44.963  23.499  14.624
60170W        W30770  37.213   1.879  10.441
60171W        W30771   6.753  26.502   5.051
60172W        W30772  17.704  14.342  12.812
60173W        W30773   5.422  20.075  12.016
60174W        W30774  19.108  33.448  12.454
60175W        W30775  35.459  37.373  12.024
60176W        W30776  36.909  14.569  10.694
60177W        W30777  39.977  26.558   3.825
60178W        W30778  36.541  12.291   1.523
60179W        W30779  24.214   3.127  13.072
60180W        W30780  40.331  24.869   3.441
60181W        W30781  28.764   4.211   2.412
60182W        W30782  44.447  16.985  11.945
60183W        W30783  41.406   2.303  12.611
60184W        W30784  38.632  19.120  13.443
60185W        W30785  22.075  35.395   1.704
60186W        W30786  17.698  11.795  11.564
60187W        W30787  41.238   2.278  11.065
60188W        W30788  12.262  29.171  13.361
60189W        W30789  11.233  27.018   2.188
60190W        W30790  32.529  24.209   4.686
60191W        W30791  38.420  37.494   1.817
60192W        W30792   3.770  25.676   3.345
60193W        W30793  18.856  10.413   3.201
60194W        W30794  38.947  27.437   4.986
60195W        W30795  12.737  32.511  11.964
60196W        W30796   4.381  37.888   2.283
60197W        W30797  27.129   3.008   0.614
60198W        W30798  29.791  41.794  12.955
60199W        W30799   4.436  35.415   2.770
60200W        W30800   8.413  14.683  13.691
60201W        W30801  11.228   6.836  14.524
60202W        W30802  40.393   0.474   1.976
60203W        W30803  28.400   0.705   3.408
60204W        W30804  29.687  31.860  12.136
60205W        W30805  32.364  42.378   2.632
60206W        W30806   4.191  29.163   1.687
60207W        W30807   4.650  20.910  11.571
60208W        W30808   7.382  20.983   4.591
60209W        W30809  39.560   5.514   0.022
60210W        W30810  40.414  35.957  14.319
60211W        W30811  18.251  18.724   4.613
60212W        W30812  21.678  40.253  11.178
60213W        W30813  18.723   5.155   2.152
60214W        W30814  13.586  22.093  14.365
60215W        W30815   3.441  33.626  13.588
60216W        W30816  24.717  26.576   4.231
60217W        W30817  16.724  22.591  10.948
60218W        W30818  10.183  42.769  11.117
60219W        W30819  12.624   8.261  11.978
60220W        W30820   7.213  33.705   0.313
60221W        W30821  22.204  15.787  14.344
60222W        W30822  39.768  15.208   2.195
60223W        W30823  37.345  19.319  14.200
60224W        W30824  14.672  40.591  11.113
60225W        W30825  23.532  41.042  14.817
60226W        W30826  24.979  21.042   2.598
60227W        W30827  10.817  10.378  10.696
60228W        W30828  29.588  22.924   4.923
60229W        W30829  32.606  41.258  11.057
60230W        W30830  25.258  26.175   2.724
60231W        W30831  11.274   7.827  14.318
60232W        W30832  24.133   6.457   3.728
60233W        W30833  23.739  31.126  12.510
60234W        W30834  18.049  28.193  14.829
60235W        W30835  20.478  34.645   2.104
60236W        W30836  10.446  13.936  14.445
60237W        W30837  21.873   9.294  10.724
60238W        W30838  32.966   8.183   0.838
60239W        W30839  22.202   9.925   4.630
60240W        W30840  14.952   8.401   1.318
60241W        W30841   8.003  20.760  14.276
60242W        W30842   9.735  44.250  11.227
60243W        W30843   0.031  33.995  13.090
60244W        W30844  39.887  13.227  13.358
60245W        W30845   6.642  10.117  13.755
60246W        W30846  21.037  30.953  10.641
60247W        W30847  43.300  41.370  14.924
60248W        W30848  35.825  32.978  11.219
60249W        W30849  33.148  13.476   3.612
60250W        W30850   8.326   7.206  10.460
60251W        W30851   2.220   6.599  11.127
60252W        W30852  39.181  14.715   4.156
60253W        W30853   2.308   4.354  14.250
60254W        W30854  10.691   8.599   2.738
60255W        W30855  33.051  41.456   3.069
60256W        W30856  35.426  42.047  10.803
60257W        W30857  16.869   5.791  13.253
60258W        W30858  21.643  18.138   1.383
60259W        W30859  39.871  35.530   1.945
60260W        W30860   0.891   2.292  14.524
60261W        W30861  28.495  41.341  12.591
60262W        W30862   8.890  39.381   4.335
60263W        W30863  37.908  41.705   0.759
60264W        W30864  17.400  10.096   4.100
60265W        W30865  30.156  12.411   4.118
60266W        W30866  32.979  37.275  12.386
60267W        W30867  41.680  38.571   3.678
60268W        W30868   6.479  35.904  11.245
60269W        W30869  20.088  13.367  13.959
60270W        W30870  40.266   6.855  13.435
60271W        W30871  13.083  29.134  12.880
60272W        W30872  21.469   6.242   3.503
60273W        W30873  38.563  40.470  10.718
60274W        W30874  33.089   7.099  10.673
60275W        W30875  15.723  26.209  11.636
60276W        W30876  16.243  10.664   2.841
60277W        W30877   8.706  11.354   3.140
60278W        W30878  42.924   6.000  13.379
60279W        W30879  35.669  25.230   2.886
60280W        W30880   2.464  11.662  12.126
60281W        W30881  44.748   0.968   1.438
60282W        W30882  11.574  11.723   0.801
60283W        W30883  19.496  32.084   5.002
60284W        W30884  33.125  20.884   0.783
60285W        W30885  44.505  29.696   1.735
60286W        W30886   3.531  12.650  13.406
60287W        W30887  33.955  35.791   3.688
60288W        W30888  31.675  36.338  10.609
60289W        W30889  30.918  26.130  11.942
60290W        W30890  14.188   1.201   1.733
60291W        W30891  33.928  11.162   2.721
60292W        W30892   5.918  17.744   1.609
60293W        W30893  26.153  27.566  12.954
60294W        W30894  32.324  21.141   3.268
60295W        W30895  27.097   0.860   4.726
60296W        W30896  23.912  31.292  10.792
60297W        W30897   7.284  30.712  13.274
60298W        W30898  27.042   7.441  13.480
60299W        W30899   6.465  29.681   2.259
60300W        W30900  15.602  41.912   2.149
60301W        W30901  42.417  13.103   2.798
60302W        W30902  18.590  14.905  14.745
60303W        W30903  23.940  17.304  13.087
60304W        W30904  18.028  12.794  12.988
60305W        W30905   7.151  21.783  13.450
60306W        W30906  13.359   3.687  10.523
60307W        W30907  38.923  35.369  11.571
60308W        W30908  20.807  14.745  12.672
60309W        W30909  32.924   0.194  14.880
60310W        W30910  36.805  24.007  13.938
60311W        W30911  22.053  35.555  12.516
60312W        W30912  34.057  10.732   0.721
60313W        W30913  34.579  39.813   1.778
60314W        W30914  25.792  24.729   0.666
60315W        W30915   4.114   1.717   1.438
60316W        W30916  25.025  23.754   4.606
60317W        W30917  10.757  26.063   3.787
60318W        W30918  32.844  31.167   1.229
60319W        W30919   9.690  22.933   3.235
60320W        W30920  12.252   0.366  11.488
60321W        W30921  19.983   4.021   4.189
60322W        W30922  36.683  44.810   1.304
60323W        W30923  15.690   4.864  11.562
60324W        W30924   6.304  33.484   3.383
60325W        W30925  42.990  38.655   5.179
60326W        W30926  22.835  36.105   3.623
60327W        W30927  25.940  20.773  14.260
60328W        W30928  37.538  34.581  12.077
60329W        W30929  28.081  39.335  14.336
60330W        W30930  14.568  36.479   4.116
60331W        W30931  25.186  28.096  13.461
60332W        W30932  34.408  21.970   3.746
60333W        W30933  30.425  28.535  11.635
60334W        W30934  39.041  15.555  10.358
60335W        W30935  31.121  26.565  11.729
60336W        W30936  40.957  35.047  10.972
60337W        W30937  43.544   7.756  14.092
60338W        W30938  11.073  16.452   4.796
60339W        W30939   9.166  23.492  14.346
60340W        W30940   8.133  44.297  10.553
60341W        W30941  25.145   3.324  13.623
60342W        W30942  44.354  17.029   3.645
60343W        W30943   1.986  43.431   1.959
60344W        W30944  31.593  14.853  12.441
60345W        W30945  28.873  23.454  11.207
60346W        W30946   9.336  14.891   1.790
60347W        W30947   0.688  24.395  13.427
60348W        W30948  19.276  40.897  12.569
60349W        W30949  24.869  11.665   1.737
60350W        W30950  42.467  40.358   1.671
60351W        W30951  22.844  21.247  12.147
60352W        W30952  17.135  39.551   4.244
60353W        W30953  27.052  33.275   2.432
60354W        W30954  43.698  32.136  10.675
60355W        W30955  33.894   6.288  11.237
60356W        W30956   7.646   2.944   4.077
60357W        W30957  32.430  17.672  14.824
60358W        W30958  19.308  27.742  14.702
60359W        W30959  42.888   6.281   2.426
60360W        W30960  34.668  24.725   2.364
60361W        W30961  13.757  36.661  11.444
60362W        W30962  10.125  36.087   0.823
60363W        W30963   7.273  15.708  13.048
60364W        W30964  31.611  16.655   0.337
60365W        W30965   1.764  35.473  13.381
60366W        W30966  14.601  43.911  12.596
60367W        W30967  24.780  19.047  11.674
60368W        W30968  25.065  28.087   2.403
60369W        W30969   9.547  28.668  11.666
60370W        W30970  34.019  35.866  12.538
60371W        W30971  34.185   9.631  14.843
60372W        W30972  14.014   0.549   1.240
60373W        W30973  23.891  23.089   1.793
60374W        W30974  15.310   5.414  11.066
60375W        W30975   2.026   7.127  11.250
60376W        W30976  16.458  35.126   1.355
60377W        W30977  24.564  30.021  12.958
60378W        W30978  39.900  18.538  13.248
60379W        W30979  28.985   2.520   1.808
60380W        W30980  34.931  19.730   2.389
60381W        W30981  13.373  39.983   0.936
60382W        W30982  13.467   9.811   1.756
60383W        W30983  42.823  35.703  12.863
60384W        W30984  15.473  21.280   0.648
60385W        W30985   5.324   4.512   2.782
60386W        W30986  16.175  20.813  13.088
60387W        W30987  33.511  33.991   0.746
60388W        W30988  27.873   1.581  11.165
60389W        W30989  37.668  44.306   2.044
60390W        W30990  34.050   6.375  14.982
60391W        W30991  35.758  44.032  13.783
60392W        W30992  38.303   7.213   5.085
60393W        W30993  14.801  16.586  12.603
60394W        W30994  30.076  26.997   2.707
60395W        W30995  21.507  39.413   1.210
60396W        W30996  18.522  22.167   4.259
60397W        W30997  39.006  17.092  12.219
60398W        W30998  26.952  43.437   2.700
60399W        W30999  26.388  39.315  11.175
60400W        W31000  19.687  38.767  11.617
60401W        W31001   2.843   7.733  11.434
60402W        W31002  37.574  32.928   3.145
60403W        W31003  13.813  32.633   0.813
60404W        W31004  28.175  19.360  10.456
60405W        W31005  37.475  42.296  13.816
60406W        W31006   0.490  41.060  10.704
60407W        W31007  41.385   2.614   1.814
60408W        W31008  44.980  24.995  11.814
60409W        W31009  25.211  39.430   4.447
60410W        W31010  42.426   4.418   1.289
60411W        W31011  39.885  25.978  11.989
60412W        W31012  13.206   4.260   4.706
60413W        W31013  31.197  33.629  11.818
60414W        W31014  33.394  35.323  14.470
60415W        W31015   7.418   8.185   1.166
60416W        W31016   6.945  20.792  11.681
60417W        W31017  19.078  43.848   4.328
60418W        W31018  40.619  36.709   0.766
60419W        W31019  16.356  30.708   4.981
60420W        W31020  21.771   4.814   4.547
60421W        W31021   2.358  34.988   0.984
60422W        W31022  27.538  35.059   4.390
60423W        W31023  16.627  23.349   0.244
60424W        W31024  36.912  25.922  10.510
60425W        W31025  37.979  40.614   4.465
60426W        W31026   2.604  37.530  11.976
60427W        W31027  14.681  30.560   2.672
60428W        W31028  33.446   9.831  12.849
60429W        W31029  38.342  37.475   0.987
60430W        W31030  40.823  34.535   1.316
60431W        W31031  18.003   8.846  13.478
60432W        W31032  44.333   1.724   2.306
60433W        W31033  27.990  44.408  11.405
60434W        W31034  42.477  27.130  11.974
60435W        W31035  44.359  11.414  10.507
60436W        W31036  12.106  31.840  12.074
60437W        W31037  41.539   0.873   3.177
60438W        W31038  18.108  24.740  11.615
60439W        W31039  36.616  11.769   1.720
60440W        W31040   3.420   5.643  11.459
60441W        W31041  25.230  26.447  14.635
60442W        W31042   7.978  16.311   1.789
60443W        W31043   8.725  28.141  11.610
60444W        W31044   8.716   4.898   3.504
60445W        W31045  37.299  38.013  14.801
60446W        W31046   3.311  11.941  13.796
60447W        W31047  26.541   6.223  14.061
60448W        W31048  40.872   3.342  13.383
60449W        W31049   2.388  21.780  14.713
60450W        W31050   9.709  36.872   1.908
60451W        W31051  13.696  15.128  13.392
60452W        W31052   7.200  32.080   0.899
60453W        W31053  23.523  40.074   0.248
60454W        W31054   7.623  12.972   1.094
60455W        W31055  40.318  29.714  10.658
60456W        W31056   7.435  17.614  13.599
60457W        W31057   5.717   0.285  13.827
60458W        W31058  22.223   3.880   4.591
60459W        W31059  20.759  34.488  13.500
60460W        W31060   7.244  19.199   3.830
60461W        W31061   4.678   5.293   1.981
60462W        W31062   5.742  21.183  12.620
60463W        W31063   5.799  32.961   0.385
60464W        W31064  21.959   5.236  11.494
60465W        W31065  18.104  40.281   2.448
60466W        W31066   2.149  20.614   1.203
60467W        W31067   7.214  30.536   2.338
60468W        W31068  12.617  24.176   0.880
60469W        W31069  30.869   7.069  12.961
60470W        W31070  31.901  25.171  13.864
60471W        W31071   0.483  18.141   0.747
60472W        W31072  20.733  24.722   3.616
60473W        W31073  17.104   5.328  13.464
60474W        W31074   0.214  10.486  14.322
60475W        W31075  16.845  16.913  11.980
60476W        W31076  13.283  29.633  14.967
60477W        W31077  22.030  41.411  11.695
60478W        W31078   6.190  33.073  14.437
60479W        W31079  35.066   1.796   2.771
60480W        W31080  10.731  32.851   3.360
60481W        W31081  20.043  12.378   3.411
60482W        W31082  12.775   6.883  12.654
60483W        W31083  25.654  23.656   1.699
60484W        W31084   9.806   7.178   0.414
60485W        W31085  33.476   7.095  11.012
60486W        W31086   2.939  37.554  12.364
60487W        W31087  32.357  34.125  12.443
60488W        W31088  17.079  32.561  13.883
60489W        W31089   4.057  37.712  10.213
60490W        W31090  29.171   4.160   3.251
60491W        W31091  17.821  13.885   1.453
60492W        W31092  21.660  13.365  10.693
60493W        W31093  29.632  14.337   3.124
60494W        W31094  19.963  27.694   1.892
60495W        W31095  15.254   1.190   1.823
60496W        W31096  25.541  13.597   1.466
60497W        W31097  29.662   2.663  13.926
60498W        W31098  30.741  24.736   4.333
60499W        W31099  16.634   1.819  13.462
60500W        W31100  18.646   7.903  10.465
60501W        W31101  40.580   0.785  11.933
60502W        W31102  22.582  18.573   3.282
60503W        W31103   8.617   7.130   1.421
60504W        W31104  24.801  32.096   1.787
60505W        W31105  30.855   3.394   0.314
60506W        W31106   6.489  21.212   1.680
60507W        W31107  36.299  37.603   0.176
60508W        W31108   6.376   5.274  11.516
60509W        W31109  13.080   8.909   1.700
60510W        W31110  29.006  19.367  10.923
60511W        W31111  12.067  31.079   2.780
60512W        W31112   1.716   8.392   4.612
60513W        W31113   4.191  10.868   1.340
60514W        W31114   7.665  42.002  11.059
60515W        W31115  44.364   3.728   3.204
60516W        W31116  19.483  33.819  11.644
60517W        W31117   0.041  33.509  11.728
60518W        W31118  19.640  37.919   3.661
60519W        W31119  23.646   5.785   3.994
60520W        W31120  31.553  18.137  10.764
60521W        W31121  43.877  25.711   0.903
60522W        W31122  36.920  19.602   2.736
60523W        W31123  25.603   5.810   4.564
60524W        W31124  28.249   7.885  11.479
60525W        W31125  35.900   8.047   2.680
60526W        W31126  43.460   7.746  10.202
60527W        W31127  26.414  39.054   3.296
60528W        W31128  31.986  16.230  11.433
60529W        W31129  21.080  34.775   3.201
60530W        W31130  39.695  22.893   2.946
60531W        W31131   3.636   1.527  14.767
60532W        W31132  19.598  27.297  14.711
60533W        W31133  10.667  23.979   3.222
60534W        W31134  10.228  21.954  13.859
60535W        W31135  19.126  34.062  10.796
60536W        W31136   9.631  23.189  13.280
60537W        W31137  14.333  36.883   2.189
60538W        W31138  32.572  19.821  12.420
60539W        W31139  33.567  22.753   3.276
60540W        W31140  11.221  30.549  14.324
60541W        W31141  41.130  27.712   3.676
60542W        W31142  11.086  29.462   3.898
60543W        W31143   9.280   2.666  12.532
60544W        W31144  27.441  44.408   4.325
60545W        W31145  26.880  30.020   3.721
60546W        W31146  11.420  19.755  11.128
60547W        W31147  21.203  15.871  14.107
60548W        W31148  44.253  12.309   3.249
60549W        W31149  44.068  12.715  14.344
60550W        W31150  26.325   4.397   0.528
60551W        W31151  18.247  13.548  11.500
60552W        W31152  34.377  39.357  13.833
60553W        W31153  11.871   9.589   0.838
60554W        W31154   7.854  42.950  12.097
60555W        W31155   0.637  27.660   2.718
60556W        W31156  12.886  40.323  10.359
60557W        W31157  38.077  28.078   4.704
60558W        W31158  40.377  43.537   4.811
60559W        W31159  14.857   0.833   3.593
60560W        W31160   9.724  37.712  10.354
60561W        W31161  20.777  41.896   0.689
60562W        W31162  24.857  21.583  12.991
60563W        W31163   4.647  32.648   3.312
60564W        W31164  23.944   3.040  10.624
60565W        W31165   2.238  23.331   1.141
60566W        W31166  13.705  36.354   4.379
60567W        W31167  23.682   0.944   1.747
60568W        W31168  33.521  38.501  14.455
60569W        W31169   0.530  41.836   2.788
60570W        W31170  21.097  23.786   2.245
60571W        W31171  40.160  18.188   3.819
60572W        W31172  34.186  40.262  13.905
60573W        W31173  31.752  10.545  11.517
60574W        W31174  28.038  26.652  12.910
60575W        W31175  20.332  36.395  12.597
60576W        W31176  10.607  35.687   4.405
60577W        W31177  25.108  25.208   4.313
60578W        W31178   4.098  18.078   5.059
60579W        W31179  15.861  39.126  13.846
60580W        W31180  27.998  43.048  10.211
60581W        W31181  37.278  20.539  11.105
60582W        W31182  23.161  33.954  10.053
60583W        W31183   9.077   6.267  12.450
60584W        W31184  21.268  20.097   4.155
60585W        W31185  20.848  35.529  11.561
60586W        W31186  29.379  29.649   2.307
60587W        W31187   5.026  27.023   3.785
60588W        W31188  13.233  26.625   2.373
60589W        W31189  42.247  22.264   3.693
60590W        W31190  32.151  19.313   3.188
60591W        W31191  12.736  27.806   0.926
60592W        W31192   5.167   9.335   2.805
60593W        W31193  15.748  12.343   9.784
60594W        W31194  39.858   5.246   2.284
60595W        W31195  27.778   3.371   4.643
60596W        W31196  18.635   8.285   1.168
60597W        W31197   1.026  23.573   3.424
60598W        W31198  33.432  38.006  13.246
60599W        W31199   3.867  18.778   2.371
60600W        W31200   3.982  35.501  12.885
60601W        W31201  44.863  13.060  12.915
60602W        W31202  24.280  40.833  11.184
60603W        W31203  35.399  31.593  14.292
60604W        W31204  43.663  25.590  12.120
60605W        W31205   9.870  26.461   3.735
60606W        W31206  12.006  33.960  13.423
60607W        W31207  39.973  21.291   1.416
60608W        W31208   9.154   1.759   0.912
60609W        W31209  20.653  10.389   3.687
60610W        W31210  18.545  38.333   4.604
60611W        W31211  33.080  18.284  12.445
60612W        W31212  22.812  14.903   2.862
60613W        W31213  32.657   2.153   4.613
60614W        W31214  38.799  35.934   2.782
60615W        W31215  12.148  42.750   0.028
60616W        W31216  21.850   2.141   1.362
60617W        W31217  39.963   7.936   0.777
60618W        W31218  42.691  24.543  12.365
60619W        W31219  33.670  24.172   1.776
60620W        W31220   1.577  18.238  12.347
60621W        W31221   4.991  39.575  11.177
60622W        W31222   8.244  21.175  10.783
60623W        W31223  31.518   9.601   1.741
60624W        W31224  11.316   2.982  11.984
60625W        W31225  38.176  17.627   4.207
60626W        W31226  16.137   9.146  10.548
60627W        W31227  40.293  41.087   1.185
60628W        W31228   4.949  29.990   1.861
60629W        W31229   1.442  17.629   1.605
60630W        W31230  40.942   4.883  12.487
60631W        W31231  21.333  38.406  12.461
60632W        W31232  26.368  24.024  14.558
60633W        W31233  15.918  19.224   0.370
60634W        W31234   3.780  27.094   2.251
60635W        W31235   3.474  31.083   0.974
60636W        W31236   7.634  23.643   0.931
60637W        W31237  41.206  37.757   2.713
60638W        W31238  23.552  14.189  13.383
60639W        W31239  18.094  12.885  10.950
60640W        W31240   8.746  14.690   4.320
60641W        W31241  34.552  39.040   0.553
60642W        W31242   5.119  27.559  12.310
60643W        W31243  35.361   8.792   1.265
60644W        W31244  18.526  42.940  11.098
60645W        W31245  20.657  19.547  12.893
60646W        W31246  19.310  32.154  13.366
60647W        W31247  10.824   5.374   3.718
60648W        W31248  16.123  18.912   3.695
60649W        W31249  37.862  27.466  12.424
60650W        W31250  14.776  26.875  11.140
60651W        W31251  31.921  25.506  13.443
60652W        W31252  10.803  24.697   3.874
60653W        W31253   1.814   9.707  12.536
60654W        W31254  24.475  23.586   3.281
60655W        W31255  19.532  16.410  14.876
60656W        W31256   6.488  43.951  13.315
60657W        W31257  17.196  14.082   1.490
60658W        W31258  14.726  36.531  11.744
60659W        W31259  28.165  20.428   2.857
60660W        W31260  33.555  39.344  14.998
60661W        W31261  19.075  11.801   3.132
60662W        W31262   2.202  34.117   2.311
60663W        W31263   7.981   5.713   3.579
60664W        W31264  33.810   1.277   0.377
60665W        W31265  31.561   9.695   4.558
60666W        W31266  41.950  10.905   2.214
60667W        W31267   4.115  15.637   1.382
60668W        W31268  30.590  28.563   1.403
60669W        W31269  39.909  34.626   3.906
60670W        W31270  19.176  11.258   3.796
60671W        W31271  19.038  34.675  12.077
60672W        W31272   4.754  41.776   3.217
60673W        W31273  41.224  32.755  13.608
60674W        W31274  39.397  12.038  14.961
60675W        W31275  43.121  24.070  13.636
60676W        W31276   9.328   8.729  13.844
60677W        W31277  15.319  22.634   1.576
60678W        W31278  34.063  37.789  13.970
60679W        W31279  29.077  29.734  12.431
60680W        W31280   7.723  32.374   3.642
60681W        W31281  11.656  16.151  13.977
60682W        W31282  19.037  36.987  12.610
60683W        W31283  23.359  40.296  12.985
60684W        W31284   2.371  31.711  14.661
60685W        W31285  22.760  28.641  10.283
60686W        W31286  40.173  14.120  11.881
60687W        W31287   2.977  19.100  14.706
60688W        W31288  31.003  13.839   0.864
60689W        W31289  38.619  21.087   3.156
60690W        W31290  32.674  19.209   2.290
60691W        W31291  28.963  35.801  11.387
60692W        W31292   7.195  22.726   5.085
60693W        W31293  14.842  33.411   2.180
60694W        W31294  20.257  17.184   4.646
60695W        W31295  14.905  39.468   3.286
60696W        W31296  22.556   3.865   1.442
60697W        W31297   9.103  25.217  12.107
60698W        W31298  10.136  29.168   4.890
60699W        W31299  29.572  14.112   1.320
60700W        W31300  27.654   4.736  13.551
60701W        W31301   2.808  24.666  13.831
60702W        W31302  41.890  24.295  13.948
60703W        W31303   3.516   8.361  11.836
60704W        W31304  25.938  28.103   3.689
60705W        W31305  42.417   5.722   3.043
60706W        W31306   1.677  41.566   4.358
60707W        W31307  18.482   1.492  11.559
60708W        W31308  15.268  38.598  14.416
60709W        W31309  21.058   5.343   4.956
60710W        W31310  28.485  26.528  13.889
60711W        W31311   8.316  23.407  14.010
60712W        W31312  42.965  40.314  10.800
60713W        W31313  14.860   5.130  12.411
60714W        W31314  39.163  19.726  10.722
60715W        W31315  35.489   0.476  13.300
60716W        W31316  38.054  21.592  14.376
60717W        W31317  17.937   4.451  14.966
60718W        W31318  25.667  34.383  13.993
60719W        W31319  37.939  23.896  12.415
60720W        W31320  36.506  22.107  12.468
60721W        W31321  14.702  29.263   2.277
60722W        W31322  23.984  25.483  14.906
60723W        W31323   6.705  21.619   1.954
60724W        W31324   4.412  41.562  12.806
60725W        W31325  30.976  25.494   2.817
60726W        W31326  18.183  37.836  11.884
60727W        W31327  42.941   9.875  12.053
60728W        W31328  36.562  25.007  10.682
60729W        W31329  16.873  15.289  14.182
60730W        W31330  29.604  16.409   0.461
60731W        W31331  18.037  28.652   1.258
60732W        W31332  18.733   8.002   2.431
60733W        W31333  31.220   6.839  13.370
60734W        W31334  43.778  13.502  12.146
60735W        W31335  30.200  40.304   2.687
60736W        W31336  39.272  17.940  10.907
60737W        W31337  10.212  11.431   1.210
60738W        W31338  14.538  38.999   2.189
60739W        W31339  11.270   1.505   4.869
60740W        W31340   9.713  20.884  11.129
60741W        W31341   3.947  39.547  10.949
60742W        W31342   9.973  44.415   3.090
60743W        W31343  24.844  37.461   3.647
60744W        W31344  16.939  25.995  14.414
60745W        W31345  16.547  44.714   2.171
60746W        W31346   9.631  32.421   3.162
60747W        W31347  35.376  42.689  14.307
60748W        W31348  20.695   0.430  11.193
60749W        W31349  10.391   9.200   1.182
60750W        W31350  40.723  24.722  11.559
60751W        W31351   8.711  43.519   1.008
60752W        W31352   3.318  23.780  13.859
60753W        W31353  25.640  19.983  12.731
60754W        W31354  39.038  15.130   9.999
60755W        W31355  39.072  42.423  14.565
60756W        W31356  27.144  26.768   0.753
60757W        W31357  42.380   9.805   3.691
60758W        W31358  34.935   2.457  14.495
60759W        W31359   7.391  21.758   0.869
60760W        W31360  16.810  43.020   0.250
60761W        W31361  14.100  26.573  13.056
60762W        W31362  43.497  36.463   4.505
60763W        W31363  28.877  37.278   3.937
60764W        W31364  33.833  19.728   4.606
60765W        W31365  20.689  41.516  12.948
60766W        W31366  23.776  39.374  14.539
60767W        W31367  10.645   6.872   2.275
60768W        W31368  21.580  19.698   2.586
60769W        W31369  36.330  38.544   4.564
60770W        W31370   4.740  30.214   1.402
60771W        W31371   6.084  44.790   0.378
60772W        W31372  12.657   1.832   0.518
60773W        W31373  31.760  14.718   3.681
60774W        W31374  21.066  15.078  14.725
60775W        W31375   3.811   8.843  11.227
60776W        W31376  19.193  14.316   2.273
60777W        W31377  11.312  25.085   3.960
60778W        W31378  40.421   1.250  13.404
60779W        W31379  27.687  28.724   0.189
60780W        W31380  10.845  14.205  12.978
60781W        W31381  30.643  11.632  11.553
60782W        W31382  42.818  27.611  14.222
60783W        W31383   0.405  30.446  14.538
60784W        W31384  15.879   9.270  11.141
60785W        W31385  12.614  27.611   0.476
60786W        W31386  39.331   5.328   2.436
60787W        W31387  34.841  28.817  12.950
60788W        W31388   8.311  41.168  14.409
60789W        W31389  40.461  24.206  14.724
60790W        W31390  31.928  22.171   3.168
60791W        W31391  29.003  17.075  11.029
60792W        W31392   1.492  23.585   2.297
60793W        W31393  27.852  33.254   3.315
60794W        W31394  25.791  23.097   4.776
60795W        W31395  37.063  17.059  14.529
60796W        W31396  44.516  20.280   0.883
60797W        W31397  30.153  10.306   1.790
60798W        W31398  15.665  32.484   4.764
60799W        W31399  39.596  37.903   0.864
60800W        W31400  33.546  17.466  12.256
60801W        W31401  22.716  22.944   3.671
60802W        W31402  10.233  41.358  10.731
60803W        W31403  37.797  36.672   0.880
60804W        W31404   6.126   7.731  10.232
60805W        W31405  32.361   7.567  11.945
60806W        W31406  23.125   4.367   2.019
60807W        W31407   4.524  41.942   3.741
60808W        W31408  21.444   7.773  12.907
60809W        W31409  33.663   2.129  14.813
60810W        W31410  17.414   8.865   4.289
60811W        W31411  14.167  39.376  11.163
60812W        W31412  22.418  18.819   4.719
60813W        W31413  17.141  30.965  14.625
60814W        W31414  40.882   4.317  13.764
60815W        W31415  34.071  23.500  13.647
60816W        W31416   8.383  22.295   2.239
60817W        W31417  36.304  42.275  11.149
60818W        W31418  23.554   4.400  10.702
60819W        W31419  42.961   1.170  14.074
60820W        W31420  27.009  23.234  14.679
60821W        W31421   0.249  42.242   2.552
60822W        W31422  39.258  40.824   0.242
60823W        W31423  27.493   6.393  10.740
60824W        W31424   1.575   7.419   1.335
60825W        W31425   7.730   0.598   2.239
60826W        W31426   5.897  21.963   4.262
60827W        W31427  27.549  26.899  12.116
60828W        W31428  34.819  12.024   0.047
60829W        W31429  38.490  27.287   1.356
60830W        W31430  39.562  29.201   1.388
60831W        W31431  35.338  37.352  12.915
60832W        W31432  32.079  36.287  14.393
60833W        W31433  15.292  28.905   1.803
60834W        W31434   4.703   9.926   3.141
60835W        W31435   2.460  40.479   0.516
60836W        W31436  18.811  41.341   4.743
60837W        W31437  23.765  38.248  12.145
60838W        W31438  10.481   0.751  10.350
60839W        W31439  33.720  36.870   2.785
60840W        W31440  44.874  40.812   1.654
60841W        W31441  34.840   1.978  14.297
60842W        W31442  42.865  24.126  12.606
60843W        W31443  43.960   5.987   3.774
60844W        W31444  30.004  17.006  12.455
60845W        W31445  13.167  20.254   1.405
60846W        W31446  32.134  12.101   3.729
60847W        W31447  32.470   5.231   0.471
60848W        W31448  17.165  27.957   1.376
60849W        W31449  15.151   2.244  11.178
60850W        W31450  30.911  26.583  13.476
60851W        W31451   2.734   8.816   4.062
60852W        W31452   5.457  43.063  13.424
60853W        W31453   7.862   0.047   1.175
60854W        W31454  44.667  36.915   2.794
60855W        W31455   0.269  13.924  13.844
60856W        W31456  31.575  29.541   4.428
60857W        W31457  38.243   1.005   1.443
60858W        W31458   6.898   7.576  10.694
60859W        W31459  29.375  42.053   0.640
60860W        W31460  14.608  27.249  10.758
60861W        W31461  16.604  27.411   3.208
60862W        W31462   9.939  24.538  12.661
60863W        W31463   1.706  31.960  14.492
60864W        W31464  23.145  43.428   5.153
60865W        W31465  21.460   7.790   0.529
60866W        W31466  37.461   5.259  10.518
60867W        W31467  42.114  34.650   0.745
60868W        W31468  37.510  32.428   1.840
60869W        W31469  12.299  36.554   4.155
60870W        W31470  41.118  31.236  13.053
60871W        W31471  36.043   3.540  12.649
60872W        W31472  43.398  21.994  12.898
60873W        W31473  30.821  31.410  11.053
60874W        W31474  30.685  17.066   0.965
60875W        W31475  43.330  18.189  14.498
60876W        W31476  26.247  17.762  14.445
60877W        W31477  13.720  23.226   4.969
60878W        W31478   6.913  16.807   0.194
60879W        W31479   2.827   0.314   1.047
60880W        W31480  26.485  28.439   1.081
60881W        W31481  10.296  19.779  12.189
60882W        W31482  26.059  31.518  10.579
60883W        W31483  44.224  15.263  12.994
60884W        W31484  14.547  24.240   0.697
60885W        W31485   2.395   9.356  14.050
60886W        W31486  34.957  34.630   4.181
60887W        W31487  37.746  22.517   1.780
60888W        W31488  42.831   7.013   1.310
60889W        W31489  25.225  12.617  11.694
60890W        W31490  12.188   2.846   3.741
60891W        W31491  23.740  31.986  13.736
60892W        W31492  19.976  44.499   2.842
60893W        W31493  31.784  15.266  11.148
60894W        W31494  31.734  25.688   4.187
60895W        W31495  22.063  33.673   0.934
60896W        W31496  32.595   9.828  11.947
60897W        W31497   1.694   0.361  12.485
60898W        W31498  37.854  34.775   4.535
60899W        W31499  26.486  40.131   2.893
60900W        W31500  11.370  37.436   4.509
60901W        W31501  29.603  24.496  10.918
60902W        W31502  42.620  14.111   1.640
60903W        W31503  29.601  24.770   1.255
60904W        W31504   9.890  11.590  11.244
60905W        W31505  37.420  13.069  12.608
60906W        W31506  33.548   3.796  11.597
60907W        W31507  14.560  25.439   1.870
60908W        W31508  31.545  42.170  14.793
60909W        W31509  12.530  40.166   3.662
60910W        W31510  42.827  13.073  12.058
60911W        W31511  20.496  18.308   2.890
60912W        W31512  12.718  31.024  14.367
60913W        W31513  43.752  15.676  13.312
60914W        W31514  26.465  34.803  10.799
60915W        W31515   8.213  29.656   1.963
60916W        W31516  21.669   7.409  14.320
60917W        W31517  14.365  44.359   2.175
60918W        W31518  21.274  16.903  13.378
60919W        W31519  25.930  32.355   4.251
60920W        W31520  15.201  13.726   0.801
60921W        W31521  42.779  15.875   4.555
60922W        W31522   7.558  32.278   0.283
60923W        W31523  22.937  33.537  10.303
60924W        W31524   8.619  20.534   2.116
60925W        W31525  24.831  36.038   0.951
60926W        W31526   7.366  41.264   3.694
60927W        W31527   9.722  39.410   0.023
60928W        W31528  10.857  23.451  11.152
60929W        W31529   6.211   4.330  13.864
60930W        W31530  36.072  34.536   1.784
60931W        W31531   2.788  29.024  14.458
60932W        W31532  15.610  16.373  10.153
60933W        W31533  26.844   2.174   2.631
60934W        W31534  15.842  34.444   0.185
60935W        W31535  28.054  38.843  11.477
60936W        W31536   5.357  23.551   4.670
60937W        W31537  11.116   9.192  12.985
60938W        W31538  26.894  30.648   4.409
60939W        W31539  23.921  14.710   4.572
60940W        W31540  38.795  41.294  13.533
60941W        W31541  37.878  31.561   0.274
60942W        W31542   8.984  34.478   1.985
60943W        W31543   8.722   8.684   0.339
60944W        W31544  26.821  32.007  14.037
60945W        W31545  41.455   5.980   3.289
60946W        W31546  14.148  16.864   3.259
60947W        W31547   0.935  30.598  12.937
60948W        W31548   0.344  33.768  10.759
60949W        W31549  32.902  18.584  11.522
60950W        W31550  29.732  14.576  10.776
60951W        W31551  29.375  22.303   1.365
60952W        W31552  38.511  39.935   2.103
60953W        W31553  15.830  35.119   2.365
60954W        W31554   5.908  25.278  14.515
60955W        W31555  20.626  25.149  10.760
60956W        W31556  42.725  18.320  11.938
60957W        W31557   1.394  24.075   0.397
60958W        W31558   8.848  40.955   3.855
60959W        W31559  16.112  39.886   0.749
60960W        W31560  23.303  24.138  13.809
60961W        W31561  41.730  28.632   4.271
60962W        W31562  27.659  37.470  10.410
60963W        W31563  21.791  38.987   1.230
60964W        W31564  31.012  26.963   2.782
60965W        W31565  40.190  17.822  13.894
60966W        W31566  15.614  31.141   0.986
60967W        W31567  30.917  23.619   4.922
60968W        W31568  39.587  26.533  14.211
60969W        W31569  21.675  44.668  14.896
60970W        W31570  36.584  14.507  14.546
60971W        W31571   5.760  27.406  13.958
60972W        W31572  30.887  10.641   1.414
60973W        W31573  23.457   7.164   0.011
60974W        W31574  10.049   1.437   0.772
60975W        W31575  27.664   8.786  12.122
60976W        W31576   7.727  20.527  12.378
60977W        W31577  28.009   7.331   3.753
60978W        W31578  30.714  24.363  12.135
60979W        W31579   3.296  22.496  14.560
60980W        W31580  29.628  23.550   4.246
60981W        W31581   5.101  43.263  13.103
60982W        W31582  41.372   9.637   1.847
60983W        W31583  34.154  14.298   4.137
60984W        W31584  25.203  34.366   4.591
60985W        W31585   8.236   6.847   4.525
60986W        W31586  12.213   8.066  14.286
60987W        W31587   8.438  27.279   1.984
60988W        W31588  36.416  39.736   4.495
60989W        W31589  36.841  14.226  10.310
60990W        W31590  31.946  41.893   3.237
60991W        W31591  30.366  41.439   2.523
60992W        W31592   9.127  37.529  13.020
60993W        W31593  33.802   1.808   4.187
60994W        W31594  21.956  15.165  10.733
60995W        W31595  34.432  10.384   2.820
60996W        W31596  11.211  31.368   2.390
60997W        W31597  35.732  43.929  12.995
60998W        W31598  38.577   9.653   0.286
60999W        W31599  25.541  34.550   1.621
61000W        W31600  22.174  26.626   4.176
61001W        W31601   8.326   6.641  14.346
61002W        W31602  14.446  11.866   1.948
61003W        W31603  19.101   5.829   1.737
61004W        W31604  43.146  31.617  11.270
61005W        W31605  10.768  17.889   4.166
61006W        W31606  29.961  29.930  10.790
61007W        W31607  40.941  27.557  13.876
61008W        W31608  14.496  26.880   2.424
61009W        W31609  18.393   2.037   5.040
61010W        W31610  19.776  41.579  14.167
61011W        W31611  10.163   5.782  14.310
61012W        W31612  36.436  11.577   0.258
61013W        W31613  44.440  23.674  12.600
61014W        W31614  39.884  11.333   4.347
61015W        W31615   8.392  22.229  12.962
61016W        W31616  36.570  44.259   2.888
61017W        W31617  33.966   7.909  12.902
61018W        W31618   6.986  22.750   3.741
61019W        W31619  12.420  17.660   0.323
61020W        W31620   7.152  44.795   1.805
61021W        W31621  21.480  35.064   2.956
61022W        W31622  36.927  13.046  14.321
61023W        W31623   8.496  44.335  11.387
61024W        W31624   4.463   1.219   0.200
61025W        W31625  27.010   5.954  13.531
61026W        W31626  23.034  33.549  11.322
61027W        W31627   0.716  31.408   4.956
61028W        W31628  21.192  26.609  10.131
61029W        W31629  12.933   1.950   1.396
61030W        W31630  16.812  34.341   0.470
61031W        W31631  44.004  37.750  12.909
61032W        W31632  31.423  32.650  10.745
61033W        W31633   1.212  41.592  13.022
61034W        W31634  34.799  34.408  12.915
61035W        W31635  25.637   3.852   3.760
61036W        W31636  16.689   5.491  14.956
61037W        W31637   1.016  35.088  12.011
61038W        W31638  39.491  42.497  11.926
61039W        W31639  21.710  18.119  10.492
61040W        W31640  19.824  10.628  14.875
61041W        W31641  38.931  33.584   5.224
61042W        W31642  35.427   4.365  13.509
61043W        W31643  36.101   4.705  14.398
61044W        W31644   1.787  22.649   4.410
61045W        W31645  27.622   4.437   1.042
61046W        W31646  35.938  22.693   4.075
61047W        W31647  33.781  23.655  10.697
61048W        W31648  27.495   1.406  14.009
61049W        W31649   7.817   0.819  13.529
61050W        W31650   5.146  33.631   1.843
61051W        W31651  40.033   9.914  11.295
61052W        W31652  31.806  43.262   2.296
61053W        W31653  12.627  40.562   3.328
61054W        W31654  31.589  42.349   0.710
61055W        W31655   1.415  14.546  10.697
61056W        W31656   0.236  11.136  10.715
61057W        W31657  39.999  16.878  10.252
61058W        W31658  23.747  18.057   2.404
61059W        W31659  19.300  42.460   1.716
61060W        W31660   5.225  30.868  10.496
61061W        W31661  13.208   5.997   2.415
61062W        W31662  15.670  17.399   1.720
61063W        W31663   0.856  34.134  13.796
61064W        W31664  16.215  24.134  11.170
61065W        W31665   8.134   2.235  13.528
61066W        W31666  10.646  19.577  11.808
61067W        W31667  38.385  41.056  13.317
61068W        W31668  25.876  44.295   4.196
61069W        W31669  21.058  34.485  12.218
61070W        W31670  16.053  10.698  11.898
61071W        W31671   7.961  39.882  14.403
61072W        W31672  10.962  22.692   0.470
61073W        W31673  44.861  25.561   4.179
61074W        W31674  27.195  23.641  13.780
61075W        W31675   0.787   9.267  10.671
61076W        W31676  24.532  19.716  10.724
61077W        W31677  40.213   8.803   4.460
61078W        W31678  13.633   9.208   4.937
61079W        W31679  12.664  13.698  13.138
61080W        W31680   0.939  21.592  14.247
61081W        W31681  35.428  39.997  14.757
61082W        W31682  40.868  31.647  13.332
61083W        W31683  37.321  32.404   0.439
61084W        W31684  43.263   6.611   0.432
61085W        W31685  14.322  26.112   0.964
61086W        W31686  33.068  33.944  12.959
61087W        W31687  18.313  41.994   0.930
61088W        W31688  12.641  42.351   0.490
61089W        W31689  16.073  37.234  10.176
61090W        W31690  31.211  20.129  14.723
61091W        W31691  43.257   3.323  13.255
61092W        W31692  10.288  23.826  10.026
61093W        W31693  26.533  33.460  10.693
61094W        W31694  23.743  13.951  12.950
61095W        W31695   3.719  43.674   3.729
61096W        W31696  21.552   5.466  13.295
61097W        W31697  44.611  21.212  14.585
61098W        W31698  42.573   3.437  10.747
61099W        W31699   2.267  33.113  12.518
61100W        W31700  33.505  20.273   0.403
61101W        W31701  34.363   7.850  10.888
61102W        W31702  20.083  32.880  14.128
61103W        W31703  34.984  13.589  14.914
61104W        W31704  10.800  39.956   0.533
61105W        W31705  34.022  15.029   1.914
61106W        W31706  25.006  26.616  10.790
61107W        W31707  30.163  12.584  11.589
61108W        W31708  31.966  42.737   2.194
61109W        W31709  28.542  35.332   3.742
61110W        W31710  35.031  22.574   2.139
61111W        W31711   2.994  20.713  13.596
61112W        W31712   7.889  17.943   1.876
61113W        W31713   3.714  22.561   1.375
61114W        W31714  44.455  32.170  12.919
61115W        W31715  26.980  28.958   4.080
61116W        W31716  38.240  31.209   0.332
61117W        W31717  40.087  37.252   1.375
61118W        W31718  31.591  31.434  12.998
61119W        W31719   3.669  15.347   0.790
61120W        W31720  31.780  21.272   4.031
61121W        W31721  10.339   6.674   1.421
61122W        W31722  12.613  21.567  13.411
61123W        W31723  28.714  24.922  14.343
61124W        W31724   2.741   7.624   0.977
61125W        W31725  41.648  34.977   0.874
61126W        W31726  15.243  33.328   3.673
61127W        W31727  44.708  32.108  10.526
61128W        W31728  44.752  38.584  14.430
61129W        W31729  41.289  43.756   0.827
61130W        W31730  31.384   2.240   1.919
61131W        W31731  35.997  17.011   1.711
61132W        W31732  16.186  16.668   4.846
61133W        W31733  31.396  44.901   4.635
61134W        W31734  28.652   1.092   2.274
61135W        W31735   5.163  24.121  13.548
61136W        W31736  18.410   9.791   4.005
61137W        W31737   1.092  30.063  14.025
61138W        W31738  30.106  37.995   2.679
61139W        W31739  15.217   3.678   4.139
61140W        W31740  38.995  22.751  11.052
61141W        W31741  33.812  36.908  12.428
61142W        W31742   1.379   9.809   4.684
61143W        W31743  16.381   8.054  13.459
61144W        W31744   9.095   9.271   0.078
61145W        W31745  14.007  39.073   0.121
61146W        W31746  33.586  37.518   4.007
61147W        W31747  14.701  16.331  10.742
61148W        W31748  32.785  18.205  13.962
61149W        W31749  42.763   2.512   0.716
61150W        W31750   3.733  41.927  11.299
61151W        W31751  31.122  32.052  13.065
61152W        W31752  41.476  34.845   2.307
61153W        W31753   4.411  11.505  10.465
61154W        W31754  44.529   9.243   4.186
61155W        W31755  20.300  12.309  12.371
61156W        W31756  12.542  26.593  10.401
61157W        W31757  35.419  11.103   4.173
61158W        W31758  12.816  23.138   1.715
61159W        W31759  10.467  37.400   4.952
61160W        W31760  28.439   8.185  10.956
61161W        W31761  12.477  40.047  13.325
61162W        W31762   6.876  25.019  12.913
61163W        W31763  18.666  31.954   3.399
61164W        W31764  20.654  20.941   3.560
61165W        W31765  20.260  14.609   0.651
61166W        W31766  18.220  29.730  13.483
61167W        W31767  21.579  44.257  13.479
61168W        W31768  42.607  34.596  12.339
61169W        W31769   3.242  38.404   4.222
61170W        W31770  21.083  26.191  12.472
61171W        W31771  42.933   4.168  10.357
61172W        W31772  16.763  17.329   4.665
61173W        W31773  30.115  30.416  11.556
61174W        W31774   1.222  38.642  14.922
61175W        W31775  16.290  36.336  11.092
61176W        W31776  43.757  25.664   4.351
61177W        W31777  14.370  22.796   1.298
61178W        W31778   3.863   3.926   3.115
61179W        W31779   3.709  13.255   4.098
61180W        W31780  25.428  14.638  13.493
61181W        W31781  19.467  35.048   1.208
61182W        W31782  35.519   6.577  14.191
61183W        W31783  18.109  25.243  11.533
61184W        W31784  27.376   5.865   4.148
61185W        W31785   8.882  28.399  11.152
61186W        W31786  24.746   0.442  10.435
61187W        W31787  17.649   2.683  14.977
61188W        W31788  22.083  29.565   2.742
61189W        W31789  22.120   8.900  12.161
61190W        W31790  16.193  44.395   1.381
61191W        W31791   5.227   1.322  10.720
61192W        W31792  39.823  42.713  11.134
61193W        W31793   1.492  36.207  13.965
61194W        W31794  22.533   3.157  13.565
61195W        W31795  40.202  37.049  11.134
61196W        W31796  10.809  15.325   1.835
61197W        W31797  22.002   5.401   0.969
61198W        W31798  18.752  19.721  11.366
61199W        W31799  31.643  14.253   2.867
61200W        W31800  33.143   4.304  12.979
61201W        W31801  15.108  16.307   2.410
61202W        W31802  26.934  34.202  13.027
61203W        W31803  39.252  29.462   3.664
61204W        W31804   1.717   3.846  11.574
61205W        W31805  37.242  30.668  13.614
61206W        W31806  11.826  31.444  10.541
61207W        W31807  13.740  42.874  13.076
61208W        W31808  24.518  42.915  12.705
61209W        W31809  41.800  22.649   0.915
61210W        W31810  31.451  27.605   3.726
61211W        W31811  43.851  15.084   4.694
61212W        W31812   7.391  40.503   4.070
61213W        W31813  21.281  11.212  13.105
61214W        W31814  28.393  17.243   0.699
61215W        W31815  11.320   9.654  13.836
61216W        W31816  28.481  25.137  14.796
61217W        W31817   7.649  10.282  13.532
61218W        W31818  34.671  25.106  11.585
61219W        W31819  17.202  10.266  14.457
61220W        W31820  38.888  37.329   3.193
61221W        W31821  21.590  20.237  11.592
61222W        W31822  20.491  34.422   2.579
61223W        W31823  33.901   7.074   3.963
61224W        W31824  17.106  22.614  12.308
61225W        W31825   5.401  44.217   4.085
61226W        W31826  18.278   9.996   0.539
61227W        W31827  39.453  43.168   1.787
61228W        W31828  17.094  37.261   0.447
61229W        W31829  20.114  30.939   4.605
61230W        W31830  34.472  17.935   4.826
61231W        W31831  29.080  10.161  13.351
61232W        W31832  20.882  25.170  11.956
61233W        W31833  15.640   6.232   1.342
61234W        W31834  29.539  26.108  14.873
61235W        W31835  38.017  29.623   0.838
61236W        W31836  17.529  23.008  14.839
61237W        W31837  29.618  26.092   4.581
61238W        W31838  14.273  44.383   1.651
61239W        W31839  20.006  16.213  14.221
61240W        W31840  13.784  32.798   4.041
61241W        W31841  30.655  29.879   0.934
61242W        W31842  31.163  44.427  10.227
61243W        W31843  16.823  11.045  12.460
61244W        W31844  21.550   1.873  14.349
61245W        W31845  10.169  30.471   1.103
61246W        W31846  12.269   4.359   0.254
61247W        W31847   9.678  21.120   0.493
61248W        W31848  27.431  30.724   2.714
61249W        W31849  31.671   9.329   3.282
61250W        W31850  24.816   4.148  11.960
61251W        W31851  17.693  15.565   0.467
61252W        W31852   0.418  32.395   4.108
61253W        W31853  26.867  14.697  13.371
61254W        W31854  37.438  23.667   1.130
61255W        W31855  39.469  10.145   2.217
61256W        W31856  16.820   6.187   3.692
61257W        W31857  10.040  21.796   4.214
61258W        W31858  38.411  32.680   3.187
61259W        W31859   7.228  26.152  13.271
61260W        W31860  29.176  39.408   4.587
61261W        W31861  43.750  38.109   2.841
61262W        W31862   0.773  11.463  12.376
61263W        W31863  40.384  13.306   0.960
61264W        W31864  43.654  27.232  14.732
61265W        W31865  14.056  25.593  11.580
61266W        W31866  18.932   0.132   0.068
61267W        W31867  40.632   6.784  14.068
61268W        W31868  38.429  20.158   0.833
61269W        W31869   9.658  29.559  11.208
61270W        W31870  31.865  22.142  11.595
61271W        W31871   6.013  44.973  12.060
61272W        W31872  31.392  29.019  14.901
61273W        W31873  13.678  43.384  14.907
61274W        W31874  41.181  11.598  14.445
61275W        W31875  40.548  43.063   4.589
61276W        W31876  13.640   9.564   1.332
61277W        W31877  20.822   6.725  11.669
61278W        W31878  27.653   0.066   0.496
61279W        W31879  44.993  40.494  11.546
61280W        W31880  16.810  40.016  11.555
61281W        W31881  11.239   1.797   0.725
61282W        W31882   9.114  37.034   1.226
61283W        W31883  32.564  22.013  10.738
61284W        W31884  32.096   1.299   4.210
61285W        W31885  44.753  24.539  14.725
61286W        W31886  42.070   3.187   3.640
61287W        W31887  31.602  26.463  12.959
61288W        W31888  13.196  23.519   1.433
61289W        W31889  34.395  17.953  12.417
61290W        W31890  24.036  14.897  13.210
61291W        W31891   2.496  39.400  14.921
61292W        W31892  16.683   4.370  13.444
61293W        W31893  17.487  11.727   2.746
61294W        W31894  42.372  38.869   1.785
61295W        W31895  15.188  42.043   0.842
61296W        W31896   1.729  25.178   2.682
61297W        W31897  25.436  29.198   3.166
61298W        W31898  18.016  38.052   2.799
61299W        W31899   9.850   1.369   2.127
61300W        W31900  17.350   5.909   3.203
61301W        W31901  17.186  20.267  10.384
61302W        W31902  19.025   3.219   0.260
61303W        W31903   7.653   5.211  10.592
61304W        W31904   5.902   1.609   0.474
61305W        W31905   1.722  20.220  10.524
61306W        W31906   9.596   9.651  12.267
61307W        W31907  19.463   4.290  13.991
61308W        W31908  30.835   7.168   1.724
61309W        W31909  31.415  42.570  11.219
61310W        W31910  12.890  31.981  11.607
61311W        W31911  41.968   5.927   2.793
61312W        W31912   6.276  23.484   2.349
61313W        W31913   4.458  35.029   3.704
61314W        W31914  44.527  37.250   2.333
61315W        W31915  37.000  22.757   2.151
61316W        W31916  31.983  36.371   1.552
61317W        W31917  39.013   3.234   2.779
61318W        W31918  43.034  41.510   0.871
61319W        W31919  41.866  21.752  13.317
61320W        W31920  40.526  15.619   1.100
61321W        W31921   8.755  11.884  13.969
61322W        W31922  43.117  18.650  14.366
61323W        W31923  27.970   4.940  12.522
61324W        W31924  10.800  21.432   4.126
61325W        W31925  36.922  33.466   0.473
61326W        W31926  37.927  19.486   5.134
61327W        W31927  15.846  12.602   2.476
61328W        W31928  31.970  24.578   1.392
61329W        W31929  17.639  36.556  11.618
61330W        W31930  33.480   1.081  11.636
61331W        W31931  28.568  37.313  12.064
61332W        W31932  20.575  36.306  13.059
61333W        W31933  31.352  24.794   4.252
61334W        W31934  20.089  23.162  12.805
61335W        W31935  37.290  34.126   3.741
61336W        W31936  22.778  31.718   1.921
61337W        W31937  38.558   8.610   1.496
61338W        W31938  34.923   6.680   1.329
61339W        W31939  20.610  15.085   1.699
61340W        W31940  13.492  16.143  14.811
61341W        W31941  41.961  24.784   4.510
61342W        W31942  40.387  19.182  13.991
61343W        W31943   8.020  17.805  11.409
61344W        W31944  31.563  10.457   2.254
61345W        W31945  43.987  23.059   3.052
61346W        W31946   9.931  38.273   0.808
61347W        W31947   0.250   9.842   2.503
61348W        W31948  24.019  19.337  10.589
61349W        W31949  27.718  29.965   0.856
61350W        W31950   8.587  18.522  14.920
61351W        W31951  42.909  33.932  13.942
61352W        W31952  40.087  30.597  10.740
61353W        W31953  11.132  43.027  11.002
61354W        W31954  28.982   6.286  11.343
61355W        W31955  17.397   7.721  12.513
61356W        W31956  16.310  36.999  10.570
61357W        W31957   3.733   5.357   1.999
61358W        W31958  22.047  43.345  10.693
61359W        W31959   4.390   9.252  14.980
61360W        W31960  27.618   8.598  13.090
61361W        W31961  20.190  35.398   0.954
61362W        W31962  38.521  40.565   2.926
61363W        W31963  29.400   2.205   1.792
61364W        W31964  34.486   6.674  14.986
61365W        W31965  17.256  13.267  10.672
61366W        W31966  18.266  40.064   1.457
61367W        W31967  27.117  37.828  14.637
61368W        W31968   5.661  21.059   1.379
61369W        W31969  17.236  28.864  12.520
61370W        W31970   2.030  40.883   3.670
61371W        W31971  42.850  41.583  12.011
61372W        W31972   6.103  29.548  12.683
61373W        W31973  32.599  19.702   2.576
61374W        W31974  21.557  15.438   0.910
61375W        W31975  37.495  29.228  12.790
61376W        W31976  39.434   5.696  10.669
61377W        W31977  10.376  24.905   3.264
61378W        W31978  16.173  10.990  13.496
61379W        W31979  18.068  18.830   1.455
61380W        W31980  14.926  20.025  12.057
61381W        W31981  34.147   9.964   1.096
61382W        W31982  15.234  26.847   5.209
61383W        W31983  40.370  21.703   4.052
61384W        W31984  43.778  38.331  13.484
61385W        W31985  11.869  43.900   4.179
61386W        W31986  12.372   1.803  13.312
61387W        W31987  10.286  40.848  13.844
61388W        W31988  43.827   0.939   2.152
61389W        W31989   4.391  11.335   0.714
61390W        W31990   8.193  26.003  11.736
61391W        W31991  41.277  30.871  13.394
61392W        W31992  12.077  17.125   3.679
61393W        W31993   2.221  18.045  11.078
61394W        W31994  35.552  12.281   0.725
61395W        W31995  17.339   8.430   3.366
61396W        W31996  11.426  27.740   0.024
61397W        W31997   7.410  44.737  11.601
61398W        W31998   9.231  15.022  11.432
61399W        W31999  28.428  23.173  11.211
61400W        W32000  27.471  14.764  11.582
61401W        W32001  29.994  31.898   1.736
61402W        W32002  27.004  42.861  13.838
61403W        W32003  21.624  12.338  14.925
61404W        W32004  30.336  13.898   4.173
61405W        W32005  32.233  24.399   4.303
61406W        W32006  22.221  20.201   1.484
61407W        W32007  20.104   9.432   4.189
61408W        W32008   9.339   9.236  12.060
61409W        W32009  39.486  24.087  10.506
61410W        W32010   4.493  15.949   1.805
61411W        W32011  36.038   7.217   3.136
61412W        W32012  21.274   4.668  10.504
61413W        W32013  42.729  35.043   2.788
61414W        W32014  15.752  15.760  13.840
61415W        W32015  25.717  39.697  11.594
61416W        W32016  39.031  39.457   3.161
61417W        W32017  29.046  17.367  11.462
61418W        W32018  27.173  34.990   3.990
61419W        W32019   1.851  23.969   0.667
61420W        W32020  17.836   4.430   1.854
61421W        W32021   0.761   5.948   2.981
61422W        W32022  26.918  10.178  13.476
61423W        W32023  26.161  33.944   4.864
61424W        W32024  25.667  26.255  14.902
61425W        W32025  18.786   2.621  11.564
61426W        W32026  25.704  18.704   1.287
61427W        W32027  33.161  41.333   0.820
61428W        W32028   7.299  36.373   3.250
61429W        W32029  40.668   1.963   4.964
61430W        W32030  38.753  26.916  10.848
61431W        W32031  18.321  41.355   1.364
61432W        W32032  29.473  43.651  13.394
61433W        W32033  33.381  18.548   4.197
61434W        W32034  41.015   3.420  10.667
61435W        W32035  25.094  34.865  11.510
61436W        W32036  24.211  44.920  13.988
61437W        W32037  16.568   2.420   0.255
61438W        W32038  34.157  28.454   4.563
61439W        W32039  25.456  35.727  14.631
61440W        W32040   9.940  40.419  14.761
61441W        W32041  14.956  17.166   3.692
61442W        W32042  42.260   6.795   4.757
61443W        W32043  21.743  21.946  10.807
61444W        W32044  13.065  33.143   0.259
61445W        W32045  38.712   3.798   0.083
61446W        W32046  42.806  34.611  10.705
61447W        W32047  19.583   0.827  12.003
61448W        W32048   0.289  42.566  11.115
61449W        W32049  41.056  27.491   0.381
61450W        W32050  24.856   4.558  12.962
61451W        W32051  18.226  19.324   1.420
61452W        W32052  13.745  18.250   2.316
61453W        W32053  21.718  29.488  11.577
61454W        W32054  18.318  29.503  14.339
61455W        W32055  23.137  15.658   0.437
61456W        W32056  17.942  14.682   5.273
61457W        W32057  17.104  33.450   2.815
61458W        W32058   4.984   6.658   3.274
61459W        W32059  36.306  35.534  14.830
61460W        W32060  18.111  27.659  14.792
61461W        W32061   4.790   0.276  14.874
61462W        W32062  36.579  20.655  13.444
61463W        W32063  15.667  35.740   1.484
61464W        W32064   7.606   5.422   0.414
61465W        W32065  19.714  26.250  14.064
61466W        W32066  25.110  42.324  14.845
61467W        W32067  18.630   9.917  11.938
61468W        W32068  28.010   1.873   0.212
61469W        W32069  16.815   8.852   3.841
61470W        W32070  22.651  26.416   0.786
61471W        W32071  25.002  44.088  11.264
61472W        W32072  33.625  43.416  14.810
61473W        W32073  34.600  44.312   2.215
61474W        W32074  42.006   8.193  10.659
61475W        W32075  26.207  43.603  12.053
61476W        W32076   5.353  18.337  14.826
61477W        W32077   3.373  28.424  14.849
61478W        W32078  26.938  11.926  13.090
61479W        W32079  33.010   5.980   0.284
61480W        W32080  10.190  44.727  13.394
61481W        W32081  38.028   6.324  12.992
61482W        W32082  18.125  31.026   4.626
61483W        W32083  20.819  17.158  10.672
61484W        W32084  42.731  28.616   1.245
61485W        W32085  35.873  16.388   0.104
61486W        W32086  26.790  18.339  11.152
61487W        W32087  25.211  37.109   3.617
61488W        W32088  34.348   8.636   1.486
61489W        W32089  23.268  21.510  12.211
61490W        W32090   6.638  33.118   2.614
61491W        W32091  19.027   3.322   2.191
61492W        W32092  34.811  34.931  14.329
61493W        W32093  33.149   1.808   1.316
61494W        W32094  23.691  18.612   1.441
61495W        W32095  41.902  29.170  11.318
61496W        W32096   7.987   1.856   4.765
61497W        W32097  18.059  20.713   0.250
61498W        W32098  12.296  14.365   1.956
61499W        W32099  15.788  31.183   0.501
61500W        W32100  38.455  25.879  13.050
61501W        W32101  16.818  41.481   3.313
61502W        W32102  13.716  21.600  14.199
61503W        W32103  16.707  18.703   4.328
61504W        W32104  23.742  29.051   1.568
61505W        W32105  10.729   7.924   2.434
61506W        W32106  35.439  42.755   2.069
61507W        W32107  18.351  21.757  12.214
61508W        W32108   5.950  33.777   5.049
61509W        W32109  28.101  34.924   1.329
61510W        W32110  34.651  20.235  14.474
61511W        W32111  19.179   4.291  10.815
61512W        W32112  20.474   7.603   0.492
61513W        W32113  10.379  27.505   0.119
61514W        W32114  29.533  11.334   3.585
61515W        W32115  11.591  29.522  13.882
61516W        W32116  16.793  36.299   0.446
61517W        W32117  10.760   1.455   3.059
61518W        W32118   0.926  30.089  10.624
61519W        W32119  17.189   2.748   0.188
61520W        W32120   4.666  16.675  12.048
61521W        W32121  26.981  42.644  11.115
61522W        W32122  43.889   5.609  10.728
61523W        W32123   4.767  40.301  14.585
61524W        W32124   0.771  11.936   3.820
61525W        W32125  21.597  19.106  14.905
61526W        W32126  28.159  18.985   4.489
61527W        W32127  31.094   1.264   3.899
61528W        W32128  39.773  38.441  12.420
61529W        W32129  28.253  43.100  11.102
61530W        W32130  22.917   4.359  12.531
61531W        W32131   7.916  23.313  12.417
61532W        W32132  31.425  24.008  10.607
61533W        W32133  40.036  22.080   0.951
61534W        W32134   8.643   2.209  14.477
61535W        W32135  28.716   7.189  11.000
61536W        W32136   7.790  33.436   1.914
61537W        W32137   2.858   6.879  10.362
61538W        W32138   8.864  23.909  12.145
61539W        W32139   7.897  19.330  11.090
61540W        W32140   2.686   4.787  13.501
61541W        W32141  27.481   5.147   4.235
61542W        W32142   2.657  14.407   2.378
61543W        W32143  17.199  21.518   1.196
61544W        W32144  41.316  24.836   1.042
61545W        W32145  27.535  39.050  10.698
61546W        W32146   2.815  11.199  11.122
61547W        W32147  25.123   6.919  14.069
61548W        W32148  16.589  33.706  13.516
61549W        W32149  20.325  41.318   3.623
61550W        W32150  40.316  39.625  14.527
61551W        W32151  28.291  44.750  12.635
61552W        W32152  40.005   4.871   3.369
61553W        W32153   1.317  27.018  10.967
61554W        W32154  29.579  41.439   2.989
61555W        W32155   0.386  24.224  13.848
61556W        W32156  15.788  17.038   1.372
61557W        W32157  31.140  41.092   2.149
61558W        W32158  29.784  12.784  10.347
61559W        W32159   1.923  35.598  10.877
61560W        W32160  11.150  20.345  14.848
61561W        W32161  26.046  22.004  13.953
61562W        W32162   3.000  15.397  13.424
61563W        W32163  33.459   8.519  13.357
61564W        W32164  37.879  21.080  14.280
61565W        W32165  10.592  38.358   0.347
61566W        W32166  39.318  13.319   1.651
61567W        W32167   2.870  14.288  12.962
61568W        W32168  32.482  41.893  13.358
61569W        W32169  42.823  19.787   3.530
61570W        W32170  28.106   9.410  12.897
61571W        W32171  23.459   3.930  14.808
61572W        W32172  16.527  42.064   1.020
61573W        W32173   7.819   5.518   4.568
61574W        W32174  12.289  23.233   0.840
61575W        W32175  31.318  34.209  13.042
61576W        W32176  37.250  35.374   2.011
61577W        W32177  33.393   2.482  12.992
61578W        W32178  35.601   7.975   1.780
61579W        W32179  22.000   7.669   2.341
61580W        W32180  31.466  22.193   1.314
61581W        W32181  18.628   3.214  12.996
61582W        W32182  21.883  34.789  12.434
61583W        W32183  26.691  41.062   0.167
61584W        W32184  18.512  36.861   3.765
61585W        W32185  15.580  30.937  14.954
61586W        W32186  17.277  39.264   0.435
61587W        W32187   0.458   8.664  12.048
61588W        W32188  31.158  30.581   4.542
61589W        W32189  29.836  37.941   3.145
61590W        W32190   1.675  11.894  13.087
61591W        W32191  38.481   1.905  13.485
61592W        W32192  20.001  22.790  10.187
61593W        W32193  29.629   6.366   0.986
61594W        W32194   5.401  18.368   3.436
61595W        W32195   4.804  43.972   0.992
61596W        W32196  38.936  19.908   3.208
61597W        W32197  35.900  43.006  11.878
61598W        W32198  35.911   4.277  13.346
61599W        W32199   5.206  33.315   2.678
61600W        W32200  12.966  35.847  14.387
61601W        W32201   5.859  25.904  13.695
61602W        W32202  24.310   1.903  11.193
61603W        W32203   8.150  44.723   0.853
61604W        W32204  15.267   5.641   1.056
61605W        W32205  30.063  14.317  12.490
61606W        W32206  40.772  41.927  11.554
61607W        W32207  26.522  13.519   4.524
61608W        W32208  40.487  21.356   3.381
61609W        W32209  43.854  35.560   3.162
61610W        W32210  15.987   2.389  12.963
61611W        W32211  27.193   7.947  12.539
61612W        W32212  33.121  14.728  13.351
61613W        W32213  32.938  35.890  12.369
61614W        W32214  29.187  42.618  12.168
61615W        W32215   7.780  18.983  12.602
61616W        W32216  37.106   5.000  14.333
61617W        W32217  16.544   9.616  13.537
61618W        W32218   8.450  27.513  11.974
61619W        W32219  33.512  35.803  12.900
61620W        W32220  34.293  19.640   4.977
61621W        W32221  43.294  32.616  14.836
61622W        W32222  20.807  19.908   0.509
61623W        W32223  12.332  21.673   1.734
61624W        W32224  28.970  15.096  13.759
61625W        W32225  31.214  42.398  13.345
61626W        W32226  21.058  38.161  14.549
61627W        W32227  38.348  41.555  13.408
61628W        W32228  11.196   6.994   1.878
61629W        W32229   1.423  12.110   2.838
61630W        W32230  15.798   4.262  12.935
61631W        W32231   2.468   5.226   2.372
61632W        W32232  31.863  36.103   2.774
61633W        W32233  35.211  36.855   2.418
61634W        W32234  35.849  24.036  13.139
61635W        W32235  21.735   5.261  12.323
61636W        W32236  44.893  18.053  10.704
61637W        W32237  22.754   3.468   0.681
61638W        W32238  12.264  11.337  14.770
61639W        W32239   7.898  12.633   0.806
61640W        W32240  24.608  18.737  12.072
61641W        W32241  10.689   5.176  12.040
61642W        W32242  30.468  18.262   3.843
61643W        W32243  40.349  35.170  13.451
61644W        W32244  17.990  24.529  10.161
61645W        W32245  21.219  31.572   4.671
61646W        W32246  31.673   3.942  11.100
61647W        W32247  35.938   4.778  11.374
61648W        W32248  29.456  10.308   4.537
61649W        W32249  32.572  26.379   2.173
61650W        W32250   2.384  11.291   4.839
61651W        W32251   5.957   2.145   0.445
61652W        W32252  35.112  17.153  14.417
61653W        W32253  38.932  39.221  14.916
61654W        W32254  13.243  13.793  13.937
61655W        W32255  20.170  11.689  13.667
61656W        W32256   0.007   2.973   0.739
61657W        W32257  21.734  10.644   4.191
61658W        W32258  26.538  26.244  10.784
61659W        W32259  37.997  37.836  11.452
61660W        W32260  20.516   9.168   0.475
61661W        W32261  32.617   2.207   3.633
61662W        W32262  21.210  39.053   4.622
61663W        W32263   8.791   9.696  11.423
61664W        W32264   2.068   4.189   3.749
61665W        W32265  34.901  21.515  12.039
61666W        W32266  29.457  17.339  11.137
61667W        W32267   2.423  40.001   1.937
61668W        W32268  25.779  15.824  12.884
61669W        W32269  42.475  29.506   5.101
61670W        W32270  27.655  43.087   2.382
61671W        W32271  12.953  37.944  12.280
61672W        W32272   6.866  15.844   2.407
61673W        W32273   6.978  10.306   2.637
61674W        W32274  16.412  35.583  14.801
61675W        W32275  13.346  36.811   4.749
61676W        W32276  25.160  29.954  13.260
61677W        W32277  14.628  39.507   2.326
61678W        W32278  40.859  22.786  10.738
61679W        W32279   1.775  29.116  14.399
61680W        W32280  43.385  38.713  14.832
61681W        W32281  12.597  36.088   0.088
61682W        W32282   6.421  25.014  11.607
61683W        W32283  12.297  29.695  13.353
61684W        W32284   0.840  23.181  14.581
61685W        W32285  29.184  38.978  14.911
61686W        W32286   7.405   7.323   3.700
61687W        W32287   3.857  29.061   3.940
61688W        W32288   8.927  27.025   1.913
61689W        W32289  11.978  36.850  13.732
61690W        W32290  25.146   4.229  13.594
61691W        W32291  12.168  12.041  11.157
61692W        W32292  31.537  31.818  13.371
61693W        W32293  16.104  35.581  10.439
61694W        W32294  27.646   8.939   3.589
61695W        W32295  42.643  33.900  13.015
61696W        W32296   3.773  14.373  10.954
61697W        W32297  34.136  24.033  14.928
61698W        W32298  12.384   1.838   3.725
61699W        W32299  44.325  14.104   0.361
61700W        W32300  38.106  35.030   2.266
61701W        W32301  19.115  27.465  12.913
61702W        W32302  43.985  23.872  11.538
61703W        W32303  44.327  28.550   2.573
61704W        W32304   4.483  22.563  12.600
61705W        W32305  11.795  13.318   2.159
61706W        W32306   9.268  20.448   4.612
61707W        W32307  38.549   1.360  10.453
61708W        W32308  35.168  26.863  10.738
61709W        W32309   0.963   7.664   3.650
61710W        W32310  15.168  32.303  10.907
61711W        W32311  11.803  27.416  14.854
61712W        W32312  15.337   5.737  13.571
61713W        W32313   7.696  17.655  10.606
61714W        W32314   0.490   2.754  12.174
61715W        W32315  36.323  24.205  13.970
61716W        W32316  25.912  10.315   1.736
61717W        W32317  19.494  36.070   3.759
61718W        W32318   5.205   5.971  10.789
61719W        W32319  28.071   4.448   1.808
61720W        W32320  37.987  42.114  10.609
61721W        W32321  18.693  16.063   1.715
61722W        W32322  11.652   8.383   1.214
61723W        W32323  41.735  20.723  14.789
61724W        W32324  43.895  32.686  11.552
61725W        W32325  32.067  35.912   2.294
61726W        W32326  25.017   8.296  12.248
61727W        W32327  13.246  15.252  10.408
61728W        W32328  33.899  36.604   2.322
61729W        W32329  28.143  19.615  12.411
61730W        W32330  11.653  20.518  11.993
61731W        W32331   1.808   4.882  11.866
61732W        W32332   8.438   1.201  12.332
61733W        W32333   4.388  20.652   1.164
61734W        W32334   4.691  23.049  11.254
61735W        W32335  44.455  37.231   4.122
61736W        W32336  14.740  21.248  14.913
61737W        W32337  12.819  26.087   0.775
61738W        W32338  10.664  39.049  13.622
61739W        W32339  14.068   5.808   2.170
61740W        W32340  13.382  41.735   0.822
61741W        W32341  30.367  19.217   1.878
61742W        W32342  21.266  29.683  12.449
61743W        W32343  43.668  14.360  12.983
61744W        W32344  43.504  40.915  12.521
61745W        W32345  24.190  40.990  11.674
61746W        W32346   6.513  38.758   9.932
61747W        W32347  41.776  28.057  10.767
61748W        W32348  30.410  29.252   3.684
61749W        W32349   5.139  10.190   3.300
61750W        W32350  32.668   4.431   4.324
61751W        W32351   0.890  16.200  10.532
61752W        W32352  36.507  19.751   3.819
61753W        W32353  14.663  39.815   2.807
61754W        W32354  11.274  15.787  11.120
61755W        W32355  30.084  16.696   3.483
61756W        W32356  40.908  22.967   0.162
61757W        W32357   6.206  40.001   0.461
61758W        W32358  13.586  18.782  12.223
61759W        W32359   0.012   8.036   1.543
61760W        W32360  12.648  26.395   3.416
61761W        W32361   1.362   7.705  13.075
61762W        W32362  18.992  29.998   4.668
61763W        W32363   5.213  23.751  14.807
61764W        W32364  29.579  10.698   0.943
61765W        W32365  40.326  20.200  14.151
61766W        W32366  40.633  23.736   4.210
61767W        W32367  16.292   6.289   2.806
61768W        W32368  31.624  32.900  12.035
61769W        W32369   6.007  10.662   0.954
61770W        W32370   6.901   6.223  11.193
61771W        W32371  10.757  27.621   3.226
61772W        W32372  28.912  29.467  12.010
61773W        W32373  35.334  39.100  14.909
61774W        W32374  16.618  36.620  13.951
61775W        W32375  31.726  27.408  12.911
61776W        W32376  19.541  40.895  13.990
61777W        W32377   7.189   1.417   4.595
61778W        W32378   9.849  17.480   3.193
61779W        W32379  32.416  15.927  12.561
61780W        W32380  13.022  19.633  14.376
61781W        W32381  18.898  35.401  10.759
61782W        W32382  26.655  29.058  12.206
61783W        W32383  37.585  29.396   0.695
61784W        W32384  27.039   1.812  14.346
61785W        W32385  39.330  38.638  13.398
61786W        W32386   5.721  18.813  13.432
61787W        W32387  12.666  10.742  14.432
61788W        W32388  22.232  13.344  12.043
61789W        W32389  28.853   3.807   0.591
61790W        W32390  36.024  29.448   0.735
61791W        W32391  17.369   4.881  13.424
61792W        W32392  27.949  29.480   3.386
61793W        W32393  43.812  43.016  12.591
61794W        W32394  29.963   3.917  10.903
61795W        W32395  38.809  44.431   2.891
61796W        W32396  36.288  31.280   2.426
61797W        W32397   2.598  17.763  13.576
61798W        W32398  16.842  39.005  14.863
61799W        W32399  21.932   8.968   4.574
61800W        W32400   6.888  41.710  11.258
61801W        W32401  31.437  38.347  12.201
61802W        W32402  30.124   6.390   4.044
61803W        W32403  36.311  38.767  13.517
61804W        W32404  33.199   1.763  11.115
61805W        W32405  32.203  36.168  13.891
61806W        W32406  17.167  31.836   4.045
61807W        W32407  32.335  20.673   4.128
61808W        W32408   6.166   4.692   0.494
61809W        W32409   5.742   3.417   4.344
61810W        W32410  43.233  43.961   3.625
61811W        W32411  41.439   7.818  12.001
61812W        W32412  33.100  23.304   3.750
61813W        W32413  11.592  26.383   1.680
61814W        W32414  18.907  21.037  10.740
61815W        W32415  23.238  40.886   3.055
61816W        W32416   0.071  30.125  14.317
61817W        W32417  36.043  24.942  14.952
61818W        W32418  30.522   8.952   2.813
61819W        W32419  18.272  26.492   2.203
61820W        W32420  10.087  17.056   0.793
61821W        W32421  31.526  22.469   0.884
61822W        W32422  30.711   3.383   2.222
61823W        W32423  28.564   4.088   3.334
61824W        W32424  21.551  15.167   0.475
61825W        W32425   5.187  16.161  12.384
61826W        W32426  34.831  31.457  12.509
61827W        W32427  44.244  29.181  10.754
61828W        W32428  16.920   9.797  14.283
61829W        W32429  37.703  29.135   2.386
61830W        W32430  22.022  31.884   3.112
61831W        W32431  25.397  41.389  12.154
61832W        W32432  19.553   8.311   2.830
61833W        W32433   9.696   3.790   3.911
61834W        W32434  32.202  24.771  14.612
61835W        W32435  12.187   3.316  14.766
61836W        W32436  38.275   8.231   1.261
61837W        W32437  10.516  10.508   1.341
61838W        W32438  32.527  26.757  13.500
61839W        W32439   9.922   1.538   2.648
61840W        W32440  32.470  29.928   4.204
61841W        W32441  40.951  11.154   0.640
61842W        W32442   7.334  25.633  13.346
61843W        W32443  35.809  38.844  13.603
61844W        W32444  33.959  31.170  13.386
61845W        W32445  19.148   7.261   3.252
61846W        W32446  12.790  24.014  12.348
61847W        W32447  17.647  18.528  14.452
61848W        W32448  32.653   7.776   0.846
61849W        W32449  42.974  30.555  12.407
61850W        W32450   5.706  32.072   2.783
61851W        W32451  38.003  14.330   3.728
61852W        W32452   1.603   3.879   4.249
61853W        W32453  10.840  33.677   3.726
61854W        W32454  29.261  21.058   2.547
61855W        W32455  37.454  33.569  12.487
61856W        W32456  33.722  20.530  11.981
61857W        W32457  33.490  42.890   5.070
61858W        W32458  40.277  38.986   1.695
61859W        W32459   3.766  10.189   3.690
61860W        W32460  31.220  44.061   3.200
61861W        W32461   1.964   7.950   4.487
61862W        W32462  16.841  14.212   2.829
61863W        W32463  29.732  35.281   3.084
61864W        W32464  41.940  41.355  12.301
61865W        W32465  18.335  27.574   4.024
61866W        W32466  38.528  28.492   5.056
61867W        W32467  35.983  25.972   0.017
61868W        W32468   3.916   3.009  10.644
61869W        W32469  21.762  40.407   2.122
61870W        W32470  31.357  14.207   4.693
61871W        W32471  37.395  25.224   3.112
61872W        W32472  37.457  39.756  13.389
61873W        W32473   7.456  43.949  12.039
61874W        W32474  20.085   6.233   1.786
61875W        W32475  17.545  41.443   0.847
61876W        W32476   6.761  30.285   2.320
61877W        W32477  18.156  25.027   3.262
61878W        W32478   4.920  29.352  14.525
61879W        W32479  23.045  16.505  13.634
61880W        W32480  16.286   8.387  14.200
61881W        W32481   5.955   4.213  13.396
61882W        W32482  44.508  22.318   0.329
61883W        W32483   0.255  18.185  13.411
61884W        W32484  18.751  35.389   3.673
61885W        W32485  36.947   1.294  14.631
61886W        W32486  36.114  22.052   3.711
61887W        W32487   8.352  17.502  13.072
61888W        W32488   7.135   1.998  11.603
61889W        W32489  22.021   2.132  12.395
61890W        W32490  19.036  15.292   3.185
61891W        W32491  27.837   7.794   1.186
61892W        W32492   9.898  31.283  14.929
61893W        W32493  33.646  29.879  13.231
61894W        W32494  37.063   7.339   3.111
61895W        W32495  29.888   6.794   3.190
61896W        W32496  10.177   7.161  13.144
61897W        W32497   4.677  26.214   1.011
61898W        W32498   8.713   3.289   0.982
61899W        W32499  15.247  28.860  11.178
61900W        W32500  22.486  41.143  10.544
61901W        W32501  36.939   9.163  11.485
61902W        W32502  33.933  27.635   0.517
61903W        W32503  12.678   1.218   2.590
61904W        W32504  36.818  19.964   4.184
61905W        W32505  43.739  30.530  10.726
61906W        W32506   6.674   0.680   0.232
61907W        W32507   4.107  14.650   4.406
61908W        W32508   2.415   8.299   1.362
61909W        W32509  10.777  31.564   2.173
61910W        W32510   0.698  28.584   4.103
61911W        W32511   8.850  28.525   4.497
61912W        W32512  31.565  24.733   2.800
61913W        W32513  36.097  32.727   3.571
61914W        W32514  37.021   5.309  12.122
61915W        W32515   9.251  37.662  13.505
61916W        W32516  34.970   4.201  12.385
61917W        W32517  36.579  40.313   3.364
61918W        W32518  31.701   3.706  13.529
61919W        W32519  27.975  36.003   4.573
61920W        W32520  29.910  32.637  14.355
61921W        W32521   3.451  10.302   1.281
61922W        W32522   7.391  28.050   4.154
61923W        W32523   1.535  14.347  12.839
61924W        W32524  25.296  35.046  13.842
61925W        W32525  18.763  40.955  11.660
61926W        W32526  22.183  31.978  12.345
61927W        W32527  40.606  17.202  14.420
61928W        W32528   6.684  25.987   2.944
61929W        W32529  33.312  30.398   0.093
61930W        W32530  14.778   2.941   0.340
61931W        W32531  17.772  40.990   0.936
61932W        W32532  32.044  42.306  14.921
61933W        W32533  38.265  12.745  13.871
61934W        W32534  44.725  11.663   4.182
61935W        W32535  35.126   2.042   3.613
61936W        W32536  12.153  33.293   0.383
61937W        W32537  32.943  27.755  11.060
61938W        W32538  20.054  36.963   3.675
61939W        W32539  44.761  33.114  11.569
61940W        W32540  36.933  30.195   4.219
61941W        W32541  33.288  29.140  11.674
61942W        W32542  33.162  41.242   4.162
61943W        W32543  13.733   2.737   3.772
61944W        W32544  33.824  20.482  13.027
61945W        W32545  26.569  41.046   4.101
61946W        W32546   2.682  37.559  14.733
61947W        W32547  11.903  43.945  14.755
61948W        W32548  14.979  31.444  12.470
61949W        W32549  22.445  23.625  10.089
61950W        W32550  41.644  42.526  13.983
61951W        W32551  15.356  17.639  13.458
61952W        W32552  22.017  11.617  13.553
61953W        W32553  36.076  41.516  11.137
61954W        W32554  29.564  23.566   3.317
61955W        W32555  14.505  35.545   4.125
61956W        W32556  44.941  18.724   4.640
61957W        W32557  35.296  40.607  11.802
61958W        W32558  23.019  24.628  13.073
61959W        W32559  21.551  19.839  11.976
61960W        W32560  37.979  14.599   2.892
61961W        W32561  18.556  17.744  10.759
61962W        W32562  17.035  32.941   4.542
61963W        W32563  19.775  31.938  13.365
61964W        W32564   9.494  34.840   4.190
61965W        W32565  20.893   4.241   3.886
61966W        W32566  21.690   0.693  14.291
61967W        W32567  20.103   3.911   4.704
61968W        W32568  21.637   4.898  11.123
61969W        W32569  44.906  32.618  12.461
61970W        W32570  34.510   5.845  13.359
61971W        W32571  30.482  14.560  11.057
61972W        W32572  12.875  16.552   4.224
61973W        W32573  10.356   1.217   2.855
61974W        W32574  37.504  29.990   3.998
61975W        W32575  22.194  33.245   2.697
61976W        W32576  35.078  28.004   4.265
61977W        W32577   0.832  33.018  12.875
61978W        W32578   8.268  42.497  12.917
61979W        W32579   7.914  19.284  12.027
61980W        W32580   8.977  13.397  12.699
61981W        W32581  36.933  33.265   1.024
61982W        W32582  41.351  42.879   1.119
61983W        W32583  39.403  25.459   4.667
61984W        W32584  26.421  43.389   2.839
61985W        W32585   1.944  25.425  11.223
61986W        W32586  24.193  36.968   4.751
61987W        W32587   6.813  23.998  12.866
61988W        W32588  14.517  43.810  11.645
61989W        W32589  23.639  43.509  13.247
61990W        W32590  18.010  13.299  11.912
61991W        W32591  35.059  27.010  14.866
61992W        W32592  42.102   6.784  11.159
61993W        W32593  19.789  42.451   4.293
61994W        W32594  39.623  36.025  12.886
61995W        W32595  34.395  22.598  14.883
61996W        W32596   8.272  17.421   4.487
61997W        W32597  11.396  30.063  12.920
61998W        W32598   3.423   7.596  10.726
61999W        W32599  30.530  22.251  12.573
62000W        W32600   5.087  42.580  10.662
62001W        W32601   9.910  37.501   4.806
62002W        W32602  17.844  20.300   0.528
62003W        W32603   6.399  22.064  14.734
62004W        W32604  11.718  27.140   3.339
62005W        W32605  21.657  30.666   1.692
62006W        W32606  34.475  36.840   0.897
62007W        W32607  25.241  31.847  11.128
62008W        W32608  12.652   7.623   3.413
62009W        W32609  44.848  27.766  10.254
62010W        W32610  27.024  29.573   2.445
62011W        W32611   2.807   0.189  11.581
62012W        W32612  33.962  25.295  13.961
62013W        W32613   4.389   4.021   3.759
62014W        W32614   6.226  22.642   0.302
62015W        W32615  39.107  21.427  12.657
62016W        W32616  25.376  18.197  12.024
62017W        W32617  23.482   4.444  14.757
62018W        W32618   1.357  22.116  11.716
62019W        W32619  26.110   6.387  13.726
62020W        W32620  13.711  43.000   3.644
62021W        W32621   6.316  35.398   1.245
62022W        W32622  31.125  17.800   2.404
62023W        W32623  17.624  14.626   0.467
62024W        W32624  14.621  23.516   1.821
62025W        W32625  42.973  10.896   3.209
62026W        W32626  23.667  15.829  14.649
62027W        W32627   9.375  40.101   4.563
62028W        W32628  21.722  44.486   0.366
62029W        W32629  41.997  28.219   4.057
62030W        W32630   4.959  15.992   2.986
62031W        W32631  31.192   7.286  12.123
62032W        W32632   0.181  42.199  12.902
62033W        W32633  29.665  31.367  12.200
62034W        W32634  15.551  43.007  13.965
62035W        W32635  40.266  27.521   1.705
62036W        W32636  11.255  12.944  14.185
62037W        W32637  36.519  11.182   2.374
62038W        W32638   1.202  29.531  13.631
62039W        W32639   1.677  38.973   2.618
62040W        W32640  28.579   3.268   0.809
62041W        W32641  11.051  20.582  11.135
62042W        W32642  32.962  22.537  13.584
62043W        W32643  39.439  25.507  10.932
62044W        W32644  18.747  22.703  12.484
62045W        W32645  40.446  32.930   3.093
62046W        W32646  27.651  41.777   1.666
62047W        W32647  37.106   0.532   4.060
62048W        W32648   7.166  36.501  11.538
62049W        W32649  16.838  15.775  11.557
62050W        W32650   8.300   4.210   3.201
62051W        W32651  33.839  28.527   1.052
62052W        W32652  22.680  23.052  11.470
62053W        W32653  31.668  31.069  11.256
62054W        W32654  10.730  20.343  12.822
62055W        W32655  43.296  30.672   0.587
62056W        W32656  41.579   6.885  14.753
62057W        W32657  18.299   2.212  10.509
62058W        W32658   1.482  39.827  12.594
62059W        W32659  34.554  13.959   4.170
62060W        W32660  22.109  42.634  11.233
62061W        W32661  16.759  23.265  12.120
62062W        W32662  25.127  25.771  11.090
62063W        W32663  16.198  41.375   4.083
62064W        W32664  35.436  39.894  12.542
62065W        W32665  18.125   0.093   4.746
62066W        W32666  34.804   0.373  13.837
62067W        W32667  36.225  17.043  12.076
62068W        W32668  37.072  18.681   1.900
62069W        W32669  44.967   9.358   3.224
62070W        W32670  13.168  18.067   4.665
62071W        W32671  43.013  15.294  12.723
62072W        W32672   0.799  18.155   2.200
62073W        W32673  14.501  21.182  10.064
62074W        W32674  39.302  33.363   0.474
62075W        W32675  10.636   7.434   0.920
62076W        W32676  27.996   2.907  11.125
62077W        W32677  24.324  12.147   0.504
62078W        W32678  17.736  33.014  11.134
62079W        W32679  19.971  32.596  11.155
62080W        W32680   8.249  37.091   1.335
62081W        W32681   1.319  44.030  12.910
62082W        W32682  16.684  28.734  14.302
62083W        W32683  34.484  31.150  11.622
62084W        W32684  15.042  43.564   2.614
62085W        W32685  17.742  25.091   4.185
62086W        W32686  36.414  17.022   1.409
62087W        W32687  14.085  27.808   3.198
62088W        W32688  12.253  30.960   1.747
62089W        W32689  31.930   3.239   4.867
62090W        W32690  41.737   6.744   5.544
62091W        W32691  28.149  29.955   1.322
62092W        W32692  26.098  41.758  10.642
62093W        W32693  29.654   1.801   0.440
62094W        W32694  18.025  17.201   2.625
62095W        W32695  29.925   6.360   1.463
62096W        W32696   5.436   0.995  14.987
62097W        W32697   9.249  19.788  10.662
62098W        W32698  34.723  29.432  11.499
62099W        W32699  22.177  17.120   3.238
62100W        W32700  34.503  43.493   1.943
62101W        W32701  23.929   8.250   3.160
62102W        W32702  30.457  15.696   0.899
62103W        W32703  19.797  31.361   3.320
62104W        W32704  32.882   8.110  10.791
62105W        W32705  22.730  13.159  11.996
62106W        W32706  14.040  33.545  13.371
62107W        W32707   7.901  22.346   1.576
62108W        W32708  34.671  35.529   3.236
62109W        W32709  22.567  28.241  13.022
62110W        W32710  18.833  10.206   3.724
62111W        W32711   8.933  12.621   4.925
62112W        W32712  39.931  22.592   0.926
62113W        W32713  17.476  32.188   2.702
62114W        W32714  25.736   7.581   1.353
62115W        W32715  33.235  35.413  14.951
62116W        W32716  40.517   8.249   0.168
62117W        W32717   0.574   9.770  12.968
62118W        W32718   9.382  12.088  12.301
62119W        W32719  27.070  35.943  11.061
62120W        W32720  40.825  20.525   2.585
62121W        W32721  36.986  37.785  12.589
62122W        W32722  29.584  43.507   4.202
62123W        W32723  16.280  42.948  11.864
62124W        W32724  34.065  34.078   2.135
62125W        W32725  11.682  22.655   5.029
62126W        W32726  22.827  17.530  11.671
62127W        W32727  17.527  41.253  11.184
62128W        W32728  25.599  20.972  11.557
62129W        W32729  31.510   3.199  12.395
62130W        W32730   5.415  14.147  11.212
62131W        W32731  36.048  20.492  13.051
62132W        W32732  24.483  29.733  11.417
62133W        W32733  33.910  42.380  14.526
62134W        W32734  16.849   6.437  12.255
62135W        W32735  24.722  19.636   2.337
62136W        W32736  35.554  40.638   2.317
62137W        W32737  25.755   9.509   9.666
62138W        W32738  37.333  37.860   2.206
62139W        W32739  35.371  24.524   0.752
62140W        W32740  40.312  39.464  11.578
62141W        W32741  11.700  12.236  14.792
62142W        W32742  13.672  20.166  11.881
62143W        W32743  36.291  20.817  12.093
62144W        W32744  32.374  17.622   0.691
62145W        W32745  31.056  24.969   2.807
62146W        W32746  21.212   3.193   0.435
62147W        W32747  22.173  43.420   0.023
62148W        W32748  33.486  16.867  13.950
62149W        W32749   1.165   2.881   2.843
62150W        W32750  35.662  14.961  11.595
62151W        W32751   1.468  17.240   1.933
62152W        W32752  20.246  42.104   2.368
62153W        W32753  33.683  44.178  10.304
62154W        W32754   2.955  12.842   2.294
62155W        W32755  18.211   4.936  11.239
62156W        W32756  27.332  19.157   2.779
62157W        W32757   8.803  21.994   3.598
62158W        W32758   3.949  25.686  10.936
62159W        W32759  33.140  25.197  11.251
62160W        W32760   0.473   9.618   4.243
62161W        W32761  26.457  16.123  14.073
62162W        W32762  26.452  37.075   2.414
62163W        W32763  22.353  20.572  14.436
62164W        W32764   5.000  32.046   4.530
62165W        W32765  16.867  41.834  14.382
62166W        W32766  30.436   0.200   1.459
62167W        W32767  25.498  44.291  14.440
62168W        W32768  19.655  32.406   3.258
62169W        W32769  39.892   7.175   2.332
62170W        W32770  25.493  21.508  14.504
62171W        W32771   2.571  37.950   4.569
62172W        W32772  25.532   1.539  13.638
62173W        W32773  41.090   1.751  14.985
62174W        W32774  41.042  41.276   4.682
62175W        W32775  13.365   4.449   4.246
62176W        W32776  26.671  26.147   1.712
62177W        W32777  18.527  17.211   1.757
62178W        W32778   5.333  43.023   0.307
62179W        W32779  29.215  42.474   3.861
62180W        W32780  35.552  44.723  12.578
62181W        W32781  42.556  31.022   1.213
62182W        W32782   7.373  40.510   1.935
62183W        W32783  28.574  41.848  10.935
62184W        W32784   1.503  15.060   2.818
62185W        W32785  21.638  24.082   1.399
62186W        W32786  13.260  26.548   4.059
62187W        W32787  35.536  12.600   2.359
62188W        W32788  43.295  29.480   1.411
62189W        W32789  27.154  39.278   3.101
62190W        W32790  13.348  28.659   3.321
62191W        W32791  15.122   3.973  12.790
62192W        W32792  18.052   2.995  14.954
62193W        W32793  14.163   9.927  12.528
62194W        W32794  34.180   9.144  10.729
62195W        W32795   0.452  16.068   0.919
62196W        W32796  10.216  42.731   2.305
62197W        W32797  44.947  32.546  10.976
62198W        W32798   7.914  32.108   2.327
62199W        W32799  33.342  22.162   4.236
62200W        W32800  42.847  16.305   2.700
62201W        W32801   3.464   0.497   0.508
62202W        W32802  43.726   3.498   1.361
62203W        W32803   1.586  35.498  14.134
62204W        W32804   6.557  18.036  11.148
62205W        W32805  26.105  37.529  10.419
62206W        W32806  26.109  22.674   4.859
62207W        W32807  20.078  30.568  11.966
62208W        W32808  38.273   0.676  11.620
62209W        W32809  11.835  16.673   3.621
62210W        W32810   0.880  29.958  11.951
62211W        W32811  15.810  17.101  11.955
62212W        W32812   0.426  14.148  13.373
62213W        W32813   3.533  34.155  13.975
62214W        W32814   1.054  41.407   1.863
62215W        W32815   3.888  28.466  10.706
62216W        W32816  38.886  17.596   1.854
62217W        W32817  10.409  27.495  12.628
62218W        W32818   1.841  42.523   4.609
62219W        W32819   2.499  22.073   0.321
62220W        W32820  29.362   9.661  14.414
62221W        W32821  27.606  40.551  11.454
62222W        W32822  43.832  22.041  13.540
62223W        W32823  38.842  20.157  12.169
62224W        W32824  13.858  40.775   4.481
62225W        W32825  17.671  27.638   2.134
62226W        W32826  15.267  37.350  13.943
62227W        W32827  27.199  20.935  10.126
62228W        W32828  29.585   1.890   2.265
62229W        W32829  33.544   7.052   0.064
62230W        W32830  25.821   1.376  14.939
62231W        W32831  17.856   8.708   4.481
62232W        W32832   9.723   9.032  12.507
62233W        W32833   0.746  17.641   0.098
62234W        W32834   7.237   3.156  11.010
62235W        W32835   7.401   5.669   3.208
62236W        W32836  22.711  11.134  12.066
62237W        W32837  36.837  31.604  10.676
62238W        W32838   1.352  29.618   3.295
62239W        W32839  13.944   8.931   3.044
62240W        W32840  20.111  13.938   3.736
62241W        W32841  39.650  16.253   0.315
62242W        W32842  22.638  31.428   4.227
62243W        W32843  30.480  32.522  12.049
62244W        W32844  43.721  16.667   2.184
62245W        W32845  12.101  14.646  13.892
62246W        W32846  12.344  29.908  13.884
62247W        W32847  28.576  16.053  12.645
62248W        W32848  35.827  40.790   4.942
62249W        W32849  28.369  36.920   0.267
62250W        W32850  31.371   1.980  11.054
62251W        W32851   3.192  17.014  12.147
62252W        W32852  20.294  38.655   1.792
62253W        W32853  26.602  36.170  11.097
62254W        W32854  12.263  41.423  13.221
62255W        W32855   0.508  10.213  14.724
62256W        W32856  42.327  36.397  10.702
62257W        W32857  25.194   4.478   4.254
62258W        W32858   5.498  38.026   3.935
62259W        W32859   1.451   3.652  14.386
62260W        W32860  31.834  43.656   0.136
62261W        W32861  20.749  19.135   3.791
62262W        W32862   0.212  21.276  13.319
62263W        W32863  34.908  28.083   0.504
62264W        W32864  12.030   7.660   2.119
62265W        W32865   5.008  39.185   0.317
62266W        W32866   5.144  11.258  11.548
62267W        W32867  31.499   4.151   1.689
62268W        W32868  42.949  44.778   4.086
62269W        W32869  16.883   4.760  10.764
62270W        W32870  27.097  27.551   1.294
62271W        W32871  12.789  39.540  10.870
62272W        W32872   4.108  38.307  10.629
62273W        W32873  30.653   5.233   0.185
62274W        W32874  41.456  13.250  11.225
62275W        W32875  11.764  37.314  13.819
62276W        W32876   6.978  37.461  13.662
62277W        W32877  10.461  28.991  13.499
62278W        W32878   2.180  17.752  11.508
62279W        W32879   5.900   1.869  12.503
62280W        W32880  12.441   0.638  10.730
62281W        W32881  12.361  11.284  10.741
62282W        W32882  19.729   6.181   2.190
62283W        W32883   0.281  31.885  12.574
62284W        W32884  43.731  44.573  10.634
62285W        W32885  27.752  23.121   3.133
62286W        W32886  13.627  20.252  14.260
62287W        W32887  32.416  27.684   3.704
62288W        W32888  34.445  16.136   1.277
62289W        W32889  30.204  44.131   0.765
62290W        W32890   4.497  33.348   3.780
62291W        W32891  33.809   4.451  10.450
62292W        W32892  35.919   3.519  11.622
62293W        W32893  13.346   2.404   2.396
62294W        W32894  30.613  32.168  12.821
62295W        W32895   6.448  22.222   1.661
62296W        W32896  32.922  10.125  11.565
62297W        W32897   6.464  34.507   0.337
62298W        W32898  28.047   1.074   1.923
62299W        W32899  15.283   6.502  12.515
62300W        W32900   3.130  32.957   4.499
62301W        W32901  36.893  20.322   3.190
62302W        W32902  29.315   4.291   2.250
62303W        W32903  13.901  18.777  13.112
62304W        W32904  21.555  41.912   3.244
62305W        W32905  39.124  41.100   4.238
62306W        W32906  14.294   9.313   2.137
62307W        W32907   3.195  31.468  14.708
62308W        W32908  26.607  27.538  14.530
62309W        W32909  27.962  37.073   1.208
62310W        W32910   3.945  37.040  11.963
62311W        W32911  14.789  20.768  11.627
62312W        W32912  15.011  16.653  14.394
62313W        W32913   2.816   1.490   0.124
62314W        W32914   1.753  14.874   4.592
62315W        W32915  26.987  24.101  12.825
62316W        W32916  25.109  37.515   0.170
62317W        W32917  41.629  23.320   0.814
62318W        W32918  35.935  20.770   0.831
62319W        W32919  19.639  19.971   2.027
62320W        W32920  38.365  23.734   0.963
62321W        W32921  36.605  42.989  10.191
62322W        W32922  31.128  41.043   2.989
62323W        W32923  32.203  37.850   4.302
62324W        W32924   8.262  12.862  11.737
62325W        W32925   2.772  13.313  12.967
62326W        W32926   3.122  42.717   0.485
62327W        W32927  43.459  18.280   3.395
62328W        W32928   5.170  34.933  13.820
62329W        W32929  18.270  28.711  11.654
62330W        W32930  35.444  33.870  10.632
62331W        W32931  37.177   2.770   4.077
62332W        W32932  39.930  35.590  12.986
62333W        W32933  18.162  27.747  12.933
62334W        W32934  15.953   8.654  10.660
62335W        W32935  34.614  38.495  13.715
62336W        W32936   9.152  40.473   1.745
62337W        W32937  31.004  13.267   4.278
62338W        W32938   6.870  42.238  11.206
62339W        W32939   1.967   2.593  12.998
62340W        W32940  36.089  32.874   0.216
62341W        W32941   8.597  15.790   0.191
62342W        W32942   3.458  23.108   4.075
62343W        W32943  40.604  14.207  14.946
62344W        W32944  42.925  12.405   1.609
62345W        W32945  42.825  41.218  12.391
62346W        W32946  40.075  39.097  13.879
62347W        W32947  30.000  30.873  10.587
62348W        W32948  20.918   5.487  10.657
62349W        W32949  29.831  25.128   4.113
62350W        W32950  35.684  38.984   1.097
62351W        W32951  28.954  12.163   1.758
62352W        W32952  14.101  23.494   1.902
62353W        W32953  31.727  18.372  11.184
62354W        W32954  19.373  28.144  12.001
62355W        W32955  16.563  36.580  13.400
62356W        W32956   5.210  38.908  12.404
62357W        W32957  32.870  26.201  12.043
62358W        W32958  23.458  18.247   3.797
62359W        W32959   7.920   3.384  12.325
62360W        W32960   9.771  12.210  10.645
62361W        W32961  34.577  24.191  13.540
62362W        W32962  36.499  36.134   2.755
62363W        W32963  24.363  10.132   1.417
62364W        W32964   6.428  34.203  10.252
62365W        W32965  29.189  18.567   2.769
62366W        W32966   9.926  35.611   2.208
62367W        W32967  29.964  31.378   2.660
62368W        W32968   4.840  26.395   4.827
62369W        W32969  34.385  41.607   0.877
62370W        W32970   2.010  30.648  12.958
62371W        W32971  19.510  43.300  11.663
62372W        W32972  27.166  32.868  13.885
62373W        W32973  11.864  35.999  12.496
62374W        W32974  19.485   7.344   2.645
62375W        W32975   1.295  27.795  11.519
62376W        W32976  31.576  14.537  14.321
62377W        W32977  38.994   2.142   2.944
62378W        W32978  10.293  19.831   0.897
62379W        W32979  20.305  24.462  12.044
62380W        W32980  40.980  27.717  12.553
62381W        W32981  15.142  29.990  12.428
62382W        W32982   2.986  37.141   4.134
62383W        W32983  26.929  28.640   0.366
62384W        W32984  22.080  14.100   0.926
62385W        W32985  13.680  28.441  13.823
62386W        W32986   1.876  32.408   4.530
62387W        W32987  36.067  20.686   2.112
62388W        W32988   0.576  42.873  10.822
62389W        W32989  14.568  11.549  10.804
62390W        W32990  10.370  26.543   2.405
62391W        W32991  36.061   0.505  10.792
62392W        W32992  37.100  26.639  14.466
62393W        W32993  12.398  42.311  14.966
62394W        W32994   2.540   1.810  11.981
62395W        W32995  30.321  13.126   2.989
62396W        W32996  16.062  43.040  12.859
62397W        W32997   8.313  36.003  14.825
62398W        W32998   9.335  18.221  13.294
62399W        W32999  42.278  38.032  14.879
62400W        W33000  18.196  18.027  13.444
62401W        W33001  26.671  41.592   4.057
62402W        W33002  18.851  34.329  12.804
62403W        W33003  30.396  30.106  13.972
62404W        W33004  20.696  27.905  11.464
62405W        W33005   7.795  18.456  12.505
62406W        W33006   1.425  26.877   4.073
62407W        W33007  16.244  27.063   1.836
62408W        W33008  27.979  25.497   1.563
62409W        W33009  42.112  37.726  14.330
62410W        W33010  18.840  11.107  11.542
62411W        W33011  25.744  40.264   1.961
62412W        W33012   6.547  40.077  11.253
62413W        W33013  12.252  11.810   4.800
62414W        W33014  11.352   5.014   3.099
62415W        W33015   6.774   1.851   2.913
62416W        W33016   9.175  37.359   1.730
62417W        W33017  14.012  32.029  12.811
62418W        W33018  14.152  36.994  14.834
62419W        W33019  25.280  11.673   0.874
62420W        W33020  19.161  12.378  12.441
62421W        W33021  27.058  23.310  12.556
62422W        W33022  43.071  37.387  11.079
62423W        W33023   7.269  44.973  14.305
62424W        W33024  32.470  23.344  13.944
62425W        W33025  29.135   4.167  12.388
62426W        W33026  20.735  37.086  13.957
62427W        W33027  27.626   8.702   0.627
62428W        W33028   3.195   4.531  14.408
62429W        W33029   4.497  43.333   1.427
62430W        W33030   4.302  44.249   0.999
62431W        W33031   0.864  14.715  12.681
62432W        W33032  13.174  29.504   2.736
62433W        W33033  37.830  29.971   0.054
62434W        W33034  19.706  27.692  11.463
62435W        W33035  19.253  10.749  14.064
62436W        W33036  16.874  27.203  11.213
62437W        W33037  25.262   6.464  11.232
62438W        W33038   8.760   3.977  14.970
62439W        W33039  33.895   7.572  13.888
62440W        W33040  18.672  33.797   3.321
62441W        W33041  28.134   0.702  12.443
62442W        W33042  23.508  33.742  11.451
62443W        W33043   0.278  29.210   0.303
62444W        W33044  32.984  35.050  10.705
62445W        W33045   9.892  11.181  14.388
62446W        W33046  37.583  32.695   0.814
62447W        W33047  32.748  39.072  12.578
62448W        W33048  12.249  38.023   2.527
62449W        W33049   3.857   0.022   1.894
62450W        W33050  17.855  14.132   2.827
62451W        W33051  33.345  27.561   3.317
62452W        W33052  42.766  17.599  14.874
62453W        W33053  10.650  15.389  14.378
62454W        W33054  15.768  28.631   3.318
62455W        W33055  30.086   9.669  13.049
62456W        W33056  33.748   8.211  10.877
62457W        W33057   8.844   3.892   1.954
62458W        W33058  13.308   9.430  14.378
62459W        W33059  33.897  29.015   0.837
62460W        W33060  16.762  10.322  10.663
62461W        W33061   4.236   7.850   3.955
62462W        W33062  26.454  10.791   1.582
62463W        W33063  42.039   8.279   0.683
62464W        W33064  38.559  36.938   3.308
62465W        W33065  18.277  13.826  11.911
62466W        W33066  39.288  16.370   0.662
62467W        W33067  11.293  42.540  13.282
62468W        W33068  36.443  25.927   1.302
62469W        W33069  16.531  15.980  10.607
62470W        W33070   5.499  41.118  11.009
62471W        W33071  17.683  41.621   2.185
62472W        W33072   3.278  33.481  14.057
62473W        W33073  11.661  12.524   2.311
62474W        W33074  39.086  36.824   3.254
62475W        W33075  31.081   2.824  13.929
62476W        W33076  15.079  40.889   1.516
62477W        W33077  36.068  29.926   4.235
62478W        W33078   0.331  38.949  12.320
62479W        W33079  29.401  30.606   2.348
62480W        W33080  29.053   5.124  14.724
62481W        W33081  14.177  21.009  12.340
62482W        W33082  20.513  16.784  10.446
62483W        W33083   1.040  29.421   0.750
62484W        W33084  31.061   4.388   0.877
62485W        W33085  17.999  34.896  14.966
62486W        W33086  33.103  39.195   0.861
62487W        W33087  32.166  17.218   1.010
62488W        W33088  37.366  41.878   4.572
62489W        W33089  17.065  37.029  12.596
62490W        W33090  17.308  12.243   2.767
62491W        W33091   3.574   1.611   3.295
62492W        W33092  34.075  32.063  12.116
62493W        W33093   4.762  38.494   4.054
62494W        W33094  42.576   3.967  11.638
62495W        W33095  34.628  34.346   1.435
62496W        W33096  20.090  41.690   3.350
62497W        W33097   9.506  29.901  10.384
62498W        W33098  30.630  16.199   0.894
62499W        W33099  30.618  36.552   0.479
62500W        W33100  40.277  39.593  13.664
62501W        W33101  20.998  23.757  14.109
62502W        W33102   6.298  12.702  14.950
62503W        W33103  43.248   5.443  12.303
62504W        W33104   6.501  16.806  11.596
62505W        W33105  34.062  22.497   2.273
62506W        W33106   4.257  38.991  14.656
62507W        W33107  12.134   2.893   0.955
62508W        W33108   6.360  25.980  10.670
62509W        W33109   1.516  27.683   1.131
62510W        W33110  10.450   6.868  12.370
62511W        W33111  14.352  41.465   3.233
62512W        W33112  21.645  33.198   4.493
62513W        W33113  15.236  22.785   0.156
62514W        W33114  34.221  36.806   2.755
62515W        W33115  39.038  29.561   4.359
62516W        W33116  12.536  33.115  14.112
62517W        W33117  44.505   1.426   1.203
62518W        W33118  35.356  35.465  13.290
62519W        W33119  14.134  38.469  11.906
62520W        W33120  17.570   0.866  10.606
62521W        W33121  11.908   3.136   0.500
62522W        W33122  35.414  43.544   4.536
62523W        W33123   5.225  10.386  12.504
62524W        W33124   6.830  41.803   4.174
62525W        W33125   7.798  32.606  12.604
62526W        W33126  39.335  12.760   4.578
62527W        W33127  23.551  35.974   1.568
62528W        W33128  33.681  37.296  13.140
62529W        W33129  34.879  18.040  12.582
62530W        W33130   9.060  32.394  12.845
62531W        W33131  16.275  41.757  10.093
62532W        W33132  37.969  27.975  12.511
62533W        W33133  17.056  22.247  12.696
62534W        W33134   3.254  25.994  13.113
62535W        W33135  38.920   0.835   4.465
62536W        W33136  41.496  32.926  12.474
62537W        W33137  31.656  19.979   4.571
62538W        W33138  15.551  31.623   5.018
62539W        W33139  14.259  11.141  13.862
62540W        W33140  11.656  29.214   0.268
62541W        W33141   0.775  38.107  10.687
62542W        W33142  44.161   8.472  13.985
62543W        W33143  44.942  28.967   3.149
62544W        W33144   0.559  33.403   3.076
62545W        W33145  31.592  38.049  13.517
62546W        W33146  33.355  37.448  11.583
62547W        W33147  33.621  20.380   3.752
62548W        W33148  14.718  42.286   0.884
62549W        W33149  15.399   7.895   3.776
62550W        W33150  26.621  10.247  11.207
62551W        W33151   1.202  43.462   4.186
62552W        W33152  31.951  23.977  12.451
62553W        W33153  12.254  18.863  12.151
62554W        W33154  27.202  15.323  11.991
62555W        W33155  21.603  26.713  12.360
62556W        W33156   5.733  30.094   3.114
62557W        W33157   7.145  20.511   2.199
62558W        W33158  38.306  13.889   4.611
62559W        W33159  40.058  43.782   1.607
62560W        W33160  35.783   7.325   0.842
62561W        W33161  26.452  27.110   1.874
62562W        W33162   9.900  40.727   2.928
62563W        W33163  18.797   6.851  12.852
62564W        W33164  17.706  43.917  12.614
62565W        W33165  10.093  10.690   4.570
62566W        W33166  15.755  12.849   0.351
62567W        W33167   1.088  29.315   2.858
62568W        W33168   6.273  22.762   9.423
62569W        W33169  31.573  18.503   4.532
62570W        W33170  35.921   8.911   3.217
62571W        W33171   0.011  40.872   3.073
62572W        W33172   5.779   5.255  10.669
62573W        W33173  10.760  32.223   4.772
62574W        W33174  11.602  38.296  12.714
62575W        W33175  24.159  22.096  12.239
62576W        W33176  34.594   2.666  12.182
62577W        W33177  28.088   8.865  10.354
62578W        W33178   0.540  36.934   4.048
62579W        W33179  35.669   2.657  12.923
62580W        W33180  10.418  31.986   0.388
62581W        W33181  26.497  15.271  12.537
62582W        W33182   5.779   6.833   2.905
62583W        W33183  33.298  26.909  11.123
62584W        W33184  42.477   7.905  11.534
62585W        W33185  18.347  15.624   3.773
62586W        W33186  44.456  28.054  14.794
62587W        W33187  16.535  44.279  11.903
62588W        W33188  22.594   2.289  12.556
62589W        W33189  10.214  13.700   1.228
62590W        W33190  44.880  42.569   2.296
62591W        W33191  44.747  24.091  11.884
62592W        W33192   6.716   2.765   1.343
62593W        W33193  40.121   7.289  12.964
62594W        W33194  34.995  41.973  12.529
62595W        W33195  11.205  32.314   3.673
62596W        W33196   5.262  24.986   0.340
62597W        W33197  29.228  28.507  13.419
62598W        W33198  15.094  30.201  14.351
62599W        W33199  33.372  17.370  13.918
62600W        W33200  30.912   9.988  11.132
62601W        W33201  19.439   4.688   0.281
62602W        W33202  30.625  39.349   1.368
62603W        W33203  10.853  41.399   0.562
62604W        W33204  16.151  29.096  12.992
62605W        W33205   8.826  17.599  12.034
62606W        W33206   4.489  21.835   0.026
62607W        W33207  19.413  41.581  11.151
62608W        W33208   8.310  18.271   1.882
62609W        W33209  41.892   2.657  11.887
62610W        W33210  28.723  20.063   0.275
62611W        W33211   3.909  11.140  12.895
62612W        W33212  43.028   1.351   2.442
62613W        W33213   8.187  42.108   4.102
62614W        W33214  38.477  36.204  13.409
62615W        W33215  10.926  22.689  13.910
62616W        W33216  35.139  22.649   1.187
62617W        W33217  24.435  10.207  12.207
62618W        W33218  28.689  29.572   1.688
62619W        W33219  19.930  24.621  10.882
62620W        W33220  24.530  43.396   0.010
62621W        W33221  40.065  40.946  14.512
62622W        W33222  13.894   0.099   4.973
62623W        W33223  38.514  22.616   3.211
62624W        W33224  23.483  24.125   2.979
62625W        W33225  23.557  26.608  13.155
62626W        W33226  29.141  19.604   3.698
62627W        W33227  39.351  10.589   4.622
62628W        W33228  20.535  25.642   3.538
62629W        W33229  34.014  18.040   1.260
62630W        W33230  36.331  22.561  13.438
62631W        W33231  23.544  20.707  12.571
62632W        W33232  44.587  19.769  11.413
62633W        W33233  43.444  28.745  14.025
62634W        W33234   3.919  41.598   0.851
62635W        W33235  15.776  21.992   3.695
62636W        W33236  25.416  37.157  10.439
62637W        W33237  10.277   3.306   1.690
62638W        W33238  13.254  32.452   3.106
62639W        W33239  35.671  20.551   3.639
62640W        W33240  16.243  20.943   4.703
62641W        W33241  21.969  16.701   2.702
62642W        W33242  40.484  42.541  14.312
62643W        W33243   8.169  33.099   2.923
62644W        W33244  38.826  12.529   9.915
62645W        W33245   8.769  24.339  13.277
62646W        W33246  10.261   0.955   1.009
62647W        W33247  19.058  30.213   3.801
62648W        W33248   1.713  34.297  10.196
62649W        W33249  31.661  34.378  12.459
62650W        W33250  28.286  23.580  14.943
62651W        W33251   0.798   4.531  11.153
62652W        W33252   3.282   8.377  14.263
62653W        W33253  42.953   9.281  12.434
62654W        W33254   3.030  41.732   3.410
62655W        W33255  41.267  14.006  13.396
62656W        W33256  19.765   4.414  12.024
62657W        W33257  14.107  18.663  10.900
62658W        W33258  13.676  21.769  12.480
62659W        W33259   6.395  38.634  12.010
62660W        W33260   3.395  20.821   1.672
62661W        W33261   5.627  17.039  13.810
62662W        W33262   2.324   1.207  11.587
62663W        W33263   1.517  35.012   4.911
62664W        W33264  12.833   7.778   1.476
62665W        W33265  22.264  35.610  10.736
62666W        W33266  22.178  14.301  11.189
62667W        W33267  13.852   7.843   0.845
62668W        W33268  20.772  32.863  12.860
62669W        W33269  35.943  17.346  10.750
62670W        W33270  29.596  24.397   4.607
62671W        W33271  28.352  19.662   3.181
62672W        W33272  18.574   2.695   1.407
62673W        W33273  37.440  43.514  12.337
62674W        W33274   3.347  14.802  11.487
62675W        W33275  13.822   7.679   3.555
62676W        W33276  17.547  43.252   3.912
62677W        W33277  36.664  17.582  12.172
62678W        W33278  36.108  24.633   1.249
62679W        W33279  31.628  25.764  11.507
62680W        W33280   3.782  15.370  11.175
62681W        W33281  12.143  29.422  12.927
62682W        W33282   4.749  18.850  14.400
62683W        W33283   1.776   8.034   4.981
62684W        W33284  35.539  26.468   2.612
62685W        W33285  28.407  43.305  12.408
62686W        W33286  23.530  13.276  14.333
62687W        W33287   1.286  30.367   2.092
62688W        W33288  14.044  11.719  11.999
62689W        W33289   3.503  37.852  14.877
62690W        W33290   6.299  42.921  14.410
62691W        W33291  44.216  14.739  12.515
62692W        W33292  40.281  15.764   0.174
62693W        W33293   1.286  33.898   4.070
62694W        W33294   4.986  13.280   1.720
62695W        W33295  19.170  42.397  14.118
62696W        W33296  12.531  10.042  12.089
62697W        W33297   8.721  10.721   2.292
62698W        W33298  10.424   0.622  10.842
62699W        W33299  31.589  34.805  11.550
62700W        W33300  17.024  37.543  12.547
62701W        W33301  34.376  24.327   3.002
62702W        W33302  11.247  25.117   4.912
62703W        W33303  41.467  42.330  11.648
62704W        W33304  34.968  12.110   2.723
62705W        W33305  32.959  44.795   1.821
62706W        W33306   2.231  27.061  10.505
62707W        W33307  13.600  34.181  11.010
62708W        W33308  15.290   2.738   2.705
62709W        W33309  17.412   1.427  14.481
62710W        W33310  23.556  35.378  12.717
62711W        W33311   7.257  40.563  12.022
62712W        W33312  12.500  31.425  14.049
62713W        W33313  28.890  40.039   1.346
62714W        W33314  20.192  42.227   0.711
62715W        W33315  37.479  23.490  10.120
62716W        W33316  12.269   6.869   3.688
62717W        W33317  24.249   3.224   5.013
62718W        W33318  28.900  10.323  11.540
62719W        W33319  32.896   7.249  11.131
62720W        W33320  15.337  23.281   0.249
62721W        W33321  16.490  20.552  12.150
62722W        W33322   3.502  36.560  11.224
62723W        W33323   1.013  44.737   3.328
62724W        W33324  37.637  18.775  10.704
62725W        W33325   5.846  34.879   4.178
62726W        W33326   4.803  32.369  14.913
62727W        W33327  31.556  21.604   4.567
62728W        W33328   6.418  33.384   2.240
62729W        W33329  40.799   0.442  11.606
62730W        W33330  38.087  25.424   0.397
62731W        W33331  23.529  24.459   1.297
62732W        W33332  43.228  10.301  10.583
62733W        W33333   6.365  30.530  10.734
62734W        W33334   7.214   6.590  10.923
62735W        W33335  16.054  16.870  13.336
62736W        W33336   6.662  39.502   2.617
62737W        W33337  15.268  18.991  14.455
62738W        W33338  43.817  41.441  14.823
62739W        W33339  41.541  42.280   2.862
62740W        W33340  10.446  22.567  12.641
62741W        W33341   5.989  20.756  10.420
62742W        W33342   0.018  41.380  11.820
62743W        W33343  43.273  12.511   1.178
62744W        W33344  19.134   3.859   2.588
62745W        W33345  33.361  24.798  11.036
62746W        W33346  31.250  25.199  14.801
62747W        W33347   2.677  31.844  14.253
62748W        W33348  35.382  23.724  11.096
62749W        W33349  41.476   9.900   1.385
62750W        W33350  18.305   7.401  14.528
62751W        W33351  35.346  21.194  14.980
62752W        W33352  10.689  12.459  11.723
62753W        W33353  18.050  17.049   1.692
62754W        W33354   6.154  15.665  12.967
62755W        W33355  13.865  30.003   1.098
62756W        W33356  32.145   5.625   0.715
62757W        W33357  36.114  40.249   2.097
62758W        W33358   8.369  19.114   1.456
62759W        W33359  19.749   3.158   3.820
62760W        W33360   2.925  27.130   3.877
62761W        W33361  31.137  25.295   3.278
62762W        W33362   1.999  10.241  10.740
62763W        W33363   5.214   7.708   2.249
62764W        W33364  25.232  13.700  13.525
62765W        W33365  12.400   0.854  11.718
62766W        W33366  26.981  36.098  10.572
62767W        W33367  26.784  13.388  13.325
62768W        W33368  21.625  28.548  13.770
62769W        W33369  31.854  30.961  13.036
62770W        W33370  15.163  27.047  14.075
62771W        W33371  17.350   9.392   2.902
62772W        W33372  19.807  13.627   2.406
62773W        W33373  35.893  16.323   0.604
62774W        W33374  14.128  43.350   4.154
62775W        W33375  33.890  40.549  11.201
62776W        W33376   5.778   6.583   0.357
62777W        W33377  43.813   9.820  12.884
62778W        W33378   3.768   4.969   4.722
62779W        W33379  17.227  13.178  13.418
62780W        W33380   3.369  32.749   1.010
62781W        W33381  36.887  25.200   0.252
62782W        W33382  21.606  43.395  10.971
62783W        W33383  15.214  26.634  11.028
62784W        W33384  17.933  30.538  10.696
62785W        W33385  13.058  43.318   2.627
62786W        W33386  29.460  19.625   1.196
62787W        W33387  35.755  13.988  14.320
62788W        W33388  25.596  33.065   4.157
62789W        W33389  29.535  15.082  10.670
62790W        W33390  30.833  42.235  13.911
62791W        W33391  38.946  27.824   1.636
62792W        W33392  30.257  27.771   4.564
62793W        W33393   4.910   6.974  13.376
62794W        W33394  15.186  36.784  11.643
62795W        W33395  20.720   4.477   3.147
62796W        W33396  21.648  27.548  11.623
62797W        W33397   6.438  14.140  11.990
62798W        W33398  21.286  34.593   3.678
62799W        W33399  33.087   3.947  11.498
62800W        W33400   6.746   4.997  10.318
62801W        W33401  12.379  39.404  14.611
62802W        W33402  13.026   8.049  14.035
62803W        W33403  24.166  13.816  13.999
62804W        W33404   7.329   4.131  12.097
62805W        W33405  35.733  12.139  11.962
62806W        W33406  12.340   9.119   4.178
62807W        W33407  12.165  37.810   0.247
62808W        W33408  40.856  34.795  10.527
62809W        W33409   0.698  34.464  13.401
62810W        W33410  41.451  32.400   4.779
62811W        W33411  41.893  35.360   1.224
62812W        W33412  21.603  10.777   1.228
62813W        W33413  42.573  25.081   3.580
62814W        W33414   4.876   3.740  13.837
62815W        W33415  24.257  29.690   3.685
62816W        W33416  37.843  21.722  11.379
62817W        W33417  10.470   2.307  11.210
62818W        W33418   0.861  26.127   4.185
62819W        W33419  40.867  35.634  14.425
62820W        W33420  14.076  33.596   3.291
62821W        W33421  36.632  19.394  13.004
62822W        W33422   6.648  33.966  13.600
62823W        W33423   0.679  23.942   2.554
62824W        W33424  42.073  34.346   4.144
62825W        W33425  34.881  43.218  11.119
62826W        W33426   2.865  34.127   2.745
62827W        W33427  40.082  10.113   3.786
62828W        W33428  40.776  32.170   1.875
62829W        W33429  33.423   9.394  10.717
62830W        W33430  23.529  39.097  14.156
62831W        W33431  23.711  27.963   0.689
62832W        W33432  10.723  23.780  10.746
62833W        W33433   2.956  44.413  14.950
62834W        W33434  31.717   6.594   0.321
62835W        W33435  39.164  31.093  12.575
62836W        W33436  39.891   7.503  11.641
62837W        W33437  29.548  19.062  14.415
62838W        W33438  10.904  11.536   2.984
62839W        W33439  31.860  33.591   4.580
62840W        W33440  18.716   5.998  14.958
62841W        W33441   8.901  10.944  12.364
62842W        W33442  17.195  30.475  14.769
62843W        W33443  42.512  30.627  11.247
62844W        W33444   8.830  38.435   2.379
62845W        W33445  33.851  35.073  13.515
62846W        W33446  14.759  11.172  13.375
62847W        W33447  29.204  12.302   1.338
62848W        W33448  42.009  25.765   2.605
62849W        W33449  43.531   7.782  14.610
62850W        W33450   7.719   3.931  10.667
62851W        W33451  27.535  22.155  12.465
62852W        W33452   5.334   0.779  11.424
62853W        W33453  10.343  11.888   1.396
62854W        W33454  28.666  34.165   1.382
62855W        W33455  25.754  43.493   3.365
62856W        W33456  44.356  15.397  10.380
62857W        W33457  19.763  24.598   1.807
62858W        W33458   2.379  14.871   2.447
62859W        W33459  38.956  15.727  12.972
62860W        W33460  16.965  44.503  14.967
62861W        W33461   5.713  13.821  13.150
62862W        W33462   5.728  40.085  11.580
62863W        W33463  42.821   5.370  12.571
62864W        W33464  17.770   9.299  12.482
62865W        W33465  37.517   0.002  12.535
62866W        W33466  42.578  13.024  13.485
62867W        W33467  41.054  38.694  14.589
62868W        W33468  28.039  25.669   3.898
62869W        W33469   8.620   1.986  12.429
62870W        W33470  19.693  30.300  14.478
62871W        W33471  32.714   6.949  14.853
62872W        W33472  40.417  31.602  13.545
62873W        W33473  17.271   1.460   3.187
62874W        W33474  44.486  27.439  11.592
62875W        W33475  22.050  42.348   0.430
62876W        W33476  37.509  40.852   0.964
62877W        W33477  42.869  39.402  10.554
62878W        W33478  13.157  19.742  11.725
62879W        W33479   2.811  39.347  14.301
62880W        W33480  23.421  40.973  11.464
62881W        W33481  38.312  28.920   2.407
62882W        W33482  23.450  10.210  13.787
62883W        W33483  43.950  28.136  14.839
62884W        W33484  33.500  40.520  12.760
62885W        W33485  39.571  23.143   2.519
62886W        W33486   7.396  34.447  14.160
62887W        W33487  32.757  17.915  12.670
62888W        W33488  27.105  15.836   1.973
62889W        W33489  38.131   6.620   2.790
62890W        W33490  41.295  19.263   2.787
62891W        W33491   0.945  15.421  14.432
62892W        W33492  31.507   4.626   0.734
62893W        W33493  28.885   2.278   0.406
62894W        W33494  13.615  38.109  11.006
62895W        W33495  36.889  38.533   1.896
62896W        W33496   8.081   0.209   2.919
62897W        W33497  27.576  44.231  12.162
62898W        W33498  25.998  12.905  12.731
62899W        W33499  26.394   3.378  10.677
62900W        W33500  38.463  42.908  13.484
62901W        W33501  40.275  15.245   1.392
62902W        W33502  25.222  16.064   0.885
62903W        W33503  22.724  41.236   4.098
62904W        W33504   7.142  39.361  11.485
62905W        W33505  19.843  29.035  11.236
62906W        W33506  37.808  19.350   2.771
62907W        W33507  36.316  31.522  12.468
62908W        W33508  42.840   3.947   0.414
62909W        W33509  39.948  43.351   1.917
62910W        W33510  32.120  13.549   4.557
62911W        W33511  19.996  44.539   4.205
62912W        W33512  43.218  14.591  13.122
62913W        W33513  37.211  29.872   5.220
62914W        W33514   5.247  40.253  12.833
62915W        W33515  28.398  22.060   1.152
62916W        W33516  32.520  40.892  11.904
62917W        W33517  21.303  20.665   4.567
62918W        W33518  22.420  30.952  13.026
62919W        W33519  14.298  19.186   2.179
62920W        W33520  33.574  44.761   1.272
62921W        W33521  41.277  27.065   2.401
62922W        W33522  27.168  17.470   2.121
62923W        W33523  43.498  19.710  12.538
62924W        W33524  43.271  26.822  14.762
62925W        W33525  27.289  20.334  11.627
62926W        W33526  36.115  16.048   1.974
62927W        W33527  33.975  37.630   0.268
62928W        W33528  32.559  38.539   0.521
62929W        W33529  42.815  11.226   3.639
62930W        W33530  43.231  29.738   0.506
62931W        W33531   2.403  31.134   3.266
62932W        W33532  14.875  35.558  12.037
62933W        W33533  17.341  31.479  10.573
62934W        W33534  30.037   8.389   0.313
62935W        W33535  30.627  29.762   1.817
62936W        W33536  26.448  35.884  14.829
62937W        W33537  30.566  44.780   1.851
62938W        W33538  19.430  30.947  12.770
62939W        W33539  12.807   9.955  14.000
62940W        W33540  17.279  43.427  14.253
62941W        W33541  19.294  43.450   3.286
62942W        W33542  42.812   7.759  10.575
62943W        W33543  30.750  39.916   3.993
62944W        W33544   7.691  18.948   1.830
62945W        W33545  26.570  33.998  12.647
62946W        W33546  37.434  33.880  14.295
62947W        W33547  14.442  37.276  11.135
62948W        W33548  25.514  38.968  12.199
62949W        W33549  21.762  12.845  10.741
62950W        W33550  36.765  25.926   1.700
62951W        W33551  35.010  31.051   4.914
62952W        W33552  18.503  28.449   3.290
62953W        W33553  26.992  40.855  13.378
62954W        W33554   4.699   1.397   3.920
62955W        W33555  19.222  35.990  13.866
62956W        W33556  29.104   7.652   0.742
62957W        W33557   1.964  18.663  11.440
62958W        W33558  36.528  36.347  13.638
62959W        W33559  19.156  15.703  12.824
62960W        W33560   5.265  26.105  14.046
62961W        W33561   8.723  15.827  13.818
62962W        W33562  26.860   2.883   5.061
62963W        W33563  18.029  43.983   3.696
62964W        W33564  28.604  22.041   3.405
62965W        W33565  17.995  13.300  13.823
62966W        W33566  22.754   0.831  14.578
62967W        W33567  33.523   2.103   4.575
62968W        W33568   2.545  23.692  11.182
62969W        W33569  12.608  18.105   0.475
62970W        W33570   6.297  39.302  14.379
62971W        W33571  27.128   1.226  11.598
62972W        W33572  30.101  31.688  13.972
62973W        W33573   1.055  43.056  10.749
62974W        W33574  37.431  12.641  12.312
62975W        W33575  28.862  27.438   2.781
62976W        W33576  27.434   0.987   3.789
62977W        W33577  25.995   4.616  10.471
62978W        W33578  40.261  28.531   0.735
62979W        W33579  12.393   7.891  10.633
62980W        W33580  44.294  38.547  11.975
62981W        W33581   4.297  27.599  11.074
62982W        W33582  44.464  25.614  14.252
62983W        W33583  24.928  42.951  10.656
62984W        W33584  16.758  12.419  10.648
62985W        W33585  13.850  19.311   4.542
62986W        W33586  35.531  17.594   4.366
62987W        W33587  35.619  26.809   3.070
62988W        W33588  24.144  18.826   0.172
62989W        W33589  22.054  28.872   4.202
62990W        W33590   3.291   1.383  11.082
62991W        W33591  20.153  34.660   4.572
62992W        W33592  17.974  40.531   0.784
62993W        W33593  22.609  32.103   1.583
62994W        W33594  31.938  25.022  10.577
62995W        W33595   9.620   2.449  14.502
62996W        W33596  28.137  32.401   2.783
62997W        W33597   7.834   7.677   4.845
62998W        W33598  23.157  44.751  13.114
62999W        W33599  14.757  10.341   3.653
63000W        W33600  22.696  23.336  13.350
63001W        W33601  32.868  31.971   0.841
63002W        W33602   0.387  11.695  10.509
63003W        W33603   0.850  41.603  10.159
63004W        W33604   7.850  42.599  12.557
63005W        W33605  17.067  17.675  13.905
63006W        W33606  41.613   7.040  10.275
63007W        W33607  40.565  21.227   0.436
63008W        W33608  36.288   8.292  14.314
63009W        W33609  33.375  11.846   1.551
63010W        W33610  12.858  17.234  13.584
63011W        W33611  32.881  17.293  14.055
63012W        W33612  25.252   1.826  12.156
63013W        W33613   7.643  29.654   1.496
63014W        W33614  14.671  44.085  13.092
63015W        W33615  32.540  34.573  13.198
63016W        W33616  17.773  10.793   2.924
63017W        W33617  10.109  14.125  12.481
63018W        W33618  34.311   0.576  13.941
63019W        W33619  22.539   4.866   1.826
63020W        W33620  21.077   9.894  11.190
63021W        W33621  27.940  33.501  12.339
63022W        W33622  12.154  38.363  12.027
63023W        W33623  32.279  39.072  11.681
63024W        W33624   5.239  30.530  12.106
63025W        W33625   2.109  28.579   4.230
63026W        W33626   4.925  35.398  11.121
63027W        W33627  20.431   7.021  14.438
63028W        W33628  29.884   2.374   1.861
63029W        W33629   8.109  19.071   1.025
63030W        W33630   6.674  22.600  13.897
63031W        W33631  32.466   1.996  10.662
63032W        W33632  30.904   5.565  11.364
63033W        W33633  35.470   8.041  11.193
63034W        W33634  21.989  43.478  12.341
63035W        W33635  13.222  41.377  14.624
63036W        W33636  24.968  38.894   0.361
63037W        W33637   6.328  22.950  10.564
63038W        W33638  40.227  27.982   1.341
63039W        W33639  16.599   5.020  11.234
63040W        W33640  38.607   1.781   0.909
63041W        W33641  41.621  34.435   0.836
63042W        W33642  28.584  35.047   3.328
63043W        W33643  19.507  40.800  13.050
63044W        W33644  41.412  15.413   0.414
63045W        W33645  13.860  31.836   2.867
63046W        W33646   4.696  14.271  11.138
63047W        W33647   6.341  27.477   0.287
63048W        W33648  13.330  26.419  12.493
63049W        W33649  44.983  22.257   2.321
63050W        W33650  10.891  40.228  14.528
63051W        W33651  19.690  13.185  14.247
63052W        W33652  41.027   7.910  12.922
63053W        W33653  39.239  41.974  11.399
63054W        W33654  20.287  28.036  14.945
63055W        W33655   6.640  30.874  10.468
63056W        W33656  23.620  42.634  12.881
63057W        W33657  31.542   3.896   0.014
63058W        W33658  33.872  42.676   0.433
63059W        W33659  15.829  10.126   0.899
63060W        W33660  23.190  13.851   4.068
63061W        W33661  36.993  38.488   4.213
63062W        W33662  39.942  12.000   0.796
63063W        W33663  15.058  44.970  11.070
63064W        W33664  18.605  23.127   3.713
63065W        W33665  13.785  24.228   4.036
63066W        W33666  28.544  31.585   0.466
63067W        W33667  22.316   1.244   3.645
63068W        W33668  22.165   5.199  10.610
63069W        W33669   7.955  10.378  10.834
63070W        W33670   9.231  33.874   1.394
63071W        W33671  18.663   1.751   1.166
63072W        W33672  11.060   9.459  13.426
63073W        W33673  44.786  18.569   3.298
63074W        W33674   8.527  29.573  11.460
63075W        W33675  22.586  22.302  10.977
63076W        W33676  38.975  22.569  14.833
63077W        W33677  41.431  28.133   1.215
63078W        W33678  27.929  33.729  12.825
63079W        W33679  27.445  32.199   3.781
63080W        W33680  17.208   2.907   3.091
63081W        W33681  17.607  10.858  11.626
63082W        W33682   9.911   9.779   2.459
63083W        W33683  19.124   9.750  12.561
63084W        W33684  22.257  24.592   2.757
63085W        W33685  41.912  41.448  10.947
63086W        W33686  17.725  30.112   3.260
63087W        W33687  29.971  39.240  11.488
63088W        W33688  13.173  42.900  12.331
63089W        W33689  11.892   0.173   9.194
63090W        W33690   6.004  29.385   0.068
63091W        W33691  20.799   7.387  14.383
63092W        W33692  27.973  37.585   1.402
63093W        W33693   8.194   9.955   1.768
63094W        W33694  28.205  44.532  14.037
63095W        W33695  31.667  39.405   2.361
63096W        W33696  25.823  17.710  10.514
63097W        W33697   2.501  19.518   3.527
63098W        W33698  36.516   1.315   2.333
63099W        W33699  26.000  19.519   4.204
63100W        W33700  33.550  41.576  14.945
63101W        W33701  23.668  22.087   4.439
63102W        W33702  32.784   5.645   2.310
63103W        W33703   4.168   3.439   3.119
63104W        W33704  20.299  14.774  14.439
63105W        W33705  12.118  21.704  13.400
63106W        W33706  44.531  36.656  11.579
63107W        W33707  25.537  19.514  12.384
63108W        W33708  25.796   6.217   2.851
63109W        W33709   5.303  40.863  13.435
63110W        W33710  36.180  28.533   2.995
63111W        W33711  10.161  36.237  12.309
63112W        W33712  12.137  44.259   2.645
63113W        W33713  38.055  10.683   4.380
63114W        W33714  21.239  40.875   2.895
63115W        W33715  38.884  10.520   1.787
63116W        W33716  31.692  30.283   0.116
63117W        W33717   9.367   9.546  11.231
63118W        W33718  25.476   0.559  12.879
63119W        W33719  14.841  31.337   3.874
63120W        W33720  27.241  21.143  10.604
63121W        W33721  42.068  39.779  11.518
63122W        W33722  25.618  39.482   0.434
63123W        W33723  33.113  19.139  14.907
63124W        W33724  31.652  42.764   1.022
63125W        W33725  14.809  35.547  11.158
63126W        W33726   8.423  30.643  14.180
63127W        W33727  28.137   5.052   2.749
63128W        W33728  24.693   6.454   4.541
63129W        W33729  23.228  18.112  14.867
63130W        W33730   0.672  32.030   1.482
63131W        W33731   4.451  13.962  12.765
63132W        W33732   8.784  43.517   3.617
63133W        W33733  13.820   0.644   2.186
63134W        W33734  28.684  37.331   2.728
63135W        W33735   4.083  14.909  13.843
63136W        W33736  38.893  37.918  12.003
63137W        W33737  29.392  44.338   4.993
63138W        W33738  20.702  39.487  14.476
63139W        W33739  10.103   8.204  14.796
63140W        W33740  42.496  20.571  13.811
63141W        W33741   9.223  36.603   3.240
63142W        W33742  13.087  17.726   0.940
63143W        W33743  36.573  19.765   5.148
63144W        W33744  15.182  41.976   1.367
63145W        W33745  20.653  35.604  13.737
63146W        W33746  14.036  23.030  11.583
63147W        W33747   2.331  43.448   0.788
63148W        W33748  14.821  26.430   0.319
63149W        W33749  43.364  31.546   1.140
63150W        W33750   8.106  44.811  13.384
63151W        W33751  19.660  34.807  11.171
63152W        W33752  24.150  42.386  10.973
63153W        W33753  10.565  44.450   0.309
63154W        W33754   9.499  33.582  11.202
63155W        W33755   6.861  32.381   4.223
63156W        W33756  34.392  29.008  13.785
63157W        W33757  44.449  31.947   0.021
63158W        W33758   2.228  19.024   4.343
63159W        W33759   0.046  34.561   4.783
63160W        W33760  12.092   8.625   1.003
63161W        W33761  33.406  37.223   1.939
63162W        W33762  27.200  11.238   3.259
63163W        W33763   1.410   7.614   2.328
63164W        W33764  10.676  42.740  11.879
63165W        W33765  44.772   3.786  14.497
63166W        W33766   2.689  42.823  12.919
63167W        W33767  11.254  33.025  13.671
63168W        W33768  27.499  33.950  14.983
63169W        W33769  19.336  44.935   4.699
63170W        W33770  40.922  12.175   4.123
63171W        W33771  15.347  15.803  13.513
63172W        W33772  17.806  40.330  12.285
63173W        W33773  17.924  19.010  13.432
63174W        W33774   6.685   5.722  11.446
63175W        W33775  34.977   7.983  14.797
63176W        W33776  28.427   1.226  13.535
63177W        W33777  12.281  15.190  12.874
63178W        W33778  39.529  42.662   2.744
63179W        W33779  25.575  12.035  13.947
63180W        W33780  42.872  36.977   1.213
63181W        W33781  15.119   9.217  12.382
63182W        W33782   3.313  15.080   4.672
63183W        W33783  25.697  33.993   4.583
63184W        W33784  33.433  37.155  14.112
63185W        W33785  24.383   1.913  12.915
63186W        W33786  26.013  14.345   3.720
63187W        W33787  41.383  28.095  11.864
63188W        W33788  26.726  43.234   3.231
63189W        W33789  33.192  30.843   1.451
63190W        W33790  12.238  20.709   1.625
63191W        W33791  19.546   7.620   0.772
63192W        W33792  17.894  16.723  13.998
63193W        W33793  18.810  37.646  13.405
63194W        W33794  29.054  15.682   1.873
63195W        W33795  10.662  35.867   5.058
63196W        W33796   9.833  27.024   2.154
63197W        W33797  31.348  21.174   3.168
63198W        W33798  18.045  31.611   3.876
63199W        W33799  14.313  28.236   0.838
63200W        W33800  19.285  38.933  11.063
63201W        W33801  23.023  22.793  13.918
63202W        W33802  36.997  41.243  14.063
63203W        W33803  41.940  42.438  10.679
63204W        W33804  43.423  41.122   0.446
63205W        W33805   5.310  12.263  14.957
63206W        W33806  27.211  36.532  12.013
63207W        W33807  42.730  40.447   3.045
63208W        W33808  31.047  44.940  12.835
63209W        W33809  15.821  10.807   2.550
63210W        W33810  26.660  15.788   1.481
63211W        W33811  14.710  20.216   0.821
63212W        W33812  26.216  14.369  13.954
63213W        W33813  39.598  39.353   4.950
63214W        W33814   2.898  31.495   1.271
63215W        W33815   0.255  19.783   4.485
63216W        W33816   9.388  26.185   1.504
63217W        W33817  31.838  32.496   1.688
63218W        W33818   5.047  23.207  13.391
63219W        W33819  24.422  31.999  10.249
63220W        W33820  35.386   2.926  11.140
63221W        W33821  27.180  34.013  10.809
63222W        W33822  12.352  27.027   3.720
63223W        W33823  25.660  37.532  10.691
63224W        W33824  19.134  25.248   0.762
63225W        W33825  10.115  36.477  11.415
63226W        W33826  30.635  18.056  10.498
63227W        W33827  29.948  14.100   2.795
63228W        W33828  23.171  41.856   3.642
63229W        W33829  26.988  16.840  11.190
63230W        W33830  18.698  19.015   0.592
63231W        W33831  10.641   8.114   2.901
63232W        W33832  10.852  37.601   1.557
63233W        W33833  27.667  43.799   0.591
63234W        W33834   6.338  24.515   1.756
63235W        W33835  29.644  13.513   4.904
63236W        W33836  14.714  41.768   0.872
63237W        W33837  32.051  17.852   2.337
63238W        W33838  18.050  17.877   4.292
63239W        W33839  44.724  35.802  11.767
63240W        W33840   3.919  18.394  10.551
63241W        W33841  35.852  13.124  14.501
63242W        W33842  10.256  34.776  10.492
63243W        W33843  26.712  12.508  14.482
63244W        W33844  13.377  37.460   2.916
63245W        W33845  33.685  39.760   1.862
63246W        W33846   0.441  12.370  12.077
63247W        W33847  11.715  19.122  11.327
63248W        W33848   4.915   9.806   3.633
63249W        W33849  25.407  18.227   0.266
63250W        W33850  19.856   6.997   0.335
63251W        W33851   9.301  10.975  10.494
63252W        W33852  32.557  21.420   0.093
63253W        W33853  27.256  28.911   1.286
63254W        W33854   2.796  10.071  11.134
63255W        W33855  12.373  12.765  12.311
63256W        W33856  36.041  23.117  10.725
63257W        W33857  35.008  11.398   4.031
63258W        W33858  40.308   0.824   3.310
63259W        W33859  42.898   3.177  14.975
63260W        W33860  27.394  20.833  11.517
63261W        W33861  22.990  44.432  14.283
63262W        W33862  19.244   2.686  14.309
63263W        W33863  31.422  16.797  10.446
63264W        W33864  16.858  14.179  13.130
63265W        W33865  35.097  41.740  14.339
63266W        W33866   5.344  15.080  12.522
63267W        W33867  29.886  22.205   1.447
63268W        W33868  31.926  40.067   3.217
63269W        W33869  23.552  17.629   2.184
63270W        W33870   9.562  37.132   1.461
63271W        W33871  23.288  24.320  11.027
63272W        W33872  41.005   2.255  10.276
63273W        W33873   6.161  25.691   2.636
63274W        W33874  40.706   1.671  13.498
63275W        W33875  11.555  14.609  11.646
63276W        W33876  22.679  44.953  13.385
63277W        W33877  15.529  41.538  11.609
63278W        W33878  21.571  26.178   4.244
63279W        W33879  40.554  36.853  12.059
63280W        W33880  27.483  11.026  11.059
63281W        W33881  31.796  18.282  13.888
63282W        W33882  31.340  40.416  13.891
63283W        W33883  13.796  22.569  10.769
63284W        W33884  26.013  21.762   3.326
63285W        W33885  27.071  21.631  13.819
63286W        W33886  38.123  39.531   0.776
63287W        W33887  38.366  27.768   4.390
63288W        W33888  30.767  40.131  12.141
63289W        W33889  20.763  27.236   5.092
63290W        W33890  26.692  30.077   3.161
63291W        W33891   3.213  41.970  11.444
63292W        W33892  31.231  16.332  10.571
63293W        W33893   2.922   3.656  12.179
63294W        W33894   0.994  30.976   4.991
63295W        W33895   5.326  39.877   2.280
63296W        W33896   2.144   2.310   0.534
63297W        W33897   0.547  15.349  10.709
63298W        W33898  38.219  27.017   3.961
63299W        W33899  36.446  15.698   0.489
63300W        W33900  10.885  39.823  11.806
63301W        W33901  41.149  42.875  11.584
63302W        W33902   4.629  11.229  11.520
63303W        W33903   7.634  41.085  12.423
63304W        W33904  38.169   4.246   3.680
63305W        W33905  37.893   8.939   0.226
63306W        W33906  32.895  31.668  14.390
63307W        W33907   0.875  14.606   3.142
63308W        W33908  10.380  24.968   3.801
63309W        W33909  24.402  22.816   2.384
63310W        W33910  34.926  15.574  13.250
63311W        W33911   0.669  22.701  12.382
63312W        W33912  22.478  29.617  13.312
63313W        W33913  19.901   5.745  12.516
63314W        W33914  20.612   0.777   2.226
63315W        W33915   4.134  24.679  14.856
63316W        W33916   6.800  11.153   0.843
63317W        W33917  20.657  40.013   1.701
63318W        W33918  12.401  30.345  12.959
63319W        W33919  41.406  28.623   3.868
63320W        W33920   7.361   0.467   3.656
63321W        W33921  35.976  32.883  12.177
63322W        W33922  41.773  37.354  13.413
63323W        W33923   4.401  37.904  10.633
63324W        W33924  20.338  38.927   4.837
63325W        W33925   0.377  20.050   2.149
63326W        W33926  14.834   8.711   4.554
63327W        W33927   6.904  43.722  13.583
63328W        W33928  42.839  23.575  13.507
63329W        W33929  31.036  34.106   0.655
63330W        W33930  21.450   3.418   5.033
63331W        W33931  33.220  43.587  11.019
63332W        W33932  39.259  20.036  13.821
63333W        W33933   4.488  27.613   3.283
63334W        W33934  18.628  29.152   1.694
63335W        W33935  29.412  20.189  13.104
63336W        W33936  39.518  33.403  13.995
63337W        W33937  41.287   3.226  11.631
63338W        W33938  10.309   7.504  11.100
63339W        W33939  37.856  21.692  12.928
63340W        W33940  31.160  20.126   2.363
63341W        W33941  35.718  22.231   4.024
63342W        W33942  38.289  25.823   0.080
63343W        W33943   4.762  29.594  13.495
63344W        W33944  38.968  26.598   5.030
63345W        W33945  37.872  19.192   1.862
63346W        W33946   3.028   6.346   0.833
63347W        W33947   4.747  42.300  11.980
63348W        W33948   4.688   3.190   5.036
63349W        W33949  31.066  20.828  10.351
63350W        W33950  19.172  30.448  13.011
63351W        W33951  32.023  25.624   0.367
63352W        W33952  30.108  12.928   4.206
63353W        W33953  12.783  24.462   1.301
63354W        W33954  17.608  28.363  14.250
63355W        W33955   2.493  44.014  14.776
63356W        W33956  30.906  26.610   3.676
63357W        W33957  26.726   7.398   1.720
63358W        W33958   6.384  41.125   3.724
63359W        W33959   3.832  21.167   3.735
63360W        W33960  30.725   7.798  14.842
63361W        W33961  37.576  11.087   2.801
63362W        W33962  24.197  10.741  12.059
63363W        W33963  15.805   3.709   2.417
63364W        W33964  36.365  30.162  13.955
63365W        W33965  43.679  10.941  14.723
63366W        W33966  33.914  36.506   4.085
63367W        W33967   1.439  24.436   2.947
63368W        W33968  35.039  36.496   1.849
63369W        W33969  24.700  39.894   1.647
63370W        W33970  33.839  34.940  10.935
63371W        W33971  41.337  38.694  11.075
63372W        W33972  39.904  17.469   3.234
63373W        W33973  16.593  16.831   4.217
63374W        W33974  20.032  21.265   0.458
63375W        W33975  23.245  42.438   1.312
63376W        W33976   5.748  13.125   4.572
63377W        W33977  38.458  25.477   0.869
63378W        W33978  38.829  21.527  10.486
63379W        W33979   9.166  18.933  10.979
63380W        W33980  18.802  31.723   4.355
63381W        W33981   2.885  39.296   2.224
63382W        W33982  34.405  35.379  10.983
63383W        W33983  25.535  11.198   1.444
63384W        W33984   1.908  12.028   1.180
63385W        W33985  43.482  32.376   0.854
63386W        W33986   5.231  44.664   1.948
63387W        W33987  13.043  22.674   1.657
63388W        W33988  36.057   1.792  14.743
63389W        W33989  14.125  31.907   1.433
63390W        W33990  20.572   8.366   2.634
63391W        W33991  20.299  34.100   4.098
63392W        W33992  33.003   7.427   2.529
63393W        W33993  26.446  10.551   3.410
63394W        W33994  39.950  11.922   3.859
63395W        W33995  18.769  21.167  10.270
63396W        W33996  33.542  18.388  10.714
63397W        W33997  11.490  40.103  13.452
63398W        W33998  19.244  11.193   0.442
63399W        W33999  35.672   0.726   1.556
63400W        W34000  26.107  17.280  14.259
63401W        W34001  12.806  22.340  12.941
63402W        W34002  44.741  17.140   1.423
63403W        W34003  40.877  30.549   4.745
63404W        W34004  35.752   0.380  11.205
63405W        W34005  24.470  43.316  11.390
63406W        W34006  17.552  29.510  13.922
63407W        W34007  15.341  13.182   2.786
63408W        W34008  15.663   5.422   1.763
63409W        W34009  32.037  16.341   3.447
63410W        W34010  13.459  39.324   4.180
63411W        W34011  24.678  33.669   2.731
63412W        W34012   9.343  42.933   1.946
63413W        W34013  25.516  38.416  11.589
63414W        W34014  18.475  17.169   0.900
63415W        W34015  14.390  23.019  13.349
63416W        W34016  38.393  33.968   4.699
63417W        W34017  44.261   8.966  10.271
63418W        W34018  20.260  43.317  12.875
63419W        W34019  26.183  40.584  12.253
63420W        W34020  15.631  38.441   3.893
63421W        W34021  10.331  19.106   3.664
63422W        W34022  26.227  26.475  13.057
63423W        W34023   5.340  41.822   4.408
63424W        W34024  32.892  10.406   2.668
63425W        W34025  12.802  12.606  11.550
63426W        W34026  24.952  20.200  10.663
63427W        W34027  16.752  39.252  12.934
63428W        W34028  44.678   9.082   2.879
63429W        W34029  16.827   5.888   3.170
63430W        W34030  38.215  17.673   1.050
63431W        W34031  17.869  22.047   1.892
63432W        W34032  29.360  22.538  12.365
63433W        W34033   4.207  27.901  14.766
63434W        W34034  28.833   7.850  10.937
63435W        W34035  38.104   1.436  14.124
63436W        W34036  27.513   8.625   2.084
63437W        W34037  43.338  43.901  10.363
63438W        W34038   0.936  29.558   4.644
63439W        W34039   5.895  23.705   1.553
63440W        W34040  31.391  29.406  11.853
63441W        W34041  14.261  30.647  14.406
63442W        W34042  12.411  26.135  13.165
63443W        W34043   8.438   5.572   2.160
63444W        W34044  11.135  20.189  12.419
63445W        W34045  12.688  26.659  11.410
63446W        W34046  33.676  17.903  14.799
63447W        W34047  40.971  41.120   2.885
63448W        W34048  10.683  23.028  12.477
63449W        W34049  18.470   0.842  13.290
63450W        W34050   4.448  17.538  12.584
63451W        W34051   4.246  26.143   3.661
63452W        W34052  23.056   2.834  10.436
63453W        W34053  29.347  13.778  11.267
63454W        W34054   9.883  38.778   3.428
63455W        W34055   4.621  38.953   2.671
63456W        W34056  42.371  38.369   1.959
63457W        W34057  37.888  30.040  13.082
63458W        W34058   6.706  32.003   2.795
63459W        W34059  38.400   1.841   4.330
63460W        W34060  31.614   7.930   0.234
63461W        W34061   1.781  16.877   2.614
63462W        W34062  10.355  23.653  12.368
63463W        W34063  33.850  21.081   2.339
63464W        W34064  14.435  39.865   0.676
63465W        W34065   5.402   2.444   3.570
63466W        W34066  12.452   1.636   1.853
63467W        W34067  25.659  41.933   2.405
63468W        W34068   9.220  33.705   0.899
63469W        W34069  16.708   8.427  14.458
63470W        W34070   7.799  26.510   1.272
63471W        W34071  18.662  43.690  14.923
63472W        W34072   0.847  33.860  11.862
63473W        W34073  18.427  20.592   1.619
63474W        W34074  24.423  41.992   0.300
63475W        W34075  17.390  14.164  13.592
63476W        W34076  34.774  21.526  13.999
63477W        W34077  14.254   0.040  12.143
63478W        W34078  35.309  37.926  12.507
63479W        W34079  27.617   3.111  13.243
63480W        W34080   6.833  18.663   0.693
63481W        W34081  35.935   2.031   2.286
63482W        W34082  29.886  40.414  12.049
63483W        W34083  10.453  19.677   0.403
63484W        W34084   2.445  39.077   3.290
63485W        W34085  17.188  30.277  12.216
63486W        W34086  14.814  37.132  11.705
63487W        W34087   3.222  34.500   3.679
63488W        W34088   0.905  21.598   4.783
63489W        W34089   8.426  38.745  12.639
63490W        W34090   2.995  21.175   2.071
63491W        W34091  20.135   0.570  12.450
63492W        W34092  37.553  27.901   0.841
63493W        W34093  22.892  41.399  12.655
63494W        W34094  14.643  25.137  14.829
63495W        W34095  34.585  18.691   3.887
63496W        W34096  19.012  45.000   2.328
63497W        W34097  42.533  23.423   0.962
63498W        W34098  26.711  29.763  11.420
63499W        W34099  15.080  13.908   0.336
63500W        W34100   0.485  12.402   1.304
63501W        W34101   0.361   0.341  12.882
63502W        W34102  16.239  33.164  13.800
63503W        W34103  12.677  20.276   4.949
63504W        W34104  44.579  19.263   0.305
63505W        W34105  44.340  32.653  11.151
63506W        W34106  42.258   0.015   0.760
63507W        W34107  32.424  35.376   2.873
63508W        W34108  38.592   5.953  10.352
63509W        W34109  15.541  16.138  11.874
63510W        W34110  32.229   7.130  14.781
63511W        W34111   3.928   5.786  12.856
63512W        W34112   9.185  33.633   3.660
63513W        W34113  29.981  40.187   3.165
63514W        W34114   9.768  32.151   0.831
63515W        W34115  42.244   5.359   1.812
63516W        W34116  26.801  34.486  14.985
63517W        W34117  13.134  11.640  12.013
63518W        W34118  25.444  17.846   0.947
63519W        W34119   1.814  17.347  13.049
63520W        W34120  44.783  15.596  13.325
63521W        W34121  12.910  15.305   2.340
63522W        W34122  42.087   8.276  11.518
63523W        W34123  29.877   4.566  13.013
63524W        W34124  14.743  28.890  11.963
63525W        W34125  21.080  39.164   2.483
63526W        W34126  24.707   0.495  11.045
63527W        W34127  20.244  13.585  11.171
63528W        W34128   5.282   6.276   0.685
63529W        W34129  24.635  26.214  12.851
63530W        W34130  25.498  29.050  14.070
63531W        W34131  10.963  10.145  11.910
63532W        W34132   4.650  12.199  11.599
63533W        W34133   9.834  10.118   2.903
63534W        W34134  32.930   6.014  11.457
63535W        W34135   1.606  41.568   3.827
63536W        W34136   3.220  34.524   0.806
63537W        W34137  14.769   0.723  14.146
63538W        W34138  10.868  13.635  12.363
63539W        W34139  30.567  37.528   2.945
63540W        W34140  18.986   5.251   2.919
63541W        W34141  30.011  32.868  12.681
63542W        W34142   2.873   8.996   3.582
63543W        W34143   8.670  44.443   4.554
63544W        W34144  28.147  35.579  14.858
63545W        W34145  36.628  39.070   2.676
63546W        W34146  11.161  11.615   1.597
63547W        W34147  25.507  12.482  12.111
63548W        W34148  28.879   6.899   3.292
63549W        W34149  17.299  15.368   0.124
63550W        W34150  29.476  16.665   2.781
63551W        W34151  13.204  42.018   1.215
63552W        W34152  32.332  33.632   3.317
63553W        W34153  36.173  16.315  12.481
63554W        W34154  13.884  32.022   2.389
63555W        W34155  17.887  35.388   2.188
63556W        W34156  30.799  27.066  13.156
63557W        W34157   2.253  17.517   1.114
63558W        W34158  30.855  37.609  14.866
63559W        W34159  20.087   1.299  13.126
63560W        W34160  37.897  42.301  11.934
63561W        W34161  31.966   9.092   4.917
63562W        W34162  42.840  38.293   4.406
63563W        W34163  30.465  24.243   1.295
63564W        W34164  25.194  32.992  12.166
63565W        W34165  26.699  40.540  12.934
63566W        W34166  32.040  28.148  11.006
63567W        W34167   7.860  32.628  13.117
63568W        W34168  33.282   4.078   0.778
63569W        W34169  22.209  38.351  10.686
63570W        W34170  25.882  35.470  14.527
63571W        W34171   0.500  29.049   4.198
63572W        W34172  15.621  29.965  11.426
63573W        W34173  23.513  38.696   0.212
63574W        W34174  23.448  44.636   1.478
63575W        W34175  20.251  12.661  14.105
63576W        W34176  26.381  40.326  14.844
63577W        W34177  16.131   5.207  11.074
63578W        W34178  17.793   0.495   2.876
63579W        W34179  18.228  38.047   3.311
63580W        W34180  15.160   7.632  13.378
63581W        W34181  14.414  30.019   2.756
63582W        W34182  21.730  16.710  14.446
63583W        W34183   3.574  30.586   0.852
63584W        W34184  38.379  29.751   3.864
63585W        W34185  37.298  13.762   4.892
63586W        W34186   7.916   5.557  12.877
63587W        W34187  25.079  26.688   1.279
63588W        W34188  41.960  13.830   4.133
63589W        W34189   3.130  28.002  13.448
63590W        W34190  21.218  19.333   0.248
63591W        W34191  13.090   3.785   0.965
63592W        W34192  34.636  22.999  10.858
63593W        W34193   7.993   7.769   4.299
63594W        W34194  40.325  20.119  11.784
63595W        W34195  10.147  10.930   2.750
63596W        W34196  18.851  30.410  11.120
63597W        W34197  34.562  18.520   2.877
63598W        W34198  19.267   2.397  12.997
63599W        W34199  30.432   1.232  14.739
63600W        W34200   6.755  20.191   2.003
63601W        W34201  44.190  42.218   1.726
63602W        W34202  44.530  30.634   4.034
63603W        W34203  41.522   8.332   4.879
63604W        W34204   1.796  33.560  14.113
63605W        W34205  42.399  26.953   0.843
63606W        W34206  24.679  33.191   4.311
63607W        W34207  23.414  25.211  13.811
63608W        W34208   5.906  27.764  11.210
63609W        W34209  15.070  28.113  10.111
63610W        W34210   5.851  32.013   1.467
63611W        W34211  39.157   8.819   2.989
63612W        W34212  13.343  20.800   0.675
63613W        W34213   2.220  37.905   1.369
63614W        W34214   2.284  17.056   4.572
63615W        W34215  23.284   1.867   4.094
63616W        W34216   0.944  12.196  12.672
63617W        W34217  19.663  21.006  12.877
63618W        W34218  43.967  44.292   0.936
63619W        W34219   3.261  41.570   3.870
63620W        W34220  37.352  30.177  13.744
63621W        W34221  11.238  10.185   2.482
63622W        W34222   8.185  35.184   3.835
63623W        W34223  24.637  32.652   2.470
63624W        W34224   8.388  16.671  14.360
63625W        W34225  39.945  37.857   0.422
63626W        W34226   8.984  31.642  11.583
63627W        W34227   1.815  42.086  11.271
63628W        W34228   1.807   4.351   2.232
63629W        W34229  18.014   7.738   3.284
63630W        W34230  19.567  25.647   2.971
63631W        W34231  14.799  15.734   1.224
63632W        W34232  26.241  39.032   0.469
63633W        W34233   2.926   7.592   1.933
63634W        W34234  22.040   9.748  12.617
63635W        W34235  22.786  24.181  12.960
63636W        W34236  14.999  21.557   2.006
63637W        W34237  26.230  41.018  12.867
63638W        W34238  23.024  29.117  12.379
63639W        W34239   7.356  15.858   2.202
63640W        W34240  22.243  15.343  11.122
63641W        W34241  14.999  26.476  11.463
63642W        W34242  19.516  16.083  12.952
63643W        W34243  10.915  11.299   4.346
63644W        W34244  40.880  15.018  11.223
63645W        W34245  14.272   9.892  11.515
63646W        W34246  10.263  13.222  12.016
63647W        W34247  33.707   2.933   2.401
63648W        W34248  22.187   4.476   1.837
63649W        W34249   9.779  35.575  11.714
63650W        W34250   3.060  36.840  11.031
63651W        W34251   1.802  20.538  11.479
63652W        W34252  39.079  32.082   2.704
63653W        W34253   4.955  34.542   1.898
63654W        W34254  43.317   3.797  13.037
63655W        W34255   0.769  32.495   1.707
63656W        W34256  16.691  32.415  10.725
63657W        W34257  22.065  18.406  13.422
63658W        W34258  24.666   3.705  13.822
63659W        W34259  40.211  18.446  13.901
63660W        W34260   7.778  29.137  10.629
63661W        W34261   4.660  24.670  14.954
63662W        W34262  10.335   6.016  11.936
63663W        W34263  40.589  16.204   2.269
63664W        W34264  18.590  20.628   1.138
63665W        W34265  42.001  40.499   1.882
63666W        W34266  40.225  24.740  11.384
63667W        W34267   0.273  33.130   3.600
63668W        W34268   4.787  17.296  14.341
63669W        W34269  43.012  34.278  11.037
63670W        W34270  23.710  37.498   0.933
63671W        W34271   7.629   0.972   0.522
63672W        W34272  33.645   6.666  12.936
63673W        W34273  31.543  11.348   4.464
63674W        W34274  27.734  38.443  12.420
63675W        W34275   0.698  38.478   2.319
63676W        W34276  29.008  21.269  10.052
63677W        W34277   2.299  31.368   3.723
63678W        W34278  38.911   6.240  12.791
63679W        W34279  35.915  25.177  14.017
63680W        W34280  37.685  21.915  14.207
63681W        W34281  22.717  33.972  11.950
63682W        W34282  28.164  20.103  11.543
63683W        W34283  22.998   8.778   1.085
63684W        W34284  35.827  33.140   4.437
63685W        W34285  28.946   8.402  11.665
63686W        W34286  37.013   5.216   3.197
63687W        W34287  39.120   4.214   4.084
63688W        W34288   0.496  42.427  13.701
63689W        W34289   7.908  39.864   1.420
63690W        W34290  20.840  41.538   2.805
63691W        W34291  41.220   0.512   2.381
63692W        W34292  12.606  35.366   2.298
63693W        W34293  31.884  27.186  11.967
63694W        W34294  30.538  15.696  11.975
63695W        W34295  30.400  10.725   3.644
63696W        W34296   6.838  39.208   4.108
63697W        W34297  41.086  21.222   5.201
63698W        W34298  36.094  36.445   4.483
63699W        W34299  35.993  11.606   1.199
63700W        W34300  42.414  36.509  12.057
63701W        W34301   2.731  14.296  11.949
63702W        W34302   6.398  19.661   4.566
63703W        W34303  39.428  11.369  13.388
63704W        W34304  13.387  18.740   0.337
63705W        W34305  10.953   4.951  13.432
63706W        W34306   5.893   8.816  12.530
63707W        W34307  35.925  13.862   0.350
63708W        W34308   3.381  26.393  10.504
63709W        W34309   9.339  29.890   0.746
63710W        W34310  15.697   4.924   0.939
63711W        W34311  26.575  41.758  13.430
63712W        W34312  44.260  39.548   4.736
63713W        W34313  34.058  26.522  13.136
63714W        W34314  37.621   0.428   4.107
63715W        W34315  27.542  30.542  13.136
63716W        W34316  18.250  16.130   3.821
63717W        W34317  38.062  26.464   1.677
63718W        W34318  39.962   2.161   0.266
63719W        W34319  22.678  16.465   4.224
63720W        W34320  38.623  21.053  14.919
63721W        W34321   6.429  18.284   0.873
63722W        W34322  12.684   1.440   3.592
63723W        W34323   4.662  24.520   4.612
63724W        W34324   5.419   0.633  14.614
63725W        W34325   7.742  29.514  11.223
63726W        W34326  22.316  10.312  14.489
63727W        W34327   6.232   2.882  10.814
63728W        W34328  41.744  12.204   0.090
63729W        W34329   3.648  28.157   0.884
63730W        W34330  32.514   1.023   2.324
63731W        W34331   5.282  33.941  12.069
63732W        W34332  23.880  42.415   0.735
63733W        W34333  38.473   7.182  10.855
63734W        W34334  35.634   2.481   4.325
63735W        W34335  23.354  11.435  13.071
63736W        W34336  41.385  25.406   4.657
63737W        W34337  16.137  27.220   0.335
63738W        W34338  15.574  22.168   1.657
63739W        W34339  38.165  12.370   1.705
63740W        W34340   5.750  38.464   0.205
63741W        W34341  25.707  26.460  13.032
63742W        W34342  41.249  11.614   0.419
63743W        W34343   7.280  10.105  11.193
63744W        W34344  10.046  14.039  14.751
63745W        W34345  11.112  38.786  12.632
63746W        W34346  39.955  13.612   0.004
63747W        W34347  35.200  27.125   2.887
63748W        W34348   4.576  19.902   3.681
63749W        W34349  16.267  28.680   3.153
63750W        W34350  10.092  38.398   4.390
63751W        W34351  18.488  15.500  13.862
63752W        W34352  40.504  36.355  12.023
63753W        W34353  42.306  11.338   4.481
63754W        W34354   9.432  25.004   2.642
63755W        W34355   2.607  39.214   4.788
63756W        W34356  15.157  35.628   3.706
63757W        W34357  18.583  33.338  10.662
63758W        W34358  34.763  24.321  14.497
63759W        W34359  18.076  30.357  12.838
63760W        W34360  25.599  28.908   0.919
63761W        W34361  42.358  36.826  13.853
63762W        W34362  36.385  36.062   1.800
63763W        W34363  16.565  17.527   1.874
63764W        W34364  34.653  13.982   1.090
63765W        W34365  21.504  29.957  13.441
63766W        W34366  27.204  12.850  11.137
63767W        W34367  27.652  22.569   1.670
63768W        W34368  23.579  38.153   0.061
63769W        W34369  17.777  21.458   4.066
63770W        W34370   8.773   2.890   5.060
63771W        W34371  35.135   7.223  13.063
63772W        W34372   9.928   9.668   1.383
63773W        W34373  21.220  30.086   1.109
63774W        W34374  21.927  11.536   0.961
63775W        W34375  22.527  44.270   1.504
63776W        W34376  20.087  13.602   4.107
63777W        W34377  40.362  19.424   1.847
63778W        W34378  43.902  39.190  10.209
63779W        W34379   4.408  36.492   3.626
63780W        W34380  28.515  30.401   0.823
63781W        W34381   4.265  18.720   2.949
63782W        W34382  31.449  34.651  14.963
63783W        W34383   8.287  19.246   3.671
63784W        W34384  26.651  25.052  12.115
63785W        W34385   2.956  35.327  12.981
63786W        W34386  24.710  28.417   0.465
63787W        W34387   2.742   7.147   3.533
63788W        W34388  29.587  14.416  12.066
63789W        W34389  20.026  11.825   0.318
63790W        W34390  10.227  26.744   1.955
63791W        W34391  19.315   1.378   1.837
63792W        W34392  21.942  37.092   1.768
63793W        W34393   4.685  20.408  11.474
63794W        W34394   8.939  40.479  11.567
63795W        W34395   1.878  39.591   1.321
63796W        W34396   6.645  44.394   0.822
63797W        W34397   5.849   7.896  12.309
63798W        W34398  40.020  30.341   0.185
63799W        W34399  16.607  33.468  13.982
63800W        W34400   0.806  20.284   0.325
63801W        W34401  15.007  11.677   3.668
63802W        W34402   8.805  16.021  11.981
63803W        W34403  25.881   6.779   4.116
63804W        W34404  43.967  16.267   2.741
63805W        W34405  32.611  32.651   3.288
63806W        W34406  32.455  13.140   4.189
63807W        W34407  38.804  26.940   4.694
63808W        W34408  33.796  37.958   1.859
63809W        W34409  27.677  12.627  11.105
63810W        W34410   9.371   2.071  13.744
63811W        W34411  24.640   6.547   2.867
63812W        W34412  12.060  11.318  11.673
63813W        W34413  35.585  24.715   1.201
63814W        W34414  11.094  44.819  13.332
63815W        W34415  18.539   0.565   3.139
63816W        W34416  10.173  14.692  13.392
63817W        W34417  23.140  32.565   4.674
63818W        W34418  10.142  33.267   4.080
63819W        W34419  31.971  40.222   0.437
63820W        W34420  26.441  19.643  11.594
63821W        W34421  37.200   4.485   1.465
63822W        W34422  42.095  17.286   3.401
63823W        W34423   4.269   4.365  10.648
63824W        W34424  13.842  29.859   1.599
63825W        W34425  15.893  23.719  11.747
63826W        W34426  11.566  11.564   3.721
63827W        W34427   1.843  28.412  14.936
63828W        W34428  19.774  24.077  14.462
63829W        W34429  10.564  21.065  13.209
63830W        W34430  10.385   3.900   1.008
63831W        W34431  36.543  10.205  11.911
63832W        W34432   7.274  41.982  11.424
63833W        W34433  44.931  41.180  12.302
63834W        W34434   6.868  12.889  13.028
63835W        W34435  41.436  26.645   3.315
63836W        W34436  41.751   8.179   3.172
63837W        W34437   7.900  38.824   1.439
63838W        W34438  12.382   4.598   4.530
63839W        W34439  19.786  43.125  11.252
63840W        W34440   1.011  19.043   3.098
63841W        W34441  34.651  16.953   0.245
63842W        W34442  32.604  39.107  14.000
63843W        W34443  18.523  22.575   2.847
63844W        W34444  16.008  10.772  14.862
63845W        W34445   6.374  31.571  12.602
63846W        W34446  43.423  12.434  13.320
63847W        W34447  25.674  30.890  12.441
63848W        W34448  22.055  33.779   3.956
63849W        W34449  43.586  24.171  10.628
63850W        W34450  17.111  12.730   3.577
63851W        W34451   3.636  39.818   3.785
63852W        W34452  26.167   9.741  10.574
63853W        W34453  33.902  19.589   2.298
63854W        W34454   9.724  41.520  10.712
63855W        W34455  37.373   6.738  13.077
63856W        W34456  16.135  36.191   4.672
63857W        W34457  41.896  12.683   3.657
63858W        W34458  36.132  15.262  13.224
63859W        W34459  24.117  29.994   2.662
63860W        W34460  19.235  15.732   3.371
63861W        W34461   1.970   7.865  12.327
63862W        W34462  14.777  21.231  11.369
63863W        W34463  29.559   9.595   3.203
63864W        W34464  42.813  30.389  13.953
63865W        W34465  20.758   9.259   0.920
63866W        W34466  22.957  34.025   2.308
63867W        W34467  43.163   1.022  10.637
63868W        W34468  30.054  29.185  12.176
63869W        W34469   2.553  31.621   3.284
63870W        W34470  36.934  39.254   0.394
63871W        W34471   1.812  14.239   0.202
63872W        W34472  18.068  43.026   3.075
63873W        W34473  43.532  36.496  13.435
63874W        W34474   8.072  14.124   1.483
63875W        W34475   4.395  17.092  13.464
63876W        W34476  36.595   8.360   5.011
63877W        W34477  14.179   7.800  11.629
63878W        W34478  35.129  12.808   3.692
63879W        W34479  14.747  28.413   4.372
63880W        W34480  38.795  23.212  14.240
63881W        W34481   3.279   4.420   4.460
63882W        W34482   8.409  37.857  14.502
63883W        W34483  22.459  17.674  10.686
63884W        W34484   1.532  33.326   1.830
63885W        W34485  36.989   1.969   0.516
63886W        W34486  38.149  33.964  12.037
63887W        W34487  20.846   5.726   0.490
63888W        W34488  32.603  28.880  11.129
63889W        W34489  17.610   2.214   0.907
63890W        W34490  21.054   1.528   2.743
63891W        W34491  36.051  43.198  14.919
63892W        W34492  36.984   8.357   3.079
63893W        W34493  27.278  18.182   0.681
63894W        W34494  18.614   8.833  11.019
63895W        W34495  34.489  11.258  10.738
63896W        W34496   1.489  32.423  13.028
63897W        W34497   0.920  24.740   0.647
63898W        W34498  34.955  43.601  11.892
63899W        W34499  35.977  41.893   3.175
63900W        W34500  27.851  14.549  11.239
63901W        W34501  18.944  39.968   2.596
63902W        W34502  29.331  33.521  10.529
63903W        W34503  34.853  31.094   2.321
63904W        W34504   5.771  18.774   0.181
63905W        W34505  33.457   5.218  14.677
63906W        W34506  10.092  25.454   1.413
63907W        W34507  35.370  11.223  13.954
63908W        W34508  23.171  40.406   3.848
63909W        W34509  33.581  15.127  12.501
63910W        W34510  17.081  20.291   0.954
63911W        W34511  40.713  26.500  12.049
63912W        W34512   6.674  26.705   2.304
63913W        W34513  14.116  19.801  11.428
63914W        W34514   0.324  19.662   3.987
63915W        W34515  33.651   9.848  10.313
63916W        W34516  18.223  18.343   4.274
63917W        W34517  36.667  33.854  13.362
63918W        W34518  18.752  20.277   0.751
63919W        W34519  13.111   1.807   2.883
63920W        W34520   8.641  31.431   3.234
63921W        W34521  44.075  20.345  14.532
63922W        W34522  24.646  24.658  12.957
63923W        W34523  34.989  32.118   1.699
63924W        W34524  36.936  22.576   3.639
63925W        W34525  44.404   3.893  12.659
63926W        W34526  26.410  19.548   2.720
63927W        W34527  10.055   5.986  11.128
63928W        W34528  37.423  37.515  14.553
63929W        W34529  12.954  32.986   3.093
63930W        W34530  29.174   2.688   0.503
63931W        W34531  40.115  25.113  13.928
63932W        W34532  11.641  43.421   4.309
63933W        W34533  12.886  16.691  13.368
63934W        W34534   5.918  21.748   0.915
63935W        W34535  30.939  17.869  12.410
63936W        W34536   9.802  37.222  12.177
63937W        W34537  32.562  32.095  12.450
63938W        W34538   9.924  27.979  13.909
63939W        W34539   6.421  42.964   9.851
63940W        W34540  15.319  27.695  12.496
63941W        W34541   7.836  24.054  11.180
63942W        W34542  10.093  40.158  14.323
63943W        W34543  34.080  20.161   3.689
63944W        W34544  24.178  44.066   2.850
63945W        W34545  16.231  31.843  12.031
63946W        W34546   9.400  20.837   4.148
63947W        W34547  16.765  28.707   2.809
63948W        W34548  16.560  17.615  11.020
63949W        W34549  33.698  13.237  13.989
63950W        W34550  31.198  41.364   0.850
63951W        W34551   5.909   5.915   2.186
63952W        W34552  22.789   4.911   3.583
63953W        W34553  38.649   3.442  13.872
63954W        W34554  16.100  10.261  13.566
63955W        W34555   9.265  42.986   0.241
63956W        W34556  14.643  25.679   0.992
63957W        W34557  26.029  39.932   0.381
63958W        W34558   6.837   8.155   2.197
63959W        W34559  29.410  37.449  11.004
63960W        W34560  31.172  20.301   1.381
63961W        W34561  24.905  18.779   0.919
63962W        W34562  21.491  30.491  14.903
63963W        W34563  44.204   9.217  11.974
63964W        W34564   1.734  34.233  12.506
63965W        W34565  15.816   0.867   2.239
63966W        W34566  43.555   4.074  11.834
63967W        W34567  35.607  28.469  14.412
63968W        W34568  36.177  18.045   1.875
63969W        W34569   9.689  28.804  14.395
63970W        W34570  22.570   5.740   9.865
63971W        W34571  43.471  20.682   0.274
63972W        W34572  41.973  32.137  12.505
63973W        W34573  16.049  17.197   0.158
63974W        W34574  21.652   3.681   1.931
63975W        W34575  41.737   5.419   0.449
63976W        W34576  36.772  41.787   1.753
63977W        W34577   1.055   3.306  14.317
63978W        W34578   9.815  31.843  11.440
63979W        W34579  24.010   9.387   0.304
63980W        W34580  38.387  39.659  12.567
63981W        W34581  30.956  17.741  14.194
63982W        W34582   0.976  15.176   1.844
63983W        W34583  14.072  41.050   1.242
63984W        W34584  15.483  31.583  12.418
63985W        W34585   7.681  25.469   3.732
63986W        W34586  12.255  30.398   2.313
63987W        W34587  39.168   1.483   2.268
63988W        W34588  43.140  36.953   2.368
63989W        W34589  18.655   2.210  14.025
63990W        W34590   5.376  28.528   4.018
63991W        W34591  38.788   5.059   3.588
63992W        W34592  15.307   3.666  11.123
63993W        W34593  39.840  30.168   4.622
63994W        W34594   1.470   5.450   4.026
63995W        W34595  14.632  43.257  10.366
63996W        W34596   1.254   7.184   0.977
63997W        W34597  37.039  37.156  14.634
63998W        W34598  37.969  12.775  11.028
63999W        W34599  22.842  13.146  11.396
64000W        W34600   2.760   2.498   4.133
64001W        W34601   7.695  14.068  10.763
64002W        W34602  41.100  25.657  14.271
64003W        W34603  24.589   1.915   3.990
64004W        W34604  18.263   8.632  13.910
64005W        W34605  26.499  30.462  12.981
64006W        W34606  28.738  11.121  10.999
64007W        W34607  34.525   0.399   2.414
64008W        W34608  15.973  28.574  14.759
64009W        W34609  10.646   9.062  12.842
64010W        W34610  22.633  10.793   2.428
64011W        W34611  24.717  20.083  11.094
64012W        W34612   0.652   2.970   2.903
64013W        W34613  25.870  27.285  12.019
64014W        W34614  14.707  28.072   1.647
64015W        W34615  31.728   5.708   3.797
64016W        W34616  27.548  28.432  11.986
64017W        W34617  33.898  38.899   0.975
64018W        W34618  15.731   4.822   1.448
64019W        W34619   7.915   7.123  12.114
64020W        W34620  24.545  16.144  12.107
64021W        W34621  27.586  10.740  10.651
64022W        W34622   2.528   3.472  10.055
64023W        W34623   9.854  41.412   0.527
64024W        W34624  12.583   9.817  10.709
64025W        W34625   3.523  36.843  13.332
64026W        W34626  16.718   3.707   3.534
64027W        W34627  16.229  13.685   0.937
64028W        W34628  27.622  32.587  13.836
64029W        W34629  21.045  38.126  11.907
64030W        W34630  17.277  33.950  14.042
64031W        W34631   0.306  36.718  14.497
64032W        W34632   5.790  20.305  10.823
64033W        W34633   6.502  18.566  11.113
64034W        W34634   3.125  32.738   1.892
64035W        W34635   9.396  23.174   0.483
64036W        W34636  41.014  35.398  13.988
64037W        W34637  28.047  38.764   3.195
64038W        W34638   7.917   0.484   0.790
64039W        W34639  43.451  19.199   1.937
64040W        W34640  44.474  14.267  12.597
64041W        W34641  31.060  22.691  10.730
64042W        W34642  43.729  44.378   0.455
64043W        W34643  33.865   3.359  14.858
64044W        W34644   1.860  20.052  12.511
64045W        W34645  27.889  36.840  12.496
64046W        W34646  14.691   7.367  10.818
64047W        W34647   4.846  41.899  13.987
64048W        W34648  37.380  17.157   1.647
64049W        W34649  27.890  19.060  14.727
64050W        W34650  14.332  14.222   3.684
64051W        W34651  26.785  18.305  14.830
64052W        W34652  28.333  33.082   2.213
64053W        W34653  27.154  11.549   0.885
64054W        W34654   7.369  44.444   0.473
64055W        W34655  35.997  43.435   2.304
64056W        W34656  40.559  23.837  12.972
64057W        W34657  22.776  33.023  11.988
64058W        W34658  31.144  16.171   0.713
64059W        W34659  19.140  22.650  14.284
64060W        W34660   9.903  18.811   3.732
64061W        W34661  41.674  18.825  13.239
64062W        W34662  34.896  20.211   2.193
64063W        W34663  41.858  44.066  11.621
64064W        W34664  38.685  34.472   0.469
64065W        W34665  13.167  13.747   3.275
64066W        W34666   8.192  36.645  12.454
64067W        W34667  30.508  16.490   2.286
64068W        W34668   3.632  23.996   5.261
64069W        W34669   2.220  40.221   1.453
64070W        W34670  22.736  30.691   2.833
64071W        W34671  38.987  40.408  13.430
64072W        W34672  12.699   9.415  14.927
64073W        W34673  44.329  28.389  11.145
64074W        W34674   6.105  25.791  11.844
64075W        W34675  11.442  35.567  13.760
64076W        W34676  38.954   0.913  13.022
64077W        W34677   6.382  34.698  10.128
64078W        W34678  36.432  39.917  14.965
64079W        W34679  40.440  22.112  14.240
64080W        W34680  29.726  34.862   4.771
64081W        W34681  37.229  43.421  11.883
64082W        W34682   2.922  32.907  11.986
64083W        W34683   4.222  29.498   3.385
64084W        W34684  24.499  24.732   0.414
64085W        W34685  23.689  25.430  13.409
64086W        W34686   6.010  22.634  12.375
64087W        W34687  38.567  10.230  12.934
64088W        W34688  17.789   2.931  13.482
64089W        W34689  13.118  27.997  13.618
64090W        W34690  38.319   9.764  12.925
64091W        W34691  19.620  11.448   1.248
64092W        W34692   0.367  23.707  13.921
64093W        W34693  30.800  39.411  14.128
64094W        W34694  15.865  30.705   0.355
64095W        W34695  29.553  12.565  10.751
64096W        W34696   0.314   0.045  11.128
64097W        W34697  36.617  44.403   0.226
64098W        W34698   5.788  32.888   4.830
64099W        W34699   6.966   0.804  12.528
64100W        W34700  35.199   9.201  10.684
64101W        W34701  34.910   8.272  13.965
64102W        W34702  24.676  38.798  11.949
64103W        W34703   1.441  43.246   2.464
64104W        W34704  39.382  21.570  11.367
64105W        W34705   8.398  20.016  12.821
64106W        W34706  30.409   8.679   4.670
64107W        W34707  31.283  38.133   0.531
64108W        W34708  43.404  23.980   4.870
64109W        W34709  42.522  19.578  12.269
64110W        W34710   3.666  34.200  11.049
64111W        W34711  42.676   5.146   2.672
64112W        W34712   7.304  11.177  13.063
64113W        W34713  11.214  37.151  10.924
64114W        W34714  31.990   1.127   2.237
64115W        W34715  13.887  14.101   2.837
64116W        W34716   6.575  21.526   3.684
64117W        W34717   2.785  27.165   3.013
64118W        W34718  29.252   3.623  12.920
64119W        W34719  30.668  21.449  13.069
64120W        W34720  20.476  32.464  11.222
64121W        W34721   2.659  20.177  11.050
64122W        W34722   7.879  15.098   3.120
64123W        W34723  33.089  36.160   0.261
64124W        W34724  30.416  22.511  14.984
64125W        W34725  11.800   3.483  11.674
64126W        W34726  19.696  19.565   1.281
64127W        W34727  31.494  33.645   1.259
64128W        W34728   5.751   4.799   2.711
64129W        W34729  32.075  22.032   2.146
64130W        W34730  33.185   5.715  12.393
64131W        W34731  38.264  15.586   1.377
64132W        W34732  22.923  17.247  13.025
64133W        W34733  28.980  28.216  10.756
64134W        W34734  29.343  39.859   1.489
64135W        W34735  43.886  30.895  11.933
64136W        W34736  12.241   5.920  10.678
64137W        W34737  30.816  31.275  13.415
64138W        W34738  43.907  30.661   3.944
64139W        W34739  44.800  38.285  13.338
64140W        W34740  14.073   0.805  13.290
64141W        W34741  44.534  22.620  13.470
64142W        W34742  42.723  10.226   3.693
64143W        W34743  18.822  30.482   4.673
64144W        W34744   1.210  13.373  12.840
64145W        W34745  29.602  40.820   0.368
64146W        W34746  38.667  21.315  10.926
64147W        W34747  41.381  34.616  13.842
64148W        W34748  31.187   5.594  12.627
64149W        W34749  17.385  35.070  12.930
64150W        W34750  24.221  34.148  12.024
64151W        W34751  15.916  29.966   3.731
64152W        W34752   6.010  33.617   0.676
64153W        W34753   5.655  40.699   2.521
64154W        W34754  25.509  13.042  14.482
64155W        W34755  11.183  43.788   3.117
64156W        W34756  32.128   7.768  11.542
64157W        W34757  43.974   3.878  14.261
64158W        W34758   3.409   0.436  11.207
64159W        W34759  24.595   9.978  13.495
64160W        W34760   7.886  34.686  10.686
64161W        W34761  34.971  25.380   3.738
64162W        W34762  23.581  19.033  10.713
64163W        W34763  10.719  14.508  14.639
64164W        W34764  19.311  29.504  12.064
64165W        W34765   0.428   2.958   4.242
64166W        W34766   2.237  38.165  14.289
64167W        W34767  17.322  19.367   0.923
64168W        W34768  35.825  34.422   0.096
64169W        W34769  10.729  19.343   4.579
64170W        W34770  20.535  40.411   3.404
64171W        W34771  17.749  12.416   1.137
64172W        W34772  26.206  19.927  11.926
64173W        W34773  22.022  35.492  14.808
64174W        W34774   5.656  21.982   1.356
64175W        W34775  12.757  25.993   2.332
64176W        W34776  38.210  44.327   4.268
64177W        W34777  28.661  41.380  12.115
64178W        W34778  20.726   1.829  12.925
64179W        W34779  21.770  40.504  12.950
64180W        W34780  22.010  31.520  12.175
64181W        W34781   1.485  29.548  11.409
64182W        W34782   7.631   1.461   1.621
64183W        W34783   1.004  38.133   0.151
64184W        W34784   7.767  12.119   0.852
64185W        W34785  31.836  22.138  12.521
64186W        W34786  16.312  39.400   0.683
64187W        W34787  21.686   4.633  13.517
64188W        W34788  21.693  41.041   2.648
64189W        W34789  15.605   1.000  13.583
64190W        W34790  23.504   6.841  12.080
64191W        W34791  11.791  35.394   2.255
64192W        W34792  21.126  30.037   4.434
64193W        W34793   1.721  24.103  12.176
64194W        W34794  17.314  23.177   2.719
64195W        W34795  40.969  16.788  10.054
64196W        W34796  12.018   6.655  11.605
64197W        W34797  40.784  25.448  12.067
64198W        W34798  25.635   6.642   3.676
64199W        W34799  43.512  15.259   0.799
64200W        W34800  19.981   8.171   3.699
64201W        W34801  44.160  18.700  10.164
64202W        W34802   8.645   1.701   0.837
64203W        W34803  22.519  19.579  12.798
64204W        W34804  25.296  33.461   5.351
64205W        W34805  38.363  11.128  14.334
64206W        W34806  13.132  40.115   0.356
64207W        W34807  42.969  40.064  11.678
64208W        W34808  35.619  21.953   3.596
64209W        W34809  43.273  10.984   3.646
64210W        W34810  31.771  44.004  12.916
64211W        W34811  19.621  19.578  11.862
64212W        W34812  19.334  34.579   3.117
64213W        W34813  13.474  36.027  14.293
64214W        W34814  34.091  14.591   3.716
64215W        W34815   5.921  42.303   0.162
64216W        W34816  21.934  30.954  10.521
64217W        W34817  27.602   8.341  10.592
64218W        W34818  42.170  37.710  13.507
64219W        W34819  27.497  40.398  14.788
64220W        W34820  10.125  36.958  12.507
64221W        W34821  27.076  14.894  13.820
64222W        W34822  30.413  34.518   1.948
64223W        W34823  42.990  29.882   0.068
64224W        W34824  10.722  38.152  12.377
64225W        W34825  30.142   7.818   0.666
64226W        W34826   8.071  11.464   5.117
64227W        W34827  13.842   0.843   0.671
64228W        W34828  14.234  26.242  11.053
64229W        W34829   6.775  41.221   1.683
64230W        W34830  13.398  30.106  11.078
64231W        W34831  13.775  15.704  14.957
64232W        W34832   2.817   8.079   0.082
64233W        W34833  37.417  23.428   3.657
64234W        W34834  18.547  38.294   0.239
64235W        W34835  10.305  41.773  13.038
64236W        W34836  31.250  34.810  12.393
64237W        W34837  22.237  26.699   0.883
64238W        W34838  22.763  35.330   0.377
64239W        W34839  25.810  40.828   2.772
64240W        W34840  17.964   0.259   3.786
64241W        W34841   0.953   7.897  10.039
64242W        W34842  16.206  18.519   2.739
64243W        W34843  33.371  40.305   0.276
64244W        W34844  30.584  25.441   3.240
64245W        W34845  31.138  20.602  14.287
64246W        W34846  36.507  16.662  14.980
64247W        W34847  20.981  25.687  12.518
64248W        W34848  29.948   2.637  12.164
64249W        W34849  44.238   5.477   0.864
64250W        W34850  42.174  30.870   4.415
64251W        W34851  26.432  13.275  11.554
64252W        W34852  12.944  36.923  13.375
64253W        W34853  18.237  38.033   4.297
64254W        W34854  43.458  17.488  13.323
64255W        W34855   2.916   9.594  11.325
64256W        W34856  25.475   0.750   0.812
64257W        W34857  41.905  41.740   4.218
64258W        W34858  30.985  19.280  14.929
64259W        W34859  15.790  33.208   9.871
64260W        W34860  25.280  23.314  12.047
64261W        W34861  24.947  22.814  14.379
64262W        W34862  40.252  16.042   0.940
64263W        W34863  19.809  12.625  12.953
64264W        W34864  29.154  20.009   1.874
64265W        W34865   6.663  33.893   5.050
64266W        W34866  14.077  31.689  11.079
64267W        W34867  40.614  25.536   4.098
64268W        W34868  21.509  20.096  14.783
64269W        W34869   9.622  32.669  13.471
64270W        W34870  19.237   9.787  13.471
64271W        W34871  27.054  23.815   3.589
64272W        W34872  32.651   5.403   4.634
64273W        W34873  28.067  29.129   4.832
64274W        W34874  40.966   8.399   4.183
64275W        W34875   1.850   7.636   0.360
64276W        W34876   2.518  43.536   3.836
64277W        W34877  37.162  32.629  11.183
64278W        W34878   0.043  44.856   0.491
64279W        W34879  28.007  25.594  13.094
64280W        W34880  18.690   9.673   4.433
64281W        W34881  26.448  15.293   2.345
64282W        W34882  40.980  12.379  14.310
64283W        W34883   5.284  10.438  13.596
64284W        W34884  39.552  28.993   0.426
64285W        W34885   7.322  15.685   0.702
64286W        W34886  34.533   0.583   4.349
64287W        W34887  14.896   6.856   4.220
64288W        W34888  20.195  22.929  11.113
64289W        W34889  43.927  17.463   2.272
64290W        W34890  27.072  22.927   2.655
64291W        W34891  13.599   1.895  14.860
64292W        W34892  11.651   1.061  13.504
64293W        W34893  17.856   5.110  11.619
64294W        W34894   0.798  44.056   2.683
64295W        W34895  23.421   6.571   1.709
64296W        W34896  19.496  12.229   0.735
64297W        W34897  37.961  31.673   4.243
64298W        W34898   4.217   3.482  13.474
64299W        W34899  12.993   3.114   4.279
64300W        W34900  23.258  36.066   0.865
64301W        W34901  43.646  36.578  11.157
64302W        W34902  18.240  14.194   3.184
64303W        W34903  27.640  27.296   0.466
64304W        W34904  29.015  40.596  11.992
64305W        W34905   7.321   8.915  10.648
64306W        W34906  13.921   7.945  10.967
64307W        W34907  31.877   1.789   0.018
64308W        W34908   0.337  29.651   0.539
64309W        W34909  35.978  41.238  10.691
64310W        W34910  27.881  42.358   4.259
64311W        W34911  25.706   5.693  10.905
64312W        W34912   7.813  11.661  12.463
64313W        W34913  35.339  33.136  11.108
64314W        W34914  42.866  38.763  12.103
64315W        W34915  12.090   7.892  11.048
64316W        W34916  27.906  36.902   2.569
64317W        W34917  40.411  24.561  13.546
64318W        W34918  35.598   8.463  13.435
64319W        W34919   1.436  29.278  14.026
64320W        W34920   9.695  18.410  11.498
64321W        W34921  11.234  21.107  10.834
64322W        W34922  11.796   2.414   4.093
64323W        W34923   5.487  13.216   1.835
64324W        W34924  38.371  42.975   1.513
64325W        W34925  25.117   6.838   3.725
64326W        W34926  27.592  32.488  14.329
64327W        W34927  19.744  31.376   0.880
64328W        W34928   9.328   3.292  11.173
64329W        W34929  40.448  24.959   0.883
64330W        W34930   0.415  41.032   0.921
64331W        W34931  34.353  34.032  11.122
64332W        W34932  37.573  29.619   2.267
64333W        W34933   9.506  38.547  13.966
64334W        W34934   1.354   6.341  12.496
64335W        W34935  32.440  28.488  12.609
64336W        W34936  26.024  18.106  13.437
64337W        W34937  20.507  34.949  12.958
64338W        W34938  19.818  17.146  12.508
64339W        W34939  40.647   1.179   2.383
64340W        W34940   2.975  16.082   1.803
64341W        W34941  23.231  14.121   3.132
64342W        W34942   8.162  36.430  11.620
64343W        W34943  26.762  14.172  11.507
64344W        W34944  23.975  22.123   2.701
64345W        W34945  10.642  36.788  13.060
64346W        W34946  12.114  31.146   0.016
64347W        W34947  16.535   7.951  14.332
64348W        W34948   2.414  21.969   4.830
64349W        W34949  42.593  20.269  10.327
64350W        W34950   9.376  33.893  13.759
64351W        W34951  23.610  26.065  13.165
64352W        W34952  11.749  40.832   2.397
64353W        W34953   7.643   1.898   2.379
64354W        W34954   7.062   8.838  11.091
64355W        W34955   9.368  44.351  13.430
64356W        W34956  23.288  34.372   0.439
64357W        W34957   6.013   9.980  12.072
64358W        W34958  37.049   1.875  13.238
64359W        W34959   2.481  26.603  10.899
64360W        W34960   2.895  22.097   0.704
64361W        W34961   0.822  39.748  13.910
64362W        W34962  37.886  18.031  14.362
64363W        W34963  42.209   2.652  10.709
64364W        W34964   8.947  34.334   3.280
64365W        W34965   8.825  35.492   1.908
64366W        W34966   7.208  14.392  14.191
64367W        W34967  20.977  33.659  12.540
64368W        W34968  31.084  35.029  14.509
64369W        W34969  14.402   6.197  11.474
64370W        W34970  44.778  24.560   0.256
64371W        W34971  31.890  15.582   0.743
64372W        W34972  33.536  40.444   1.399
64373W        W34973   0.347  35.050   4.731
64374W        W34974  43.997  15.793   4.115
64375W        W34975  39.479  18.103  11.950
64376W        W34976   0.892   9.095   1.868
64377W        W34977  36.868   2.716  14.312
64378W        W34978   8.724   3.012   4.573
64379W        W34979  44.319  19.567  10.938
64380W        W34980   9.450  41.915   2.173
64381W        W34981  38.043  41.293  12.050
64382W        W34982  11.136  28.359  13.364
64383W        W34983  11.702  40.764   3.757
64384W        W34984  30.635  42.344  11.735
64385W        W34985  25.477   8.986  13.268
64386W        W34986   7.823  22.865   2.630
64387W        W34987   8.914  13.620  11.935
64388W        W34988  20.595   1.822  13.434
64389W        W34989  40.885   8.057   3.595
64390W        W34990  43.962  12.711   2.306
64391W        W34991  10.283  23.405  13.951
64392W        W34992   7.515  39.733   2.853
64393W        W34993  26.679  27.704   1.550
64394W        W34994  13.420  19.378  11.469
64395W        W34995  15.582  10.357  11.823
64396W        W34996  23.401  37.117  11.301
64397W        W34997   0.036  43.373   4.990
64398W        W34998  19.189  12.347   4.635
64399W        W34999  41.058  22.240  12.486
64400W        W35000   6.748  34.456  13.464
64401W        W35001   2.829  36.060   1.207
64402W        W35002  22.857  23.247  14.926
64403W        W35003  25.407  13.756  12.493
64404W        W35004  28.754  16.622   3.724
64405W        W35005  28.518  34.777   3.762
64406W        W35006   5.481  42.428  12.557
64407W        W35007  13.513  43.257   2.346
64408W        W35008  44.758  41.276  11.060
64409W        W35009   9.372  22.754  11.270
64410W        W35010  38.857  13.943   1.284
64411W        W35011  25.011  42.823   0.726
64412W        W35012  40.986   0.326  12.575
64413W        W35013   2.620  11.600   0.082
64414W        W35014  23.607   1.520  10.473
64415W        W35015  20.571  20.652   4.263
64416W        W35016  31.518  15.716   2.827
64417W        W35017  23.803  16.751  13.051
64418W        W35018  24.795  17.978  13.031
64419W        W35019  35.695  17.713   0.236
64420W        W35020  29.587  18.087  14.243
64421W        W35021  18.157  29.656   3.767
64422W        W35022  24.411  27.346  14.460
64423W        W35023   4.759   1.350  14.789
64424W        W35024  33.633  17.799   3.241
64425W        W35025  40.961  22.229  14.280
64426W        W35026  18.578  26.594  14.269
64427W        W35027  44.532  29.930   2.210
64428W        W35028  38.186  33.456  13.309
64429W        W35029  35.918   7.438  11.140
64430W        W35030   2.343  26.055  12.150
64431W        W35031  28.132  20.388  11.109
64432W        W35032  30.867   9.896   4.552
64433W        W35033   9.396  41.967   4.967
64434W        W35034  23.611  27.926  11.673
64435W        W35035   2.958  39.058   3.095
64436W        W35036  35.298   8.574   2.334
64437W        W35037   9.302  30.495   1.431
64438W        W35038  41.428   1.939   0.863
64439W        W35039  22.743  17.779   0.520
64440W        W35040  36.842   7.946  14.885
64441W        W35041   3.424  10.609   2.434
64442W        W35042  16.290  35.070  13.973
64443W        W35043  18.668  29.642   1.519
64444W        W35044  22.007  15.021   4.557
64445W        W35045  11.446  12.667  14.983
64446W        W35046  44.065  23.274  10.528
64447W        W35047  12.043   5.750  11.519
64448W        W35048  41.697   9.226  11.549
64449W        W35049  22.257   5.946   2.758
64450W        W35050  44.475  15.656   3.241
64451W        W35051  36.052  21.695  14.740
64452W        W35052   0.038  26.554  14.943
64453W        W35053  21.994  43.311  11.494
64454W        W35054   0.514  16.721   1.257
64455W        W35055  32.114  11.320   1.078
64456W        W35056  41.364   5.429  10.821
64457W        W35057   2.910  26.627  10.605
64458W        W35058  41.559   1.454  13.797
64459W        W35059  20.712  33.946  14.809
64460W        W35060   8.528  14.091   1.251
64461W        W35061  26.286  31.988   4.409
64462W        W35062  20.380  44.271   3.095
64463W        W35063  35.439  12.410  12.764
64464W        W35064  39.528  42.298   3.769
64465W        W35065  13.320  44.289   1.034
64466W        W35066  32.563  10.672   0.823
64467W        W35067  22.593  40.186   4.984
64468W        W35068  23.670   2.989   3.124
64469W        W35069   1.335  25.729   4.861
64470W        W35070  31.695  18.682   2.664
64471W        W35071  18.269  27.909  14.330
64472W        W35072  12.157  42.579   0.511
64473W        W35073   0.392   3.948   3.279
64474W        W35074  10.619  29.585  12.067
64475W        W35075  36.793  10.877   4.422
64476W        W35076  30.053   5.919   2.233
64477W        W35077  16.678   6.264   0.921
64478W        W35078   8.425  30.616   3.010
64479W        W35079  43.106  25.195   2.215
64480W        W35080   6.487  10.191  11.931
64481W        W35081  21.075  10.734   0.251
64482W        W35082  16.790   3.315  11.794
64483W        W35083  29.160  34.792   4.114
64484W        W35084  43.763   4.285  12.642
64485W        W35085  23.312  20.061   2.859
64486W        W35086  20.026  22.644   2.890
64487W        W35087  41.480  23.879   1.874
64488W        W35088  26.057  19.607  14.454
64489W        W35089   3.959  37.362   2.124
64490W        W35090   9.101  18.958  12.552
64491W        W35091  23.406  42.855   0.016
64492W        W35092  29.542   6.166  10.666
64493W        W35093  16.552  30.743   2.433
64494W        W35094  20.560   5.976   1.832
64495W        W35095   7.796  41.954   0.171
64496W        W35096  40.307   3.839   4.146
64497W        W35097  15.176  36.490   0.503
64498W        W35098  25.103   9.149  11.942
64499W        W35099   3.455  19.748  12.213
64500W        W35100   5.360   9.927  13.550
64501W        W35101  43.272  25.266   0.486
64502W        W35102   6.314  19.957  13.657
64503W        W35103   5.158  33.074  14.338
64504W        W35104   2.856  36.588  13.604
64505W        W35105  19.789  34.009   3.842
64506W        W35106  39.836  33.718  12.687
64507W        W35107  39.251  18.206   3.640
64508W        W35108  20.056  18.520  14.381
64509W        W35109   2.728  38.667   3.483
64510W        W35110   6.666  18.833   0.229
64511W        W35111  29.021  26.547   1.527
64512W        W35112   9.241  15.294  13.888
64513W        W35113  43.201  22.875  11.943
64514W        W35114  16.310  44.842  14.627
64515W        W35115   0.770   1.002   4.193
64516W        W35116  26.152   4.166   4.633
64517W        W35117  30.012  28.767   4.573
64518W        W35118  22.939  19.823   0.933
64519W        W35119  10.637  41.313  11.468
64520W        W35120   9.173  28.128  11.879
64521W        W35121  34.172  42.504  13.682
64522W        W35122  44.427  34.832  11.978
64523W        W35123  31.998  36.524   3.082
64524W        W35124  42.100  23.103   0.847
64525W        W35125  12.596  31.362   0.000
64526W        W35126  31.152  13.764  11.931
64527W        W35127  31.462  13.839   3.202
64528W        W35128  41.357  41.310   2.558
64529W        W35129  41.015  14.361   2.762
64530W        W35130   5.920  22.099   0.516
64531W        W35131  18.215  32.476  14.423
64532W        W35132  35.808  43.458   3.700
64533W        W35133  24.210  25.971  14.923
64534W        W35134   3.934  44.216  14.363
64535W        W35135  33.543  13.105   3.236
64536W        W35136   7.440  17.071  12.314
64537W        W35137  15.323  24.246  13.002
64538W        W35138  34.863   3.318  12.206
64539W        W35139  28.245  28.632  12.558
64540W        W35140  23.813  10.723   3.395
64541W        W35141  19.220  21.744  11.848
64542W        W35142  34.461  18.833  12.754
64543W        W35143  40.795  17.693  14.542
64544W        W35144  22.818  34.172   1.210
64545W        W35145  11.292  11.394  12.137
64546W        W35146  39.754  44.466  14.326
64547W        W35147  28.423  30.431   2.155
64548W        W35148  26.692  32.334  10.810
64549W        W35149   8.123  15.233  14.461
64550W        W35150   6.612  41.869  12.162
64551W        W35151  37.179  15.149   3.229
64552W        W35152  44.002  23.590   3.725
64553W        W35153   2.015  24.007   4.003
64554W        W35154  28.038  10.234   0.407
64555W        W35155  39.038  34.898  11.304
64556W        W35156  32.565  24.409   0.457
64557W        W35157  17.637   3.968   1.825
64558W        W35158  13.780  39.851   4.997
64559W        W35159  15.451  33.315  12.437
64560W        W35160  22.689   9.943   0.248
64561W        W35161  24.417  44.492  14.344
64562W        W35162   6.188  40.736   1.291
64563W        W35163   8.271  36.832   4.744
64564W        W35164  41.463  26.732  11.606
64565W        W35165   2.809   9.104   1.734
64566W        W35166  44.519  10.854   2.449
64567W        W35167  32.117   7.605  13.925
64568W        W35168   4.281  30.361   4.440
64569W        W35169   1.098  12.426   0.860
64570W        W35170  16.742  27.691   2.764
64571W        W35171  42.711  29.454  13.327
64572W        W35172  38.907  17.773   3.215
64573W        W35173   8.589  39.077  14.969
64574W        W35174  37.578  37.840   0.470
64575W        W35175  39.314  10.226   1.314
64576W        W35176  26.971  14.644   3.295
64577W        W35177  18.980  30.919   1.691
64578W        W35178  39.083  34.470  12.055
64579W        W35179  37.580  16.704  10.839
64580W        W35180  36.463   5.241  10.787
64581W        W35181   4.681  37.494  14.409
64582W        W35182  16.233  15.322   2.146
64583W        W35183  26.655  43.228  13.928
64584W        W35184  11.069  14.053   4.350
64585W        W35185  24.135   4.828  13.379
64586W        W35186   2.852  17.588   3.897
64587W        W35187  31.732  43.086  13.468
64588W        W35188  15.832   2.999   0.484
64589W        W35189  44.022  34.043  14.786
64590W        W35190  21.419  16.338  10.774
64591W        W35191   5.601  25.121   3.077
64592W        W35192  40.254   3.678   5.411
64593W        W35193  13.564   7.100   0.432
64594W        W35194  33.216   5.727   1.326
64595W        W35195   4.894  38.877   0.761
64596W        W35196  24.153  37.191  10.752
64597W        W35197   6.347  30.121  14.945
64598W        W35198  23.100  21.650   4.564
64599W        W35199  13.509  22.159  11.612
64600W        W35200  34.476  36.357  14.096
64601W        W35201  14.849  41.730   2.757
64602W        W35202   3.612  35.297   5.693
64603W        W35203   2.840   9.947   1.921
64604W        W35204  30.357  13.707  11.046
64605W        W35205  43.770  35.524   4.624
64606W        W35206  11.083  24.687  10.760
64607W        W35207   5.229  41.327   0.189
64608W        W35208   8.462   7.141   3.668
64609W        W35209  15.653   0.852  14.067
64610W        W35210  15.399   1.628  14.437
64611W        W35211  22.175   3.997  12.140
64612W        W35212   0.678   9.292   2.716
64613W        W35213  40.963  25.035   0.719
64614W        W35214  13.897   8.404   2.932
64615W        W35215  35.183   4.288  14.397
64616W        W35216  41.485  23.150   2.597
64617W        W35217  36.810  18.683   2.377
64618W        W35218   7.935   1.144  12.366
64619W        W35219  35.047  33.805  12.131
64620W        W35220  10.940   2.436   0.979
64621W        W35221  12.680  21.029   0.430
64622W        W35222  13.030  21.153   3.507
64623W        W35223  17.507  26.708  12.861
64624W        W35224  33.775  43.059  13.853
64625W        W35225  21.232  44.077  11.121
64626W        W35226  11.131  23.849   4.161
64627W        W35227  37.162  25.286  13.483
64628W        W35228  10.387   1.100  11.551
64629W        W35229  29.430  23.230   1.236
64630W        W35230  31.507   7.521   3.252
64631W        W35231   7.995  11.902  12.945
64632W        W35232  13.244  17.790  11.478
64633W        W35233   7.728   5.119   1.828
64634W        W35234  15.354  30.284  11.996
64635W        W35235  13.335  40.093  12.710
64636W        W35236  13.364   6.722  13.791
64637W        W35237  15.772   3.480  11.496
64638W        W35238  14.541  30.898  11.672
64639W        W35239  31.546  30.398  14.350
64640W        W35240  15.618  32.128  13.015
64641W        W35241  34.381  29.656   4.640
64642W        W35242   1.848  36.651   3.694
64643W        W35243  11.718  32.837  13.964
64644W        W35244  43.809   4.688   0.984
64645W        W35245   4.737  24.085   2.623
64646W        W35246  27.229  15.274   0.343
64647W        W35247  18.451   4.316  14.842
64648W        W35248  33.104  20.715   3.758
64649W        W35249  12.096  42.949   0.864
64650W        W35250   9.761  21.864   2.607
64651W        W35251  34.444  28.484  13.793
64652W        W35252   0.988  14.235  12.520
64653W        W35253  27.471   4.859  14.882
64654W        W35254  24.650   4.428   0.207
64655W        W35255  26.813  38.924   2.345
64656W        W35256  40.486  36.948  10.704
64657W        W35257   2.866  32.324   1.741
64658W        W35258  17.326  16.695  14.057
64659W        W35259  10.872   3.254   4.218
64660W        W35260  14.658   2.301   1.005
64661W        W35261   0.604   9.315  11.543
64662W        W35262  16.748  44.314  10.942
64663W        W35263  12.633  26.353  14.877
64664W        W35264  40.465  39.985  13.951
64665W        W35265  11.817  22.223  14.178
64666W        W35266  38.537  29.516   4.817
64667W        W35267  33.466  33.530   0.978
64668W        W35268  31.120  21.069   1.871
64669W        W35269  20.383  28.660   3.341
64670W        W35270   1.309  35.656   2.236
64671W        W35271   7.248  21.589   2.351
64672W        W35272   1.933   1.264  14.247
64673W        W35273  14.096  34.862   2.224
64674W        W35274  18.772  18.993   2.235
64675W        W35275  22.678  30.763  10.352
64676W        W35276  29.057  29.362   2.659
64677W        W35277  35.466   5.844   2.129
64678W        W35278  12.690   7.330  14.603
64679W        W35279  28.142  14.261  13.411
64680W        W35280   2.893   8.511  13.534
64681W        W35281  10.900   8.827   3.144
64682W        W35282  16.911  37.080   3.256
64683W        W35283  31.260   7.076   4.196
64684W        W35284  32.128  17.296  10.704
64685W        W35285   8.805  37.825   1.444
64686W        W35286  40.124  14.860  12.854
64687W        W35287  18.808   7.325  14.692
64688W        W35288   2.019  29.938  13.918
64689W        W35289  43.614   2.772   5.098
64690W        W35290  38.896   8.055  13.455
64691W        W35291  30.966  36.383   1.766
64692W        W35292   3.850  26.661   3.293
64693W        W35293   5.771  35.627  14.354
64694W        W35294  20.623   0.423   0.816
64695W        W35295  34.512  40.845  12.677
64696W        W35296  44.326   8.212   0.346
64697W        W35297  38.146  10.601   3.376
64698W        W35298  21.584  37.563   0.996
64699W        W35299  15.653  11.308   2.898
64700W        W35300   1.260  40.472  10.744
64701W        W35301  12.761  16.685   1.289
64702W        W35302  16.262  16.220  11.565
64703W        W35303  22.170  33.588  11.603
64704W        W35304  37.314  23.679  11.107
64705W        W35305  37.152  34.587   1.450
64706W        W35306  34.482  23.570   1.785
64707W        W35307  35.482  11.639   0.337
64708W        W35308   3.178   0.941   2.230
64709W        W35309   5.737  10.240  12.533
64710W        W35310   9.914   3.704   3.394
64711W        W35311  34.967   2.071  11.419
64712W        W35312   2.711  32.662  11.565
64713W        W35313  31.576   3.729   4.310
64714W        W35314   2.014  22.996  11.441
64715W        W35315  29.653  35.398   2.270
64716W        W35316  12.413   9.465   3.779
64717W        W35317  42.867   9.788   3.923
64718W        W35318   1.340  11.122   0.430
64719W        W35319  38.873   6.268  14.939
64720W        W35320  36.104   2.318  14.905
64721W        W35321  22.444  11.456   3.688
64722W        W35322  15.846  38.879  10.674
64723W        W35323  22.090  44.027   1.702
64724W        W35324  15.662  12.389  11.166
64725W        W35325   8.252   4.613  12.970
64726W        W35326   1.458   4.510   3.040
64727W        W35327  16.310  15.268   0.308
64728W        W35328  12.183   3.828  13.591
64729W        W35329   9.952  25.094   2.665
64730W        W35330  14.339  31.439   3.858
64731W        W35331   3.223  14.075  11.969
64732W        W35332   1.379  20.490  11.122
64733W        W35333   2.468  26.259   3.278
64734W        W35334   6.102  19.246   4.608
64735W        W35335  42.720  31.631   3.254
64736W        W35336   0.426  35.908   2.643
64737W        W35337  15.031  13.104  14.831
64738W        W35338   8.536  26.987  14.645
64739W        W35339  34.808  33.089   1.324
64740W        W35340  35.197  44.967  14.001
64741W        W35341  38.871  21.525  14.874
64742W        W35342  28.343   9.124  13.957
64743W        W35343  42.289  44.285  12.914
64744W        W35344  29.465   5.733  12.041
64745W        W35345   1.894  18.847  13.339
64746W        W35346   6.928  31.888   3.253
64747W        W35347  12.594  25.389  13.909
64748W        W35348  20.620   7.217   3.676
64749W        W35349  16.509  28.076  11.146
64750W        W35350  19.064  14.486  10.974
64751W        W35351  31.309  34.182   3.729
64752W        W35352  13.498  14.272  12.102
64753W        W35353  13.352   8.666   4.283
64754W        W35354  17.414  38.369   4.949
64755W        W35355  39.060  32.650  12.441
64756W        W35356  41.430  30.523   4.827
64757W        W35357  11.305  22.371   4.097
64758W        W35358  13.623  31.154  11.614
64759W        W35359   0.829  11.045  14.652
64760W        W35360  15.959  23.924  14.702
64761W        W35361  38.920   0.614   0.539
64762W        W35362  19.080  38.104   4.592
64763W        W35363  28.637  32.732   2.432
64764W        W35364  43.463  23.586  14.947
64765W        W35365   0.122   6.087  11.415
64766W        W35366  41.511  24.791   0.584
64767W        W35367  18.545  22.281  11.584
64768W        W35368  19.262  21.664   0.190
64769W        W35369  44.813   4.794   4.171
64770W        W35370  11.513  14.016   4.055
64771W        W35371  25.964   8.802   1.745
64772W        W35372  27.071  39.859   5.160
64773W        W35373  24.461  25.985  14.445
64774W        W35374   4.735  13.630   3.795
64775W        W35375  29.636  21.192  11.386
64776W        W35376  33.512  36.617  13.968
64777W        W35377  26.751   6.144   0.044
64778W        W35378   5.348  14.633  13.829
64779W        W35379   8.852  32.623  13.748
64780W        W35380   0.419   6.030   0.811
64781W        W35381   4.181   8.237   2.128
64782W        W35382  21.331  21.529   3.206
64783W        W35383  39.835  39.412   1.488
64784W        W35384  43.512  21.083   4.433
64785W        W35385   0.130   6.335   4.610
64786W        W35386  23.785  36.940  12.033
64787W        W35387   7.860  34.139  10.705
64788W        W35388  21.601  33.844   1.743
64789W        W35389   5.732  14.250   5.053
64790W        W35390  13.809   6.188   3.733
64791W        W35391  21.258  10.184   4.392
64792W        W35392   2.329  41.062  10.695
64793W        W35393  30.590  18.748   0.773
64794W        W35394  14.053   0.075   1.457
64795W        W35395  42.034   6.576  12.978
64796W        W35396  34.598   5.273  13.102
64797W        W35397   1.712   2.874  13.985
64798W        W35398  37.594   6.659  12.604
64799W        W35399  21.054  29.094   3.740
64800W        W35400   0.316  18.847   0.272
64801W        W35401  33.906  11.795   4.201
64802W        W35402   7.930  41.047   1.816
64803W        W35403  42.425  22.456  12.420
64804W        W35404  17.081  13.633  14.846
64805W        W35405  17.116  20.265  11.384
64806W        W35406  28.210  13.691   3.553
64807W        W35407  18.771  38.244   2.767
64808W        W35408  37.986  27.044   0.211
64809W        W35409  22.120  43.928  12.101
64810W        W35410  39.379  38.921   0.004
64811W        W35411   0.842  27.578   1.794
64812W        W35412  36.342  44.967  13.349
64813W        W35413  12.223   1.077   4.660
64814W        W35414  30.091  38.330  14.778
64815W        W35415  40.899   6.900  14.528
64816W        W35416  29.172   5.823   4.436
64817W        W35417  23.977  26.250  12.422
64818W        W35418  37.954  35.521  13.506
64819W        W35419  25.729  17.697   2.738
64820W        W35420  36.483  23.758   3.085
64821W        W35421   0.416  15.234   0.692
64822W        W35422   4.323  29.910  14.371
64823W        W35423   1.915  32.319  14.871
64824W        W35424  13.163  13.981   5.088
64825W        W35425   9.646  32.076   1.686
64826W        W35426  43.489  15.919  11.990
64827W        W35427  33.160   4.774  14.789
64828W        W35428  10.753  24.202   4.032
64829W        W35429  44.470  43.408   3.718
64830W        W35430  24.029  22.761  10.639
64831W        W35431  36.390  25.485   3.664
64832W        W35432  44.520  42.441   1.407
64833W        W35433  23.218  42.721  11.519
64834W        W35434  14.192  11.458   0.264
64835W        W35435  21.178   9.458   1.360
64836W        W35436  21.350  21.139   1.569
64837W        W35437   3.718  31.275   3.683
64838W        W35438   6.922   8.931  12.490
64839W        W35439  29.044   5.874   2.824
64840W        W35440   1.810  44.052  11.801
64841W        W35441   2.360  20.354   3.860
64842W        W35442  22.257  42.453  13.144
64843W        W35443  23.553  15.740  13.170
64844W        W35444  22.109  44.998   0.983
64845W        W35445   1.722  36.276   1.839
64846W        W35446  16.784  22.258   3.802
64847W        W35447  24.969   6.031   4.098
64848W        W35448  10.009  26.734   1.172
64849W        W35449  22.733   7.812   1.278
64850W        W35450  26.380  40.048  10.814
64851W        W35451  16.152  34.369   3.541
64852W        W35452  26.524  30.434  13.885
64853W        W35453  23.928   6.145   3.294
64854W        W35454  37.534  27.857   4.573
64855W        W35455   1.259  32.464   0.334
64856W        W35456  33.525  38.522  14.978
64857W        W35457  31.308   8.485   0.229
64858W        W35458  33.187  42.499  11.711
64859W        W35459  22.964  30.134  13.569
64860W        W35460   8.406  36.535   4.038
64861W        W35461   0.660  32.384   0.286
64862W        W35462  18.133  10.716  10.909
64863W        W35463  31.687  10.898   4.115
64864W        W35464  21.689  15.843   4.788
64865W        W35465  32.659  13.406   0.034
64866W        W35466   8.953  16.770   4.739
64867W        W35467  37.768  13.621  13.222
64868W        W35468  12.789  32.138  14.525
64869W        W35469  20.002  13.760   3.278
64870W        W35470  23.266  38.752   3.157
64871W        W35471  18.222  21.972  10.993
64872W        W35472  39.601  40.557  10.723
64873W        W35473   2.454   0.033  11.210
64874W        W35474  16.129  30.427   2.415
64875W        W35475   4.923  10.443  14.253
64876W        W35476   8.779  36.329   3.251
64877W        W35477  29.924  35.275   4.056
64878W        W35478  35.291  15.319  13.856
64879W        W35479  13.813  32.163   1.051
64880W        W35480  34.555  12.632   4.300
64881W        W35481  20.496  43.043  14.576
64882W        W35482  42.239  29.583   3.095
64883W        W35483  32.982  19.488   3.983
64884W        W35484  24.651  15.226  12.580
64885W        W35485  29.917  39.718   3.414
64886W        W35486   9.650  12.834   3.147
64887W        W35487  27.047  17.635  13.961
64888W        W35488  35.388  39.525   2.924
64889W        W35489  30.114  21.590   4.598
64890W        W35490  43.572   0.368   4.716
64891W        W35491  21.060   2.165  13.459
64892W        W35492   0.309  42.333   2.044
64893W        W35493  13.217  33.890   0.667
64894W        W35494  23.783   3.954  12.939
64895W        W35495  41.025  23.470  13.811
64896W        W35496  20.554  24.995   2.325
64897W        W35497  24.896   6.739   2.443
64898W        W35498  16.184   9.319   2.336
64899W        W35499  39.200  44.463   3.229
64900W        W35500  42.263  34.932  11.598
64901W        W35501  16.751  34.023   1.318
64902W        W35502  38.757  42.455  12.007
64903W        W35503  20.553   5.298  12.413
64904W        W35504   8.316  15.829  12.344
64905W        W35505  35.618  38.111   1.164
64906W        W35506  43.955   8.708  13.169
64907W        W35507   4.518  40.978   3.584
64908W        W35508   3.513  40.237  13.283
64909W        W35509   1.334  28.426   1.623
64910W        W35510  26.777   4.816  11.935
64911W        W35511   9.762  30.796   1.225
64912W        W35512   1.266  44.695   1.382
64913W        W35513  33.981  22.776   2.725
64914W        W35514  36.875  28.478  13.387
64915W        W35515  32.038  11.744  14.901
64916W        W35516  11.671   7.255   1.981
64917W        W35517  41.885  39.207   1.151
64918W        W35518  24.584  21.552   4.704
64919W        W35519  41.148  21.158  14.213
64920W        W35520   7.678  31.086   3.164
64921W        W35521  22.661  36.023  14.455
64922W        W35522  37.276  39.102   0.766
64923W        W35523  31.402  20.450   4.139
64924W        W35524   7.842  36.120  11.131
64925W        W35525  30.505  33.967  14.470
64926W        W35526  18.193  10.691  12.409
64927W        W35527  42.572   6.285  11.772
64928W        W35528  32.681  36.513   4.400
64929W        W35529  13.669  11.099  10.665
64930W        W35530  14.346   9.782   1.843
64931W        W35531  33.520   4.694   9.974
64932W        W35532   9.355   9.322   3.734
64933W        W35533  38.064   3.649   0.956
64934W        W35534   9.770  26.007   0.420
64935W        W35535  34.330  39.454   4.251
64936W        W35536  38.866  17.671  14.875
64937W        W35537  24.505  17.692   2.137
64938W        W35538   7.361  37.129  14.469
64939W        W35539  19.635   5.524  10.591
64940W        W35540   5.919  34.645  14.369
64941W        W35541  14.981  41.803  11.817
64942W        W35542  28.090  35.102   2.663
64943W        W35543  17.791   8.430   0.851
64944W        W35544  35.442  44.445   0.369
64945W        W35545  23.267  41.753  11.794
64946W        W35546   4.782  28.684   3.270
64947W        W35547  25.038  14.227  14.323
64948W        W35548  19.903   2.348   3.792
64949W        W35549  13.448  10.159   4.341
64950W        W35550  12.859  33.091  11.145
64951W        W35551  21.959  35.785  13.375
64952W        W35552  31.357  20.788  12.497
64953W        W35553  40.395  13.849   0.259
64954W        W35554   7.440  21.216   4.133
64955W        W35555  37.331   6.249  10.914
64956W        W35556  44.912  17.998   4.152
64957W        W35557  26.702  42.458  11.571
64958W        W35558  10.238  27.770   1.857
64959W        W35559  44.698   6.842  11.150
64960W        W35560  29.220  38.263  13.430
64961W        W35561  24.032  14.919  13.744
64962W        W35562   2.318  14.554   4.646
64963W        W35563   3.726   6.745  12.596
64964W        W35564  10.184   8.967   3.578
64965W        W35565  11.202  31.184   0.580
64966W        W35566  32.543   5.407  14.928
64967W        W35567  21.259  15.388  11.995
64968W        W35568   2.211  17.637  12.809
64969W        W35569  44.151  32.080   2.414
64970W        W35570  16.255  39.115  12.397
64971W        W35571  10.684  13.184  11.096
64972W        W35572  39.988  17.927  11.986
64973W        W35573  26.463  44.897   1.023
64974W        W35574  19.016  42.294  10.676
64975W        W35575  15.379  12.750  13.060
64976W        W35576   0.153   0.256  10.693
64977W        W35577  20.285  31.991  11.216
64978W        W35578  34.051  24.563   3.347
64979W        W35579  20.766  43.911   3.696
64980W        W35580  42.883  39.536  11.471
64981W        W35581   0.786  35.497   0.350
64982W        W35582  23.716  41.121  13.000
64983W        W35583  37.757  20.678   0.748
64984W        W35584  44.816  32.867  10.066
64985W        W35585  33.261  40.007   1.326
64986W        W35586  31.089   1.344  12.570
64987W        W35587   8.301  33.869  14.840
64988W        W35588   4.870  25.719  10.617
64989W        W35589   7.198   4.967  12.280
64990W        W35590  14.139   1.163  10.994
64991W        W35591  24.171   8.509   2.767
64992W        W35592  30.548  24.468   3.167
64993W        W35593  11.912  31.374  12.274
64994W        W35594  12.923  13.116  12.406
64995W        W35595  16.299  20.367   3.630
64996W        W35596  35.838  32.972  13.464
64997W        W35597  21.267  25.724  12.979
64998W        W35598   8.890  23.138   0.649
64999W        W35599  15.671  39.882   3.048
65000W        W35600  37.017  13.134  14.823
65001W        W35601  12.369  29.907   2.389
65002W        W35602   0.428  25.931   3.431
65003W        W35603  36.863   0.077   2.617
65004W        W35604   1.241   1.932  11.523
65005W        W35605  22.191  38.831  10.435
65006W        W35606   9.394  27.666   3.021
65007W        W35607   9.174  35.026  12.998
65008W        W35608  18.273   1.915  13.801
65009W        W35609  39.877  22.990   4.086
65010W        W35610  25.120   9.983  13.941
65011W        W35611   4.206   6.870  12.992
65012W        W35612  24.708   4.469  14.704
65013W        W35613  28.969  17.586  11.014
65014W        W35614  12.558   2.664   0.004
65015W        W35615  41.389  32.128  14.451
65016W        W35616  30.673  35.281   1.461
65017W        W35617  22.351   1.827  13.837
65018W        W35618   0.885  31.442  13.051
65019W        W35619  33.695   8.695   3.831
65020W        W35620   8.035  14.379   3.618
65021W        W35621   1.235  11.325  14.070
65022W        W35622  34.007  40.921  10.832
65023W        W35623   1.367  44.437   0.529
65024W        W35624  29.566  42.092  14.283
65025W        W35625  26.055  41.216   4.039
65026W        W35626  15.019   3.922  11.475
65027W        W35627  28.476  23.666   4.692
65028W        W35628  39.484  37.386   1.788
65029W        W35629  16.266  15.918   3.225
65030W        W35630  32.426  36.659   2.285
65031W        W35631  17.559   0.734   3.272
65032W        W35632  35.595  37.129   1.558
65033W        W35633   7.544  19.726  11.177
65034W        W35634  39.514  38.301  11.077
65035W        W35635  18.633  31.090   0.531
65036W        W35636  33.624   7.936   4.255
65037W        W35637  14.160  32.903   4.419
65038W        W35638  38.037  16.557   1.291
65039W        W35639  38.467  34.105   1.891
65040W        W35640  21.563  41.496  14.440
65041W        W35641   1.673  25.087   1.812
65042W        W35642  27.414  43.448  12.545
65043W        W35643   6.221   8.138  11.922
65044W        W35644   9.405  34.177  12.802
65045W        W35645  29.501   3.390  13.361
65046W        W35646  28.755  40.506   2.725
65047W        W35647  13.193  26.514  11.987
65048W        W35648  16.265  41.030   3.724
65049W        W35649  24.531  20.147  13.978
65050W        W35650  38.015  14.568   1.341
65051W        W35651  16.425  37.234   3.148
65052W        W35652   0.459  22.294   3.900
65053W        W35653  36.932  23.193   0.518
65054W        W35654   4.746  36.111  11.657
65055W        W35655  40.472   0.562   3.726
65056W        W35656   6.124  41.368   1.881
65057W        W35657  40.022  17.126  10.705
65058W        W35658   9.836  10.309  10.696
65059W        W35659  38.242  18.111  12.930
65060W        W35660  30.516   2.285   2.278
65061W        W35661   9.744  27.176  10.430
65062W        W35662   3.916  40.065  14.351
65063W        W35663  24.500  23.349   0.400
65064W        W35664  39.535  15.086   4.068
65065W        W35665  40.066  35.379  11.132
65066W        W35666  21.785  34.671  13.537
65067W        W35667  32.154   0.026  11.574
65068W        W35668   1.418   4.674   2.337
65069W        W35669  31.071   9.465  14.498
65070W        W35670  10.075  16.311   0.299
65071W        W35671  35.569  24.695   3.550
65072W        W35672  21.120  30.593   1.343
65073W        W35673   8.682  23.281   4.474
65074W        W35674  39.011  25.664   1.632
65075W        W35675  24.518  14.300  12.618
65076W        W35676  19.633  20.391   2.332
65077W        W35677  39.354  15.582  12.152
65078W        W35678  42.772  38.663  13.482
65079W        W35679  42.990  21.552   3.686
65080W        W35680   7.279  41.674  13.568
65081W        W35681   8.324  20.611   2.572
65082W        W35682   5.712   4.122  12.907
65083W        W35683  32.883  10.336   3.706
65084W        W35684   1.850  20.537   3.381
65085W        W35685  19.569   6.466   0.220
65086W        W35686  29.073   9.311  13.152
65087W        W35687  17.512  22.142   0.949
65088W        W35688   4.463  40.633  14.883
65089W        W35689  33.091  38.236  10.983
65090W        W35690  32.593   2.102   0.228
65091W        W35691  12.799  43.956  11.594
65092W        W35692  25.230  14.920   4.880
65093W        W35693   8.168  10.616  12.859
65094W        W35694  33.392  27.984   1.888
65095W        W35695   5.773  11.529   3.086
65096W        W35696   7.624  17.047   0.780
65097W        W35697   3.717   9.888   5.015
65098W        W35698  22.594   3.827   1.947
65099W        W35699   9.462  22.010  10.584
65100W        W35700  19.368  23.294  11.091
65101W        W35701  19.222   0.003   1.243
65102W        W35702  13.644  16.023  12.909
65103W        W35703  11.865  31.536  13.626
65104W        W35704   6.847  12.056   2.096
65105W        W35705  14.581  22.154  11.678
65106W        W35706  14.407  24.636  12.214
65107W        W35707   5.320  29.287   0.705
65108W        W35708  16.477  40.928  12.536
65109W        W35709  32.553  43.143  13.363
65110W        W35710  24.308  25.147   2.833
65111W        W35711   8.478  35.991  13.439
65112W        W35712   2.257  23.552   3.596
65113W        W35713  28.371  36.313   0.309
65114W        W35714  25.015  21.414   4.965
65115W        W35715  11.355  14.231   3.058
65116W        W35716  37.134  36.081  12.862
65117W        W35717  38.806  39.914   0.111
65118W        W35718  27.415  12.104  11.046
65119W        W35719   9.872  25.683  11.586
65120W        W35720  40.983  14.781  11.789
65121W        W35721  29.174   3.338   3.463
65122W        W35722  27.349   2.352  11.115
65123W        W35723  25.827  38.091  14.302
65124W        W35724  24.621   1.460   0.996
65125W        W35725  11.608  18.462   4.113
65126W        W35726  33.123  36.516   4.732
65127W        W35727   9.244  33.993  11.470
65128W        W35728  13.138   0.336  12.970
65129W        W35729  36.372  42.035  10.702
65130W        W35730   3.927  36.528   1.927
65131W        W35731   5.127  20.514   0.622
65132W        W35732  18.793   6.301   1.821
65133W        W35733  38.313   5.118   3.762
65134W        W35734   8.113  35.139   1.196
65135W        W35735   9.227  17.510  10.602
65136W        W35736  10.277  31.400  12.134
65137W        W35737   3.877  36.552  14.151
65138W        W35738  22.713  16.028   1.350
65139W        W35739  25.694  44.978   3.660
65140W        W35740  10.134  42.549  12.469
65141W        W35741  33.520  14.074   4.653
65142W        W35742   6.453  34.981  12.142
65143W        W35743  29.474  10.664  12.585
65144W        W35744  36.145  36.567   3.985
65145W        W35745   9.484  23.745   9.923
65146W        W35746  30.745  19.035  13.803
65147W        W35747  24.869  27.715   3.088
65148W        W35748   8.783  31.217  13.114
65149W        W35749  34.413  44.933   0.260
65150W        W35750  30.150  18.743  13.954
65151W        W35751  32.392  11.710  12.900
65152W        W35752  28.726  24.682  14.804
65153W        W35753   8.952  25.984  13.945
65154W        W35754  24.673  27.967   0.187
65155W        W35755  11.073  16.672  13.626
65156W        W35756  26.686  24.929  11.626
65157W        W35757  34.078  22.862  11.016
65158W        W35758  39.165   5.322   4.326
65159W        W35759  40.329  14.230  12.350
65160W        W35760  34.486  23.149  12.566
65161W        W35761   8.442  42.004  12.985
65162W        W35762  40.971  37.322   1.938
65163W        W35763  37.416  13.819  10.963
65164W        W35764  23.064   2.558   1.971
65165W        W35765  43.683  26.021   3.146
65166W        W35766   2.968  13.758   4.605
65167W        W35767  20.876  32.771   4.095
65168W        W35768  42.404  27.508  10.648
65169W        W35769  21.919  31.873   0.372
65170W        W35770  28.439  44.904  13.412
65171W        W35771  32.049  34.485  10.882
65172W        W35772  25.895  11.620  13.879
65173W        W35773  37.928  24.925  12.404
65174W        W35774   2.312  32.164   4.356
65175W        W35775  16.748  25.277  12.943
65176W        W35776  29.409  22.512  13.445
65177W        W35777  27.127   8.445   2.883
65178W        W35778  23.692   1.076  14.303
65179W        W35779   5.761  29.942  13.161
65180W        W35780  37.543  39.387  10.355
65181W        W35781  28.389  33.447   3.331
65182W        W35782  43.894   0.426  12.354
65183W        W35783  13.174  38.429  14.917
65184W        W35784  25.563  39.154   3.581
65185W        W35785  27.048  16.568  12.458
65186W        W35786  43.088   7.695   4.733
65187W        W35787   6.327  30.942   0.291
65188W        W35788  14.747  38.978  11.508
65189W        W35789  32.939  34.597   3.312
65190W        W35790  29.941  13.918   3.283
65191W        W35791  12.740  28.974  10.752
65192W        W35792  28.964  42.035   1.517
65193W        W35793  40.028  38.847  10.322
65194W        W35794  16.771   2.792   1.437
65195W        W35795   0.757  32.022  12.439
65196W        W35796  34.201  25.731   2.930
65197W        W35797  27.917  40.947   2.686
65198W        W35798  24.744  11.697   3.283
65199W        W35799  13.873  41.289   4.179
65200W        W35800  37.349  17.640   4.760
65201W        W35801  26.467  19.134   5.309
65202W        W35802  44.234  44.362   0.424
65203W        W35803  24.945  38.039  11.594
65204W        W35804  32.123  18.377   3.212
65205W        W35805  15.328   1.340  12.031
65206W        W35806  12.349  43.960  12.521
65207W        W35807   2.231  26.659   2.276
65208W        W35808  18.254  26.683   3.635
65209W        W35809  38.503  15.613  13.898
65210W        W35810  18.381  14.820   0.903
65211W        W35811  30.934  30.429   2.681
65212W        W35812  24.937   9.801   4.191
65213W        W35813   2.481  19.667  13.461
65214W        W35814  44.512  23.661   1.809
65215W        W35815  42.540   3.785   2.539
65216W        W35816  25.489  44.206  13.890
65217W        W35817  44.819  22.597   2.952
65218W        W35818  15.218  38.944   3.791
65219W        W35819  17.014  25.060   3.198
65220W        W35820  32.526  18.375  11.793
65221W        W35821  10.873   6.232   2.594
65222W        W35822  35.854  36.625   0.838
65223W        W35823   9.319  19.155   2.230
65224W        W35824  13.897  10.118  13.403
65225W        W35825  41.588  13.617   3.359
65226W        W35826  23.077   2.286   0.795
65227W        W35827  43.427   6.181   3.728
65228W        W35828  36.487  37.408  13.796
65229W        W35829  12.892  42.279   0.022
65230W        W35830  38.429   9.210   3.400
65231W        W35831  16.342  28.490   0.214
65232W        W35832   4.433   8.622  11.995
65233W        W35833  17.635  12.744   3.417
65234W        W35834  41.509  43.283  12.580
65235W        W35835  32.636  28.504  10.740
65236W        W35836   6.701   8.478   4.097
65237W        W35837  19.468  40.281   0.881
65238W        W35838  39.368  15.814  11.666
65239W        W35839  31.718  24.032   0.785
65240W        W35840  36.543  11.661   3.250
65241W        W35841  12.594  19.375   1.194
65242W        W35842  15.132  14.411   1.638
65243W        W35843   2.779  26.669  12.523
65244W        W35844  35.858  41.993   4.526
65245W        W35845   3.439  35.938  13.482
65246W        W35846  25.958   5.441   2.152
65247W        W35847  24.224  36.587   0.844
65248W        W35848   0.433   4.182   0.777
65249W        W35849  20.471  35.872  12.816
65250W        W35850  37.500  25.718   1.170
65251W        W35851  30.420  43.864  12.116
65252W        W35852  39.926  33.550   3.693
65253W        W35853  39.053  17.150  14.904
65254W        W35854   3.383  28.656   2.700
65255W        W35855  19.586   2.230   4.213
65256W        W35856   1.967  30.363  12.544
65257W        W35857  19.090   1.487   0.887
65258W        W35858  40.802   6.443   5.170
65259W        W35859  24.032  22.562   5.091
65260W        W35860   0.900  40.082   1.348
65261W        W35861  29.537  24.634  11.426
65262W        W35862  35.104   4.432   2.023
65263W        W35863  24.093  12.193   0.034
65264W        W35864  27.967  31.008   3.614
65265W        W35865  40.430  23.961  10.333
65266W        W35866  32.438  44.449  14.864
65267W        W35867   5.426  43.926   4.533
65268W        W35868   3.427   8.865  13.477
65269W        W35869  25.162  15.234   4.460
65270W        W35870  42.717  21.447  14.328
65271W        W35871  39.787  10.853   3.713
65272W        W35872  39.571  26.557   0.220
65273W        W35873  25.935  19.632  11.502
65274W        W35874   4.698  41.823  10.936
65275W        W35875  44.092  42.629  10.198
65276W        W35876  13.351  23.942   1.712
65277W        W35877  13.255  35.686   4.213
65278W        W35878  27.056   9.249   2.778
65279W        W35879  35.913  34.520  10.596
65280W        W35880  43.545   2.061   0.558
65281W        W35881  27.703  19.630  12.877
65282W        W35882  36.393   7.401   4.856
65283W        W35883  42.085  11.751   1.280
65284W        W35884  13.724  12.899  13.416
65285W        W35885   6.704  16.742   4.195
65286W        W35886   8.134  26.906   0.954
65287W        W35887  18.131  11.775   1.250
65288W        W35888  43.497  31.528   0.610
65289W        W35889  39.446  24.947   4.559
65290W        W35890  32.675   4.908   2.750
65291W        W35891  40.241  44.085  13.512
65292W        W35892  41.321  34.066  13.654
65293W        W35893  40.794  36.807  12.524
65294W        W35894  34.923   0.100   2.209
65295W        W35895  30.974  10.172   4.099
65296W        W35896  37.139   2.144   2.440
65297W        W35897   1.786  43.897   4.304
65298W        W35898  32.280  36.392  11.210
65299W        W35899  21.125   1.090   0.969
65300W        W35900   4.340  41.619  11.402
65301W        W35901   4.142   0.649  11.495
65302W        W35902  26.169  23.136  10.733
65303W        W35903  31.510  33.319   0.851
65304W        W35904   5.242  12.872   2.850
65305W        W35905   0.965  33.849  14.580
65306W        W35906   7.693  40.332  14.383
65307W        W35907   0.037  33.148  13.436
65308W        W35908  19.838  18.812   0.458
65309W        W35909   1.229  39.055   0.779
65310W        W35910  30.608  34.352  11.666
65311W        W35911  31.960  13.885  14.474
65312W        W35912  15.612  27.520  12.939
65313W        W35913  26.149  14.916  13.989
65314W        W35914  38.552  39.204  11.068
65315W        W35915  19.436  35.706  11.462
65316W        W35916   3.281  24.272   4.162
65317W        W35917  41.798  16.782   3.355
65318W        W35918  30.869  16.264  14.193
65319W        W35919   0.863  18.597   3.839
65320W        W35920  28.558   1.995   1.208
65321W        W35921  44.035  39.276  12.902
65322W        W35922  18.742  24.744  12.417
65323W        W35923  41.025  29.007   0.878
65324W        W35924  36.096  10.285  10.989
65325W        W35925  28.178  31.215   0.449
65326W        W35926   1.260  27.683   0.205
65327W        W35927  17.085  33.444   3.325
65328W        W35928  16.344  28.993   0.879
65329W        W35929  38.204  21.114   5.069
65330W        W35930  17.699  37.299   1.468
65331W        W35931  18.506  36.581   1.705
65332W        W35932  17.236  18.374   9.745
65333W        W35933  39.842   0.314  11.986
65334W        W35934   3.433  31.057  11.887
65335W        W35935  25.048   3.038  12.742
65336W        W35936   9.332  13.265   3.124
65337W        W35937   0.356  24.894   3.774
65338W        W35938  33.401  20.773   0.363
65339W        W35939  25.332  23.515  12.892
65340W        W35940  40.982  12.739   2.203
65341W        W35941   9.601  38.347  11.064
65342W        W35942  20.735   5.473   1.815
65343W        W35943  25.968  16.235   4.260
65344W        W35944   9.580  25.410  11.970
65345W        W35945   4.795   3.209   3.660
65346W        W35946  16.337   1.197   1.772
65347W        W35947  30.904  35.944   3.148
65348W        W35948  10.331  27.479   4.588
65349W        W35949  35.632  43.245  11.497
65350W        W35950   2.833  39.616   1.353
65351W        W35951   9.442  14.739  12.656
65352W        W35952  11.245  34.523  11.941
65353W        W35953   1.508  22.119   4.064
65354W        W35954  37.937  12.383  13.703
65355W        W35955  38.114  18.303  11.489
65356W        W35956  12.135  31.390   2.379
65357W        W35957  40.646  32.703  14.989
65358W        W35958  36.838  44.405  12.933
65359W        W35959   4.334  23.776  10.538
65360W        W35960  18.965   6.288  12.570
65361W        W35961  24.233   4.848   0.753
65362W        W35962  29.149  25.735  10.771
65363W        W35963  16.296  42.422  11.187
65364W        W35964  12.592  29.601   4.375
65365W        W35965   1.279  26.069  11.153
65366W        W35966  28.076  25.158   0.702
65367W        W35967  19.659  32.344  10.801
65368W        W35968  12.090  41.596   0.337
65369W        W35969  44.229   7.736  11.296
65370W        W35970  37.743  28.429  11.564
65371W        W35971   4.581  20.793   4.239
65372W        W35972  26.826  32.837   2.239
65373W        W35973  41.172   0.079  13.414
65374W        W35974  14.036  12.373   4.070
65375W        W35975  31.210  35.080  10.731
65376W        W35976  26.017  38.386  13.493
65377W        W35977  13.275  15.857  11.051
65378W        W35978  43.233   1.920   2.696
65379W        W35979  11.062  24.767  12.008
65380W        W35980   7.756  14.403  10.095
65381W        W35981   2.939  27.170  14.401
65382W        W35982  42.555  28.498  12.875
65383W        W35983   2.527  36.249  12.943
65384W        W35984  23.630  38.314   0.543
65385W        W35985  26.549  12.497   4.653
65386W        W35986  11.907  26.899  14.349
65387W        W35987  24.146  25.696   0.372
65388W        W35988  26.072  43.866   3.177
65389W        W35989  33.829   0.715   4.373
65390W        W35990  39.595  26.746   4.135
65391W        W35991  25.375  14.187   4.966
65392W        W35992  27.437   9.166   3.141
65393W        W35993  25.970  20.756  12.895
65394W        W35994  25.174  29.663  14.421
65395W        W35995  40.444   0.337   4.182
65396W        W35996  41.992  43.861   3.070
65397W        W35997  23.287  31.134   3.621
65398W        W35998   0.572  32.540   2.198
65399W        W35999  32.032  21.504   2.168
65400W        W36000   9.254  15.275   4.132
65401W        W36001  19.148  24.724   0.773
65402W        W36002  44.504  36.145  12.690
65403W        W36003  38.533  42.363   3.866
65404W        W36004  15.089  42.296  11.764
65405W        W36005  10.598  15.241  10.727
65406W        W36006  36.716   0.955   1.395
65407W        W36007  30.467   7.582   3.909
65408W        W36008  14.757  44.004   2.197
65409W        W36009  19.882  18.016   4.619
65410W        W36010  36.803  20.012  14.837
65411W        W36011   6.827  38.513   3.569
65412W        W36012  29.886  30.616   2.166
65413W        W36013  25.170  22.617   0.859
65414W        W36014  41.724  37.775   1.826
65415W        W36015  18.155  25.534   1.862
65416W        W36016  16.684   0.150  11.119
65417W        W36017  33.014  31.903   4.393
65418W        W36018  28.389  32.127  12.873
65419W        W36019  15.245  11.885  13.249
65420W        W36020  34.163  32.088  14.557
65421W        W36021  33.162  13.888  11.077
65422W        W36022   8.891  26.993   0.472
65423W        W36023  30.772   3.900  11.942
65424W        W36024  44.811  33.639  13.901
65425W        W36025  41.760  36.100   3.426
65426W        W36026  10.455  36.664   3.688
65427W        W36027  29.216  26.663  12.986
65428W        W36028  10.682   5.508   4.547
65429W        W36029  25.727  13.117  13.122
65430W        W36030  19.103  39.738   0.234
65431W        W36031  41.146  15.186  12.075
65432W        W36032  29.679  17.760  13.008
65433W        W36033  10.303  21.276  12.196
65434W        W36034  36.555   4.040  11.388
65435W        W36035  43.141  44.683   0.836
65436W        W36036  37.945  16.898  12.320
65437W        W36037   1.833   5.180   1.769
65438W        W36038  24.586  29.053   3.091
65439W        W36039  31.259  12.254  12.575
65440W        W36040  21.134  19.070   4.161
65441W        W36041  33.410   2.033   2.688
65442W        W36042   1.384  11.196   2.382
65443W        W36043  27.577   2.283   3.066
65444W        W36044   2.017   0.229   2.303
65445W        W36045   5.332  35.776  11.725
65446W        W36046  21.971   5.119  14.325
65447W        W36047   0.765   0.469   4.242
65448W        W36048  43.058  18.235   0.473
65449W        W36049  27.608   6.211   1.979
65450W        W36050  16.543  19.588   0.872
65451W        W36051  27.469   0.039  13.292
65452W        W36052  32.995  31.386  13.922
65453W        W36053  32.526   4.942   4.406
65454W        W36054  21.212  12.067  12.088
65455W        W36055  27.725  20.083   3.696
65456W        W36056  32.133  24.159  11.103
65457W        W36057  25.170  44.304  14.846
65458W        W36058   3.317  26.666   1.577
65459W        W36059  23.135  31.118  11.658
65460W        W36060  24.413   9.702   0.167
65461W        W36061   9.918   7.247  11.299
65462W        W36062  28.410  31.533  13.642
65463W        W36063  20.175  13.634   2.798
65464W        W36064  16.738  21.171  14.435
65465W        W36065  39.107  43.387   2.562
65466W        W36066  36.914  24.518   2.577
65467W        W36067  24.915  35.363  11.339
65468W        W36068  31.540   0.306   3.719
65469W        W36069  25.474  31.181  13.515
65470W        W36070  34.073   0.836  10.806
65471W        W36071  14.702  13.912   0.001
65472W        W36072   5.917  24.184   1.755
65473W        W36073  34.344  14.785  12.728
65474W        W36074   8.486  10.326  12.596
65475W        W36075   4.330   5.753   4.184
65476W        W36076  34.649  16.421   4.129
65477W        W36077  38.426   1.319   0.742
65478W        W36078   3.026  21.712   2.760
65479W        W36079  17.654   2.419   4.580
65480W        W36080  34.970  35.615  10.698
65481W        W36081  32.244  13.839  12.011
65482W        W36082  12.069  30.844  14.606
65483W        W36083  12.608  16.853  14.377
65484W        W36084  33.179  25.853  12.351
65485W        W36085  38.099  13.645   3.297
65486W        W36086  12.126   8.455  12.077
65487W        W36087  13.130  26.190   3.171
65488W        W36088  13.722  12.060   0.905
65489W        W36089  14.291   8.754   0.002
65490W        W36090  44.438   9.956  12.989
65491W        W36091  26.987  13.873  12.186
65492W        W36092  42.697  42.874   2.319
65493W        W36093   1.223   1.959  13.393
65494W        W36094  44.222  21.742  13.777
65495W        W36095  25.648   5.194  10.763
65496W        W36096   8.685   6.994  14.196
65497W        W36097  30.652  28.634   2.449
65498W        W36098  37.587  11.706   4.177
65499W        W36099  24.600  12.648  14.751
65500W        W36100  41.568   3.289  13.798
65501W        W36101  28.504  25.551  10.577
65502W        W36102  13.207  13.317   1.038
65503W        W36103   2.798  35.299   2.089
65504W        W36104  18.785  36.391   3.728
65505W        W36105  12.321  32.282   2.199
65506W        W36106   7.943  22.136  10.718
65507W        W36107   1.892   3.763  12.453
65508W        W36108   4.785  22.375  11.804
65509W        W36109  42.568  38.450   2.842
65510W        W36110  12.761  41.569  14.005
65511W        W36111   0.748  17.649  14.563
65512W        W36112  39.883   8.197  13.372
65513W        W36113  36.629   1.768  14.467
65514W        W36114  30.968  39.035  10.624
65515W        W36115  11.234  35.991  14.005
65516W        W36116  44.972  29.601   4.827
65517W        W36117  23.008  41.928   2.291
65518W        W36118  35.375  21.290   3.127
65519W        W36119   8.683  33.843   0.294
65520W        W36120  13.400  42.327  12.098
65521W        W36121  32.263  27.671   0.452
65522W        W36122  44.120  31.189  10.512
65523W        W36123  30.545  21.679   1.425
65524W        W36124  31.400  32.399  14.347
65525W        W36125  28.983  33.013  14.466
65526W        W36126  40.699  10.918  12.590
65527W        W36127   9.789  41.402  11.728
65528W        W36128  13.750  39.519  14.394
65529W        W36129  24.129  42.428  10.456
65530W        W36130  29.512  29.726  14.078
65531W        W36131  16.655   8.885   0.988
65532W        W36132  34.194  13.468   4.493
65533W        W36133  35.114   1.353  11.959
65534W        W36134   2.176  25.795  14.072
65535W        W36135  41.825   5.774   3.766
65536W        W36136  44.018   5.862  12.452
65537W        W36137  34.079  10.631   3.970
65538W        W36138  38.915   6.716   2.216
65539W        W36139   9.593  20.162   3.846
65540W        W36140  42.401  12.222  10.919
65541W        W36141  10.120  44.823  14.331
65542W        W36142   7.207  39.373  14.318
65543W        W36143  37.181  29.785   4.364
65544W        W36144  27.216   1.382   2.198
65545W        W36145  40.356  18.496   2.159
65546W        W36146  19.583  20.246   4.536
65547W        W36147  10.147   3.477   1.230
65548W        W36148  21.630  20.202  12.597
65549W        W36149  35.590  21.854   2.283
65550W        W36150   8.097  21.666  14.375
65551W        W36151  35.957  43.312   0.812
65552W        W36152  39.046   3.400  11.333
65553W        W36153  11.379  29.163   1.692
65554W        W36154  24.844  37.065  11.966
65555W        W36155  15.177  26.367   4.041
65556W        W36156  41.482   7.090   0.588
65557W        W36157  15.231  36.762   2.942
65558W        W36158  17.344  43.927  12.106
65559W        W36159  11.841  29.139   4.096
65560W        W36160  21.204  37.276  12.988
65561W        W36161  23.936  25.864  11.510
65562W        W36162  35.383  31.886   4.036
65563W        W36163  19.194  43.954   3.420
65564W        W36164  28.081   9.791  11.581
65565W        W36165  14.767  11.739  13.885
65566W        W36166  19.996  11.346  10.436
65567W        W36167  30.970  16.811  12.242
65568W        W36168  28.100  25.026   1.780
65569W        W36169  22.638  23.819   3.775
65570W        W36170  23.845  21.006   0.793
65571W        W36171  16.161  40.455   3.739
65572W        W36172  24.500  24.158  11.667
65573W        W36173  30.409  14.705  12.631
65574W        W36174   6.768   6.911   3.435
65575W        W36175   0.986  31.205  10.687
65576W        W36176   2.936  38.002  13.970
65577W        W36177  12.137  33.154  13.786
65578W        W36178  35.428  24.801  13.471
65579W        W36179   3.416  39.051  13.841
65580W        W36180  33.271  42.199   1.391
65581W        W36181  36.349  23.476  14.662
65582W        W36182   7.005  14.833  13.301
65583W        W36183  44.040  25.244   4.178
65584W        W36184   5.665  38.535  14.317
65585W        W36185  12.306  15.629  13.658
65586W        W36186  16.195  19.062  14.376
65587W        W36187   6.913  19.388   2.675
65588W        W36188  31.664  42.333   3.291
65589W        W36189   5.228   6.199   3.396
65590W        W36190   3.305  30.180   3.963
65591W        W36191  42.309   2.263   0.473
65592W        W36192  28.650  10.502   4.924
65593W        W36193  22.811  33.023   5.151
65594W        W36194   4.753  42.824  12.004
65595W        W36195  43.362  28.723  10.327
65596W        W36196  16.512  13.107  11.983
65597W        W36197  26.996  40.316   4.890
65598W        W36198  25.657  36.181   5.322
65599W        W36199  24.091   3.830  11.055
65600W        W36200  10.344  39.272   4.168
65601W        W36201  28.839  39.377  14.866
65602W        W36202   7.147   7.227   3.260
65603W        W36203  18.336  25.032   1.857
65604W        W36204  16.323  22.945   2.807
65605W        W36205  19.236  24.234   4.059
65606W        W36206  30.942  12.205   4.450
65607W        W36207  38.606  30.492  13.104
65608W        W36208  13.451   9.842  11.180
65609W        W36209  16.269  31.360   0.626
65610W        W36210   6.374  11.775   1.339
65611W        W36211  44.091  43.452   0.927
65612W        W36212  39.210  20.410   4.553
65613W        W36213  36.833  26.104  12.551
65614W        W36214  27.229  27.462  13.429
65615W        W36215  30.116  35.426  12.511
65616W        W36216  44.728  11.637   2.200
65617W        W36217   7.256  44.421  11.997
65618W        W36218  42.484  26.236  13.235
65619W        W36219  36.388  44.385   4.764
65620W        W36220  30.941  44.799   2.729
65621W        W36221  17.622   1.144   0.708
65622W        W36222  28.446  36.176   3.357
65623W        W36223   1.957  20.799   2.920
65624W        W36224  15.558  33.151   1.985
65625W        W36225  32.949  28.968  10.715
65626W        W36226  19.264  22.085  14.890
65627W        W36227   1.444  15.487  12.175
65628W        W36228  19.284  19.021  13.856
65629W        W36229  10.391  38.413  11.456
65630W        W36230   1.539   9.675   2.546
65631W        W36231  14.653  14.217   3.287
65632W        W36232  34.221  34.831  12.648
65633W        W36233   3.906  11.360  11.945
65634W        W36234  29.107  20.011  11.626
65635W        W36235   0.403  38.473  10.512
65636W        W36236   4.418  44.490   1.432
65637W        W36237   9.219  32.632   1.990
65638W        W36238  26.734   2.792   3.905
65639W        W36239   7.854  43.961   0.245
65640W        W36240  20.139   5.352  12.769
65641W        W36241  35.467  13.067  11.611
65642W        W36242  28.967  34.558   3.645
65643W        W36243  29.424   0.376   2.461
65644W        W36244  41.532  19.516  11.165
65645W        W36245  21.800   4.393   0.271
65646W        W36246   5.033  37.934   0.832
65647W        W36247  28.075   7.678  13.305
65648W        W36248  29.756  32.083  11.624
65649W        W36249  39.512   8.797   1.344
65650W        W36250  10.090  38.844  12.052
65651W        W36251  31.739  42.551  10.754
65652W        W36252   0.196   1.911   3.572
65653W        W36253   6.330  41.794   4.301
65654W        W36254  39.367  25.167  12.130
65655W        W36255   5.403  20.539  11.094
65656W        W36256   6.871  40.361  13.941
65657W        W36257  16.768  22.150   2.105
65658W        W36258  23.146  19.032  10.397
65659W        W36259  44.500  17.006   5.027
65660W        W36260  39.256  29.859  13.045
65661W        W36261  40.849  30.084   3.913
65662W        W36262  25.904   3.795  11.610
65663W        W36263  15.058  42.733   3.114
65664W        W36264  19.008  20.684  14.371
65665W        W36265  43.379   4.838   1.218
65666W        W36266  40.786  16.154   4.138
65667W        W36267  12.022  29.922  12.093
65668W        W36268  28.241  40.471   2.875
65669W        W36269   7.385   6.170   1.397
65670W        W36270   7.781  25.910   4.793
65671W        W36271  26.384   0.331  12.998
65672W        W36272  38.898   8.172   0.328
65673W        W36273   0.371  38.104  14.805
65674W        W36274  35.389  17.857   1.396
65675W        W36275  27.470  43.432  14.345
65676W        W36276   3.836  10.410   3.203
65677W        W36277  29.807   6.309   2.928
65678W        W36278  29.530  14.549  11.536
65679W        W36279  19.833  25.607   0.306
65680W        W36280   8.731  43.811   3.202
65681W        W36281  13.089   0.386  11.900
65682W        W36282  17.504  28.755   2.870
65683W        W36283  42.705  19.473   5.483
65684W        W36284  32.399  22.248   1.167
65685W        W36285  20.547  11.966  10.632
65686W        W36286  17.255   7.723   0.226
65687W        W36287  24.229  19.787   2.583
65688W        W36288   9.667   6.421   3.165
65689W        W36289   3.452  25.063   0.878
65690W        W36290  24.416   3.823  11.720
65691W        W36291  10.573   4.393  12.451
65692W        W36292   9.366  22.302   2.054
65693W        W36293  24.039  27.677  11.332
65694W        W36294   7.875  23.157  13.882
65695W        W36295  20.599  25.837   5.406
65696W        W36296  28.722  36.578  11.143
65697W        W36297  11.444  30.469  11.816
65698W        W36298  42.332  25.256   1.197
65699W        W36299  19.628  40.244  13.278
65700W        W36300  16.703  31.675  10.022
65701W        W36301  34.609  32.567   4.896
65702W        W36302  23.205  21.988   1.387
65703W        W36303  16.358  24.488   2.250
65704W        W36304  22.110   3.163   0.401
65705W        W36305  28.605  33.464   2.040
65706W        W36306  30.114  14.766   3.627
65707W        W36307   9.436  39.466  12.242
65708W        W36308  35.145  42.508  13.870
65709W        W36309  35.410  27.533  11.660
65710W        W36310  33.983   9.357  14.423
65711W        W36311  32.583   0.194  11.864
65712W        W36312  30.045  44.605  14.043
65713W        W36313  32.484   5.983  13.468
65714W        W36314  23.071  18.464  13.162
65715W        W36315  44.364   7.708   2.838
65716W        W36316  30.569  12.582  14.611
65717W        W36317  26.058  15.516   2.902
65718W        W36318  24.234  40.398   0.979
65719W        W36319  31.907  33.835  13.548
65720W        W36320  11.785  20.467   4.432
65721W        W36321  18.221  41.743   2.239
65722W        W36322  36.981  41.735   4.106
65723W        W36323  30.118  26.061  13.072
65724W        W36324  28.526  26.935  10.924
65725W        W36325  23.994   4.151   2.250
65726W        W36326  37.998  17.046  14.222
65727W        W36327  32.849  22.080   4.520
65728W        W36328  40.796   3.977   4.267
65729W        W36329  33.926  43.356   1.389
65730W        W36330  39.345   4.530  10.292
65731W        W36331  42.876  36.750   1.690
65732W        W36332  38.923  16.328  13.941
65733W        W36333   0.547  33.361  13.450
65734W        W36334   1.492  42.614  13.893
65735W        W36335   4.623  38.517   2.969
65736W        W36336  33.182  32.412   4.746
65737W        W36337   8.806  42.987  10.863
65738W        W36338  29.496   6.802  13.404
65739W        W36339  25.377  33.037   3.239
65740W        W36340   0.291  28.528   1.302
65741W        W36341   9.280  43.325  14.402
65742W        W36342  16.713  36.625  11.108
65743W        W36343  22.921  30.485  12.161
65744W        W36344  38.644  26.067  12.562
65745W        W36345  24.443   7.322   3.176
65746W        W36346  12.239  20.686   3.121
65747W        W36347  24.733  24.584   1.704
65748W        W36348  16.792   6.310  12.775
65749W        W36349  12.269  35.876   3.376
65750W        W36350  22.507  13.685   0.246
65751W        W36351  26.686  23.102  10.561
65752W        W36352  29.907  37.930  13.995
65753W        W36353   3.869  25.152   0.556
65754W        W36354  16.131  23.141   4.885
65755W        W36355   4.451  27.521  11.567
65756W        W36356  30.075  17.019  13.430
65757W        W36357  22.436  10.452   1.034
65758W        W36358   9.574  12.308  13.628
65759W        W36359  38.121   9.415   1.467
65760W        W36360   3.268   7.741  14.953
65761W        W36361  23.480  10.164  12.422
65762W        W36362  11.552  44.793   1.696
65763W        W36363  38.943   6.399  13.852
65764W        W36364   7.321  42.433  13.087
65765W        W36365  13.680   6.172  10.740
65766W        W36366  21.694  19.382  11.766
65767W        W36367  13.256  42.942   3.372
65768W        W36368  16.566   8.248   0.361
65769W        W36369  29.048   3.628  12.415
65770W        W36370   0.976  39.539   4.463
65771W        W36371  44.304  16.248  14.713
65772W        W36372  14.393  28.739  11.138
65773W        W36373  19.800  13.633   1.397
65774W        W36374  25.911  39.158   3.212
65775W        W36375   2.812  23.579   2.622
65776W        W36376  27.245  11.651   1.624
65777W        W36377  24.983   5.558  11.230
65778W        W36378  35.889  27.020   3.918
65779W        W36379   6.066  35.662   4.440
65780W        W36380   6.143   7.683   2.562
65781W        W36381  24.198  43.771   9.791
65782W        W36382   8.912  14.765   0.892
65783W        W36383  35.379  15.837  12.500
65784W        W36384  43.356   0.586  10.864
65785W        W36385   4.304  43.980  13.362
65786W        W36386  44.596   4.428   4.707
65787W        W36387  12.288  26.005   3.572
65788W        W36388  25.115   0.172   0.427
65789W        W36389  38.374  20.141  12.424
65790W        W36390   5.444  19.027  12.359
65791W        W36391   0.282  21.545  11.114
65792W        W36392  15.564   2.935  14.855
65793W        W36393  24.362   6.352  11.122
65794W        W36394   1.429  13.665  10.687
65795W        W36395  39.703   7.690  13.238
65796W        W36396  37.817  24.479  12.613
65797W        W36397  29.267  17.382   0.492
65798W        W36398  43.399  33.147  10.964
65799W        W36399  12.516  23.257   0.363
65800W        W36400   2.755   9.134   3.071
65801W        W36401   2.247  26.191   1.321
65802W        W36402  29.278  29.432   0.422
65803W        W36403  12.153  14.400  11.624
65804W        W36404  19.636   2.764  10.918
65805W        W36405   0.253  36.366   1.746
65806W        W36406  12.372  14.137   0.309
65807W        W36407   3.447   4.440   2.706
65808W        W36408  33.413  42.102   3.190
65809W        W36409  32.986  42.442  10.721
65810W        W36410  14.774  17.992   1.887
65811W        W36411  13.584  42.066   3.237
65812W        W36412  26.966  43.780   1.361
65813W        W36413  33.026  37.515   3.745
65814W        W36414  20.084  35.579  12.953
65815W        W36415  16.354   0.628  11.072
65816W        W36416  27.225   0.925  13.906
65817W        W36417  28.478  38.992   4.369
65818W        W36418  20.261  34.978   1.686
65819W        W36419   7.052  12.022   2.778
65820W        W36420  37.198  23.580  12.939
65821W        W36421  38.804  18.653   9.804
65822W        W36422   5.628  41.746   2.782
65823W        W36423   5.386  14.261   0.670
65824W        W36424  34.066  10.256  13.015
65825W        W36425  36.544  34.600  12.000
65826W        W36426   4.971  37.414   1.793
65827W        W36427  39.727   0.427   0.001
65828W        W36428  22.726   1.964  11.265
65829W        W36429  32.909  10.753   1.216
65830W        W36430  44.444   6.260  12.062
65831W        W36431  33.517  33.860  10.546
65832W        W36432  26.710   7.789  12.391
65833W        W36433  16.957  26.564   3.123
65834W        W36434  20.878  26.967  14.582
65835W        W36435  31.446  28.898  11.725
65836W        W36436  44.549  31.909   3.674
65837W        W36437  31.939  30.507  11.984
65838W        W36438  20.573  12.712  11.423
65839W        W36439  20.648  36.116   3.210
65840W        W36440  10.265  20.813   4.216
65841W        W36441  39.753  38.928   1.644
65842W        W36442  15.556  39.053   0.767
65843W        W36443  15.293  29.534  11.507
65844W        W36444  28.461  16.057   2.247
65845W        W36445  10.180   4.668   4.681
65846W        W36446  37.391   7.829   2.319
65847W        W36447  24.297  34.970  11.182
65848W        W36448  36.183   8.139   3.553
65849W        W36449  18.451   6.695  13.205
65850W        W36450  38.007  24.277  10.610
65851W        W36451  41.472   5.521   3.505
65852W        W36452  42.819  37.738  11.988
65853W        W36453   0.275   2.197   2.635
65854W        W36454  29.610  36.020  12.568
65855W        W36455  35.598  28.822  11.990
65856W        W36456  24.308   5.325  13.354
65857W        W36457  17.492  37.992   2.696
65858W        W36458  44.858  23.642   4.678
65859W        W36459  24.302  15.312  13.420
65860W        W36460  39.962  17.560  14.853
65861W        W36461  40.402  35.321   4.697
65862W        W36462  15.111  31.524  13.319
65863W        W36463  43.940  29.205   0.311
65864W        W36464  21.367  30.518   3.136
65865W        W36465  24.112  38.927  13.804
65866W        W36466  17.377  34.270   2.770
65867W        W36467  20.500  35.610   3.174
65868W        W36468  15.866  21.720   4.558
65869W        W36469  14.602  33.899   2.209
65870W        W36470  38.934  37.122  14.339
65871W        W36471  10.434  19.612   1.858
65872W        W36472  43.423  11.022  13.348
65873W        W36473  12.714  15.166  14.840
65874W        W36474   7.819  33.299  14.310
65875W        W36475  12.980   8.342   3.174
65876W        W36476  32.932  37.943  14.080
65877W        W36477  44.567  28.024  13.339
65878W        W36478  32.893   1.291   0.686
65879W        W36479  10.765  36.202   2.694
65880W        W36480  39.775   2.763   4.624
65881W        W36481   3.375  10.799   4.733
65882W        W36482   8.940  36.011   0.414
65883W        W36483  21.835  43.491  14.590
65884W        W36484  19.862  24.189  11.150
65885W        W36485  14.503  13.135   3.724
65886W        W36486   5.882  23.674   4.891
65887W        W36487   6.322  43.669  14.860
65888W        W36488  42.785  27.949  12.400
65889W        W36489   2.485  37.444   3.597
65890W        W36490  31.060  32.401   3.856
65891W        W36491  19.007  17.355  12.913
65892W        W36492  17.718  20.783   4.768
65893W        W36493  27.631  21.085  14.474
65894W        W36494  32.577   3.995  10.989
65895W        W36495  23.682  44.246   2.805
65896W        W36496  24.166  13.185  10.785
65897W        W36497   6.511  26.679   4.543
65898W        W36498  35.976  38.979   0.667
65899W        W36499  14.554   8.400  13.839
65900W        W36500  12.043   8.369  12.864
65901W        W36501  24.225  30.830  12.529
65902W        W36502  43.029  13.820   4.979
65903W        W36503   1.500   8.316  13.360
65904W        W36504  20.568  40.786  11.681
65905W        W36505  39.823  29.511  11.182
65906W        W36506  36.881  35.964  11.953
65907W        W36507  27.022   8.736  14.910
65908W        W36508  37.936  23.813   4.040
65909W        W36509   0.911  42.866  14.269
65910W        W36510  38.367  39.811   4.595
65911W        W36511  33.506  21.207  11.217
65912W        W36512  20.854  19.654  13.943
65913W        W36513  20.667  10.378   1.368
65914W        W36514   8.410  38.114  14.050
65915W        W36515  21.173  32.743   1.121
65916W        W36516   0.660   1.852  14.124
65917W        W36517  22.231  14.854  12.599
65918W        W36518  34.342  31.596   4.983
65919W        W36519  37.623   2.330  12.276
65920W        W36520  12.216  27.314   3.306
65921W        W36521   2.230  15.665  11.139
65922W        W36522  36.913  14.298   1.921
65923W        W36523  24.594  41.332  11.622
65924W        W36524  24.995  22.331   2.691
65925W        W36525  44.313  23.961  14.899
65926W        W36526  37.235  31.025   3.191
65927W        W36527  14.530  30.577   5.062
65928W        W36528  36.873  35.347   4.278
65929W        W36529  31.364  35.348  13.381
65930W        W36530  18.008  36.407  14.047
65931W        W36531  38.023  31.877   4.742
65932W        W36532  42.536   0.873  13.246
65933W        W36533  32.076  41.953  12.525
65934W        W36534  38.375  10.663   2.688
65935W        W36535  26.754  29.437  13.992
65936W        W36536  29.618  41.742   2.186
65937W        W36537  41.923  38.802   1.483
65938W        W36538  34.542  27.413   1.154
65939W        W36539   5.648   3.721  14.652
65940W        W36540  41.240  40.550   4.582
65941W        W36541  19.901  40.236   4.169
65942W        W36542   7.408  15.722   1.222
65943W        W36543  23.980  44.186  14.407
65944W        W36544  25.488  23.560   5.054
65945W        W36545  27.201  43.029  10.734
65946W        W36546  40.095   3.930  14.899
65947W        W36547  34.835   9.373   3.543
65948W        W36548  14.569  40.809  13.181
65949W        W36549  13.666  13.405  11.114
65950W        W36550  42.047   9.579  11.516
65951W        W36551  10.585  39.816   3.780
65952W        W36552   5.367  33.438  12.406
65953W        W36553  12.414  43.643   1.333
65954W        W36554  11.753  10.637  13.709
65955W        W36555  20.113  18.230   0.837
65956W        W36556  16.857  28.568   2.090
65957W        W36557  19.961   0.471  13.925
65958W        W36558  10.830  42.060  11.018
65959W        W36559  42.435  35.394  13.936
65960W        W36560  43.288  10.287   0.721
65961W        W36561   8.422  10.837   1.284
65962W        W36562  29.005  42.946   3.800
65963W        W36563   9.278  40.514   0.330
65964W        W36564   7.389   2.413   3.629
65965W        W36565  12.827  11.588  11.567
65966W        W36566  17.801   1.722  12.883
65967W        W36567  23.562  20.512   3.066
65968W        W36568  37.450  36.508  12.916
65969W        W36569  20.192  36.370  14.008
65970W        W36570  38.925  31.347  14.193
65971W        W36571  10.859  23.339  12.099
65972W        W36572  24.008  22.139   1.828
65973W        W36573  13.918  10.693  14.797
65974W        W36574  42.958   7.655   3.651
65975W        W36575  31.701  12.775   3.260
65976W        W36576  15.061  28.073   3.732
65977W        W36577  30.932   8.489   9.991
65978W        W36578  25.810  18.120  12.966
65979W        W36579  20.493  29.856  13.355
65980W        W36580   6.913  34.828  11.949
65981W        W36581  44.409  43.437  12.597
65982W        W36582  18.636  33.476   3.809
65983W        W36583  36.385   0.444  12.621
65984W        W36584  24.042  20.270  13.851
65985W        W36585  12.759  14.128   1.722
65986W        W36586  17.615  11.415  13.514
65987W        W36587  41.921   7.234  11.016
65988W        W36588  15.269  38.573  12.061
65989W        W36589  22.706  42.683  12.944
65990W        W36590  44.374  24.912   1.190
65991W        W36591   0.927  19.254   1.352
65992W        W36592  31.835  11.817   0.394
65993W        W36593  32.700  32.289   4.569
65994W        W36594   6.950  18.177   0.886
65995W        W36595   6.769  39.255   3.302
65996W        W36596  30.999   6.095  13.904
65997W        W36597  27.597  36.029  11.255
65998W        W36598   7.456  37.410  10.788
65999W        W36599  14.938  33.554  11.628
66000W        W36600  21.532  30.109  11.604
66001W        W36601  31.262  29.941  13.343
66002W        W36602  26.932   0.413  14.075
66003W        W36603   5.337  28.046   2.614
66004W        W36604  11.876  39.426  10.829
66005W        W36605   9.031   6.616  14.300
66006W        W36606  13.578  20.101   2.119
66007W        W36607  31.594  25.097   3.502
66008W        W36608   9.787   5.361  13.052
66009W        W36609  12.242  23.749  14.636
66010W        W36610   0.729  19.115  13.527
66011W        W36611   1.381  31.434  13.815
66012W        W36612  36.332  31.375   0.213
66013W        W36613  39.461  16.371   1.740
66014W        W36614  23.469  28.102   0.254
66015W        W36615  21.776   3.271  12.744
66016W        W36616   3.747  23.665  13.050
66017W        W36617  13.395  36.817  10.540
66018W        W36618  19.848  19.173  12.090
66019W        W36619   4.393  29.708   2.418
66020W        W36620  42.248  40.428  14.838
66021W        W36621  41.052  19.088  11.664
66022W        W36622   6.731  44.866   2.664
66023W        W36623  39.079  41.594  12.004
66024W        W36624  28.544   3.855   0.191
66025W        W36625  34.077  40.046  11.147
66026W        W36626  39.035   7.344  14.378
66027W        W36627   3.751  12.830   2.648
66028W        W36628   7.629  15.715  10.752
66029W        W36629  35.261  29.945  13.988
66030W        W36630   6.368  23.945   2.561
66031W        W36631   8.352  20.100   2.325
66032W        W36632  25.553  13.038  11.843
66033W        W36633  25.650   5.455  14.282
66034W        W36634  40.106  44.799   2.405
66035W        W36635  27.054  10.347   4.071
66036W        W36636  22.747  18.852  10.122
66037W        W36637  41.451   5.485  10.309
66038W        W36638  37.477   8.979   0.546
66039W        W36639   9.286   8.235  11.770
66040W        W36640  25.393  43.802   4.521
66041W        W36641  40.295   5.885  13.963
66042W        W36642   1.667  31.953  12.732
66043W        W36643  13.337  26.657   1.878
66044W        W36644  22.069  43.361  10.175
66045W        W36645  25.574  35.816   2.359
66046W        W36646  34.915  30.880  14.020
66047W        W36647  15.842  30.482   2.854
66048W        W36648   4.009   0.108   3.170
66049W        W36649  20.693  12.255   4.701
66050W        W36650  40.885  23.263  11.540
66051W        W36651  22.713  31.109  12.596
66052W        W36652  39.862  39.902  14.412
66053W        W36653  41.058  33.613   2.837
66054W        W36654   5.008  32.407   1.853
66055W        W36655  24.917   8.562  11.396
66056W        W36656  37.098   7.225  13.002
66057W        W36657  14.473  15.695  11.648
66058W        W36658  17.269  16.441   0.988
66059W        W36659  14.987  14.301   0.670
66060W        W36660  31.644   7.948   2.255
66061W        W36661   5.516  20.701  10.612
66062W        W36662  23.963  11.676  11.810
66063W        W36663  27.145  36.682  13.358
66064W        W36664  19.384  12.258  11.212
66065W        W36665  39.826  17.056   0.248
66066W        W36666   7.618  36.133   0.382
66067W        W36667  19.073  44.721   4.307
66068W        W36668  19.027  10.372   4.621
66069W        W36669  27.121  10.048   0.425
66070W        W36670   7.311  21.308  12.479
66071W        W36671  39.723  20.902   0.403
66072W        W36672  28.119  18.631  14.131
66073W        W36673  21.779  35.974  12.374
66074W        W36674  40.925  29.774  12.470
66075W        W36675  25.450   4.835   4.667
66076W        W36676  27.950  36.535   0.496
66077W        W36677  17.199  41.851   2.322
66078W        W36678   4.620   3.115  11.017
66079W        W36679   1.613  15.725   4.515
66080W        W36680  15.011   8.836   4.076
66081W        W36681  32.692  19.445   1.681
66082W        W36682  16.260  13.712  12.656
66083W        W36683   8.393   6.876   0.352
66084W        W36684  36.335  40.846   4.797
66085W        W36685   0.917  33.338  14.431
66086W        W36686  10.657  16.901  13.420
66087W        W36687  30.182   4.506   3.358
66088W        W36688  32.234  39.988   1.969
66089W        W36689  28.946   9.070   2.440
66090W        W36690  10.213   9.536  13.399
66091W        W36691  40.835   4.823  11.191
66092W        W36692  33.730   6.320  11.842
66093W        W36693  25.530   2.424   2.530
66094W        W36694  11.255  36.468   0.869
66095W        W36695  11.852   2.294  11.626
66096W        W36696  32.609  39.981  11.476
66097W        W36697  13.440  15.447   3.263
66098W        W36698   9.128  41.980  13.457
66099W        W36699  33.097   1.321  13.944
66100W        W36700  37.827  20.138  13.565
66101W        W36701   1.835  27.412   3.723
66102W        W36702  33.502  14.178   1.941
66103W        W36703  20.691   9.744  12.215
66104W        W36704  28.077  21.913  13.521
66105W        W36705   1.471  32.813  13.464
66106W        W36706  33.655  17.563   4.173
66107W        W36707  12.924  17.620   0.438
66108W        W36708  33.190  16.101  13.524
66109W        W36709   6.846   4.049  11.926
66110W        W36710  29.637  11.863  11.730
66111W        W36711  42.941   1.016   4.662
66112W        W36712   0.955  26.631   4.040
66113W        W36713  43.824  34.013   3.128
66114W        W36714  28.554  36.126   4.119
66115W        W36715  26.613  14.620  12.716
66116W        W36716  19.104   7.901   0.820
66117W        W36717  43.420  27.290  12.384
66118W        W36718  40.428  28.747  14.269
66119W        W36719  42.007  13.546  13.791
66120W        W36720  41.829   5.147   3.481
66121W        W36721  12.833  42.343  12.917
66122W        W36722  28.049   1.706  12.466
66123W        W36723  19.034  43.018   1.944
66124W        W36724  15.309   2.996   0.315
66125W        W36725  23.681  30.119  14.782
66126W        W36726  43.517  27.731   1.924
66127W        W36727  33.666   5.406   0.962
66128W        W36728  34.448  42.683  12.064
66129W        W36729  22.671  42.175  13.026
66130W        W36730  27.589  39.131   4.866
66131W        W36731   6.222  13.468  11.454
66132W        W36732  11.779   3.986  11.556
66133W        W36733  13.131  24.003   4.293
66134W        W36734  33.516  41.527  10.594
66135W        W36735  26.945  10.227  10.754
66136W        W36736  34.535   8.859   1.909
66137W        W36737  37.788  40.469  12.485
66138W        W36738  23.032   7.881   2.184
66139W        W36739  23.286  36.049   0.060
66140W        W36740  12.697  42.420  13.987
66141W        W36741  30.915  23.390   1.892
66142W        W36742  26.580  28.995  13.767
66143W        W36743   8.492  43.897   4.681
66144W        W36744   8.860  22.795  13.498
66145W        W36745  22.615  37.870   1.975
66146W        W36746  39.843  19.767  14.820
66147W        W36747  43.073   9.469   3.159
66148W        W36748  10.253  35.965  14.343
66149W        W36749  42.433   1.246   4.642
66150W        W36750  37.913   0.642   3.161
66151W        W36751  43.537  44.426  11.546
66152W        W36752  37.466  18.911  12.691
66153W        W36753  25.695  29.194  10.542
66154W        W36754  39.246  17.684   1.004
66155W        W36755  37.534  35.399  13.026
66156W        W36756   7.113  26.287  11.108
66157W        W36757  29.650  30.432   4.108
66158W        W36758  33.878  43.445   3.233
66159W        W36759  27.620   8.185  12.335
66160W        W36760  28.388  28.178  11.496
66161W        W36761   4.861  22.295   2.156
66162W        W36762  36.488  27.593  14.025
66163W        W36763  14.768   2.964   2.736
66164W        W36764  32.986  11.315  10.740
66165W        W36765  16.239  35.976  10.133
66166W        W36766   5.410  13.674  12.643
66167W        W36767  38.623  38.000   3.750
66168W        W36768  11.265  43.448   1.733
66169W        W36769   4.227  10.222   0.509
66170W        W36770   8.384  17.749   1.902
66171W        W36771  16.418   3.366  12.121
66172W        W36772   8.298  11.337  14.318
66173W        W36773  11.158  21.758   2.790
66174W        W36774  27.023  20.245  12.055
66175W        W36775  35.845  35.426  11.301
66176W        W36776  39.771  20.697   2.699
66177W        W36777  27.731  22.003   3.273
66178W        W36778   1.263  18.647  14.915
66179W        W36779  40.571   5.929   2.435
66180W        W36780  42.511  17.695   1.145
66181W        W36781  12.510  10.471  14.879
66182W        W36782  23.973   0.347  11.525
66183W        W36783  33.587  27.239  14.337
66184W        W36784  35.086  12.648   0.378
66185W        W36785   3.298  27.074   0.203
66186W        W36786   1.783  41.406   0.804
66187W        W36787  42.231  11.357  11.286
66188W        W36788  39.768  31.885   0.156
66189W        W36789  37.928  42.005  11.117
66190W        W36790   9.685   5.475  11.165
66191W        W36791  27.513   2.250  12.189
66192W        W36792  26.443  44.814   2.738
66193W        W36793  32.401   4.979  12.030
66194W        W36794  13.453  27.792  12.921
66195W        W36795  24.957  12.598   1.142
66196W        W36796   2.199   1.091  12.983
66197W        W36797   7.705   6.850   3.814
66198W        W36798  20.640  30.009  13.837
66199W        W36799  41.523  35.418  13.391
66200W        W36800   5.726  20.440   0.058
66201W        W36801   8.568  30.023   1.418
66202W        W36802  28.539  24.937   0.713
66203W        W36803  17.022  28.717   1.608
66204W        W36804  16.616  22.063  12.913
66205W        W36805  21.611  29.616   3.039
66206W        W36806  33.914  44.563  11.159
66207W        W36807  20.049  36.009  13.255
66208W        W36808  18.511  15.839   2.390
66209W        W36809   1.863  20.611  14.289
66210W        W36810   2.707  26.438   1.297
66211W        W36811  33.449   7.474  13.542
66212W        W36812  11.279  40.840  10.901
66213W        W36813  21.554  38.270  14.348
66214W        W36814  29.487  31.532   2.510
66215W        W36815   1.500  39.772   4.553
66216W        W36816  34.445  23.481  11.983
66217W        W36817   2.966  11.813  12.064
66218W        W36818  26.548  16.542  14.403
66219W        W36819  29.363   3.931  13.300
66220W        W36820  41.936   5.829  11.863
66221W        W36821   7.239  23.506   3.811
66222W        W36822  39.038  20.062  13.352
66223W        W36823  44.407  17.778  10.667
66224W        W36824  41.031  20.093  10.688
66225W        W36825  17.410  33.244   2.169
66226W        W36826  16.321  32.594  12.926
66227W        W36827  10.490  17.752   2.833
66228W        W36828   4.808   2.698  10.265
66229W        W36829  11.130  37.918  12.686
66230W        W36830  24.256   4.796   0.228
66231W        W36831   1.397   8.454  12.141
66232W        W36832  37.831  39.031  10.646
66233W        W36833  44.845  22.419  13.102
66234W        W36834  15.805  22.780   2.882
66235W        W36835  31.069  25.586   1.413
66236W        W36836   5.947  35.790   1.228
66237W        W36837  26.997  18.182   1.147
66238W        W36838  39.518   5.685   3.707
66239W        W36839   4.968   8.194   5.236
66240W        W36840  42.455  22.274  10.967
66241W        W36841  28.176  20.676  12.790
66242W        W36842  38.248  22.505   2.690
66243W        W36843  36.122  19.421   2.614
66244W        W36844  23.278  15.166  13.373
66245W        W36845  13.420  26.330  10.561
66246W        W36846   7.764  14.915  13.084
66247W        W36847  15.593  30.341  12.859
66248W        W36848  34.217  13.083   2.017
66249W        W36849  28.626   8.096   1.401
66250W        W36850  44.974  16.717   1.231
66251W        W36851   8.234  34.394   4.182
66252W        W36852   7.633  43.266  13.029
66253W        W36853   0.965  28.997   3.278
66254W        W36854   9.937  21.519   1.680
66255W        W36855  28.461  25.250  11.413
66256W        W36856  24.925  29.160  14.910
66257W        W36857  35.326   5.945   3.359
66258W        W36858  12.282  26.880  12.859
66259W        W36859  19.335  37.725  13.343
66260W        W36860  39.495  10.387   9.924
66261W        W36861  24.965   4.326   0.588
66262W        W36862  37.487  40.452   4.335
66263W        W36863  32.046  34.841   0.407
66264W        W36864  28.003  28.194  13.851
66265W        W36865  29.719  41.565  14.878
66266W        W36866   6.909  18.789   1.330
66267W        W36867   2.752  21.699   3.749
66268W        W36868  17.712  37.451  10.712
66269W        W36869   4.475  18.205   3.866
66270W        W36870  43.714   2.756  12.883
66271W        W36871  23.198  29.955  14.025
66272W        W36872   3.371  19.811   2.716
66273W        W36873  12.512  33.838  14.869
66274W        W36874  40.439  19.515   2.371
66275W        W36875  17.844  43.863  13.155
66276W        W36876   8.211  26.599   2.396
66277W        W36877  16.008  20.709  12.220
66278W        W36878  30.054   9.975   0.407
66279W        W36879  35.941  22.406   1.829
66280W        W36880   8.004  16.228  12.351
66281W        W36881   6.344  18.060  14.239
66282W        W36882  24.817   2.361  13.982
66283W        W36883   8.728  19.778  13.106
66284W        W36884  33.586  23.957  11.897
66285W        W36885   4.874  12.735   0.867
66286W        W36886   9.597  20.752  14.320
66287W        W36887   5.461  44.030  11.404
66288W        W36888  39.426  34.379   3.675
66289W        W36889  30.208   7.244   3.337
66290W        W36890  24.161  32.131   4.205
66291W        W36891  31.999  16.247  12.511
66292W        W36892   5.188  10.781  14.543
66293W        W36893   1.473  23.219  14.104
66294W        W36894   9.186  43.226   3.346
66295W        W36895  28.909  30.387  12.911
66296W        W36896  33.786   6.745  14.741
66297W        W36897  42.686  15.806   2.681
66298W        W36898   5.867  36.268  14.930
66299W        W36899   4.514  24.507  13.111
66300W        W36900  20.592  30.804   4.381
66301W        W36901  19.938  24.305  14.892
66302W        W36902   1.221  16.151  11.028
66303W        W36903   3.356  42.391   1.943
66304W        W36904  37.324  15.269  14.180
66305W        W36905  24.779  15.176   0.957
66306W        W36906   5.210  31.798   3.594
66307W        W36907  20.986  11.356   1.382
66308W        W36908   8.946  20.138   2.143
66309W        W36909   6.146  21.731   3.428
66310W        W36910  15.702   3.981   3.819
66311W        W36911  35.428  35.061  12.499
66312W        W36912  18.087  34.433   1.319
66313W        W36913  10.188  10.929   4.066
66314W        W36914  18.634  30.916  10.514
66315W        W36915  23.266  36.244  11.589
66316W        W36916  31.997  25.552   4.663
66317W        W36917  27.125   1.695   4.130
66318W        W36918  41.713  17.209   3.069
66319W        W36919  41.255   0.842  13.078
66320W        W36920  26.566  41.548   2.211
66321W        W36921  10.635   5.097   2.716
66322W        W36922  44.510  42.382  12.570
66323W        W36923  27.162  21.951  11.045
66324W        W36924  38.835   1.990  12.810
66325W        W36925  10.027  34.146  12.081
66326W        W36926  29.568  35.563  14.892
66327W        W36927  14.424  34.834  13.475
66328W        W36928  36.116  27.264   5.301
66329W        W36929  18.250   4.831  11.745
66330W        W36930   1.487   5.165   2.223
66331W        W36931  31.193  42.219   3.124
66332W        W36932  20.329  29.969   1.128
66333W        W36933  21.500  28.629   3.329
66334W        W36934  33.611  37.464  11.126
66335W        W36935  32.351  25.471  12.502
66336W        W36936  22.613  15.689  13.126
66337W        W36937   3.975   4.793  11.660
66338W        W36938  16.935  32.819  11.513
66339W        W36939  18.814  28.676  14.055
66340W        W36940   0.447  37.032   0.816
66341W        W36941  32.612  14.816   1.762
66342W        W36942   9.477  35.856  14.787
66343W        W36943  19.014   5.765   1.234
66344W        W36944  14.361  19.144   3.585
66345W        W36945  25.106   7.687  14.427
66346W        W36946  23.290  27.301  12.059
66347W        W36947  20.622  36.104  13.887
66348W        W36948  10.139  31.456  13.051
66349W        W36949  23.375  19.485  13.297
66350W        W36950  44.631  17.754   0.923
66351W        W36951   4.213  31.602  14.929
66352W        W36952   8.784  33.954  13.464
66353W        W36953   4.216  42.382  13.991
66354W        W36954  36.500   4.725   2.936
66355W        W36955  35.182  32.506   0.818
66356W        W36956   4.086  11.240  12.405
66357W        W36957   1.350   4.490  12.744
66358W        W36958  19.526   7.785  11.990
66359W        W36959  12.524  27.901   2.743
66360W        W36960   1.163  42.023   3.196
66361W        W36961   3.394  18.288  14.285
66362W        W36962   7.896  28.424  12.452
66363W        W36963  20.489  35.885  11.420
66364W        W36964   7.004  10.531  12.471
66365W        W36965  23.718  33.445  13.250
66366W        W36966  23.982  17.152  14.403
66367W        W36967  26.812  23.538  13.443
66368W        W36968  21.592  29.952  10.597
66369W        W36969  10.016  28.748  10.713
66370W        W36970  12.807  36.786   2.336
66371W        W36971   5.978  36.904  11.898
66372W        W36972   7.460  41.529  11.149
66373W        W36973  13.593  15.611  12.602
66374W        W36974  39.295  31.762   0.011
66375W        W36975   2.156  37.022  12.460
66376W        W36976  21.909  22.692  11.289
66377W        W36977  18.224  44.649  10.697
66378W        W36978  29.565  33.933   4.384
66379W        W36979   4.997   8.874  13.856
66380W        W36980   1.829  38.927   4.587
66381W        W36981  30.890   1.750  11.837
66382W        W36982  42.633   9.706  13.339
66383W        W36983  38.365   6.341  14.864
66384W        W36984   7.985  30.058   0.508
66385W        W36985  28.198  37.938   0.513
66386W        W36986  25.506  39.882   4.274
66387W        W36987   5.255  27.220   3.078
66388W        W36988   4.662  27.768   0.893
66389W        W36989  15.549  10.595   0.764
66390W        W36990   2.271  34.993  14.974
66391W        W36991   0.057   4.524   0.716
66392W        W36992  29.549  15.857  12.507
66393W        W36993  11.828  24.072   1.904
66394W        W36994  15.794  12.327   3.485
66395W        W36995  24.128  23.536   1.816
66396W        W36996  37.529  40.085  14.332
66397W        W36997   6.416  34.479  11.574
66398W        W36998   4.831  19.807   4.337
66399W        W36999  43.248  17.126   4.123
66400W        W37000  17.587  29.917  14.229
66401W        W37001  31.393  11.888  13.457
66402W        W37002  11.105  28.630  13.817
66403W        W37003  26.510  31.632  14.957
66404W        W37004  43.304  35.381   4.875
66405W        W37005   6.176  43.309  11.224
66406W        W37006  29.607  32.417   2.327
66407W        W37007  29.515  24.148  13.398
66408W        W37008  19.511  43.845   2.979
66409W        W37009  38.104  11.267   4.867
66410W        W37010  12.843   9.179  14.470
66411W        W37011  13.725  31.664  13.080
66412W        W37012  25.018  35.544   0.743
66413W        W37013  32.650  10.292   0.425
66414W        W37014  35.649  21.718   3.137
66415W        W37015   1.554  23.248  13.603
66416W        W37016  23.653  42.757   1.496
66417W        W37017  38.530  28.161   1.682
66418W        W37018   7.527  18.102  11.289
66419W        W37019  27.370  40.046  10.651
66420W        W37020  14.657  33.082  11.157
66421W        W37021  28.984  39.080  12.448
66422W        W37022   6.647  24.227   4.766
66423W        W37023  37.559  16.368   1.243
66424W        W37024  16.069  19.073   4.996
66425W        W37025  22.922   4.385  14.795
66426W        W37026   5.969  21.702  10.496
66427W        W37027  12.575  11.252   2.836
66428W        W37028  16.523  27.561  11.250
66429W        W37029  22.663  17.552   1.596
66430W        W37030  43.448  23.809   1.874
66431W        W37031   0.366  44.305   1.185
66432W        W37032  41.854  15.304  13.419
66433W        W37033  10.292  29.200  10.660
66434W        W37034   6.974  28.414   1.822
66435W        W37035   1.250  31.897   3.251
66436W        W37036  39.982   8.001   2.859
66437W        W37037  13.132  17.064   4.278
66438W        W37038  26.542  23.316  13.869
66439W        W37039  19.619  14.190  12.051
66440W        W37040   0.470  31.171  10.681
66441W        W37041  16.728  37.604  13.690
66442W        W37042  43.422  27.255   2.590
66443W        W37043  38.894  37.242  13.386
66444W        W37044  16.830  44.284  12.326
66445W        W37045  44.477  27.629   1.488
66446W        W37046   3.723  41.903   4.511
66447W        W37047  10.175  43.363   3.147
66448W        W37048  12.744  37.751  11.031
66449W        W37049  44.300   3.519  13.986
66450W        W37050  14.713   2.311  10.927
66451W        W37051  41.814   4.695  13.927
66452W        W37052  43.650   8.272  13.921
66453W        W37053  38.855  15.973   2.749
66454W        W37054  33.878  44.865   1.711
66455W        W37055   7.244   1.479   0.399
66456W        W37056  17.289  31.636   4.760
66457W        W37057  14.256  11.373   0.855
66458W        W37058  38.148  19.016   1.398
66459W        W37059  25.763   0.313   0.770
66460W        W37060   6.616  39.399   1.755
66461W        W37061  28.059   5.471   0.498
66462W        W37062  28.899  28.743  11.470
66463W        W37063  15.627  11.380  14.475
66464W        W37064   4.247  14.156  12.341
66465W        W37065  33.080  38.539  14.745
66466W        W37066  39.005  27.690  10.732
66467W        W37067   2.309  18.995   1.218
66468W        W37068  40.467  23.127   2.483
66469W        W37069   8.558  16.215   1.636
66470W        W37070   2.520  39.085   5.270
66471W        W37071  43.595  27.937  12.010
66472W        W37072   3.294  31.511  11.164
66473W        W37073  22.725  40.534  13.528
66474W        W37074   5.960  32.485   4.049
66475W        W37075  27.583  43.739   3.203
66476W        W37076   1.233   6.253  14.814
66477W        W37077  36.837  43.019  11.942
66478W        W37078  22.534   5.369   3.660
66479W        W37079   9.034  20.163   1.371
66480W        W37080  34.398  38.928  13.512
66481W        W37081  26.981   4.330  13.547
66482W        W37082  36.983  22.245  11.118
66483W        W37083  17.632  29.472   0.191
66484W        W37084  27.650  25.154  11.515
66485W        W37085  34.368  11.886   0.928
66486W        W37086  19.496   0.465  12.971
66487W        W37087  37.610  21.246  12.958
66488W        W37088   2.189  21.663   0.165
66489W        W37089  20.961  20.957  11.200
66490W        W37090  21.706  40.959   4.530
66491W        W37091  43.699  44.279  11.079
66492W        W37092  17.255  32.848  11.117
66493W        W37093  18.200   7.149   2.300
66494W        W37094  27.503  27.419  12.981
66495W        W37095  39.101  12.217   4.510
66496W        W37096  15.831  39.633  12.995
66497W        W37097  21.972  17.692  13.790
66498W        W37098  43.525  44.418   4.619
66499W        W37099   2.882   7.850   0.532
66500W        W37100  15.545  24.538   0.845
66501W        W37101  37.461  16.735  11.674
66502W        W37102  39.771  29.994   2.301
66503W        W37103  22.120  42.335  10.773
66504W        W37104  43.230  31.598  14.761
66505W        W37105  35.511   6.925   1.096
66506W        W37106   9.295  19.524  12.561
66507W        W37107  19.751  17.111   4.613
66508W        W37108  41.219   7.225  11.142
66509W        W37109   9.749  42.469   4.517
66510W        W37110   8.277  42.782   1.239
66511W        W37111  43.819   9.803   2.789
66512W        W37112  29.207  36.652  11.321
66513W        W37113  20.209  15.268   2.350
66514W        W37114  15.280  33.433  13.987
66515W        W37115   3.507  33.424  14.520
66516W        W37116  34.340   9.709  13.926
66517W        W37117  42.324  20.165  11.912
66518W        W37118  30.688  44.966   3.741
66519W        W37119  31.881   3.509   2.649
66520W        W37120  35.592  34.162  14.413
66521W        W37121  29.668  18.890   0.922
66522W        W37122  11.417  14.038  11.011
66523W        W37123  36.518   1.829  13.957
66524W        W37124   7.134  18.990   1.887
66525W        W37125  26.180   9.604  14.968
66526W        W37126  39.809  39.688   0.298
66527W        W37127   8.307  29.674   0.726
66528W        W37128  17.234   2.781   1.643
66529W        W37129   0.288  21.305   1.416
66530W        W37130   0.413  20.634  12.870
66531W        W37131  30.477  36.796  13.872
66532W        W37132  32.153  18.672  10.965
66533W        W37133  15.682  44.382  11.625
66534W        W37134  14.957   8.322   4.043
66535W        W37135  31.801  23.634  14.928
66536W        W37136  30.197  38.897  13.868
66537W        W37137  22.275  40.332   3.668
66538W        W37138  39.925  10.185   2.460
66539W        W37139  22.532  35.520  14.825
66540W        W37140  40.917   8.928   2.403
66541W        W37141  42.058  43.827   1.269
66542W        W37142  19.347   0.306  12.063
66543W        W37143  28.617  43.759  13.936
66544W        W37144   4.577  28.932  14.455
66545W        W37145  29.639   8.214   3.715
66546W        W37146  38.224  17.676   2.419
66547W        W37147  37.780   3.868   3.598
66548W        W37148   1.529  13.133  11.447
66549W        W37149  38.857  29.193   3.432
66550W        W37150   0.871  35.896   2.341
66551W        W37151   4.315  37.071   4.418
66552W        W37152   2.192  22.907   2.355
66553W        W37153  20.371  40.892   1.289
66554W        W37154   5.286   8.757   4.938
66555W        W37155  10.304  38.449   3.406
66556W        W37156  21.658  42.921   4.658
66557W        W37157   2.246  13.208  12.321
66558W        W37158  41.613  34.507  12.480
66559W        W37159  42.437  40.251   0.297
66560W        W37160  38.155  19.160   0.368
66561W        W37161   3.809  24.245   2.223
66562W        W37162  21.236  42.567  11.187
66563W        W37163  44.565  41.082  11.926
66564W        W37164   7.504  39.393   0.480
66565W        W37165  15.417   5.033   3.677
66566W        W37166   9.487   5.931   3.677
66567W        W37167   5.254   8.613   1.371
66568W        W37168  28.009  41.435   2.445
66569W        W37169  10.651   5.805   3.475
66570W        W37170  22.576   3.362   1.707
66571W        W37171  33.930   3.759  13.361
66572W        W37172  41.441  13.475   2.587
66573W        W37173   8.807  30.948   3.116
66574W        W37174  11.022  37.231   1.917
66575W        W37175  25.228   5.655  14.487
66576W        W37176  30.166  13.614   2.832
66577W        W37177   4.571  28.130  12.379
66578W        W37178  44.654   3.122  13.832
66579W        W37179  44.319  29.153  14.189
66580W        W37180  10.272   0.268   2.982
66581W        W37181   3.898  44.442   1.654
66582W        W37182  22.650   8.309   0.003
66583W        W37183   8.262  40.016  12.969
66584W        W37184  44.328   6.328   3.550
66585W        W37185  19.212  32.943  14.027
66586W        W37186  36.510  25.198  14.894
66587W        W37187   7.814  21.697   0.295
66588W        W37188  15.275  26.689  12.379
66589W        W37189  44.800  20.264  13.989
66590W        W37190  21.169  23.470   0.897
66591W        W37191   5.983  10.374  11.712
66592W        W37192  43.963   9.676  12.042
66593W        W37193  27.146  41.851  13.487
66594W        W37194  28.095  24.618   0.698
66595W        W37195  43.098  10.085  14.855
66596W        W37196  17.296   5.784  12.284
66597W        W37197  29.637  27.794  13.486
66598W        W37198  44.696  12.170   2.322
66599W        W37199   1.263   3.481   4.193
66600W        W37200  31.409  36.857  13.469
66601W        W37201   9.683  16.280   4.201
66602W        W37202   5.856  20.789   0.919
66603W        W37203  26.986  34.488   1.823
66604W        W37204  42.523  40.271  12.987
66605W        W37205  36.621  16.814   3.208
66606W        W37206  12.695   5.260  10.638
66607W        W37207   9.109  44.837   4.526
66608W        W37208  31.442  20.781   0.064
66609W        W37209  10.711  20.210  13.737
66610W        W37210  11.926  41.294   1.267
66611W        W37211  36.397   0.971  12.444
66612W        W37212  20.249  17.253   1.896
66613W        W37213  38.599  32.504  14.614
66614W        W37214  35.899  11.090   4.346
66615W        W37215   2.397  14.172  14.343
66616W        W37216  22.147  37.700   3.024
66617W        W37217  25.481   9.436  13.533
66618W        W37218  36.255  31.967   1.347
66619W        W37219  10.709  36.584  11.469
66620W        W37220   7.621  23.613  13.312
66621W        W37221   4.720  14.558   0.983
66622W        W37222  40.006   7.230   1.362
66623W        W37223  22.501  14.178  12.160
66624W        W37224  10.884   4.211  12.828
66625W        W37225  23.180  25.537   2.329
66626W        W37226  41.294  28.980   4.242
66627W        W37227  44.975  44.554  12.816
66628W        W37228  18.839  16.794   2.899
66629W        W37229  34.932  24.619  13.624
66630W        W37230  27.188  44.009  11.934
66631W        W37231   5.323  43.970  14.716
66632W        W37232  18.621   7.417  10.681
66633W        W37233  18.729  22.117  11.134
66634W        W37234  11.891   1.028  13.011
66635W        W37235  21.514  30.139  12.563
66636W        W37236  41.455  44.337   1.984
66637W        W37237  32.459  38.302  12.073
66638W        W37238  10.164  27.476   2.798
66639W        W37239  23.979  44.437   1.882
66640W        W37240   8.702  13.246   1.773
66641W        W37241  41.418   9.189   4.220
66642W        W37242  21.387   2.064   3.906
66643W        W37243  28.118  23.548   0.722
66644W        W37244  35.834  23.048  13.985
66645W        W37245  28.073  41.471  13.868
66646W        W37246  20.333  25.671   4.022
66647W        W37247  37.881  23.192  11.704
66648W        W37248   3.437  40.310  11.813
66649W        W37249  15.053  10.751   2.149
66650W        W37250  21.795  11.310   4.825
66651W        W37251  21.412  33.077  13.442
66652W        W37252  31.081  44.264  12.391
66653W        W37253  22.925  44.834   4.351
66654W        W37254  16.246   4.399   3.197
66655W        W37255  11.665  33.579   4.343
66656W        W37256  43.444  32.927  11.458
66657W        W37257  31.138  41.011   3.528
66658W        W37258   4.933  20.749   1.055
66659W        W37259   6.744  14.280  11.603
66660W        W37260   8.960  11.153   0.522
66661W        W37261  38.181  16.997  11.858
66662W        W37262  41.553   5.455   9.794
66663W        W37263  14.997  27.196   2.453
66664W        W37264  23.501  23.682  13.911
66665W        W37265  25.238  19.662   3.617
66666W        W37266  21.008  17.870   0.477
66667W        W37267  27.098  20.922  11.070
66668W        W37268  27.104  26.039   3.021
66669W        W37269  39.628  14.181   3.555
66670W        W37270  21.422   2.789   3.484
66671W        W37271   7.337  25.960   0.298
66672W        W37272  20.156  10.574   0.294
66673W        W37273  37.684  34.930  11.077
66674W        W37274  21.259  33.637   1.386
66675W        W37275  41.303  30.459  14.884
66676W        W37276  41.846  29.868  13.652
66677W        W37277   1.349  20.330   0.384
66678W        W37278  37.037  34.596  12.121
66679W        W37279   3.936  37.930  12.108
66680W        W37280  34.658  27.221  13.064
66681W        W37281   4.196  26.891   4.840
66682W        W37282   2.869  27.593  12.330
66683W        W37283  38.015  33.334   3.679
66684W        W37284  38.784   8.883   1.875
66685W        W37285  44.616   5.420   4.580
66686W        W37286   8.223  39.248  10.758
66687W        W37287   7.657  38.307  12.587
66688W        W37288  43.389   2.291  14.938
66689W        W37289  41.301  15.339   3.739
66690W        W37290  42.953   3.980   4.139
66691W        W37291  15.812  12.068   1.607
66692W        W37292   0.784   4.175  10.775
66693W        W37293   0.500   3.928   1.961
66694W        W37294  17.961  17.760   2.180
66695W        W37295  32.651  44.217  14.459
66696W        W37296  12.116   2.834   4.254
66697W        W37297  16.214  28.951  10.684
66698W        W37298  30.142  26.650  11.146
66699W        W37299   4.169  21.045  14.283
66700W        W37300   9.542   9.588  11.750
66701W        W37301   7.947  39.276  12.463
66702W        W37302  18.656   7.393  11.178
66703W        W37303  22.568  33.514  14.091
66704W        W37304  10.855  25.433   4.379
66705W        W37305  13.877  32.151  11.766
66706W        W37306  39.976  35.047   3.608
66707W        W37307  30.242   5.889  12.529
66708W        W37308   3.249   7.700   4.554
66709W        W37309  43.464   6.180  14.798
66710W        W37310  33.981  10.882  11.929
66711W        W37311  14.820  35.030   0.773
66712W        W37312  13.134  41.785  14.316
66713W        W37313  41.787  40.392   0.072
66714W        W37314  38.065  43.293  12.948
66715W        W37315  31.934  43.360   4.862
66716W        W37316   3.724  27.579  12.356
66717W        W37317   8.911  39.780   2.671
66718W        W37318  34.578  27.932   1.257
66719W        W37319  43.418   0.030   2.730
66720W        W37320  44.027  19.120   2.585
66721W        W37321   6.326  42.030   3.483
66722W        W37322  41.266  28.996   1.729
66723W        W37323  33.281  25.566  10.467
66724W        W37324  21.360  35.026   3.960
66725W        W37325   3.824  37.496   0.773
66726W        W37326  22.543  12.160  11.698
66727W        W37327   4.286  28.674  13.608
66728W        W37328  42.214  33.926   0.351
66729W        W37329  31.794  16.766  14.816
66730W        W37330  15.091  26.178   3.555
66731W        W37331  17.365  40.705   2.734
66732W        W37332  37.180   4.383  14.995
66733W        W37333  13.816  10.083  11.935
66734W        W37334   8.929   1.679  10.680
66735W        W37335  42.621  30.667   4.199
66736W        W37336  18.363   7.973  12.628
66737W        W37337  31.042   3.376  12.454
66738W        W37338  38.897  13.122   1.862
66739W        W37339   9.269  44.012   0.576
66740W        W37340   9.921  12.693   1.832
66741W        W37341  40.278   1.200  14.319
66742W        W37342   3.324  37.645   3.464
66743W        W37343  28.941  39.938  13.738
66744W        W37344  24.059  19.559  11.951
66745W        W37345  17.623   5.315  13.567
66746W        W37346   5.684  33.420  12.849
66747W        W37347  31.653  41.309  14.803
66748W        W37348  41.533  33.500   2.620
66749W        W37349   8.143  44.748  12.119
66750W        W37350   6.912  38.400  10.810
66751W        W37351  24.465  23.488  13.938
66752W        W37352  17.237  42.232  11.769
66753W        W37353  18.287  18.395  13.789
66754W        W37354   8.945   4.836   2.504
66755W        W37355  16.255  24.037   0.932
66756W        W37356  15.788  23.587   3.382
66757W        W37357  17.421  20.534  13.402
66758W        W37358   7.718  37.559  14.336
66759W        W37359  36.843  44.288  14.415
66760W        W37360  16.212   2.775   3.641
66761W        W37361  19.580   7.653   2.195
66762W        W37362  34.813  34.845   1.744
66763W        W37363  35.658   8.289   3.458
66764W        W37364  27.443  18.512   1.821
66765W        W37365  27.457  24.376  13.597
66766W        W37366  16.289  29.821   1.940
66767W        W37367   6.537  35.010  13.549
66768W        W37368  11.845   8.961   3.578
66769W        W37369  41.693  41.278  13.925
66770W        W37370  38.375  24.139   1.320
66771W        W37371   2.425  28.686   3.795
66772W        W37372  43.459  27.301   1.623
66773W        W37373  22.625  39.728  13.320
66774W        W37374  25.784   2.183   3.346
66775W        W37375  43.719  27.507   1.224
66776W        W37376   3.926  43.732  12.620
66777W        W37377   5.398   3.200  12.490
66778W        W37378  31.934  12.540   4.563
66779W        W37379  29.112  25.726  14.020
66780W        W37380   7.911  41.263   3.244
66781W        W37381  30.017   9.591   1.292
66782W        W37382  42.358  26.205   0.224
66783W        W37383  25.404  18.245   3.593
66784W        W37384  41.544  24.746  14.103
66785W        W37385  23.053  26.672  14.892
66786W        W37386  30.173   9.271   0.874
66787W        W37387   6.202  42.350  11.138
66788W        W37388  23.544   9.735  11.249
66789W        W37389  10.229  32.394  13.015
66790W        W37390   5.445  22.556  12.904
66791W        W37391   9.224  18.468  12.668
66792W        W37392   9.988   1.320   1.630
66793W        W37393  11.894  30.161   1.503
66794W        W37394  30.666  37.080  13.465
66795W        W37395  40.803  31.865  11.235
66796W        W37396  28.237  44.237  12.637
66797W        W37397  40.809   8.965  10.618
66798W        W37398  12.475  37.709  14.831
66799W        W37399  15.539  34.212  14.246
66800W        W37400  21.655   7.790  14.682
66801W        W37401  42.040  17.288  14.314
66802W        W37402  30.344  42.760  11.591
66803W        W37403  24.915  14.015  14.770
66804W        W37404   4.963  26.049   1.397
66805W        W37405  33.043  34.467  14.417
66806W        W37406   7.085  33.829   3.189
66807W        W37407  22.697  27.355  13.113
66808W        W37408  28.485  37.820  14.777
66809W        W37409   6.757   3.884  10.463
66810W        W37410   5.695   9.820   4.445
66811W        W37411  34.709   2.463   4.208
66812W        W37412   5.329  40.270   0.321
66813W        W37413  16.326  38.380  14.008
66814W        W37414  23.608  24.092  10.713
66815W        W37415  10.758  18.955   3.897
66816W        W37416  22.506  19.076   4.221
66817W        W37417  41.351  20.927   0.486
66818W        W37418  40.068   0.223   1.664
66819W        W37419  14.052  20.510  10.694
66820W        W37420  44.584  23.192  14.460
66821W        W37421  28.193  23.989  14.357
66822W        W37422  30.114  42.180   0.450
66823W        W37423  17.832  30.065   2.351
66824W        W37424  33.207   1.714  14.920
66825W        W37425  26.665   4.281  12.575
66826W        W37426  24.010  37.828  13.930
66827W        W37427  12.235  28.576   2.665
66828W        W37428  17.115  27.648  12.002
66829W        W37429  13.310  36.675   2.247
66830W        W37430  32.144   1.922   1.985
66831W        W37431  13.197  22.955   4.072
66832W        W37432  14.648   1.297   3.422
66833W        W37433   4.254  43.044   3.331
66834W        W37434  10.600  21.714  14.524
66835W        W37435  19.860  21.253  11.354
66836W        W37436  26.170  18.719   3.088
66837W        W37437   6.653  22.238  11.133
66838W        W37438   3.723  27.019  12.491
66839W        W37439  12.285  44.147   4.398
66840W        W37440  30.681   2.565   0.644
66841W        W37441  40.389  13.318   3.248
66842W        W37442   6.636  12.325   2.761
66843W        W37443  40.808  37.619   3.295
66844W        W37444   0.799  22.601   4.082
66845W        W37445   8.204   6.006  13.540
66846W        W37446  30.196  22.024   0.043
66847W        W37447  14.819  40.589  13.587
66848W        W37448  40.015  14.769  11.083
66849W        W37449  44.076  20.947   1.783
66850W        W37450  37.409  24.221  12.443
66851W        W37451  44.420  37.153  14.802
66852W        W37452  12.612  29.523  11.214
66853W        W37453   1.411   0.299   2.580
66854W        W37454   8.141  17.500   2.829
66855W        W37455  32.602  43.883   3.245
66856W        W37456  32.375  16.854   0.701
66857W        W37457  41.525  43.783  14.744
66858W        W37458  33.107   2.367   4.403
66859W        W37459  29.595   6.851  14.834
66860W        W37460  13.641  24.962   1.803
66861W        W37461  27.487  13.732  14.973
66862W        W37462  29.662  27.108   1.761
66863W        W37463   9.799   4.319  13.960
66864W        W37464  18.351  36.870  12.017
66865W        W37465   3.488   0.085  12.931
66866W        W37466  33.413  36.714  10.831
66867W        W37467  11.705  17.075   3.217
66868W        W37468  21.483  13.322  11.586
66869W        W37469  16.034  43.887  11.044
66870W        W37470   5.390  28.197  13.952
66871W        W37471  26.728  18.718  10.788
66872W        W37472  38.154  43.011   2.909
66873W        W37473  18.740  31.456   2.823
66874W        W37474  18.647  32.455   4.872
66875W        W37475   0.676  44.961   4.638
66876W        W37476  12.719   1.281   4.631
66877W        W37477  40.277  40.577   3.169
66878W        W37478  29.090  25.194   3.639
66879W        W37479  20.599   2.661   3.109
66880W        W37480   8.432  17.552   4.987
66881W        W37481  19.779  15.165  14.398
66882W        W37482   5.333  10.531  14.983
66883W        W37483  27.739  11.117  13.998
66884W        W37484   9.167  37.982   4.702
66885W        W37485  16.995  42.879  12.921
66886W        W37486  29.921  23.614   1.639
66887W        W37487  43.297   2.913   4.627
66888W        W37488  31.127  41.573  12.189
66889W        W37489  12.786   9.369   0.958
66890W        W37490  21.969  43.860  13.546
66891W        W37491  16.736  29.857   1.274
66892W        W37492  35.128   3.376   3.292
66893W        W37493  38.468  39.065  11.550
66894W        W37494  12.830   7.721   2.917
66895W        W37495  21.632  14.376   0.958
66896W        W37496  10.691   6.161   1.255
66897W        W37497  44.201  32.836  14.553
66898W        W37498  44.336  14.357  14.412
66899W        W37499   6.930  32.968   0.810
66900W        W37500   5.666  39.505  13.960
66901W        W37501  21.512   6.110  12.539
66902W        W37502  31.875  21.940   3.629
66903W        W37503   6.384  37.524  11.942
66904W        W37504  36.132  14.845  11.381
66905W        W37505  36.005   2.389   3.859
66906W        W37506  21.669  33.124   2.718
66907W        W37507  29.468  36.606   1.884
66908W        W37508   2.367  16.751  10.735
66909W        W37509  35.971  38.640   9.883
66910W        W37510   4.951  24.593  14.068
66911W        W37511  31.359  14.584   0.177
66912W        W37512  20.189  44.019  13.415
66913W        W37513  21.940  29.922   0.271
66914W        W37514  34.336  37.109   2.372
66915W        W37515  12.626  37.374   0.793
66916W        W37516  12.633  13.268  11.943
66917W        W37517  35.159  21.367  10.860
66918W        W37518  44.393  23.168  13.492
66919W        W37519  33.268  11.335   1.471
66920W        W37520  21.311  12.226   2.067
66921W        W37521  15.074   4.406   4.849
66922W        W37522  10.132   1.713  13.507
66923W        W37523  33.032  20.643  12.465
66924W        W37524  34.956   5.190   0.284
66925W        W37525  17.801  36.500   0.359
66926W        W37526  38.356  41.933  13.059
66927W        W37527  41.109   8.261   2.314
66928W        W37528  35.465   4.269   4.949
66929W        W37529   7.677  35.914  12.052
66930W        W37530  30.194  16.068  12.063
66931W        W37531  24.977   8.298  10.552
66932W        W37532  24.166  15.422   1.481
66933W        W37533  27.525   7.672   2.390
66934W        W37534  30.357  43.752  13.557
66935W        W37535  39.789  41.820   2.770
66936W        W37536  41.370  11.849  11.428
66937W        W37537  21.494  10.909   4.580
66938W        W37538   1.641  40.616  12.876
66939W        W37539  22.270   4.163   0.427
66940W        W37540   2.408  44.253   1.120
66941W        W37541  37.943  34.449  14.157
66942W        W37542  26.677   2.405   3.146
66943W        W37543  32.908  34.631   4.685
66944W        W37544  26.146   3.897  13.005
66945W        W37545  28.982  38.446   0.811
66946W        W37546  23.625  31.641  10.544
66947W        W37547  22.266   0.195  14.549
66948W        W37548  13.167  28.336  14.015
66949W        W37549   5.184  17.128  11.567
66950W        W37550   7.893   3.862  11.534
66951W        W37551  10.125  25.110  13.469
66952W        W37552   0.362  38.485  12.598
66953W        W37553  10.819  31.489  11.504
66954W        W37554  25.734  36.413  14.774
66955W        W37555  12.961  19.833  12.562
66956W        W37556  17.170  19.054  12.901
66957W        W37557  33.635   4.477  12.943
66958W        W37558  26.472  23.127   1.819
66959W        W37559  25.023  16.064  11.852
66960W        W37560  19.228  27.502   1.182
66961W        W37561  39.676   3.784   0.204
66962W        W37562   4.842   8.419   4.329
66963W        W37563  31.012  34.915   0.027
66964W        W37564  34.154  14.094  13.895
66965W        W37565  29.301  27.136  14.588
66966W        W37566  20.734  19.291   4.444
66967W        W37567   3.212   9.699  12.140
66968W        W37568  15.773  32.167  14.803
66969W        W37569  13.691  17.571  11.261
66970W        W37570  20.178  20.561  12.072
66971W        W37571  42.968  28.541   1.692
66972W        W37572  13.342  24.016  11.118
66973W        W37573  43.954  40.411   5.020
66974W        W37574  32.915  38.576  10.655
66975W        W37575  18.678  20.413   3.444
66976W        W37576  43.829  27.830   3.499
66977W        W37577  20.884   4.384  13.857
66978W        W37578   4.235   0.369   1.203
66979W        W37579  23.504  12.867   3.072
66980W        W37580  31.332  17.674   3.954
66981W        W37581  36.841  28.165   0.067
66982W        W37582  27.538  21.624   0.262
66983W        W37583  34.268  27.048   0.919
66984W        W37584  41.149  27.105  14.399
66985W        W37585   6.761  30.351  12.457
66986W        W37586  25.615  39.008  10.971
66987W        W37587  33.856  31.799  14.887
66988W        W37588   3.689  29.849   2.173
66989W        W37589  11.175  14.915  13.541
66990W        W37590  37.179  24.114  14.329
66991W        W37591  29.036   2.214   4.705
66992W        W37592  17.938   1.317   4.648
66993W        W37593  42.340  14.126   1.169
66994W        W37594  18.192  21.209   2.848
66995W        W37595  19.803  21.198  10.494
66996W        W37596  40.858  27.177  13.402
66997W        W37597  42.181  18.109   1.080
66998W        W37598  19.172   5.361  12.463
66999W        W37599   3.875  15.027  14.297
67000W        W37600   8.824  41.644  12.914
67001W        W37601  42.006   3.840  14.979
67002W        W37602  15.269  16.157  14.467
67003W        W37603  30.373  13.550  14.922
67004W        W37604  25.703  39.187  11.775
67005W        W37605  27.681  33.976   2.871
67006W        W37606   1.095  42.958  12.037
67007W        W37607  21.025  22.640  13.840
67008W        W37608  34.130  12.161   0.523
67009W        W37609   5.782  36.767  14.763
67010W        W37610   8.355  13.861   1.821
67011W        W37611  13.227  28.441   1.503
67012W        W37612  11.788  24.974  11.642
67013W        W37613  27.680  31.161   2.827
67014W        W37614  15.607  14.649   1.154
67015W        W37615  11.253  41.723  10.968
67016W        W37616  25.513  19.949  11.425
67017W        W37617  10.081  44.348   0.515
67018W        W37618  20.017  20.025  10.662
67019W        W37619  32.819   1.485   0.166
67020W        W37620  44.716  42.008   0.261
67021W        W37621  42.872  40.077  13.859
67022W        W37622  40.423  41.592   0.517
67023W        W37623  17.470  17.869   3.807
67024W        W37624  41.109  26.390   2.860
67025W        W37625   7.789   4.585   5.183
67026W        W37626   7.305  12.778   2.413
67027W        W37627  30.482   2.985   3.000
67028W        W37628  31.178  27.036  13.503
67029W        W37629  41.789   5.386  12.096
67030W        W37630  38.704   0.566  12.733
67031W        W37631   0.241  17.860   0.305
67032W        W37632  28.667  37.852   2.839
67033W        W37633   4.470  31.544   1.281
67034W        W37634  39.275  38.894   4.353
67035W        W37635   1.723   0.803  14.065
67036W        W37636  42.989  37.432   1.422
67037W        W37637   0.837  33.930  12.806
67038W        W37638  14.740  41.811  14.945
67039W        W37639  28.493  43.688   4.241
67040W        W37640   0.519  35.140  11.951
67041W        W37641  20.431  37.295   3.781
67042W        W37642  24.181  32.655   1.234
67043W        W37643  42.838   7.470  13.352
67044W        W37644  37.701  33.982   4.070
67045W        W37645  13.845  23.450   2.350
67046W        W37646   4.291  44.060   3.242
67047W        W37647  30.053   7.616   1.566
67048W        W37648  17.802  42.108   2.331
67049W        W37649  10.512  33.698  11.188
67050W        W37650  11.876  29.701  14.280
67051W        W37651  44.254   4.942   0.907
67052W        W37652  31.060  44.483   1.051
67053W        W37653  42.735   0.937  12.244
67054W        W37654   8.960  27.599  12.486
67055W        W37655  15.902   8.628   9.778
67056W        W37656  40.921  21.040   1.195
67057W        W37657  26.270  36.385   4.253
67058W        W37658  14.089  26.009   3.779
67059W        W37659  11.042  25.616   3.678
67060W        W37660   5.399  27.791   3.052
67061W        W37661  27.933  37.965  12.444
67062W        W37662  44.510  39.908   2.131
67063W        W37663  27.590  35.930   3.624
67064W        W37664   8.284  10.295  11.215
67065W        W37665  31.899  34.342  14.241
67066W        W37666  44.967  36.026   3.955
67067W        W37667  24.461   8.111  13.041
67068W        W37668   8.157  18.407  14.293
67069W        W37669  21.264   4.510   1.779
67070W        W37670  28.738  20.189  14.450
67071W        W37671  22.971  14.373   0.790
67072W        W37672  32.367  22.170  12.485
67073W        W37673  34.352  12.347   3.710
67074W        W37674  13.121  25.846  13.539
67075W        W37675  19.608  25.029  11.588
67076W        W37676   1.850  38.452   4.024
67077W        W37677  20.947  24.189  13.798
67078W        W37678  29.773  15.736   2.117
67079W        W37679   8.019  16.032   0.028
67080W        W37680  20.649  31.520   3.758
67081W        W37681  44.631  28.806  10.812
67082W        W37682  25.013   2.192  12.665
67083W        W37683  22.520   8.749   4.108
67084W        W37684  43.882  32.735  12.070
67085W        W37685   8.917  27.909   1.764
67086W        W37686  19.982  31.876  10.791
67087W        W37687  10.842  35.832  12.680
67088W        W37688  31.371  41.882   0.815
67089W        W37689  16.599  29.623  11.374
67090W        W37690   2.456  28.666  12.842
67091W        W37691   2.207  43.308  14.323
67092W        W37692  24.730  23.028  13.885
67093W        W37693  37.020  28.405   4.077
67094W        W37694  44.974  33.450   2.228
67095W        W37695  34.282  11.753   1.771
67096W        W37696  28.036  32.448  14.583
67097W        W37697  37.377  20.365   0.931
67098W        W37698  10.901  28.471   0.384
67099W        W37699  38.555  20.133   2.646
67100W        W37700  38.085  11.576   4.430
67101W        W37701  10.264  43.067  12.438
67102W        W37702   7.417  31.784   3.734
67103W        W37703  29.304  41.798  12.515
67104W        W37704  20.177  27.572  11.676
67105W        W37705  39.998  23.730  11.658
67106W        W37706  38.117  30.395  11.770
67107W        W37707  38.589  38.975  13.487
67108W        W37708  42.935   1.929  10.742
67109W        W37709  14.544  12.319   4.127
67110W        W37710   9.792   3.518  11.070
67111W        W37711  35.612   4.404   0.438
67112W        W37712  40.790  26.715   1.484
67113W        W37713  37.459   8.129  10.898
67114W        W37714  18.299  31.085   0.946
67115W        W37715  35.759   4.987  12.386
67116W        W37716  36.399  37.490   4.642
67117W        W37717  36.287   4.391  11.095
67118W        W37718   3.757  34.036  13.514
67119W        W37719  31.122  39.406   1.411
67120W        W37720  34.937  12.277  10.788
67121W        W37721  16.603  23.056   4.182
67122W        W37722  23.465   3.453  11.622
67123W        W37723  41.108  21.610   3.299
67124W        W37724  36.871  30.885  12.182
67125W        W37725  29.616  26.520   4.296
67126W        W37726   1.334  42.098  13.870
67127W        W37727  26.123   8.822   3.100
67128W        W37728  23.665  29.004   3.388
67129W        W37729  42.775   2.182  13.576
67130W        W37730  23.069  17.899   1.370
67131W        W37731  31.627  29.476   3.389
67132W        W37732   3.368  16.639  12.571
67133W        W37733  13.757  18.692   2.719
67134W        W37734  39.748  41.823   3.675
67135W        W37735  28.117   2.429  14.014
67136W        W37736   7.882  44.497   0.448
67137W        W37737  15.744  28.797  10.985
67138W        W37738  10.171  23.572  10.459
67139W        W37739  25.039  17.767  14.949
67140W        W37740   6.859  22.435  14.420
67141W        W37741  44.670  32.955  14.383
67142W        W37742   0.902   0.999   1.521
67143W        W37743  27.055  28.890  12.476
67144W        W37744  21.869  43.459  13.858
67145W        W37745  19.677  27.848   4.963
67146W        W37746  31.754  30.394  10.047
67147W        W37747  37.353  19.609  11.123
67148W        W37748   8.176  21.679  10.679
67149W        W37749  10.230  41.941   2.801
67150W        W37750  14.139  40.256  10.500
67151W        W37751  41.812  15.864   5.067
67152W        W37752  37.226  42.565  11.267
67153W        W37753   3.499  41.767   3.188
67154W        W37754   7.940   1.101   1.374
67155W        W37755  30.963   9.148  12.993
67156W        W37756   7.528   8.597  11.072
67157W        W37757  17.211   4.243  12.738
67158W        W37758  11.792  42.414  13.517
67159W        W37759  14.232  40.782  14.376
67160W        W37760  10.747  41.364  10.591
67161W        W37761  29.089  10.680   4.685
67162W        W37762  27.534  38.026  13.415
67163W        W37763  32.193  12.526  11.464
67164W        W37764  42.309  35.923  12.319
67165W        W37765  29.864  44.516   1.712
67166W        W37766  24.241  20.444   4.218
67167W        W37767  21.597  22.629   0.060
67168W        W37768  24.136  24.212   1.255
67169W        W37769  37.458  30.457  11.130
67170W        W37770  18.769  39.333  14.500
67171W        W37771  35.133  13.769   3.321
67172W        W37772  22.574  39.503  13.811
67173W        W37773   6.906  42.031   1.847
67174W        W37774  24.519  13.821   3.382
67175W        W37775  43.912  42.272   4.272
67176W        W37776  44.187   1.667   1.793
67177W        W37777  17.839  25.601   0.272
67178W        W37778  17.800  39.543   0.964
67179W        W37779  17.730   9.371  11.091
67180W        W37780  31.455  21.007  10.634
67181W        W37781  40.160  18.979   3.176
67182W        W37782   4.855  12.305  12.085
67183W        W37783  26.343   2.233  11.223
67184W        W37784  28.381   7.737   0.293
67185W        W37785   5.738  10.835  10.410
67186W        W37786  16.402   5.220   4.764
67187W        W37787  27.831   9.851   3.625
67188W        W37788  19.073  13.586  12.983
67189W        W37789  21.859  11.687   3.092
67190W        W37790  36.376  36.164  12.564
67191W        W37791  24.906  11.243  14.085
67192W        W37792   1.951  41.864   2.026
67193W        W37793  40.037  32.211  11.011
67194W        W37794   8.197  12.432  12.448
67195W        W37795  23.074   5.977  14.510
67196W        W37796  34.708   4.265   1.748
67197W        W37797  10.519   1.739  12.067
67198W        W37798  13.290  24.215   0.394
67199W        W37799  36.903  34.784  13.403
67200W        W37800  31.606  14.378  10.643
67201W        W37801  15.663  17.549  13.076
67202W        W37802  25.671  24.445  12.976
67203W        W37803  21.904  21.694  12.578
67204W        W37804  36.030  37.380   1.448
67205W        W37805  42.312   7.774   4.305
67206W        W37806  33.073  31.987   3.846
67207W        W37807  30.625  12.956   3.978
67208W        W37808  13.262  36.520  13.370
67209W        W37809  13.134  34.876  10.871
67210W        W37810   4.941  37.932  14.504
67211W        W37811   5.919  38.918   1.040
67212W        W37812   2.281   7.797  13.525
67213W        W37813  42.619  34.243   4.115
67214W        W37814  31.919  39.948   0.879
67215W        W37815   1.354  29.196   4.554
67216W        W37816   2.786   5.898   0.746
67217W        W37817   8.712   3.535   2.833
67218W        W37818  12.867  11.353   0.970
67219W        W37819  20.811  29.571   3.811
67220W        W37820  13.222  27.925   4.067
67221W        W37821  31.552  28.660   0.528
67222W        W37822   7.880  43.469   3.659
67223W        W37823  23.538  34.871  14.417
67224W        W37824  42.996   6.212  12.903
67225W        W37825   9.498  23.814   4.190
67226W        W37826  19.042   7.727   3.410
67227W        W37827  34.888  40.810  12.032
67228W        W37828  41.531  36.526  11.180
67229W        W37829  42.449   2.926  13.867
67230W        W37830  41.699  16.299  12.899
67231W        W37831  31.099   4.925   0.831
67232W        W37832  27.983  34.827   1.826
67233W        W37833  19.571  19.141  11.588
67234W        W37834  10.898   5.274  13.006
67235W        W37835  22.861  14.350   2.876
67236W        W37836  31.883   2.338   2.122
67237W        W37837  31.387  39.848   2.333
67238W        W37838   9.590  40.300  14.343
67239W        W37839  27.232  32.778   2.575
67240W        W37840   0.214  13.081  14.347
67241W        W37841   9.361  34.263   2.780
67242W        W37842  23.527  25.474  11.351
67243W        W37843  11.885   5.826   0.748
67244W        W37844  34.658  28.990  11.196
67245W        W37845  15.364   6.185   1.777
67246W        W37846  23.425  24.502  14.297
67247W        W37847  23.023  37.763  12.452
67248W        W37848  30.904   0.528  13.431
67249W        W37849   1.008  12.428   1.351
67250W        W37850  28.527  42.273  11.683
67251W        W37851   8.869  19.113   1.354
67252W        W37852  10.738   5.041  14.588
67253W        W37853   9.564  27.843  10.617
67254W        W37854  41.545   1.332   2.401
67255W        W37855  21.590  14.826  11.503
67256W        W37856  39.271  13.833   2.829
67257W        W37857   7.354   9.581   1.682
67258W        W37858  19.090  33.290   0.454
67259W        W37859  29.295   4.905  14.255
67260W        W37860  40.370  20.688  14.333
67261W        W37861  28.277  17.660   3.915
67262W        W37862  18.104  40.719  11.546
67263W        W37863  21.968  31.457   2.285
67264W        W37864   2.939   1.439  13.350
67265W        W37865  38.776   3.285   0.831
67266W        W37866  11.704   2.734  11.370
67267W        W37867  22.750  30.371   0.269
67268W        W37868  44.803  26.392  13.109
67269W        W37869  37.472  25.120   2.208
67270W        W37870  44.056  31.568   4.940
67271W        W37871   3.454   0.988  13.481
67272W        W37872  27.923  41.834   2.119
67273W        W37873  20.517  13.160   3.250
67274W        W37874   1.976   6.863   2.295
67275W        W37875  32.102  42.436   3.063
67276W        W37876  18.934  15.741   0.953
67277W        W37877   1.988  29.149   1.659
67278W        W37878  20.851   6.158   1.236
67279W        W37879  13.773  34.552   3.071
67280W        W37880  43.823  20.627   1.316
67281W        W37881   6.982  14.226  12.828
67282W        W37882  16.027   3.224   2.405
67283W        W37883   6.790   8.133  11.626
67284W        W37884  41.453   5.198  12.624
67285W        W37885   3.459  34.960  13.352
67286W        W37886  39.994  12.907   1.215
67287W        W37887  25.285  34.042  11.084
67288W        W37888  34.126  18.603   3.612
67289W        W37889  43.946   9.323  13.440
67290W        W37890  26.445  25.457  12.878
67291W        W37891  27.525   7.790   1.879
67292W        W37892  11.554  26.773  13.973
67293W        W37893  38.206   0.900  10.537
67294W        W37894  40.572   8.855  14.254
67295W        W37895   7.381  20.015   0.234
67296W        W37896   2.045  24.042  13.580
67297W        W37897  42.327  10.266   2.789
67298W        W37898  22.832   4.317   3.289
67299W        W37899   1.239  44.011   1.778
67300W        W37900  40.361  40.847   2.250
67301W        W37901  41.493  10.241  10.700
67302W        W37902  21.828   5.668   0.531
67303W        W37903  40.054  22.105   4.058
67304W        W37904   2.833   9.414  11.899
67305W        W37905  31.406  10.467   0.463
67306W        W37906  33.971  22.763   1.826
67307W        W37907  25.884  13.088   4.115
67308W        W37908  24.990  29.152  13.883
67309W        W37909   4.101  40.373   2.679
67310W        W37910  44.493   4.232  11.996
67311W        W37911  17.729   8.987  14.998
67312W        W37912  19.098  11.829   4.695
67313W        W37913  24.356  16.665   1.609
67314W        W37914  26.669   2.805   0.475
67315W        W37915  12.968  40.450   3.699
67316W        W37916   6.131  28.133  14.589
67317W        W37917  30.924  20.827  11.423
67318W        W37918   4.381   3.109   2.148
67319W        W37919  30.443   8.043   4.576
67320W        W37920  16.652  22.996  10.414
67321W        W37921  34.916   7.398   3.836
67322W        W37922   4.840  15.943   0.695
67323W        W37923  32.821  32.532   2.813
67324W        W37924  23.107   8.231  11.508
67325W        W37925  33.899  16.849   4.255
67326W        W37926  22.399  37.035  12.897
67327W        W37927  28.610   2.831   1.951
67328W        W37928  12.389   6.107  14.424
67329W        W37929   2.955  27.598   2.766
67330W        W37930  12.463  40.204  14.333
67331W        W37931  13.270  25.945  10.869
67332W        W37932  41.514  17.336  13.020
67333W        W37933  23.517  12.729  14.337
67334W        W37934   2.791  25.261   4.564
67335W        W37935  25.910  31.629  11.712
67336W        W37936  23.920   4.164  13.805
67337W        W37937   8.034   8.106  14.365
67338W        W37938  22.550  19.067   3.364
67339W        W37939  13.915  36.050   1.161
67340W        W37940   8.165   6.627  14.943
67341W        W37941  37.848   2.283   0.721
67342W        W37942   5.891  42.437   3.396
67343W        W37943   5.244   5.013   2.698
67344W        W37944  22.259  21.263  14.884
67345W        W37945  22.224  30.516  10.554
67346W        W37946  43.578  16.716   4.049
67347W        W37947  43.236  25.987   2.945
67348W        W37948  27.014  12.769  14.133
67349W        W37949  43.722  20.297  13.291
67350W        W37950   2.349  11.912   2.941
67351W        W37951  20.630  18.835   4.193
67352W        W37952   4.752  30.912  13.946
67353W        W37953  39.387  24.115  11.972
67354W        W37954  29.853  21.152  14.188
67355W        W37955   3.203  10.931   1.004
67356W        W37956   7.921  19.134   3.242
67357W        W37957   5.857   8.373   0.714
67358W        W37958  25.175  22.192  10.609
67359W        W37959   6.442  10.436  10.686
67360W        W37960  14.969  15.366  10.688
67361W        W37961  30.588   5.251  14.302
67362W        W37962  22.253  37.278  14.877
67363W        W37963  26.107  28.494  12.664
67364W        W37964  29.309  22.777   0.325
67365W        W37965  26.190  28.062   2.746
67366W        W37966  15.320   1.676  13.506
67367W        W37967  23.715   7.478   4.396
67368W        W37968   0.824  34.599   3.638
67369W        W37969  35.523  41.346   1.329
67370W        W37970  25.109  32.005   0.165
67371W        W37971  17.293  19.744  12.989
67372W        W37972  38.848  26.559   2.140
67373W        W37973   6.621  40.804  14.021
67374W        W37974   5.012  38.797   9.852
67375W        W37975  19.436  23.463   0.356
67376W        W37976  44.542  11.809  14.579
67377W        W37977  27.779  21.277  11.951
67378W        W37978  38.130  18.188  14.800
67379W        W37979  28.198  28.527  11.120
67380W        W37980  41.482  15.670   1.410
67381W        W37981  27.433  16.823  13.943
67382W        W37982  23.108  29.939   4.010
67383W        W37983  13.704  34.861   3.770
67384W        W37984   4.197  19.624  14.812
67385W        W37985  17.939  43.020  12.588
67386W        W37986  29.013  33.139   1.758
67387W        W37987  13.683  22.761   4.682
67388W        W37988   5.134  21.414  12.016
67389W        W37989  14.798   4.382  14.020
67390W        W37990  37.538  40.074  12.999
67391W        W37991  14.672   8.758   3.040
67392W        W37992  37.061   6.197  11.989
67393W        W37993   8.273  12.511  14.730
67394W        W37994  10.936  11.341  14.320
67395W        W37995  38.773  40.998   1.990
67396W        W37996  38.674  24.600   4.106
67397W        W37997   0.853   4.879   4.562
67398W        W37998  24.241  24.997   3.804
67399W        W37999  13.686  31.985   3.718
67400W        W38000   8.751  35.346   4.147
67401W        W38001  19.834  19.206   3.901
67402W        W38002  40.483   5.596  14.341
67403W        W38003  20.024  18.393  11.552
67404W        W38004   3.998  27.755   4.101
67405W        W38005  13.283  12.323   0.778
67406W        W38006   3.711   1.831   0.421
67407W        W38007  16.755  32.172  13.570
67408W        W38008  34.955  23.703   3.274
67409W        W38009  22.460  37.159   0.381
67410W        W38010   5.469  14.241  14.230
67411W        W38011  35.143  26.578   2.931
67412W        W38012  17.152  37.479  10.734
67413W        W38013  13.251  34.587   0.403
67414W        W38014  21.015  31.335  14.409
67415W        W38015  39.850  15.041  10.654
67416W        W38016  33.109  29.051  11.203
67417W        W38017  43.226   9.431  11.963
67418W        W38018   0.696  39.970   3.292
67419W        W38019  28.181  13.777   1.261
67420W        W38020  29.937  25.471  12.351
67421W        W38021   3.688  27.691  14.583
67422W        W38022  24.219  20.119   1.750
67423W        W38023   5.784  16.733  12.602
67424W        W38024   6.383  11.013  11.444
67425W        W38025  19.750  16.252  12.514
67426W        W38026  16.503  37.249   2.417
67427W        W38027   2.911  37.095  13.915
67428W        W38028   4.259  37.586  13.096
67429W        W38029  32.922   5.208  14.606
67430W        W38030  36.960  32.121   3.256
67431W        W38031  20.809  11.594  14.780
67432W        W38032  13.224  19.169  13.439
67433W        W38033  16.497  14.132   1.877
67434W        W38034  19.549  29.153   1.784
67435W        W38035  23.741  13.272   3.798
67436W        W38036  18.554  42.000  12.084
67437W        W38037  40.858  12.945   4.471
67438W        W38038   5.400   9.250   0.273
67439W        W38039  14.855  19.658   4.560
67440W        W38040  44.787  44.922   0.032
67441W        W38041  37.506   3.413   0.210
67442W        W38042  22.195  23.184  12.070
67443W        W38043   5.329  27.657  14.801
67444W        W38044  42.042  36.617   2.188
67445W        W38045  28.797  31.243   0.792
67446W        W38046   2.469  19.052   0.267
67447W        W38047  37.564   6.933   4.625
67448W        W38048  27.917  25.027   4.618
67449W        W38049   7.820  40.771   4.137
67450W        W38050  18.169  34.254  14.332
67451W        W38051   7.015  43.482  14.384
67452W        W38052   1.963  23.533  13.867
67453W        W38053  27.094  41.567  12.640
67454W        W38054  33.059  40.729   4.315
67455W        W38055  34.398  34.330  14.487
67456W        W38056   0.703   0.187   3.787
67457W        W38057  34.584   3.373   5.017
67458W        W38058  43.057   3.508   3.844
67459W        W38059  31.927  44.382   1.447
67460W        W38060  18.612  33.205  11.178
67461W        W38061  29.667  10.674   0.002
67462W        W38062  20.239  33.895  13.964
67463W        W38063  19.300   4.000  14.436
67464W        W38064  14.376  40.044   4.563
67465W        W38065   7.907  43.826   4.603
67466W        W38066  10.131  38.376  11.019
67467W        W38067   2.023  17.195  14.513
67468W        W38068   8.382  38.539   4.576
67469W        W38069  20.814  17.087   0.452
67470W        W38070  35.406   0.913  11.973
67471W        W38071  18.662  36.863  11.610
67472W        W38072  43.278   6.245   1.613
67473W        W38073  32.262   2.115  14.807
67474W        W38074  22.524   8.590  12.069
67475W        W38075  30.123  23.030  14.433
67476W        W38076   2.900  21.047  13.968
67477W        W38077   0.032  15.105  13.381
67478W        W38078  10.138   9.812   1.927
67479W        W38079  21.030  23.995   0.925
67480W        W38080  29.218  32.012  13.902
67481W        W38081  14.842   3.721  12.381
67482W        W38082  17.627  30.651  14.967
67483W        W38083  12.899  38.419   1.748
67484W        W38084  44.563   5.925   4.109
67485W        W38085  25.235  14.606   0.376
67486W        W38086   7.812  33.650  14.753
67487W        W38087   8.973  23.764   3.287
67488W        W38088  30.359  15.238   4.495
67489W        W38089  39.988   7.171   3.229
67490W        W38090  23.163  43.227   5.654
67491W        W38091  35.087  20.648  12.261
67492W        W38092  27.909   6.792   3.213
67493W        W38093  42.455  15.977   3.620
67494W        W38094  19.082   6.454   0.457
67495W        W38095  19.624  37.584  12.412
67496W        W38096  40.286  29.311   5.116
67497W        W38097   1.961  44.320  10.841
67498W        W38098   5.851  10.666  13.809
67499W        W38099  39.306  38.114  13.343
67500W        W38100   0.830  42.981  13.030
67501W        W38101   3.512  21.174  14.794
67502W        W38102  15.328  17.602   2.414
67503W        W38103  29.940  40.972  14.614
67504W        W38104  33.438   8.010  13.461
67505W        W38105  43.019  28.110  14.982
67506W        W38106  31.353  33.133   4.181
67507W        W38107  43.378   2.697   2.256
67508W        W38108  21.808   9.348  12.025
67509W        W38109   4.735  32.507   4.567
67510W        W38110  21.158   3.799  14.586
67511W        W38111  42.820  29.203  10.304
67512W        W38112  42.497  26.932   1.919
67513W        W38113  43.838  10.919  12.587
67514W        W38114   7.259  28.073  11.463
67515W        W38115  27.736  22.048  12.944
67516W        W38116  20.548  41.512   4.063
67517W        W38117  35.792  44.003  14.296
67518W        W38118   4.160  38.557   3.857
67519W        W38119  38.408  36.482  12.940
67520W        W38120  15.826  43.410   3.081
67521W        W38121   6.467  29.405  11.259
67522W        W38122  28.761  44.989   3.833
67523W        W38123  31.492  36.718   4.178
67524W        W38124   5.997   7.398   2.092
67525W        W38125  28.668  36.511   1.635
67526W        W38126  21.235  14.427  13.518
67527W        W38127   2.452  44.408   3.406
67528W        W38128  22.988  15.194   0.245
67529W        W38129   2.931  24.032   1.335
67530W        W38130  38.562  26.748   3.187
67531W        W38131  14.781  29.756   4.556
67532W        W38132  24.799  32.123   0.984
67533W        W38133  26.523  23.193  14.895
67534W        W38134  34.336  30.662   4.771
67535W        W38135  20.210  28.900   1.454
67536W        W38136  23.968  28.662  10.702
67537W        W38137   8.417   2.484  11.460
67538W        W38138   0.185   3.044   3.793
67539W        W38139  14.342  41.456  11.978
67540W        W38140  30.556   0.445  11.098
67541W        W38141  34.383  10.853  10.435
67542W        W38142  35.444  22.609   4.900
67543W        W38143  20.320   2.878   0.736
67544W        W38144  27.679  16.111   2.605
67545W        W38145  43.913  16.124   0.066
67546W        W38146   3.098  20.754  11.704
67547W        W38147  21.794  16.248  11.563
67548W        W38148  23.110   6.821  12.560
67549W        W38149  28.411   3.388  12.887
67550W        W38150  29.645  35.988   1.045
67551W        W38151  41.136  36.350  12.554
67552W        W38152   4.671  30.129   2.275
67553W        W38153   3.458  12.393   4.699
67554W        W38154  32.375  30.643   3.623
67555W        W38155  35.155   1.806  13.831
67556W        W38156   3.098  43.558   3.064
67557W        W38157  29.608  42.345  11.996
67558W        W38158  10.355   0.479  14.723
67559W        W38159  16.566  36.555  10.635
67560W        W38160  38.288  16.145  13.322
67561W        W38161  20.789  29.831   0.943
67562W        W38162  19.494  31.659  11.209
67563W        W38163  42.843  29.912   0.816
67564W        W38164  10.036  39.572   2.434
67565W        W38165  23.518  23.411  11.303
67566W        W38166   4.602  20.621  13.018
67567W        W38167  29.903   8.818   4.860
67568W        W38168  22.248  39.822   1.487
67569W        W38169   9.289   2.426  10.838
67570W        W38170  18.700  12.593  12.498
67571W        W38171  34.338  24.370   0.305
67572W        W38172  32.459  34.731  13.709
67573W        W38173  13.565  27.504   1.951
67574W        W38174  26.044  28.617   0.850
67575W        W38175  38.379  28.086  11.038
67576W        W38176  41.326   8.865  10.621
67577W        W38177   1.455  38.315   3.337
67578W        W38178   2.887  26.713   2.738
67579W        W38179  10.189  13.420  13.104
67580W        W38180  32.461   9.570  13.760
67581W        W38181   6.314  30.158  11.664
67582W        W38182   0.887   2.494  11.936
67583W        W38183   3.741  17.768   0.842
67584W        W38184  24.456  10.422   1.892
67585W        W38185   3.619  21.029   4.198
67586W        W38186   0.337   2.263   1.347
67587W        W38187  31.734  11.587  12.428
67588W        W38188  25.314  18.156   4.131
67589W        W38189  17.225  18.022   2.348
67590W        W38190   8.273  14.819  12.235
67591W        W38191  17.856  31.164  12.884
67592W        W38192  29.882  34.376   0.048
67593W        W38193  24.010  26.892  11.623
67594W        W38194  18.777  18.827  11.371
67595W        W38195  40.782  18.379  14.298
67596W        W38196  41.487  27.021   3.786
67597W        W38197   6.737  23.223  11.675
67598W        W38198   8.556  17.822   2.841
67599W        W38199  27.595   3.248  11.118
67600W        W38200  16.059  44.694  12.630
67601W        W38201   9.605  11.352  10.706
67602W        W38202  38.975   6.521  13.349
67603W        W38203  22.632  23.142  10.921
67604W        W38204  22.286  26.518   1.743
67605W        W38205  26.509  42.110   4.000
67606W        W38206   8.221  14.665   3.044
67607W        W38207  24.939  36.537  13.059
67608W        W38208  23.229  18.242  11.360
67609W        W38209  10.594  17.037  10.220
67610W        W38210  15.564   7.508  12.606
67611W        W38211  34.069  14.541  10.841
67612W        W38212  35.898  11.645  12.133
67613W        W38213  11.933  11.725  10.334
67614W        W38214  15.018   9.675   3.157
67615W        W38215  35.587  20.715   3.130
67616W        W38216  13.908  23.764   4.279
67617W        W38217   3.401  20.415  13.606
67618W        W38218  25.054  33.494   4.621
67619W        W38219  42.383   5.357  14.292
67620W        W38220  13.227  28.213   3.051
67621W        W38221  26.224  38.314  14.003
67622W        W38222  39.879   2.844  12.134
67623W        W38223   7.767   0.988   1.870
67624W        W38224  41.622  15.084  11.917
67625W        W38225   4.081  29.585   0.086
67626W        W38226  22.018   4.448  11.980
67627W        W38227  10.261  26.205   0.388
67628W        W38228  17.639  41.995   4.563
67629W        W38229  37.200  13.850  10.483
67630W        W38230  18.040  23.029   1.826
67631W        W38231  40.780  42.517  12.106
67632W        W38232  22.003  12.828  14.416
67633W        W38233  38.248  20.318  11.501
67634W        W38234  28.720  26.205   0.387
67635W        W38235  25.286  37.008   0.214
67636W        W38236  41.116  32.501   2.752
67637W        W38237  32.342  34.188  11.288
67638W        W38238   4.872  16.730   1.213
67639W        W38239  42.318  44.598   0.304
67640W        W38240   5.279  20.967  12.618
67641W        W38241  12.612  23.717  10.832
67642W        W38242  15.753  22.070  10.959
67643W        W38243  17.024  13.051   0.825
67644W        W38244  35.050  24.551  11.108
67645W        W38245   5.889  30.984   1.390
67646W        W38246  12.285   1.541   4.885
67647W        W38247  41.760  43.328  13.031
67648W        W38248  38.824  19.189   3.614
67649W        W38249  18.388  27.638  13.375
67650W        W38250   8.767  42.114   0.730
67651W        W38251  38.374  20.734   1.325
67652W        W38252   3.815  20.332   0.889
67653W        W38253  19.322  36.984   4.101
67654W        W38254  34.633  10.728  13.938
67655W        W38255  40.747  41.871  14.553
67656W        W38256  38.796   3.945  13.000
67657W        W38257  38.572  39.545  14.452
67658W        W38258  26.306  29.006  14.555
67659W        W38259  38.110   7.859   4.084
67660W        W38260   8.196  42.516  14.812
67661W        W38261  26.678  20.191   0.261
67662W        W38262  25.582   2.507   4.148
67663W        W38263  13.407  12.058  12.405
67664W        W38264  22.985  34.651  12.077
67665W        W38265  36.161  33.171   1.768
67666W        W38266  41.430  15.026  13.474
67667W        W38267  22.484   7.286  14.178
67668W        W38268  23.543  29.028  12.492
67669W        W38269  15.285  26.757  14.473
67670W        W38270  40.255  37.404  13.318
67671W        W38271   2.271  42.801  14.333
67672W        W38272  43.765  24.164   4.531
67673W        W38273  39.339  40.815  14.737
67674W        W38274   4.663  12.000   3.410
67675W        W38275  44.621  34.616  13.449
67676W        W38276   7.193  16.685  14.774
67677W        W38277  37.975  22.353  11.929
67678W        W38278  12.899  33.868  13.883
67679W        W38279  37.062   0.725   1.854
67680W        W38280  25.483  36.787   1.368
67681W        W38281  18.152  41.854  14.028
67682W        W38282  35.802   3.577  10.659
67683W        W38283  35.252  34.196  13.004
67684W        W38284  15.562   2.154  14.477
67685W        W38285  33.358  20.559  12.873
67686W        W38286   5.253  42.774  12.954
67687W        W38287  23.134  16.906   2.748
67688W        W38288   1.390   0.824   2.741
67689W        W38289  13.299  22.538  14.882
67690W        W38290  29.594  28.751  13.944
67691W        W38291  44.977  16.315   3.690
67692W        W38292  27.021   9.375   3.874
67693W        W38293   7.206  22.950  14.954
67694W        W38294  15.400  36.951   0.681
67695W        W38295  26.846  11.602  10.735
67696W        W38296  36.034  25.536  13.286
67697W        W38297  41.295  19.078  10.840
67698W        W38298  41.002   3.772   9.667
67699W        W38299  19.002  32.553   1.737
67700W        W38300  41.076  17.116   4.298
67701W        W38301  24.556  18.828   0.526
67702W        W38302  38.358  32.877  11.552
67703W        W38303  43.375  30.015  12.903
67704W        W38304  39.912  33.827   2.291
67705W        W38305   8.385  36.972  11.114
67706W        W38306   0.978  41.305  12.593
67707W        W38307   2.799  12.848  10.782
67708W        W38308  30.642  37.291  13.976
67709W        W38309  10.040  30.537  10.354
67710W        W38310  19.915  12.823  10.173
67711W        W38311  24.158  38.371  13.945
67712W        W38312  23.398  27.543  14.519
67713W        W38313  40.915  12.407   2.620
67714W        W38314  41.760  18.665  14.399
67715W        W38315   9.726  40.097  13.781
67716W        W38316  18.640  27.195  10.318
67717W        W38317  34.778  34.002  13.436
67718W        W38318  22.485  36.903  13.918
67719W        W38319  19.259  11.624   4.163
67720W        W38320  44.337  23.906  12.134
67721W        W38321  22.429  41.439  13.932
67722W        W38322  20.518  14.751  13.120
67723W        W38323   3.323  31.961  12.920
67724W        W38324  22.663   6.918   3.354
67725W        W38325  23.416  24.573  11.483
67726W        W38326  15.683  11.212  13.968
67727W        W38327  42.279  22.520   2.127
67728W        W38328  27.387  15.618  13.350
67729W        W38329  16.756  38.333  13.107
67730W        W38330   8.374  30.978   4.778
67731W        W38331  18.816  12.732  13.973
67732W        W38332  41.412  14.520  12.566
67733W        W38333   8.228  17.656  10.692
67734W        W38334  13.193  39.368  13.477
67735W        W38335  33.842  33.921   1.137
67736W        W38336  17.788  20.706  14.768
67737W        W38337  34.583  35.377  14.454
67738W        W38338  42.002  22.659  12.711
67739W        W38339  12.231   3.234  11.906
67740W        W38340  19.275  14.849   4.972
67741W        W38341  37.205  11.140  13.129
67742W        W38342  16.560   5.469   2.987
67743W        W38343  42.190  13.596  11.116
67744W        W38344   0.395  25.426   2.210
67745W        W38345  10.820  44.709  14.908
67746W        W38346  10.855   9.907   2.235
67747W        W38347  39.260  38.776   3.860
67748W        W38348   1.564  20.081   4.973
67749W        W38349  39.258   9.570   1.961
67750W        W38350  26.860  35.502   3.152
67751W        W38351  18.714  33.217   2.093
67752W        W38352  31.232  24.315  12.194
67753W        W38353  37.718   7.600  14.057
67754W        W38354  28.032   1.387  12.867
67755W        W38355  20.347   1.803  12.078
67756W        W38356  13.178   0.752  12.599
67757W        W38357  18.188  38.397   1.863
67758W        W38358  30.085  10.432  10.443
67759W        W38359  37.417  24.197  14.799
67760W        W38360   4.362  18.667  11.896
67761W        W38361  40.942  18.688  10.788
67762W        W38362   6.372   9.821   4.606
67763W        W38363  18.168  36.036   1.353
67764W        W38364  15.650  21.629   4.106
67765W        W38365  14.844  35.528  13.871
67766W        W38366  17.111  28.765  13.045
67767W        W38367   8.405   0.208  12.595
67768W        W38368  41.360  42.755  14.862
67769W        W38369  19.024  31.650  11.024
67770W        W38370   6.830  14.450  11.143
67771W        W38371   4.345  28.772   1.373
67772W        W38372  40.604  15.940  10.947
67773W        W38373  22.770   5.940   2.592
67774W        W38374  28.862   1.240   0.321
67775W        W38375  32.212  27.192  14.901
67776W        W38376  42.097  35.380   4.410
67777W        W38377  27.045  39.601  14.642
67778W        W38378  36.929  35.871   2.878
67779W        W38379  28.490  30.766  11.183
67780W        W38380  29.949  30.330   2.683
67781W        W38381  44.509  22.965   4.242
67782W        W38382  15.100   6.651   2.390
67783W        W38383  15.813  18.256  14.439
67784W        W38384   2.980  10.496  13.100
67785W        W38385  22.172   2.322  13.850
67786W        W38386  14.086  14.167  12.298
67787W        W38387  36.319  21.173   2.567
67788W        W38388   3.784  41.259  12.596
67789W        W38389  19.755  33.540   2.557
67790W        W38390   6.255  16.103  11.536
67791W        W38391  38.355  43.253   0.517
67792W        W38392   2.097  44.461  12.166
67793W        W38393  37.266  38.486   4.883
67794W        W38394  19.222   5.400  11.556
67795W        W38395   6.329  19.947  14.537
67796W        W38396  16.275  32.393  14.810
67797W        W38397  44.346   0.545   0.470
67798W        W38398  30.478  19.431  12.461
67799W        W38399  14.473  19.874   4.949
67800W        W38400  11.839   5.151  13.486
67801W        W38401  32.378  15.253  14.387
67802W        W38402  38.327   2.568   2.468
67803W        W38403  26.683  11.389   0.996
67804W        W38404  17.638  21.916  11.649
67805W        W38405  29.840  11.702   3.771
67806W        W38406   6.918   2.932  14.844
67807W        W38407  30.108  15.557  13.309
67808W        W38408  22.582  41.009  12.518
67809W        W38409  21.870  26.321  12.593
67810W        W38410   7.634  20.699   2.217
67811W        W38411  23.338   6.307  13.072
67812W        W38412  17.789  43.386   4.338
67813W        W38413  23.384  20.251   4.167
67814W        W38414  10.043  31.875  13.405
67815W        W38415  22.324  37.563  11.266
67816W        W38416  10.647  28.658   4.193
67817W        W38417  26.747  18.558   0.346
67818W        W38418  20.502   3.179   3.171
67819W        W38419  14.833   0.358   3.370
67820W        W38420  15.354   0.834  11.954
67821W        W38421   5.109   4.193   0.896
67822W        W38422  18.838  42.831  14.805
67823W        W38423   4.639  19.154  11.900
67824W        W38424   8.905   6.839   3.706
67825W        W38425  39.326   6.432  14.751
67826W        W38426  32.042   5.786   1.672
67827W        W38427  31.363  30.543   0.479
67828W        W38428  14.610  30.059  10.483
67829W        W38429  29.458  30.618   1.038
67830W        W38430  33.399   7.171   1.890
67831W        W38431  19.865  20.990   1.273
67832W        W38432   6.708  20.079   4.682
67833W        W38433   6.667  32.484  12.908
67834W        W38434  16.750  24.029  14.432
67835W        W38435  13.587  34.047  12.593
67836W        W38436  31.023   0.941  11.977
67837W        W38437  26.428  19.315  11.140
67838W        W38438   0.149  35.854   4.886
67839W        W38439  35.894  43.850   4.343
67840W        W38440   2.831  10.100   1.377
67841W        W38441  33.337  40.862   1.114
67842W        W38442  16.355  22.913   0.276
67843W        W38443  21.566  13.865  10.712
67844W        W38444   1.552  41.300  13.442
67845W        W38445  37.205   0.300  12.863
67846W        W38446  41.851  19.090   1.459
67847W        W38447  18.811  36.387  12.603
67848W        W38448  33.549  37.980   3.151
67849W        W38449   6.955  34.312   3.377
67850W        W38450  25.591  13.150   2.402
67851W        W38451  14.621   3.433   0.446
67852W        W38452  38.912  40.274  11.686
67853W        W38453   5.329   3.233  13.023
67854W        W38454  29.483  43.292   0.256
67855W        W38455  43.331  31.729  10.786
67856W        W38456  38.962  25.239   1.939
67857W        W38457   0.266  22.770  10.563
67858W        W38458   1.888   7.265  11.723
67859W        W38459  23.791   4.784  11.169
67860W        W38460   0.894  38.582   3.672
67861W        W38461  17.842  14.302  11.131
67862W        W38462  23.351   5.719   1.626
67863W        W38463  41.335  10.488   3.881
67864W        W38464  25.860  16.642   3.397
67865W        W38465  35.237   6.529   0.837
67866W        W38466   7.882   3.320   2.488
67867W        W38467  32.093  19.007   1.430
67868W        W38468  39.786  31.997   0.653
67869W        W38469  29.213  17.853  11.374
67870W        W38470  28.103   6.967  14.840
67871W        W38471  26.160   4.393   2.155
67872W        W38472  17.149  12.913  10.275
67873W        W38473  12.580   2.435  11.664
67874W        W38474  17.300  15.918   0.857
67875W        W38475   1.795  14.853  14.368
67876W        W38476  24.205   2.393  13.102
67877W        W38477  18.076  23.017  12.583
67878W        W38478   0.341  41.552   0.701
67879W        W38479  26.715   0.803   0.221
67880W        W38480  16.170   2.755   2.177
67881W        W38481  33.054  33.118   3.034
67882W        W38482  39.142  21.985  14.871
67883W        W38483  37.165  44.477   1.321
67884W        W38484  16.936  29.463   3.244
67885W        W38485   3.753  33.576  12.145
67886W        W38486  19.032   6.577   2.301
67887W        W38487  43.194  13.387  11.269
67888W        W38488  29.954  42.768   4.165
67889W        W38489  19.311  30.003   0.810
67890W        W38490   5.277  25.030   1.894
67891W        W38491   1.010   8.150  10.988
67892W        W38492  37.307  22.685  11.029
67893W        W38493  27.511  29.709   2.660
67894W        W38494  15.775  19.481  10.464
67895W        W38495  35.454  30.520   1.729
67896W        W38496  17.301   1.181   3.643
67897W        W38497  42.901  38.159   3.156
67898W        W38498  41.491  12.319   4.696
67899W        W38499  25.623  35.750   1.436
67900W        W38500  12.118  17.834  12.106
67901W        W38501   4.442   7.185  12.387
67902W        W38502  43.944   2.925   3.202
67903W        W38503  43.299  32.643   2.367
67904W        W38504  24.495  21.226   3.861
67905W        W38505  13.765  12.898   0.038
67906W        W38506   6.629   3.651   1.306
67907W        W38507  23.659  40.259   0.731
67908W        W38508  18.650  27.950  11.535
67909W        W38509  43.588  26.580  10.783
67910W        W38510  44.511  34.487  12.537
67911W        W38511  25.060  24.166  11.110
67912W        W38512  26.190   8.785  12.086
67913W        W38513  22.506  34.427  12.081
67914W        W38514  43.912  31.430   4.467
67915W        W38515  14.031  13.161  11.400
67916W        W38516  20.026  11.811  10.715
67917W        W38517   7.571  10.025   2.950
67918W        W38518  25.111  44.222   3.716
67919W        W38519  22.516  12.688   1.228
67920W        W38520  22.845  32.039  14.482
67921W        W38521  32.827  20.726  11.141
67922W        W38522   7.433   5.158   3.191
67923W        W38523  36.152  37.541  11.228
67924W        W38524   6.972  38.005   1.327
67925W        W38525  17.557  10.643   2.463
67926W        W38526  34.160  27.133  14.240
67927W        W38527  34.882  15.218  14.143
67928W        W38528  23.599  16.823   4.165
67929W        W38529   7.876  11.819   1.821
67930W        W38530   5.581  17.061   2.668
67931W        W38531  29.386  26.904   1.368
67932W        W38532  33.385  42.340  14.442
67933W        W38533  33.646  14.722  13.325
67934W        W38534  13.125  27.050   4.134
67935W        W38535  14.878  27.907   3.294
67936W        W38536  25.506  25.509   4.557
67937W        W38537  43.257  20.467  12.969
67938W        W38538   4.578  17.791  14.011
67939W        W38539   7.901  28.478  11.156
67940W        W38540  34.180  13.166  10.759
67941W        W38541  16.800  17.566   2.845
67942W        W38542  44.039  30.113   0.399
67943W        W38543  26.940  31.320   0.311
67944W        W38544  44.024  37.680   2.994
67945W        W38545  22.164  17.150  11.904
67946W        W38546  13.550  33.878   1.436
67947W        W38547  43.495  30.416   4.651
67948W        W38548   4.231  30.930  10.856
67949W        W38549  23.420  20.061   2.267
67950W        W38550  18.695  19.458   2.714
67951W        W38551  39.098  32.132  12.502
67952W        W38552  16.288   4.553   4.080
67953W        W38553  29.083   1.948   3.425
67954W        W38554  32.027  31.811  13.563
67955W        W38555  19.191  29.953  13.916
67956W        W38556  11.723   9.761   4.302
67957W        W38557  33.688  35.047   4.482
67958W        W38558  37.024  19.505   0.677
67959W        W38559  16.404  33.977   2.779
67960W        W38560   9.287  39.940  13.023
67961W        W38561  39.364   1.681   3.588
67962W        W38562  37.469  44.059   2.434
67963W        W38563   1.667  10.491  13.411
67964W        W38564  27.875  34.312   1.875
67965W        W38565  20.065  14.352  11.590
67966W        W38566  11.087   3.490  11.222
67967W        W38567   1.325  15.743   5.033
67968W        W38568  30.872  21.099   0.983
67969W        W38569  32.180  31.978   3.934
67970W        W38570  12.889  18.987  11.124
67971W        W38571  15.961  31.012  12.155
67972W        W38572   3.614  21.589   5.056
67973W        W38573  33.686  38.058   0.151
67974W        W38574   1.255  44.266   2.814
67975W        W38575  35.910  36.670   3.214
67976W        W38576  30.274  25.702  11.407
67977W        W38577  35.057   8.687   0.392
67978W        W38578  31.454  33.825   0.768
67979W        W38579   9.639  43.613   1.648
67980W        W38580  26.488   0.598   3.846
67981W        W38581  24.100  16.876   0.371
67982W        W38582  33.035  30.761  12.502
67983W        W38583  30.999   1.468   0.021
67984W        W38584  26.175  31.985  12.893
67985W        W38585  20.174  30.510   4.298
67986W        W38586  10.449  26.035  13.770
67987W        W38587  31.013  23.526   3.388
67988W        W38588  22.271  32.444  11.675
67989W        W38589  13.659  17.233   2.170
67990W        W38590  27.524   8.026  10.997
67991W        W38591   4.718   7.142   3.171
67992W        W38592  18.205  14.603   3.761
67993W        W38593  39.830  32.133   3.992
67994W        W38594  32.450   0.964   1.352
67995W        W38595  25.213  33.940   4.914
67996W        W38596  37.302   4.496   2.323
67997W        W38597  28.177   0.839  13.783
67998W        W38598  10.847   4.688  10.666
67999W        W38599  40.956   7.319  13.270
68000W        W38600  10.641  12.744   1.295
68001W        W38601  23.731  15.662   3.326
68002W        W38602  18.017  41.058  12.884
68003W        W38603   1.229  22.597  11.601
68004W        W38604   6.717  21.749  11.009
68005W        W38605  10.280  34.444  10.922
68006W        W38606   6.892  22.449   1.482
68007W        W38607  42.589  42.850   5.021
68008W        W38608  29.057  36.803   3.805
68009W        W38609  43.871  32.425  11.094
68010W        W38610  20.091  17.100  10.306
68011W        W38611   7.878  35.116  13.536
68012W        W38612  42.330  42.545   4.072
68013W        W38613  10.181  35.466  14.493
68014W        W38614   1.353  22.743  12.923
68015W        W38615   3.598  15.837   1.364
68016W        W38616  31.313  41.603   1.285
68017W        W38617  23.969  15.743  13.499
68018W        W38618  35.446  19.790   1.406
68019W        W38619  30.121  32.377  12.842
68020W        W38620  21.118  39.064  12.955
68021W        W38621  24.472  43.401   3.726
68022W        W38622  43.407  24.937   3.168
68023W        W38623  36.152   9.604   3.743
68024W        W38624   1.946   0.238   3.317
68025W        W38625  17.377  15.812  14.714
68026W        W38626  25.057  42.950   1.775
68027W        W38627  31.111  24.707  13.100
68028W        W38628   3.184  27.565  14.616
68029W        W38629  25.795  26.674   0.304
68030W        W38630   2.898  34.440  11.546
68031W        W38631  39.046  36.797   3.767
68032W        W38632   8.559  12.376   3.140
68033W        W38633  34.917  44.742   0.432
68034W        W38634  11.667  12.407   0.386
68035W        W38635  10.367  42.259  14.960
68036W        W38636  31.455  23.323   3.210
68037W        W38637  28.164   7.293   1.519
68038W        W38638  40.218   6.377  10.826
68039W        W38639  13.506  35.878   3.334
68040W        W38640  30.435  24.056   4.092
68041W        W38641  31.434  18.664  13.350
68042W        W38642  15.164   9.183  10.637
68043W        W38643  23.618  40.670  14.394
68044W        W38644  28.638  43.837  10.484
68045W        W38645  14.282   9.871   4.208
68046W        W38646  33.911  20.622   4.917
68047W        W38647  42.897  21.180  14.735
68048W        W38648  30.903  19.148  12.869
68049W        W38649  39.379  24.899   2.802
68050W        W38650  44.331  30.387  13.423
68051W        W38651  19.029  32.262  12.957
68052W        W38652  33.592  32.133   0.234
68053W        W38653   8.759   9.645   0.698
68054W        W38654  36.284   5.379   3.633
68055W        W38655  12.197  15.095  14.857
68056W        W38656  38.095  25.686  14.542
68057W        W38657  17.588  33.162  14.974
68058W        W38658   0.535  44.491   0.702
68059W        W38659   9.326  35.057   3.261
68060W        W38660  42.125  20.582  12.864
68061W        W38661  22.733  26.779   1.773
68062W        W38662  26.693   1.513   4.724
68063W        W38663   8.712  34.669  11.192
68064W        W38664   7.580  11.412   1.908
68065W        W38665  32.931  17.150  12.116
68066W        W38666  34.866  35.455   3.725
68067W        W38667  43.017  15.138   0.786
68068W        W38668  15.317   0.308   5.157
68069W        W38669  35.842  38.141   3.030
68070W        W38670  41.091  19.187  14.884
68071W        W38671  14.757   5.633  12.550
68072W        W38672   1.695  33.080   4.249
68073W        W38673  30.618  39.408  14.992
68074W        W38674  21.803  15.571  11.038
68075W        W38675  28.539  37.393   0.534
68076W        W38676  14.642  30.575  11.190
68077W        W38677  42.874  18.410   4.613
68078W        W38678   2.967  29.851  11.124
68079W        W38679  12.238   9.215   2.626
68080W        W38680   2.791  11.257   0.429
68081W        W38681  22.277  43.789  14.482
68082W        W38682  21.081  39.430  13.422
68083W        W38683  36.844   9.674  11.563
68084W        W38684  33.399   8.874  10.770
68085W        W38685   8.779  38.968   4.010
68086W        W38686  41.814   9.519   4.248
68087W        W38687  22.834  20.720   4.571
68088W        W38688  26.290  34.868   2.914
68089W        W38689   6.625   3.710  14.528
68090W        W38690   0.804  17.665   3.750
68091W        W38691   7.137  43.249  12.968
68092W        W38692  15.957  25.750   4.473
68093W        W38693  36.438  20.033  10.942
68094W        W38694  36.153   8.893   1.820
68095W        W38695  29.193  18.659  11.651
68096W        W38696   1.307  40.935  11.714
68097W        W38697   9.223   5.325   0.280
68098W        W38698  13.353   5.417  14.768
68099W        W38699  30.037  43.257   4.113
68100W        W38700  43.574  34.730   0.827
68101W        W38701  40.483   7.247   2.645
68102W        W38702   8.361   1.976  11.469
68103W        W38703  32.623  23.452  10.523
68104W        W38704  17.699  16.364   2.705
68105W        W38705  32.362  42.767  11.588
68106W        W38706   8.431   3.705   1.708
68107W        W38707  12.748  23.097  14.929
68108W        W38708   2.173  42.689  12.943
68109W        W38709  35.531  12.333   4.289
68110W        W38710  19.916  28.628   3.573
68111W        W38711  37.606  42.405  14.824
68112W        W38712  24.130  22.640   1.899
68113W        W38713  35.496  22.362   2.245
68114W        W38714  13.022  16.125  13.745
68115W        W38715  32.459  17.247   1.443
68116W        W38716  25.649  10.844   3.761
68117W        W38717  12.055   6.525  14.328
68118W        W38718  43.841  27.610   4.429
68119W        W38719  17.991   2.450   3.629
68120W        W38720  11.831  38.603  14.909
68121W        W38721   0.011  36.489   2.175
68122W        W38722  44.150  40.853  11.534
68123W        W38723  32.873  22.084  13.338
68124W        W38724  10.298  36.967  13.448
68125W        W38725   4.528  31.869  13.702
68126W        W38726  14.645  23.256   1.260
68127W        W38727  20.578   4.422   0.824
68128W        W38728  39.094  33.412  13.096
68129W        W38729  27.136  32.430  10.549
68130W        W38730  30.441  38.762   4.145
68131W        W38731  16.902  17.777   3.873
68132W        W38732  15.725  38.179   0.915
68133W        W38733  13.708  14.419   0.232
68134W        W38734   3.958  38.355   1.707
68135W        W38735   1.844  40.024  14.909
68136W        W38736   4.557  30.450   0.964
68137W        W38737  38.472   5.204   0.399
68138W        W38738  39.316   2.632   3.601
68139W        W38739  16.401  23.590   4.186
68140W        W38740  35.531   3.354   0.312
68141W        W38741  31.056  26.904   1.903
68142W        W38742   7.925   0.239  11.134
68143W        W38743   7.178  34.114   1.940
68144W        W38744  11.773  14.440  12.841
68145W        W38745   4.230  31.487   3.662
68146W        W38746  30.640  17.247  14.842
68147W        W38747  29.959   3.830  14.834
68148W        W38748   6.048   6.124  13.913
68149W        W38749  41.371  39.287   0.950
68150W        W38750   6.709  30.871   4.421
68151W        W38751  39.708   9.095  12.111
68152W        W38752   0.531  39.419  13.642
68153W        W38753  14.890  35.894   2.707
68154W        W38754  18.789  36.983   0.480
68155W        W38755  27.140   0.316   2.710
68156W        W38756   9.066   5.725  14.530
68157W        W38757  19.182  41.970   4.204
68158W        W38758  16.228  14.667  12.350
68159W        W38759  32.091  41.962   2.733
68160W        W38760   7.680  24.120   4.927
68161W        W38761  14.728  39.337  14.278
68162W        W38762  19.754  22.617  12.561
68163W        W38763  42.997  35.518  13.338
68164W        W38764   1.823  43.026  12.776
68165W        W38765   2.131  26.274  13.882
68166W        W38766  17.921  17.122   3.856
68167W        W38767  10.726  43.358   4.437
68168W        W38768  35.302  40.293   2.009
68169W        W38769  41.443  43.827  14.206
68170W        W38770  22.488  17.691   0.054
68171W        W38771  15.891   9.146   1.338
68172W        W38772   7.906  31.284   0.736
68173W        W38773  36.625  33.938  11.204
68174W        W38774  27.059  40.444  12.388
68175W        W38775  34.530  22.742   5.057
68176W        W38776  43.452  27.930   0.830
68177W        W38777  33.048  24.225  14.452
68178W        W38778   5.889  32.589   0.730
68179W        W38779  40.766   1.381  12.549
68180W        W38780  28.220  35.874  14.009
68181W        W38781  16.338  25.057  11.259
68182W        W38782   2.979  44.503   3.689
68183W        W38783  18.225  43.254   0.484
68184W        W38784   0.492  33.078   0.045
68185W        W38785  39.816  11.837  14.452
68186W        W38786   7.447  35.876  10.431
68187W        W38787   4.333   0.244   1.683
68188W        W38788  25.985  42.475  11.156
68189W        W38789  13.730  37.836   2.768
68190W        W38790  24.935  15.694   3.649
68191W        W38791  42.993  38.998  14.559
68192W        W38792  15.000  26.433  13.063
68193W        W38793  23.981  36.013   1.838
68194W        W38794   9.343  14.550  10.599
68195W        W38795  44.386  43.956  10.721
68196W        W38796  29.227  22.044  12.192
68197W        W38797  21.969  44.509  13.822
68198W        W38798  33.108   1.192   3.274
68199W        W38799  18.803  27.877  14.547
68200W        W38800  37.143  17.527   1.361
68201W        W38801  21.991  31.849  10.410
68202W        W38802  17.035  24.956  14.963
68203W        W38803  25.541  31.185  10.582
68204W        W38804  41.429  26.188   0.226
68205W        W38805  22.571  37.416   3.140
68206W        W38806   5.416  30.929  11.412
68207W        W38807  27.627  19.741   0.220
68208W        W38808  44.002  43.005   3.162
68209W        W38809  13.741  29.573   0.763
68210W        W38810  21.374  32.512   3.832
68211W        W38811  38.418  11.055   1.839
68212W        W38812   6.512   5.158   3.118
68213W        W38813  42.092  12.869  12.630
68214W        W38814  43.282  26.008  11.702
68215W        W38815  18.830  14.447  13.549
68216W        W38816  29.498  39.666  12.985
68217W        W38817  29.194  31.202  12.474
68218W        W38818  40.492  26.179  13.175
68219W        W38819  27.456  17.156   1.373
68220W        W38820   4.028  42.163  13.536
68221W        W38821  30.948   8.846   0.358
68222W        W38822  31.435   5.392   1.424
68223W        W38823  26.103  16.635   0.921
68224W        W38824  28.431  14.688  13.143
68225W        W38825  11.349  39.356  13.518
68226W        W38826  10.107   4.266  14.893
68227W        W38827  24.070  39.533  11.142
68228W        W38828  18.116  27.368   2.141
68229W        W38829   9.368  27.495   1.153
68230W        W38830   7.508   0.247   1.539
68231W        W38831  15.099  40.376  11.936
68232W        W38832  20.325  15.897  14.891
68233W        W38833  31.380   0.979  12.353
68234W        W38834  32.648  21.238   2.840
68235W        W38835   1.742  28.584  13.486
68236W        W38836  39.541  38.585   2.893
68237W        W38837  20.457  41.628  12.514
68238W        W38838   3.315  39.503   4.151
68239W        W38839  41.790  27.553  11.546
68240W        W38840   1.483  37.211  14.875
68241W        W38841  32.743  40.900   4.719
68242W        W38842  40.331   7.502  12.546
68243W        W38843  13.711   3.141  11.747
68244W        W38844  12.034   1.479  12.392
68245W        W38845  17.084   3.882  10.532
68246W        W38846  33.061  42.563   5.030
68247W        W38847  24.213  12.311   1.855
68248W        W38848  41.172  21.738   5.114
68249W        W38849  17.679  30.669  13.015
68250W        W38850  22.525   7.807   4.115
68251W        W38851  16.722   7.417   0.004
68252W        W38852   1.685  15.835  14.331
68253W        W38853  33.357  26.499   0.299
68254W        W38854  40.078  33.259   3.224
68255W        W38855  43.796   4.446   0.136
68256W        W38856   5.780  41.226   2.737
68257W        W38857  28.156  13.837   0.380
68258W        W38858  19.305  37.113  14.021
68259W        W38859  37.851  38.006   1.857
68260W        W38860  34.142  22.571   1.369
68261W        W38861  22.724  42.346   1.289
68262W        W38862  15.433  33.553   0.806
68263W        W38863  31.890   5.388   1.136
68264W        W38864  28.235  25.206   3.336
68265W        W38865   4.462  41.002  11.466
68266W        W38866  13.690  35.430  11.484
68267W        W38867  12.878  39.933   0.769
68268W        W38868  33.638  41.373  10.085
68269W        W38869  19.845  12.305   0.359
68270W        W38870   9.803   9.273   5.009
68271W        W38871  14.284  37.126  10.641
68272W        W38872   9.777   3.907  11.406
68273W        W38873   3.990  39.434   4.639
68274W        W38874  10.402  16.333  14.349
68275W        W38875   8.655   5.804  13.721
68276W        W38876  13.241  13.760   3.788
68277W        W38877  43.120  38.070   3.604
68278W        W38878  39.474  12.111   1.303
68279W        W38879  23.238  23.505  14.679
68280W        W38880  40.853  27.072  11.441
68281W        W38881  38.422  17.605   0.152
68282W        W38882   4.107  40.979   0.671
68283W        W38883  18.154  13.200   0.239
68284W        W38884   9.846   8.672  11.529
68285W        W38885  33.978  33.945   3.671
68286W        W38886  15.745  26.390   0.274
68287W        W38887  28.490  35.703   1.531
68288W        W38888  28.154  42.402   1.987
68289W        W38889  37.501  34.971  13.325
68290W        W38890   8.816   5.964  10.327
68291W        W38891  32.683  41.438   1.648
68292W        W38892  41.573   7.323   3.952
68293W        W38893   1.763   7.673   1.837
68294W        W38894  33.401  43.907   3.682
68295W        W38895  14.596  44.215  12.157
68296W        W38896  43.338   3.333  14.209
68297W        W38897  27.252  25.584   2.801
68298W        W38898  42.820   5.893   4.905
68299W        W38899  21.334  22.575   0.523
68300W        W38900  31.676   7.602  13.401
68301W        W38901  43.952  19.555   2.260
68302W        W38902  27.350  32.540   0.751
68303W        W38903   5.243  33.058   3.952
68304W        W38904  11.290   3.719   4.101
68305W        W38905   1.576   8.430  11.662
68306W        W38906  42.345  22.020  13.240
68307W        W38907  20.747  17.198  12.579
68308W        W38908  19.710  31.818   4.210
68309W        W38909  10.320  39.915   2.164
68310W        W38910  23.497  38.593  10.818
68311W        W38911  35.991  37.893   1.997
68312W        W38912   7.649  40.806   3.186
68313W        W38913  11.242  39.765   4.156
68314W        W38914  22.966  18.651   0.570
68315W        W38915  35.826  32.745   1.725
68316W        W38916  37.480  35.349   0.594
68317W        W38917   5.954  13.067   2.002
68318W        W38918  29.946  37.839  14.747
68319W        W38919  13.398  10.221  13.108
68320W        W38920  27.361  20.145  14.496
68321W        W38921   2.788  27.647   2.278
68322W        W38922   4.788  18.263  13.987
68323W        W38923  12.999  19.218   0.859
68324W        W38924   1.779  40.455  11.098
68325W        W38925   4.843  17.249   0.270
68326W        W38926   3.416  25.127  11.283
68327W        W38927  32.151  29.138  14.443
68328W        W38928   4.946  19.763   0.343
68329W        W38929  20.277  40.949  12.338
68330W        W38930  26.977  10.357  12.975
68331W        W38931  40.173  41.981   1.789
68332W        W38932  41.924  30.837   2.264
68333W        W38933   8.276  12.105  13.824
68334W        W38934  42.434  31.845  13.419
68335W        W38935   6.767  20.858   4.194
68336W        W38936  16.299   1.511  12.027
68337W        W38937  16.639   7.132  13.442
68338W        W38938  24.140  32.888  11.506
68339W        W38939  18.061  36.708   2.600
68340W        W38940  17.168  27.157   1.731
68341W        W38941  33.628  37.054   1.493
68342W        W38942  34.421  13.113   1.547
68343W        W38943   8.051  10.062   4.258
68344W        W38944  31.346  35.990   4.892
68345W        W38945  30.100  15.045  13.552
68346W        W38946  15.357  23.946   2.747
68347W        W38947  11.960  14.271  10.944
68348W        W38948  44.043   7.757  14.523
68349W        W38949  14.671  29.942  12.804
68350W        W38950  38.417  11.171   4.454
68351W        W38951  36.800  40.386   1.904
68352W        W38952  22.136  20.018   2.368
68353W        W38953   7.851  32.924   1.781
68354W        W38954  32.558  26.886   3.185
68355W        W38955   8.883   1.020   4.644
68356W        W38956  39.946  38.324  10.490
68357W        W38957   7.587  14.478  13.862
68358W        W38958  22.772  38.085  11.913
68359W        W38959  42.318  19.119  11.651
68360W        W38960   5.606  24.465  12.010
68361W        W38961   4.298  21.998  11.984
68362W        W38962  40.533  14.512   2.640
68363W        W38963  28.426  39.306  13.889
68364W        W38964  33.664  43.473   3.829
68365W        W38965   4.983  21.031  13.788
68366W        W38966  38.660  16.478  13.494
68367W        W38967   9.410  26.576   4.468
68368W        W38968  29.061  35.088  10.975
68369W        W38969  30.115   7.395  11.891
68370W        W38970  15.759   2.699  14.318
68371W        W38971  36.191  14.672  14.248
68372W        W38972  22.649  35.285  11.460
68373W        W38973  19.685  36.703  11.598
68374W        W38974  11.012  22.552   4.491
68375W        W38975  15.279   4.161   1.977
68376W        W38976  32.979  44.392  13.363
68377W        W38977  20.064  32.347  11.590
68378W        W38978  33.981  36.428  12.571
68379W        W38979  40.054  38.506   1.617
68380W        W38980  15.870   9.045   4.105
68381W        W38981  13.299  32.704   0.031
68382W        W38982  31.672  43.754   4.073
68383W        W38983  13.143  30.193  11.516
68384W        W38984  38.117  38.768   2.826
68385W        W38985  22.062  41.507  13.198
68386W        W38986  19.571  42.064   1.467
68387W        W38987   5.492   7.264   2.179
68388W        W38988   0.544  36.544   4.414
68389W        W38989  17.573   1.504   2.742
68390W        W38990  36.622  24.608  14.057
68391W        W38991  30.929   3.779  10.672
68392W        W38992  17.763  24.020   1.490
68393W        W38993  31.838  27.979  13.923
68394W        W38994  30.461  21.752  13.463
68395W        W38995  19.773  22.627   0.099
68396W        W38996   8.984  33.403  13.269
68397W        W38997  11.713  26.919  11.605
68398W        W38998   8.897   8.182  12.133
68399W        W38999   5.928  12.757   0.864
68400W        W39000  34.468   6.628  10.562
68401W        W39001  34.437  26.235   4.167
68402W        W39002  41.490  13.240   4.269
68403W        W39003  21.864  17.526   2.098
68404W        W39004  41.856  39.689  10.388
68405W        W39005  35.013  36.803  11.671
68406W        W39006  38.454  38.677  11.193
68407W        W39007  13.382  26.365   0.315
68408W        W39008  29.096  38.554  12.189
68409W        W39009  39.895  22.496  14.832
68410W        W39010  35.169  20.019   0.235
68411W        W39011  31.591   3.391   3.496
68412W        W39012  11.446  35.541   4.324
68413W        W39013  24.659  38.588   4.162
68414W        W39014  34.766  18.465  14.356
68415W        W39015  23.287  36.848   1.548
68416W        W39016  32.160  19.167   4.491
68417W        W39017  29.867  18.254  12.921
68418W        W39018   4.349  10.227  13.828
68419W        W39019  23.269  18.418   1.685
68420W        W39020   6.245  20.186  13.178
68421W        W39021  32.075   6.019  10.257
68422W        W39022   8.886  41.135  14.841
68423W        W39023  32.487  39.794   4.161
68424W        W39024  30.929   8.620   1.239
68425W        W39025   3.692  20.473  11.621
68426W        W39026  22.639  25.671  11.918
68427W        W39027  16.588  32.650  14.477
68428W        W39028  11.984  29.080   5.035
68429W        W39029   6.913  19.870   2.857
68430W        W39030  30.525  32.645  12.555
68431W        W39031  30.580   9.761  11.931
68432W        W39032  23.149   1.765   3.092
68433W        W39033  28.635  14.971   0.603
68434W        W39034  36.046  14.904  12.835
68435W        W39035  16.446  27.052   2.812
68436W        W39036   6.649  11.211   0.349
68437W        W39037  19.726  39.054  14.543
68438W        W39038  44.275  20.851  10.637
68439W        W39039   0.415  22.027  12.883
68440W        W39040  29.525  40.938   1.252
68441W        W39041  39.293  38.372   4.183
68442W        W39042  14.778  11.794  11.763
68443W        W39043  42.510   3.868  10.288
68444W        W39044   4.905  19.963  11.290
68445W        W39045  22.792  39.889   2.764
68446W        W39046  26.001  21.496   1.336
68447W        W39047   8.932  23.170   4.036
68448W        W39048  33.383  23.970   2.161
68449W        W39049  29.197  29.982  11.225
68450W        W39050  29.636  34.402  14.280
68451W        W39051  34.510  22.301   0.307
68452W        W39052  27.942  26.173  14.776
68453W        W39053  40.902  18.519   1.457
68454W        W39054  28.227   3.125   4.483
68455W        W39055   9.633  34.916  14.983
68456W        W39056   2.950   5.229  12.105
68457W        W39057   6.621  38.970   3.712
68458W        W39058  15.880   4.803  10.697
68459W        W39059  29.049  32.580   0.430
68460W        W39060  36.418  12.773  10.940
68461W        W39061  44.534   8.703   1.312
68462W        W39062  43.008  20.699  13.741
68463W        W39063  16.716  23.535  11.144
68464W        W39064   6.103  38.919   3.834
68465W        W39065  16.850  16.530   0.369
68466W        W39066   7.695  15.021  14.130
68467W        W39067  33.123  33.901   4.175
68468W        W39068   0.516   0.013   0.741
68469W        W39069  29.447  13.987   4.959
68470W        W39070  24.847  42.335  12.109
68471W        W39071  26.622  44.518  13.583
68472W        W39072  28.970  34.910   2.097
68473W        W39073  24.439  11.046   4.226
68474W        W39074  38.206  43.142  12.113
68475W        W39075  40.416  12.511   2.558
68476W        W39076  41.482  42.780   4.613
68477W        W39077  36.769  10.293   2.313
68478W        W39078  44.782  22.538  14.938
68479W        W39079  21.548  36.605   3.341
68480W        W39080  17.100   0.863  12.852
68481W        W39081  36.433  31.584   4.579
68482W        W39082  22.651  19.290   4.685
68483W        W39083  26.244  25.564   4.345
68484W        W39084  18.066  41.475  12.549
68485W        W39085  43.934   7.969   1.429
68486W        W39086  16.654   2.235  11.216
68487W        W39087  16.724  18.456   2.559
68488W        W39088  40.977   8.736  14.575
68489W        W39089   0.474  22.348   2.900
68490W        W39090  13.821  19.481  11.138
68491W        W39091  15.753  12.354   5.332
68492W        W39092  13.544  34.596   2.605
68493W        W39093  30.479  37.262   0.761
68494W        W39094  33.915   0.717  11.670
68495W        W39095  36.828  29.001   4.518
68496W        W39096  39.555  17.337  13.464
68497W        W39097  43.259   4.368   2.843
68498W        W39098  20.847  18.739   2.863
68499W        W39099  33.556  14.328  14.743
68500W        W39100   2.530  20.815  14.822
68501W        W39101  10.748   3.205   1.437
68502W        W39102   8.358   7.792   0.220
68503W        W39103  32.987  17.168   3.984
68504W        W39104   4.363  12.732  10.916
68505W        W39105  17.050  14.040  14.107
68506W        W39106  33.528  34.587   4.134
68507W        W39107  20.048   7.220  12.674
68508W        W39108  22.344   5.711  13.429
68509W        W39109  28.888   1.909  12.927
68510W        W39110  12.729  20.108   3.690
68511W        W39111  27.726  41.315   0.237
68512W        W39112   9.267  13.265  14.504
68513W        W39113   8.214  39.721  12.544
68514W        W39114  29.970  10.488   0.400
68515W        W39115  40.519  16.835  11.924
68516W        W39116  14.613  39.759   0.100
68517W        W39117  43.925  33.392   2.282
68518W        W39118  24.295   0.985   3.680
68519W        W39119  23.724   5.894   1.234
68520W        W39120  30.341  39.791   2.254
68521W        W39121  41.332  18.925   0.296
68522W        W39122  11.283  42.072   3.901
68523W        W39123  30.372  39.068   4.563
68524W        W39124  30.976  10.722  13.064
68525W        W39125  36.953  35.762   3.387
68526W        W39126  28.534  13.408  13.820
68527W        W39127  31.160  23.051   3.590
68528W        W39128  28.656  12.947   1.794
68529W        W39129  35.245  38.783  14.505
68530W        W39130  15.578  15.098  14.840
68531W        W39131  15.203   3.343  14.237
68532W        W39132  34.910  20.587   4.533
68533W        W39133  24.034  11.177   4.600
68534W        W39134  19.570  23.516  11.606
68535W        W39135   3.004  41.344   3.076
68536W        W39136   7.949  41.799  12.958
68537W        W39137  29.005  12.573  13.298
68538W        W39138  14.762  32.698   0.917
68539W        W39139  17.860  24.495   1.288
68540W        W39140   0.111  27.222   2.554
68541W        W39141   7.031   8.156  14.443
68542W        W39142  15.208  16.869  12.415
68543W        W39143  40.318  36.500   0.355
68544W        W39144  19.062  17.691   0.228
68545W        W39145  21.925  36.748  12.014
68546W        W39146  21.929  15.570   2.153
68547W        W39147  43.499  14.425  14.719
68548W        W39148  39.472   8.572   1.916
68549W        W39149   9.476  42.941  14.737
68550W        W39150  15.362  16.036  14.980
68551W        W39151   6.721  32.926   0.331
68552W        W39152  42.169  34.116  14.392
68553W        W39153  42.999   6.686  14.954
68554W        W39154   6.816  23.754   1.254
68555W        W39155  35.497   7.404   0.364
68556W        W39156  22.615  28.700   2.508
68557W        W39157  43.728  26.614  12.657
68558W        W39158  14.879  36.447  14.822
68559W        W39159  31.183  43.958   1.176
68560W        W39160  31.293  33.122  10.660
68561W        W39161  16.599  23.086  10.915
68562W        W39162  17.963  20.347   1.580
68563W        W39163  32.562   7.575   2.777
68564W        W39164  44.060   8.279  14.857
68565W        W39165  35.058  31.515   3.885
68566W        W39166  18.719   1.985   1.610
68567W        W39167   1.337  12.657   2.686
68568W        W39168  37.775  34.983  11.848
68569W        W39169  34.084  22.427  13.103
68570W        W39170  10.154  22.472  14.027
68571W        W39171  26.032  29.320   3.347
68572W        W39172  29.428   9.059   1.996
68573W        W39173  27.405  28.573  13.899
68574W        W39174  40.058  41.256  11.998
68575W        W39175  38.704  14.877   4.152
68576W        W39176   4.962  19.154  10.942
68577W        W39177  37.269   7.617  14.951
68578W        W39178  41.791  35.719   4.180
68579W        W39179  10.342  43.404   0.884
68580W        W39180  34.032  37.029  13.411
68581W        W39181   0.249  41.472  13.968
68582W        W39182  38.771  19.845   0.522
68583W        W39183   7.679   8.710   1.875
68584W        W39184  36.533  24.172  14.917
68585W        W39185  39.901  37.570  14.977
68586W        W39186  40.342  24.091  12.369
68587W        W39187   9.909  22.754  10.529
68588W        W39188  22.920  20.699   2.381
68589W        W39189  28.901  24.511   3.863
68590W        W39190   0.471  26.842   2.334
68591W        W39191  42.824  19.964  12.380
68592W        W39192  34.167  36.038   4.095
68593W        W39193   0.666  22.917  14.981
68594W        W39194  23.666  33.954  13.076
68595W        W39195  18.389   3.888   2.295
68596W        W39196  31.154   4.301   3.292
68597W        W39197  17.126  15.294   2.047
68598W        W39198  18.762  32.437  13.909
68599W        W39199  11.223  40.987   0.003
68600W        W39200  44.315   2.407   0.718
68601W        W39201  42.519  42.907  12.951
68602W        W39202  42.935   9.818   1.096
68603W        W39203  20.788  44.725  11.513
68604W        W39204   9.820  25.125  12.895
68605W        W39205  24.380  41.273  13.826
68606W        W39206   6.383  19.465  13.456
68607W        W39207  28.182  13.894  10.097
68608W        W39208  13.552   2.894  10.808
68609W        W39209  23.579   1.458  10.990
68610W        W39210  16.941  33.020  14.438
68611W        W39211  10.883  35.984   0.380
68612W        W39212  38.372  40.505  11.554
68613W        W39213  33.316  18.267  13.888
68614W        W39214   0.303  37.741  14.423
68615W        W39215  10.376  44.817   3.266
68616W        W39216  34.374  10.081   3.242
68617W        W39217  30.158  26.589  11.647
68618W        W39218  13.689  33.428   3.648
68619W        W39219   8.224   4.083  10.655
68620W        W39220  12.525   4.178  12.031
68621W        W39221  33.632  30.129   0.399
68622W        W39222  26.758   9.649   2.914
68623W        W39223  25.131  44.492  14.118
68624W        W39224  30.330  17.679  14.871
68625W        W39225  21.191  13.237   5.348
68626W        W39226   2.359  40.037  12.928
68627W        W39227  43.532  27.990  10.609
68628W        W39228   8.859  44.030  11.639
68629W        W39229   7.231  18.740  12.007
68630W        W39230  27.918   4.435  13.883
68631W        W39231   5.239  31.253  12.843
68632W        W39232   4.321   3.482   0.805
68633W        W39233  42.876  31.934  10.981
68634W        W39234  33.092   6.199  14.360
68635W        W39235  23.597  16.889  12.124
68636W        W39236  43.817  20.241  11.591
68637W        W39237   0.953  35.993  14.555
68638W        W39238   2.359  36.161   2.234
68639W        W39239  34.882   6.320  10.682
68640W        W39240  26.640  26.066   3.288
68641W        W39241  16.952  44.925   4.665
68642W        W39242   3.346  36.541   0.702
68643W        W39243  10.431  16.714  11.542
68644W        W39244   8.702  11.621  13.487
68645W        W39245  38.845  33.521  11.161
68646W        W39246  14.076   9.907   0.908
68647W        W39247  30.212  36.552   4.655
68648W        W39248  35.145  33.250   0.350
68649W        W39249   3.013  33.545   3.971
68650W        W39250  27.577  33.211   1.721
68651W        W39251  41.411  24.146   2.354
68652W        W39252  24.132  42.115   4.153
68653W        W39253  27.268  44.265  14.924
68654W        W39254  22.681  15.752  14.140
68655W        W39255  12.801  30.467   0.571
68656W        W39256  36.448  15.591   4.533
68657W        W39257  13.488   3.064  11.279
68658W        W39258   3.296   9.550  11.667
68659W        W39259  35.356  21.146   4.043
68660W        W39260  28.710  24.875   1.187
68661W        W39261  29.722  11.873   2.800
68662W        W39262   6.341   3.451   0.812
68663W        W39263  41.880  38.139  12.382
68664W        W39264  25.097  27.067  12.519
68665W        W39265  17.040   0.800   1.851
68666W        W39266  25.418  18.265   1.231
68667W        W39267  32.164   7.212   1.267
68668W        W39268   3.128  30.225  11.450
68669W        W39269  12.927  37.193  14.330
68670W        W39270  32.357   5.159  12.525
68671W        W39271   7.557   1.993   3.888
68672W        W39272   5.970  14.156   4.071
68673W        W39273  37.143  38.471   2.428
68674W        W39274  40.463  42.084   0.391
68675W        W39275  16.441   1.157  13.362
68676W        W39276  17.692  37.818  12.918
68677W        W39277  42.015  31.893  13.860
68678W        W39278  32.542  27.172  13.174
68679W        W39279   3.432  19.986  13.328
68680W        W39280  18.457  27.157   3.562
68681W        W39281   7.947  24.087  12.093
68682W        W39282  21.377  43.779   5.101
68683W        W39283  43.407  36.366   0.045
68684W        W39284  41.329   8.258   1.849
68685W        W39285  18.345   3.776   1.285
68686W        W39286   8.891  16.476  13.352
68687W        W39287   7.974  18.329  11.331
68688W        W39288  37.704  40.419  10.984
68689W        W39289  13.396   1.808   1.237
68690W        W39290   6.628  24.245   1.160
68691W        W39291  30.383  34.658  13.357
68692W        W39292  39.545  13.732   3.261
68693W        W39293   3.710   3.610  12.172
68694W        W39294  22.578  24.201  10.699
68695W        W39295   0.495  44.472   2.361
68696W        W39296  19.507  13.612  14.509
68697W        W39297  24.093  22.759   0.485
68698W        W39298  39.991   8.916  10.980
68699W        W39299  24.270  40.566  12.923
68700W        W39300  37.356  20.657   4.863
68701W        W39301  42.974  12.054  14.792
68702W        W39302  37.939  42.258  12.989
68703W        W39303  18.765  13.169   4.911
68704W        W39304  14.154  12.906   0.651
68705W        W39305  33.437  44.172  11.604
68706W        W39306  43.036   7.206  13.984
68707W        W39307  24.772   1.885   2.187
68708W        W39308   0.679  36.140  12.901
68709W        W39309  26.587   3.060   0.928
68710W        W39310  11.199  37.323   3.988
68711W        W39311   7.278  35.541  11.603
68712W        W39312   8.932  23.489   0.263
68713W        W39313   0.426  24.719  11.515
68714W        W39314  37.598  24.241  10.225
68715W        W39315   4.677   4.207  13.981
68716W        W39316   9.106  12.742  11.423
68717W        W39317   3.054  41.077   3.732
68718W        W39318   2.493  29.393  12.372
68719W        W39319  13.050  36.126  14.834
68720W        W39320  17.115  41.666   2.799
68721W        W39321   9.533  44.480   0.849
68722W        W39322  24.392  33.153   3.493
68723W        W39323  33.865  12.206  14.323
68724W        W39324  24.394  26.458  14.957
68725W        W39325  17.523   0.724  13.985
68726W        W39326  18.032  34.608   1.868
68727W        W39327   6.216   2.701   1.538
68728W        W39328  31.540  38.939  10.666
68729W        W39329   0.803  23.519  13.681
68730W        W39330  19.200  30.021   3.294
68731W        W39331  18.671  10.115  12.580
68732W        W39332  22.379   9.398  10.795
68733W        W39333   0.977  25.894   2.329
68734W        W39334  34.350  23.349   0.353
68735W        W39335  11.104  18.117   2.401
68736W        W39336  29.242  31.295  14.895
68737W        W39337  16.808   1.749  11.226
68738W        W39338  31.547  25.215   4.961
68739W        W39339  24.496  31.068  13.178
68740W        W39340  44.746  13.440   2.630
68741W        W39341   9.083  25.526   4.288
68742W        W39342  20.259   9.532   4.700
68743W        W39343  14.877  43.489   0.299
68744W        W39344  38.924  29.020  14.385
68745W        W39345  13.034  19.751   0.250
68746W        W39346  31.757   1.712  11.307
68747W        W39347   9.266  41.023   0.256
68748W        W39348  43.715  33.669   0.931
68749W        W39349  25.023  21.738  13.440
68750W        W39350  16.716  38.035  13.997
68751W        W39351  17.250  20.145   3.785
68752W        W39352  42.970  15.222  12.232
68753W        W39353  10.373  21.246  11.676
68754W        W39354   1.994  36.055  11.150
68755W        W39355  29.580  16.820  13.535
68756W        W39356   1.450  13.658  14.037
68757W        W39357   1.634  15.328   0.134
68758W        W39358  14.649  10.185   1.375
68759W        W39359  38.537  18.211   2.371
68760W        W39360  43.913  17.351  14.437
68761W        W39361   7.131   8.489  11.884
68762W        W39362  37.410  15.212   1.425
68763W        W39363  23.170  13.339  11.045
68764W        W39364  27.111  32.682  14.362
68765W        W39365  32.883  10.254   1.776
68766W        W39366  27.405  13.204   2.954
68767W        W39367  11.222  15.135  12.007
68768W        W39368  10.114  11.258   3.642
68769W        W39369  32.367  39.810   1.141
68770W        W39370   3.250  43.825   2.051
68771W        W39371  31.940   8.196   2.685
68772W        W39372   6.657  42.399   2.203
68773W        W39373  43.904  34.628   4.733
68774W        W39374  17.749  43.305   2.754
68775W        W39375  41.299   5.716   1.901
68776W        W39376  42.709  12.353   2.140
68777W        W39377  38.351  13.698  11.237
68778W        W39378  11.238  41.961   1.822
68779W        W39379  38.459  18.420  10.171
68780W        W39380  23.951  39.818  13.498
68781W        W39381   3.507  44.558   3.724
68782W        W39382  22.455  24.419  11.290
68783W        W39383  10.384  22.305   9.529
68784W        W39384  10.330  34.047   0.801
68785W        W39385  11.870  22.334  10.220
68786W        W39386  26.438  43.944   4.580
68787W        W39387   3.059   0.014  11.182
68788W        W39388   4.827  35.486  14.476
68789W        W39389  12.091  21.670   4.648
68790W        W39390  37.036  32.127   0.054
68791W        W39391  13.114  13.295   3.547
68792W        W39392  28.035  25.185   2.829
68793W        W39393  28.852  11.354   1.206
68794W        W39394  34.399  43.811   3.675
68795W        W39395  28.730  20.549   1.281
68796W        W39396   2.914  26.538   4.610
68797W        W39397   0.176   4.164  14.628
68798W        W39398   0.005  16.650  12.992
68799W        W39399  20.749  44.782  14.972
68800W        W39400  17.842  35.873   2.365
68801W        W39401   8.887  43.459   5.097
68802W        W39402  25.057  18.266  13.402
68803W        W39403  34.534  13.256   2.408
68804W        W39404  36.732   8.948   4.304
68805W        W39405  17.128  27.866  12.897
68806W        W39406  15.547  40.808  12.447
68807W        W39407  30.467  41.104  13.387
68808W        W39408  31.710   4.704  14.009
68809W        W39409  16.656  19.583   3.188
68810W        W39410  38.544  26.590   9.972
68811W        W39411  17.120  20.225   1.469
68812W        W39412   9.698  25.045   3.112
68813W        W39413  38.528  36.506   1.610
68814W        W39414  18.489  35.107   1.413
68815W        W39415  30.435  41.008   0.789
68816W        W39416  34.829  19.526   5.021
68817W        W39417   5.890  25.770  14.606
68818W        W39418  40.564  33.346  13.866
68819W        W39419  33.932  37.281   3.621
68820W        W39420  15.366   6.279  11.465
68821W        W39421  23.985  13.516   4.222
68822W        W39422  26.724  36.057   1.904
68823W        W39423  34.481  33.577  11.422
68824W        W39424   8.578  21.227  12.911
68825W        W39425  30.898  11.177  11.832
68826W        W39426   4.393  43.374   2.421
68827W        W39427  14.186  40.534   1.334
68828W        W39428   3.795  13.099  11.171
68829W        W39429  39.482   9.812   0.170
68830W        W39430  39.719  22.499   4.019
68831W        W39431  17.654  10.416  14.841
68832W        W39432  30.628  26.098  12.882
68833W        W39433  38.484  21.733   3.220
68834W        W39434   1.300  37.305  11.969
68835W        W39435  31.674  44.319  11.102
68836W        W39436  35.633  13.681   3.205
68837W        W39437  27.504   9.237  11.575
68838W        W39438  30.151  31.660   1.304
68839W        W39439  20.296   2.989   1.848
68840W        W39440  39.299   8.309   2.350
68841W        W39441  18.680   4.895   3.118
68842W        W39442  20.274   7.541  10.252
68843W        W39443  26.925   5.340  11.239
68844W        W39444   6.660   7.059  11.668
68845W        W39445  10.854  22.631   3.670
68846W        W39446  20.000  28.000   3.306
68847W        W39447  38.035  25.574   1.837
68848W        W39448   4.921  36.484   0.895
68849W        W39449  28.832  12.089   3.137
68850W        W39450   9.183  42.895  11.167
68851W        W39451  19.512   7.393   0.304
68852W        W39452   6.878  11.389  14.506
68853W        W39453  33.731  38.118  14.193
68854W        W39454  42.617  16.593  14.965
68855W        W39455  23.267  42.674  14.174
68856W        W39456  44.816  11.854   1.744
68857W        W39457   6.844  37.487   0.362
68858W        W39458  14.192  25.887   0.077
68859W        W39459   7.700  18.211   2.303
68860W        W39460  40.772  36.363   1.119
68861W        W39461  44.645   8.107  10.642
68862W        W39462  41.750  25.747  11.255
68863W        W39463   3.708  36.985  11.509
68864W        W39464  11.309   2.436   0.445
68865W        W39465  41.429  31.604  10.810
68866W        W39466   7.326  44.448  10.310
68867W        W39467  14.285  38.514  10.575
68868W        W39468  14.946  30.023   2.799
68869W        W39469  30.826  25.484   1.860
68870W        W39470  19.088  18.115   1.779
68871W        W39471  17.258  14.910  12.182
68872W        W39472  32.639  24.197  11.083
68873W        W39473  10.613  41.803  14.798
68874W        W39474  14.387  41.917  10.772
68875W        W39475  24.098  11.133   1.261
68876W        W39476   8.536  38.242  10.545
68877W        W39477  41.296  16.760  11.650
68878W        W39478  38.317  23.597   3.166
68879W        W39479   4.662   5.133   0.505
68880W        W39480   4.816  40.364  13.127
68881W        W39481  14.044  15.833  13.789
68882W        W39482   9.764  24.551   0.870
68883W        W39483   6.173  22.005   1.293
68884W        W39484  16.947   7.661  14.263
68885W        W39485  28.016  32.893   1.842
68886W        W39486  21.713  33.937  12.025
68887W        W39487  15.825  12.111   0.038
68888W        W39488  20.492  24.560   2.589
68889W        W39489  13.673   0.937   1.780
68890W        W39490  42.506   7.414  11.638
68891W        W39491   0.441  20.299   3.153
68892W        W39492  36.280   9.392  10.919
68893W        W39493  21.512   3.909  11.550
68894W        W39494  33.913   9.699   4.158
68895W        W39495  32.655  24.716  11.063
68896W        W39496  31.993  41.737  13.481
68897W        W39497  33.465  13.347   1.458
68898W        W39498  12.903  24.484   2.187
68899W        W39499  29.189  31.278   1.764
68900W        W39500  37.006   7.754  12.587
68901W        W39501  29.563   6.340   0.041
68902W        W39502   1.296  27.611  13.416
68903W        W39503   9.227  13.629   0.311
68904W        W39504  19.238  27.665  13.369
68905W        W39505  24.512  43.764   5.588
68906W        W39506  39.841  19.534  14.343
68907W        W39507   6.641  24.732  14.853
68908W        W39508  20.071  22.470   4.164
68909W        W39509  26.135  36.909   4.266
68910W        W39510  13.669   4.322   0.517
68911W        W39511  22.319  12.865  11.892
68912W        W39512  22.170  12.539  11.541
68913W        W39513  39.845  27.982   2.591
68914W        W39514  29.759  43.823   3.138
68915W        W39515  17.417  30.883   4.044
68916W        W39516  18.586  20.683  10.546
68917W        W39517  27.925  44.841  13.408
68918W        W39518  22.115   8.079  12.816
68919W        W39519  26.936   0.172  11.589
68920W        W39520  36.336  14.346  10.136
68921W        W39521  20.770  33.954  10.827
68922W        W39522  10.716  24.288  10.813
68923W        W39523  38.118  31.141  13.536
68924W        W39524  14.640  33.080   1.736
68925W        W39525  35.990   1.367   3.927
68926W        W39526  39.045  35.535  12.083
68927W        W39527  20.141  29.542   4.667
68928W        W39528  38.485   1.781  12.446
68929W        W39529   6.284  10.195  12.569
68930W        W39530  41.871  21.894   3.841
68931W        W39531   5.728  24.940  13.503
68932W        W39532   6.043   2.536   2.750
68933W        W39533  39.877  43.195  13.803
68934W        W39534  17.230   1.276  10.641
68935W        W39535  30.114   6.766  11.641
68936W        W39536  30.429  34.984   1.141
68937W        W39537  14.153   4.302  12.833
68938W        W39538  34.010  25.322  11.588
68939W        W39539  16.772  32.294   0.395
68940W        W39540   3.717  37.999   2.883
68941W        W39541  15.842  36.255   1.270
68942W        W39542  26.714  13.566  11.235
68943W        W39543  12.070  24.182   3.268
68944W        W39544  43.957  13.146  14.979
68945W        W39545  26.918  37.925  12.548
68946W        W39546  16.355   9.201   3.263
68947W        W39547  22.954  26.549  11.586
68948W        W39548   0.728  24.218   1.216
68949W        W39549   9.107  18.443  14.726
68950W        W39550  43.079  44.544  14.829
68951W        W39551  39.302  21.605   3.700
68952W        W39552   6.996  18.386  13.410
68953W        W39553  10.421  31.917  13.048
68954W        W39554  21.792  43.494  12.848
68955W        W39555  11.697  29.604  10.970
68956W        W39556   5.018  16.187  10.979
68957W        W39557  33.063  44.566   1.235
68958W        W39558  37.014   5.735   3.310
68959W        W39559  34.470  36.359   2.693
68960W        W39560   4.129  11.654   1.766
68961W        W39561  38.839  40.597  12.497
68962W        W39562  43.898   3.931   3.302
68963W        W39563  18.492  23.087   4.235
68964W        W39564  25.037  39.433   0.286
68965W        W39565  34.815  40.257   1.831
68966W        W39566   4.208  32.387   4.526
68967W        W39567   8.405  20.655   1.079
68968W        W39568  26.409   5.191  12.118
68969W        W39569  14.095  43.610   4.887
68970W        W39570  23.143  33.171  13.916
68971W        W39571  10.254  44.342  11.108
68972W        W39572  11.202   5.116  14.798
68973W        W39573  23.359  24.638  12.433
68974W        W39574  41.410  13.937   1.182
68975W        W39575  31.109  29.127   2.169
68976W        W39576  40.448  25.921  14.389
68977W        W39577   9.397  31.405  14.699
68978W        W39578  29.489  35.094  12.219
68979W        W39579   6.911  26.932  14.432
68980W        W39580  16.071   6.721  11.020
68981W        W39581  36.942  33.456  12.846
68982W        W39582  37.408   1.712  11.000
68983W        W39583  32.680   7.160  12.028
68984W        W39584  13.370   7.206  13.339
68985W        W39585   5.492   1.758  13.898
68986W        W39586  37.972  39.273  12.610
68987W        W39587  15.111  30.184  12.912
68988W        W39588  30.094  23.454  11.586
68989W        W39589  36.893  43.805   0.962
68990W        W39590   0.214  23.108   0.270
68991W        W39591  12.138  32.696  11.552
68992W        W39592  24.922  29.679  14.876
68993W        W39593  20.657  43.534  10.942
68994W        W39594  22.559  40.487   4.564
68995W        W39595  16.987   2.329   1.585
68996W        W39596  23.583   6.464   4.566
68997W        W39597   6.131  38.350   1.295
68998W        W39598  36.854  23.570   3.400
68999W        W39599  38.041  12.121  13.281
69000W        W39600   5.227  38.144   2.869
69001W        W39601  28.928  41.210  11.183
69002W        W39602  28.970  21.590  11.414
69003W        W39603  32.454  39.097  13.447
69004W        W39604  25.503  33.912  14.160
69005W        W39605  30.978  22.230  13.889
69006W        W39606  25.051  31.974  11.997
69007W        W39607  28.513  27.686   1.639
69008W        W39608  34.926   0.273   1.677
69009W        W39609  15.493  17.963   2.876
69010W        W39610  24.993  22.763   1.322
69011W        W39611  15.648  27.727  14.719
69012W        W39612  29.133  44.873   4.495
69013W        W39613   7.666  21.129   1.433
69014W        W39614  18.789  29.972   2.329
69015W        W39615  10.092  44.476  13.875
69016W        W39616  23.688   7.816  14.128
69017W        W39617   2.319   9.976  13.036
69018W        W39618  24.757  35.405  11.891
69019W        W39619  17.705  35.912   4.486
69020W        W39620   3.358  36.535  14.278
69021W        W39621  28.874  36.047   2.307
69022W        W39622  34.518  34.430  13.565
69023W        W39623  43.865  38.190   0.840
69024W        W39624  19.675  20.406   3.267
69025W        W39625  41.489   8.652   3.108
69026W        W39626  19.030   3.926  12.660
69027W        W39627  32.597  28.372  14.390
69028W        W39628  30.629  19.915  12.482
69029W        W39629  39.712  23.690  12.094
69030W        W39630  17.300  35.981  13.577
69031W        W39631  22.914  24.458  11.554
69032W        W39632  32.863  26.134  13.771
69033W        W39633  25.000  29.399  13.041
69034W        W39634  11.185  32.627  10.689
69035W        W39635  21.763  23.552   0.460
69036W        W39636   3.470   7.798  13.345
69037W        W39637   0.766  14.737   4.642
69038W        W39638   0.946  11.470   1.132
69039W        W39639  35.127  12.603  14.008
69040W        W39640   4.079  43.722  14.379
69041W        W39641   2.577  33.717  14.454
69042W        W39642  18.579  24.958  11.630
69043W        W39643  35.646  39.557  10.718
69044W        W39644  31.523  12.582   0.747
69045W        W39645  28.642  21.218  11.293
69046W        W39646  16.460  10.975  14.218
69047W        W39647  42.811  19.863   1.232
69048W        W39648   8.409  42.535   4.332
69049W        W39649  40.538  12.709   1.733
69050W        W39650   3.024  12.249   0.192
69051W        W39651  21.709  39.024   4.649
69052W        W39652  24.263  36.692   2.393
69053W        W39653  26.159   8.903   5.155
69054W        W39654  38.030   8.090   1.728
69055W        W39655  22.257   2.089   3.325
69056W        W39656  39.166   4.873  12.863
69057W        W39657  27.972  40.723   4.073
69058W        W39658   9.253  41.122   1.183
69059W        W39659   6.187   1.697  12.952
69060W        W39660  14.568  30.001   0.036
69061W        W39661  37.093   4.195   4.878
69062W        W39662   2.800  32.728   4.837
69063W        W39663  36.429  35.324  14.352
69064W        W39664  24.805   7.222   2.093
69065W        W39665   8.597  42.163  14.853
69066W        W39666  42.509   0.340   1.480
69067W        W39667  31.737  42.688  14.769
69068W        W39668  30.057  24.558   3.114
69069W        W39669  28.144  25.162  12.230
69070W        W39670  27.264  35.619  11.393
69071W        W39671  19.784  19.980   0.019
69072W        W39672  39.872   9.843  10.813
69073W        W39673   1.779  35.652   2.797
69074W        W39674  24.263  18.784   2.766
69075W        W39675   9.687  10.201   1.405
69076W        W39676  33.391  13.267   2.757
69077W        W39677   9.160  44.391   9.984
69078W        W39678  14.219  18.660   3.824
69079W        W39679  26.520  27.945   2.329
69080W        W39680  33.159  22.298   2.131
69081W        W39681  43.788  27.898   4.022
69082W        W39682   4.231  43.446  13.509
69083W        W39683   2.687   0.564  13.771
69084W        W39684  24.157  19.528   5.081
69085W        W39685  42.365  30.115   1.690
69086W        W39686  30.973   7.587   3.154
69087W        W39687  33.815  24.844  11.657
69088W        W39688  20.112  24.773   4.170
69089W        W39689  42.078  20.381   4.858
69090W        W39690  42.912  39.912  14.505
69091W        W39691  12.202  11.358   1.964
69092W        W39692   4.643  13.641   0.434
69093W        W39693  24.517  23.673  14.487
69094W        W39694  16.953  33.653   0.232
69095W        W39695  31.326  32.532   1.738
69096W        W39696  20.620  19.719   3.112
69097W        W39697  33.455  17.574  11.046
69098W        W39698  44.705   7.202  13.384
69099W        W39699  38.654  15.062  11.607
69100W        W39700  33.251  26.969   4.944
69101W        W39701   3.183   3.267  12.401
69102W        W39702  10.133  11.715  14.361
69103W        W39703  16.700  32.901   0.439
69104W        W39704  34.874   0.906  12.009
69105W        W39705  33.512  36.850  11.717
69106W        W39706  40.168  30.643   3.661
69107W        W39707  39.756  26.482   2.493
69108W        W39708  11.442  13.512  11.154
69109W        W39709  37.202  30.615   2.729
69110W        W39710  15.165   2.420   1.065
69111W        W39711   1.447  30.425  10.964
69112W        W39712   7.741  21.702   2.381
69113W        W39713   9.219  16.865   3.092
69114W        W39714  33.773  26.223   4.949
69115W        W39715   2.604  15.718  12.533
69116W        W39716  39.800  38.977   2.595
69117W        W39717  18.705   8.711  11.995
69118W        W39718  27.439  18.130   1.437
69119W        W39719   2.993  41.633  10.649
69120W        W39720  21.006  10.672   1.962
69121W        W39721  26.996  42.961  11.889
69122W        W39722   9.298   4.569   3.220
69123W        W39723   3.781   2.414   1.308
69124W        W39724   7.253   9.775   2.179
69125W        W39725  24.691  38.558  12.396
69126W        W39726  24.246   5.254  10.747
69127W        W39727  27.432  35.991   1.231
69128W        W39728  40.880  23.449   1.218
69129W        W39729  21.657   9.823   2.696
69130W        W39730  42.317  22.312  11.935
69131W        W39731  40.448  15.254  13.887
69132W        W39732  33.907  38.295  12.578
69133W        W39733  11.813   6.451  12.648
69134W        W39734  25.583  25.984   3.243
69135W        W39735  29.801  25.311  11.194
69136W        W39736  26.449   8.223  13.503
69137W        W39737  18.194  31.096  11.416
69138W        W39738  19.339   0.174   0.382
69139W        W39739  17.236  29.467  13.511
69140W        W39740  24.038  29.185  10.667
69141W        W39741  15.407  21.447   4.740
69142W        W39742  44.285  31.017  12.442
69143W        W39743  11.431  12.225  10.469
69144W        W39744  16.191  18.043   0.821
69145W        W39745  38.968  33.990  11.923
69146W        W39746   3.941  29.984   1.737
69147W        W39747  29.887  42.855  12.911
69148W        W39748  36.499  32.604  13.849
69149W        W39749  30.650  33.544   2.526
69150W        W39750  18.133   3.975  11.058
69151W        W39751  13.229  36.859   0.275
69152W        W39752  34.885  44.521  14.453
69153W        W39753   3.819  26.176  10.748
69154W        W39754  17.152  36.805  14.415
69155W        W39755  33.509  21.176  10.687
69156W        W39756  32.097  16.893  12.008
69157W        W39757  15.296  17.034   1.683
69158W        W39758  38.941  27.402   0.325
69159W        W39759  33.038  28.414  12.868
69160W        W39760  25.043  34.008  12.444
69161W        W39761  43.365   4.111  11.022
69162W        W39762  37.093  40.520   3.675
69163W        W39763  18.464   8.058   5.153
69164W        W39764  36.445  24.373   2.438
69165W        W39765   4.995  22.255   0.683
69166W        W39766  33.865  14.206  14.338
69167W        W39767  26.733   8.974   1.270
69168W        W39768  17.176   3.240   0.409
69169W        W39769  14.096  30.168   3.217
69170W        W39770   2.319   4.749  10.818
69171W        W39771  20.527  33.384  12.381
69172W        W39772  16.262  22.721  10.695
69173W        W39773  16.320  30.918  14.369
69174W        W39774  13.118   4.678   4.996
69175W        W39775  24.756  41.617  11.200
69176W        W39776  44.518  10.790   3.305
69177W        W39777  44.952  26.745   2.359
69178W        W39778  42.515  26.326   1.410
69179W        W39779   1.946  11.040   1.467
69180W        W39780   7.975   7.378   2.193
69181W        W39781  34.473  37.831   1.895
69182W        W39782  37.357  39.577   1.730
69183W        W39783  24.874  25.490   1.689
69184W        W39784  24.924  44.144   2.382
69185W        W39785  15.785  40.425  12.711
69186W        W39786  20.069  19.681   0.954
69187W        W39787  27.864  37.184  14.296
69188W        W39788  31.125  22.262  10.434
69189W        W39789  36.942  10.166  12.858
69190W        W39790  13.094   7.244  12.861
69191W        W39791  42.652   2.307  14.770
69192W        W39792  17.239  32.333   3.136
69193W        W39793  44.445   1.631   2.837
69194W        W39794  16.359  21.017  13.752
69195W        W39795  28.995   0.760   4.369
69196W        W39796  26.626  44.531   3.818
69197W        W39797  22.953  19.779   3.789
69198W        W39798  30.136  40.155  14.813
69199W        W39799  41.589  39.914  11.517
69200W        W39800  12.393  36.282  12.021
69201W        W39801   5.173  14.540   1.472
69202W        W39802  23.496  33.762  14.463
69203W        W39803  37.536  34.430   4.719
69204W        W39804  44.861  41.909   3.871
69205W        W39805  18.120  21.752  14.436
69206W        W39806  26.865  37.763  11.544
69207W        W39807  15.441  31.822   2.649
69208W        W39808   1.797  14.770   1.715
69209W        W39809   8.763  37.540  12.024
69210W        W39810   9.930  31.876   0.380
69211W        W39811   7.989  10.227   2.723
69212W        W39812  32.665  22.519   3.717
69213W        W39813  15.232  37.345   3.772
69214W        W39814  35.398  29.628  12.293
69215W        W39815  43.859  13.405   1.966
69216W        W39816   4.929  35.029  11.991
69217W        W39817   0.710  15.297   0.288
69218W        W39818  22.533  23.234  12.847
69219W        W39819  19.254  41.346  11.973
69220W        W39820  15.814  24.491  12.381
69221W        W39821  31.596  20.736  13.535
69222W        W39822   3.633   1.511  12.336
69223W        W39823  23.423  11.368   0.869
69224W        W39824   0.253  12.199  10.741
69225W        W39825  17.132  40.762   3.682
69226W        W39826  12.625   8.215   4.081
69227W        W39827  12.340  21.591  12.940
69228W        W39828  37.853   0.236   2.836
69229W        W39829   8.509  27.548  14.818
69230W        W39830  15.792  18.517   3.613
69231W        W39831  21.910  29.660  12.032
69232W        W39832  16.466  21.275   3.752
69233W        W39833  24.192  13.704   1.649
69234W        W39834  12.051  34.984   2.862
69235W        W39835  25.074  16.270   2.885
69236W        W39836  14.431   3.299  13.662
69237W        W39837   0.807   9.452   0.895
69238W        W39838  40.149  29.022   3.818
69239W        W39839  15.097  17.888   4.043
69240W        W39840  39.241  44.048   4.140
69241W        W39841  34.412  11.041  12.161
69242W        W39842   2.521  18.561  14.916
69243W        W39843   1.429  31.248  12.408
69244W        W39844  13.195  10.693  13.081
69245W        W39845  42.141   4.240   0.879
69246W        W39846  28.450  29.234   1.997
69247W        W39847   3.311  30.179   1.213
69248W        W39848  15.247  20.973   2.850
69249W        W39849   0.374  29.904  11.933
69250W        W39850   2.744  10.777  11.397
69251W        W39851  15.129  34.808   0.163
69252W        W39852  17.632  21.078  13.377
69253W        W39853  34.129   4.455   3.996
69254W        W39854  39.910  25.790  13.387
69255W        W39855  36.374  25.894  11.625
69256W        W39856   5.301   2.381  10.634
69257W        W39857  22.672  11.637  12.020
69258W        W39858   7.670  33.033   1.313
69259W        W39859  40.001   1.398  13.136
69260W        W39860   1.956  34.587   3.761
69261W        W39861  24.052  22.790   4.601
69262W        W39862  24.034  43.384   4.562
69263W        W39863  19.737  33.874   4.851
69264W        W39864  18.111  19.831   3.206
69265W        W39865  19.794   0.430   1.790
69266W        W39866  39.304  43.759  12.556
69267W        W39867   8.674  16.327  13.974
69268W        W39868  17.806  12.830  14.588
69269W        W39869  12.765  36.628  12.121
69270W        W39870  11.020   7.463   0.087
69271W        W39871  37.358   0.401  11.439
69272W        W39872  25.669  22.275  10.492
69273W        W39873  42.570  31.334  13.406
69274W        W39874   2.530   7.364  13.359
69275W        W39875  32.685  40.793  14.306
69276W        W39876  11.386  16.864  11.278
69277W        W39877   3.398  26.799   2.506
69278W        W39878  41.297  30.512  12.152
69279W        W39879  38.849  23.651   2.907
69280W        W39880  24.040  35.965  12.039
69281W        W39881  18.732   4.424   3.335
69282W        W39882  36.503  16.886  14.477
69283W        W39883  37.352  37.544   9.940
69284W        W39884  23.326  23.310   4.132
69285W        W39885  18.338  37.168   4.176
69286W        W39886  27.165  29.738  11.113
69287W        W39887  16.658   9.385  14.014
69288W        W39888  31.548  10.169  14.024
69289W        W39889  11.669  40.460  14.710
69290W        W39890  34.855  23.963   3.730
69291W        W39891  26.191  41.706   3.980
69292W        W39892   9.913  24.609   1.369
69293W        W39893  39.535  23.057   1.508
69294W        W39894  43.357  33.159  13.950
69295W        W39895  26.030  28.974  12.925
69296W        W39896  12.829  34.844   0.246
69297W        W39897  41.308  36.624   0.308
69298W        W39898  30.605  34.044   3.181
69299W        W39899  23.310  39.394  12.128
69300W        W39900  10.229  29.308  13.847
69301W        W39901  42.527  24.092  10.706
69302W        W39902   1.540   7.157  12.571
69303W        W39903  26.159   0.243   3.617
69304W        W39904   1.074   1.874   2.177
69305W        W39905  37.946  14.071  11.164
69306W        W39906  16.834  30.401  13.939
69307W        W39907   3.830  41.334  13.957
69308W        W39908  21.170  38.722   4.235
69309W        W39909  27.727  38.045   4.552
69310W        W39910  17.468   6.518   2.314
69311W        W39911  29.341  40.419   3.927
69312W        W39912   8.846   8.452  11.542
69313W        W39913  37.802  13.607  11.264
69314W        W39914   3.833   7.136  11.513
69315W        W39915  34.660  10.728  11.402
69316W        W39916  44.807  28.934  13.174
69317W        W39917  40.402  34.579   0.136
69318W        W39918  21.446  43.449  14.154
69319W        W39919  29.720  31.077  14.763
69320W        W39920  40.970   1.938  14.359
69321W        W39921  26.400  31.330  13.998
69322W        W39922  42.840  19.261   3.584
69323W        W39923  21.729  16.646  11.069
69324W        W39924  28.959   6.897   1.723
69325W        W39925  32.353  23.655   4.123
69326W        W39926  11.324  21.180  14.417
69327W        W39927   9.862  26.491   2.260
69328W        W39928  19.787  42.436  14.770
69329W        W39929  42.721  40.554   0.803
69330W        W39930   0.357  16.359  10.667
69331W        W39931  29.397  42.286  13.817
69332W        W39932  44.432   7.919  14.869
69333W        W39933   9.731  43.040  13.345
69334W        W39934  34.787   4.864   4.833
69335W        W39935  10.336   4.373  10.835
69336W        W39936   4.279  41.936   4.202
69337W        W39937  44.071  23.408  11.795
69338W        W39938  24.924  42.819  14.825
69339W        W39939  24.553   9.926   1.904
69340W        W39940  41.696  15.672   3.610
69341W        W39941   3.741  39.731   0.305
69342W        W39942  44.381  26.675   1.098
69343W        W39943  17.119  18.212   3.648
69344W        W39944  36.999  44.524  14.866
69345W        W39945  41.329   5.971  13.590
69346W        W39946   1.877  15.708   3.452
69347W        W39947   7.237  37.008  13.601
69348W        W39948  43.149  29.520   3.572
69349W        W39949  30.363  43.247  13.748
69350W        W39950   7.883   4.443   3.044
69351W        W39951  39.940  27.011   2.879
69352W        W39952  26.637  22.278  12.572
69353W        W39953  23.293  35.107  13.504
69354W        W39954  21.917   6.297  12.797
69355W        W39955  11.692  18.980   1.877
69356W        W39956   0.894  24.688   3.710
69357W        W39957  13.325  40.079  14.694
69358W        W39958  39.432  35.534  12.891
69359W        W39959  34.978  44.246   0.345
69360W        W39960  12.896   2.262   0.135
69361W        W39961   3.107   3.861  11.669
69362W        W39962  43.726  39.419   2.456
69363W        W39963  39.556  10.242  10.678
69364W        W39964  14.720  32.396  14.907
69365W        W39965  41.955  31.351   0.771
69366W        W39966  17.690  10.221   2.743
69367W        W39967  18.616  42.232  11.514
69368W        W39968  27.123  10.424  11.192
69369W        W39969  44.219  19.950  11.707
69370W        W39970  38.866  40.288   3.767
69371W        W39971  44.785   5.262  14.321
69372W        W39972  10.739  31.535  14.716
69373W        W39973  30.062  30.875   1.667
69374W        W39974   0.943  22.080   1.432
69375W        W39975  10.711  33.454   0.896
69376W        W39976  12.366  35.854  12.429
69377W        W39977  16.782   2.717  13.005
69378W        W39978  21.766   7.865   0.956
69379W        W39979  42.430  10.806  14.707
69380W        W39980  20.774   7.391  10.172
69381W        W39981  19.236  17.251  14.796
69382W        W39982  16.505  34.878   1.816
69383W        W39983  36.370  33.265   2.255
69384W        W39984  25.671  20.486   4.682
69385W        W39985  26.969  14.297   2.919
69386W        W39986   8.432  44.368  11.892
69387W        W39987  17.749  36.940  12.961
69388W        W39988  23.115  20.298   3.293
69389W        W39989  22.437  42.924  12.550
69390W        W39990  42.387  18.178  11.163
69391W        W39991  19.486  36.693   2.160
69392W        W39992  41.338  34.349   2.267
69393W        W39993  22.242  22.176   4.725
69394W        W39994   3.928  41.109  13.481
69395W        W39995   4.548  27.198  12.795
69396W        W39996  41.055  33.617   4.790
69397W        W39997  10.773   3.570   3.809
69398W        W39998   2.467  43.857  11.589
69399W        W39999   7.816   6.306  14.710
69400W        W40000   8.896  19.516  11.743
69401W        W40001  31.835   4.663   0.140
69402W        W40002   0.971  15.664   2.336
69403W        W40003  38.836   9.109  10.114
69404W        W40004  35.920   1.137   2.157
69405W        W40005   6.962   5.415   3.154
69406W        W40006  18.144  16.133  13.427
69407W        W40007   3.735  25.723  14.898
69408W        W40008  29.382  24.871  13.358
69409W        W40009  35.056  24.052   1.902
69410W        W40010  23.095  12.824  10.297
69411W        W40011  43.958   4.899  14.452
69412W        W40012  32.108  11.254   0.091
69413W        W40013  44.417  19.285   4.285
69414W        W40014  22.710  17.197  10.680
69415W        W40015  40.867  12.406  13.312
69416W        W40016  21.196  13.158  13.144
69417W        W40017  33.433   9.111  14.367
69418W        W40018  35.332  28.199   1.910
69419W        W40019  42.349   1.728  13.387
69420W        W40020  14.307  27.612   2.727
69421W        W40021  30.758  17.057  11.387
69422W        W40022  18.772  33.421  13.008
69423W        W40023   7.249  23.026   4.633
69424W        W40024  32.021  34.950  12.969
69425W        W40025  33.650  41.910  14.394
69426W        W40026  43.312  40.434  11.848
69427W        W40027   8.777  30.521   1.369
69428W        W40028  22.232  42.385   3.632
69429W        W40029  38.412  44.852  10.686
69430W        W40030  24.635   9.347   2.796
69431W        W40031  26.044   6.430   1.196
69432W        W40032   9.898  20.046  13.195
69433W        W40033   2.986  43.977   0.695
69434W        W40034  19.270  15.627   2.864
69435W        W40035  35.442  39.588   2.361
69436W        W40036  36.423  37.858   2.335
69437W        W40037  17.700  43.438  12.821
69438W        W40038  35.258  23.003  13.997
69439W        W40039   4.134   1.408  14.848
69440W        W40040   1.017  25.101   4.317
69441W        W40041  24.496  13.236   1.795
69442W        W40042  16.015  16.246  12.043
69443W        W40043  32.717   0.824  11.190
69444W        W40044  23.032  13.470   1.774
69445W        W40045  41.589   4.723   3.251
69446W        W40046  32.960   3.436  13.520
69447W        W40047  19.747   9.869   3.559
69448W        W40048   8.636  14.599   2.357
69449W        W40049   2.396  39.621  14.440
69450W        W40050  16.069   7.085  13.480
69451W        W40051   1.501   9.917  14.890
69452W        W40052  16.104   5.832   2.677
69453W        W40053  17.881  22.420  14.034
69454W        W40054  39.695   2.585   2.749
69455W        W40055  33.924  38.328  14.744
69456W        W40056  27.200  38.893  13.866
69457W        W40057  33.166  25.738   0.361
69458W        W40058  12.272  22.896  14.068
69459W        W40059  27.773  43.617   2.197
69460W        W40060  17.162   4.436  13.640
69461W        W40061  19.654  27.150   0.716
69462W        W40062  32.082   3.261   4.377
69463W        W40063  25.702  21.252   1.947
69464W        W40064  32.592  29.370  10.968
69465W        W40065  43.071  17.784  11.167
69466W        W40066  15.520  15.729   0.380
69467W        W40067  44.907   7.196   0.617
69468W        W40068  31.466  40.028  12.599
69469W        W40069   0.903  13.334  14.100
69470W        W40070   6.635   0.306  11.463
69471W        W40071   6.283  23.380  10.829
69472W        W40072   2.677  30.605   0.960
69473W        W40073  28.367   6.844   0.275
69474W        W40074   9.662   8.967   3.444
69475W        W40075  21.067  36.857  11.149
69476W        W40076  12.395   7.769   4.049
69477W        W40077  38.492   1.724  13.961
69478W        W40078  10.575  26.530   1.653
69479W        W40079   2.356  20.030   4.309
69480W        W40080  44.361  22.322   9.799
69481W        W40081  26.421  39.396  13.778
69482W        W40082  30.481  41.837  11.904
69483W        W40083  33.640  19.108  13.986
69484W        W40084  27.873  33.315  14.535
69485W        W40085  30.055  21.272   4.206
69486W        W40086   1.184  34.298  13.429
69487W        W40087  10.310  21.902  10.705
69488W        W40088  14.834  14.738  11.988
69489W        W40089  43.058  24.114  10.658
69490W        W40090  13.335   2.784   2.751
69491W        W40091  44.351   4.387   2.200
69492W        W40092  39.410  20.239   4.079
69493W        W40093  36.418  27.062   0.354
69494W        W40094  11.580  36.857  11.147
69495W        W40095   7.242  39.470   3.220
69496W        W40096  43.278  29.226  10.589
69497W        W40097   7.362  35.173  13.225
69498W        W40098   6.326  36.497   4.667
69499W        W40099  17.882  35.617   2.830
69500W        W40100   0.742  11.382  10.722
69501W        W40101  43.845  20.446  14.081
69502W        W40102  39.346  13.847  11.217
69503W        W40103  11.779  35.421   2.912
69504W        W40104  19.671   0.367  14.344
69505W        W40105  16.550  14.577   2.215
69506W        W40106  34.062  15.320   3.262
69507W        W40107  39.460   1.403  12.533
69508W        W40108  16.270  36.595   1.327
69509W        W40109  35.049  19.162   0.285
69510W        W40110  12.191  35.439   2.619
69511W        W40111  38.548  40.484  12.068
69512W        W40112  42.639  38.543   1.456
69513W        W40113  24.581   9.017  14.705
69514W        W40114  33.137   1.730   2.358
69515W        W40115   9.679  23.565   1.972
69516W        W40116  34.613   2.898   1.492
69517W        W40117  14.270  12.889  10.084
69518W        W40118   0.691  22.473   1.765
69519W        W40119  20.065   7.664   3.740
69520W        W40120   4.990  31.980   4.024
69521W        W40121  29.949  23.297  14.892
69522W        W40122  27.970  33.745   3.269
69523W        W40123  30.127  11.711  11.604
69524W        W40124  42.057  31.533  11.619
69525W        W40125   9.044   1.307   0.669
69526W        W40126  41.812  20.775   2.723
69527W        W40127  11.900  32.505  14.754
69528W        W40128   7.287  20.714   2.688
69529W        W40129   4.637  23.920   1.841
69530W        W40130   1.970  10.827   2.761
69531W        W40131   5.833  11.222   3.490
69532W        W40132  41.445  21.040  13.288
69533W        W40133  32.628  21.711  12.517
69534W        W40134  24.463  26.708  10.531
69535W        W40135   6.039  24.059  13.922
69536W        W40136  40.290   9.367   2.913
69537W        W40137  13.166  43.432   0.105
69538W        W40138  17.124  32.870  10.206
69539W        W40139  15.787  32.782  13.641
69540W        W40140  41.017  44.970  12.069
69541W        W40141  35.684  32.389   4.161
69542W        W40142   7.857   2.389  13.932
69543W        W40143  14.152   1.896  12.596
69544W        W40144   2.255  32.541  14.003
69545W        W40145  20.530  27.742   5.019
69546W        W40146  23.780   5.053  11.603
69547W        W40147  16.248   7.691  10.775
69548W        W40148  37.574   2.146   3.556
69549W        W40149  39.020   3.850   3.432
69550W        W40150  20.904  40.198   2.205
69551W        W40151  41.454  40.958   4.836
69552W        W40152  21.970  10.645  13.642
69553W        W40153   2.389  10.928  11.013
69554W        W40154   4.471   6.319  12.333
69555W        W40155  36.107  19.681   0.744
69556W        W40156  10.583  13.247  13.939
69557W        W40157  39.257   7.284  13.915
69558W        W40158  40.486  11.846  14.920
69559W        W40159  18.284   7.892   4.694
69560W        W40160  10.804  26.839   2.409
69561W        W40161  11.005  42.399  10.477
69562W        W40162  11.699  10.415   1.191
69563W        W40163  10.749  29.402   4.704
69564W        W40164  19.640  26.186  12.781
69565W        W40165  13.592  29.121   2.184
69566W        W40166  41.993   3.666  13.125
69567W        W40167   5.005  22.440  12.603
69568W        W40168  36.358  40.103  11.180
69569W        W40169  18.271  43.385  11.060
69570W        W40170  18.011  44.854  13.447
69571W        W40171   8.296  41.233  13.492
69572W        W40172  14.770   6.371   4.205
69573W        W40173  37.392   5.356  13.429
69574W        W40174  26.998   5.838  11.266
69575W        W40175  21.496  11.063   0.249
69576W        W40176  30.867   8.687   2.541
69577W        W40177  43.497  10.709   1.075
69578W        W40178  21.012  23.526  11.048
69579W        W40179  21.088  25.171  12.451
69580W        W40180   7.241   0.700   4.092
69581W        W40181  23.369  23.015   4.612
69582W        W40182  33.133  13.889   1.709
69583W        W40183   8.062   2.722   1.804
69584W        W40184  20.423  16.276  13.917
69585W        W40185  28.343  12.174   4.257
69586W        W40186   3.873   4.253  10.957
69587W        W40187  21.282  20.534  11.247
69588W        W40188  25.185   2.773  11.313
69589W        W40189   1.611  28.746   4.264
69590W        W40190   6.309   8.179   2.402
69591W        W40191   8.111  32.039   0.715
69592W        W40192   2.148   7.920   2.900
69593W        W40193   7.966   2.431  12.129
69594W        W40194  24.062   9.413  12.883
69595W        W40195  41.134  11.256  13.756
69596W        W40196  42.860  34.446   3.666
69597W        W40197  20.739   9.618  13.688
69598W        W40198  31.433   7.851   1.330
69599W        W40199  13.986  40.307   4.810
69600W        W40200  26.753  31.350  14.370
69601W        W40201  16.703  21.906  13.390
69602W        W40202  27.872  36.327  12.556
69603W        W40203  24.988  12.699   2.882
69604W        W40204  38.843  34.570   2.140
69605W        W40205  20.142  12.888   4.532
69606W        W40206  16.996  24.014  14.882
69607W        W40207  41.560  17.947   4.082
69608W        W40208  25.104   5.281   3.594
69609W        W40209  35.814  21.001  12.283
69610W        W40210  18.657  28.322   5.105
69611W        W40211  25.091   9.096   2.755
69612W        W40212  30.555  28.721   1.934
69613W        W40213  37.594  26.068   2.838
69614W        W40214   8.841  42.510  11.150
69615W        W40215   6.874  35.050  12.446
69616W        W40216  12.614   1.734   2.770
69617W        W40217   2.475  39.140  11.095
69618W        W40218  44.051  40.412  13.396
69619W        W40219  36.137   5.253  12.117
69620W        W40220  21.172  36.293   4.128
69621W        W40221   7.305  23.516   4.364
69622W        W40222  28.633  15.541   2.201
69623W        W40223  22.346  32.835  11.130
69624W        W40224  29.035  18.307   1.461
69625W        W40225  22.086   2.004  11.735
69626W        W40226  32.106  13.092  14.747
69627W        W40227  18.039  33.637   1.702
69628W        W40228   1.770  31.640  14.066
69629W        W40229  28.913  13.607  13.552
69630W        W40230  28.900  17.034   4.760
69631W        W40231  18.142   7.982  12.116
69632W        W40232  26.544   9.270   2.573
69633W        W40233  16.320  23.481  11.951
69634W        W40234  13.396  21.413  13.759
69635W        W40235  16.897  27.215  12.144
69636W        W40236  40.635  27.555  12.914
69637W        W40237  33.399   3.132  14.758
69638W        W40238  27.672  42.812  11.721
69639W        W40239  22.701  38.374   1.208
69640W        W40240   4.646  34.556  13.029
69641W        W40241  27.978  21.704  10.852
69642W        W40242  16.948  33.092   3.843
69643W        W40243  44.848  28.270   4.163
69644W        W40244  12.799  35.803   2.115
69645W        W40245  40.451  10.786   4.788
69646W        W40246  39.954  39.946  13.884
69647W        W40247  35.465  43.052   3.633
69648W        W40248   3.224  10.604  12.656
69649W        W40249  44.793  40.704  11.107
69650W        W40250  27.409  35.207  10.638
69651W        W40251   4.216  19.118   1.321
69652W        W40252  27.989  43.115   4.695
69653W        W40253  22.104  38.156  12.193
69654W        W40254  37.925  44.605  13.357
69655W        W40255  21.096  22.555  11.732
69656W        W40256  13.374   2.368  12.027
69657W        W40257  34.421  20.607  11.264
69658W        W40258  19.092  35.058  12.441
69659W        W40259  36.623  42.302  14.149
69660W        W40260  14.480  43.216   2.674
69661W        W40261  40.510  33.139   4.352
69662W        W40262  15.982  30.761   4.159
69663W        W40263  35.924  35.511  14.436
69664W        W40264  32.946  27.596   3.664
69665W        W40265  15.366  33.049  13.606
69666W        W40266  14.454  37.810   3.511
69667W        W40267  38.742  38.852   3.748
69668W        W40268  22.209  19.199   1.276
69669W        W40269  17.957  26.757  11.634
69670W        W40270  37.426  41.322   4.822
69671W        W40271  13.179  15.329  11.759
69672W        W40272  24.671   1.004  11.110
69673W        W40273  26.198  30.213  12.564
69674W        W40274  32.001  11.586   2.819
69675W        W40275  38.824   7.870  12.968
69676W        W40276  43.201  37.396   0.832
69677W        W40277  28.306   2.727   4.799
69678W        W40278  30.442  18.710   4.629
69679W        W40279  35.043  42.049  13.583
69680W        W40280  18.986  24.953   3.094
69681W        W40281  15.018  10.354  10.045
69682W        W40282  18.681   5.421  10.487
69683W        W40283  10.999  10.892   3.643
69684W        W40284  39.523  11.477  14.789
69685W        W40285   2.852  17.886   2.912
69686W        W40286  17.393  39.326  10.200
69687W        W40287  21.163  23.060   0.497
69688W        W40288  14.406  39.583   3.200
69689W        W40289  30.220  10.059   2.255
69690W        W40290   4.682  13.161   3.591
69691W        W40291   3.699  42.969   1.172
69692W        W40292   1.447  29.673   2.777
69693W        W40293   2.872  29.704  14.714
69694W        W40294  25.356  10.225  14.401
69695W        W40295  32.900  16.868   0.633
69696W        W40296  28.692   3.120   4.233
69697W        W40297  44.319  40.284   2.412
69698W        W40298  36.964  40.030  14.917
69699W        W40299  32.008  20.594  14.296
69700W        W40300  34.914  25.040   2.725
69701W        W40301  44.009   2.979  12.540
69702W        W40302  43.491  29.887   4.704
69703W        W40303  28.086   9.428   1.388
69704W        W40304  10.388  26.449   3.783
69705W        W40305  44.274  36.805   3.103
69706W        W40306  19.183   3.176   4.667
69707W        W40307  29.442   8.817   3.643
69708W        W40308  33.573  25.223  12.540
69709W        W40309  11.665   7.932  12.613
69710W        W40310   9.655   0.807  11.071
69711W        W40311  35.478  30.062   0.560
69712W        W40312  38.804  41.520  12.455
69713W        W40313  23.613  22.943   0.273
69714W        W40314  12.572   1.995   2.324
69715W        W40315  13.557  21.076   2.268
69716W        W40316   6.463  22.047  12.099
69717W        W40317  26.450  30.241   3.589
69718W        W40318  24.450  37.941  11.614
69719W        W40319  16.118   8.831   2.112
69720W        W40320   0.525   4.365  12.022
69721W        W40321  19.113  26.648  11.990
69722W        W40322  15.946  44.538  14.443
69723W        W40323  40.352   0.514   2.894
69724W        W40324   8.005  40.036   0.908
69725W        W40325  35.980  27.059  11.189
69726W        W40326  32.156  11.531  11.641
69727W        W40327  13.272  36.003   2.240
69728W        W40328  30.808   0.822   1.813
69729W        W40329  35.148   0.466  14.311
69730W        W40330   7.867  28.230   1.754
69731W        W40331   7.183  35.355  14.624
69732W        W40332  28.902  39.562  10.720
69733W        W40333  11.215  29.543   0.864
69734W        W40334  14.571   6.399  11.939
69735W        W40335   1.738  24.622   3.749
69736W        W40336   3.806  37.438  14.862
69737W        W40337  21.091  38.664   2.754
69738W        W40338  17.109  41.531   0.001
69739W        W40339  20.594   7.585   4.463
69740W        W40340  37.543  25.227   1.332
69741W        W40341  10.145  28.624   4.083
69742W        W40342  15.108   4.793  11.724
69743W        W40343  16.837   6.696   4.441
69744W        W40344   2.833  44.910  14.834
69745W        W40345  15.022  29.285   4.379
69746W        W40346  17.653  17.037  14.341
69747W        W40347  38.495   1.204   1.870
69748W        W40348  27.044  12.813  12.897
69749W        W40349  33.928  16.996   1.178
69750W        W40350   3.435  18.218  12.082
69751W        W40351  26.512  21.639   4.505
69752W        W40352  19.553  13.629  11.961
69753W        W40353  18.024  16.375  14.862
69754W        W40354   4.063  22.088   0.216
69755W        W40355   8.581  34.402  13.263
69756W        W40356  35.537  23.061  12.191
69757W        W40357  20.266  35.950  12.314
69758W        W40358  21.238  28.843  12.017
69759W        W40359  16.905  15.696  14.901
69760W        W40360   3.960  31.434   4.100
69761W        W40361  32.854  15.595  10.443
69762W        W40362  36.913   7.711   0.370
69763W        W40363  36.694  24.587   3.992
69764W        W40364  19.709  38.590   0.552
69765W        W40365  26.227  17.728   0.423
69766W        W40366  17.637   9.849   3.710
69767W        W40367  35.287  27.673  14.483
69768W        W40368  33.574  35.144   3.093
69769W        W40369   6.625  32.317  13.857
69770W        W40370   5.618  28.090  14.661
69771W        W40371   6.187   4.528   2.820
69772W        W40372  33.184  19.454   1.749
69773W        W40373  43.553   5.182  14.735
69774W        W40374  18.234  28.875   3.257
69775W        W40375  16.542  36.975   3.600
69776W        W40376   9.980  11.040  12.632
69777W        W40377  28.406  37.323   1.331
69778W        W40378  16.085   4.726  11.203
69779W        W40379  12.653  30.810  10.341
69780W        W40380  27.150  43.932   0.408
69781W        W40381  43.032  33.039   4.548
69782W        W40382  27.073  25.119   1.843
69783W        W40383  17.749  36.374   2.205
69784W        W40384  13.990  39.801  11.935
69785W        W40385  11.643  10.185   4.608
69786W        W40386   5.116  36.604   4.413
69787W        W40387  26.708  21.258   3.145
69788W        W40388  19.834  19.162   0.935
69789W        W40389   3.756  14.537  14.575
69790W        W40390  28.463  13.691   0.804
69791W        W40391  38.501  41.459   1.937
69792W        W40392  43.255  33.337   4.194
69793W        W40393  22.459  16.214  13.041
69794W        W40394  17.095  42.671  11.516
69795W        W40395  17.873  43.945  12.138
69796W        W40396  17.770  30.143  11.038
69797W        W40397  22.231  21.209  12.799
69798W        W40398  43.057  27.516  11.212
69799W        W40399  39.118   3.865  11.526
69800W        W40400   5.488   7.522  10.912
69801W        W40401  17.536  21.141  11.198
69802W        W40402  22.022  19.003   4.026
69803W        W40403  43.749  28.194   1.755
69804W        W40404  30.552  26.702   4.109
69805W        W40405  34.048  17.110   3.574
69806W        W40406  32.564   2.665   0.460
69807W        W40407  33.844   7.308   0.379
69808W        W40408  43.704  36.302  10.714
69809W        W40409  37.118  28.993  13.052
69810W        W40410  11.036  44.809   4.170
69811W        W40411  15.368   0.458  12.824
69812W        W40412  40.261  25.965  13.881
69813W        W40413  33.935   6.905  11.202
69814W        W40414  34.669  37.030  10.723
69815W        W40415  41.032   0.965  10.720
69816W        W40416   5.701  16.609  13.113
69817W        W40417  36.553  41.417   3.526
69818W        W40418  34.350  20.808   1.496
69819W        W40419  37.662   2.927   3.981
69820W        W40420  19.066  34.580  10.690
69821W        W40421  44.270  18.278  11.446
69822W        W40422  44.622  27.475   2.927
69823W        W40423  27.671  10.015   2.255
69824W        W40424  17.062   0.509  14.850
69825W        W40425  44.965  36.814  13.585
69826W        W40426  27.200  19.474  14.961
69827W        W40427  24.879  20.285   3.652
69828W        W40428  11.269  18.439  11.531
69829W        W40429  21.160  27.662  10.586
69830W        W40430  23.132   8.810   3.252
69831W        W40431  28.674  17.837  13.722
69832W        W40432   7.347  10.925  12.586
69833W        W40433   3.617  42.850   0.296
69834W        W40434  14.848  26.149   4.859
69835W        W40435  28.047  18.252   2.227
69836W        W40436  37.972   5.082  11.159
69837W        W40437  41.096   9.701   2.888
69838W        W40438  22.516  39.751  12.049
69839W        W40439  35.592   3.405  12.436
69840W        W40440  11.614  37.470  11.682
69841W        W40441  31.815   1.425  11.916
69842W        W40442  20.288  30.108  12.044
69843W        W40443   4.818  30.864   0.746
69844W        W40444  12.899   5.960   0.816
69845W        W40445  26.021  37.140   3.192
69846W        W40446  35.861  18.071  14.837
69847W        W40447   2.668  42.863  10.659
69848W        W40448  24.886  37.367   2.697
69849W        W40449  19.969   6.663   3.919
69850W        W40450  21.090   1.333   0.489
69851W        W40451  17.719  24.781  13.843
69852W        W40452  11.179   6.476   3.221
69853W        W40453  37.612  41.573  12.081
69854W        W40454  41.334   9.776  10.899
69855W        W40455  23.134  28.984  10.318
69856W        W40456  12.875   3.210   0.249
69857W        W40457  14.776  10.584   1.726
69858W        W40458   8.760   7.428  10.674
69859W        W40459  39.662  23.674  10.767
69860W        W40460   9.733   3.586   1.552
69861W        W40461  21.011  39.416  11.641
69862W        W40462   6.779  44.637  13.522
69863W        W40463  15.215  41.897  13.372
69864W        W40464  13.515   1.414   0.099
69865W        W40465   9.606  32.078   0.045
69866W        W40466  35.616  19.799  10.985
69867W        W40467   0.907  19.515   4.174
69868W        W40468   3.843  11.279   1.403
69869W        W40469   8.721  30.414  13.386
69870W        W40470   7.408  36.889  10.792
69871W        W40471   2.319  40.209   4.683
69872W        W40472   3.958  16.856   1.538
69873W        W40473   9.844  43.492   0.806
69874W        W40474   2.794   4.273   4.470
69875W        W40475  44.257  31.692   0.897
69876W        W40476  11.761  35.599  10.761
69877W        W40477  13.592  25.742  12.356
69878W        W40478  27.909  11.765  14.231
69879W        W40479  38.771  37.872   1.959
69880W        W40480  24.573  23.149  12.485
69881W        W40481  40.283   5.306  11.930
69882W        W40482  12.043   3.376  13.401
69883W        W40483  33.616  12.894  12.475
69884W        W40484   3.306   9.049  11.696
69885W        W40485   1.166   2.127  11.012
69886W        W40486   9.077  26.290  14.420
69887W        W40487  22.340   3.333  11.521
69888W        W40488  17.801   7.693   4.647
69889W        W40489   6.273  38.578   0.855
69890W        W40490  25.913  39.777   1.272
69891W        W40491  30.228  11.400  14.507
69892W        W40492  21.708  28.778  12.270
69893W        W40493  33.149  33.155  11.163
69894W        W40494   5.373  32.627   1.549
69895W        W40495  25.274  12.247   2.819
69896W        W40496   5.452   4.937  13.041
69897W        W40497  39.387   2.447   3.132
69898W        W40498  42.370  32.900   2.903
69899W        W40499  16.295   3.476  13.890
69900W        W40500  12.739  22.690   4.153
69901W        W40501  10.394  32.207  12.568
69902W        W40502  41.307   3.972  12.112
69903W        W40503  27.263  12.132   0.302
69904W        W40504  12.306  17.056   2.851
69905W        W40505  26.178  38.943   1.507
69906W        W40506   0.926  29.124  11.591
69907W        W40507  39.526  16.947  10.480
69908W        W40508  23.535  17.707  14.024
69909W        W40509  42.755  34.773   4.131
69910W        W40510  24.261  26.980   2.212
69911W        W40511   5.947  43.885   2.380
69912W        W40512  23.378   8.151  13.843
69913W        W40513  35.160  15.792   0.180
69914W        W40514  10.930  13.308   1.131
69915W        W40515  34.414  16.765   1.452
69916W        W40516  11.555  35.671  14.449
69917W        W40517  20.232  44.930  10.305
69918W        W40518  26.003  44.436   1.787
69919W        W40519  29.990  14.696  11.231
69920W        W40520  19.958  30.027  12.646
69921W        W40521  15.488  29.541  13.455
69922W        W40522   3.357  29.298  10.329
69923W        W40523   3.829   9.940   0.253
69924W        W40524  20.256   3.525  12.110
69925W        W40525  15.615  10.722  13.793
69926W        W40526  30.403  26.101  14.075
69927W        W40527  38.516  33.901  11.678
69928W        W40528  32.432   1.263  11.143
69929W        W40529   6.342  24.015   1.510
69930W        W40530   1.503   3.041  14.459
69931W        W40531  25.024  27.282   3.848
69932W        W40532  25.501   6.019   5.017
69933W        W40533  40.775  34.901  13.287
69934W        W40534  25.078  24.304   3.708
69935W        W40535  26.503   9.248  11.134
69936W        W40536  11.281  25.669   2.135
69937W        W40537  20.254  21.085   3.889
69938W        W40538  42.847  33.664  12.600
69939W        W40539  23.423   8.747  11.686
69940W        W40540  38.770  41.259  11.640
69941W        W40541  14.573   2.829  10.715
69942W        W40542  15.599   5.854  12.642
69943W        W40543  31.237  18.571   3.588
69944W        W40544  26.915  41.585  12.154
69945W        W40545  25.514  37.952   2.900
69946W        W40546   0.335  16.325   4.071
69947W        W40547   9.176   3.133  11.645
69948W        W40548  15.117  14.065   2.166
69949W        W40549  11.284  43.590  11.604
69950W        W40550   6.925  13.928  11.206
69951W        W40551  41.099  13.885   4.102
69952W        W40552  31.193  42.902   4.653
69953W        W40553   7.417  34.016   4.653
69954W        W40554  24.148   7.977  13.440
69955W        W40555  25.881   4.193   4.160
69956W        W40556  37.253  37.992  13.003
69957W        W40557  13.241  24.909  10.708
69958W        W40558  34.575  11.422   0.840
69959W        W40559  14.595  41.425  10.118
69960W        W40560  22.834  29.250  13.515
69961W        W40561  39.712  44.439   3.321
69962W        W40562  34.645  25.321  14.414
69963W        W40563  30.679  26.942   3.198
69964W        W40564  29.594  20.768   0.884
69965W        W40565  21.102  26.207   1.929
69966W        W40566  28.221  44.714   2.220
69967W        W40567  16.555   3.779  10.710
69968W        W40568  16.507  29.646  13.347
69969W        W40569  41.517  44.408  13.366
69970W        W40570  11.241   3.414   2.254
69971W        W40571  34.282  29.636  10.626
69972W        W40572  42.354  10.834  12.974
69973W        W40573  11.273  15.827  14.104
69974W        W40574  32.017   2.111  12.646
69975W        W40575  16.563  43.300   3.756
69976W        W40576  42.332  28.054  12.674
69977W        W40577   9.731  37.866  13.492
69978W        W40578  23.315  28.199  13.487
69979W        W40579  16.227  30.601  11.920
69980W        W40580  43.468  15.295  13.523
69981W        W40581  13.204  26.037  12.153
69982W        W40582   9.267   0.890   0.424
69983W        W40583  33.877  24.456   0.005
69984W        W40584  25.548  28.593  13.388
69985W        W40585  43.751   7.635  12.178
69986W        W40586   9.575  43.791   2.523
69987W        W40587  12.249  35.422   3.127
69988W        W40588  39.125  44.059  14.005
69989W        W40589  34.474  10.286   1.933
69990W        W40590  13.249  44.365   4.210
69991W        W40591   7.673  13.303  13.013
69992W        W40592  11.019  36.191   3.147
69993W        W40593   7.312   5.389  14.965
69994W        W40594  19.218   9.077   4.154
69995W        W40595   9.615  37.943   4.421
69996W        W40596  17.326  30.117   3.718
69997W        W40597  38.581   9.632  14.752
69998W        W40598  29.277  17.919   1.734
69999W        W40599  21.252  26.441   2.813
70000W        W40600   2.186  19.373  10.812
70001W        W40601  30.334  15.116   0.638
70002W        W40602  16.926   4.759  14.304
70003W        W40603  37.515  31.918  11.020
70004W        W40604  24.699  12.815   0.757
70005W        W40605   4.363  11.786  11.363
70006W        W40606  36.924  19.203  13.397
70007W        W40607  44.015  12.612   0.288
70008W        W40608  34.386  17.580   2.856
70009W        W40609  16.690   1.352   4.593
70010W        W40610  11.067  35.052   2.800
70011W        W40611   7.886  38.977   2.748
70012W        W40612  32.637  34.155   1.349
70013W        W40613  23.231  42.247  11.671
70014W        W40614  42.130  33.158   1.722
70015W        W40615   5.716  40.586  11.610
70016W        W40616   3.642  37.385  10.685
70017W        W40617   3.586   1.816  11.207
70018W        W40618   7.410  13.389   0.001
70019W        W40619  40.980  36.120  11.799
70020W        W40620  44.478  31.646   0.439
70021W        W40621  43.414  11.290  14.276
70022W        W40622  39.086  19.793   2.319
70023W        W40623  24.598  18.120  11.629
70024W        W40624  32.665  41.028   4.157
70025W        W40625  28.128   7.785  14.807
70026W        W40626  30.794  31.149  11.486
70027W        W40627  35.170  44.296   0.817
70028W        W40628  11.094  26.297   4.127
70029W        W40629  15.761  33.292  13.828
70030W        W40630  26.083   1.749  10.585
70031W        W40631   3.016  30.664  10.685
70032W        W40632  36.497   9.393  14.390
70033W        W40633  24.695   0.645   1.623
70034W        W40634  39.092   6.960   1.780
70035W        W40635  41.843  23.986  12.557
70036W        W40636   1.392  20.820   0.168
70037W        W40637  42.750  38.086  12.944
70038W        W40638  31.970  10.372   0.690
70039W        W40639  36.052  11.516   4.087
70040W        W40640  21.513  38.353   0.936
70041W        W40641  35.611   3.875  11.063
70042W        W40642  41.912  28.249  11.620
70043W        W40643  36.476  21.954  10.396
70044W        W40644  14.347  34.989   2.742
70045W        W40645  34.392  10.408  12.386
70046W        W40646  28.466  28.030   2.342
70047W        W40647  28.634  26.977  14.711
70048W        W40648  34.164  16.239   4.113
70049W        W40649  22.237  43.534   2.759
70050W        W40650  34.907  33.971   1.696
70051W        W40651  34.366  39.793  13.508
70052W        W40652   6.289  18.508  13.449
70053W        W40653  38.108  44.359  12.024
70054W        W40654  10.859  31.328   2.756
70055W        W40655  43.652   6.838   2.235
70056W        W40656  22.442  42.283   1.792
70057W        W40657   7.707  15.332   2.680
70058W        W40658  20.668  20.683   2.612
70059W        W40659  11.782  10.592  12.058
70060W        W40660  37.554   2.857  13.088
70061W        W40661  25.625  15.486  10.284
70062W        W40662  15.541  22.615   4.199
70063W        W40663   4.305   9.692   1.325
70064W        W40664  14.164  11.753  12.958
70065W        W40665  36.908  38.229  13.423
70066W        W40666  14.321  33.413   2.284
70067W        W40667  21.184  26.546  11.596
70068W        W40668   2.795  38.415   0.778
70069W        W40669  18.352  29.144   2.190
70070W        W40670  31.625  29.866  12.058
70071W        W40671   7.712  10.842  10.784
70072W        W40672  43.462  36.905   3.250
70073W        W40673  28.573   0.991   0.880
70074W        W40674   2.309  17.223  13.165
70075W        W40675  40.510  26.758  13.841
70076W        W40676  35.941  34.001  10.437
70077W        W40677  30.104   1.844   0.193
70078W        W40678  22.301  29.399   0.256
70079W        W40679   0.066   1.406  14.855
70080W        W40680  32.688   7.685   1.793
70081W        W40681  34.565  26.613  11.250
70082W        W40682   0.354  31.120  12.870
70083W        W40683   7.736  40.404  10.319
70084W        W40684  16.636  32.928  12.016
70085W        W40685  15.700  33.468  11.115
70086W        W40686  27.210  19.006  13.889
70087W        W40687  17.512  31.146  11.922
70088W        W40688  28.998  23.507  14.345
70089W        W40689  25.498   7.985   2.235
70090W        W40690  37.306  14.176   3.579
70091W        W40691  14.511  11.723   3.471
70092W        W40692   5.967  33.085  11.568
70093W        W40693  16.722  25.456   0.337
70094W        W40694  18.150  38.018   4.806
70095W        W40695   6.944   2.362   2.799
70096W        W40696   8.040  14.633  14.063
70097W        W40697   6.882  35.636  12.447
70098W        W40698  23.515   1.994  13.486
70099W        W40699   1.002   1.472  12.147
70100W        W40700  14.459  12.017  12.088
70101W        W40701   8.445  37.998  12.697
70102W        W40702  12.188  39.872  10.332
70103W        W40703  22.517   1.537   1.685
70104W        W40704  13.176  20.533  10.744
70105W        W40705  25.941  30.418   4.088
70106W        W40706  14.775  31.381   0.448
70107W        W40707   0.751  36.697   3.641
70108W        W40708  33.868  14.472   4.550
70109W        W40709  22.227  39.819   0.094
70110W        W40710  11.393  10.972  13.474
70111W        W40711   2.457  35.672  12.089
70112W        W40712  21.341   9.904   3.635
70113W        W40713   1.286  22.562   4.231
70114W        W40714  16.626   1.282   0.887
70115W        W40715   2.821   0.832   1.256
70116W        W40716  41.064  17.278   0.777
70117W        W40717  11.125  10.789   1.949
70118W        W40718  40.893   5.946  14.467
70119W        W40719  20.140  15.715  11.951
70120W        W40720  28.742  10.420   0.788
70121W        W40721  20.582  38.064  12.154
70122W        W40722  27.640  38.627  13.766
70123W        W40723  34.635  22.780   1.277
70124W        W40724  33.474  20.262   1.298
70125W        W40725   2.243  23.203  13.047
70126W        W40726   1.709  29.671  11.958
70127W        W40727  40.729  28.542   3.188
70128W        W40728  28.223  14.303  11.597
70129W        W40729   1.502   8.269  11.175
70130W        W40730  32.743  22.989  11.790
70131W        W40731  10.850  40.841  10.620
70132W        W40732  16.134  41.144  12.186
70133W        W40733  32.980  26.313  10.252
70134W        W40734  37.495  35.553   3.892
70135W        W40735  10.386  26.390   1.196
70136W        W40736  44.412  20.295  13.605
70137W        W40737  25.481  24.143  14.880
70138W        W40738  27.653  20.723   2.194
70139W        W40739  42.982  24.512   0.346
70140W        W40740  31.373   2.198   0.933
70141W        W40741  16.034  36.509   0.830
70142W        W40742   0.182   5.216  13.609
70143W        W40743   8.263  43.652   0.249
70144W        W40744  40.921   5.822   0.061
70145W        W40745   0.871  20.543  12.609
70146W        W40746  24.412   2.856   1.394
70147W        W40747   5.181   9.733   4.585
70148W        W40748  30.103   5.133  14.480
70149W        W40749  19.523   0.490  11.613
70150W        W40750  10.503  33.136   1.802
70151W        W40751  23.005  38.189   2.231
70152W        W40752   7.394  41.431  14.058
70153W        W40753  26.968  40.377  14.711
70154W        W40754  28.866  10.335   1.679
70155W        W40755  12.065  33.569   3.090
70156W        W40756  30.202  20.607  13.009
70157W        W40757   5.755  26.871  13.997
70158W        W40758  28.181  18.207   0.218
70159W        W40759  27.869  25.570  12.039
70160W        W40760   8.207  22.643   0.385
70161W        W40761  13.629   1.424   0.964
70162W        W40762  24.541  20.246   2.676
70163W        W40763   7.224  25.108   0.587
70164W        W40764  29.543  22.716  11.583
70165W        W40765  14.173  20.107   4.581
70166W        W40766  25.281  42.828   3.595
70167W        W40767  13.553  22.399   0.752
70168W        W40768  29.363  26.198  10.943
70169W        W40769  25.543   6.713   0.387
70170W        W40770  14.641  32.909  12.608
70171W        W40771   1.906  43.699   3.301
70172W        W40772  40.467  31.562  12.475
70173W        W40773  42.988   5.680  12.951
70174W        W40774  27.744   8.661   1.116
70175W        W40775  44.241  12.617   4.217
70176W        W40776  27.166  15.896   1.446
70177W        W40777  41.254  29.587  11.612
70178W        W40778  19.999  35.759   3.253
70179W        W40779  27.095  19.734  13.365
70180W        W40780   7.435  32.999  11.604
70181W        W40781   5.816  36.670   0.717
70182W        W40782  35.454   4.971   3.132
70183W        W40783  24.608  18.030  12.522
70184W        W40784  20.958  41.754  12.597
70185W        W40785  32.452  29.204   2.849
70186W        W40786  20.046   0.879   1.886
70187W        W40787  43.306   8.273  12.308
70188W        W40788  37.745   1.904   3.087
70189W        W40789  33.882  44.957  12.050
70190W        W40790  34.207  29.708   2.384
70191W        W40791  44.212  17.612   1.228
70192W        W40792  18.105  18.523  13.305
70193W        W40793  32.835  37.027   3.815
70194W        W40794  12.096  33.392  10.537
70195W        W40795  14.147   3.392   2.537
70196W        W40796  26.943   5.452   2.822
70197W        W40797  41.714  27.955  11.251
70198W        W40798   4.725  25.644  11.597
70199W        W40799  43.988  11.777  11.185
70200W        W40800  33.319   5.651  13.203
70201W        W40801   0.206  37.502   1.846
70202W        W40802  10.785  26.913  13.327
70203W        W40803  39.332   4.022  10.215
70204W        W40804  24.853   6.424  10.923
70205W        W40805  20.061  37.660   4.609
70206W        W40806   0.112   5.717   2.064
70207W        W40807  26.705  10.652  14.253
70208W        W40808   4.920   2.871   4.053
70209W        W40809  17.588   7.798  14.843
70210W        W40810  30.480  28.963  12.036
70211W        W40811  34.356   0.726   1.708
70212W        W40812  41.526  26.690   4.204
70213W        W40813  41.639   4.055   2.803
70214W        W40814  23.673  10.221  11.414
70215W        W40815   8.121  18.675  14.733
70216W        W40816  43.170  38.028  11.717
70217W        W40817  17.405   7.295  13.817
70218W        W40818  40.847   9.961   0.223
70219W        W40819  14.161  19.591  14.496
70220W        W40820   0.949   0.979   2.948
70221W        W40821  15.363  20.659  12.407
70222W        W40822  40.005   9.575  11.662
70223W        W40823   3.985  15.081   3.550
70224W        W40824   8.444  25.171   1.401
70225W        W40825   6.830   1.433  13.912
70226W        W40826  24.320  11.670  12.343
70227W        W40827  19.254  20.093   4.142
70228W        W40828   5.648   3.330   1.901
70229W        W40829   7.180  16.519   3.303
70230W        W40830   6.327   0.905  14.468
70231W        W40831   0.331  32.768   0.417
70232W        W40832  24.414  43.193   4.204
70233W        W40833  15.797   6.403   2.691
70234W        W40834  33.117   2.205   4.922
70235W        W40835  27.872  10.652  13.292
70236W        W40836  22.125  16.580   1.306
70237W        W40837  13.574   1.713   4.982
70238W        W40838   3.223  30.216   0.264
70239W        W40839  38.898  24.926   3.282
70240W        W40840   8.949  36.811   4.174
70241W        W40841   7.784  17.233  13.633
70242W        W40842  13.861  22.291   4.502
70243W        W40843   6.557   9.415  10.754
70244W        W40844  22.052   8.374  13.718
70245W        W40845  40.991  13.619   1.024
70246W        W40846  40.988  41.778   0.026
70247W        W40847   9.971   3.406   2.965
70248W        W40848  30.569  20.268  13.662
70249W        W40849  28.031   1.839  13.807
70250W        W40850  11.378  40.276  14.320
70251W        W40851  29.639  43.023   4.479
70252W        W40852   9.937  32.820  13.069
70253W        W40853  21.096   8.879  12.734
70254W        W40854  21.234  13.123   4.433
70255W        W40855  13.369  42.209   1.703
70256W        W40856  29.324  31.857  11.763
70257W        W40857  12.102  20.312  12.146
70258W        W40858  17.876  40.094   4.672
70259W        W40859  40.779  19.112   2.801
70260W        W40860   3.334  14.747   2.237
70261W        W40861  12.310  22.294  14.819
70262W        W40862  15.179  33.006  12.060
70263W        W40863   6.708   5.330   3.594
70264W        W40864  29.133  40.256   0.940
70265W        W40865   1.495  40.387  13.430
70266W        W40866  26.316   0.079  11.776
70267W        W40867   4.645  25.495   4.536
70268W        W40868  15.289  22.282   0.315
70269W        W40869  38.542  41.440  12.044
70270W        W40870  24.680   7.014  13.838
70271W        W40871  44.493  11.767   5.353
70272W        W40872  17.539   8.629  11.572
70273W        W40873  15.138  44.057   3.158
70274W        W40874  27.210  13.302  12.991
70275W        W40875  40.727  19.820  14.286
70276W        W40876  34.422  15.284   2.703
70277W        W40877   6.697  14.683  12.860
70278W        W40878  10.077  29.028   4.385
70279W        W40879  16.260  12.877   0.431
70280W        W40880  26.199  35.916   4.702
70281W        W40881  24.524  37.525  10.614
70282W        W40882  11.041  35.939   2.330
70283W        W40883  19.931   1.402  14.541
70284W        W40884   5.866   2.449  14.083
70285W        W40885  42.859  31.340   2.223
70286W        W40886  23.940   1.429  12.462
70287W        W40887  44.428  23.461   4.148
70288W        W40888  35.538   9.103   2.137
70289W        W40889  39.705  18.407  12.319
70290W        W40890  20.700  13.502   2.908
70291W        W40891  37.795  22.570  11.070
70292W        W40892   7.807  44.603  12.485
70293W        W40893   3.872  20.545   3.011
70294W        W40894  40.991   0.999   4.524
70295W        W40895  19.812  26.924  14.374
70296W        W40896  18.584  33.927  13.654
70297W        W40897  12.571  15.072   4.496
70298W        W40898  22.245  21.285   4.158
70299W        W40899  34.980  14.738  12.008
70300W        W40900  14.225  10.353  11.717
70301W        W40901  16.962   9.569  10.924
70302W        W40902  27.023  15.790   3.786
70303W        W40903  22.077   3.978  14.948
70304W        W40904  23.202  25.767  13.346
70305W        W40905  28.087  12.804   3.728
70306W        W40906  24.451  15.171   0.549
70307W        W40907  26.132  30.647   0.733
70308W        W40908  33.178  22.060  12.896
70309W        W40909  26.927  21.664  14.314
70310W        W40910  20.525  40.822   0.058
70311W        W40911  26.151  36.402  14.472
70312W        W40912  34.420  11.806   3.816
70313W        W40913  36.854  42.411   2.775
70314W        W40914  25.165  28.166   4.249
70315W        W40915   4.246  10.108   1.039
70316W        W40916  42.309  28.951   3.732
70317W        W40917  11.516  20.640  10.199
70318W        W40918  34.385  39.246   3.304
70319W        W40919   5.802   0.308   4.650
70320W        W40920  24.127  24.485  13.810
70321W        W40921   4.926  23.688   3.358
70322W        W40922  27.628   7.670  13.011
70323W        W40923  13.698  24.517  14.075
70324W        W40924  25.992  37.586   1.330
70325W        W40925  11.660  30.913  14.944
70326W        W40926  17.500   9.662   2.303
70327W        W40927  22.250   5.834   3.615
70328W        W40928  19.969  23.483  11.977
70329W        W40929  42.828  13.782   0.302
70330W        W40930  35.418  33.840  14.033
70331W        W40931  15.349  21.731  12.963
70332W        W40932  22.918  33.006  13.460
70333W        W40933   8.240  18.897  11.992
70334W        W40934  26.031  36.136   0.702
70335W        W40935  16.594  31.613   3.266
70336W        W40936   0.495  16.137   1.791
70337W        W40937  39.525  21.098  11.459
70338W        W40938  43.148  38.884  12.709
70339W        W40939  38.173  20.021   0.394
70340W        W40940  21.935  11.566  11.642
70341W        W40941   1.777  19.041  10.739
70342W        W40942  33.514  29.688  14.046
70343W        W40943  22.918  29.470  11.921
70344W        W40944   1.493  32.074   0.053
70345W        W40945  32.072  13.168   0.742
70346W        W40946  23.143  15.333   3.658
70347W        W40947  44.205  21.725  14.330
70348W        W40948  15.823  40.736   1.693
70349W        W40949  22.110  33.568   2.293
70350W        W40950  25.448  26.481   4.799
70351W        W40951  18.499  39.884   2.347
70352W        W40952  44.291  44.876   5.109
70353W        W40953  24.266  32.920   2.793
70354W        W40954  16.609  38.324  14.452
70355W        W40955  26.102  13.781   4.730
70356W        W40956  23.115   1.478  10.715
70357W        W40957  10.758   7.686   0.495
70358W        W40958   4.489  13.759   4.845
70359W        W40959  32.518   0.253   3.366
70360W        W40960  23.970   8.922  12.168
70361W        W40961  36.401   3.350   2.323
70362W        W40962  39.187   7.912   3.729
70363W        W40963  22.348  32.059  13.465
70364W        W40964   5.948  24.510   0.448
70365W        W40965   8.146  17.920   3.162
70366W        W40966  23.309   5.964  12.124
70367W        W40967  26.002  28.507   1.365
70368W        W40968  33.214  22.553  14.053
70369W        W40969  30.974  22.531   9.995
70370W        W40970  25.121  28.229  13.960
70371W        W40971  27.670  15.634   2.215
70372W        W40972  41.897  35.051  14.829
70373W        W40973  21.918  38.362   2.374
70374W        W40974  13.020  41.019   3.946
70375W        W40975   2.800  16.573   0.929
70376W        W40976  23.600  16.948   0.522
70377W        W40977  30.943  28.203   1.229
70378W        W40978  39.304  17.520  14.599
70379W        W40979  16.898  29.650  12.578
70380W        W40980   4.404  42.977   9.897
70381W        W40981  15.152   5.980  12.430
70382W        W40982  17.501  27.184   3.771
70383W        W40983  42.307  10.706   1.395
70384W        W40984  10.188  44.530   4.139
70385W        W40985   4.233  39.805   2.823
70386W        W40986  22.709  36.538   1.737
70387W        W40987  19.541  17.339   4.192
70388W        W40988   0.388  27.464  14.738
70389W        W40989  30.150  37.981   4.544
70390W        W40990  40.782  22.280   4.612
70391W        W40991  39.433  19.284   1.897
70392W        W40992  36.948   9.241   3.182
70393W        W40993  42.444  27.233   0.405
70394W        W40994   7.132   3.244   0.185
70395W        W40995  20.127  27.177   3.713
70396W        W40996  10.273  17.381   1.220
70397W        W40997   3.029  22.561   3.258
70398W        W40998  18.369  30.919   4.154
70399W        W40999  22.371  39.262   4.126
70400W        W41000  36.676  18.183   1.734
70401W        W41001  15.815  40.009   0.353
70402W        W41002  29.346  31.063   1.312
70403W        W41003  20.725  38.763   2.087
70404W        W41004  26.928  20.156  12.561
70405W        W41005  26.162  32.012   0.320
70406W        W41006  14.612   4.697  12.566
70407W        W41007   4.672  41.643  13.563
70408W        W41008  11.329   8.368  11.616
70409W        W41009  23.521  22.778  13.811
70410W        W41010   3.866   5.404   1.490
70411W        W41011  43.414  15.648   3.222
70412W        W41012  30.007  40.228   2.216
70413W        W41013  18.508  43.412  13.555
70414W        W41014  17.051   9.131  13.794
70415W        W41015  30.405  23.575  14.917
70416W        W41016  28.456  30.662   2.943
70417W        W41017  18.475  13.150  13.908
70418W        W41018  36.850  18.307  12.896
70419W        W41019   6.160  31.108  12.504
70420W        W41020  13.416  29.402   1.766
70421W        W41021  21.259  21.140  11.603
70422W        W41022  38.889  29.976  10.466
70423W        W41023   7.218  38.779   5.333
70424W        W41024  21.506   2.481  11.010
70425W        W41025   7.915  21.836  12.954
70426W        W41026  10.318  21.122   1.822
70427W        W41027  12.294  13.410   0.905
70428W        W41028  31.010  37.078   1.938
70429W        W41029  22.211  16.836  11.150
70430W        W41030  40.603  25.987  14.908
70431W        W41031  16.536   0.509   4.126
70432W        W41032  43.956  36.869  13.494
70433W        W41033  33.623  27.304   4.835
70434W        W41034   4.222   6.894  10.605
70435W        W41035  15.947  42.746   5.585
70436W        W41036  17.537   2.941  11.200
70437W        W41037  12.284   6.660   4.679
70438W        W41038  29.053  12.606  10.544
70439W        W41039  11.382  34.582  13.047
70440W        W41040  44.750  37.219  10.882
70441W        W41041   7.393  42.352  12.575
70442W        W41042  34.679   1.798   0.382
70443W        W41043  31.933  22.481   1.268
70444W        W41044  21.137  40.055   2.755
70445W        W41045  23.489  20.634   0.730
70446W        W41046  36.536  43.964  13.413
70447W        W41047  35.572   7.394   3.277
70448W        W41048  43.785  36.870   4.538
70449W        W41049  43.206  18.127   0.959
70450W        W41050  14.056  12.147   2.145
70451W        W41051  39.275  31.400   2.422
70452W        W41052  25.459  33.941   1.976
70453W        W41053  37.100   5.229  14.790
70454W        W41054  21.145  31.085   3.229
70455W        W41055   2.563  13.575   4.341
70456W        W41056  34.151   1.529  11.336
70457W        W41057   0.466  36.087  11.943
70458W        W41058   0.663  24.208  12.120
70459W        W41059  35.685  32.084   3.108
70460W        W41060  20.261  32.625   4.161
70461W        W41061  19.267  13.595  11.521
70462W        W41062   9.227   4.471  13.519
70463W        W41063  10.109  35.987  11.193
70464W        W41064  18.695  15.533  12.917
70465W        W41065  19.111  25.946   2.952
70466W        W41066  29.545  33.001   4.678
70467W        W41067  22.166  42.526  13.843
70468W        W41068  41.767  13.136   3.415
70469W        W41069  15.285  11.235  12.566
70470W        W41070  32.852  21.525   1.706
70471W        W41071  17.719  27.390   0.868
70472W        W41072  19.661  31.867   0.765
70473W        W41073  37.561  24.944  13.528
70474W        W41074  34.537  37.781   3.835
70475W        W41075  22.127  36.884   3.612
70476W        W41076  15.999  15.306  13.893
70477W        W41077  25.059  40.673  11.309
70478W        W41078   6.326  34.959   2.221
70479W        W41079  33.644  12.785  11.573
70480W        W41080  10.767  30.023  14.925
70481W        W41081   2.252  14.658  14.460
70482W        W41082  15.561  38.574  11.449
70483W        W41083  42.025  27.456   0.205
70484W        W41084  22.449  28.721   1.235
70485W        W41085  44.931  28.593  12.182
70486W        W41086  35.135  13.857   0.948
70487W        W41087  41.395  43.246   4.847
70488W        W41088  23.920  36.398  13.866
70489W        W41089   4.056  27.145  10.737
70490W        W41090   7.449   3.232  13.832
70491W        W41091  26.289  19.837  11.142
70492W        W41092  26.501  11.775   3.502
70493W        W41093  11.997  34.908  14.280
70494W        W41094  15.882  24.690   1.278
70495W        W41095  30.851  26.160  14.378
70496W        W41096  16.405  25.535   3.722
70497W        W41097  43.839  23.135  13.983
70498W        W41098  21.661  29.423  10.682
70499W        W41099   9.038  44.952   2.708
70500W        W41100  27.462  33.625  11.132
70501W        W41101  39.011   4.451   0.441
70502W        W41102   7.829  39.245   0.099
70503W        W41103  32.962  28.933   4.391
70504W        W41104  41.832  20.651   2.199
70505W        W41105   0.727   7.484   4.900
70506W        W41106  13.290  29.947   4.942
70507W        W41107  24.193   1.728  13.685
70508W        W41108  22.939  38.259  14.338
70509W        W41109   2.854   3.317   3.285
70510W        W41110  44.824  11.675  14.165
70511W        W41111  22.135   7.124   4.628
70512W        W41112  43.824   5.647  12.889
70513W        W41113  37.922   5.225  11.643
70514W        W41114  17.591   6.435   4.098
70515W        W41115  19.098  14.695   4.457
70516W        W41116   3.725  17.596   2.407
70517W        W41117  13.278  15.809  11.954
70518W        W41118  39.960  43.720   0.195
70519W        W41119  13.370  44.294   2.447
70520W        W41120  17.626  20.897  11.631
70521W        W41121  11.903  35.575   0.823
70522W        W41122  20.459  29.517   1.866
70523W        W41123   8.670   9.406  13.506
70524W        W41124  21.275  17.121   1.841
70525W        W41125   4.456  31.970  14.191
70526W        W41126  25.084  15.203  12.290
70527W        W41127  35.824   5.908  14.902
70528W        W41128  39.215  18.644  13.904
70529W        W41129  35.611  44.430  14.852
70530W        W41130  41.288  11.490   1.374
70531W        W41131   5.797  12.802  11.087
70532W        W41132   9.329   2.124   0.603
70533W        W41133  33.565  14.000   3.441
70534W        W41134  29.408  28.904   1.785
70535W        W41135  22.818  34.357  14.003
70536W        W41136  39.025   5.407  14.055
70537W        W41137   3.667  17.132   3.733
70538W        W41138   9.748  20.083  11.690
70539W        W41139   0.828  21.289   1.350
70540W        W41140   4.055  11.164   3.877
70541W        W41141  41.090  38.651  14.079
70542W        W41142  25.098  44.457   9.977
70543W        W41143   7.760  39.993  10.636
70544W        W41144  38.378  33.177   0.383
70545W        W41145  31.953   0.793  10.733
70546W        W41146  40.525  14.605  13.128
70547W        W41147  18.255  24.545   0.943
70548W        W41148   2.840   1.588  10.953
70549W        W41149   7.429   9.629  11.100
70550W        W41150  44.292   5.763   0.421
70551W        W41151  33.059  31.390   4.534
70552W        W41152  12.232  32.345  11.959
70553W        W41153  42.911  10.953   2.688
70554W        W41154  10.150  17.940  12.003
70555W        W41155  40.575  41.435  10.752
70556W        W41156  15.392  16.965  13.970
70557W        W41157  34.523   7.879   0.812
70558W        W41158  32.477  44.824  12.518
70559W        W41159  13.471  13.342  13.274
70560W        W41160  22.930  13.831  14.937
70561W        W41161  44.447  43.453   1.315
70562W        W41162  28.059   7.594  12.762
70563W        W41163  32.466  31.231   3.265
70564W        W41164  13.032  26.301   2.694
70565W        W41165  23.962   3.256  10.143
70566W        W41166  28.890  36.406  13.587
70567W        W41167   1.145  10.175   2.861
70568W        W41168  12.625  10.687  10.913
70569W        W41169  26.159  33.625  14.862
70570W        W41170  42.984   6.959  11.977
70571W        W41171  34.996  11.798   3.148
70572W        W41172   1.607  39.066  11.965
70573W        W41173  33.445  24.793  12.278
70574W        W41174  24.698  39.866  11.447
70575W        W41175  19.966  33.362   1.670
70576W        W41176  35.512   7.359  13.391
70577W        W41177  18.807  33.454   0.840
70578W        W41178  30.336  41.830  14.771
70579W        W41179  38.075  18.543  10.557
70580W        W41180  16.188   9.138   0.868
70581W        W41181  15.756  31.660   4.320
70582W        W41182  15.900   1.826   0.432
70583W        W41183   2.671  17.385   4.685
70584W        W41184  34.274  33.542   0.436
70585W        W41185  33.331  41.707  13.055
70586W        W41186  23.101  35.454  11.716
70587W        W41187  12.612  37.114   1.838
70588W        W41188  35.108  29.233  11.254
70589W        W41189  25.545  44.696   3.255
70590W        W41190  16.504   0.363  12.012
70591W        W41191  13.682  12.365  11.132
70592W        W41192  31.594  11.812   1.946
70593W        W41193   3.181   9.720  14.413
70594W        W41194  38.051  32.064  11.195
70595W        W41195  17.793  28.544   1.732
70596W        W41196   1.480   9.231   0.333
70597W        W41197   1.175   7.281  12.182
70598W        W41198  16.347  24.178  11.664
70599W        W41199  31.336  41.399  12.632
70600W        W41200  20.990   2.551   4.564
70601W        W41201  19.527  25.934  11.522
70602W        W41202  39.483   0.695   2.865
70603W        W41203   8.648  23.649  14.498
70604W        W41204   0.450  36.879  11.584
70605W        W41205  27.106  28.932   1.781
70606W        W41206  21.226  36.521  12.628
70607W        W41207   8.243   3.393  13.461
70608W        W41208  21.012  24.370  11.088
70609W        W41209  31.402  31.887  14.351
70610W        W41210   0.786   8.666   1.268
70611W        W41211   7.842  29.632   3.965
70612W        W41212  26.167   4.849  11.325
70613W        W41213  13.903   3.751  10.655
70614W        W41214  39.850  16.634  14.542
70615W        W41215  10.790  39.523   4.166
70616W        W41216  42.343  38.428   0.502
70617W        W41217  25.172   6.376  12.617
70618W        W41218  20.772  27.578   2.279
70619W        W41219  22.075  34.730  11.969
70620W        W41220  28.731  31.577   4.392
70621W        W41221   4.352  22.018  13.937
70622W        W41222  11.255  16.806   0.489
70623W        W41223   1.905   4.885   1.309
70624W        W41224  25.599  27.713   0.471
70625W        W41225   1.567  31.647   4.131
70626W        W41226   8.918  13.175   1.276
70627W        W41227  29.445  14.609   4.437
70628W        W41228   1.021  38.719  13.809
70629W        W41229  23.081  25.877   0.280
70630W        W41230   4.304  41.338  13.783
70631W        W41231  20.161  16.591   2.831
70632W        W41232  39.396  20.670  11.178
70633W        W41233  39.378  39.094  11.472
70634W        W41234  16.727  20.080  10.602
70635W        W41235  31.450  34.103  10.800
70636W        W41236  25.016  21.072   4.007
70637W        W41237   7.141  37.780   3.973
70638W        W41238  31.493  10.359  10.604
70639W        W41239  10.780   6.220  12.133
70640W        W41240  17.643  19.316   2.266
70641W        W41241   7.600   6.460   3.469
70642W        W41242   3.642  16.341  12.917
70643W        W41243   1.850  38.067  10.505
70644W        W41244   8.356  27.251   4.536
70645W        W41245  33.183  35.782   1.727
70646W        W41246  42.246  14.850   0.617
70647W        W41247   1.439  38.352   1.308
70648W        W41248   3.467  16.321  13.416
70649W        W41249  13.835  11.309  11.098
70650W        W41250  22.548  19.289  11.065
70651W        W41251  29.613   2.941  14.612
70652W        W41252   7.786  36.901  14.711
70653W        W41253  12.178   7.652   3.154
70654W        W41254  23.609  41.299   2.622
70655W        W41255  38.285  37.799  14.459
70656W        W41256  32.970   3.951   4.182
70657W        W41257  16.781   8.185  11.982
70658W        W41258   8.795  35.348  14.372
70659W        W41259  27.021  37.054   1.673
70660W        W41260  21.584  28.243   0.294
70661W        W41261  24.050  41.797   3.741
70662W        W41262  39.846  35.881  12.447
70663W        W41263   8.258  23.785   1.737
70664W        W41264  38.457  27.936  14.395
70665W        W41265  10.097   5.296  10.946
70666W        W41266  43.791  34.976  14.817
70667W        W41267  18.727  13.665  13.989
70668W        W41268  44.913   3.029   3.276
70669W        W41269  25.791  38.822  11.431
70670W        W41270  31.502  21.466  10.891
70671W        W41271  34.602  24.741   1.232
70672W        W41272   4.939  20.139   1.821
70673W        W41273   1.354  11.274  13.571
70674W        W41274  39.986   9.865   4.255
70675W        W41275  27.980  39.600  12.000
70676W        W41276  16.307  27.719   0.442
70677W        W41277  16.646   8.364  13.824
70678W        W41278  40.791  37.538  11.270
70679W        W41279  29.535  21.233  14.616
70680W        W41280  34.076  27.650  13.955
70681W        W41281  22.333  13.575   4.161
70682W        W41282  38.133  27.536  14.332
70683W        W41283  38.638  19.276  13.952
70684W        W41284  13.450  41.744   3.645
70685W        W41285  14.225  27.387  11.651
70686W        W41286  26.081  37.441   0.846
70687W        W41287   1.501  15.734   0.499
70688W        W41288   5.571  21.164   2.841
70689W        W41289  24.278  27.353  11.650
70690W        W41290  29.984  32.857  11.180
70691W        W41291  11.928   1.949  12.100
70692W        W41292   0.214   8.019   1.032
70693W        W41293  12.785   8.834  12.646
70694W        W41294  40.267  33.604   0.351
70695W        W41295  34.629  41.144  13.098
70696W        W41296  27.897   4.256   3.902
70697W        W41297  13.754  35.369   0.404
70698W        W41298  26.597  40.483   2.482
70699W        W41299  10.656  15.598   1.427
70700W        W41300  31.951  44.016   0.486
70701W        W41301  22.705  42.926  10.112
70702W        W41302   0.343  17.290  10.621
70703W        W41303  40.493  17.399  13.922
70704W        W41304  18.639   2.942   2.189
70705W        W41305  30.111  12.178  14.462
70706W        W41306  25.720   0.400   1.732
70707W        W41307  25.060  41.081  11.613
70708W        W41308   1.466   1.296  14.030
70709W        W41309  22.989  19.668   2.875
70710W        W41310  21.914   6.222   2.310
70711W        W41311  35.895  13.600  13.928
70712W        W41312  19.032   0.819   0.891
70713W        W41313  31.196  26.036  14.735
70714W        W41314  10.556  13.838   2.916
70715W        W41315  40.168   9.776  12.548
70716W        W41316  11.251  42.591   0.426
70717W        W41317  23.009  41.918   1.403
70718W        W41318  30.580   6.571   3.736
70719W        W41319  35.146  42.995  13.104
70720W        W41320  24.000  31.755   2.309
70721W        W41321  36.968  10.258   0.360
70722W        W41322   0.900  29.007  10.767
70723W        W41323  15.250  37.265   2.832
70724W        W41324   8.687  31.417   4.778
70725W        W41325   5.402   4.166   4.406
70726W        W41326  12.614  22.057   1.023
70727W        W41327   1.871  39.233  12.379
70728W        W41328  41.549   7.409  14.101
70729W        W41329  33.882  16.211  12.966
70730W        W41330  19.275   1.709   4.483
70731W        W41331  10.034  12.339  13.888
70732W        W41332   9.659  39.648  10.596
70733W        W41333  41.578   6.851  12.867
70734W        W41334  37.068  12.748   0.652
70735W        W41335   0.584  29.502   0.959
70736W        W41336  37.300  38.782  13.351
70737W        W41337  42.221  21.654   1.775
70738W        W41338   6.489   0.774   4.621
70739W        W41339  33.618  22.027  14.856
70740W        W41340   4.246  16.965   1.940
70741W        W41341  26.950   1.826   2.259
70742W        W41342  13.566  35.861   0.306
70743W        W41343   5.248  25.430  10.421
70744W        W41344  12.093  16.738   2.507
70745W        W41345  39.816  20.209  11.897
70746W        W41346  24.462  26.602  13.573
70747W        W41347  25.927  26.931   4.171
70748W        W41348  17.264  21.423   4.872
70749W        W41349  31.664  39.058  12.389
70750W        W41350  34.329  43.857  11.477
70751W        W41351   6.779  38.916  10.752
70752W        W41352  31.621  37.901   0.129
70753W        W41353  18.784   6.454   5.010
70754W        W41354  34.109  44.097  11.096
70755W        W41355  38.394  25.364  12.976
70756W        W41356  24.129  31.459  13.323
70757W        W41357   5.737  30.290  13.543
70758W        W41358  30.005  37.040  12.000
70759W        W41359  19.584  33.061   2.620
70760W        W41360  23.789  13.320  14.805
70761W        W41361  44.813  26.939   4.183
70762W        W41362  29.378  36.410   0.858
70763W        W41363  23.210  34.800   3.469
70764W        W41364  21.552  36.884  14.362
70765W        W41365  20.879   0.809  14.742
70766W        W41366  33.916  27.488  11.104
70767W        W41367  27.765  22.458  14.909
70768W        W41368  32.214  40.828   3.968
70769W        W41369  38.897   9.284   2.187
70770W        W41370  19.620   2.704   3.557
70771W        W41371   9.724  39.935   2.237
70772W        W41372  40.323  11.117  13.431
70773W        W41373  31.388  39.620   1.016
70774W        W41374  33.564  36.132  12.525
70775W        W41375   1.245  40.830  12.582
70776W        W41376  16.367  34.042  11.838
70777W        W41377  40.721  39.021   1.955
70778W        W41378  19.852   0.875  14.302
70779W        W41379  19.077  34.985   3.836
70780W        W41380  18.468  15.209   1.228
70781W        W41381  24.328   5.448   1.760
70782W        W41382   5.945   5.076  14.051
70783W        W41383  25.579  37.751   4.983
70784W        W41384  21.490  31.110   4.680
70785W        W41385  21.231  16.146  10.341
70786W        W41386  26.503  43.352  12.856
70787W        W41387  18.693   9.184   0.216
70788W        W41388  38.880  19.512  14.472
70789W        W41389  38.089  17.344  12.494
70790W        W41390   8.866  24.551  14.195
70791W        W41391  13.925   5.277  10.836
70792W        W41392  12.832   2.892   1.941
70793W        W41393  32.080  16.529   4.595
70794W        W41394   2.471   0.097  13.421
70795W        W41395  34.904  10.361  14.857
70796W        W41396  41.157  30.873   0.826
70797W        W41397   2.481   3.292   2.595
70798W        W41398  23.030  17.981   4.760
70799W        W41399  43.839   3.206  11.228
70800W        W41400  42.472  27.318   1.554
70801W        W41401  44.514  37.824   1.305
70802W        W41402   5.461  38.155  12.124
70803W        W41403  25.801  14.069  13.900
70804W        W41404  39.909   7.805  14.263
70805W        W41405  44.860  41.780  13.029
70806W        W41406  11.652   2.729   0.200
70807W        W41407  33.995  41.628   0.233
70808W        W41408  31.284  33.146   1.292
70809W        W41409  21.469  26.324   3.749
70810W        W41410  24.112  26.080   4.517
70811W        W41411   9.862  20.921  12.341
70812W        W41412  10.891  20.202   4.874
70813W        W41413  44.354  20.532  14.926
70814W        W41414   1.897  38.166   0.212
70815W        W41415   4.614  42.745  10.827
70816W        W41416   8.640  14.814   5.167
70817W        W41417  32.055  20.801  11.382
70818W        W41418  15.656   1.298   3.570
70819W        W41419  38.827  10.311   4.069
70820W        W41420  36.315  14.278   3.168
70821W        W41421  16.677  20.301   2.664
70822W        W41422  26.904  11.737   0.313
70823W        W41423   6.232  23.623  13.657
70824W        W41424  38.543  43.554  13.838
70825W        W41425  25.970  12.539  12.347
70826W        W41426  32.306  10.592  14.504
70827W        W41427  13.116  20.747   1.574
70828W        W41428   8.252   2.293  10.505
70829W        W41429  24.527  11.557   0.360
70830W        W41430  39.344  43.012  14.522
70831W        W41431  33.509   9.369   2.878
70832W        W41432   1.444   1.533  10.619
70833W        W41433  38.024  19.569  11.934
70834W        W41434   9.804   4.250   2.237
70835W        W41435  10.788  31.901  12.439
70836W        W41436  33.167  13.784  12.154
70837W        W41437  37.397  15.267   0.399
70838W        W41438   6.687  11.756  13.521
70839W        W41439  16.095  44.312  13.464
70840W        W41440   8.137  25.237   1.943
70841W        W41441  33.499  27.109   3.497
70842W        W41442  40.109  35.579  12.109
70843W        W41443   0.870  26.749  12.090
70844W        W41444   0.461  36.463   0.382
70845W        W41445  23.757  33.954  13.969
70846W        W41446  10.798  39.494   1.936
70847W        W41447  20.543  21.680   2.775
70848W        W41448  40.645   8.500   2.278
70849W        W41449  41.099  20.276  14.711
70850W        W41450  12.744  18.097   2.421
70851W        W41451  36.030  34.379   2.758
70852W        W41452   0.830   0.715  11.207
70853W        W41453  30.567  11.253   4.505
70854W        W41454   5.172  26.020   0.931
70855W        W41455  16.975  13.304  12.050
70856W        W41456  30.343  22.799   3.794
70857W        W41457  35.204  20.332   3.173
70858W        W41458  41.282  13.221   2.147
70859W        W41459  12.818  22.107  14.087
70860W        W41460  42.809  25.221  11.344
70861W        W41461  15.608  18.941  13.363
70862W        W41462  31.753  44.155   3.228
70863W        W41463   3.408  38.017  11.054
70864W        W41464   1.342  20.306  14.296
70865W        W41465  25.691  32.080  13.030
70866W        W41466  31.402  19.342   0.954
70867W        W41467  11.382  35.061  13.325
70868W        W41468   5.302  41.178  13.012
70869W        W41469  37.506  24.497   3.753
70870W        W41470  12.041   6.791   2.146
70871W        W41471  14.874  38.340   1.900
70872W        W41472   8.442   2.945   0.333
70873W        W41473  17.627  36.858   3.532
70874W        W41474  34.800  29.071   1.769
70875W        W41475   7.138  29.641   1.263
70876W        W41476   6.350  33.898  13.190
70877W        W41477  43.551   3.663   0.901
70878W        W41478  34.392   3.366  14.914
70879W        W41479  28.463  29.500   0.672
70880W        W41480  33.446  22.697   2.330
70881W        W41481  16.490  31.932  11.583
70882W        W41482  13.692  26.411   0.757
70883W        W41483  40.913  12.194   4.650
70884W        W41484  20.737  24.222   3.846
70885W        W41485   4.885  30.556   5.086
70886W        W41486  25.160  30.862   3.861
70887W        W41487   9.384  17.734   4.034
70888W        W41488   6.744  10.349   1.711
70889W        W41489  36.446  14.894   0.774
70890W        W41490   6.864  25.535   3.340
70891W        W41491  24.338   2.789  12.713
70892W        W41492   9.417  40.827  12.987
70893W        W41493  14.376  16.429   3.454
70894W        W41494   8.917  12.740  12.474
70895W        W41495  32.667  33.631  12.690
70896W        W41496  37.040  31.677   1.984
70897W        W41497  38.355  32.404  13.134
70898W        W41498  20.379  43.969  10.441
70899W        W41499  39.621  10.775  11.688
70900W        W41500  43.042  28.297   5.070
70901W        W41501  37.903  31.176   4.118
70902W        W41502   7.433  34.302   2.346
70903W        W41503  16.166  41.084   2.739
70904W        W41504  29.980   8.212  13.914
70905W        W41505  42.400  42.937   4.541
70906W        W41506  22.494  27.116  12.434
70907W        W41507  44.772  29.870  13.976
70908W        W41508  17.268  30.554   4.603
70909W        W41509   7.314   6.372  10.422
70910W        W41510  43.035  17.200  13.076
70911W        W41511  27.678  10.833   1.936
70912W        W41512  22.082   9.444   4.589
70913W        W41513   0.798   1.266  14.399
70914W        W41514  38.008  33.606  10.719
70915W        W41515  15.877  32.462  10.253
70916W        W41516  28.183   8.230   1.984
70917W        W41517   6.933  31.560   3.684
70918W        W41518  37.427  38.247  13.422
70919W        W41519  27.168  40.044   1.849
70920W        W41520  38.061  40.814  12.219
70921W        W41521  17.146  28.961   0.014
70922W        W41522   3.485  18.290   1.787
70923W        W41523  17.256   2.330   4.904
70924W        W41524  12.680  20.777   2.790
70925W        W41525  22.327  19.548  10.275
70926W        W41526  10.547  36.003   3.270
70927W        W41527  11.884   4.208   3.334
70928W        W41528  15.141   4.941  11.235
70929W        W41529  29.839  44.916   4.759
70930W        W41530  38.611  25.608   4.259
70931W        W41531  15.232  19.109   1.177
70932W        W41532   5.812   7.551   0.306
70933W        W41533  26.514  32.648  14.959
70934W        W41534  20.508  34.940  13.502
70935W        W41535  41.428  23.554   4.595
70936W        W41536  32.805  34.116  11.480
70937W        W41537   6.638  11.436   3.684
70938W        W41538  30.022   2.449  11.002
70939W        W41539  10.589  31.106  11.827
70940W        W41540  15.227  17.745  10.745
70941W        W41541  13.588   9.281   2.882
70942W        W41542  41.999   3.448  11.635
70943W        W41543  40.311  30.727  12.068
70944W        W41544  38.645   1.558   2.248
70945W        W41545  25.003  21.109  13.080
70946W        W41546  28.544  38.876   2.810
70947W        W41547  27.507  24.161   1.937
70948W        W41548  25.088  39.863   2.648
70949W        W41549  36.075  39.435   4.725
70950W        W41550  19.679  30.361   0.802
70951W        W41551  30.936  17.953  11.525
70952W        W41552  18.785   1.342   3.649
70953W        W41553  43.490  34.411  11.707
70954W        W41554   8.892  39.812   1.465
70955W        W41555  28.946  11.696  13.803
70956W        W41556  34.006  37.792   3.625
70957W        W41557  38.334  44.404  13.590
70958W        W41558  34.517  24.012  12.083
70959W        W41559  22.763  22.716   0.067
70960W        W41560  16.805  39.543  11.182
70961W        W41561  18.551   0.242   2.296
70962W        W41562   5.654  18.731   2.874
70963W        W41563  16.385   8.426   2.928
70964W        W41564   6.234  39.398  10.691
70965W        W41565  35.655  29.151  12.364
70966W        W41566  40.437   6.418   3.539
70967W        W41567  17.836  34.569   2.797
70968W        W41568  30.382  12.370   1.406
70969W        W41569   4.507  13.685  12.309
70970W        W41570  28.415   3.263   2.148
70971W        W41571   0.810  13.268  12.066
70972W        W41572  13.595  31.742  12.567
70973W        W41573  24.745  40.402  14.312
70974W        W41574  25.104  13.597  11.714
70975W        W41575   0.050  22.212   3.174
70976W        W41576   8.769   0.929  13.984
70977W        W41577  31.073  13.269   0.409
70978W        W41578  20.506  43.479  11.516
70979W        W41579  40.398  37.143  12.458
70980W        W41580  40.862  29.692   1.813
70981W        W41581   8.692  32.301   4.544
70982W        W41582   9.919   2.301   0.830
70983W        W41583  35.803  12.934   1.768
70984W        W41584  36.307  38.877  10.573
70985W        W41585  24.907  23.044   0.787
70986W        W41586  26.058  16.535   2.010
70987W        W41587  27.401  12.104   3.846
70988W        W41588  12.704  16.771  14.928
70989W        W41589  11.658  42.232  12.667
70990W        W41590  29.379  17.581  14.986
70991W        W41591  42.110  20.524   3.591
70992W        W41592  12.959  25.044  13.989
70993W        W41593  43.758  18.544   1.894
70994W        W41594  12.685  35.110   3.692
70995W        W41595  17.729  32.798  10.670
70996W        W41596   8.885  33.997  14.836
70997W        W41597  44.604  29.109   0.079
70998W        W41598  15.440  39.745  11.095
70999W        W41599   2.402  42.461   4.371
71000W        W41600  22.781  31.405  11.420
71001W        W41601  24.356   2.991   2.378
71002W        W41602  27.284  30.224   5.197
71003W        W41603  33.239  42.920   1.941
71004W        W41604   4.471   2.375  12.931
71005W        W41605  22.706  26.710  14.518
71006W        W41606  34.839  39.450   4.197
71007W        W41607   4.885  35.013  14.257
71008W        W41608  11.754  41.259  14.091
71009W        W41609  28.558  22.031  13.353
71010W        W41610  37.861  29.947  11.609
71011W        W41611  19.524  29.506   0.986
71012W        W41612  43.465   3.849   2.999
71013W        W41613  18.967   2.216   3.510
71014W        W41614  44.446  27.867   0.685
71015W        W41615  19.001  16.026  12.024
71016W        W41616   5.584  44.640   0.443
71017W        W41617  26.307   0.335   0.813
71018W        W41618   9.104   2.414  13.462
71019W        W41619  40.308  22.580   3.523
71020W        W41620  33.920  13.211  14.633
71021W        W41621  23.612   6.217  14.469
71022W        W41622  14.656   5.859  11.155
71023W        W41623  22.296  21.743   3.424
71024W        W41624   6.342  32.593  14.249
71025W        W41625   0.603  14.178   2.211
71026W        W41626  43.535  43.008   0.470
71027W        W41627  24.709   4.548  11.168
71028W        W41628  14.555  36.443   0.824
71029W        W41629   8.195  20.795  12.301
71030W        W41630  30.378  27.729  14.413
71031W        W41631  40.840  13.208   2.405
71032W        W41632  16.220  43.561   2.787
71033W        W41633  34.928  39.317   2.677
71034W        W41634  29.436  20.171  12.017
71035W        W41635  15.550  34.368   3.676
71036W        W41636  42.918  39.050  13.987
71037W        W41637   3.013  33.675   0.342
71038W        W41638  35.091  22.822  12.325
71039W        W41639   7.140  24.631   0.769
71040W        W41640   9.658  23.094   4.609
71041W        W41641  17.667  30.108  11.951
71042W        W41642  24.602  33.678   1.259
71043W        W41643  39.601  43.556   1.437
71044W        W41644   0.573   5.507   2.185
71045W        W41645  11.708  34.045  11.664
71046W        W41646  25.561  22.542  11.723
71047W        W41647  32.173   2.453   0.213
71048W        W41648  14.879  43.447   1.230
71049W        W41649   2.766   7.668  14.789
71050W        W41650  30.915  19.566   0.982
71051W        W41651  31.853  33.366   1.985
71052W        W41652  43.039  28.578  13.008
71053W        W41653  12.064  22.591   4.636
71054W        W41654  34.105   8.716   2.697
71055W        W41655  16.632   5.994  14.804
71056W        W41656  14.654  42.185  12.073
71057W        W41657   4.958   0.114  11.088
71058W        W41658  19.940   6.689   1.998
71059W        W41659  30.284  42.442  13.123
71060W        W41660   2.924  37.020   3.182
71061W        W41661  23.699  25.990   2.793
71062W        W41662  32.227  31.204  12.785
71063W        W41663  12.887  44.452   3.342
71064W        W41664  37.971  43.516  14.445
71065W        W41665   3.258  31.065  10.399
71066W        W41666   4.120  18.575   3.936
71067W        W41667  17.530  21.407  11.644
71068W        W41668  33.753  26.127   1.784
71069W        W41669   5.146  44.165   1.810
71070W        W41670   7.752  11.621   3.201
71071W        W41671  32.715  23.548  12.508
71072W        W41672  27.059  26.574   0.273
71073W        W41673  36.592  37.067   1.950
71074W        W41674  29.637  31.036   1.905
71075W        W41675  12.723   2.757   0.480
71076W        W41676  10.966   8.567   0.156
71077W        W41677  23.553  31.480   0.587
71078W        W41678  26.048  22.752  11.632
71079W        W41679  43.326  23.500   4.639
71080W        W41680   8.211  13.359   1.820
71081W        W41681  13.689  24.645   2.723
71082W        W41682  13.343   7.686   2.756
71083W        W41683  31.337   2.870  13.139
71084W        W41684   1.757  21.837   1.531
71085W        W41685   5.133  11.153   4.636
71086W        W41686   6.100  17.323   0.915
71087W        W41687  13.331  41.880  11.802
71088W        W41688  44.975  23.455  11.936
71089W        W41689  25.334  29.539  13.957
71090W        W41690  17.215  18.578   4.392
71091W        W41691  33.256  20.929  12.069
71092W        W41692   4.238   7.726   4.484
71093W        W41693   2.865  32.560   2.768
71094W        W41694  36.989  41.632   0.105
71095W        W41695  39.002   8.827   3.482
71096W        W41696  38.520  16.079  12.517
71097W        W41697   4.329  10.804  11.525
71098W        W41698   7.854  16.239  14.509
71099W        W41699  13.853   1.493   4.097
71100W        W41700  41.746  11.474  11.151
71101W        W41701  26.753   9.190  13.090
71102W        W41702  23.540   2.463  14.028
71103W        W41703  19.622  41.315  11.568
71104W        W41704  16.243  36.095  14.772
71105W        W41705  22.582  35.567   2.813
71106W        W41706  44.205  42.323   3.856
71107W        W41707  11.209  14.666   0.408
71108W        W41708   8.748  24.040  12.857
71109W        W41709  36.854  31.991  13.161
71110W        W41710   3.709   4.846  13.373
71111W        W41711   7.969   8.723   0.802
71112W        W41712   7.304  25.313  12.909
71113W        W41713  40.946  22.304   3.821
71114W        W41714  27.699  31.969  13.530
71115W        W41715  12.633  23.153  12.179
71116W        W41716  27.986  33.385   1.986
71117W        W41717  28.211  29.378   2.960
71118W        W41718  19.030  21.176   0.242
71119W        W41719  42.901  27.402  10.737
71120W        W41720  23.961  12.337   2.327
71121W        W41721  19.052   6.187  13.914
71122W        W41722  39.064  31.907  10.036
71123W        W41723  22.294  24.108  13.136
71124W        W41724  18.611  14.744  10.886
71125W        W41725   2.891   5.974   3.821
71126W        W41726  29.031  37.585   0.506
71127W        W41727  36.553  16.157   4.785
71128W        W41728  27.975  26.002   2.289
71129W        W41729  44.897  29.932   3.356
71130W        W41730   6.141  20.263   0.358
71131W        W41731   9.786   7.658   3.650
71132W        W41732  22.402  22.131   1.902
71133W        W41733   8.541  16.034   4.483
71134W        W41734  34.853  36.448  13.161
71135W        W41735  14.382   1.876  13.456
71136W        W41736  22.924  22.055  11.707
71137W        W41737  18.677  24.140   3.670
71138W        W41738  25.797  38.507   0.775
71139W        W41739  19.042  34.348  14.572
71140W        W41740  40.529   1.656   2.217
71141W        W41741  30.776  32.209  12.325
71142W        W41742  27.031  40.111  11.988
71143W        W41743  11.781  44.393   3.119
71144W        W41744  12.285  35.069  11.429
71145W        W41745  24.253  21.210  13.481
71146W        W41746  17.449  40.994  12.187
71147W        W41747  23.546  18.506  10.604
71148W        W41748  12.844  27.025   0.355
71149W        W41749  35.534   0.206  11.667
71150W        W41750  17.296  40.488  12.383
71151W        W41751   5.442   1.682  11.203
71152W        W41752  10.563  28.120  11.161
71153W        W41753   9.342  42.026   2.870
71154W        W41754  35.986  33.886  14.235
71155W        W41755   0.890  29.678  13.233
71156W        W41756   3.744  25.170  14.049
71157W        W41757  37.785  41.299  11.529
71158W        W41758  19.639   1.319  14.094
71159W        W41759  17.755  12.959   4.793
71160W        W41760  44.532  23.585   3.655
71161W        W41761  42.830  30.319   2.443
71162W        W41762   6.557  28.419  11.555
71163W        W41763  22.531  37.570   4.433
71164W        W41764  17.197  13.170  11.465
71165W        W41765  11.362  16.728   3.407
71166W        W41766   3.293  11.362   1.286
71167W        W41767  13.265  17.846   1.780
71168W        W41768  13.397  24.161  14.314
71169W        W41769  37.073  13.538  14.412
71170W        W41770  29.550   7.677   1.689
71171W        W41771  40.023  31.048   4.842
71172W        W41772  27.615  22.571  11.217
71173W        W41773   1.417   4.848   1.813
71174W        W41774  17.657  18.144  11.087
71175W        W41775  13.179   3.767  11.492
71176W        W41776  35.304  18.157  11.277
71177W        W41777   7.803   9.757  12.387
71178W        W41778  13.820  15.333   0.359
71179W        W41779  16.853   3.214   2.841
71180W        W41780  30.772  38.017  14.518
71181W        W41781  42.253   3.001   3.197
71182W        W41782  14.474  13.004   1.808
71183W        W41783  33.495  34.615  12.961
71184W        W41784   1.318   4.881   4.832
71185W        W41785   1.282  35.482   0.439
71186W        W41786  24.603  41.368   1.636
71187W        W41787  39.199  31.875  13.969
71188W        W41788  41.532  24.224  13.055
71189W        W41789  13.623  38.355  11.942
71190W        W41790  32.998  41.224   1.309
71191W        W41791  36.564   6.182  12.223
71192W        W41792  29.983  37.486   0.927
71193W        W41793  12.698  12.388   2.375
71194W        W41794  27.038  44.847  14.817
71195W        W41795  12.136  14.811   2.162
71196W        W41796  27.470  35.376  11.874
71197W        W41797  35.465  33.462  12.448
71198W        W41798   1.856  17.604   0.770
71199W        W41799  29.746  30.556  10.254
71200W        W41800   6.894  29.155   1.449
71201W        W41801  27.202  39.511   1.150
71202W        W41802   7.436   7.419  10.701
71203W        W41803   0.766  30.667  14.810
71204W        W41804  28.106  43.541  10.892
71205W        W41805   1.285  12.190   4.193
71206W        W41806  30.658  10.156  14.863
71207W        W41807  31.832  31.856   4.294
71208W        W41808  35.559   5.987   0.349
71209W        W41809  27.257  15.786   2.474
71210W        W41810  13.441  35.300  11.057
71211W        W41811  32.627  21.205  11.266
71212W        W41812  34.284  43.958   1.912
71213W        W41813  10.229  14.422  14.440
71214W        W41814  28.087  34.972  13.709
71215W        W41815  20.556  37.309  12.482
71216W        W41816  19.763  38.296   4.238
71217W        W41817  42.844  12.332  12.350
71218W        W41818  25.992  21.949   2.844
71219W        W41819  39.795  30.228  10.989
71220W        W41820  11.595   4.953   3.564
71221W        W41821  34.015  20.088  10.823
71222W        W41822  20.535   1.468   2.666
71223W        W41823   5.973   5.345  11.962
71224W        W41824  18.080  16.356   3.390
71225W        W41825  17.193  36.846  11.441
71226W        W41826  41.116  38.618  12.130
71227W        W41827  21.100   0.804   0.381
71228W        W41828   5.141  34.340   1.012
71229W        W41829   5.412  37.549   4.141
71230W        W41830  35.344  28.312   3.299
71231W        W41831   4.556   9.604  14.186
71232W        W41832  20.335  40.005   4.910
71233W        W41833  20.220  17.688  13.808
71234W        W41834  25.127  28.589   3.647
71235W        W41835  35.861  36.881   4.320
71236W        W41836  10.788  27.386  13.057
71237W        W41837  44.331  39.221  14.534
71238W        W41838  35.427   3.996   1.342
71239W        W41839  22.315  43.260   1.534
71240W        W41840  35.290  14.602  11.463
71241W        W41841  10.512  19.253  11.007
71242W        W41842   5.306  22.075   2.398
71243W        W41843  30.495  21.519   4.168
71244W        W41844  33.854  18.465   4.373
71245W        W41845  14.712  24.827  11.577
71246W        W41846  44.943  23.075   2.798
71247W        W41847  14.823  12.305  12.554
71248W        W41848  13.681  34.103  13.091
71249W        W41849   0.443   1.218   3.706
71250W        W41850   1.998  11.878  12.055
71251W        W41851  32.831   8.890   4.561
71252W        W41852  27.179  31.871   2.045
71253W        W41853   3.618  34.594   4.622
71254W        W41854  22.619  14.687   3.745
71255W        W41855  26.081  27.144   1.322
71256W        W41856  39.514   9.634   4.380
71257W        W41857  25.355   9.452  10.274
71258W        W41858   6.284  20.788   4.041
71259W        W41859  43.558   2.911  10.284
71260W        W41860  37.309  34.056  13.805
71261W        W41861  30.471  29.959  10.616
71262W        W41862  12.147  44.715   2.851
71263W        W41863  15.526  39.287   2.220
71264W        W41864  44.795  34.223   3.108
71265W        W41865  23.306  25.138  12.039
71266W        W41866  37.185  36.295  11.623
71267W        W41867  22.784  22.190   4.607
71268W        W41868  25.542   6.811   4.501
71269W        W41869  39.769  44.965  13.273
71270W        W41870  37.374  34.120  12.356
71271W        W41871   4.719  36.643   2.658
71272W        W41872  19.436   5.360   0.744
71273W        W41873  42.013  20.313   2.680
71274W        W41874   7.775   9.336   3.820
71275W        W41875   8.806  41.313  11.027
71276W        W41876  43.046  40.775   0.313
71277W        W41877  40.544  16.758   2.783
71278W        W41878   9.181  25.775  14.367
71279W        W41879   5.794  15.118  12.910
71280W        W41880  14.275  25.293  13.782
71281W        W41881  12.182  21.974   2.424
71282W        W41882  17.147  19.818   1.854
71283W        W41883   9.634  43.296   1.217
71284W        W41884   7.894  37.194   3.173
71285W        W41885  28.835  27.221  13.825
71286W        W41886  35.457  43.940  14.706
71287W        W41887  22.608  17.235   0.857
71288W        W41888   0.884   6.893  12.978
71289W        W41889   8.918  19.046   0.375
71290W        W41890  38.375  29.665  12.982
71291W        W41891   7.466  43.841   1.208
71292W        W41892  27.950   1.068  11.208
71293W        W41893  20.642  40.468  14.482
71294W        W41894   3.408  22.359   0.057
71295W        W41895  18.575  28.025  12.869
71296W        W41896  36.563   6.579   3.731
71297W        W41897  30.646  29.250   1.927
71298W        W41898   5.787   3.116  12.860
71299W        W41899   3.221  37.112   2.348
71300W        W41900  25.131  10.872   3.471
71301W        W41901   4.376   8.960   2.408
71302W        W41902  39.975   7.455   2.783
71303W        W41903  21.942  41.086   4.091
71304W        W41904   2.764  29.969   3.756
71305W        W41905   0.364  16.182   3.122
71306W        W41906  44.337  41.811   3.998
71307W        W41907  32.863  15.863   4.876
71308W        W41908  11.774  41.011  13.335
71309W        W41909   0.176  21.788  13.741
71310W        W41910   1.234  13.813   3.710
71311W        W41911  18.782  22.172   3.813
71312W        W41912  41.438  27.271  14.007
71313W        W41913   7.774  26.945  14.963
71314W        W41914  23.904  22.632  11.120
71315W        W41915  36.805  29.607  14.431
71316W        W41916  10.539   2.342   5.284
71317W        W41917  30.373   3.272  14.239
71318W        W41918  26.672  29.098   0.366
71319W        W41919  33.616  24.460  11.951
71320W        W41920  39.949  29.540   1.461
71321W        W41921  19.755  29.932  10.771
71322W        W41922   4.282  30.455   3.657
71323W        W41923   5.325  14.343   4.614
71324W        W41924  32.177  15.084  13.945
71325W        W41925  42.678  29.356   2.233
71326W        W41926   8.259   9.398   3.647
71327W        W41927  35.109  24.754   1.400
71328W        W41928   5.478  28.891  13.415
71329W        W41929  36.077  26.230   0.481
71330W        W41930  19.544   7.895  10.643
71331W        W41931  28.139  21.284  11.095
71332W        W41932   1.144  43.298   2.883
71333W        W41933   5.342  31.173   2.853
71334W        W41934  43.512  10.395  12.375
71335W        W41935  25.140  30.749   0.338
71336W        W41936  40.823  27.711   2.846
71337W        W41937  32.627   9.835   2.666
71338W        W41938  39.108  25.517  14.381
71339W        W41939  22.657  32.521  13.589
71340W        W41940  28.832  43.425   2.035
71341W        W41941  34.108  15.172  12.483
71342W        W41942   5.192  37.834  12.522
71343W        W41943  30.719   0.882  11.355
71344W        W41944  21.692  28.501  13.238
71345W        W41945   3.239   6.824  13.387
71346W        W41946  28.990   7.178   1.013
71347W        W41947   5.679   2.856  13.301
71348W        W41948  28.579  28.719   3.717
71349W        W41949  19.816   1.358  13.613
71350W        W41950  27.166  24.635  11.659
71351W        W41951   5.609  31.121  10.746
71352W        W41952   2.273  20.019  14.542
71353W        W41953  22.043  32.394  11.229
71354W        W41954   4.430  11.213  14.707
71355W        W41955   2.276  25.431  14.493
71356W        W41956  43.119  31.109  13.399
71357W        W41957  25.028  15.240  14.580
71358W        W41958  15.956  22.691   0.947
71359W        W41959  23.588   3.966  11.593
71360W        W41960   7.450  36.569  13.419
71361W        W41961  32.897   1.923   2.774
71362W        W41962  24.713  20.129  12.991
71363W        W41963  19.584  15.805   4.226
71364W        W41964  33.946  25.261   0.375
71365W        W41965  21.139  35.382  13.828
71366W        W41966  31.306  13.552   1.309
71367W        W41967   8.329   1.033   2.634
71368W        W41968  32.502  25.367   3.303
71369W        W41969   2.950  42.272   3.294
71370W        W41970  19.281  22.573  11.518
71371W        W41971   2.431  18.572  14.013
71372W        W41972  44.704  10.086   1.329
71373W        W41973  40.766  19.372  13.319
71374W        W41974  23.721  21.180  12.430
71375W        W41975  22.472  27.241   0.518
71376W        W41976  28.426  30.712  12.086
71377W        W41977  21.157  34.481   4.746
71378W        W41978   3.351   5.179  14.776
71379W        W41979  17.438  36.487  13.440
71380W        W41980  10.621   7.289  11.443
71381W        W41981  14.563  32.957   2.225
71382W        W41982  37.327  14.929   2.478
71383W        W41983   4.257  43.734   4.620
71384W        W41984   6.920  44.200   0.442
71385W        W41985  44.351  25.223  10.607
71386W        W41986  26.903  40.503   0.661
71387W        W41987  37.141   8.275   2.138
71388W        W41988  13.330  27.168   0.687
71389W        W41989  18.120  14.381   0.520
71390W        W41990   5.944  28.225   0.123
71391W        W41991  23.782  40.578  13.080
71392W        W41992   8.621  14.174  14.514
71393W        W41993  22.086  20.782   3.403
71394W        W41994  28.753  22.175  12.353
71395W        W41995  20.766  26.961  11.990
71396W        W41996   0.989  20.066   2.901
71397W        W41997  18.184  23.555  13.881
71398W        W41998  37.077  37.932   0.309
71399W        W41999  21.290   0.839   1.433
71400W        W42000  42.594  23.621  11.459
71401W        W42001  32.998  34.768   1.921
71402W        W42002  14.797   7.295   4.585
71403W        W42003  22.525   2.416  11.107
71404W        W42004  33.608   7.793   3.766
71405W        W42005  15.778  19.224   1.860
71406W        W42006  44.805  37.556   3.205
71407W        W42007  18.139  12.123   2.839
71408W        W42008   3.267  27.817   2.363
71409W        W42009  39.037  20.805   3.842
71410W        W42010   7.324  26.055  11.523
71411W        W42011  43.767  11.965  14.873
71412W        W42012  31.929   8.564   0.299
71413W        W42013  41.025  11.169  12.889
71414W        W42014  32.406  43.264   4.053
71415W        W42015  15.204  29.240  13.081
71416W        W42016  44.100  34.109  12.876
71417W        W42017  11.505  19.804  12.543
71418W        W42018  12.302  44.610   4.165
71419W        W42019   1.994  22.223   3.581
71420W        W42020  26.710   8.463  10.656
71421W        W42021  23.254  37.398   0.527
71422W        W42022  10.747  21.032   0.699
71423W        W42023   1.228  31.408  11.100
71424W        W42024  13.277   4.158   2.820
71425W        W42025  43.723  38.516   2.236
71426W        W42026  11.646  20.010  12.067
71427W        W42027  18.903  42.748   1.484
71428W        W42028  22.231  10.945  11.171
71429W        W42029  42.483  17.842   2.962
71430W        W42030   2.312   4.061  11.942
71431W        W42031   5.664   4.269  11.511
71432W        W42032  36.014   3.618  14.425
71433W        W42033  30.710  38.399  10.617
71434W        W42034  40.518  44.319   4.283
71435W        W42035   5.439  37.974  13.244
71436W        W42036  12.318  35.371   4.168
71437W        W42037   7.976  27.926  13.315
71438W        W42038  12.172   8.157   0.800
71439W        W42039  37.641  23.978  11.546
71440W        W42040   9.688  43.979   0.923
71441W        W42041  25.312  26.129   3.672
71442W        W42042  23.011  31.981  10.655
71443W        W42043  21.570   9.420   4.576
71444W        W42044   9.607   5.613   1.922
71445W        W42045  17.175  21.498  14.344
71446W        W42046  37.104  24.138   2.844
71447W        W42047  39.518  17.116  11.950
71448W        W42048  38.721   5.687   1.089
71449W        W42049  19.167   5.444  14.333
71450W        W42050  40.888  21.560   4.124
71451W        W42051  24.552  22.164  12.567
71452W        W42052  23.131   1.026   1.333
71453W        W42053   1.216  21.004  14.723
71454W        W42054  32.885  30.025  11.526
71455W        W42055  16.620  16.267   2.283
71456W        W42056  25.350  17.797  10.702
71457W        W42057  12.588  24.568   1.787
71458W        W42058  31.960  39.945  12.505
71459W        W42059  43.961  43.697  11.914
71460W        W42060  31.974  19.585   0.712
71461W        W42061  10.038   0.823  14.459
71462W        W42062  16.390  14.403   0.489
71463W        W42063  18.631   5.542   0.186
71464W        W42064  43.947  40.514  12.492
71465W        W42065  17.853  26.873  13.223
71466W        W42066  32.602  23.183  14.859
71467W        W42067  17.262   7.145   3.622
71468W        W42068  19.360  19.112   3.676
71469W        W42069  29.910  27.595   0.817
71470W        W42070  44.497  37.547  11.190
71471W        W42071  20.191  44.948  10.852
71472W        W42072  11.378  35.846  12.529
71473W        W42073  35.424  43.775  10.662
71474W        W42074  24.403  19.668  12.923
71475W        W42075  34.230  43.102   1.774
71476W        W42076  15.279  35.405   1.371
71477W        W42077  33.871  35.290  13.979
71478W        W42078  27.058   2.823  11.713
71479W        W42079  26.769  39.409   3.425
71480W        W42080  35.288  16.860  11.392
71481W        W42081  15.554   3.649   4.776
71482W        W42082  20.209  36.101  11.805
71483W        W42083  35.540  27.515  12.602
71484W        W42084  18.473  26.976   2.251
71485W        W42085   9.402  26.020   0.031
71486W        W42086   3.470  21.759   0.927
71487W        W42087  14.648  44.332  11.618
71488W        W42088   3.322  27.697  12.648
71489W        W42089  12.091  41.848  14.869
71490W        W42090  39.172  31.057   0.186
71491W        W42091  33.038  29.689  13.270
71492W        W42092   4.806  33.763  11.537
71493W        W42093  44.560  29.476   3.677
71494W        W42094  36.421  39.833   0.828
71495W        W42095  11.264   2.815   0.841
71496W        W42096   0.953   4.352   4.550
71497W        W42097  31.643  21.495   0.587
71498W        W42098  42.254  31.410   1.365
71499W        W42099  22.025  23.562   0.905
71500W        W42100  13.464  21.766  12.987
71501W        W42101  36.561  43.547  11.592
71502W        W42102   3.342  26.131  11.570
71503W        W42103  24.331   5.602  13.808
71504W        W42104  33.071  31.551  13.039
71505W        W42105   5.951  21.151  13.459
71506W        W42106  23.890   2.298   3.618
71507W        W42107  18.731   3.073   4.942
71508W        W42108  17.455  33.568   0.316
71509W        W42109  38.535  18.777   0.393
71510W        W42110   0.896  36.939  11.967
71511W        W42111   2.303  13.567   2.339
71512W        W42112  24.399   7.766  12.676
71513W        W42113  26.043   1.551   0.404
71514W        W42114  23.469  42.346  11.208
71515W        W42115   3.229  28.232  11.769
71516W        W42116  25.168  44.082   4.898
71517W        W42117   7.437  42.814  11.782
71518W        W42118  12.220   0.550  14.013
71519W        W42119   4.679  30.597  10.252
71520W        W42120  43.410  12.172  11.244
71521W        W42121   6.812  37.463  14.161
71522W        W42122  43.236  17.120  11.539
71523W        W42123  25.029  19.191  11.230
71524W        W42124   1.897  42.876  14.715
71525W        W42125  42.836  10.893   0.502
71526W        W42126  16.025  18.398  14.903
71527W        W42127   0.510  27.450  12.347
71528W        W42128  39.534  32.148   9.997
71529W        W42129  17.731   9.238  14.494
71530W        W42130   0.987  10.049  14.823
71531W        W42131  34.966  13.629  13.930
71532W        W42132   0.515  23.070  11.618
71533W        W42133  24.546  43.024   3.403
71534W        W42134   1.199  24.142  12.091
71535W        W42135  10.200   8.491   0.277
71536W        W42136   8.201   2.936  11.428
71537W        W42137  32.675   7.368   1.173
71538W        W42138  33.152  39.502   9.899
71539W        W42139  22.546  41.387  13.441
71540W        W42140  38.070  32.795  13.913
71541W        W42141  28.996  22.792  13.548
71542W        W42142  30.882  27.626  14.325
71543W        W42143   0.376  11.234   0.803
71544W        W42144  21.484   9.622   4.086
71545W        W42145  32.949   8.324  14.785
71546W        W42146  28.707  41.855  11.920
71547W        W42147  41.431  15.611  13.581
71548W        W42148  29.897  34.091   2.576
71549W        W42149  42.529  37.546  14.623
71550W        W42150  36.047  14.535   4.732
71551W        W42151  44.732  18.130  11.606
71552W        W42152  18.719  29.905  11.127
71553W        W42153   7.955   0.009  13.830
71554W        W42154  44.660   2.680   0.474
71555W        W42155  10.291  31.620  14.991
71556W        W42156  22.197   7.772   3.218
71557W        W42157   3.772  43.882   4.517
71558W        W42158  10.080  17.151   3.534
71559W        W42159  41.948  44.026  14.928
71560W        W42160  38.615  22.793  14.528
71561W        W42161  42.135  34.484  12.585
71562W        W42162  39.495   9.466  12.509
71563W        W42163  34.001  12.038  10.999
71564W        W42164  43.999  31.412  13.567
71565W        W42165  16.628  16.524   1.828
71566W        W42166  19.755   2.315  11.669
71567W        W42167  18.022  27.722   4.411
71568W        W42168  22.321   0.060  12.929
71569W        W42169  37.148   5.740  10.467
71570W        W42170  36.294  42.904   1.728
71571W        W42171   7.907  21.539  11.162
71572W        W42172  33.835  26.226   0.596
71573W        W42173  43.329  13.847   0.962
71574W        W42174  36.232  27.933   1.205
71575W        W42175  21.493  25.540   1.823
71576W        W42176   1.230   1.856   1.623
71577W        W42177   2.243  40.050  11.278
71578W        W42178   4.593   3.135  11.904
71579W        W42179  38.617  28.789  11.345
71580W        W42180  22.081  17.904  13.300
71581W        W42181  21.663  37.445  13.571
71582W        W42182  17.504   0.964  12.480
71583W        W42183  43.229  22.855   2.582
71584W        W42184  24.770  22.796  13.360
71585W        W42185  20.463  28.965   1.934
71586W        W42186  42.866  44.369   3.199
71587W        W42187  16.972  26.773   0.028
71588W        W42188  17.284  15.023   3.599
71589W        W42189   1.798  44.682  10.509
71590W        W42190  22.563   6.140  11.537
71591W        W42191  33.657   2.877   1.881
71592W        W42192  34.176  33.113   2.149
71593W        W42193  33.936  36.196   4.535
71594W        W42194   1.382  26.422   1.706
71595W        W42195  11.236  30.450   1.149
71596W        W42196   8.770   7.002   0.940
71597W        W42197  27.162  21.425  11.018
71598W        W42198  15.858  28.075   2.331
71599W        W42199  33.952   9.373   4.570
71600W        W42200  44.938  21.970  12.014
71601W        W42201   6.400   5.658   3.280
71602W        W42202  24.782  42.071   2.877
71603W        W42203  17.463  17.606   2.054
71604W        W42204  44.494   7.637   3.877
71605W        W42205  42.786  17.428  13.515
71606W        W42206   5.927  27.753  14.901
71607W        W42207   4.064   8.247   0.851
71608W        W42208  39.301  26.977   0.368
71609W        W42209   7.669  30.446  13.668
71610W        W42210  16.867  38.818   1.319
71611W        W42211   6.843  37.364   4.587
71612W        W42212   1.037  23.201  10.977
71613W        W42213   2.988   3.477  12.857
71614W        W42214   3.788  28.916  11.446
71615W        W42215  29.189  15.831  12.115
71616W        W42216  10.731  34.427   0.792
71617W        W42217   4.849   9.221   5.453
71618W        W42218  18.208  24.962  13.937
71619W        W42219   5.772   1.968   4.520
71620W        W42220  28.091  40.525  11.649
71621W        W42221  39.892  20.676   4.078
71622W        W42222  25.685  28.198   4.159
71623W        W42223   7.681  36.713   3.131
71624W        W42224  11.659  41.917  13.596
71625W        W42225  30.893  33.440  11.416
71626W        W42226   1.850   6.290  14.363
71627W        W42227  28.712  25.687  11.525
71628W        W42228  19.977  13.690  10.753
71629W        W42229  18.994  11.922  11.295
71630W        W42230  30.149   3.068   3.402
71631W        W42231  26.463  38.518  14.401
71632W        W42232  31.696  27.031   3.745
71633W        W42233  23.187  14.292   1.281
71634W        W42234   4.404   0.065  13.515
71635W        W42235  43.999   9.281   1.945
71636W        W42236  21.113  26.720   3.243
71637W        W42237   3.202  28.818  12.452
71638W        W42238  32.638  37.652   2.291
71639W        W42239  14.264   5.964  11.907
71640W        W42240  41.026   0.542  14.424
71641W        W42241  32.606  15.816   0.788
71642W        W42242   6.678  26.450   4.086
71643W        W42243  25.952  12.904  14.200
71644W        W42244  34.963  23.138   2.368
71645W        W42245  31.483   0.239  11.169
71646W        W42246  20.577  15.169   1.195
71647W        W42247  24.649  13.118  10.988
71648W        W42248   4.018   4.433  13.398
71649W        W42249  43.234   8.852  12.570
71650W        W42250  29.411  15.624   4.286
71651W        W42251  19.857  42.008  11.763
71652W        W42252   4.534  23.805   4.160
71653W        W42253   2.761  41.588  14.803
71654W        W42254  27.438  10.195   2.756
71655W        W42255   6.334  31.877   5.005
71656W        W42256  19.768  22.210   2.650
71657W        W42257  34.921   4.801   3.834
71658W        W42258   8.405   4.722  11.168
71659W        W42259  24.605  40.420  11.203
71660W        W42260   6.061   1.342  11.668
71661W        W42261   9.433  20.496  11.616
71662W        W42262  24.230  35.435  13.345
71663W        W42263  39.852   5.951  14.984
71664W        W42264  10.488  32.064  13.557
71665W        W42265  17.825  22.227  12.947
71666W        W42266  15.641   9.744   0.502
71667W        W42267  43.411  39.227  14.885
71668W        W42268  32.082  14.637  10.713
71669W        W42269   5.695   4.195  13.839
71670W        W42270  14.598  41.287   2.807
71671W        W42271  13.896  14.412  14.042
71672W        W42272  29.018  41.715  11.143
71673W        W42273  20.319  17.195  13.939
71674W        W42274  29.933  29.676  12.187
71675W        W42275   4.322  22.548  12.053
71676W        W42276  34.800  44.795  13.689
71677W        W42277  44.886  37.512   4.105
71678W        W42278  28.254  20.798   1.214
71679W        W42279  33.848  22.125   4.052
71680W        W42280  24.214  28.889  13.486
71681W        W42281  25.037  10.331  14.814
71682W        W42282  10.722  32.482  11.539
71683W        W42283  20.799  23.099  11.903
71684W        W42284  11.583  29.270  14.362
71685W        W42285  40.494   4.029   1.274
71686W        W42286  26.231  33.541   2.715
71687W        W42287  20.609  37.067  10.496
71688W        W42288  42.360  36.322  14.604
71689W        W42289   1.778   8.658   3.297
71690W        W42290   9.194  25.135   0.455
71691W        W42291  12.611  17.633  13.964
71692W        W42292  15.493  11.317  12.078
71693W        W42293  39.505  26.571   1.811
71694W        W42294  33.435  11.422   1.944
71695W        W42295   8.277  13.193   0.450
71696W        W42296  24.497  30.969   0.371
71697W        W42297   9.576  28.201   3.631
71698W        W42298   5.900  43.513   4.155
71699W        W42299   0.991  33.622   1.033
71700W        W42300  44.795  11.484   1.374
71701W        W42301  35.355  10.457   2.355
71702W        W42302  30.728   5.259   4.655
71703W        W42303  39.509  43.683   2.860
71704W        W42304  11.019  40.710  14.353
71705W        W42305  40.492  26.362  14.159
71706W        W42306  35.879  25.460  11.152
71707W        W42307   2.018  21.683  12.552
71708W        W42308  18.051   8.135   1.781
71709W        W42309  33.118   8.807  11.199
71710W        W42310   1.902  15.657  14.785
71711W        W42311  38.604  44.309   2.041
71712W        W42312  18.213  37.649   2.116
71713W        W42313  41.798  31.909   0.767
71714W        W42314  25.620  34.436   2.156
71715W        W42315  36.052  25.638   4.072
71716W        W42316   5.882  41.827   1.845
71717W        W42317  31.159  21.314   1.366
71718W        W42318  13.425   0.179   2.904
71719W        W42319  30.247  26.689   2.330
71720W        W42320  28.969  28.249  13.808
71721W        W42321  29.719  41.985   3.094
71722W        W42322  20.497  20.101  10.464
71723W        W42323  32.460  36.114   1.238
71724W        W42324  21.143   9.875   3.156
71725W        W42325  37.852  34.897   0.533
71726W        W42326  24.891  42.844   2.690
71727W        W42327  24.516  34.462   3.437
71728W        W42328   0.947  36.915   4.384
71729W        W42329  33.566  32.101  10.744
71730W        W42330  35.511  26.992   2.145
71731W        W42331   8.635   7.038  12.457
71732W        W42332   2.444  36.846   3.324
71733W        W42333   8.964  21.665  11.131
71734W        W42334  40.050   9.341   2.226
71735W        W42335  28.552  37.162  13.672
71736W        W42336  19.820   8.239  13.526
71737W        W42337  22.836  10.608   4.666
71738W        W42338  23.766  28.198   2.156
71739W        W42339  34.724  38.204   4.639
71740W        W42340  28.920  28.695   3.217
71741W        W42341  19.275  15.233   4.643
71742W        W42342  20.172  23.431   4.555
71743W        W42343  22.045  44.320   3.170
71744W        W42344  15.643   3.924   4.337
71745W        W42345  26.021  42.241   2.192
71746W        W42346  14.485  11.704   4.539
71747W        W42347   3.416  31.148  14.343
71748W        W42348   1.395  43.688  11.913
71749W        W42349   2.829  23.240  12.117
71750W        W42350  24.961  42.290  13.106
71751W        W42351  27.903  34.451   1.232
71752W        W42352  43.166   1.161   0.828
71753W        W42353   4.867  24.899  13.168
71754W        W42354  25.433  32.046  10.698
71755W        W42355   8.806  29.819  11.107
71756W        W42356  22.531   0.986   4.498
71757W        W42357  11.175  10.882  11.405
71758W        W42358  41.961   3.171   2.747
71759W        W42359  17.046  23.463   0.509
71760W        W42360  40.069   9.653   0.989
71761W        W42361  37.773  30.652   2.845
71762W        W42362  40.894   7.472   0.827
71763W        W42363  35.173  14.784  14.333
71764W        W42364  40.269   1.846   4.663
71765W        W42365  36.890  37.254   0.892
71766W        W42366  17.609  30.149  12.818
71767W        W42367   9.380  37.098  14.365
71768W        W42368  38.435  40.254   2.505
71769W        W42369  26.547  35.560   1.170
71770W        W42370   4.210   4.659   1.831
71771W        W42371  29.144   6.377   1.874
71772W        W42372  25.876  11.290  12.062
71773W        W42373   8.607  38.883   2.283
71774W        W42374  10.842  22.196  12.080
71775W        W42375   7.228   9.169   1.969
71776W        W42376   6.762   7.171  11.201
71777W        W42377  23.002  40.322  11.416
71778W        W42378  35.536   4.248   2.229
71779W        W42379  42.973  41.475  12.986
71780W        W42380  40.103  32.415   0.851
71781W        W42381  32.523  43.458   1.689
71782W        W42382  22.004  41.558  14.180
71783W        W42383  24.646  25.483   2.157
71784W        W42384  34.501  30.067  14.293
71785W        W42385  17.742  16.085   0.640
71786W        W42386  12.910  35.381  12.025
71787W        W42387  30.985  25.025   0.764
71788W        W42388  36.338  17.969   1.391
71789W        W42389  44.224   4.702  11.986
71790W        W42390  43.979  34.784  14.343
71791W        W42391  19.592  23.834  12.087
71792W        W42392   2.309  39.405  11.551
71793W        W42393  40.433  12.551   0.390
71794W        W42394  37.286  25.613   2.326
71795W        W42395  18.695   6.776  12.350
71796W        W42396   7.134  43.432   0.936
71797W        W42397  28.108   3.075  12.543
71798W        W42398   1.463  24.209  14.841
71799W        W42399   0.425   7.297  14.259
71800W        W42400  24.042  43.144  14.313
71801W        W42401  32.028  42.747   0.281
71802W        W42402  38.428  31.115  11.366
71803W        W42403  25.704  11.724  14.798
71804W        W42404  34.039   1.889  13.367
71805W        W42405  25.119  27.025  11.121
71806W        W42406  21.348   9.158  11.895
71807W        W42407  27.950  24.845   0.269
71808W        W42408  21.619  18.258   4.946
71809W        W42409  16.377  13.915  11.575
71810W        W42410   5.701  15.819  14.598
71811W        W42411  44.092   7.304  10.998
71812W        W42412  43.254  14.097   4.575
71813W        W42413   6.168  18.687  12.554
71814W        W42414  41.427  39.389  10.405
71815W        W42415  27.355  28.900  14.800
71816W        W42416  30.227  31.850  10.717
71817W        W42417  33.830   0.575   3.852
71818W        W42418   2.590  16.346  10.466
71819W        W42419   1.312  27.251  11.468
71820W        W42420  13.578  37.656   0.488
71821W        W42421  37.642   9.870  12.023
71822W        W42422  40.419   2.467  12.588
71823W        W42423   9.657   4.059   1.756
71824W        W42424  22.134  31.080  14.552
71825W        W42425  11.775  16.045   3.146
71826W        W42426  14.003  28.577   1.913
71827W        W42427  23.616  26.881   1.805
71828W        W42428   3.759  30.225  14.586
71829W        W42429  28.058  39.638   1.655
71830W        W42430   9.607  12.189   3.923
71831W        W42431  43.357   0.989  14.868
71832W        W42432  18.763  44.180   3.634
71833W        W42433   0.587  39.345   1.844
71834W        W42434   1.404  27.875  14.726
71835W        W42435  27.841  42.815   1.967
71836W        W42436   6.987  43.136   3.823
71837W        W42437  36.883  29.208  14.851
71838W        W42438  39.550  12.074  12.853
71839W        W42439  16.854  42.461   2.986
71840W        W42440  27.181   3.679  12.136
71841W        W42441  18.473  22.259  12.413
71842W        W42442  39.646  37.496   2.725
71843W        W42443   7.254   1.210   1.885
71844W        W42444  42.962  33.721   1.954
71845W        W42445  40.051  41.280   0.350
71846W        W42446  11.032  11.353  11.629
71847W        W42447  32.678  39.619   2.872
71848W        W42448   7.400   3.775   3.490
71849W        W42449  17.612  34.867  10.384
71850W        W42450  22.633   8.661  12.972
71851W        W42451  43.824   7.730   0.983
71852W        W42452  22.548  17.175  13.388
71853W        W42453  29.942   0.464   2.507
71854W        W42454  37.793  30.030  13.971
71855W        W42455   7.902   3.938   2.958
71856W        W42456  43.015  38.537  11.614
71857W        W42457  29.198  19.409   5.162
71858W        W42458  40.320   3.331   2.641
71859W        W42459  10.075  20.392  10.448
71860W        W42460  31.540  17.481  11.552
71861W        W42461  16.963  11.835   2.741
71862W        W42462  26.115  33.691  11.589
71863W        W42463  21.002   0.174  10.368
71864W        W42464   9.876  42.802   4.118
71865W        W42465  18.585   8.218   4.416
71866W        W42466  12.140  20.993  11.307
71867W        W42467   0.712   6.673   3.690
71868W        W42468  41.198  26.230   0.682
71869W        W42469  37.402   5.350   4.811
71870W        W42470  41.250  29.440   4.745
71871W        W42471  11.309  20.200   4.582
71872W        W42472  44.929  35.369  11.445
71873W        W42473  26.242   5.246  11.631
71874W        W42474   1.286  34.766  12.812
71875W        W42475  37.071  40.967  14.502
71876W        W42476   7.986  44.960   3.361
71877W        W42477  39.019  31.518   2.859
71878W        W42478   2.866  27.595  10.930
71879W        W42479  19.795  41.478   0.199
71880W        W42480  12.256  25.273  10.555
71881W        W42481  39.814  35.808   1.233
71882W        W42482  23.791  28.488  14.441
71883W        W42483  20.175  18.654  13.869
71884W        W42484  23.338   4.518  11.173
71885W        W42485  11.915  17.675   0.213
71886W        W42486  18.629  11.849   2.878
71887W        W42487  14.675   5.944  14.860
71888W        W42488  36.657  10.641  13.007
71889W        W42489   3.162   0.484   1.423
71890W        W42490  42.762   2.940   3.247
71891W        W42491  22.149  29.757  11.540
71892W        W42492  44.834  34.162  13.565
71893W        W42493  18.651   6.177  11.509
71894W        W42494  41.392  40.316   1.015
71895W        W42495  38.337   5.393   1.826
71896W        W42496  21.605  42.358  11.944
71897W        W42497  30.422  25.574   0.014
71898W        W42498  31.147  15.672  10.776
71899W        W42499  18.775  31.902   1.842
71900W        W42500  44.541  14.260  11.710
71901W        W42501  19.833   8.840  11.458
71902W        W42502   5.803  28.404  14.257
71903W        W42503  21.788  31.985   2.111
71904W        W42504  30.448  40.546   3.525
71905W        W42505  19.231  19.879  13.510
71906W        W42506  21.814  20.220   1.157
71907W        W42507  14.730  38.424  13.455
71908W        W42508   1.815   9.314   0.717
71909W        W42509   1.292   8.408   3.340
71910W        W42510  23.023  27.205  12.485
71911W        W42511   6.475   6.196   2.212
71912W        W42512  12.546  10.720   1.454
71913W        W42513  28.915  37.064   3.392
71914W        W42514  42.540  33.676   2.267
71915W        W42515  10.061  18.527  11.150
71916W        W42516  37.942   3.470   4.787
71917W        W42517  16.788  33.987  12.137
71918W        W42518  40.269  16.489  11.034
71919W        W42519  40.578  41.354  10.243
71920W        W42520  36.544  28.164   2.935
71921W        W42521   3.445  14.827   1.384
71922W        W42522  10.675  44.670  13.575
71923W        W42523  26.164  14.179  12.871
71924W        W42524  30.828  33.477   4.791
71925W        W42525  43.621  26.147   0.852
71926W        W42526  31.925  26.948   0.885
71927W        W42527  23.252  27.180  14.909
71928W        W42528  15.136  41.118   2.866
71929W        W42529  42.724  37.839   1.291
71930W        W42530  24.649  16.332  14.422
71931W        W42531  39.433  24.422   4.483
71932W        W42532   8.370  31.429  11.572
71933W        W42533   3.791  31.806   3.673
71934W        W42534  42.759  28.914   1.969
71935W        W42535   9.635   0.951  14.143
71936W        W42536  40.047  22.999  12.841
71937W        W42537  18.732  31.667  14.793
71938W        W42538  23.980  23.640  14.080
71939W        W42539  32.534  11.489  13.739
71940W        W42540  37.564   6.486   3.321
71941W        W42541   5.165   6.916  13.831
71942W        W42542   4.388  21.992   2.336
71943W        W42543  41.587  25.613   2.869
71944W        W42544  31.500  43.829  11.154
71945W        W42545  31.169  40.748   2.536
71946W        W42546  33.362  34.307  10.745
71947W        W42547  22.492   1.932   2.564
71948W        W42548  31.610  31.508   3.104
71949W        W42549  33.807  25.058   2.167
71950W        W42550   6.440  29.155  10.639
71951W        W42551   6.480   3.434  13.775
71952W        W42552  42.600  15.985  14.362
71953W        W42553  10.877  20.021  10.603
71954W        W42554  31.152   9.193  14.957
71955W        W42555  42.876  17.852   3.716
71956W        W42556  12.356  28.021   4.047
71957W        W42557  22.254  15.847   0.799
71958W        W42558  19.886  14.347  14.896
71959W        W42559  42.972  27.207  13.284
71960W        W42560   1.862  13.442  12.025
71961W        W42561  35.394  41.294  14.392
71962W        W42562  12.221  19.034   0.295
71963W        W42563  27.285  31.839  13.834
71964W        W42564  40.298  40.012   1.770
71965W        W42565  15.312  43.417  12.575
71966W        W42566  35.383  18.074   0.048
71967W        W42567  23.007  40.875   2.587
71968W        W42568  17.088  21.856  13.053
71969W        W42569  24.882  37.891  10.739
71970W        W42570  23.271  37.853  14.268
71971W        W42571  20.250  29.080  10.926
71972W        W42572  23.017  18.546  10.561
71973W        W42573   4.101  33.872  10.250
71974W        W42574  20.517  16.234   1.727
71975W        W42575   7.854  28.220  12.930
71976W        W42576  35.723  19.714  13.292
71977W        W42577  32.042  41.536  14.461
71978W        W42578  28.919  41.049  12.906
71979W        W42579  40.258   2.953   4.675
71980W        W42580  19.997  22.238   4.975
71981W        W42581  33.896  15.547   1.860
71982W        W42582  38.341   6.696  10.741
71983W        W42583  38.655   6.800   2.661
71984W        W42584   4.159  12.252  11.580
71985W        W42585  26.188  15.047   2.719
71986W        W42586  15.369  18.514  11.569
71987W        W42587  42.531  26.985   4.368
71988W        W42588   7.920  21.321  10.392
71989W        W42589  44.988  29.613  14.397
71990W        W42590  33.067  44.421  13.882
71991W        W42591  31.236  27.953  14.524
71992W        W42592  14.146   1.314   3.613
71993W        W42593   1.906  25.615  12.149
71994W        W42594   1.087  20.224  14.890
71995W        W42595  41.922  36.678  12.096
71996W        W42596  29.544  14.496  14.453
71997W        W42597  31.985   0.578  14.355
71998W        W42598  26.217  18.232  14.803
71999W        W42599  28.148  36.105  14.886
72000W        W42600   9.215  43.260  13.882
72001W        W42601  36.606   7.111  12.078
72002W        W42602   7.110  16.098   1.409
72003W        W42603  42.363  39.335   3.660
72004W        W42604  36.463  26.248  12.932
72005W        W42605  30.726   5.107  13.051
72006W        W42606   1.191  41.338   0.421
72007W        W42607  40.154   7.926   4.266
72008W        W42608   3.432  34.415   4.163
72009W        W42609  44.974  26.196   3.225
72010W        W42610   2.881  36.297   3.914
72011W        W42611  27.581  38.792  11.140
72012W        W42612  26.792  19.612  12.556
72013W        W42613   3.348  30.120  11.938
72014W        W42614  32.688  13.772   4.543
72015W        W42615  28.045  20.856  11.852
72016W        W42616  14.778   7.910  12.518
72017W        W42617   4.605  12.303   0.742
72018W        W42618   6.983  17.153   4.035
72019W        W42619  38.543   0.266  13.752
72020W        W42620   2.534  22.502  13.411
72021W        W42621  32.284  14.666   3.889
72022W        W42622  39.059  30.994   1.473
72023W        W42623   9.780  17.391  11.658
72024W        W42624  13.287  23.265  14.432
72025W        W42625  35.093  11.813  12.656
72026W        W42626  18.657  19.305  14.671
72027W        W42627  35.638  26.583  12.262
72028W        W42628  20.876  35.440   1.431
72029W        W42629  27.585  25.417  14.314
72030W        W42630  43.068  40.261  12.686
72031W        W42631  20.670  11.434   0.357
72032W        W42632  20.615   4.716  10.947
72033W        W42633  31.115  11.149  10.588
72034W        W42634  34.844  27.779   3.817
72035W        W42635  39.038   9.765  14.470
72036W        W42636  38.841   0.394  14.597
72037W        W42637  39.005  41.064  14.423
72038W        W42638  41.192  39.231   2.826
72039W        W42639   8.905  29.167   1.281
72040W        W42640   6.158  32.078  12.472
72041W        W42641   8.245  32.489   0.955
72042W        W42642   1.707  40.025  14.023
72043W        W42643  14.645   2.273   2.206
72044W        W42644  32.180  20.507   0.873
72045W        W42645  18.146   8.677  14.766
72046W        W42646   6.244  20.718   3.552
72047W        W42647   4.925  28.714  11.869
72048W        W42648  26.614  30.378   2.179
72049W        W42649  20.133  23.030  13.382
72050W        W42650  22.511  17.851  12.114
72051W        W42651  27.563  19.832  13.699
72052W        W42652  32.729  33.367  13.157
72053W        W42653   4.238  21.655   0.515
72054W        W42654  33.463  22.396  14.503
72055W        W42655  16.662  32.811  11.088
72056W        W42656  34.242  23.040  13.453
72057W        W42657  22.766  33.147  11.130
72058W        W42658   2.316  25.058  12.075
72059W        W42659  40.385   4.529   1.349
72060W        W42660  12.279  26.151  14.160
72061W        W42661  32.467  43.946   0.825
72062W        W42662  17.696  18.286   3.596
72063W        W42663  27.628   0.498   0.780
72064W        W42664   1.238  21.025   2.719
72065W        W42665  14.472  43.917   1.725
72066W        W42666  23.141  32.055  14.941
72067W        W42667  16.309  42.466   0.716
72068W        W42668  44.780  43.643   3.264
72069W        W42669  27.101  11.358  11.146
72070W        W42670  26.065  38.491   1.317
72071W        W42671  35.860  22.086  13.129
72072W        W42672  39.567   2.953  14.623
72073W        W42673   2.491  25.511  12.588
72074W        W42674  29.434  15.177  12.925
72075W        W42675  37.019  31.161  11.236
72076W        W42676  43.525  15.774   5.052
72077W        W42677   7.961  33.340   3.422
72078W        W42678  40.495  44.521  13.361
72079W        W42679   3.324  22.972   1.387
72080W        W42680   2.424  31.677   1.113
72081W        W42681  27.984  34.738  12.961
72082W        W42682  11.488  16.170   4.765
72083W        W42683  24.519  21.168  13.956
72084W        W42684  13.787  31.657  11.580
72085W        W42685  34.939  30.965   0.799
72086W        W42686  35.074  25.515   4.253
72087W        W42687   7.885  19.305  12.980
72088W        W42688  18.875  14.278   1.272
72089W        W42689  21.634  19.177   4.379
72090W        W42690  43.898  10.860   4.147
72091W        W42691  22.143  17.802  11.068
72092W        W42692  21.600  31.923  10.801
72093W        W42693  26.497  18.408  11.578
72094W        W42694  15.283  19.623  10.585
72095W        W42695  32.507  30.022   3.340
72096W        W42696   3.646   4.272   0.406
72097W        W42697  15.688  16.525  13.111
72098W        W42698  44.231  16.835  11.490
72099W        W42699  33.093   5.558  14.965
72100W        W42700  25.757  36.513  13.455
72101W        W42701  14.162   0.866   4.767
72102W        W42702  24.752   1.170   5.267
72103W        W42703  26.118   3.264  14.650
72104W        W42704  42.519   5.446  12.978
72105W        W42705   2.332  22.412   2.448
72106W        W42706  27.480  31.946   0.101
72107W        W42707   6.890  33.483   0.660
72108W        W42708   3.412  15.035   2.670
72109W        W42709  41.241  31.443   0.001
72110W        W42710  34.937  20.755  13.594
72111W        W42711  19.632  40.514   3.484
72112W        W42712   8.961   7.361   3.608
72113W        W42713   1.202   9.668  14.537
72114W        W42714  44.444  44.744   1.664
72115W        W42715  29.012  37.799  13.519
72116W        W42716  38.911  39.233   5.061
72117W        W42717  38.009  15.275   4.140
72118W        W42718   6.737  12.062  14.831
72119W        W42719  13.440  20.308   0.944
72120W        W42720  40.065   7.020   4.553
72121W        W42721  21.130  36.819   4.154
72122W        W42722  27.924  35.454  13.017
72123W        W42723   7.388  28.058   1.803
72124W        W42724  19.004  38.172  13.427
72125W        W42725  18.672   5.091  14.947
72126W        W42726  15.707  22.082  13.303
72127W        W42727  29.266   2.595   2.724
72128W        W42728  42.997   1.692   1.361
72129W        W42729  41.636  14.281   2.783
72130W        W42730  26.718  20.541   2.655
72131W        W42731  41.598   3.369   0.665
72132W        W42732  30.263  12.982  11.237
72133W        W42733  15.692  27.490   3.459
72134W        W42734  15.874   4.171   0.005
72135W        W42735  43.567   9.904   2.334
72136W        W42736  18.296  35.626   3.178
72137W        W42737  17.926   4.624  10.140
72138W        W42738  12.337   1.403   0.371
72139W        W42739  29.185  40.138   0.148
72140W        W42740   6.923  16.354   0.949
72141W        W42741   6.985  18.777  11.075
72142W        W42742   6.800  30.206  14.729
72143W        W42743  40.006  44.156   3.698
72144W        W42744  23.605  12.460   4.877
72145W        W42745  44.082  35.772   3.588
72146W        W42746  24.192   8.486  13.306
72147W        W42747   3.285   7.809   3.561
72148W        W42748  37.366  26.823  14.047
72149W        W42749  23.060  11.815  10.749
72150W        W42750  30.642  23.015   4.208
72151W        W42751  16.607  41.374  12.347
72152W        W42752  29.019  13.707   0.796
72153W        W42753  24.013  30.722  13.007
72154W        W42754  37.134  44.086   5.026
72155W        W42755  33.373   1.285   1.478
72156W        W42756  28.450  37.370   0.029
72157W        W42757  12.402   8.839   3.685
72158W        W42758  23.686  15.890  11.877
72159W        W42759  43.970   8.817   0.824
72160W        W42760  43.770  41.525  12.548
72161W        W42761  40.587  10.780   3.221
72162W        W42762  35.857  16.360  11.639
72163W        W42763   1.519  16.721  11.953
72164W        W42764  36.432  40.921  11.538
72165W        W42765  37.308  17.621   0.876
72166W        W42766  43.347  19.067   3.595
72167W        W42767  16.236   9.875   4.445
72168W        W42768  14.756  41.512   1.335
72169W        W42769  40.583   7.145  11.968
72170W        W42770  19.320  44.566  13.242
72171W        W42771  26.469   2.354   1.795
72172W        W42772  15.190  24.889   1.005
72173W        W42773  17.830  19.002  14.520
72174W        W42774  25.291  38.830  11.330
72175W        W42775  42.788  37.939  14.878
72176W        W42776  42.292  20.216   0.491
72177W        W42777  17.168   0.591  12.432
72178W        W42778  22.136  12.152  13.528
72179W        W42779  22.631  22.699  10.650
72180W        W42780   0.322  19.027  13.865
72181W        W42781  17.801  30.702  14.450
72182W        W42782   8.450  40.020  11.186
72183W        W42783  24.748   3.508  14.672
72184W        W42784  11.670  35.002   4.230
72185W        W42785  28.930   8.873   3.548
72186W        W42786   8.305  26.180   0.359
72187W        W42787  12.766  42.784  12.628
72188W        W42788  12.714  22.916  11.713
72189W        W42789   6.605  34.911   2.911
72190W        W42790  21.431  22.408   4.186
72191W        W42791  13.168  32.722   2.668
72192W        W42792  17.119  40.919  11.787
72193W        W42793  40.991  19.689   4.546
72194W        W42794   8.084   1.415  10.682
72195W        W42795  18.458  23.068  12.214
72196W        W42796  14.372  38.595  12.464
72197W        W42797  17.635  24.927   1.466
72198W        W42798  10.585   3.596   0.510
72199W        W42799  21.533  10.132  14.762
72200W        W42800  23.636  18.796   0.313
72201W        W42801  39.624  42.600  10.310
72202W        W42802  35.376  20.017   2.352
72203W        W42803  35.991  33.869   2.561
72204W        W42804  25.482  32.158   4.139
72205W        W42805   0.021  27.529  12.131
72206W        W42806  36.434  36.833   2.405
72207W        W42807   3.214  13.209   3.273
72208W        W42808  16.047  31.170  14.016
72209W        W42809  37.869  36.950  13.474
72210W        W42810  35.804  17.784   2.138
72211W        W42811  15.146  19.255  12.689
72212W        W42812  12.957   0.345   2.811
72213W        W42813  40.319  42.376   3.247
72214W        W42814   0.482  27.253  13.533
72215W        W42815  28.086  33.104   0.844
72216W        W42816  12.656   5.503  13.035
72217W        W42817   4.569  36.186  14.578
72218W        W42818  35.042  33.417   2.655
72219W        W42819  10.401  14.040   2.448
72220W        W42820  44.762   8.157  11.825
72221W        W42821   0.323  40.070   2.895
72222W        W42822  36.716  28.253  11.513
72223W        W42823   8.835   9.433  14.008
72224W        W42824  27.557   4.795  10.609
72225W        W42825  17.204   4.853   1.247
72226W        W42826  19.996  15.821  11.469
72227W        W42827  17.102  32.569  13.344
72228W        W42828  16.095   1.070   0.739
72229W        W42829  10.383  17.519   4.149
72230W        W42830  37.081  28.927   1.296
72231W        W42831  34.528  35.325   4.503
72232W        W42832  38.703  38.369  11.567
72233W        W42833  18.723  15.724  11.142
72234W        W42834  31.685  12.302  12.006
72235W        W42835  22.707   7.790   3.638
72236W        W42836   8.970  19.699   0.835
72237W        W42837  38.886  18.938  12.170
72238W        W42838   5.763  22.812   1.068
72239W        W42839   7.388  31.543  13.647
72240W        W42840   7.303  36.981   0.064
72241W        W42841  14.302  28.437  11.541
72242W        W42842  13.223  19.119   4.525
72243W        W42843  22.043   8.734   2.183
72244W        W42844   9.595  26.658  12.068
72245W        W42845  26.660   3.561   0.975
72246W        W42846   7.298  20.813  12.500
72247W        W42847  11.282  38.584   0.762
72248W        W42848  28.016  29.997  10.684
72249W        W42849  33.702  18.162  10.261
72250W        W42850  11.003  40.249  12.511
72251W        W42851  39.513   4.878  12.430
72252W        W42852  25.029   9.769   2.024
72253W        W42853   4.899  13.319   4.194
72254W        W42854  28.607  10.124  11.103
72255W        W42855   3.780  10.246   2.309
72256W        W42856  24.632  30.954  11.621
72257W        W42857   1.721  30.914  13.280
72258W        W42858   6.810  23.730   3.636
72259W        W42859  27.747  27.585  13.379
72260W        W42860  43.906  28.615  11.662
72261W        W42861   2.761  32.695  12.430
72262W        W42862  26.477  44.301  10.925
72263W        W42863  39.821  17.595  11.589
72264W        W42864  44.057   2.390  12.918
72265W        W42865  33.156  41.226  13.090
72266W        W42866  17.387  41.819  11.424
72267W        W42867  18.001  23.223  10.727
72268W        W42868  33.190   5.787   9.914
72269W        W42869  29.127  27.155   4.488
72270W        W42870  43.795   4.932  13.418
72271W        W42871  15.735  18.674   4.116
72272W        W42872  34.411  11.160  11.221
72273W        W42873  30.495  37.561   2.421
72274W        W42874  19.041  42.255  13.620
72275W        W42875  33.893  24.671   1.794
72276W        W42876  10.122  40.721  12.170
72277W        W42877  21.837  37.055   2.290
72278W        W42878  11.642   0.990   0.000
72279W        W42879  38.876  38.062   1.026
72280W        W42880  29.534  35.308  11.015
72281W        W42881  37.311   4.607  14.022
72282W        W42882   0.500  43.317   3.705
72283W        W42883   4.934  10.275  11.528
72284W        W42884  32.637  14.127   3.208
72285W        W42885  32.522  14.044   2.194
72286W        W42886  43.896   1.983   2.216
72287W        W42887  10.150  35.030  11.731
72288W        W42888  27.513  16.811  12.451
72289W        W42889  12.747  22.675  12.557
72290W        W42890  31.109  10.960   0.077
72291W        W42891  44.019  16.760  12.407
72292W        W42892   0.348  40.300   1.297
72293W        W42893  38.914  38.900  11.365
72294W        W42894  20.072  32.436   3.703
72295W        W42895   2.891  14.930   4.945
72296W        W42896  24.665  43.175  14.077
72297W        W42897  34.624  35.983   3.007
72298W        W42898  21.273  18.552  12.385
72299W        W42899  34.567  44.293  13.679
72300W        W42900   1.066  13.345  11.597
72301W        W42901  14.459  21.666  12.816
72302W        W42902   5.132   5.453  10.782
72303W        W42903  17.630   6.018   2.371
72304W        W42904  42.139  29.146   0.913
72305W        W42905  12.232  22.682   2.200
72306W        W42906  42.404   4.180   0.239
72307W        W42907  11.058  28.972  12.441
72308W        W42908  43.271  17.324  11.071
72309W        W42909  15.603  34.514  13.002
72310W        W42910   6.419  42.701   2.718
72311W        W42911  36.435   2.665  14.569
72312W        W42912   2.880  39.538  13.380
72313W        W42913  27.657  14.150  13.203
72314W        W42914  13.293  11.316  14.847
72315W        W42915  31.590  30.142   1.961
72316W        W42916  43.447  15.697  13.865
72317W        W42917  44.323   6.141   1.680
72318W        W42918  40.314   0.435   4.676
72319W        W42919  37.044  21.059  12.192
72320W        W42920   8.824  36.769  10.938
72321W        W42921  44.949   3.532  11.808
72322W        W42922   0.258   7.354  11.903
72323W        W42923  44.312  10.254   0.339
72324W        W42924  29.923  20.117   1.753
72325W        W42925  42.864  43.310  14.212
72326W        W42926  15.652   2.197  11.194
72327W        W42927  40.625  44.756   2.443
72328W        W42928  15.316  21.717   2.393
72329W        W42929  29.015  39.831  12.198
72330W        W42930  24.274  14.782   4.205
72331W        W42931  23.785  41.924   0.935
72332W        W42932  31.844  44.522  12.053
72333W        W42933   4.264  25.489   2.299
72334W        W42934   9.918  39.280  11.011
72335W        W42935  25.585  18.592   4.907
72336W        W42936  32.137  19.983   1.436
72337W        W42937   2.459  26.108   0.818
72338W        W42938  24.580  26.155  11.840
72339W        W42939  35.037   7.485  13.534
72340W        W42940  35.156   7.306  11.590
72341W        W42941  38.336  10.359  11.655
72342W        W42942  36.869   6.765  14.984
72343W        W42943   3.546  11.166   3.773
72344W        W42944  23.992  40.888  12.621
72345W        W42945  10.901  23.791   3.664
72346W        W42946  25.878  22.717  10.632
72347W        W42947  41.128  14.061   1.920
72348W        W42948   9.953  37.537  13.159
72349W        W42949  30.170  23.073  13.461
72350W        W42950  11.824   6.808   0.073
72351W        W42951   9.737   8.269   4.155
72352W        W42952  34.029  39.436   1.220
72353W        W42953  18.707  35.415   1.765
72354W        W42954   0.218  39.264   3.934
72355W        W42955  24.215   7.328  14.708
72356W        W42956   3.986  31.360  13.042
72357W        W42957   9.781  29.529  12.085
72358W        W42958  23.457   7.480  14.456
72359W        W42959   3.616  24.653  14.714
72360W        W42960   7.859  35.645   3.834
72361W        W42961  44.122   1.680  13.390
72362W        W42962  19.166   9.490  13.021
72363W        W42963  31.388  20.615   0.552
72364W        W42964  11.903  24.462   0.309
72365W        W42965   7.818  33.435  12.019
72366W        W42966  44.688  22.730   2.480
72367W        W42967   5.795   8.961  12.056
72368W        W42968  26.582  33.912   2.556
72369W        W42969   5.250  27.475  13.395
72370W        W42970  20.820  39.092   3.471
72371W        W42971   0.836  42.913   3.566
72372W        W42972  17.607  23.312   0.842
72373W        W42973   4.885   6.456  12.027
72374W        W42974  19.952  29.529   3.262
72375W        W42975  36.649  44.910  14.974
72376W        W42976   3.139  36.769   3.799
72377W        W42977  43.347   0.015   1.849
72378W        W42978  14.551  23.184   2.209
72379W        W42979   0.344  10.118   4.208
72380W        W42980   2.689  12.547  12.576
72381W        W42981  38.799  39.077  12.256
72382W        W42982  44.862  30.331   2.228
72383W        W42983  35.831  26.603   2.163
72384W        W42984  22.179  36.046  14.193
72385W        W42985  30.418  43.793  12.646
72386W        W42986  35.420  14.084  10.759
72387W        W42987  12.164  29.105   0.443
72388W        W42988  29.538  17.688   0.895
72389W        W42989  15.799   4.384   4.127
72390W        W42990  35.824  23.239  12.918
72391W        W42991  35.156  33.915   2.650
72392W        W42992  11.692   2.795  12.285
72393W        W42993  18.288  21.321   3.960
72394W        W42994  17.626   9.072   4.806
72395W        W42995  33.430  15.382  11.554
72396W        W42996  12.638  34.142  12.609
72397W        W42997  24.116  37.084  11.656
72398W        W42998  39.423  33.111  11.582
72399W        W42999  25.969   0.331   4.509
72400W        W43000  27.541  35.900  11.738
72401W        W43001  26.589  16.874  10.820
72402W        W43002   5.447  13.802  14.926
72403W        W43003  32.056  31.625  13.050
72404W        W43004  34.669   9.774   1.941
72405W        W43005  21.040  15.053   2.452
72406W        W43006   9.790   2.673  14.983
72407W        W43007  14.180   5.015   1.314
72408W        W43008  39.835  19.449   2.688
72409W        W43009  21.970   2.979  11.612
72410W        W43010  22.234   1.774  11.273
72411W        W43011  24.118  19.094  13.115
72412W        W43012  33.461  14.580  14.272
72413W        W43013  16.144  35.668   5.165
72414W        W43014  44.538  41.006   4.976
72415W        W43015  11.347  33.308   1.522
72416W        W43016  38.777  31.662  13.814
72417W        W43017   5.033  43.798  13.874
72418W        W43018  30.802  36.507  12.213
72419W        W43019   0.627  37.956  11.167
72420W        W43020   8.298  29.521  11.922
72421W        W43021   4.275   0.489  13.781
72422W        W43022   0.724  12.395  10.791
72423W        W43023  37.981  41.109   2.760
72424W        W43024  23.472  30.860  12.936
72425W        W43025  14.225   8.817   2.615
72426W        W43026  27.333  38.181   0.721
72427W        W43027  14.773   6.856  13.123
72428W        W43028  21.756  39.939  10.739
72429W        W43029  12.317  35.955  13.357
72430W        W43030   7.748  44.565  13.682
72431W        W43031  14.533  12.570  12.901
72432W        W43032  12.874   1.808  13.424
72433W        W43033  20.363  19.320  11.628
72434W        W43034  29.421  28.930  12.463
72435W        W43035  39.339  34.605  10.731
72436W        W43036  40.925  41.727  14.077
72437W        W43037  27.085  26.279   1.039
72438W        W43038  11.765  13.617  13.958
72439W        W43039   9.717  42.762   0.392
72440W        W43040  25.594   4.316   4.588
72441W        W43041   6.147  35.234  11.824
72442W        W43042  15.777   7.346   2.145
72443W        W43043  16.062  40.373  11.631
72444W        W43044  10.726  40.328   4.637
72445W        W43045  37.723  44.971   3.283
72446W        W43046   8.904  25.621   3.546
72447W        W43047  24.649  13.737   1.908
72448W        W43048  43.088   8.928  12.065
72449W        W43049   1.979  33.886  14.831
72450W        W43050   2.032   8.984  13.092
72451W        W43051  24.628   0.470   0.331
72452W        W43052   4.852  27.334   1.328
72453W        W43053  36.588  36.350  14.502
72454W        W43054  12.500   6.318   0.793
72455W        W43055  23.947  32.350   2.010
72456W        W43056   9.285   8.810  13.357
72457W        W43057  25.514  26.792  14.888
72458W        W43058  25.979  18.788   1.722
72459W        W43059  39.298  12.115   4.032
72460W        W43060  13.869   1.788   3.629
72461W        W43061  24.131   1.223  10.565
72462W        W43062   7.990  36.129  13.490
72463W        W43063  29.863   7.674   1.098
72464W        W43064  23.956  14.719  11.170
72465W        W43065  18.588  28.838   0.428
72466W        W43066  15.185  25.421   4.808
72467W        W43067   9.440  18.140  12.330
72468W        W43068  40.498  18.823   1.654
72469W        W43069   1.197  27.662   0.731
72470W        W43070   6.806  11.374  13.175
72471W        W43071   5.994   8.347  13.275
72472W        W43072   6.191  15.017   3.817
72473W        W43073   0.870   3.353   2.618
72474W        W43074   5.271  19.798  11.621
72475W        W43075   3.848   6.993   3.813
72476W        W43076  43.703  39.015   2.782
72477W        W43077  19.047  34.077  13.844
72478W        W43078  13.270  27.303  12.918
72479W        W43079  30.988  43.585  11.425
72480W        W43080  32.343  20.178  12.062
72481W        W43081  19.701  10.785   4.195
72482W        W43082  14.781  37.805   0.946
72483W        W43083  12.307  26.633   0.955
72484W        W43084  26.953  11.775  13.957
72485W        W43085  14.688   4.192   3.281
72486W        W43086   0.603  11.879   1.270
72487W        W43087  21.840  17.160  10.905
72488W        W43088  39.299  11.764   0.503
72489W        W43089   8.098  41.957  12.073
72490W        W43090  13.055  25.615  14.002
72491W        W43091  32.528  17.815   4.585
72492W        W43092  31.080  28.617   2.169
72493W        W43093   4.767   6.151   0.862
72494W        W43094  14.247  39.876   9.890
72495W        W43095  25.622  14.292  14.799
72496W        W43096  35.497   6.291   4.345
72497W        W43097  16.363  19.589  13.554
72498W        W43098  40.943  34.042   3.112
72499W        W43099   8.841  10.685   0.787
72500W        W43100  38.367  41.990   0.068
72501W        W43101  26.585  35.690   2.229
72502W        W43102   5.339  35.307   0.794
72503W        W43103  37.024  19.778   0.250
72504W        W43104  30.066   4.316  14.950
72505W        W43105  10.442  12.734   1.779
72506W        W43106  26.529  16.536   2.223
72507W        W43107  31.241  32.833   2.974
72508W        W43108  28.706  40.213  14.120
72509W        W43109  36.867  24.956  12.093
72510W        W43110   3.271   2.025  11.573
72511W        W43111  37.213  22.003   1.671
72512W        W43112  27.431  20.833   4.080
72513W        W43113   7.801  38.763  14.906
72514W        W43114  19.394  12.783   1.338
72515W        W43115  11.985  14.885  11.606
72516W        W43116   0.707  10.601  14.416
72517W        W43117   8.708  38.461   4.126
72518W        W43118  29.806   1.772   1.781
72519W        W43119  39.953  10.720   4.593
72520W        W43120  37.624  11.569   1.873
72521W        W43121   9.682  32.593   0.024
72522W        W43122  23.936  44.724  14.410
72523W        W43123  20.681  27.447   4.620
72524W        W43124  14.901  19.853   2.247
72525W        W43125  10.850  14.582  13.997
72526W        W43126  12.131  37.591  11.659
72527W        W43127  19.657  20.647   3.728
72528W        W43128  41.067  22.365  13.356
72529W        W43129  36.733   9.668  12.796
72530W        W43130  30.630  19.488   3.621
72531W        W43131  13.160  38.812  10.567
72532W        W43132   5.332  12.062  12.131
72533W        W43133  28.852   7.667   1.198
72534W        W43134  22.933   0.247   3.384
72535W        W43135   1.177  21.252  11.389
72536W        W43136   8.899   7.618   1.128
72537W        W43137   7.675   5.390  14.362
72538W        W43138   3.397  25.533   4.586
72539W        W43139   9.579  35.550   4.640
72540W        W43140  26.014  12.872  11.954
72541W        W43141   5.692  26.742  12.758
72542W        W43142  25.769  29.787   0.796
72543W        W43143  24.932  21.771   2.719
72544W        W43144  27.513  11.402   1.224
72545W        W43145   8.953  12.345   2.813
72546W        W43146  12.455  16.898   1.647
72547W        W43147  17.788   3.992   3.121
72548W        W43148  10.174  25.761   1.839
72549W        W43149  24.206  15.758  12.065
72550W        W43150   8.342  28.582   3.353
72551W        W43151  30.588  16.605   3.689
72552W        W43152  14.882   3.718  10.070
72553W        W43153   4.364  40.476  11.524
72554W        W43154  40.780  10.903  13.604
72555W        W43155  22.450  25.896  11.500
72556W        W43156  15.496  17.259   2.774
72557W        W43157  15.543  13.120  14.946
72558W        W43158   8.455  19.817   2.843
72559W        W43159  36.833   1.784   3.178
72560W        W43160  25.615   5.926  14.714
72561W        W43161   4.710  10.907  14.025
72562W        W43162  10.944  34.234   4.639
72563W        W43163  11.123   5.846   3.691
72564W        W43164   9.423  30.338   1.949
72565W        W43165  11.007  25.184   1.408
72566W        W43166  21.207  34.469  14.454
72567W        W43167  34.751  34.384  11.085
72568W        W43168   9.221  35.022  10.622
72569W        W43169  15.599  31.507  14.174
72570W        W43170  27.450  25.131   2.637
72571W        W43171   2.901   8.104   4.638
72572W        W43172  21.961   9.172   1.719
72573W        W43173  22.981  18.721  14.588
72574W        W43174  21.016   6.217  13.773
72575W        W43175   8.815  32.130  13.585
72576W        W43176   8.699  11.190  13.172
72577W        W43177   9.694  19.635   1.532
72578W        W43178  37.080  24.743  13.483
72579W        W43179  42.835  32.137  12.652
72580W        W43180   0.029  20.125   1.587
72581W        W43181  43.806  26.712   0.467
72582W        W43182  21.580  41.738   5.064
72583W        W43183   4.205  25.451   2.804
72584W        W43184  28.066   6.777   3.884
72585W        W43185  40.904  26.179  14.421
72586W        W43186  43.955  42.034  10.531
72587W        W43187  42.861  20.441  13.298
72588W        W43188  43.925   4.439   3.363
72589W        W43189  23.449  27.887   3.244
72590W        W43190  31.284  23.729  12.014
72591W        W43191  12.108  38.532  10.468
72592W        W43192  31.848  42.580  12.058
72593W        W43193   6.325  31.572  13.568
72594W        W43194  13.542  12.948   3.464
72595W        W43195  23.798  43.658  14.836
72596W        W43196   7.972  13.155   2.346
72597W        W43197  40.388  11.304   1.838
72598W        W43198   5.940   3.849   2.317
72599W        W43199  19.780  22.741   1.905
72600W        W43200  41.755   5.443   1.697
72601W        W43201  22.999  40.335  11.943
72602W        W43202  28.416  29.648  11.611
72603W        W43203  26.512   2.499   5.136
72604W        W43204  38.071   2.266   2.825
72605W        W43205  44.958  37.980   2.196
72606W        W43206  44.739  23.444   3.147
72607W        W43207  40.318   8.840  12.830
72608W        W43208  35.471  29.842  10.575
72609W        W43209  28.396   9.834   4.173
72610W        W43210  40.308   8.136  14.708
72611W        W43211  37.555  36.768   0.428
72612W        W43212   8.374  37.192   3.429
72613W        W43213  40.915  11.291   2.154
72614W        W43214  27.709  19.823   1.215
72615W        W43215   3.825  40.948   4.334
72616W        W43216  22.093  17.116   4.752
72617W        W43217  12.521  23.418   2.037
72618W        W43218  34.275  16.350   2.137
72619W        W43219  14.614  27.206   2.812
72620W        W43220  37.017  22.238  12.585
72621W        W43221  30.669  20.808   3.738
72622W        W43222  21.612  20.719   1.144
72623W        W43223  30.836  36.929  12.606
72624W        W43224  36.399  15.507   3.571
72625W        W43225   5.449  17.151  11.111
72626W        W43226  13.208   4.544  13.561
72627W        W43227   8.315  28.496  12.778
72628W        W43228  21.487  33.335   1.738
72629W        W43229  21.822   5.822  13.566
72630W        W43230  16.294  11.591   3.314
72631W        W43231  11.732  15.198   0.927
72632W        W43232  13.426  29.335  13.975
72633W        W43233  15.273  27.472   0.994
72634W        W43234  33.043  30.381   2.320
72635W        W43235  19.823  37.108   3.195
72636W        W43236  20.511  44.810   3.850
72637W        W43237  35.768  15.575   4.637
72638W        W43238  36.523  38.522  14.789
72639W        W43239  33.401  21.301   1.402
72640W        W43240   3.765  17.502  10.738
72641W        W43241  12.123  35.093  12.910
72642W        W43242  44.275  21.143  13.069
72643W        W43243  18.226  24.932   4.317
72644W        W43244  28.677   6.770   1.256
72645W        W43245   3.932   9.867  12.611
72646W        W43246  37.626  33.588   0.653
72647W        W43247   9.124  38.189   3.735
72648W        W43248  36.595  12.657   4.514
72649W        W43249   5.784  30.089  12.667
72650W        W43250  21.642  30.161  13.925
72651W        W43251   7.912   0.354  14.824
72652W        W43252   2.509   2.370   4.586
72653W        W43253  17.884  26.100   1.702
72654W        W43254  27.579  39.504   2.317
72655W        W43255  15.135  29.596   0.120
72656W        W43256  33.632  23.394  12.585
72657W        W43257   3.848  37.433   1.621
72658W        W43258  11.638  37.601  14.209
72659W        W43259  27.122  37.458   2.722
72660W        W43260   6.496  33.246   0.904
72661W        W43261   3.407  13.792  11.562
72662W        W43262  26.467   1.283  11.121
72663W        W43263  41.038  29.371  14.838
72664W        W43264  30.934   5.831  11.786
72665W        W43265   0.513  35.369   1.727
72666W        W43266  31.022  14.209  13.070
72667W        W43267  44.023  29.571   1.834
72668W        W43268   4.593  25.148   4.148
72669W        W43269  23.243  15.136  11.094
72670W        W43270  39.759  27.233  10.676
72671W        W43271  29.490  37.058  12.654
72672W        W43272  20.037   5.287  10.781
72673W        W43273  14.633   8.669  14.283
72674W        W43274  22.958  44.499   1.339
72675W        W43275   6.994  42.751  11.122
72676W        W43276  41.526  24.480   2.776
72677W        W43277   3.731  30.986  14.737
72678W        W43278  15.313  39.445   2.957
72679W        W43279  43.930  43.703   4.076
72680W        W43280  17.221  17.660   1.472
72681W        W43281  29.449  29.000  10.426
72682W        W43282   9.488  44.447  12.483
72683W        W43283   5.560  23.360   1.794
72684W        W43284  43.751  31.927   4.696
72685W        W43285  13.066  32.436  13.872
72686W        W43286  43.623  35.155   1.120
72687W        W43287  34.675  21.010   2.816
72688W        W43288   3.261  15.595   1.804
72689W        W43289   3.192  31.519  12.082
72690W        W43290  18.265  22.310  10.618
72691W        W43291  22.435   1.240  14.408
72692W        W43292  11.799  18.841   1.353
72693W        W43293   2.226   1.874  13.562
72694W        W43294  39.946  26.013   3.237
72695W        W43295   4.345  14.235   0.806
72696W        W43296  26.581   7.828   0.526
72697W        W43297  31.866  38.315  11.437
72698W        W43298  27.051  38.564  11.085
72699W        W43299  14.980  33.924   3.274
72700W        W43300  41.445   5.809   4.550
72701W        W43301  34.731  18.864  11.609
72702W        W43302   8.798  14.650   3.822
72703W        W43303  20.730  24.009  14.776
72704W        W43304  42.370   7.382   1.996
72705W        W43305   9.331  39.124   4.197
72706W        W43306   5.044   8.047  11.074
72707W        W43307   1.743  24.615  14.743
72708W        W43308  15.315  20.061   1.413
72709W        W43309  12.737  21.110  13.607
72710W        W43310  26.354  34.539   1.265
72711W        W43311  26.474  19.124   1.344
72712W        W43312  19.172  44.308  12.047
72713W        W43313  14.687  32.038   9.997
72714W        W43314  39.775  37.401  14.483
72715W        W43315  29.458  21.649   3.755
72716W        W43316  23.611  43.719   3.802
72717W        W43317  39.570  41.128  13.329
72718W        W43318   3.262   8.753   3.854
72719W        W43319  33.569  13.088   0.310
72720W        W43320  26.855  17.378   3.225
72721W        W43321  42.378  24.588   4.279
72722W        W43322  11.392   2.857  14.760
72723W        W43323  20.940   1.960  14.719
72724W        W43324  40.077  21.508   3.097
72725W        W43325  43.005  16.298  14.255
72726W        W43326   9.967  39.065   2.436
72727W        W43327  15.995   3.461   3.010
72728W        W43328  27.178   7.223   4.159
72729W        W43329  10.542  21.720  11.563
72730W        W43330  14.138  24.286  13.879
72731W        W43331   3.181  15.231  13.889
72732W        W43332   9.269  16.288   2.249
72733W        W43333  32.345  36.456  11.735
72734W        W43334   0.890  11.098  11.125
72735W        W43335   1.619   6.392  13.885
72736W        W43336   2.804  36.049  10.616
72737W        W43337  19.727  36.148  13.910
72738W        W43338  41.026  42.135  10.739
72739W        W43339  24.558   8.137  11.469
72740W        W43340  39.913  32.616   3.831
72741W        W43341   0.965  32.040   0.047
72742W        W43342   6.714  16.379  12.505
72743W        W43343   6.726  23.403  14.284
72744W        W43344  32.711  39.525   0.847
72745W        W43345  14.808  29.011  12.474
72746W        W43346   4.405  16.328  14.957
72747W        W43347  11.397  26.206  14.966
72748W        W43348  40.220   1.252  14.827
72749W        W43349  20.132   9.504   0.440
72750W        W43350  19.249   0.384   2.666
72751W        W43351  23.654  15.566   0.424
72752W        W43352   5.765  28.363   4.317
72753W        W43353   7.240  42.055   0.931
72754W        W43354  29.991  36.553  13.907
72755W        W43355  40.060  18.153   1.912
72756W        W43356   4.523  11.840   1.477
72757W        W43357  10.770  20.208  14.245
72758W        W43358  10.714  35.256   3.695
72759W        W43359   4.357  15.923  13.671
72760W        W43360  31.167  39.753  14.242
72761W        W43361  43.309  35.070  12.438
72762W        W43362  27.142  12.628   0.283
72763W        W43363  44.569   9.449  13.964
72764W        W43364   6.638  17.189   2.714
72765W        W43365  34.403  31.694   0.388
72766W        W43366  36.732  17.715   2.843
72767W        W43367  15.342  44.036   4.531
72768W        W43368  11.806   6.261   2.047
72769W        W43369   1.480  19.235   3.750
72770W        W43370  17.145  28.436  10.559
72771W        W43371  24.437  38.536  14.337
72772W        W43372  14.057  28.202   3.624
72773W        W43373  14.120   4.244   2.858
72774W        W43374  29.969  16.748   2.964
72775W        W43375  44.523  37.068  11.913
72776W        W43376  17.383  15.811  12.880
72777W        W43377  23.003   6.840  13.078
72778W        W43378  38.988  27.965  12.107
72779W        W43379  40.891   6.537   4.676
72780W        W43380   4.626  40.685   0.461
72781W        W43381  21.222  44.430  12.363
72782W        W43382  24.737  16.330   1.843
72783W        W43383   8.802  29.729   2.336
72784W        W43384   2.916  15.663  12.966
72785W        W43385  32.507  40.436  13.151
72786W        W43386  15.155   6.135  10.524
72787W        W43387  44.333  41.404   1.272
72788W        W43388  33.151  18.599   1.686
72789W        W43389  29.412   0.771  10.491
72790W        W43390  11.110  29.967   2.728
72791W        W43391   3.069  26.853   1.166
72792W        W43392  34.897  43.537   3.314
72793W        W43393  35.821  29.012  13.043
72794W        W43394  40.074   4.572  13.534
72795W        W43395  38.139  42.577  10.403
72796W        W43396   1.772  10.717  12.487
72797W        W43397  19.279   2.277  12.200
72798W        W43398  15.692  29.614   0.404
72799W        W43399  18.259  44.472  10.210
72800W        W43400  13.603  19.215   2.385
72801W        W43401   2.802  31.113   4.602
72802W        W43402  41.048  15.098   3.344
72803W        W43403  33.053   9.467  12.850
72804W        W43404  38.384   2.475   3.654
72805W        W43405  11.999  22.537  11.920
72806W        W43406  14.622  37.934  13.476
72807W        W43407  39.792  11.602   0.489
72808W        W43408  20.511   1.886  10.715
72809W        W43409  11.269  23.684  14.195
72810W        W43410   3.459  31.152   4.209
72811W        W43411  25.229  12.260   1.472
72812W        W43412   1.817  31.645   2.849
72813W        W43413  29.975  20.812   2.138
72814W        W43414  40.764   5.999  11.741
72815W        W43415   2.758  33.167  11.564
72816W        W43416  18.998  12.742   0.402
72817W        W43417  32.965   9.913   0.526
72818W        W43418  10.359   0.720   2.763
72819W        W43419  30.963  15.128  12.930
72820W        W43420  31.323  21.287   0.196
72821W        W43421   6.928   5.738  10.979
72822W        W43422  34.843  32.090   2.701
72823W        W43423   3.315   7.895  14.448
72824W        W43424  27.664  36.963  11.097
72825W        W43425   7.908  33.561   2.954
72826W        W43426  19.532   3.001   1.157
72827W        W43427  31.208  28.597  14.356
72828W        W43428  38.609   8.765   3.159
72829W        W43429  44.041  16.707  13.721
72830W        W43430  42.014   7.711   2.186
72831W        W43431   2.209  20.162   1.447
72832W        W43432  24.596  23.694  12.533
72833W        W43433  24.686  40.091  13.861
72834W        W43434  43.993  26.024   1.302
72835W        W43435  37.008  34.915  14.943
72836W        W43436  11.258  12.685  10.722
72837W        W43437  38.432  38.462   4.459
72838W        W43438   4.956   8.403   3.822
72839W        W43439   2.838  43.962  12.025
72840W        W43440  42.024   7.101  12.885
72841W        W43441  34.121  19.098   0.203
72842W        W43442  30.966  21.052  12.308
72843W        W43443  26.707  29.155  10.576
72844W        W43444   0.915  12.899  14.380
72845W        W43445  31.408  20.063   1.904
72846W        W43446  11.366  29.287  13.457
72847W        W43447   8.009   6.393   2.166
72848W        W43448  34.927   7.483  14.992
72849W        W43449  34.385  24.471  10.715
72850W        W43450  34.820  20.101  13.001
72851W        W43451  22.254  12.912   3.590
72852W        W43452  44.540   7.726  14.410
72853W        W43453  26.596   3.245   4.094
72854W        W43454  14.819  11.771   2.283
72855W        W43455   7.073  28.697   3.674
72856W        W43456  13.407  29.351   5.034
72857W        W43457  21.712  26.464   4.996
72858W        W43458   9.277  27.173   2.903
72859W        W43459  37.750  13.854   3.666
72860W        W43460   5.227  15.163   2.156
72861W        W43461   8.637   9.842   2.076
72862W        W43462  20.148  36.326   1.315
72863W        W43463  29.566  35.619   4.305
72864W        W43464  32.191  36.962  10.444
72865W        W43465   8.659  18.379   0.893
72866W        W43466   0.470  19.772  14.395
72867W        W43467  26.493  25.066   4.097
72868W        W43468  25.143   1.724  14.424
72869W        W43469  32.755  41.672  10.440
72870W        W43470  23.619  21.183   4.562
72871W        W43471  40.806  24.928  12.040
72872W        W43472  27.006  18.091   0.248
72873W        W43473  36.219  36.978   4.667
72874W        W43474  17.856  36.888   1.202
72875W        W43475   4.322  41.528  14.954
72876W        W43476  19.567  30.510   3.111
72877W        W43477  33.509  24.187  13.343
72878W        W43478   6.956   9.910   1.548
72879W        W43479  19.288   4.795  10.713
72880W        W43480  26.274  15.506  12.073
72881W        W43481   1.330  34.652  13.787
72882W        W43482  19.581  40.657   1.433
72883W        W43483   3.296   1.253   1.845
72884W        W43484  15.183  36.304  11.817
72885W        W43485  11.746  16.711  10.369
72886W        W43486   2.986  35.045  14.522
72887W        W43487  17.526  21.087   0.011
72888W        W43488  24.433  28.413  11.155
72889W        W43489  34.129   8.170   1.446
72890W        W43490  38.534  24.373  12.875
72891W        W43491  40.664   2.674   2.304
72892W        W43492  30.606  27.908  11.566
72893W        W43493  27.037  33.922   2.251
72894W        W43494  30.399  31.404  14.290
72895W        W43495   3.714  31.394   5.431
72896W        W43496  35.916   9.378  14.989
72897W        W43497   6.105   6.362  14.385
72898W        W43498  24.778  32.131  12.432
72899W        W43499  44.013   3.328   0.910
72900W        W43500   4.770  19.337   3.628
72901W        W43501  38.474  27.932   2.127
72902W        W43502   2.800  32.936   2.238
72903W        W43503   0.985  28.083   1.813
72904W        W43504  18.518  24.586  11.217
72905W        W43505  36.120  31.993  11.685
72906W        W43506  41.022   1.885  11.373
72907W        W43507  23.936  13.028   1.329
72908W        W43508  38.298  21.182   4.414
72909W        W43509  42.896  30.385   3.824
72910W        W43510  42.296  28.910   1.448
72911W        W43511  15.514  18.028  11.530
72912W        W43512  44.781  43.080  13.486
72913W        W43513  18.340  21.178   3.451
72914W        W43514  43.117  39.756  12.521
72915W        W43515  38.044  41.503   0.290
72916W        W43516  29.480  36.468  12.377
72917W        W43517  41.857  11.520   1.724
72918W        W43518  38.779   8.452   4.099
72919W        W43519  35.094  32.180   1.203
72920W        W43520  17.030   3.675   2.591
72921W        W43521   1.657  29.913   1.294
72922W        W43522  27.543  20.166  12.041
72923W        W43523  11.848  37.020   3.672
72924W        W43524  29.221  14.751   3.958
72925W        W43525  24.977   7.190  14.474
72926W        W43526  44.982  15.356   2.751
72927W        W43527   6.775   8.262  13.623
72928W        W43528   7.227  39.991  12.645
72929W        W43529  43.524  28.638   2.623
72930W        W43530   6.189   9.841  13.840
72931W        W43531  25.011  37.848   0.594
72932W        W43532  31.960   1.968  10.622
72933W        W43533  22.986   9.319   1.731
72934W        W43534   2.795  36.043   4.360
72935W        W43535  25.799  30.031  11.524
72936W        W43536  16.461   0.221  13.848
72937W        W43537  16.691  14.596  13.393
72938W        W43538  10.589   0.744   2.305
72939W        W43539   9.710  41.295   1.431
72940W        W43540  21.588   9.199  14.346
72941W        W43541  34.906  43.884   3.687
72942W        W43542   3.754  32.606   4.781
72943W        W43543  15.720  37.888   1.897
72944W        W43544   8.264  40.642   4.405
72945W        W43545  27.159  42.743   1.350
72946W        W43546  27.612  19.164   2.257
72947W        W43547   7.399  19.153  11.144
72948W        W43548  28.197   8.522   2.865
72949W        W43549  13.888   3.886   1.301
72950W        W43550  10.284  29.834  13.786
72951W        W43551  33.067   7.656  12.532
72952W        W43552  33.444  31.129   3.345
72953W        W43553  43.844  42.749  13.055
72954W        W43554  27.624   7.171  13.135
72955W        W43555  37.359  26.932  11.262
72956W        W43556  35.478   3.294  11.498
72957W        W43557   9.585  13.346   0.881
72958W        W43558  14.335  19.512   4.551
72959W        W43559  27.432  44.578  13.055
72960W        W43560  31.924  17.450   1.397
72961W        W43561  29.705   2.821   4.524
72962W        W43562   0.206  10.160  11.875
72963W        W43563  35.369  21.593   1.838
72964W        W43564   1.857  15.297  11.935
72965W        W43565   3.682  32.130   2.797
72966W        W43566  24.157  21.684  10.580
72967W        W43567  34.329  19.087   3.671
72968W        W43568  33.137  40.708  13.060
72969W        W43569   7.145   6.332   4.714
72970W        W43570  42.746   0.649  10.525
72971W        W43571  15.934  28.684  13.788
72972W        W43572  10.270  30.258  14.110
72973W        W43573   1.202   4.297  13.770
72974W        W43574  32.631  37.897  11.812
72975W        W43575  15.009  13.864   1.696
72976W        W43576  40.062  44.051  10.520
72977W        W43577  33.641  31.935  12.920
72978W        W43578  38.012  12.329   3.716
72979W        W43579  22.742  33.963  10.910
72980W        W43580  14.843  24.661  14.750
72981W        W43581   2.540  33.360   2.054
72982W        W43582  36.163  15.465  13.719
72983W        W43583   6.287  35.081  14.442
72984W        W43584  32.419   6.395   1.215
72985W        W43585  41.505   1.931  14.039
72986W        W43586  16.099  37.539  11.927
72987W        W43587  14.007  26.451   3.515
72988W        W43588  44.234  35.916   2.132
72989W        W43589  16.736  43.549   0.001
72990W        W43590  12.130  30.894   2.250
72991W        W43591   8.432  40.539  11.282
72992W        W43592  33.033  42.304   0.267
72993W        W43593  13.432  22.609  13.426
72994W        W43594  27.546  21.181  13.215
72995W        W43595  30.719  29.654   3.620
72996W        W43596   9.427  18.383   3.680
72997W        W43597  43.082  12.006  12.051
72998W        W43598  32.336  34.315   0.924
72999W        W43599  16.180  17.529   0.812
73000W        W43600  41.664  27.935   2.101
73001W        W43601   8.896  32.198  10.752
73002W        W43602  31.495  26.665   0.916
73003W        W43603  44.920  32.857   4.574
73004W        W43604  25.542  17.169  11.177
73005W        W43605  20.860  23.246  14.205
73006W        W43606  12.141  24.731  13.461
73007W        W43607  15.552   0.713   1.811
73008W        W43608   4.944  14.884  11.493
73009W        W43609  25.556   8.808   2.713
73010W        W43610   2.602  26.135   4.517
73011W        W43611  21.036  24.263  10.565
73012W        W43612   2.726  11.626   2.711
73013W        W43613  16.716  30.118  12.382
73014W        W43614  23.767  18.637  11.045
73015W        W43615   2.243  36.857  11.581
73016W        W43616  19.722  35.845   0.884
73017W        W43617  24.485  39.364   3.276
73018W        W43618   6.766  18.305   0.256
73019W        W43619   4.948   2.758  10.761
73020W        W43620   4.808  14.146   3.769
73021W        W43621   1.042  41.943   2.702
73022W        W43622  13.142  32.185  12.004
73023W        W43623  39.005  23.256   0.214
73024W        W43624  40.392  18.232  11.770
73025W        W43625  23.558  41.395   4.143
73026W        W43626  33.479   6.172   0.478
73027W        W43627  13.691  18.550  13.986
73028W        W43628  42.527  16.346   3.263
73029W        W43629  16.132  32.921  10.230
73030W        W43630  41.002  30.514  10.768
73031W        W43631  41.575   3.655  13.428
73032W        W43632  37.086  12.291   3.701
73033W        W43633  18.928  41.898  11.736
73034W        W43634  22.575  18.048   1.484
73035W        W43635  10.883  29.461  12.471
73036W        W43636   5.390  32.781   3.534
73037W        W43637  10.597  38.115  11.071
73038W        W43638  42.325   6.031  12.143
73039W        W43639  16.050  31.668  13.925
73040W        W43640  22.603  38.428  13.493
73041W        W43641  21.127  36.502  11.516
73042W        W43642   2.232  40.016   3.349
73043W        W43643  21.217   3.951   4.742
73044W        W43644  39.526  14.757   2.274
73045W        W43645  28.243  12.134  14.384
73046W        W43646  30.891  12.301   3.215
73047W        W43647  19.146  12.115   2.291
73048W        W43648  21.287  14.135   4.381
73049W        W43649  21.510  14.133   2.710
73050W        W43650  41.403  33.331   3.141
73051W        W43651  23.349  39.025  13.556
73052W        W43652  23.204  36.426  13.287
73053W        W43653  33.699  27.353  13.812
73054W        W43654  34.312  28.721   0.916
73055W        W43655  31.119  15.400   4.038
73056W        W43656  44.294  39.309   4.172
73057W        W43657  29.584   9.361  14.799
73058W        W43658  36.426  36.975   1.461
73059W        W43659  44.704  21.438  12.869
73060W        W43660  27.600  36.974  13.359
73061W        W43661   9.282  31.841  13.454
73062W        W43662  26.927   7.618  10.857
73063W        W43663  22.218  30.618   1.717
73064W        W43664  23.702  26.582  14.393
73065W        W43665  38.568   1.347  12.739
73066W        W43666   7.287  44.531  11.138
73067W        W43667  13.330   7.362   3.197
73068W        W43668   0.342  21.655  12.046
73069W        W43669  33.157   5.401   0.914
73070W        W43670   3.217  35.657   5.243
73071W        W43671  14.729   2.579  11.866
73072W        W43672  34.893  24.175  11.764
73073W        W43673  33.994  21.191   3.789
73074W        W43674   4.028  32.778   1.875
73075W        W43675  41.383   5.707  14.546
73076W        W43676  15.176  11.478  14.117
73077W        W43677  26.158   2.981  12.333
73078W        W43678  41.530  32.404  12.481
73079W        W43679   9.750  35.708  14.366
73080W        W43680  43.803   0.909  12.500
73081W        W43681  14.254   3.381   4.054
73082W        W43682  39.755  27.635   4.842
73083W        W43683  12.234  27.630  10.744
73084W        W43684  35.812   9.744  11.684
73085W        W43685   5.196  42.214   1.231
73086W        W43686  12.547  28.685  11.540
73087W        W43687  31.702  34.447  10.481
73088W        W43688  43.298  20.870  10.738
73089W        W43689   7.890  36.115  10.585
73090W        W43690  10.655  10.752   2.744
73091W        W43691  33.612  26.095   0.102
73092W        W43692  24.872  22.193   3.598
73093W        W43693   1.809  16.883  13.333
73094W        W43694   1.021  40.583   1.528
73095W        W43695  23.647  21.623  10.577
73096W        W43696   2.907  14.797  14.878
73097W        W43697   7.246  42.424   1.857
73098W        W43698  29.690  26.074   0.377
73099W        W43699   8.783  44.964   0.380
73100W        W43700  36.095  36.928  14.688
73101W        W43701  26.583  11.213  10.938
73102W        W43702  23.148  29.024   3.323
73103W        W43703   1.444  15.450  14.647
73104W        W43704  34.664  29.888  11.133
73105W        W43705  35.300   3.887  14.064
73106W        W43706  35.110   1.049  11.555
73107W        W43707  41.956  10.181  12.496
73108W        W43708  28.470  43.506   2.391
73109W        W43709  10.454  15.134  13.216
73110W        W43710   9.860  30.983  14.516
73111W        W43711  32.969  31.890  13.902
73112W        W43712  36.594  16.683   4.665
73113W        W43713  24.140  38.962   0.837
73114W        W43714  35.491  12.768  11.160
73115W        W43715  18.091  44.566   4.931
73116W        W43716  21.272  11.386   4.589
73117W        W43717   4.669  29.632   3.642
73118W        W43718  16.632   3.898   2.299
73119W        W43719  38.423   9.394   0.900
73120W        W43720  28.362  22.692   0.535
73121W        W43721  43.825  36.432   4.117
73122W        W43722  38.615  15.274   3.041
73123W        W43723   3.165  14.259  10.654
73124W        W43724  10.707  17.595   3.708
73125W        W43725  26.058  19.140   3.386
73126W        W43726   8.662  44.370   0.050
73127W        W43727   9.363   8.397  12.245
73128W        W43728  14.313   5.709  13.449
73129W        W43729  43.243  14.995   0.346
73130W        W43730   6.644   1.543  12.606
73131W        W43731  30.701  35.400  11.622
73132W        W43732  42.010  38.617  11.421
73133W        W43733   3.342  42.072   4.139
73134W        W43734  43.838   9.633   4.228
73135W        W43735   3.279  15.213   0.484
73136W        W43736  42.179   0.922   0.761
73137W        W43737  24.725  11.431   5.041
73138W        W43738  38.314  44.333   3.012
73139W        W43739  12.073  38.247   3.312
73140W        W43740   4.801  11.687   3.777
73141W        W43741  35.144  18.070  12.100
73142W        W43742  44.249  10.854   3.748
73143W        W43743   2.144   1.498   5.509
73144W        W43744   0.761  15.914   2.816
73145W        W43745   9.733  28.453  13.991
73146W        W43746  18.323  43.852  13.344
73147W        W43747  22.633   4.228  11.709
73148W        W43748  13.717  41.872   1.208
73149W        W43749  24.304  13.556   0.170
73150W        W43750  26.607  25.475  11.825
73151W        W43751  21.872  19.269  12.436
73152W        W43752   8.751  22.723  14.016
73153W        W43753   5.404  27.522   1.362
73154W        W43754  43.916   0.325   0.271
73155W        W43755  29.625  18.760   1.772
73156W        W43756  30.115  38.432  12.983
73157W        W43757  17.802  42.408   4.327
73158W        W43758  29.190   6.281   4.197
73159W        W43759  28.889  25.542   4.706
73160W        W43760  11.439   0.231  13.383
73161W        W43761  13.638  26.733  12.124
73162W        W43762  10.194  31.444   1.493
73163W        W43763   0.700   8.554  11.166
73164W        W43764  37.983   7.363   4.122
73165W        W43765  31.582  17.709   2.145
73166W        W43766  28.488  12.394   2.920
73167W        W43767  32.929  12.572   0.911
73168W        W43768  18.580  41.255   3.283
73169W        W43769  27.473  12.923   4.723
73170W        W43770  40.359  33.684  14.213
73171W        W43771   3.141  25.501  14.272
73172W        W43772  43.299  13.082   0.292
73173W        W43773  31.554  33.932  14.360
73174W        W43774  23.923  41.508  10.910
73175W        W43775   0.278  40.662   4.372
73176W        W43776  13.197  32.211  14.872
73177W        W43777  21.773  38.488   0.500
73178W        W43778  34.496  19.984  12.059
73179W        W43779  33.882  27.902  10.798
73180W        W43780  27.557  25.759  11.496
73181W        W43781  11.879  10.749   3.496
73182W        W43782  43.229  14.047   1.430
73183W        W43783  16.143  41.882  14.311
73184W        W43784  37.855  27.098  14.248
73185W        W43785  26.704  39.485   4.149
73186W        W43786  23.220  15.806   4.230
73187W        W43787  10.103  34.842   4.076
73188W        W43788  14.381  22.523  13.516
73189W        W43789  22.465  14.398   0.765
73190W        W43790  21.780  20.992   2.424
73191W        W43791  44.175   3.451  13.471
73192W        W43792   3.204   5.913   1.407
73193W        W43793  17.107  26.467  13.328
73194W        W43794  40.435  40.622  14.308
73195W        W43795  17.706  18.729   4.360
73196W        W43796  42.895  41.333   3.203
73197W        W43797  19.991  22.164  10.514
73198W        W43798  39.365  30.381   3.871
73199W        W43799  16.075  42.732   1.214
73200W        W43800  20.635  27.674  12.450
73201W        W43801  41.927  19.853  13.541
73202W        W43802  35.666  16.654  12.872
73203W        W43803  42.461  22.740   4.029
73204W        W43804  38.835  34.402   3.169
73205W        W43805   4.049  16.080   2.705
73206W        W43806  44.036  42.484  11.683
73207W        W43807  29.596   9.016   4.088
73208W        W43808  38.506  39.994  11.586
73209W        W43809   9.277  37.393  12.012
73210W        W43810  12.236  24.950   3.775
73211W        W43811  31.625  22.402   3.526
73212W        W43812  26.626   1.020   4.545
73213W        W43813  22.972  15.816   3.728
73214W        W43814  22.705  29.635   1.255
73215W        W43815  15.802  44.607  13.813
73216W        W43816  25.717   0.498   3.582
73217W        W43817  42.194  23.621  10.630
73218W        W43818   8.668   5.258   1.762
73219W        W43819  30.671  14.333   3.328
73220W        W43820   2.459  25.117  14.845
73221W        W43821  22.502  31.661  12.635
73222W        W43822  19.847  44.230   0.339
73223W        W43823  17.651  42.215  12.691
73224W        W43824  13.872  11.628   2.704
73225W        W43825  42.056  44.934  13.959
73226W        W43826  23.592  37.324  11.720
73227W        W43827  43.438  27.462  13.496
73228W        W43828   0.825  31.800  13.422
73229W        W43829  17.096  36.019  14.058
73230W        W43830  34.012  40.318   1.178
73231W        W43831  38.363  29.724   1.221
73232W        W43832  23.819  39.727  10.458
73233W        W43833  22.720  16.704  14.427
73234W        W43834  41.342  24.304  13.952
73235W        W43835  12.700  16.539   3.382
73236W        W43836  10.419  30.667  13.843
73237W        W43837  42.634  25.031   5.075
73238W        W43838  43.233  12.187   0.269
73239W        W43839  32.758  36.093   1.678
73240W        W43840  15.396  21.072   4.247
73241W        W43841   4.909  25.999  13.626
73242W        W43842  16.915   8.727   4.334
73243W        W43843  28.537  21.139  10.804
73244W        W43844  39.340  23.286  13.340
73245W        W43845  24.492  35.897   4.348
73246W        W43846  40.010  26.599   4.382
73247W        W43847   3.424  31.500   1.281
73248W        W43848  44.863  35.866   4.434
73249W        W43849  21.506  43.804  13.777
73250W        W43850  35.157  29.686   0.243
73251W        W43851  19.229  41.915   0.050
73252W        W43852  40.522  40.227   5.304
73253W        W43853   0.569  39.353  11.997
73254W        W43854   1.424  29.038  10.699
73255W        W43855  25.927  21.016   3.613
73256W        W43856   4.729  18.328   2.219
73257W        W43857   7.485  11.270   4.059
73258W        W43858  35.044  32.021  11.693
73259W        W43859   8.906   0.427   1.758
73260W        W43860   3.481  37.530   2.567
73261W        W43861  38.493  43.230  11.575
73262W        W43862   9.418   4.224   1.332
73263W        W43863  17.068  31.112   2.790
73264W        W43864   2.277  22.887   4.644
73265W        W43865   8.124   7.691  11.154
73266W        W43866  22.117  32.063   3.923
73267W        W43867  18.060  23.023  14.925
73268W        W43868  34.291  21.803  13.832
73269W        W43869  14.262  34.406  14.196
73270W        W43870  43.488  38.950   0.318
73271W        W43871  44.516  26.579   5.024
73272W        W43872  15.402   0.481  12.322
73273W        W43873  24.196   9.377  14.799
73274W        W43874  39.790  11.781   2.423
73275W        W43875   0.221   9.806   3.812
73276W        W43876  28.455  19.034   0.594
73277W        W43877  20.489   2.725   4.568
73278W        W43878  22.224  20.718   1.590
73279W        W43879  43.496  16.072   0.396
73280W        W43880  37.934   1.474   0.548
73281W        W43881  12.836  26.523  12.564
73282W        W43882  19.291  18.736   4.528
73283W        W43883  38.913  12.543   2.764
73284W        W43884   6.354   1.717   4.182
73285W        W43885  41.481  32.648   1.922
73286W        W43886  30.970  43.466  10.501
73287W        W43887  41.410  26.012  12.380
73288W        W43888  16.219  43.411  10.960
73289W        W43889  30.391  12.143  11.522
73290W        W43890  25.090  38.041  13.036
73291W        W43891  24.677   9.912  14.338
73292W        W43892  27.014   2.803  11.205
73293W        W43893  36.213  24.674  11.464
73294W        W43894  41.767  32.941   4.264
73295W        W43895  22.275  36.327   0.881
73296W        W43896   1.525  20.055   4.189
73297W        W43897  24.788  15.103  13.611
73298W        W43898  42.968  44.871  12.784
73299W        W43899   3.843  43.979   1.274
73300W        W43900   9.649  31.100  11.885
73301W        W43901   9.342   4.306  14.493
73302W        W43902   4.291  27.097  11.238
73303W        W43903  40.027   9.007   2.617
73304W        W43904  35.831  21.692  13.883
73305W        W43905  13.664  16.560   2.851
73306W        W43906   2.772  41.573  14.265
73307W        W43907   5.693  43.543  13.816
73308W        W43908  39.679  21.378   3.416
73309W        W43909  21.082  30.532  12.900
73310W        W43910  14.892  41.931   3.751
73311W        W43911   1.447   7.198   4.300
73312W        W43912  33.587  21.894   1.292
73313W        W43913  10.314   7.033  14.142
73314W        W43914  14.146  15.249  11.563
73315W        W43915   5.846   4.616  13.090
73316W        W43916   9.803  38.277  12.372
73317W        W43917  30.045  18.367  14.299
73318W        W43918  35.433  14.369  13.563
73319W        W43919  33.087  27.684   0.429
73320W        W43920   3.682  15.827  12.056
73321W        W43921   8.152   8.234  13.495
73322W        W43922  22.061   1.012   4.264
73323W        W43923  36.566   3.490   3.339
73324W        W43924  17.832  22.841   0.353
73325W        W43925  20.514  24.566  14.017
73326W        W43926  11.726  22.852   1.362
73327W        W43927  33.193  15.957   3.071
73328W        W43928  25.386  29.616   4.562
73329W        W43929  27.974   3.264  14.587
73330W        W43930  26.456  42.293   2.976
73331W        W43931  21.043  25.306   4.348
73332W        W43932  14.733  22.377   1.612
73333W        W43933  19.864   2.922  12.391
73334W        W43934  12.355  41.399  14.923
73335W        W43935  16.529  24.998  10.686
73336W        W43936   9.446  22.081  14.760
73337W        W43937  41.445  31.901   1.399
73338W        W43938   3.193  24.398   1.559
73339W        W43939  28.003   0.784   4.576
73340W        W43940  44.104  22.240   4.078
73341W        W43941  10.311  19.241   2.283
73342W        W43942  13.853  11.372  13.569
73343W        W43943  22.658  18.771  12.302
73344W        W43944  23.599  14.696   0.916
73345W        W43945  43.330  30.550   2.386
73346W        W43946  12.522  28.108   3.575
73347W        W43947  11.340  13.004   1.797
73348W        W43948  19.996  24.218   3.339
73349W        W43949  29.932  35.596  10.596
73350W        W43950  16.169  23.515   0.960
73351W        W43951   3.213  24.657  13.486
73352W        W43952  19.794  35.970  12.066
73353W        W43953   7.134  29.943   5.026
73354W        W43954  22.353  12.250   4.669
73355W        W43955  31.080  40.804  11.566
73356W        W43956   8.409   5.063  12.125
73357W        W43957  40.120  37.491   4.471
73358W        W43958  36.908  28.990   2.405
73359W        W43959  20.053  25.296  12.007
73360W        W43960   5.856  44.950  12.569
73361W        W43961   9.021  32.871   2.999
73362W        W43962   3.768  22.513  11.496
73363W        W43963  20.227  26.945   2.813
73364W        W43964  35.443  41.890   3.195
73365W        W43965  30.962  32.659   3.351
73366W        W43966   6.881  10.829   1.437
73367W        W43967  44.319  24.010   2.764
73368W        W43968  31.242  29.126  14.394
73369W        W43969  26.977  26.917  10.933
73370W        W43970  42.254   0.419  13.844
73371W        W43971  40.454   0.017   0.335
73372W        W43972  34.799   4.923  10.212
73373W        W43973  10.438  27.237  12.183
73374W        W43974  34.552  13.840   2.745
73375W        W43975  25.621  35.328   4.518
73376W        W43976   3.469  26.039   0.367
73377W        W43977  21.088  19.094  14.795
73378W        W43978   6.743  17.263  11.630
73379W        W43979  10.278  27.475   1.415
73380W        W43980  27.487  38.882   1.437
73381W        W43981  14.285  37.010  12.900
73382W        W43982  13.813  23.512  11.620
73383W        W43983  11.056  39.543   1.020
73384W        W43984  15.842  44.534   4.064
73385W        W43985  30.693  17.558  11.237
73386W        W43986   8.137  31.460   3.098
73387W        W43987  15.364  14.573  13.980
73388W        W43988   9.676  43.980  12.467
73389W        W43989   2.819  28.118  12.132
73390W        W43990  18.782   1.883   4.498
73391W        W43991   2.504   1.955  11.118
73392W        W43992  29.926  42.545   2.795
73393W        W43993  23.355  34.962   0.774
73394W        W43994  22.229   2.212   0.416
73395W        W43995  21.428  32.324  12.915
73396W        W43996  20.015   0.908  11.145
73397W        W43997  17.617  20.255  11.134
73398W        W43998  22.272   4.642  11.563
73399W        W43999   4.254   6.935  13.930
73400W        W44000  11.731   0.363  11.575
73401W        W44001  16.357  39.299  13.734
73402W        W44002  31.770  33.395  12.142
73403W        W44003  37.110  39.726  12.963
73404W        W44004  36.781   6.934   1.449
73405W        W44005  11.406  31.426  11.454
73406W        W44006   2.974  13.660  11.802
73407W        W44007  14.345  21.182  10.577
73408W        W44008  39.907   0.826   2.148
73409W        W44009  29.601   1.057  13.758
73410W        W44010  10.747  40.912  14.786
73411W        W44011  20.212   6.918  13.975
73412W        W44012  41.063  24.481  12.926
73413W        W44013   0.824  21.753   3.356
73414W        W44014  38.930  12.017   2.736
73415W        W44015  39.465  37.018  14.278
73416W        W44016  21.144  11.457  12.630
73417W        W44017  35.557  36.999   2.082
73418W        W44018  14.267  11.323  11.695
73419W        W44019   9.897  39.804   3.401
73420W        W44020  40.340   7.583  13.833
73421W        W44021  14.765  44.839   5.148
73422W        W44022  21.384  14.679  14.574
73423W        W44023  39.002   8.910   1.330
73424W        W44024   1.250  41.793   2.252
73425W        W44025  21.777   7.780  13.694
73426W        W44026  31.365  20.219  11.957
73427W        W44027  20.276   3.816   3.835
73428W        W44028  42.550  43.085   3.219
73429W        W44029   6.646  41.370   0.176
73430W        W44030  40.314   6.354  11.329
73431W        W44031   6.348  23.156   0.443
73432W        W44032  36.451  25.306   5.132
73433W        W44033  36.072  39.944  14.190
73434W        W44034   0.978  13.742  13.795
73435W        W44035  35.168   2.281  14.920
73436W        W44036  43.940  28.415  13.180
73437W        W44037  38.069  37.439   2.798
73438W        W44038  33.425  41.240  11.582
73439W        W44039   0.740  29.877  11.047
73440W        W44040  23.227  26.295  11.921
73441W        W44041  12.168  40.688   3.536
73442W        W44042  31.992   9.232   4.388
73443W        W44043   1.066   8.283   1.052
73444W        W44044   6.741  39.582   1.219
73445W        W44045  29.678  11.371   2.664
73446W        W44046  43.369  40.220  11.382
73447W        W44047  19.084  11.169  10.687
73448W        W44048  35.355  27.956   1.451
73449W        W44049  20.044  29.241   1.795
73450W        W44050  17.860  16.709   1.333
73451W        W44051  21.395  39.507   1.736
73452W        W44052   5.889  19.455   4.187
73453W        W44053  41.161  10.214  11.108
73454W        W44054  33.852  33.614   1.943
73455W        W44055  30.502   7.660  13.478
73456W        W44056   8.204  35.889   4.652
73457W        W44057  32.254  38.163  12.514
73458W        W44058   4.817  39.767  11.643
73459W        W44059   4.430  35.289   1.850
73460W        W44060  33.378  22.207  13.349
73461W        W44061  14.068   4.184   0.202
73462W        W44062   5.677   5.226  11.561
73463W        W44063  19.738  41.569  12.003
73464W        W44064   1.753  17.335   2.902
73465W        W44065  41.959  32.656   1.658
73466W        W44066   4.019  30.446   3.192
73467W        W44067   5.336  33.279  10.873
73468W        W44068  43.372  43.665   2.304
73469W        W44069  39.481  15.134   0.906
73470W        W44070   9.166  41.621  14.536
73471W        W44071  17.671  39.533   4.953
73472W        W44072   9.707  14.893  11.193
73473W        W44073  39.866  33.304   2.316
73474W        W44074  35.727  14.405  14.004
73475W        W44075   8.687  36.437  11.571
73476W        W44076   0.337  15.492  14.488
73477W        W44077   0.243  12.672  11.599
73478W        W44078  38.799  44.944  12.144
73479W        W44079  33.895  29.995  10.615
73480W        W44080  33.396  21.327  11.762
73481W        W44081  38.069  42.484  11.461
73482W        W44082   1.314  37.353  12.495
73483W        W44083  27.978  26.497   1.162
73484W        W44084   5.275  38.237   2.337
73485W        W44085  17.754  20.819  10.278
73486W        W44086  30.203   5.105   4.710
73487W        W44087  10.950  19.666   1.835
73488W        W44088  28.080  23.534  14.016
73489W        W44089  22.934  41.825   4.573
73490W        W44090   7.797  25.276  10.633
73491W        W44091  41.418  42.219   2.360
73492W        W44092  28.913   7.829   3.277
73493W        W44093  37.392   6.196   2.886
73494W        W44094  19.080   8.252  11.443
73495W        W44095  22.587  11.962   0.268
73496W        W44096   3.728  21.733  13.034
73497W        W44097  34.454  36.952   4.518
73498W        W44098  14.110  40.747  10.343
73499W        W44099  22.223  11.294  11.974
73500W        W44100  11.753  40.076   3.005
73501W        W44101  20.241  30.938  14.100
73502W        W44102  42.712  39.806  10.261
73503W        W44103  27.562   3.214   0.849
73504W        W44104  44.381   5.717   3.664
73505W        W44105   5.163  12.645   0.418
73506W        W44106  19.379  38.882   0.319
73507W        W44107  35.959   2.763   1.744
73508W        W44108  44.694  13.387  11.184
73509W        W44109  31.935  29.002  10.492
73510W        W44110  15.770  37.390   3.757
73511W        W44111  13.810  14.177   3.614
73512W        W44112  36.433   6.604  14.788
73513W        W44113  40.677   3.011  13.769
73514W        W44114  14.622  43.061  12.927
73515W        W44115   5.346   0.848  10.925
73516W        W44116  35.457   7.361   3.817
73517W        W44117   5.295  36.695   3.387
73518W        W44118  40.498   3.470  10.756
73519W        W44119  16.111  13.451  11.553
73520W        W44120  22.835  24.507  12.510
73521W        W44121  21.094  37.062   2.150
73522W        W44122  17.326   1.661  11.625
73523W        W44123   8.959  10.292  10.788
73524W        W44124  28.970  42.054  11.514
73525W        W44125  42.732  31.076   1.789
73526W        W44126  25.654  31.069  11.067
73527W        W44127  33.570   5.683   1.801
73528W        W44128  30.461  26.574   0.004
73529W        W44129   3.629  32.952   4.411
73530W        W44130  33.426  19.567  13.975
73531W        W44131  33.888  20.721  14.544
73532W        W44132  34.023  24.956  14.962
73533W        W44133  36.530  17.640   0.030
73534W        W44134  32.385  40.539   0.375
73535W        W44135   5.135  41.478   1.645
73536W        W44136  20.528   7.463  11.957
73537W        W44137  38.916   4.299   4.556
73538W        W44138  38.968  38.380   3.749
73539W        W44139  36.254  26.883   1.203
73540W        W44140   9.739  29.640   0.960
73541W        W44141   2.787  39.103  10.677
73542W        W44142  41.893  29.944   3.741
73543W        W44143  37.346  22.524  14.839
73544W        W44144  18.045  42.384   1.356
73545W        W44145  24.731  35.552   4.708
73546W        W44146  15.944  17.203  12.456
73547W        W44147  32.907  18.663   0.227
73548W        W44148   3.244  18.385  12.977
73549W        W44149  26.581  11.025  13.382
73550W        W44150  30.953  10.876  14.589
73551W        W44151  10.264  30.091   4.789
73552W        W44152  30.447  42.041  10.963
73553W        W44153  13.559  31.156  14.861
73554W        W44154  19.646  13.687   1.905
73555W        W44155  40.491   0.510   0.265
73556W        W44156  26.678  37.350  12.951
73557W        W44157   0.544  18.039   1.726
73558W        W44158  18.164  44.693   0.352
73559W        W44159  19.386  32.172   2.884
73560W        W44160  16.834  11.451   4.131
73561W        W44161  33.631  28.466   1.955
73562W        W44162  21.637  34.749   4.635
73563W        W44163  24.195  44.488   1.243
73564W        W44164  33.455  30.402  12.374
73565W        W44165   7.493  24.233  13.606
73566W        W44166  24.478  17.953  10.684
73567W        W44167  17.838   7.330  11.385
73568W        W44168   5.901  24.292  14.350
73569W        W44169   9.751  17.340   4.248
73570W        W44170  37.900  42.684   0.876
73571W        W44171  35.967  19.452   1.710
73572W        W44172  23.697  34.770  11.609
73573W        W44173   5.632   6.957   0.001
73574W        W44174  17.020  11.220   4.566
73575W        W44175  35.119  38.160  11.521
73576W        W44176  31.032   3.370   1.233
73577W        W44177  44.789  43.443   2.760
73578W        W44178  17.053  28.247   3.720
73579W        W44179   3.319   9.927   0.908
73580W        W44180  26.526  40.037  12.928
73581W        W44181  21.733  10.447  11.091
73582W        W44182  22.014  21.229   0.375
73583W        W44183  40.494  29.052  13.332
73584W        W44184  44.497  23.755   2.327
73585W        W44185  14.654  22.714  11.240
73586W        W44186  27.554  11.240   0.720
73587W        W44187  14.798  22.717   4.689
73588W        W44188   3.235   9.429   0.771
73589W        W44189   5.872   0.775   1.683
73590W        W44190   5.871  31.413   4.097
73591W        W44191   5.996  29.490  13.220
73592W        W44192  37.402  11.778  13.655
73593W        W44193  38.847  32.340  12.081
73594W        W44194  41.564  16.213   0.952
73595W        W44195   2.950  12.813  12.188
73596W        W44196  29.661  19.977   4.755
73597W        W44197  11.629  32.616   3.778
73598W        W44198  25.015  35.848   3.745
73599W        W44199  22.780   8.537  13.791
73600W        W44200  10.254  27.842  14.267
73601W        W44201  40.331  28.010   0.440
73602W        W44202  26.498  19.610  10.321
73603W        W44203  18.670  18.080   1.193
73604W        W44204  32.554  42.991   1.884
73605W        W44205  30.034  39.016   3.667
73606W        W44206  42.085   7.612  11.341
73607W        W44207  10.590  27.893   3.649
73608W        W44208   9.858  25.248  14.754
73609W        W44209  28.520   9.152   1.256
73610W        W44210  24.045  40.398  12.470
73611W        W44211  36.687  22.518   0.680
73612W        W44212  44.952   1.882   3.084
73613W        W44213  44.521  39.150  11.255
73614W        W44214  18.846  36.851   2.926
73615W        W44215  13.886  19.279  11.622
73616W        W44216  43.116  21.066   0.208
73617W        W44217  41.707  44.830   3.839
73618W        W44218  17.678  10.626   1.945
73619W        W44219  23.705  13.650   1.920
73620W        W44220  34.956  28.973   2.701
73621W        W44221  10.280  15.233   4.576
73622W        W44222  25.193  23.233   1.418
73623W        W44223  38.676  33.010   2.394
73624W        W44224  26.242  18.818  10.990
73625W        W44225  30.025  44.666   4.344
73626W        W44226  16.753  16.639  14.877
73627W        W44227   9.857  44.535  10.824
73628W        W44228   3.831   5.295   2.510
73629W        W44229  33.123   4.795  13.791
73630W        W44230   6.237  42.704   0.213
73631W        W44231   5.429  33.421  13.339
73632W        W44232  17.930  35.925  11.639
73633W        W44233  33.509   9.957   4.314
73634W        W44234  21.554  43.650  14.993
73635W        W44235  33.053  22.743  14.493
73636W        W44236   6.043   1.978  10.287
73637W        W44237  40.863  38.347   2.775
73638W        W44238  20.781  36.660  14.646
73639W        W44239  17.087  34.743  11.937
73640W        W44240  26.495  27.637  12.540
73641W        W44241  20.485  18.150  11.515
73642W        W44242  31.689   1.866   1.766
73643W        W44243  18.135  23.067   2.337
73644W        W44244   6.816  19.884  13.559
73645W        W44245  25.228  24.006  10.660
73646W        W44246  21.715  43.133   3.787
73647W        W44247  42.946   5.228  14.055
73648W        W44248  24.306  12.694   1.130
73649W        W44249   1.238  44.003   0.229
73650W        W44250  21.091  13.810   2.641
73651W        W44251  13.363  21.207  10.693
73652W        W44252  30.960  22.768  11.734
73653W        W44253  12.226  17.101  10.502
73654W        W44254  22.616  15.673  10.977
73655W        W44255  31.119  32.646   2.206
73656W        W44256   6.370   6.886   2.041
73657W        W44257  40.459  12.883  14.941
73658W        W44258  27.219  15.126  10.634
73659W        W44259  10.130  33.122  11.486
73660W        W44260  33.615  26.991   3.985
73661W        W44261  21.200  19.286   1.659
73662W        W44262  33.604  34.895  11.393
73663W        W44263   8.565  30.946   4.257
73664W        W44264  37.804  40.724  14.085
73665W        W44265  19.716  24.462   4.136
73666W        W44266  33.413  37.138  12.725
73667W        W44267  39.035  14.089   1.806
73668W        W44268  21.732   5.937  14.102
73669W        W44269  11.566   5.618  13.512
73670W        W44270  17.271   8.309  13.676
73671W        W44271  39.804   3.750  10.207
73672W        W44272  19.892  40.300   1.648
73673W        W44273   0.578   2.985  10.755
73674W        W44274   5.728   6.842   1.245
73675W        W44275  23.046   1.855  11.653
73676W        W44276  13.227  22.894  14.062
73677W        W44277  11.360   8.007  10.548
73678W        W44278  35.864   7.142  11.963
73679W        W44279  23.629  19.498   1.442
73680W        W44280  11.278   2.461  13.897
73681W        W44281   2.410  23.776   2.080
73682W        W44282   1.593  43.224  11.990
73683W        W44283  16.822  31.063  11.145
73684W        W44284  28.555   4.732  10.618
73685W        W44285  11.387  15.101   3.289
73686W        W44286  12.061  44.952  12.688
73687W        W44287  21.349   1.072  10.328
73688W        W44288  30.454   6.736   4.275
73689W        W44289  12.290   6.676  12.521
73690W        W44290  38.117  18.711   1.830
73691W        W44291   4.064   8.294   2.647
73692W        W44292  29.514  28.220  13.782
73693W        W44293  31.941   4.920  12.277
73694W        W44294  36.689  25.501   1.128
73695W        W44295  26.982  34.670   2.769
73696W        W44296  10.871   0.704  13.852
73697W        W44297  24.949  22.170  10.146
73698W        W44298  30.031  25.158  10.754
73699W        W44299  15.819   3.853   0.401
73700W        W44300  32.613  24.466   2.434
73701W        W44301  24.022   3.760   2.893
73702W        W44302   4.395  15.754   0.918
73703W        W44303  30.546  34.616   4.357
73704W        W44304  37.623   7.176   1.197
73705W        W44305  15.139  33.477  13.466
73706W        W44306   6.222  17.611   0.502
73707W        W44307  16.281  29.391  10.350
73708W        W44308  15.641  40.791  10.953
73709W        W44309  22.316  22.552  13.522
73710W        W44310  42.582  43.019   0.531
73711W        W44311  27.466  17.530  14.924
73712W        W44312   4.887  35.646   2.739
73713W        W44313   5.669  10.103   4.000
73714W        W44314   6.352  29.214   2.428
73715W        W44315   5.858   1.712   1.931
73716W        W44316  44.002  17.663   4.025
73717W        W44317  23.478  37.898   4.856
73718W        W44318  15.401   7.946   4.813
73719W        W44319  27.094  19.362  11.942
73720W        W44320  17.148  20.915   4.881
73721W        W44321   9.547  15.780   3.279
73722W        W44322  39.304  32.583  10.722
73723W        W44323  38.220   7.265  14.851
73724W        W44324  36.339  44.787   3.959
73725W        W44325  44.389  17.057  13.453
73726W        W44326  25.200  37.937  12.522
73727W        W44327  20.155  40.857   0.812
73728W        W44328  13.123   6.902   3.458
73729W        W44329  17.070  16.879  13.533
73730W        W44330  44.740  32.118  13.359
73731W        W44331  38.776  35.928   3.296
73732W        W44332  39.226  15.276   1.340
73733W        W44333  36.725  13.502   3.199
73734W        W44334  31.563  12.209   1.237
73735W        W44335  43.227  29.740   3.106
73736W        W44336  28.690   3.286   1.710
73737W        W44337   0.787  36.758  13.573
73738W        W44338  28.930  42.111   2.552
73739W        W44339  33.757  26.856  14.051
73740W        W44340   1.482  19.083  14.014
73741W        W44341  16.045  37.785  11.123
73742W        W44342  28.835  22.572   4.064
73743W        W44343  39.781  43.732  10.846
73744W        W44344  27.899  37.939  10.484
73745W        W44345  42.333  31.629  14.876
73746W        W44346  16.331   3.324  14.956
73747W        W44347  12.066  25.576  12.505
73748W        W44348   0.361  17.342   0.312
73749W        W44349   9.585  11.367   3.497
73750W        W44350  16.816  17.810   4.382
73751W        W44351  19.053  36.239   0.715
73752W        W44352  30.049  30.526   0.742
73753W        W44353  37.352  26.547   3.727
73754W        W44354  20.192  21.216  13.135
73755W        W44355  40.100   9.866   2.847
73756W        W44356  36.444  30.205  13.040
73757W        W44357  19.200   5.815   0.754
73758W        W44358  35.496   4.992  11.590
73759W        W44359  27.441  11.162  14.407
73760W        W44360  33.381   3.853   1.239
73761W        W44361   6.287   2.970  13.137
73762W        W44362   8.373  34.837  10.560
73763W        W44363  16.193  38.482  10.723
73764W        W44364  12.628  17.228   0.559
73765W        W44365  44.294   0.763  12.346
73766W        W44366  16.925  37.955   0.399
73767W        W44367   6.340  16.800  11.117
73768W        W44368  32.845   8.873   1.303
73769W        W44369  19.718  12.146   3.771
73770W        W44370  19.968   9.818  11.953
73771W        W44371  10.488   0.152  13.385
73772W        W44372  28.695  32.568  11.626
73773W        W44373   2.922  21.753   4.271
73774W        W44374  10.234  40.100  11.632
73775W        W44375  38.791   6.671  11.966
73776W        W44376  34.175  39.618  14.440
73777W        W44377  16.956  39.831  13.412
73778W        W44378  32.976   0.928   3.723
73779W        W44379  35.547  28.987  10.621
73780W        W44380  39.007  38.408  12.061
73781W        W44381  31.633  15.786   2.314
73782W        W44382  38.819  33.501  12.045
73783W        W44383  13.046   5.335   4.217
73784W        W44384  43.254   6.717   1.314
73785W        W44385  33.082  30.036   0.401
73786W        W44386  41.567  42.930  14.401
73787W        W44387  28.035  15.602   3.228
73788W        W44388  39.892  11.190   1.728
73789W        W44389  40.032  39.269  13.352
73790W        W44390  19.718  34.856   0.784
73791W        W44391  42.155  23.535  12.423
73792W        W44392  21.550  29.011   4.107
73793W        W44393  10.339  10.127   3.232
73794W        W44394  42.944   7.466  11.923
73795W        W44395  35.950  39.421  14.355
73796W        W44396   6.896  15.836   2.942
73797W        W44397  42.320  36.908   1.833
73798W        W44398  19.686   8.839   1.233
73799W        W44399  13.294  43.417  12.362
73800W        W44400  14.708   8.109   2.322
73801W        W44401  29.739  21.607   0.707
73802W        W44402  26.162  20.607  14.716
73803W        W44403  14.909  30.478   1.706
73804W        W44404  40.789   8.845   4.514
73805W        W44405  44.285  34.670   2.673
73806W        W44406  29.724  14.640  14.952
73807W        W44407  32.869  27.180  12.784
73808W        W44408  14.566  12.839   5.300
73809W        W44409  38.799  38.412  10.299
73810W        W44410  34.377  20.311   2.240
73811W        W44411  33.470   3.521  13.398
73812W        W44412  12.332  38.552  12.445
73813W        W44413  10.334  12.436  14.312
73814W        W44414  41.009  10.204   1.361
73815W        W44415  25.742  31.647  14.402
73816W        W44416  28.008  29.396  11.300
73817W        W44417  12.857  11.106   0.533
73818W        W44418  41.033  44.370   2.798
73819W        W44419  32.782  29.215  12.178
73820W        W44420   5.855  35.594   4.900
73821W        W44421   5.271  30.527   2.588
73822W        W44422  24.937  39.247  13.719
73823W        W44423   2.889   7.844  12.479
73824W        W44424   6.294  32.673  11.619
73825W        W44425  11.756  21.929   0.436
73826W        W44426  19.582  29.644   1.504
73827W        W44427  31.095  23.217  11.360
73828W        W44428  31.681  24.074  14.479
73829W        W44429  21.191  21.719   0.253
73830W        W44430   4.798  30.070   4.953
73831W        W44431  14.621  21.178  13.285
73832W        W44432   0.051  20.235   4.689
73833W        W44433  12.688  33.677   1.165
73834W        W44434  43.069  32.766  10.711
73835W        W44435  36.528   4.728  10.692
73836W        W44436  40.444  11.700  12.048
73837W        W44437   2.127  13.858  11.634
73838W        W44438  44.153  26.160   0.808
73839W        W44439  25.164   6.444  11.721
73840W        W44440   8.504  16.380  12.479
73841W        W44441  43.011  21.076  11.132
73842W        W44442  35.389  16.048  10.782
73843W        W44443  18.008  21.455   1.850
73844W        W44444  24.467  26.624  11.617
73845W        W44445  17.082  39.600  10.748
73846W        W44446  28.303  36.054  12.682
73847W        W44447  31.861  10.257  11.935
73848W        W44448  14.505  25.643   3.263
73849W        W44449  21.747   5.279   4.292
73850W        W44450   5.532  16.055   4.534
73851W        W44451  33.080  21.132  10.956
73852W        W44452  44.774   6.764   4.141
73853W        W44453  41.275  27.056   0.226
73854W        W44454   3.455  30.490   3.204
73855W        W44455  32.130   7.055  13.947
73856W        W44456  22.059  39.757   0.570
73857W        W44457  28.320  15.950   0.750
73858W        W44458  29.182  24.650   4.797
73859W        W44459  25.424  41.874  11.413
73860W        W44460  37.607  37.014  12.544
73861W        W44461   9.814  12.159   0.423
73862W        W44462  17.744  15.521  14.938
73863W        W44463  14.486  19.618   1.337
73864W        W44464  18.594  41.440  13.662
73865W        W44465   4.279   6.855   1.954
73866W        W44466   4.686  13.334  14.781
73867W        W44467  38.084  11.412   1.612
73868W        W44468  33.652   6.195   1.757
73869W        W44469  13.097  32.462   3.950
73870W        W44470  11.923  30.107  11.009
73871W        W44471  26.531  20.318  11.990
73872W        W44472  10.473  29.423  11.597
73873W        W44473  13.316  12.294  10.594
73874W        W44474  25.739   5.876   3.233
73875W        W44475  21.556  22.105   1.218
73876W        W44476  38.758  40.247  10.287
73877W        W44477  25.975  13.613  10.716
73878W        W44478  23.291  10.317   1.617
73879W        W44479  10.778  20.083   0.242
73880W        W44480  15.715  28.600   1.903
73881W        W44481  41.314  41.989  13.406
73882W        W44482  31.509  37.438   4.859
73883W        W44483  10.909  39.460  10.643
73884W        W44484  37.530  15.254  13.207
73885W        W44485  13.118  17.616  13.861
73886W        W44486  37.765  27.648   9.869
73887W        W44487  29.678   3.741  13.982
73888W        W44488  15.691  17.769  14.311
73889W        W44489  36.492  26.057   0.265
73890W        W44490  15.539  30.972  11.576
73891W        W44491  42.938  16.855  14.332
73892W        W44492  41.573   3.496  12.895
73893W        W44493  11.357  43.297   3.249
73894W        W44494  15.654  29.630  11.039
73895W        W44495  18.772   4.840  14.504
73896W        W44496   4.299   5.490   2.773
73897W        W44497  26.221  24.926   0.949
73898W        W44498  41.306   2.616   4.584
73899W        W44499  17.674  31.073   3.129
73900W        W44500  38.955  26.636   0.836
73901W        W44501  35.403  10.823   0.847
73902W        W44502  13.728   9.237   0.483
73903W        W44503  11.891  14.261   0.192
73904W        W44504  35.577  44.022   0.671
73905W        W44505  32.618  30.704   4.519
73906W        W44506  32.301  12.597   2.363
73907W        W44507  33.909  24.294   2.774
73908W        W44508  29.250  12.142  10.686
73909W        W44509  10.253  23.979  11.005
73910W        W44510  18.982  10.574  14.641
73911W        W44511  31.593  12.834   4.231
73912W        W44512   8.049  16.298   3.836
73913W        W44513  24.545  31.653   0.976
73914W        W44514   9.021  27.447   3.319
73915W        W44515  26.129  12.676   3.857
73916W        W44516  18.768  36.090   4.166
73917W        W44517  24.473   5.462  11.187
73918W        W44518  22.736   1.299  14.832
73919W        W44519  29.203   6.768   1.274
73920W        W44520  29.018   0.698   2.290
73921W        W44521  27.189  24.641   3.276
73922W        W44522  15.293  35.638  14.786
73923W        W44523  28.550  21.816  13.842
73924W        W44524   2.664   1.303  12.914
73925W        W44525  42.604  10.987   0.978
73926W        W44526   3.864  34.485  12.569
73927W        W44527  33.530  22.491   1.812
73928W        W44528  15.928  26.098  10.303
73929W        W44529   8.773  35.120  10.387
73930W        W44530  19.510  22.677   2.758
73931W        W44531  27.489  15.285   3.699
73932W        W44532  23.499  26.684   2.677
73933W        W44533  28.245  42.178  13.091
73934W        W44534  10.924  18.078   3.690
73935W        W44535   5.911   7.299  11.206
73936W        W44536  25.217  13.690   0.574
73937W        W44537   9.717  15.082  10.721
73938W        W44538  14.323  21.079  11.522
73939W        W44539  36.292  39.493  14.714
73940W        W44540  39.439  29.172   1.911
73941W        W44541  43.565   8.721  12.147
73942W        W44542  33.182   1.517  11.600
73943W        W44543  16.721  34.542   2.173
73944W        W44544  12.151  27.039   2.372
73945W        W44545  20.737  34.811   2.828
73946W        W44546  23.212  33.852   1.372
73947W        W44547   0.687  39.035  14.788
73948W        W44548  15.610  10.072  11.398
73949W        W44549   4.487  14.470   4.065
73950W        W44550  34.614  17.200   1.704
73951W        W44551  29.824  40.660   2.701
73952W        W44552  21.214  21.719  13.362
73953W        W44553  26.652  13.551   0.334
73954W        W44554  15.901   4.866   3.852
73955W        W44555  33.426  42.845  11.353
73956W        W44556   7.243  29.511   0.780
73957W        W44557  18.778  16.261  11.187
73958W        W44558  42.217  43.457   3.746
73959W        W44559  41.146  14.092   5.000
73960W        W44560  31.999  35.696  14.000
73961W        W44561   4.958   0.622  12.106
73962W        W44562   9.847   1.757   4.729
73963W        W44563   5.073   7.707   5.120
73964W        W44564  42.801  15.372   4.611
73965W        W44565  22.027  30.376  14.899
73966W        W44566  17.183  23.204   3.842
73967W        W44567  27.095   6.318   0.795
73968W        W44568  32.094  37.685  12.623
73969W        W44569  15.441  19.827  13.289
73970W        W44570  16.419  26.281   4.134
73971W        W44571  43.947  11.678  13.044
73972W        W44572   8.543  14.192  10.734
73973W        W44573  24.274  28.720   0.448
73974W        W44574  43.110  40.452   2.186
73975W        W44575  44.432  14.398  10.247
73976W        W44576  42.467  32.600  14.063
73977W        W44577   2.046  33.156   9.708
73978W        W44578  39.755  15.646   2.755
73979W        W44579  11.691  39.613   4.948
73980W        W44580   5.264  40.090  11.901
73981W        W44581  29.460  21.661  11.594
73982W        W44582   0.436   9.419  12.613
73983W        W44583  12.380  24.519  11.099
73984W        W44584  15.572  36.157   4.715
73985W        W44585  37.424  20.539   4.353
73986W        W44586  16.745  17.482   1.368
73987W        W44587  21.660  33.097   0.776
73988W        W44588  10.862  11.906   1.289
73989W        W44589  33.600   6.412   4.064
73990W        W44590  39.126  31.144  10.894
73991W        W44591  16.810  39.755  12.897
73992W        W44592  14.214   4.718  14.403
73993W        W44593  12.594  38.788  13.407
73994W        W44594   8.537  10.441  11.645
73995W        W44595  35.613  42.862  10.567
73996W        W44596  13.110  21.099   4.472
73997W        W44597  27.372  42.656   1.832
73998W        W44598  29.994  30.565  14.750
73999W        W44599  30.211  38.865  12.462
74000W        W44600   4.770  19.961  10.618
74001W        W44601  23.139  35.262   4.961
74002W        W44602  28.428   6.767   1.727
74003W        W44603  13.073  33.570  12.002
74004W        W44604   1.425   4.597   3.540
74005W        W44605  35.977  26.229  11.576
74006W        W44606   9.592  37.348  11.361
74007W        W44607   4.278  43.061  12.885
74008W        W44608  34.556  10.647   4.822
74009W        W44609  14.186  32.485   0.006
74010W        W44610  34.523   2.393   3.244
74011W        W44611  17.739   7.899   2.215
74012W        W44612   2.932  24.045   4.521
74013W        W44613  20.121  30.089  14.106
74014W        W44614   1.910  31.951  12.246
74015W        W44615   9.131  32.714   1.031
74016W        W44616  43.614  21.457  12.079
74017W        W44617  15.291  11.600   3.211
74018W        W44618  10.273  34.141  14.879
74019W        W44619  24.209   4.450  11.104
74020W        W44620  12.757  43.211  12.314
74021W        W44621  24.502  39.384  14.023
74022W        W44622  42.998  22.148  11.648
74023W        W44623  25.588  40.092   3.784
74024W        W44624   7.157   4.751  11.235
74025W        W44625  25.560  14.255  10.953
74026W        W44626  36.557  32.864   0.972
74027W        W44627   8.121  15.468   3.418
74028W        W44628  36.621   8.143  12.868
74029W        W44629  21.673  43.294   4.297
74030W        W44630   4.289  38.634   1.398
74031W        W44631  20.940  23.514   0.444
74032W        W44632  23.499  24.685   0.417
74033W        W44633  12.489  21.587   0.295
74034W        W44634  39.495   3.476  11.592
74035W        W44635  15.728  35.565   1.992
74036W        W44636   6.392  36.276  12.994
74037W        W44637   7.224  10.306   0.628
74038W        W44638  16.668  42.904  13.970
74039W        W44639  35.896  28.736   0.233
74040W        W44640   3.158  26.685   4.138
74041W        W44641  20.977  40.259  13.679
74042W        W44642   7.792   3.862  12.515
74043W        W44643   4.974  29.903  13.883
74044W        W44644  39.319  35.405   4.267
74045W        W44645   1.083  34.782  13.279
74046W        W44646  40.067  24.922  10.731
74047W        W44647   2.328  36.644  14.784
74048W        W44648   7.205  22.502   1.899
74049W        W44649  43.063  43.988   1.103
74050W        W44650  36.823   6.241  14.826
74051W        W44651  34.188   9.115  14.829
74052W        W44652  16.112   4.823  13.872
74053W        W44653  44.600  15.637  12.025
74054W        W44654   1.853   6.354   2.637
74055W        W44655  37.313  20.093  14.956
74056W        W44656  12.862  37.381   2.895
74057W        W44657  36.129  39.466   0.634
74058W        W44658  23.518  27.558   0.973
74059W        W44659  40.861  27.198   2.812
74060W        W44660   3.752  37.074   2.611
74061W        W44661  41.763   6.630   1.361
74062W        W44662  23.536  33.487   2.806
74063W        W44663  26.494   7.834   3.794
74064W        W44664  16.138  44.105   4.117
74065W        W44665  15.009  16.771  11.597
74066W        W44666   1.215  26.537   2.660
74067W        W44667   6.976  11.872  13.109
74068W        W44668  15.225   6.564   1.443
74069W        W44669   9.603  19.126   4.293
74070W        W44670   3.648  34.603  14.958
74071W        W44671   1.840  41.337   3.436
74072W        W44672  32.002  25.088   1.498
74073W        W44673   8.142  41.201  12.580
74074W        W44674  27.119  11.456  13.066
74075W        W44675  31.160  37.253   1.224
74076W        W44676   6.974  12.365   1.187
74077W        W44677  27.879   3.679   0.921
74078W        W44678   5.508  13.550   3.586
74079W        W44679  44.050  43.255  12.980
74080W        W44680  17.203  40.799   4.563
74081W        W44681   1.386  18.699  10.690
74082W        W44682  20.232  16.611  11.145
74083W        W44683  11.737   1.270   4.637
74084W        W44684   5.895   9.685   3.743
74085W        W44685  29.559  44.954   1.668
74086W        W44686  13.584   2.019  10.468
74087W        W44687  28.097  38.356  14.135
74088W        W44688   5.679  29.759   2.675
74089W        W44689   9.785  31.392  12.289
74090W        W44690   0.395  31.624  13.030
74091W        W44691  25.129  34.860   3.684
74092W        W44692  43.480   0.426  12.666
74093W        W44693  39.689   4.229   4.190
74094W        W44694  27.896  37.366  11.285
74095W        W44695   7.687  42.521  13.449
74096W        W44696  33.533  10.655  11.072
74097W        W44697  39.987   4.132   0.442
74098W        W44698  26.058  12.721  13.232
74099W        W44699  30.256  33.412  12.072
74100W        W44700  21.159   3.876  13.068
74101W        W44701   7.386   0.991   3.690
74102W        W44702  12.220   6.221   3.063
74103W        W44703  16.101  35.844  12.960
74104W        W44704  21.874  30.897  14.987
74105W        W44705  24.504   4.713  13.792
74106W        W44706  22.074  10.104  14.912
74107W        W44707  19.777   7.747  11.528
74108W        W44708  14.870  27.692  10.725
74109W        W44709  19.632  10.406  13.985
74110W        W44710  36.046  11.052  10.910
74111W        W44711   7.707  33.907   4.245
74112W        W44712  27.706  34.048   4.315
74113W        W44713  44.700   5.050   3.154
74114W        W44714  36.887  20.203  13.543
74115W        W44715   8.009  24.226  12.606
74116W        W44716  14.185  20.004   3.846
74117W        W44717  33.115  19.158  14.030
74118W        W44718   9.928  36.203   4.963
74119W        W44719  41.995   3.672  14.022
74120W        W44720  16.683  39.676  13.855
74121W        W44721  19.723  20.247  12.448
74122W        W44722  11.424  37.433  14.644
74123W        W44723  42.698  34.410  13.054
74124W        W44724  39.907  27.604   4.351
74125W        W44725  28.603   1.653  14.371
74126W        W44726  29.208  17.173   1.748
74127W        W44727   0.454   1.035  14.916
74128W        W44728  11.690   1.296  11.474
74129W        W44729  43.235   3.706   5.011
74130W        W44730  39.314  15.679   2.397
74131W        W44731  20.273  23.694   5.027
74132W        W44732  40.322   8.226   1.603
74133W        W44733  14.532  30.400   1.311
74134W        W44734  26.933  16.077   0.771
74135W        W44735  33.456  39.978   9.814
74136W        W44736   1.954   5.642   3.855
74137W        W44737  34.231   1.010  11.324
74138W        W44738   2.010  38.670   0.349
74139W        W44739  17.993  26.602   3.199
74140W        W44740  13.707  20.174   4.008
74141W        W44741  25.284  29.435  10.338
74142W        W44742  27.736  33.912  11.994
74143W        W44743  29.592   1.330   4.813
74144W        W44744   7.510  40.522  14.825
74145W        W44745   3.279  29.732  10.631
74146W        W44746  26.000  19.204  13.479
74147W        W44747  19.002  19.325  11.586
74148W        W44748  16.600  35.407  12.543
74149W        W44749   3.700  27.600   4.518
74150W        W44750  22.079  13.222  13.036
74151W        W44751  30.951  28.129  10.594
74152W        W44752  43.819  34.407   2.756
74153W        W44753  32.783  11.951  11.106
74154W        W44754  34.429  20.080   1.775
74155W        W44755  43.849  25.585   2.923
74156W        W44756  39.891  16.648   0.563
74157W        W44757  28.817  19.138   3.689
74158W        W44758  14.971  37.329   0.838
74159W        W44759  27.491  11.832   2.387
74160W        W44760  27.475  43.518   4.035
74161W        W44761  33.065  19.783  14.782
74162W        W44762  30.083  18.305   3.160
74163W        W44763   2.472  30.392   3.641
74164W        W44764  38.988  37.402   0.357
74165W        W44765  29.544  39.407   1.304
74166W        W44766  19.244  38.381   4.173
74167W        W44767   9.752  44.246   4.043
74168W        W44768   8.898  30.517  14.702
74169W        W44769  10.197  35.117   3.626
74170W        W44770  19.984  39.378  12.571
74171W        W44771  34.186  27.261   3.195
74172W        W44772  24.335   4.619  12.946
74173W        W44773  32.820  29.643   0.198
74174W        W44774  10.283   7.439   0.347
74175W        W44775  37.328  42.412  12.646
74176W        W44776   8.901  39.488   3.401
74177W        W44777  21.066  42.880   4.273
74178W        W44778  12.891  31.566   0.986
74179W        W44779  27.955  39.392  11.513
74180W        W44780  31.142   6.251   0.827
74181W        W44781  41.364  32.223  12.952
74182W        W44782  25.022  15.798   2.673
74183W        W44783   6.655  35.413   2.173
74184W        W44784  27.219  22.515   0.761
74185W        W44785  44.265  37.011   0.306
74186W        W44786   3.250  30.125  12.839
74187W        W44787  24.738  10.886   3.806
74188W        W44788  37.819  23.976   3.245
74189W        W44789   4.210  42.492  14.934
74190W        W44790  18.950   4.329  14.693
74191W        W44791  37.005  17.782   1.802
74192W        W44792   7.669  38.675   3.154
74193W        W44793  22.675  30.435  11.316
74194W        W44794   0.492  16.363   2.653
74195W        W44795  32.525  13.231   4.699
74196W        W44796  30.151  28.891   0.434
74197W        W44797   5.471   9.921   3.568
74198W        W44798  24.276  42.239  14.829
74199W        W44799   6.986  21.186   1.893
74200W        W44800   1.173  10.651   1.696
74201W        W44801  28.736  31.956  13.227
74202W        W44802   5.763   8.635   2.615
74203W        W44803  20.268   5.823   3.775
74204W        W44804  27.365  25.890  14.307
74205W        W44805  18.736  22.563  10.847
74206W        W44806  43.901  10.570  14.440
74207W        W44807   2.094  21.001   3.380
74208W        W44808  28.483   1.779  11.613
74209W        W44809  36.996  33.504   4.096
74210W        W44810  10.440  21.504  14.042
74211W        W44811  19.824  42.816   3.638
74212W        W44812  15.116  24.350   3.651
74213W        W44813  30.153  30.174   3.409
74214W        W44814  26.445  15.277  11.621
74215W        W44815  20.172  30.440  12.454
74216W        W44816   4.170  43.408   0.955
74217W        W44817  11.163  28.146  11.215
74218W        W44818   0.404   6.754  13.081
74219W        W44819   6.794  25.721  12.509
74220W        W44820  41.872   5.887   0.682
74221W        W44821  29.169  22.647   3.082
74222W        W44822  19.547  11.483  13.486
74223W        W44823  23.676  14.076  11.172
74224W        W44824  19.936  43.161  12.478
74225W        W44825  18.319   1.228   0.372
74226W        W44826  44.992  21.345   2.368
74227W        W44827  43.030  21.743  11.961
74228W        W44828  10.236  26.726  13.071
74229W        W44829  37.290  11.219   1.036
74230W        W44830  15.339   8.878   4.490
74231W        W44831  44.904   7.533   1.656
74232W        W44832  35.547  36.237  11.189
74233W        W44833   8.420   9.371  12.621
74234W        W44834  16.338  44.293  12.446
74235W        W44835  36.456  28.045  13.735
74236W        W44836  44.809  42.373   2.781
74237W        W44837  44.543  41.586   0.005
74238W        W44838  43.788  39.933  13.352
74239W        W44839  39.485  34.030  12.412
74240W        W44840  25.267  23.744   0.201
74241W        W44841   3.540  14.892   3.733
74242W        W44842  20.223  41.425  14.481
74243W        W44843  38.586  27.824  11.814
74244W        W44844  27.343  44.293  14.332
74245W        W44845   1.430  41.356   4.727
74246W        W44846  15.740  37.602  13.877
74247W        W44847   2.222  20.135  14.049
74248W        W44848  15.631  25.604  11.641
74249W        W44849  31.916  18.084   0.559
74250W        W44850  31.397  29.449  13.452
74251W        W44851  35.291  33.282   4.156
74252W        W44852  30.530  41.547  14.374
74253W        W44853  23.126  27.728   3.617
74254W        W44854  19.945  25.121   3.337
74255W        W44855   9.881  18.059   1.791
74256W        W44856  41.856   0.897  12.013
74257W        W44857  16.766  20.778  13.962
74258W        W44858  10.403  23.298  10.073
74259W        W44859  27.935  37.085  10.658
74260W        W44860   4.708  40.789   0.985
74261W        W44861  14.614  25.095   4.205
74262W        W44862  16.525  12.500   0.191
74263W        W44863  27.980  38.838   0.695
74264W        W44864  22.275   7.634   1.434
74265W        W44865  25.169  25.081   0.141
74266W        W44866  35.561  40.228   3.741
74267W        W44867   9.142  38.024   2.355
74268W        W44868  34.003   3.367  12.107
74269W        W44869  13.947  23.686  12.084
74270W        W44870   6.819  19.258   1.577
74271W        W44871  24.398   3.898  13.432
74272W        W44872   9.313  40.602   1.254
74273W        W44873  42.901  12.191  11.063
74274W        W44874  35.549  21.658  14.862
74275W        W44875  15.035  13.177  10.968
74276W        W44876  32.035   0.034   0.283
74277W        W44877  15.027   5.292   1.415
74278W        W44878  40.137  32.646   2.757
74279W        W44879  26.587  15.125   4.065
74280W        W44880   7.486  43.316  14.479
74281W        W44881  21.007  28.148  10.713
74282W        W44882   9.713  13.528   2.479
74283W        W44883  17.805  31.529   2.892
74284W        W44884  35.892  44.574  11.203
74285W        W44885  42.421  36.097   0.668
74286W        W44886   0.463   7.862   3.682
74287W        W44887  43.022  20.079   2.760
74288W        W44888  21.802  43.852  14.212
74289W        W44889  23.995  19.844  10.707
74290W        W44890   3.694  32.987   2.775
74291W        W44891  27.030   8.871   5.152
74292W        W44892  40.881   9.608  12.956
74293W        W44893  26.148  41.419  11.197
74294W        W44894  12.141  27.381  12.899
74295W        W44895  19.167  34.053   5.607
74296W        W44896  20.143  21.609  10.427
74297W        W44897  39.202  27.220  10.783
74298W        W44898  38.817  36.083   2.297
74299W        W44899   1.739  21.348   3.190
74300W        W44900  13.087  34.468  14.935
74301W        W44901   6.660  20.696  13.978
74302W        W44902   0.071  34.184   2.662
74303W        W44903  18.745  32.548  14.438
74304W        W44904  13.958  37.048   1.846
74305W        W44905  42.550   5.617   2.514
74306W        W44906  42.785   6.951  13.309
74307W        W44907  28.169  34.786  11.745
74308W        W44908  35.910  21.751   0.996
74309W        W44909  35.493  34.365   3.288
74310W        W44910   4.477  35.312  14.069
74311W        W44911  26.103  34.049  12.999
74312W        W44912  15.769  31.637  14.639
74313W        W44913   6.956  22.656   2.804
74314W        W44914  14.564  18.209   4.619
74315W        W44915   0.787   1.646   1.779
74316W        W44916  43.297  30.079  12.366
74317W        W44917  25.201  30.161  14.233
74318W        W44918  40.292  35.667  11.495
74319W        W44919  23.115  39.602   1.482
74320W        W44920  21.195  23.489  13.281
74321W        W44921  33.340  11.092  14.773
74322W        W44922  25.575  36.454  12.512
74323W        W44923   4.332  41.545   3.382
74324W        W44924  12.552   9.611   4.713
74325W        W44925  16.285  39.072  10.898
74326W        W44926  26.561   9.211   4.731
74327W        W44927  27.425  10.112  10.947
74328W        W44928  12.625   1.297  14.020
74329W        W44929  44.359  17.191   2.387
74330W        W44930  15.282  19.228   3.325
74331W        W44931  30.693   0.865  14.376
74332W        W44932  27.639  31.981   2.272
74333W        W44933   2.375  39.813   1.188
74334W        W44934   3.449  21.329   1.776
74335W        W44935  40.860   8.259   1.236
74336W        W44936  20.966  31.685  13.484
74337W        W44937  39.418  25.426   2.871
74338W        W44938  23.047  13.119   3.251
74339W        W44939   1.261   4.303  10.925
74340W        W44940  41.436  41.995   4.172
74341W        W44941   6.706  32.464   1.918
74342W        W44942  38.166  13.149   0.035
74343W        W44943   2.055  29.543  14.303
74344W        W44944  40.551   6.606  12.488
74345W        W44945  44.349  33.458  13.698
74346W        W44946  12.557  22.775  11.237
74347W        W44947   8.849  22.953   2.668
74348W        W44948  14.831  24.318  13.498
74349W        W44949  17.157  35.068   3.718
74350W        W44950  29.051  36.929   4.301
74351W        W44951  20.546  35.544  14.214
74352W        W44952  31.687  23.547  12.295
74353W        W44953  37.420   4.711  12.862
74354W        W44954  40.568  32.151  10.349
74355W        W44955  18.700  12.801   2.606
74356W        W44956  22.179  36.652   2.298
74357W        W44957  13.260  21.470  11.880
74358W        W44958  40.050   6.418   1.720
74359W        W44959  25.567  14.333  10.401
74360W        W44960  37.065  12.552   3.235
74361W        W44961  26.414  37.970   4.319
74362W        W44962  22.771  11.817  11.186
74363W        W44963   9.229   6.413   2.823
74364W        W44964  22.143  42.496  14.946
74365W        W44965  29.208  32.797  14.918
74366W        W44966  40.447  19.779  13.386
74367W        W44967   4.338  22.731   1.251
74368W        W44968  38.282  37.031   3.750
74369W        W44969  42.979  12.446   3.814
74370W        W44970  40.377   6.774  14.523
74371W        W44971  36.095  38.887   1.455
74372W        W44972  38.392  12.752   2.645
74373W        W44973  42.314  14.814  14.979
74374W        W44974  30.540  34.932   0.643
74375W        W44975   5.799  40.713   0.928
74376W        W44976  16.861  41.201  12.766
74377W        W44977   0.692  31.379  11.962
74378W        W44978  36.115   3.616   3.084
74379W        W44979  17.638  40.538  14.424
74380W        W44980  13.973   8.168   3.411
74381W        W44981  33.187  14.230  11.468
74382W        W44982  35.144  11.209   0.252
74383W        W44983  34.393  15.235  14.366
74384W        W44984  30.533  39.744  12.450
74385W        W44985  35.749   5.406   2.149
74386W        W44986  18.200  12.206   0.954
74387W        W44987  17.819  19.788   5.046
74388W        W44988  14.928  13.877  13.349
74389W        W44989   1.604  14.296   2.414
74390W        W44990   7.130  39.207   3.694
74391W        W44991  43.498  39.935   4.547
74392W        W44992  33.382  31.596  12.630
74393W        W44993   5.847  27.979   3.977
74394W        W44994  21.082  11.345  11.627
74395W        W44995  40.872  10.974  14.129
74396W        W44996  30.613  12.726   3.168
74397W        W44997  16.486   6.748  12.051
74398W        W44998  16.783  27.773  10.273
74399W        W44999  22.032  22.183   0.056
74400W        W45000  16.522   2.840   4.656
74401W        W45001   7.005  30.076  11.994
74402W        W45002  43.757  30.721  14.866
74403W        W45003  43.940  18.840  14.439
74404W        W45004  31.585   6.506   0.822
74405W        W45005  22.586   1.405  12.931
74406W        W45006  32.488  18.571  10.560
74407W        W45007  35.107  22.946   3.778
74408W        W45008   4.102  38.459   0.379
74409W        W45009  24.106  27.917   4.383
74410W        W45010   2.982  20.073  11.453
74411W        W45011   1.439   3.845  11.132
74412W        W45012  20.476  27.133  12.935
74413W        W45013  10.658  27.632   2.703
74414W        W45014   5.418  42.948  10.834
74415W        W45015   3.878  44.282  13.484
74416W        W45016  17.176  17.300  10.271
74417W        W45017  44.728   5.170  10.714
74418W        W45018  20.841  22.632   3.338
74419W        W45019  26.572  37.554   4.082
74420W        W45020  19.217  15.136  13.010
74421W        W45021  19.130  43.511   1.380
74422W        W45022  32.514  14.270  14.656
74423W        W45023  16.695  18.201  11.045
74424W        W45024   4.753   1.001   5.006
74425W        W45025  33.615  12.138   3.106
74426W        W45026  33.417  33.896   1.877
74427W        W45027   4.942  42.461   4.386
74428W        W45028   9.586   6.349   4.113
74429W        W45029  15.325  10.160   0.965
74430W        W45030  17.301   8.270   0.904
74431W        W45031  19.732  16.630  14.440
74432W        W45032  32.437  38.610   1.888
74433W        W45033  32.801   3.326  11.441
74434W        W45034  38.811  26.908   1.261
74435W        W45035   4.908  21.871  14.151
74436W        W45036  34.610  26.954  14.592
74437W        W45037  19.313   3.466   3.776
74438W        W45038  30.755  25.528  11.326
74439W        W45039  10.748  18.654  12.113
74440W        W45040  21.328   5.627  10.914
74441W        W45041   8.089  31.832   2.739
74442W        W45042  27.418  41.436   3.202
74443W        W45043  29.107  24.192  12.607
74444W        W45044  19.577  28.106   0.044
74445W        W45045  44.387  18.543  11.865
74446W        W45046  14.627   1.971   1.787
74447W        W45047  32.933  34.526  10.572
74448W        W45048  20.284  17.360  12.447
74449W        W45049  23.840  12.753   0.899
74450W        W45050  30.926  23.172   1.400
74451W        W45051   4.438  21.435   0.947
74452W        W45052  44.766  26.893  13.976
74453W        W45053  35.808  20.236   2.122
74454W        W45054  31.418  13.874  12.364
74455W        W45055  27.524  25.975  11.974
74456W        W45056  38.948  28.623  14.702
74457W        W45057   2.179  12.107   1.619
74458W        W45058  44.816  42.076  10.605
74459W        W45059  23.998  27.595   1.379
74460W        W45060  10.201  14.173   1.004
74461W        W45061   3.552   3.317  10.374
74462W        W45062   0.989  22.014  14.564
74463W        W45063  34.386   0.809   3.168
74464W        W45064   2.011  27.491  11.104
74465W        W45065  24.513  12.036  13.785
74466W        W45066  23.979  25.721   0.884
74467W        W45067  37.865  41.818  11.637
74468W        W45068   4.477  29.453   4.323
74469W        W45069   9.809  10.814   2.327
74470W        W45070   4.774   2.814   1.418
74471W        W45071  13.560   4.725   3.816
74472W        W45072  39.385  44.756  13.547
74473W        W45073  39.926  42.309  13.528
74474W        W45074  23.051   4.920  10.433
74475W        W45075  31.159   4.209  14.852
74476W        W45076  29.197  17.173  13.550
74477W        W45077  35.433  36.437   3.157
74478W        W45078  17.097   0.410   3.237
74479W        W45079  36.072   2.253  13.966
74480W        W45080  21.506  24.529   3.404
74481W        W45081  20.758  12.965   2.843
74482W        W45082  20.235  30.713   1.863
74483W        W45083  32.098   8.801   0.844
74484W        W45084  12.167   3.288  12.423
74485W        W45085  24.417  40.158   5.232
74486W        W45086  31.439  38.929   3.684
74487W        W45087  16.829  30.669  12.440
74488W        W45088  14.630  12.697   4.492
74489W        W45089  21.154   1.343   1.435
74490W        W45090   2.237  21.687  12.078
74491W        W45091  18.320  19.830  13.490
74492W        W45092  38.712   3.817  11.153
74493W        W45093  19.739  37.370   3.815
74494W        W45094  19.568  44.684   3.100
74495W        W45095  29.643   0.751  11.865
74496W        W45096  26.764   9.359   0.496
74497W        W45097  26.563  17.354  14.486
74498W        W45098  12.718  35.627  13.328
74499W        W45099   7.808  43.423   0.257
74500W        W45100  35.652  18.697  12.472
74501W        W45101   2.851   9.104  14.913
74502W        W45102  40.788  20.582  12.959
74503W        W45103  41.961  32.328  11.138
74504W        W45104  33.865   7.722  12.099
74505W        W45105  40.422  14.823  14.483
74506W        W45106  29.174  24.697  10.697
74507W        W45107  35.067  16.633   0.295
74508W        W45108  37.526  30.711   2.334
74509W        W45109  30.988  43.196  14.916
74510W        W45110  29.280  27.034   3.123
74511W        W45111  36.614  32.110  14.532
74512W        W45112  18.581  17.468  11.208
74513W        W45113  37.347  14.829  10.653
74514W        W45114   9.140   1.828   0.033
74515W        W45115   0.760  40.564  12.423
74516W        W45116  17.252  16.146   4.331
74517W        W45117  15.330  29.903   0.674
74518W        W45118  11.096   6.827   4.482
74519W        W45119  27.051  36.364   4.903
74520W        W45120   6.731   9.871   2.355
74521W        W45121  25.219  28.442   0.530
74522W        W45122  39.985   1.665   0.468
74523W        W45123   8.437  10.616  14.822
74524W        W45124  36.151  21.580  10.976
74525W        W45125  28.690  13.343   4.711
74526W        W45126  22.976  13.038   0.460
74527W        W45127  26.923  35.348   2.391
74528W        W45128  22.653  12.886  14.601
74529W        W45129  37.858  43.274  11.125
74530W        W45130  28.394  24.749  11.232
74531W        W45131  34.867  24.752   1.879
74532W        W45132   6.714  13.627  10.577
74533W        W45133   3.454   2.336   0.310
74534W        W45134   3.323  29.590   5.063
74535W        W45135  23.562  11.850   4.223
74536W        W45136  33.360   3.446  13.906
74537W        W45137  24.772   9.597  12.605
74538W        W45138  37.534  19.813  12.926
74539W        W45139  41.573   1.240   0.301
74540W        W45140  25.921  13.092  13.616
74541W        W45141   8.238  40.360   2.459
74542W        W45142  21.545  19.688  12.473
74543W        W45143  32.831  24.524  14.828
74544W        W45144  23.691   3.781   2.443
74545W        W45145  26.131  17.902   1.483
74546W        W45146  34.115  43.434   4.613
74547W        W45147  32.475  17.321  11.420
74548W        W45148  14.606  22.684  12.022
74549W        W45149  40.758  32.965  10.791
74550W        W45150   1.654   4.103  13.969
74551W        W45151  38.628  11.165   4.987
74552W        W45152  10.810  43.417  10.751
74553W        W45153  14.308  38.014  11.642
74554W        W45154  20.423  35.067  14.400
74555W        W45155  26.976   7.837   1.746
74556W        W45156   8.894  32.878   0.099
74557W        W45157  40.501  14.885  11.576
74558W        W45158  28.151  44.824  11.639
74559W        W45159  15.382  14.219  13.328
74560W        W45160  29.186  17.774   3.553
74561W        W45161  35.396  13.423   2.775
74562W        W45162  44.486   3.213   2.338
74563W        W45163  20.741   3.665   4.747
74564W        W45164  30.455  33.571  11.155
74565W        W45165   3.291  25.108  12.187
74566W        W45166  26.731   8.443   0.881
74567W        W45167   4.271  25.746   3.236
74568W        W45168  39.269   1.321  14.463
74569W        W45169  31.409  34.874   0.919
74570W        W45170  23.237  11.737  14.767
74571W        W45171  15.237   2.938   1.240
74572W        W45172  30.862  19.903   1.373
74573W        W45173  35.387  33.349  10.647
74574W        W45174  16.883  30.384   2.200
74575W        W45175   8.650  15.058  12.489
74576W        W45176   8.729  15.753   3.727
74577W        W45177  13.870  14.659  13.300
74578W        W45178   7.656   6.238  13.347
74579W        W45179   1.808  30.525   4.102
74580W        W45180  33.958  34.067  14.370
74581W        W45181  35.086  28.069   2.874
74582W        W45182  15.077  34.078   2.239
74583W        W45183   0.952  31.502  12.418
74584W        W45184  22.070  13.315   1.746
74585W        W45185  24.541  20.540   2.237
74586W        W45186  17.990  33.343  12.625
74587W        W45187  30.769  26.673  14.353
74588W        W45188  32.297  11.830  13.412
74589W        W45189  25.166   4.773   1.797
74590W        W45190   2.492   6.552   1.400
74591W        W45191  34.899  42.169   1.836
74592W        W45192   3.337  41.683  14.722
74593W        W45193  17.225  29.990   0.966
74594W        W45194  17.417  28.539  13.420
74595W        W45195  21.256   6.308   0.795
74596W        W45196  43.809   6.892  14.614
74597W        W45197  35.580  36.877  14.735
74598W        W45198  32.194   5.837   1.184
74599W        W45199  42.622  30.818   2.709
74600W        W45200  31.465   2.265   2.419
74601W        W45201  37.630  12.736   3.726
74602W        W45202  41.354  33.125  11.094
74603W        W45203  27.686  35.610   2.787
74604W        W45204  30.309   2.346  12.414
74605W        W45205  22.678  40.669  10.365
74606W        W45206   8.061  20.143   0.975
74607W        W45207  17.756  41.538  13.465
74608W        W45208  42.387  21.626   2.822
74609W        W45209  24.765   5.851  14.694
74610W        W45210  42.289  33.117  14.416
74611W        W45211  12.460   5.564   2.404
74612W        W45212  35.803   8.681   2.186
74613W        W45213  44.287  21.624  13.267
74614W        W45214  21.067  37.623   2.725
74615W        W45215  13.212  34.566   2.192
74616W        W45216  41.880  18.545  11.628
74617W        W45217   3.484  31.899  13.929
74618W        W45218  11.671   6.322   1.550
74619W        W45219  38.380   5.980   3.657
74620W        W45220  22.517  43.407  13.278
74621W        W45221  21.982  36.915  12.568
74622W        W45222  36.482  40.952  13.742
74623W        W45223  19.384  20.237   1.343
74624W        W45224  18.301   5.588   0.714
74625W        W45225  34.138  43.373   3.671
74626W        W45226   2.034  25.282  11.711
74627W        W45227  31.647  10.638  11.020
74628W        W45228  37.292  31.936   1.493
74629W        W45229   9.637  41.791  13.444
74630W        W45230  44.445  20.660  12.258
74631W        W45231  22.719   3.475  10.540
74632W        W45232  39.365  17.357   1.881
74633W        W45233  32.432  30.680   2.260
74634W        W45234  43.446  24.983  12.961
74635W        W45235  30.453  14.650   0.450
74636W        W45236  17.174  19.463   3.182
74637W        W45237  15.507  43.814   2.669
74638W        W45238  24.542  43.172   2.397
74639W        W45239   9.776  16.868  13.403
74640W        W45240   5.397   9.138   3.247
74641W        W45241  27.752   8.421  14.316
74642W        W45242   2.037   3.258   2.290
74643W        W45243  18.468   1.296   4.661
74644W        W45244  35.035  33.287  12.160
74645W        W45245  37.606   8.837   3.334
74646W        W45246  29.120  14.828   4.812
74647W        W45247  31.385  20.266  13.437
74648W        W45248  19.142  39.261   1.135
74649W        W45249  39.377  33.903   0.496
74650W        W45250   5.702   3.851  11.241
74651W        W45251  31.115  29.838  11.959
74652W        W45252  33.390  13.565   2.311
74653W        W45253   1.851  26.410   3.839
74654W        W45254   2.766   3.764   1.456
74655W        W45255  22.067  37.788   3.676
74656W        W45256  18.254   4.631   1.203
74657W        W45257  29.642  12.864  12.078
74658W        W45258   2.220  16.034  12.682
74659W        W45259  14.043  19.613   0.441
74660W        W45260  32.587  37.369  12.054
74661W        W45261  44.370   1.940  11.260
74662W        W45262  27.675  19.729  14.206
74663W        W45263  10.329  33.089   3.158
74664W        W45264   9.242   7.078   4.484
74665W        W45265  10.593  40.974  12.065
74666W        W45266  33.839   8.133   0.703
74667W        W45267  14.668  18.512  13.949
74668W        W45268   0.879  17.002   4.554
74669W        W45269   7.211  30.001   3.198
74670W        W45270  42.263  26.625  12.991
74671W        W45271  36.165  32.426  12.401
74672W        W45272   5.566  18.125  10.992
74673W        W45273  41.388  28.608   0.948
74674W        W45274  15.438  33.284  11.552
74675W        W45275  13.163  38.521   4.539
74676W        W45276  34.062  17.181  11.156
74677W        W45277  33.421  35.027  13.834
74678W        W45278  26.775   8.017   4.183
74679W        W45279  33.052   6.130  13.470
74680W        W45280   0.396  10.272   2.188
74681W        W45281  30.586  23.483  10.657
74682W        W45282  10.049  27.675  14.694
74683W        W45283  34.527  35.386  11.471
74684W        W45284  35.246   0.907   0.328
74685W        W45285   1.376  33.846   2.685
74686W        W45286  42.253   3.305   1.382
74687W        W45287  10.132   3.532  14.855
74688W        W45288  26.167  35.411  13.527
74689W        W45289  43.227  31.049   4.560
74690W        W45290  37.973   5.904  13.319
74691W        W45291  22.780   7.425   2.319
74692W        W45292  21.410  14.628  11.079
74693W        W45293  14.906  22.178  12.112
74694W        W45294  12.057  32.565   3.429
74695W        W45295  25.085   5.388  13.998
74696W        W45296  34.623  10.175   0.327
74697W        W45297  31.382  37.927   2.321
74698W        W45298  42.883  42.088  11.999
74699W        W45299  13.751   7.108   1.446
74700W        W45300   7.854   0.966  10.634
74701W        W45301  12.575   4.985   0.767
74702W        W45302  28.959  14.159   0.221
74703W        W45303  23.855  24.276   3.362
74704W        W45304  33.195  31.902   4.914
74705W        W45305  38.448  41.797   2.348
74706W        W45306  11.170  41.310   4.082
74707W        W45307  37.832   8.840   2.868
74708W        W45308   7.071  19.079  13.920
74709W        W45309  25.577  24.958   2.118
74710W        W45310  44.937  36.478   2.672
74711W        W45311   0.054  28.973   1.352
74712W        W45312  42.322  44.754  11.583
74713W        W45313   5.357  34.666   4.095
74714W        W45314  25.266  30.473   1.936
74715W        W45315  37.232   5.828   2.556
74716W        W45316  35.627  15.869   2.139
74717W        W45317  39.239   5.187  13.599
74718W        W45318   5.818  37.364   1.387
74719W        W45319   4.911  43.092   5.071
74720W        W45320  44.000  21.835  12.154
74721W        W45321   6.610  35.401   0.783
74722W        W45322  25.030  35.144   3.241
74723W        W45323  41.716  12.638   0.760
74724W        W45324  26.699  25.776  13.823
74725W        W45325  19.705  31.903   3.377
74726W        W45326  17.837  25.485  11.924
74727W        W45327   5.215  40.527   4.898
74728W        W45328  25.911  29.863  12.857
74729W        W45329   9.392  24.231  11.236
74730W        W45330   1.474  30.631  12.883
74731W        W45331   8.918  20.619   1.143
74732W        W45332  18.133   2.169  12.381
74733W        W45333  21.738  12.078  12.011
74734W        W45334  31.704   7.720  14.241
74735W        W45335   2.526   1.545   0.926
74736W        W45336  20.563  35.892  13.337
74737W        W45337  19.155  24.782   2.619
74738W        W45338  33.901  40.946  12.126
74739W        W45339   9.607  16.076  11.685
74740W        W45340  26.707  13.583  13.846
74741W        W45341  14.088  30.761   4.879
74742W        W45342  42.824  43.127   2.792
74743W        W45343  25.953  15.332   1.510
74744W        W45344  17.152  22.979  14.006
74745W        W45345  28.485  35.124   9.822
74746W        W45346  21.919   1.493   4.150
74747W        W45347  32.076  16.054   1.875
74748W        W45348  40.572  12.833   1.209
74749W        W45349  16.012   0.209  12.116
74750W        W45350  39.303   0.023  12.089
74751W        W45351  38.889  37.780   2.895
74752W        W45352  39.176   9.361  10.423
74753W        W45353  27.833   3.209   4.157
74754W        W45354  18.600  34.552  14.343
74755W        W45355  38.854  13.525  14.817
74756W        W45356  13.282  28.104  14.990
74757W        W45357  29.391  36.064   4.522
74758W        W45358  29.494  12.337   2.690
74759W        W45359  38.703   2.486  11.076
74760W        W45360  42.463   4.905   1.849
74761W        W45361  17.363  10.746   4.241
74762W        W45362  13.782  33.140  10.506
74763W        W45363   0.717  35.437   3.270
74764W        W45364   9.795  20.706   4.466
74765W        W45365  37.732   2.257  11.046
74766W        W45366  43.487   6.703  13.475
74767W        W45367   1.228   8.404  13.803
74768W        W45368  35.890   8.758   1.241
74769W        W45369  31.415   4.391  11.099
74770W        W45370   6.207  24.217   0.777
74771W        W45371   1.423  42.899   3.285
74772W        W45372  11.028  33.754  11.110
74773W        W45373  32.946  11.409   2.853
74774W        W45374  37.986  23.626   3.577
74775W        W45375  42.151  36.394  12.490
74776W        W45376  18.492  32.611  14.935
74777W        W45377  10.178   5.814   2.130
74778W        W45378  30.286  30.045  13.023
74779W        W45379  28.903  13.133  11.648
74780W        W45380  10.287  15.505   1.086
74781W        W45381  35.395  16.669  13.338
74782W        W45382  31.968   9.076   0.391
74783W        W45383  25.006  34.887  14.486
74784W        W45384  10.680   1.180  13.977
74785W        W45385  43.736  33.579   2.798
74786W        W45386  11.905  14.391   3.674
74787W        W45387  36.572   7.937  12.351
74788W        W45388   5.439  20.054   3.693
74789W        W45389  16.170  39.983   1.241
74790W        W45390   4.160  33.064  13.401
74791W        W45391  23.452  37.573  12.169
74792W        W45392  29.997  38.737  11.580
74793W        W45393  38.608  33.846   0.889
74794W        W45394  37.329   9.193   4.253
74795W        W45395  13.650  37.444  12.107
74796W        W45396  14.837  17.758   4.489
74797W        W45397   8.355  16.251  11.974
74798W        W45398   2.761  28.077   1.145
74799W        W45399  38.338  31.925  12.976
74800W        W45400  19.631  12.367   1.527
74801W        W45401   9.310  31.368   1.783
74802W        W45402  33.999  21.106  13.380
74803W        W45403   2.773  12.106   1.368
74804W        W45404  24.596  11.600  11.123
74805W        W45405  32.832  44.345   3.232
74806W        W45406  17.828  44.382   3.401
74807W        W45407  18.327  17.201   4.856
74808W        W45408  34.585   9.321   0.066
74809W        W45409  28.609   3.526  11.958
74810W        W45410  15.819  18.078  11.968
74811W        W45411  21.139   3.905   0.102
74812W        W45412   8.695  22.113  11.260
74813W        W45413  40.410  14.993   3.651
74814W        W45414  10.393  38.893  14.056
74815W        W45415   3.154  38.803  14.958
74816W        W45416  29.873  12.194   2.387
74817W        W45417  37.257   1.844   4.236
74818W        W45418  10.939  26.024  10.500
74819W        W45419   5.737  25.670   1.785
74820W        W45420  27.956  14.647   0.901
74821W        W45421  25.663  24.686   4.090
74822W        W45422  22.228  38.492   4.140
74823W        W45423  16.314  17.921   4.160
74824W        W45424  20.562  28.705   4.289
74825W        W45425  35.619  17.224   0.353
74826W        W45426  41.406   6.462  13.782
74827W        W45427   7.883  33.428   3.968
74828W        W45428  21.516  37.444   2.893
74829W        W45429  18.949   5.901  14.331
74830W        W45430   3.446   9.893  14.853
74831W        W45431  18.665  12.641   3.519
74832W        W45432  23.883  19.693   1.015
74833W        W45433   6.290  11.601  10.665
74834W        W45434  21.316  34.840   1.639
74835W        W45435  40.401  41.594  11.659
74836W        W45436   9.314   0.481  10.809
74837W        W45437  35.435   9.752  13.047
74838W        W45438  37.840  23.919  14.876
74839W        W45439   9.309  42.093   0.305
74840W        W45440  27.748  18.087   1.851
74841W        W45441   7.370  20.668  13.370
74842W        W45442   1.881  13.634   1.337
74843W        W45443  44.121   5.668   4.160
74844W        W45444  31.952  12.222  14.692
74845W        W45445  28.160   4.702   3.863
74846W        W45446   8.723  36.551  13.886
74847W        W45447  27.741  41.822   3.339
74848W        W45448   2.740  14.884  12.591
74849W        W45449  17.152  20.220  10.888
74850W        W45450  30.474  15.118   2.148
74851W        W45451   3.232   4.699  12.488
74852W        W45452   2.206  16.236   2.174
74853W        W45453  38.805   5.567  11.157
74854W        W45454  34.201   4.918   1.390
74855W        W45455  39.868  24.691  14.088
74856W        W45456  38.361  11.412  13.391
74857W        W45457  35.936   2.588   0.316
74858W        W45458  37.254  33.165  11.238
74859W        W45459  40.290  35.579   2.742
74860W        W45460  26.802  19.712  11.237
74861W        W45461  25.637  16.880   0.845
74862W        W45462  23.693   0.370   3.175
74863W        W45463   5.948  19.473  11.381
74864W        W45464  34.815  23.260  14.092
74865W        W45465  13.399  32.014  11.585
74866W        W45466   0.160   3.417  14.468
74867W        W45467  25.458   6.965  14.455
74868W        W45468  32.577  23.210   4.418
74869W        W45469  11.317  30.974  14.058
74870W        W45470  40.319  34.500   3.585
74871W        W45471  17.793  37.602   0.743
74872W        W45472   2.539  23.020  13.441
74873W        W45473  12.787  21.524   1.984
74874W        W45474  22.495   2.527   3.174
74875W        W45475  30.467  36.128  13.003
74876W        W45476  21.752   6.016  14.629
74877W        W45477   2.629  41.323   0.690
74878W        W45478  36.424  39.435  13.796
74879W        W45479   1.492  25.932   1.694
74880W        W45480  40.832   1.897   2.553
74881W        W45481  11.801  20.654  11.473
74882W        W45482  28.430  41.215  13.083
74883W        W45483  40.374  35.980   0.248
74884W        W45484   8.332  13.431  14.486
74885W        W45485  14.132  12.622   1.631
74886W        W45486  39.652   3.250   1.948
74887W        W45487  29.643  17.177   0.966
74888W        W45488  19.269   3.664   4.546
74889W        W45489  38.481  29.491   4.299
74890W        W45490  20.018  17.228   0.908
74891W        W45491  16.818  41.436   0.395
74892W        W45492  23.563  43.458   3.351
74893W        W45493  44.766   3.520  11.245
74894W        W45494  26.898  39.819  10.753
74895W        W45495   9.752  27.084  13.813
74896W        W45496  14.610  23.895  11.315
74897W        W45497   4.869  26.155  11.631
74898W        W45498  20.754  44.073   1.954
74899W        W45499  13.804  33.258   2.640
74900W        W45500   0.182  30.918  12.037
74901W        W45501  24.073  34.510   2.674
74902W        W45502  22.728   0.599  10.757
74903W        W45503  32.045  29.552   2.735
74904W        W45504  19.855  13.246   0.149
74905W        W45505  20.819   2.812  14.355
74906W        W45506  13.938  15.408   3.114
74907W        W45507  18.784  18.691   4.662
74908W        W45508   2.391   4.361   4.133
74909W        W45509  39.006  28.638  10.685
74910W        W45510  36.770  10.897  11.240
74911W        W45511   3.847   8.876   0.352
74912W        W45512  35.364  25.734   1.334
74913W        W45513  19.378  35.578   1.191
74914W        W45514  12.686  10.161   3.224
74915W        W45515  25.380  22.631  10.775
74916W        W45516   0.261  28.232  14.443
74917W        W45517   6.716   5.776   4.161
74918W        W45518   6.924  40.786   2.447
74919W        W45519  38.432  14.070  10.404
74920W        W45520  34.341   1.189   1.433
74921W        W45521  35.174  12.641  11.547
74922W        W45522   2.471  18.085   4.154
74923W        W45523   6.699  40.788   3.317
74924W        W45524  29.195  26.186   1.885
74925W        W45525  37.736   0.948   1.378
74926W        W45526  19.722   7.404  12.287
74927W        W45527  20.517  24.032  10.482
74928W        W45528  35.828  37.632   0.972
74929W        W45529  38.997  11.095   1.789
74930W        W45530  27.123  16.255  13.313
74931W        W45531   9.644  25.881  13.632
74932W        W45532  22.989  43.733   3.200
74933W        W45533  28.167   5.462  13.204
74934W        W45534  37.496  19.921   3.738
74935W        W45535   2.253  39.800   2.408
74936W        W45536  29.673  16.614  13.070
74937W        W45537  38.466   5.192  11.179
74938W        W45538  13.641  28.168   3.908
74939W        W45539   6.640  17.158   3.648
74940W        W45540  43.214  28.635  14.958
74941W        W45541   3.596  11.383  11.513
74942W        W45542  26.919  28.713  12.948
74943W        W45543  40.009  24.666   3.803
74944W        W45544  12.367  41.434   1.498
74945W        W45545  28.556  31.698  14.135
74946W        W45546  24.648  21.700  11.773
74947W        W45547  19.758  10.269  14.480
74948W        W45548  12.411  12.579   0.180
74949W        W45549  32.503   5.528   3.738
74950W        W45550   7.190   3.351   2.679
74951W        W45551   1.418  13.831   1.244
74952W        W45552  25.785   0.823  12.562
74953W        W45553  43.582  37.463  10.963
74954W        W45554  15.203  28.454  11.664
74955W        W45555  23.434  17.698  13.514
74956W        W45556  24.702  33.165   2.596
74957W        W45557  19.252  28.170  13.397
74958W        W45558  10.658  25.555  10.502
74959W        W45559  17.720  43.016   0.361
74960W        W45560  13.339  33.344  10.288
74961W        W45561   4.510  10.605  13.328
74962W        W45562  21.128  31.468  11.673
74963W        W45563   6.407   2.062   0.186
74964W        W45564  42.487  10.656   1.913
74965W        W45565  12.210  30.556   3.249
74966W        W45566  44.798  40.262   0.856
74967W        W45567  10.454  12.307  11.309
74968W        W45568  14.124  36.980   3.343
74969W        W45569   8.392  33.700  12.048
74970W        W45570  16.278  37.140  14.565
74971W        W45571  30.908  17.701   0.989
74972W        W45572   0.310  22.180  12.363
74973W        W45573  35.128  23.819  12.542
74974W        W45574   7.657   3.206   0.221
74975W        W45575   1.263  35.676   4.116
74976W        W45576  39.617  24.570  12.416
74977W        W45577   5.345   6.656  12.124
74978W        W45578   5.228  31.387   1.850
74979W        W45579   5.832  23.344   4.510
74980W        W45580  23.987  17.043   3.564
74981W        W45581   6.353  34.945   0.785
74982W        W45582   2.213  22.657   3.768
74983W        W45583  18.802  36.043   2.925
74984W        W45584  26.389  42.416   2.491
74985W        W45585  31.533  40.952  13.931
74986W        W45586  12.605  34.604  14.835
74987W        W45587  11.586   2.256  13.540
74988W        W45588  13.104  27.898   0.535
74989W        W45589   5.709   3.811  11.746
74990W        W45590  27.687  21.166   4.943
74991W        W45591   6.234  35.184   2.688
74992W        W45592  14.582  17.545   0.999
74993W        W45593  37.842   5.320   4.551
74994W        W45594  21.652  36.361  11.625
74995W        W45595  18.809   0.989   0.427
74996W        W45596  24.533  15.534   2.700
74997W        W45597  40.252  30.390  11.216
74998W        W45598  29.449   3.321   2.282
74999W        W45599  42.347   2.332   0.968
75000W        W45600  38.783  38.159  12.461
75001W        W45601  13.086  11.260   2.555
75002W        W45602   7.247  29.957  11.549
75003W        W45603  11.453  42.397   5.060
75004W        W45604  33.102  13.852   3.238
75005W        W45605  17.127  14.922   5.227
75006W        W45606  42.846  24.893   1.875
75007W        W45607  14.359   2.484  14.740
75008W        W45608  29.265   2.210  11.678
75009W        W45609  37.583  36.086   1.760
75010W        W45610  31.002  31.237  12.575
75011W        W45611  41.607  30.542  10.763
75012W        W45612   9.356  10.287   1.916
75013W        W45613  35.480   6.932  13.776
75014W        W45614   6.385  27.275  10.593
75015W        W45615  11.033  37.217  14.905
75016W        W45616  21.001  32.649   0.459
75017W        W45617  39.252  39.015  14.505
75018W        W45618  37.004  44.570   3.639
75019W        W45619  16.808  37.447   4.840
75020W        W45620  27.441  15.905  11.571
75021W        W45621  12.108  26.102   4.559
75022W        W45622  33.429  44.515  10.623
75023W        W45623  35.095  36.000  13.324
75024W        W45624  19.597  37.386  11.074
75025W        W45625  26.609  28.141  13.874
75026W        W45626  16.832   5.197  14.039
75027W        W45627  32.636   6.826   0.411
75028W        W45628  40.068  26.009   3.738
75029W        W45629  20.695  40.133  12.448
75030W        W45630  42.895   9.432   1.428
75031W        W45631  12.071   5.934   2.361
75032W        W45632  31.077  15.562   0.073
75033W        W45633  28.050  34.837  10.762
75034W        W45634  23.002  27.057  11.543
75035W        W45635   5.882   2.420   0.894
75036W        W45636   6.967   1.229  12.864
75037W        W45637  21.899  32.502   3.772
75038W        W45638  28.579  17.212  14.862
75039W        W45639  34.579  25.715  11.181
75040W        W45640  24.666  30.444   1.235
75041W        W45641  42.592  40.311  14.457
75042W        W45642  10.238  40.788   0.494
75043W        W45643  10.199  37.387  11.852
75044W        W45644  31.563  14.289   2.332
75045W        W45645  12.626  13.675   2.595
75046W        W45646  32.126   6.756   2.082
75047W        W45647  24.750  20.184   0.845
75048W        W45648  38.515  25.791   3.146
75049W        W45649  31.426  25.962   2.214
75050W        W45650  25.532  37.838   1.465
75051W        W45651  15.605  11.863   2.881
75052W        W45652  20.584  33.768  11.288
75053W        W45653  20.719  12.836   0.994
75054W        W45654  28.776  31.516   0.005
75055W        W45655  15.094   7.141   1.111
75056W        W45656  17.730  44.991   0.356
75057W        W45657  22.745  10.564  14.319
75058W        W45658  14.073  17.890  11.992
75059W        W45659  11.339   0.065  10.564
75060W        W45660  31.791  17.059  13.148
75061W        W45661  13.884  20.565   4.914
75062W        W45662  38.925  31.105   0.710
75063W        W45663  13.656  27.477   4.678
75064W        W45664  37.611  20.589  13.475
75065W        W45665  34.036  30.676  12.155
75066W        W45666  18.490  35.998   0.937
75067W        W45667  33.063  42.507  14.805
75068W        W45668   6.544  39.899   0.860
75069W        W45669   4.528  40.433   2.375
75070W        W45670   7.961   8.175   4.755
75071W        W45671  18.161  25.425   4.161
75072W        W45672  14.899  26.917  12.054
75073W        W45673  14.024   7.736   2.220
75074W        W45674   3.535  42.951  13.947
75075W        W45675   0.841  16.524   4.353
75076W        W45676  27.282  18.621   1.259
75077W        W45677   0.414  24.674   1.811
75078W        W45678   8.110  19.047   2.333
75079W        W45679   8.175  23.065  11.054
75080W        W45680  30.137  13.459   5.107
75081W        W45681   9.134  21.590   1.307
75082W        W45682  22.581   0.288  11.715
75083W        W45683   9.751   8.468   1.336
75084W        W45684  15.954  19.845  13.327
75085W        W45685  38.480   6.850   0.925
75086W        W45686  25.169  23.120  13.492
75087W        W45687  26.026  39.374   3.725
75088W        W45688   0.626   9.721   0.028
75089W        W45689  23.745  11.612   3.241
75090W        W45690  29.639   4.812   3.844
75091W        W45691  38.770  15.789  14.349
75092W        W45692  25.456  26.791   0.677
75093W        W45693  43.916   8.404  12.393
75094W        W45694  13.782   8.139  14.175
75095W        W45695  29.387  35.202   1.842
75096W        W45696  14.244  40.532  14.856
75097W        W45697   7.868   2.771   2.366
75098W        W45698  16.872  19.643  13.393
75099W        W45699  11.730  29.950  10.551
75100W        W45700  26.786  15.286  10.361
75101W        W45701  19.104  18.561   2.364
75102W        W45702  18.095  22.607  12.222
75103W        W45703   9.359   2.506  13.014
75104W        W45704  12.262  19.371  12.177
75105W        W45705  28.947  20.095  12.128
75106W        W45706  33.611  28.372   4.613
75107W        W45707   7.728   8.288  10.710
75108W        W45708   8.337  43.835  10.738
75109W        W45709   9.753   3.428  12.575
75110W        W45710  24.051  44.705   0.288
75111W        W45711  24.036  11.371   1.737
75112W        W45712   4.316  40.781   4.423
75113W        W45713  14.168  35.629   1.741
75114W        W45714   5.250  16.765   0.830
75115W        W45715  26.083  12.259   4.622
75116W        W45716  39.109  37.956  11.066
75117W        W45717  17.364  15.401   4.560
75118W        W45718  27.545  39.069  14.986
75119W        W45719  15.237  11.950  13.750
75120W        W45720  37.919  23.524   1.886
75121W        W45721  23.552  29.960  11.606
75122W        W45722  40.284  28.181   2.341
75123W        W45723   6.374  31.863   2.391
75124W        W45724  27.223  32.944  13.368
75125W        W45725  27.265   3.345   0.233
75126W        W45726  10.167  13.628   2.246
75127W        W45727  15.312  21.792  13.963
75128W        W45728  37.958   1.209   1.857
75129W        W45729  21.072   9.441   5.040
75130W        W45730  16.648  41.285  14.828
75131W        W45731   8.217   1.182  11.857
75132W        W45732  41.986  14.552   2.035
75133W        W45733   7.552  19.615  11.854
75134W        W45734  19.847  25.253   1.331
75135W        W45735  35.050   3.331  14.084
75136W        W45736  30.424  38.746   4.988
75137W        W45737  34.491   0.277   1.915
75138W        W45738   3.298   8.127   0.293
75139W        W45739  22.239  20.290  13.391
75140W        W45740   9.247   2.150  11.737
75141W        W45741   8.637  43.247   4.032
75142W        W45742  13.884  15.305   4.468
75143W        W45743  44.230  20.453   1.842
75144W        W45744   4.376  32.975   5.763
75145W        W45745  12.239  22.798  14.970
75146W        W45746  26.189  41.424  13.474
75147W        W45747   7.170   8.211   2.613
75148W        W45748  15.200  29.524   2.776
75149W        W45749  34.459  30.177  12.907
75150W        W45750  18.481  15.409  12.460
75151W        W45751   0.474  16.720   0.327
75152W        W45752   7.919  40.406  11.277
75153W        W45753  40.896  39.807   4.593
75154W        W45754   3.254   2.794   3.862
75155W        W45755   9.339  19.319   1.325
75156W        W45756  40.350  33.740  12.979
75157W        W45757  30.601  24.550   2.249
75158W        W45758  40.446  23.431  11.084
75159W        W45759  23.787  38.563  11.261
75160W        W45760  19.659  30.439  13.474
75161W        W45761  32.732  43.665   4.190
75162W        W45762   6.287  18.519  10.644
75163W        W45763  19.000  44.229  13.028
75164W        W45764  34.303   5.389  13.522
75165W        W45765   9.872  26.720  14.832
75166W        W45766  37.405  29.681  13.917
75167W        W45767  24.482  36.061   1.890
75168W        W45768  34.728  17.557  12.415
75169W        W45769  19.116  18.265   0.863
75170W        W45770  42.922  29.507   1.782
75171W        W45771   1.216   3.877   1.311
75172W        W45772   9.306  42.491  14.540
75173W        W45773   4.053  35.499  10.713
75174W        W45774   1.219  28.280  11.704
75175W        W45775  16.973  20.711   1.271
75176W        W45776  15.853   7.099   3.250
75177W        W45777  19.800  32.425  14.921
75178W        W45778  11.990  12.918   2.430
75179W        W45779  10.967  24.396   3.039
75180W        W45780  14.724  21.777   0.790
75181W        W45781   4.554  35.153   0.454
75182W        W45782  29.585   5.252  14.549
75183W        W45783  13.623  21.209   4.575
75184W        W45784  39.871  34.519  10.673
75185W        W45785  29.889  11.351   3.134
75186W        W45786  37.852   1.922   4.739
75187W        W45787  26.806  17.793  14.392
75188W        W45788   9.666  26.522   0.266
75189W        W45789  33.635  32.081   1.520
75190W        W45790  36.422   9.284   4.070
75191W        W45791  37.876  36.958  10.477
75192W        W45792  42.046  30.412   3.627
75193W        W45793  14.557  34.951  10.373
75194W        W45794  26.285  29.759  11.102
75195W        W45795   7.371  31.300   5.017
75196W        W45796  29.684  32.752   3.735
75197W        W45797  19.531  17.295  13.457
75198W        W45798  39.879   8.189  12.496
75199W        W45799  17.435  34.584  10.788
75200W        W45800  38.035  11.746   3.439
75201W        W45801  44.440  24.169   1.900
75202W        W45802  37.429  11.235   3.268
75203W        W45803   7.371  29.658   2.374
75204W        W45804  41.336  26.221   1.169
75205W        W45805  23.677  42.019   2.969
75206W        W45806  33.523  18.583  12.403
75207W        W45807  23.187  44.142   0.132
75208W        W45808  44.317  33.158  11.326
75209W        W45809  36.672  42.039   1.293
75210W        W45810  32.395   3.247   1.959
75211W        W45811  15.645  44.979   2.365
75212W        W45812  41.007  37.621  12.168
75213W        W45813  18.576  20.195  14.495
75214W        W45814  12.224  37.337  12.098
75215W        W45815  18.126  31.384  14.719
75216W        W45816  29.153  31.486   3.215
75217W        W45817  10.947   7.654   3.851
75218W        W45818  44.255   8.726   0.390
75219W        W45819  38.255   9.446  12.527
75220W        W45820   1.443   1.673  11.953
75221W        W45821  37.359  13.553  11.862
75222W        W45822   9.923  33.514  13.315
75223W        W45823  24.465  22.910   4.216
75224W        W45824  31.116  27.692   3.326
75225W        W45825  18.304  32.930  12.535
75226W        W45826   6.434  41.060  14.475
75227W        W45827   8.813   7.951  10.628
75228W        W45828  15.596  16.623  12.080
75229W        W45829   3.784  32.363   1.701
75230W        W45830  10.729  11.954  11.743
75231W        W45831  38.426  36.643  12.436
75232W        W45832  35.463  25.543   3.715
75233W        W45833  32.526  11.529  14.259
75234W        W45834  36.602   9.847   3.743
75235W        W45835  26.697  29.990  10.940
75236W        W45836  42.131   1.049  11.607
75237W        W45837  10.447   0.624  11.400
75238W        W45838   9.268  42.565   0.551
75239W        W45839  22.216  13.851  14.426
75240W        W45840  28.804  27.082   4.055
75241W        W45841  12.232  29.202  12.450
75242W        W45842  11.404  42.302  11.783
75243W        W45843  26.916   8.467   4.418
75244W        W45844  38.072  26.546   3.324
75245W        W45845  20.053  31.378  14.991
75246W        W45846  40.041  14.527  11.559
75247W        W45847  34.302  26.993   4.537
75248W        W45848  28.652  19.219   4.518
75249W        W45849  30.718  28.551   2.969
75250W        W45850   5.739   0.352  14.909
75251W        W45851  29.204   3.746  11.537
75252W        W45852  18.639  31.375  11.274
75253W        W45853  16.167  22.003   0.452
75254W        W45854  31.937  19.084   3.640
75255W        W45855   9.559  36.875   0.978
75256W        W45856  15.401  35.424  12.072
75257W        W45857   4.252  32.423  13.944
75258W        W45858  31.449  16.805   2.795
75259W        W45859  38.454   8.338  13.844
75260W        W45860  27.173  11.242   0.303
75261W        W45861  28.667  10.407  12.003
75262W        W45862  42.809  23.977   1.983
75263W        W45863  20.250   8.608  12.712
75264W        W45864   4.343  23.150   2.411
75265W        W45865  30.138  17.124   0.723
75266W        W45866  27.145  14.274  13.219
75267W        W45867  10.286  27.006  14.930
75268W        W45868  32.067  21.881  13.944
75269W        W45869  35.223  44.835   5.056
75270W        W45870   4.010  12.683  14.541
75271W        W45871  20.411  28.251   3.047
75272W        W45872  33.257   5.228   3.168
75273W        W45873   6.255  27.040   1.042
75274W        W45874  15.373  14.033  11.557
75275W        W45875  37.821  40.399  11.482
75276W        W45876  14.682   3.820  11.894
75277W        W45877   3.843   3.289   2.022
75278W        W45878  14.039  39.146   3.129
75279W        W45879  25.418  28.332  10.961
75280W        W45880  28.909  32.661  10.302
75281W        W45881  29.363  34.659  11.971
75282W        W45882  34.375  10.734  10.939
75283W        W45883  42.062  11.883  11.184
75284W        W45884   3.234  42.089  14.005
75285W        W45885  28.443  27.385   0.642
75286W        W45886  32.888  36.540   0.901
75287W        W45887  27.895  17.040   0.597
75288W        W45888   8.577  31.701  11.180
75289W        W45889  27.143  25.421   1.433
75290W        W45890   4.696   3.893  12.926
75291W        W45891  13.563  38.260   1.376
75292W        W45892  44.117  44.377  13.554
75293W        W45893   9.396  41.137  10.578
75294W        W45894  10.595   8.949  11.861
75295W        W45895  43.453  32.090  11.126
75296W        W45896   0.179  40.966  13.969
75297W        W45897  39.821  38.161   1.279
75298W        W45898  10.893  20.284   3.091
75299W        W45899  19.716   2.525  13.224
75300W        W45900  41.825  19.574   3.672
75301W        W45901  18.216   9.019   0.157
75302W        W45902  43.561  19.275   2.464
75303W        W45903  17.682   0.286   2.425
75304W        W45904  33.629  36.783  13.161
75305W        W45905  30.588  31.581   5.137
75306W        W45906  16.035  23.111   3.251
75307W        W45907  20.059   5.314  12.256
75308W        W45908  34.591  18.032   3.013
75309W        W45909  19.640  19.721   4.071
75310W        W45910  40.850  19.604   2.102
75311W        W45911   8.910  18.768   4.971
75312W        W45912   6.626   4.809  11.486
75313W        W45913  32.044  20.049  14.328
75314W        W45914  20.363  38.062   0.361
75315W        W45915  38.378  14.830   4.732
75316W        W45916  36.131   0.503   3.782
75317W        W45917  13.775  13.418   3.519
75318W        W45918  16.015  29.894   0.046
75319W        W45919  12.844  37.562   1.910
75320W        W45920  44.701   5.222  13.814
75321W        W45921  42.161  23.469   2.248
75322W        W45922   6.976  28.172   1.362
75323W        W45923  36.489  33.151   0.350
75324W        W45924  25.549  13.368   0.815
75325W        W45925  41.821  23.223   4.522
75326W        W45926  17.056  34.803   0.598
75327W        W45927  10.254  12.366   2.713
75328W        W45928  19.286  44.699  10.694
75329W        W45929   9.628  21.972  11.631
75330W        W45930  12.555   1.467  12.587
75331W        W45931  13.627  10.224   2.763
75332W        W45932  21.661  12.082  13.292
75333W        W45933  11.155  44.599   3.719
75334W        W45934  11.132  30.515  12.799
75335W        W45935  25.934  17.380   2.282
75336W        W45936  24.506  20.490   3.147
75337W        W45937  29.072  10.732  11.193
75338W        W45938  11.325  36.862  11.933
75339W        W45939  38.593  34.667  11.138
75340W        W45940  41.985  23.136  10.597
75341W        W45941   0.342   7.909   2.324
75342W        W45942   6.279  34.398   1.274
75343W        W45943  44.341  22.737   4.687
75344W        W45944  19.216  31.912   0.525
75345W        W45945   5.176  30.396   1.599
75346W        W45946   3.601  26.624   2.000
75347W        W45947  41.963  20.988   3.201
75348W        W45948  20.124  31.790   4.998
75349W        W45949  19.123  41.445  13.392
75350W        W45950   5.169  40.342  12.325
75351W        W45951   9.339   4.527  12.112
75352W        W45952  30.361  32.870   4.117
75353W        W45953   8.752  30.101  12.990
75354W        W45954  11.213  34.865  11.500
75355W        W45955  35.967   9.172   4.317
75356W        W45956  21.313   7.310   0.353
75357W        W45957  40.307  33.462  11.160
75358W        W45958  37.030   8.032  12.058
75359W        W45959  22.155  27.009   3.831
75360W        W45960  10.437  18.578   3.620
75361W        W45961  38.271   4.959  12.622
75362W        W45962  41.306  17.783  11.625
75363W        W45963  29.973   4.193  14.446
75364W        W45964  27.601  22.058   1.494
75365W        W45965  10.681  32.488  13.309
75366W        W45966  11.976  40.738  14.377
75367W        W45967  20.532  16.110   1.215
75368W        W45968  44.906  14.653   3.266
75369W        W45969  11.872  44.815   2.447
75370W        W45970   5.524  20.361   4.095
75371W        W45971  36.122  10.586  13.919
75372W        W45972  17.632   1.962  11.057
75373W        W45973  39.047  23.967  10.738
75374W        W45974  31.458   9.540  11.657
75375W        W45975  23.779   9.348   2.811
75376W        W45976  10.875  42.418  13.555
75377W        W45977  18.341  44.462  14.907
75378W        W45978  39.941  42.260  12.050
75379W        W45979  21.422   4.729   0.459
75380W        W45980  10.840  39.406  12.118
75381W        W45981  25.534  37.380   3.295
75382W        W45982  40.502  12.589   3.624
75383W        W45983  35.405  10.682   0.322
75384W        W45984  19.550  32.697   0.312
75385W        W45985  16.189  19.172  12.821
75386W        W45986   0.799   1.836  13.094
75387W        W45987  16.390  18.709   4.735
75388W        W45988  37.521  27.031   2.652
75389W        W45989  33.300   9.196  12.473
75390W        W45990  34.963   7.993  13.495
75391W        W45991  35.027  41.821  11.114
75392W        W45992   3.654  33.132  12.419
75393W        W45993   4.753  41.328  10.683
75394W        W45994  32.379  21.512  10.700
75395W        W45995   3.229  34.737  12.058
75396W        W45996  30.778  25.514   0.988
75397W        W45997  14.213  11.651  13.872
75398W        W45998   1.652  10.346  12.132
75399W        W45999  30.328  25.237  11.167
75400W        W46000  44.016  44.669   3.844
75401W        W46001  36.676  28.033   5.127
75402W        W46002  30.962  10.907   4.616
75403W        W46003  43.929  43.797  14.195
75404W        W46004  23.263  32.951  14.949
75405W        W46005   8.209  34.360  10.369
75406W        W46006   4.638  44.314  13.095
75407W        W46007  32.602   8.136  14.363
75408W        W46008  36.523  10.685  11.665
75409W        W46009  14.415  14.774  11.616
75410W        W46010  35.559  13.595  10.736
75411W        W46011  15.388   9.438  11.979
75412W        W46012  43.439  13.808   4.131
75413W        W46013   8.865  40.925   0.572
75414W        W46014  33.075  29.205  13.432
75415W        W46015  27.683   6.514   2.784
75416W        W46016   2.366   7.159  13.838
75417W        W46017   6.882  31.674  12.620
75418W        W46018  20.535  29.925  11.437
75419W        W46019  24.758  38.329   2.703
75420W        W46020   9.940  29.758  13.360
75421W        W46021  39.874  12.247  14.779
75422W        W46022   9.302  16.629  10.725
75423W        W46023  33.655  42.694  11.771
75424W        W46024   9.774  11.942  13.054
75425W        W46025   2.183  22.349  11.707
75426W        W46026  16.871  11.374   3.259
75427W        W46027  17.906  11.527  13.928
75428W        W46028  18.623   5.838   1.968
75429W        W46029   6.186  43.551   0.739
75430W        W46030   8.102  26.724  10.554
75431W        W46031   2.234  16.180  12.183
75432W        W46032  26.323  10.340  12.641
75433W        W46033  10.334  32.878  13.412
75434W        W46034   1.975  42.540   2.252
75435W        W46035  42.819  44.964   2.190
75436W        W46036   3.864   6.308  14.522
75437W        W46037   5.164   7.303  13.012
75438W        W46038  35.940  23.906   0.951
75439W        W46039  42.545  18.266   0.401
75440W        W46040  12.098  13.209  13.922
75441W        W46041  33.784  11.359  14.860
75442W        W46042  42.354  40.758   3.630
75443W        W46043   9.886  10.314  11.194
75444W        W46044   5.718  21.543   4.486
75445W        W46045   1.072   8.274   0.034
75446W        W46046   0.709  21.812  13.812
75447W        W46047  18.721  42.581  13.852
75448W        W46048   4.541   7.357   1.079
75449W        W46049  21.570  22.285  13.458
75450W        W46050   1.800  42.444   2.737
75451W        W46051   7.775  17.261  11.479
75452W        W46052   8.262  44.873  11.248
75453W        W46053  13.960  16.864   0.488
75454W        W46054  39.547  13.196  14.559
75455W        W46055  41.048  22.140   0.760
75456W        W46056  44.682  20.074  11.890
75457W        W46057  31.447  26.378  10.948
75458W        W46058  11.451   2.120   2.859
75459W        W46059  31.609  31.830   1.372
75460W        W46060  30.486  38.098  13.610
75461W        W46061  24.016  27.934   0.273
75462W        W46062   8.363  41.979   1.705
75463W        W46063   5.799  42.862   0.451
75464W        W46064  28.777  18.128  11.124
75465W        W46065  15.672  26.557   4.108
75466W        W46066  28.302  23.191   0.364
75467W        W46067  19.623  17.615  12.579
75468W        W46068  13.824   7.264   2.297
75469W        W46069  20.397  20.707  13.382
75470W        W46070  14.512  18.666   4.365
75471W        W46071  43.035   6.317   4.674
75472W        W46072  42.889  15.744   1.387
75473W        W46073  43.021  42.480   1.828
75474W        W46074  31.423  42.635   1.511
75475W        W46075  40.176   1.745  13.494
75476W        W46076   6.704  37.855  11.132
75477W        W46077   3.689  18.801   3.755
75478W        W46078  16.356  36.621   4.525
75479W        W46079  34.493  42.034  12.831
75480W        W46080   5.921   1.255  12.995
75481W        W46081  26.791  38.727   3.782
75482W        W46082   0.986   2.951   0.437
75483W        W46083  29.479  23.397   1.770
75484W        W46084  38.867  42.764   4.947
75485W        W46085  39.908  25.986  14.277
75486W        W46086  20.562  12.184   3.405
75487W        W46087  24.356  17.145  14.072
75488W        W46088  18.010   2.212  12.901
75489W        W46089  21.723  32.460   2.379
75490W        W46090  26.690  19.969   3.707
75491W        W46091  29.652  19.574  14.385
75492W        W46092  23.923   3.534  14.373
75493W        W46093  35.547  21.695  11.461
75494W        W46094  32.495   3.259  13.704
75495W        W46095  12.126   3.023   2.196
75496W        W46096  42.685   9.353   3.680
75497W        W46097  36.085  41.198  13.992
75498W        W46098   2.048  43.098  12.324
75499W        W46099  36.406  42.911  13.331
75500W        W46100  13.201   4.566  10.688
75501W        W46101  36.844  26.649   3.668
75502W        W46102  25.389  27.179  12.088
75503W        W46103  42.709  28.172  11.100
75504W        W46104  38.879   0.545  14.097
75505W        W46105  22.060   8.433  11.958
75506W        W46106  42.931  18.273  10.285
75507W        W46107  34.098  13.297  11.692
75508W        W46108   8.440  36.822   2.659
75509W        W46109  27.614  10.753   0.898
75510W        W46110  28.473   6.140  11.896
75511W        W46111  41.790  19.795   0.071
75512W        W46112   2.317  20.192  12.118
75513W        W46113   3.727  34.206  10.137
75514W        W46114   0.527   4.243   3.660
75515W        W46115  36.577  16.664  10.655
75516W        W46116  24.476  36.361  11.993
75517W        W46117  13.302  39.364   2.006
75518W        W46118  10.122  16.642  11.127
75519W        W46119  26.039  20.701   0.222
75520W        W46120   5.428  19.999  11.156
75521W        W46121   2.398  18.620   1.966
75522W        W46122  32.522  11.875   1.711
75523W        W46123  36.425  22.702   4.231
75524W        W46124  25.762  19.983   0.417
75525W        W46125   3.166  13.062  13.364
75526W        W46126  18.175   7.514  13.437
75527W        W46127  42.574  12.608  14.339
75528W        W46128  31.652   7.183   2.878
75529W        W46129  11.885  43.739  12.372
75530W        W46130   7.224  10.758   2.319
75531W        W46131   7.723  40.319   2.318
75532W        W46132   2.871   6.796  11.401
75533W        W46133  38.687  12.579  10.440
75534W        W46134  26.262  19.062  12.228
75535W        W46135   2.996  36.793  14.748
75536W        W46136  30.119  15.593  12.270
75537W        W46137   1.641  11.867   2.308
75538W        W46138  15.548  35.908  11.701
75539W        W46139  21.484  28.167   2.209
75540W        W46140  37.615  15.601  11.873
75541W        W46141  12.247   6.457  13.004
75542W        W46142  25.246  43.079  11.575
75543W        W46143   5.619  36.564   0.244
75544W        W46144  15.591  26.736  14.906
75545W        W46145  14.149   3.756  12.972
75546W        W46146   4.963  28.311   3.579
75547W        W46147  14.734  40.786  11.984
75548W        W46148  36.367  29.697  13.012
75549W        W46149  13.793  25.339  14.448
75550W        W46150  17.836   5.796  13.614
75551W        W46151  32.210  32.055   0.365
75552W        W46152  24.121  35.435   2.603
75553W        W46153  44.761  21.463   1.412
75554W        W46154  20.691  14.096   0.334
75555W        W46155  44.964  12.062  11.184
75556W        W46156  11.955  19.806  11.125
75557W        W46157   4.824  39.239  14.364
75558W        W46158  44.529  42.894  14.921
75559W        W46159  39.490  24.595   3.622
75560W        W46160   2.806  27.500  10.431
75561W        W46161  21.541  37.985   3.726
75562W        W46162  40.625  20.077   4.555
75563W        W46163  20.838  21.729   3.227
75564W        W46164  44.893  35.501  13.820
75565W        W46165  25.953   4.777  13.954
75566W        W46166  32.168   2.399   3.439
75567W        W46167  42.670   7.723   0.927
75568W        W46168  24.761  30.250  13.435
75569W        W46169  34.571  28.679  14.966
75570W        W46170  34.423  22.562   3.491
75571W        W46171  34.665  28.152   4.572
75572W        W46172  20.281  20.997  14.082
75573W        W46173  43.855  41.930  14.512
75574W        W46174  26.476  12.551  11.087
75575W        W46175   9.496   9.613  14.958
75576W        W46176  33.005  32.403  14.033
75577W        W46177  17.338  42.408  14.007
75578W        W46178  42.577  41.328   0.794
75579W        W46179  38.764  43.395   3.699
75580W        W46180  42.864  29.869   3.848
75581W        W46181  38.445  24.965   2.802
75582W        W46182  11.685   3.509   3.836
75583W        W46183  10.203  40.154  12.123
75584W        W46184  10.871  10.790  12.474
75585W        W46185   1.996   3.216  11.584
75586W        W46186   9.432  29.559  10.762
75587W        W46187   8.853  27.340  14.437
75588W        W46188   5.912  36.098   3.421
75589W        W46189  22.704  40.726  12.126
75590W        W46190  37.612  25.645   4.195
75591W        W46191  35.416   0.169  10.807
75592W        W46192   0.715  31.966   4.119
75593W        W46193  33.948  24.148  10.729
75594W        W46194  40.907  38.877   4.199
75595W        W46195  22.175   1.814   0.743
75596W        W46196  42.243   2.218  13.490
75597W        W46197   4.009   5.232  13.646
75598W        W46198   1.251  34.049   3.158
75599W        W46199  16.128  38.024   4.456
75600W        W46200  10.315  21.368  10.835
75601W        W46201   3.703   1.297   1.254
75602W        W46202  15.945   7.860  14.917
75603W        W46203  16.004  24.450   4.046
75604W        W46204  20.839  42.770  14.879
75605W        W46205  38.860  34.270   4.719
75606W        W46206  15.597  44.084   4.062
75607W        W46207  21.571   0.119   3.878
75608W        W46208  29.501  19.551   4.505
75609W        W46209  41.739  39.937   3.638
75610W        W46210  17.104  29.119   1.958
75611W        W46211  13.042  27.637  13.242
75612W        W46212  37.408  36.379  13.828
75613W        W46213   3.560  31.645  14.401
75614W        W46214  13.119   0.950   2.431
75615W        W46215  13.163   9.965   3.826
75616W        W46216  17.322  15.423  12.042
75617W        W46217  34.933  44.421  11.507
75618W        W46218   9.197  40.550   3.730
75619W        W46219  10.105  37.403  11.349
75620W        W46220  36.483  31.807  14.939
75621W        W46221   0.321  31.074   2.606
75622W        W46222   3.269  42.661   4.206
75623W        W46223  35.019  30.581  14.986
75624W        W46224   3.938  18.332  14.387
75625W        W46225  38.960  29.400  14.027
75626W        W46226  10.316   0.823  12.825
75627W        W46227   4.865  11.375   4.225
75628W        W46228  37.578   0.181  11.040
75629W        W46229  31.950   8.315   0.969
75630W        W46230  41.258  26.888   2.887
75631W        W46231   6.281  21.938  11.286
75632W        W46232  35.751  17.135   1.261
75633W        W46233   3.286  32.579   4.150
75634W        W46234  37.318   9.786   1.599
75635W        W46235  26.228   9.108  13.979
75636W        W46236   2.292  17.544   2.814
75637W        W46237  15.826  36.986  10.811
75638W        W46238   5.390  37.952  14.284
75639W        W46239  27.112  44.833   4.474
75640W        W46240  38.059  25.998   3.281
75641W        W46241  38.406  18.679  12.195
75642W        W46242  23.404   6.896   1.288
75643W        W46243  35.916  33.516   2.147
75644W        W46244  28.107   3.591   0.413
75645W        W46245  15.054  33.329  10.647
75646W        W46246  29.059  10.871   4.188
75647W        W46247  25.347  23.412   2.378
75648W        W46248  40.865  11.671  12.803
75649W        W46249  26.608  37.180   4.821
75650W        W46250  29.165  10.259  11.994
75651W        W46251   4.390  27.028  10.363
75652W        W46252  19.961   3.206   0.966
75653W        W46253   8.435  12.183   4.455
75654W        W46254  21.890  11.563  12.593
75655W        W46255  27.213  35.084   1.086
75656W        W46256  12.908  15.021   0.385
75657W        W46257   5.891  32.166   2.311
75658W        W46258  27.907  28.078  12.499
75659W        W46259  16.586  35.561  11.638
75660W        W46260   2.412  12.284   2.600
75661W        W46261   2.090  19.178   0.798
75662W        W46262  40.719  28.112   5.011
75663W        W46263  39.787  34.039  10.796
75664W        W46264   6.941  19.577  13.957
75665W        W46265  38.954  21.218   3.572
75666W        W46266  25.230  24.407   4.195
75667W        W46267  16.828   6.189   4.565
75668W        W46268  25.566   0.887   1.718
75669W        W46269  28.893  14.148   2.086
75670W        W46270  17.049  14.814   3.175
75671W        W46271  11.054  39.458  13.953
75672W        W46272  15.353  35.864  13.444
75673W        W46273  42.727  33.929   3.559
75674W        W46274  28.598  29.672  14.306
75675W        W46275  16.638   8.708  11.323
75676W        W46276  11.572  20.759   1.438
75677W        W46277   6.393  33.810  14.008
75678W        W46278  13.718  43.268  13.921
75679W        W46279  29.914  38.895   1.187
75680W        W46280  34.563  15.729   0.472
75681W        W46281  22.524  12.269   0.924
75682W        W46282   8.193  35.398   0.750
75683W        W46283  11.261  41.865  14.516
75684W        W46284  22.607  29.993   3.269
75685W        W46285   3.679  24.736   2.263
75686W        W46286  21.155  30.897   4.100
75687W        W46287  43.010  34.847  12.037
75688W        W46288  24.413  38.979  12.429
75689W        W46289  42.514  24.251   3.140
75690W        W46290   7.339  41.456  12.114
75691W        W46291  16.777  12.354  14.758
75692W        W46292  12.932  35.933  11.400
75693W        W46293  28.308   5.359   3.157
75694W        W46294  26.156  21.748   0.339
75695W        W46295  34.949  41.272   0.784
75696W        W46296  27.045  24.561   4.603
75697W        W46297   6.402  32.624   4.303
75698W        W46298  38.657  21.275  14.435
75699W        W46299  24.356  21.090   0.841
75700W        W46300  13.775  18.502  11.254
75701W        W46301  34.460  39.132   4.669
75702W        W46302  22.274   8.408  11.072
75703W        W46303  44.058  15.365  14.355
75704W        W46304  35.902  41.637  11.608
75705W        W46305  39.807  31.642  11.646
75706W        W46306  32.173  22.154  11.146
75707W        W46307  23.700   6.360   0.356
75708W        W46308  32.902   1.951  11.564
75709W        W46309  37.376  41.617  12.848
75710W        W46310   6.161  27.311  11.059
75711W        W46311  10.881  21.322  11.563
75712W        W46312  20.642   8.726  14.745
75713W        W46313  32.496  25.567  11.590
75714W        W46314  17.818  25.138   0.511
75715W        W46315  23.346   2.386   4.997
75716W        W46316  15.087  27.711   1.437
75717W        W46317   3.834   5.755  12.358
75718W        W46318  40.817  15.286  11.704
75719W        W46319  16.384  20.550  13.523
75720W        W46320  13.598   2.319  13.475
75721W        W46321  39.121  35.561   2.172
75722W        W46322   2.434  36.191  12.005
75723W        W46323  11.853  35.781  14.029
75724W        W46324  38.619  12.355   1.498
75725W        W46325  32.219  38.795  14.957
75726W        W46326  35.358  36.878   4.202
75727W        W46327  21.648  20.009   2.139
75728W        W46328  14.566  14.582  12.924
75729W        W46329   2.053   5.116   2.676
75730W        W46330  25.554   4.684  10.734
75731W        W46331  22.355  34.137  13.846
75732W        W46332   0.340  12.642   1.760
75733W        W46333  13.124  41.930  12.297
75734W        W46334   3.649  21.216   4.673
75735W        W46335  42.274  26.450   0.830
75736W        W46336   8.865  18.299  13.020
75737W        W46337  19.797  42.618  11.176
75738W        W46338  39.550  44.564  11.988
75739W        W46339  17.215  42.169   2.729
75740W        W46340  41.596   6.753   2.773
75741W        W46341  22.473  16.866   2.171
75742W        W46342  18.571  22.380   3.359
75743W        W46343  24.640  33.452   3.849
75744W        W46344  16.241  21.229   1.634
75745W        W46345  14.914  21.432  12.925
75746W        W46346   0.530  41.507  13.538
75747W        W46347  16.090  33.370   2.743
75748W        W46348   8.360  35.650   3.651
75749W        W46349   2.986  41.856   2.919
75750W        W46350  27.681  42.867   1.464
75751W        W46351  36.984  12.266   4.572
75752W        W46352  31.849  14.308  12.448
75753W        W46353   3.645  42.937  11.122
75754W        W46354  28.199  14.868  14.774
75755W        W46355  22.131  11.104  13.873
75756W        W46356  22.217   9.214  10.336
75757W        W46357  39.352  22.010  10.600
75758W        W46358  13.161  28.128  11.645
75759W        W46359  24.906  35.505   4.219
75760W        W46360  38.351   5.074   2.307
75761W        W46361  11.430  44.302  12.591
75762W        W46362  43.336  16.989  13.438
75763W        W46363  22.088  40.301   0.365
75764W        W46364  29.260  29.892   0.683
75765W        W46365  38.939  23.552  12.524
75766W        W46366  18.348  13.772   0.979
75767W        W46367   0.931  27.245   3.403
75768W        W46368  16.076  22.398   1.840
75769W        W46369  12.767  38.518  14.182
75770W        W46370  26.553  31.885   4.940
75771W        W46371  18.119  25.450  12.358
75772W        W46372   2.836  42.741   3.518
75773W        W46373  33.497  14.609  11.980
75774W        W46374  29.525  16.838  12.603
75775W        W46375  21.746   0.209  14.799
75776W        W46376   8.766   6.225  14.478
75777W        W46377  31.467  32.377  13.470
75778W        W46378  37.597  32.023   4.052
75779W        W46379  37.333   2.320  11.359
75780W        W46380   3.285   7.666   2.308
75781W        W46381  14.096  26.558   2.309
75782W        W46382   0.033  31.980  11.151
75783W        W46383   6.959  35.364  12.878
75784W        W46384  42.419   7.745   3.071
75785W        W46385   7.806  15.690  13.599
75786W        W46386  36.571  35.901   0.805
75787W        W46387  18.110  17.575  14.676
75788W        W46388  35.467  36.209  14.795
75789W        W46389  25.052  37.994   4.644
75790W        W46390  36.139  14.602   2.729
75791W        W46391  18.246  16.755  12.767
75792W        W46392  43.973  15.232  12.552
75793W        W46393  35.657  28.798   4.085
75794W        W46394  30.565   2.708   5.109
75795W        W46395   8.187  39.289  14.738
75796W        W46396  21.769  15.544  11.996
75797W        W46397   1.811  22.020   4.466
75798W        W46398  17.018  38.029  11.637
75799W        W46399  31.578  34.162  13.886
75800W        W46400  34.890  22.697   2.618
75801W        W46401  11.752  32.615   4.695
75802W        W46402   8.970  44.507  12.534
75803W        W46403  35.891  34.567   2.290
75804W        W46404  10.123  21.185  12.704
75805W        W46405  11.193  32.556  13.433
75806W        W46406  28.681  15.655  13.014
75807W        W46407  43.197  21.588  14.417
75808W        W46408  35.932   8.885  13.425
75809W        W46409  12.962  25.157  11.073
75810W        W46410  10.368  22.751   2.770
75811W        W46411  29.057   7.482  11.261
75812W        W46412  34.848  15.236  14.650
75813W        W46413   4.102  27.936  12.440
75814W        W46414  39.042   7.181   2.411
75815W        W46415  29.752   4.913  11.263
75816W        W46416  29.591  39.353  11.784
75817W        W46417  26.254  25.121  13.446
75818W        W46418   0.979  42.479  13.941
75819W        W46419  15.944  29.714   3.220
75820W        W46420   9.226  14.749   4.103
75821W        W46421  23.769  35.109   4.292
75822W        W46422  19.074  40.475  10.674
75823W        W46423   5.167  39.582  11.991
75824W        W46424  31.666  11.619  11.708
75825W        W46425   2.446  23.787  13.890
75826W        W46426   1.495  13.152   2.611
75827W        W46427  15.442  37.457   3.313
75828W        W46428  36.954   6.224  10.520
75829W        W46429  29.024  31.140  11.658
75830W        W46430   8.888   0.295  12.146
75831W        W46431  40.219   3.359   0.798
75832W        W46432  34.455  41.584   4.936
75833W        W46433   5.322  24.530   2.254
75834W        W46434  27.921  40.071  13.383
75835W        W46435  39.595  43.064   1.253
75836W        W46436  15.115   6.926  14.800
75837W        W46437  19.452   4.733  11.731
75838W        W46438   1.203  24.286   1.642
75839W        W46439  37.606   5.898  10.635
75840W        W46440  36.808  33.605   3.154
75841W        W46441  40.673  25.439   0.930
75842W        W46442  28.681  35.905  13.515
75843W        W46443  39.593  28.364   2.257
75844W        W46444  17.331  16.907  12.201
75845W        W46445  24.145  21.018   0.361
75846W        W46446  25.648  24.921   3.128
75847W        W46447  31.340  10.979   0.542
75848W        W46448  37.206  18.267   3.079
75849W        W46449  15.073  15.315  13.486
75850W        W46450  14.833  25.173  13.799
75851W        W46451   0.746   7.380  13.109
75852W        W46452  31.676  23.045  14.550
75853W        W46453  42.563   5.381  14.802
75854W        W46454  18.705  20.808  13.912
75855W        W46455   6.273  42.197   3.986
75856W        W46456  29.008  25.155  13.127
75857W        W46457  33.386  32.045  14.765
75858W        W46458  17.641   0.725   2.161
75859W        W46459  41.232  36.853   2.849
75860W        W46460  10.614  16.610  13.907
75861W        W46461   2.950  44.867  13.415
75862W        W46462  37.029  24.752   3.604
75863W        W46463  24.446  39.172  12.923
75864W        W46464  22.073  19.855   1.855
75865W        W46465  36.921   3.523   0.239
75866W        W46466  13.710  44.783  12.122
75867W        W46467   5.387   0.853  10.418
75868W        W46468  23.083   2.432  14.317
75869W        W46469  14.617  15.655   2.742
75870W        W46470   1.648   6.293   4.599
75871W        W46471  30.759  27.642   1.315
75872W        W46472  32.371  44.949   0.693
75873W        W46473  24.941   4.184   1.857
75874W        W46474   2.385  32.004   0.706
75875W        W46475   2.277  28.332   0.227
75876W        W46476  29.387   5.467  12.539
75877W        W46477   1.956  17.624  11.994
75878W        W46478   1.723  18.579   0.193
75879W        W46479  16.208  22.446   2.694
75880W        W46480  25.638  35.805  11.132
75881W        W46481  13.888  23.632   3.788
75882W        W46482  39.802  44.954  12.766
75883W        W46483  12.139  40.972   2.103
75884W        W46484  33.870  21.040   1.367
75885W        W46485   9.289  40.260   3.317
75886W        W46486  31.342   8.929  13.914
75887W        W46487  30.414   4.215  13.453
75888W        W46488   9.006  17.049  10.667
75889W        W46489   8.741   3.825   0.998
75890W        W46490  29.033  28.659  10.503
75891W        W46491  43.976  15.214  13.451
75892W        W46492  19.253  14.034  10.841
75893W        W46493  24.184  27.517   2.283
75894W        W46494  12.548  13.373  10.213
75895W        W46495  17.414  12.785   2.643
75896W        W46496  26.157  22.422   4.370
75897W        W46497  25.692   7.808   0.352
75898W        W46498  44.619  30.238  12.029
75899W        W46499  38.925  30.169   0.710
75900W        W46500  41.155  22.151   0.240
75901W        W46501  33.700  42.988  12.776
75902W        W46502   0.466  30.396   1.782
75903W        W46503  19.636  41.823   3.586
75904W        W46504  10.772  17.117  11.519
75905W        W46505   2.799   4.847   2.293
75906W        W46506  22.522  16.864   4.503
75907W        W46507   0.949  17.993   0.431
75908W        W46508  40.050   6.183   0.412
75909W        W46509  13.962  27.037   4.595
75910W        W46510  11.937   5.429   2.347
75911W        W46511  25.097  17.875   1.327
75912W        W46512  28.646  23.496  12.528
75913W        W46513  34.852   3.009   0.784
75914W        W46514  16.027  23.198  14.691
75915W        W46515  34.976  24.353   1.058
75916W        W46516  16.354  25.640   1.415
75917W        W46517   5.157   0.595   2.232
75918W        W46518   1.745  24.982  13.822
75919W        W46519  37.849   1.942   0.236
75920W        W46520  20.585  13.446   1.145
75921W        W46521  19.388  20.688  12.497
75922W        W46522   4.693  19.731  13.049
75923W        W46523  12.840   5.055  13.544
75924W        W46524  10.805  24.905   0.579
75925W        W46525  26.090  27.531   2.802
75926W        W46526  40.228  15.562   0.699
75927W        W46527  25.184  15.622  10.624
75928W        W46528  42.949  43.843   3.218
75929W        W46529  17.004  10.427   1.655
75930W        W46530   1.533  28.624  11.029
75931W        W46531  39.323  43.239  12.520
75932W        W46532  12.828  38.687   3.592
75933W        W46533  33.314   6.703  12.531
75934W        W46534  40.894  25.654  11.137
75935W        W46535  28.247  36.879   2.176
75936W        W46536   2.142  21.173  11.008
75937W        W46537  10.726  19.187   1.951
75938W        W46538  17.840  26.588   1.857
75939W        W46539   9.396  14.645  14.475
75940W        W46540  10.278  33.043  13.919
75941W        W46541  18.663   3.519  12.530
75942W        W46542  30.617   4.788   3.509
75943W        W46543   5.079  40.561   0.678
75944W        W46544  21.239  44.105   1.794
75945W        W46545   4.228  27.590  10.559
75946W        W46546  30.897  35.767   2.676
75947W        W46547  23.351  17.559   4.762
75948W        W46548  36.848  36.268   3.280
75949W        W46549  39.841  32.025   4.492
75950W        W46550  37.560  39.450  12.299
75951W        W46551   3.693  31.356   1.731
75952W        W46552   9.730  40.902   0.445
75953W        W46553  16.228  24.912   3.987
75954W        W46554  19.297   9.904   1.036
75955W        W46555  20.698  14.301  12.934
75956W        W46556  31.824  22.179   2.649
75957W        W46557  11.654  21.145   4.607
75958W        W46558  15.699  32.960  11.116
75959W        W46559  36.357   9.378   1.789
75960W        W46560  44.096  35.455   1.874
75961W        W46561   1.473  33.871  14.859
75962W        W46562  13.311  12.404  11.511
75963W        W46563  24.107   1.249   3.264
75964W        W46564   7.833  38.123  11.139
75965W        W46565  13.578  36.378   3.360
75966W        W46566  17.355   5.777   0.343
75967W        W46567  16.546  31.058  10.670
75968W        W46568  41.318  34.700  10.787
75969W        W46569  27.995  24.909  10.283
75970W        W46570  14.326  44.708   3.300
75971W        W46571  42.311  25.847  11.906
75972W        W46572  37.953  14.511  13.033
75973W        W46573  35.328  38.456   3.779
75974W        W46574  23.758  24.222  14.589
75975W        W46575  26.969  18.282  13.481
75976W        W46576  23.721  39.130  11.990
75977W        W46577  19.527  21.274  10.964
75978W        W46578  30.099  34.357   4.331
75979W        W46579  16.967  15.290  12.380
75980W        W46580  11.788  27.035   0.872
75981W        W46581  26.067  32.020   2.921
75982W        W46582   7.227  22.909   0.487
75983W        W46583  38.144  41.722  13.852
75984W        W46584  37.375  30.960  10.892
75985W        W46585  24.177  22.480   4.176
75986W        W46586  13.691  30.337   2.946
75987W        W46587  22.246   1.978  12.876
75988W        W46588  10.753  23.173  13.869
75989W        W46589   3.259  40.835  14.450
75990W        W46590  16.176  36.367   3.117
75991W        W46591  17.232  41.533  12.922
75992W        W46592  15.304   8.934  11.086
75993W        W46593  20.166   4.375   1.679
75994W        W46594  21.118  18.604   2.387
75995W        W46595  19.951   4.384   2.701
75996W        W46596  19.859  22.543  11.123
75997W        W46597  16.739   4.161  12.948
75998W        W46598  41.329   3.768  10.882
75999W        W46599  43.711  34.014  13.947
76000W        W46600  42.292   3.338   2.387
76001W        W46601  37.030  43.199   3.211
76002W        W46602  40.556  24.714   3.876
76003W        W46603  17.253   7.908  13.349
76004W        W46604  34.503   5.469  11.276
76005W        W46605  37.884   1.556   3.477
76006W        W46606  31.795  21.593  12.376
76007W        W46607  39.614  31.623   1.441
76008W        W46608  35.088  15.920  10.357
76009W        W46609  12.110   6.109  11.154
76010W        W46610  17.567  26.642   1.371
76011W        W46611  24.664  15.389  11.474
76012W        W46612  36.471  42.708   0.239
76013W        W46613  27.796  43.785   1.090
76014W        W46614  44.112   8.247  10.709
76015W        W46615   2.850   8.715  11.155
76016W        W46616  11.613   5.924  11.277
76017W        W46617  14.185  30.666   0.356
76018W        W46618  35.887  10.979   1.922
76019W        W46619  33.571   7.571  14.938
76020W        W46620  14.703   6.627  11.507
76021W        W46621  23.226  26.240   2.797
76022W        W46622  43.440  25.687  14.546
76023W        W46623  17.801  43.468  12.326
76024W        W46624  22.107  11.151  14.985
76025W        W46625  11.444  10.173  13.818
76026W        W46626   5.559  34.898   4.986
76027W        W46627  38.787  28.375   3.856
76028W        W46628  25.094  23.631  11.045
76029W        W46629  18.043   0.898   2.519
76030W        W46630  37.948  27.068   4.826
76031W        W46631  31.085  42.412   4.102
76032W        W46632  12.284  44.366  14.504
76033W        W46633   3.065  10.202  13.521
76034W        W46634  18.582  44.819   4.566
76035W        W46635  27.184  11.414  12.157
76036W        W46636  24.468   1.610   1.888
76037W        W46637   4.889  17.804  14.420
76038W        W46638  34.644  33.831   2.684
76039W        W46639   8.195  10.184  14.594
76040W        W46640  19.593  22.153   0.273
76041W        W46641  35.250  26.390   3.685
76042W        W46642  25.786  28.922  14.488
76043W        W46643   1.288  17.012   0.347
76044W        W46644  44.517  33.482  14.312
76045W        W46645  31.445  43.170   3.246
76046W        W46646  37.358  37.906   4.564
76047W        W46647  23.157   5.005  11.997
76048W        W46648  27.027  14.318   3.873
76049W        W46649  24.424  30.551  14.091
76050W        W46650  37.006  13.378  12.784
76051W        W46651  16.579  19.975   3.952
76052W        W46652   4.291  41.349  11.848
76053W        W46653  37.482  24.772   3.319
76054W        W46654  34.388  16.921  11.542
76055W        W46655  25.159  17.294  12.500
76056W        W46656  31.826  43.167  10.658
76057W        W46657  27.596   7.467  11.631
76058W        W46658   2.304  42.301  14.238
76059W        W46659  32.239  24.119   0.785
76060W        W46660  12.767  22.056  14.610
76061W        W46661  16.394  27.147  12.138
76062W        W46662  27.520  27.357   3.695
76063W        W46663  32.354  29.716   1.422
76064W        W46664  29.068  12.225   3.586
76065W        W46665   8.633  19.322  11.239
76066W        W46666   8.861  27.594   1.167
76067W        W46667  11.350  37.448  13.114
76068W        W46668  19.056  21.136   4.841
76069W        W46669  26.130  28.976  11.607
76070W        W46670   9.355  28.472   4.446
76071W        W46671   2.061  35.274   0.481
76072W        W46672  21.030  28.018  12.568
76073W        W46673  40.399  11.811  14.054
76074W        W46674  23.039   8.629   0.057
76075W        W46675   9.530   6.660  14.435
76076W        W46676   1.878   7.383   2.360
76077W        W46677   4.390  11.508   4.037
76078W        W46678  12.189  33.604  13.056
76079W        W46679  16.595  18.731  11.008
76080W        W46680  34.003  28.138  13.410
76081W        W46681  31.050  11.033   2.789
76082W        W46682  34.610  34.526  14.066
76083W        W46683  40.033  10.333  10.507
76084W        W46684  27.267   4.597   3.683
76085W        W46685  29.659  42.439   0.458
76086W        W46686  18.522  17.206  12.056
76087W        W46687   8.409  41.567   0.410
76088W        W46688  41.985  22.631  12.165
76089W        W46689  43.479  15.698   4.126
76090W        W46690   3.750  34.627  12.063
76091W        W46691   1.763  27.212  10.742
76092W        W46692  40.340  38.457  14.839
76093W        W46693   0.393  39.407   3.433
76094W        W46694   3.422  24.983  12.661
76095W        W46695  37.028  37.934  11.617
76096W        W46696  24.147  12.205   4.574
76097W        W46697  44.729  33.120  13.874
76098W        W46698  42.880   4.216  14.960
76099W        W46699   1.712  40.239  10.629
76100W        W46700  32.981  37.012   2.160
76101W        W46701  36.905  29.597  12.542
76102W        W46702  37.814   8.907  10.515
76103W        W46703  42.528  25.440  13.828
76104W        W46704  10.029  29.620  14.207
76105W        W46705   4.854  38.334  11.262
76106W        W46706  42.454  18.126   4.395
76107W        W46707  10.150   0.341  14.237
76108W        W46708  26.579  29.819  14.850
76109W        W46709  29.085   8.128   0.511
76110W        W46710   4.475   2.110   4.168
76111W        W46711  11.456   2.436  12.569
76112W        W46712  38.410  18.976  11.129
76113W        W46713  35.380  16.737   4.136
76114W        W46714  41.732   3.121  12.017
76115W        W46715   4.586  44.730   3.684
76116W        W46716  11.880  19.277  14.918
76117W        W46717  20.258  10.332  14.501
76118W        W46718  18.396  38.522  11.341
76119W        W46719  25.278  23.648   3.695
76120W        W46720  26.032  31.358  14.864
76121W        W46721  36.584   7.796   3.381
76122W        W46722   3.819  31.823   0.369
76123W        W46723   7.781  17.083  12.674
76124W        W46724  35.314  29.676   5.208
76125W        W46725   1.715  28.704   2.918
76126W        W46726  10.103  12.814   4.267
76127W        W46727  14.891  36.104   2.201
76128W        W46728  15.305   8.576   0.967
76129W        W46729  22.632  44.141   2.391
76130W        W46730  42.093  14.225  12.520
76131W        W46731  31.335   8.684   2.750
76132W        W46732  25.376  28.104  11.417
76133W        W46733   9.762   5.903  12.978
76134W        W46734  44.272   4.363   2.993
76135W        W46735  44.950  15.278   3.647
76136W        W46736   4.977  18.095   2.607
76137W        W46737   7.178  43.812  11.625
76138W        W46738   5.166  39.454  13.053
76139W        W46739  42.573  32.457  13.046
76140W        W46740  13.292  20.929   2.698
76141W        W46741  43.186  39.105   2.817
76142W        W46742  13.436   1.197   5.085
76143W        W46743  12.301  29.225  10.661
76144W        W46744  19.780  43.574  13.968
76145W        W46745  19.323  38.497  11.350
76146W        W46746   1.160  14.234  13.971
76147W        W46747   1.883   3.782   2.474
76148W        W46748  35.394  42.735  13.478
76149W        W46749  26.642  10.471  14.794
76150W        W46750  32.328  21.188  11.690
76151W        W46751  26.425  22.041   0.672
76152W        W46752   7.317   0.797  13.771
76153W        W46753   6.797   8.601   0.361
76154W        W46754  43.111  16.737   2.778
76155W        W46755  29.310  39.411   1.782
76156W        W46756  17.852   7.996  12.566
76157W        W46757  17.054  12.699   0.269
76158W        W46758   4.061  13.560  11.128
76159W        W46759  15.336  43.951   3.624
76160W        W46760  27.455  29.522  12.827
76161W        W46761  28.514  36.044  14.473
76162W        W46762  29.036   0.401   1.712
76163W        W46763   0.735  14.107  12.935
76164W        W46764  39.069   2.451  13.907
76165W        W46765  39.862   3.285   4.782
76166W        W46766  36.998  15.200  12.414
76167W        W46767  42.052   5.166   1.368
76168W        W46768   4.537  42.373   4.054
76169W        W46769  38.330  18.761  11.641
76170W        W46770  22.173  20.741  14.932
76171W        W46771  13.605  16.939  12.467
76172W        W46772  35.960  18.920  14.836
76173W        W46773   9.342  18.533   2.854
76174W        W46774  39.316  13.733   3.716
76175W        W46775  34.845   2.154   0.918
76176W        W46776  14.707  40.017   5.472
76177W        W46777  11.487  11.195   0.750
76178W        W46778   0.885   8.148   3.501
76179W        W46779  31.607  26.276   1.235
76180W        W46780  15.542  27.586   1.675
76181W        W46781  14.721  18.347  10.417
76182W        W46782  33.132   9.400  12.014
76183W        W46783  29.743   2.385   2.900
76184W        W46784  18.632  22.644  14.451
76185W        W46785  12.730   0.433  14.242
76186W        W46786  28.322  36.548  11.471
76187W        W46787  20.034  42.919  10.842
76188W        W46788  43.060  40.754  10.496
76189W        W46789   0.874  10.202   4.161
76190W        W46790  31.598  19.136  11.235
76191W        W46791  27.492  44.293   1.830
76192W        W46792  36.918  15.102  10.920
76193W        W46793   7.182  25.333  11.998
76194W        W46794  11.205  20.673   1.794
76195W        W46795  37.428   0.630   0.086
76196W        W46796  43.929  39.968  14.755
76197W        W46797  40.006  15.058  11.491
76198W        W46798   6.185  27.020   0.542
76199W        W46799  15.292  22.987   4.549
76200W        W46800  14.614   7.313   1.849
76201W        W46801  28.483  17.757   0.120
76202W        W46802  39.542  25.192  14.872
76203W        W46803  33.478   4.729  12.493
76204W        W46804  40.711  24.564   3.299
76205W        W46805  17.694   5.072  14.035
76206W        W46806   8.965  25.249  14.940
76207W        W46807   2.860  18.163   0.164
76208W        W46808  25.563  34.592  14.953
76209W        W46809  21.178   9.629   2.685
76210W        W46810  33.652  35.938   2.709
76211W        W46811  22.315  17.092   2.716
76212W        W46812  17.214  31.459   1.001
76213W        W46813  41.265   6.745  10.061
76214W        W46814  28.758   7.935   2.093
76215W        W46815  39.767  43.310   3.812
76216W        W46816  19.219   4.026  11.266
76217W        W46817  21.254  23.250   3.609
76218W        W46818  35.337  18.293  12.516
76219W        W46819   6.428  20.834  11.625
76220W        W46820  19.274  44.208   2.239
76221W        W46821  33.447  12.391  12.556
76222W        W46822   4.481  27.053   3.780
76223W        W46823   4.228  14.736  14.534
76224W        W46824   2.906  33.053  12.849
76225W        W46825  32.572   7.607  14.199
76226W        W46826  44.864  44.581  11.807
76227W        W46827  31.355  43.713  10.246
76228W        W46828  32.401   6.272  13.918
76229W        W46829  40.844  10.787   2.233
76230W        W46830   8.843   8.098   3.223
76231W        W46831   9.140   8.460   3.529
76232W        W46832  15.686  18.542  12.721
76233W        W46833   4.514  31.079  13.504
76234W        W46834  27.450  39.925   1.390
76235W        W46835  24.528  38.834   3.740
76236W        W46836  18.684  25.010   0.759
76237W        W46837  10.638   2.139   2.186
76238W        W46838  12.606  25.668  14.347
76239W        W46839  41.052  30.173   0.282
76240W        W46840  16.857   1.844  14.374
76241W        W46841  25.454  30.491  10.725
76242W        W46842   4.920   2.278   3.366
76243W        W46843  35.093  12.113  13.077
76244W        W46844  15.909  37.320   1.847
76245W        W46845  24.053   5.761   4.302
76246W        W46846  38.438   2.766  12.796
76247W        W46847  32.620  25.063  14.718
76248W        W46848  21.334  42.847  14.822
76249W        W46849  34.424   6.713   0.502
76250W        W46850  34.643   5.172  14.396
76251W        W46851   1.274  17.277   4.356
76252W        W46852   7.259  27.675  12.628
76253W        W46853  21.229  19.282   1.106
76254W        W46854  34.894   4.732  12.395
76255W        W46855  32.454   0.360  13.265
76256W        W46856  29.387  25.421   4.638
76257W        W46857  34.692  28.285  14.201
76258W        W46858  38.088  36.074  14.961
76259W        W46859  39.400  21.690  12.992
76260W        W46860  34.687  25.745   0.692
76261W        W46861  14.091  28.467  12.426
76262W        W46862   4.805  12.349  14.889
76263W        W46863  35.091  33.028  14.075
76264W        W46864   4.267  39.042   3.648
76265W        W46865   0.865  35.641   2.804
76266W        W46866  44.166  27.547   0.980
76267W        W46867  34.339   0.375  11.608
76268W        W46868  14.016  23.695   2.781
76269W        W46869   9.797  43.971  11.669
76270W        W46870  26.049  26.696   2.259
76271W        W46871  12.113  15.655  12.642
76272W        W46872   2.587  39.877   3.729
76273W        W46873  14.726  17.476   1.866
76274W        W46874  11.133  21.703  13.425
76275W        W46875  10.276  29.598   2.726
76276W        W46876  33.803  37.039  10.911
76277W        W46877   5.781  30.646  13.904
76278W        W46878  44.340  32.024   1.439
76279W        W46879  44.789  31.102  14.701
76280W        W46880  17.561  11.703  14.302
76281W        W46881   7.154  35.989   0.498
76282W        W46882  27.119  35.836   4.831
76283W        W46883  31.826  36.395  11.600
76284W        W46884  22.919  36.614  13.702
76285W        W46885  40.414  30.697   2.723
76286W        W46886  24.472  28.648  12.299
76287W        W46887  29.939  12.703   0.257
76288W        W46888  27.053  38.016  13.641
76289W        W46889  23.855  34.941   0.946
76290W        W46890  42.284   4.470  13.822
76291W        W46891   5.082  29.695  11.086
76292W        W46892  18.236  33.636   3.520
76293W        W46893  10.308   7.861   4.547
76294W        W46894  18.243  35.973  14.223
76295W        W46895  38.330  16.611   0.408
76296W        W46896  37.717  22.200   4.269
76297W        W46897   7.327   1.288  13.890
76298W        W46898  30.499  41.460   1.658
76299W        W46899   9.743   9.267  10.772
76300W        W46900  24.450  15.687  14.809
76301W        W46901  14.840  11.782  10.420
76302W        W46902  28.195  41.657  13.236
76303W        W46903  37.582  32.360  14.427
76304W        W46904  26.665  20.149  13.893
76305W        W46905  39.549  26.994  14.884
76306W        W46906  31.894  28.235   3.976
76307W        W46907  13.316  12.284   4.067
76308W        W46908  20.716   4.860  13.774
76309W        W46909   7.396  13.989  13.887
76310W        W46910  17.568  42.911   3.097
76311W        W46911  26.512  28.168  12.532
76312W        W46912  31.261  13.650  12.791
76313W        W46913  44.195  29.961  11.156
76314W        W46914   7.866   0.670  11.487
76315W        W46915   3.525  13.700  12.569
76316W        W46916  10.849  22.801   1.482
76317W        W46917   1.420   7.283   3.776
76318W        W46918  17.362  38.432  14.279
76319W        W46919  24.593  28.090   4.245
76320W        W46920  42.517  40.589   4.089
76321W        W46921  16.651  44.236  14.249
76322W        W46922  13.803  28.530   4.768
76323W        W46923  26.702  39.234   0.551
76324W        W46924  40.745  15.558   0.292
76325W        W46925  11.933  42.368   2.363
76326W        W46926   4.893  35.143   2.784
76327W        W46927  18.029  29.762  13.984
76328W        W46928  25.986  16.850  13.971
76329W        W46929   7.460  22.014  14.877
76330W        W46930   6.194  28.861  12.060
76331W        W46931  32.323  39.306   5.081
76332W        W46932  16.055   2.855   4.970
76333W        W46933  25.959  26.983   2.697
76334W        W46934   4.467  24.753  10.743
76335W        W46935  41.249  16.440  11.240
76336W        W46936  11.812  21.222   1.412
76337W        W46937  12.115  11.191  13.056
76338W        W46938  36.997  13.358   4.740
76339W        W46939  36.358  32.766   2.336
76340W        W46940  28.567  24.688  13.883
76341W        W46941   3.909  16.778   1.042
76342W        W46942  38.076  39.336  14.458
76343W        W46943   2.242  32.599   3.569
76344W        W46944  19.976  17.560   4.390
76345W        W46945  26.735  20.492   2.141
76346W        W46946  42.399  23.289  10.261
76347W        W46947   2.352  18.022   1.271
76348W        W46948   5.377  37.939   4.460
76349W        W46949  18.699  13.536   0.023
76350W        W46950  20.637   5.835   0.022
76351W        W46951   2.257  21.254   9.812
76352W        W46952  23.258  38.511  11.263
76353W        W46953  33.492  11.151  11.857
76354W        W46954  10.935  18.644   2.720
76355W        W46955  16.336  18.728  12.609
76356W        W46956   6.190   3.421   0.289
76357W        W46957   5.932  41.331  13.883
76358W        W46958   1.766  13.836  11.221
76359W        W46959  44.033  20.546   4.097
76360W        W46960  22.979  29.076   4.355
76361W        W46961  23.671  32.272   3.342
76362W        W46962  29.774   3.777  11.744
76363W        W46963  41.576   6.643   0.293
76364W        W46964  37.991  35.589   3.170
76365W        W46965   0.677  39.334   0.998
76366W        W46966  43.971  26.970   3.851
76367W        W46967  34.908   7.280  14.006
76368W        W46968   3.231  32.712  13.098
76369W        W46969  20.833  15.134  13.393
76370W        W46970  44.850   9.543  10.799
76371W        W46971   4.926  24.214   2.158
76372W        W46972  14.826   3.020   1.856
76373W        W46973  21.509  32.971   4.932
76374W        W46974   6.943   2.671   3.221
76375W        W46975  33.189  34.201  13.402
76376W        W46976  38.798  30.700  13.524
76377W        W46977  28.192  33.951  10.525
76378W        W46978  18.986  39.040   2.205
76379W        W46979  44.342  22.001   1.015
76380W        W46980  33.586  35.520   4.273
76381W        W46981   5.371  21.326  13.972
76382W        W46982  16.205  41.593  13.879
76383W        W46983   9.781  36.855  13.548
76384W        W46984   3.996  31.341   0.337
76385W        W46985  36.490  32.108   1.880
76386W        W46986  44.272  26.039  11.643
76387W        W46987  36.892  21.732  12.951
76388W        W46988  41.356  43.358  10.774
76389W        W46989  38.796  40.794  13.124
76390W        W46990  14.049  36.579   0.858
76391W        W46991  31.105   9.912   3.678
76392W        W46992  31.655  23.577   2.757
76393W        W46993  35.369  28.100   0.257
76394W        W46994  34.053  31.521   2.219
76395W        W46995  12.732  39.838   1.243
76396W        W46996  41.947  25.680  14.868
76397W        W46997  35.443  16.326   1.925
76398W        W46998  22.180  15.751   0.278
76399W        W46999  31.392  33.876  12.662
76400W        W47000  18.675  12.707   4.663
76401W        W47001  22.824  28.687   3.575
76402W        W47002  38.514  33.144  11.154
76403W        W47003  34.093  35.511   0.838
76404W        W47004  42.794  29.969   1.987
76405W        W47005  23.725   1.855   3.848
76406W        W47006  22.002  35.393   0.685
76407W        W47007  39.456  11.607  11.951
76408W        W47008  20.596  15.835  10.727
76409W        W47009  16.277  29.482  13.883
76410W        W47010  40.529  18.579   0.218
76411W        W47011  41.062  40.287  10.706
76412W        W47012  15.719   0.578   3.349
76413W        W47013   1.739  38.710  12.327
76414W        W47014   6.333  21.690   2.875
76415W        W47015  22.170  38.729   0.288
76416W        W47016  37.003  24.957  13.951
76417W        W47017   2.888   8.311  12.994
76418W        W47018  10.336  25.267   1.832
76419W        W47019  29.084  26.975   2.646
76420W        W47020  11.564  12.320  13.836
76421W        W47021  28.011  22.306   4.642
76422W        W47022   3.699  24.344  10.805
76423W        W47023  28.622  32.166  10.865
76424W        W47024  22.465   3.187  14.203
76425W        W47025  43.938  30.953   0.742
76426W        W47026  37.500  39.640   3.692
76427W        W47027  28.708   1.968  11.179
76428W        W47028  30.911  41.409   2.651
76429W        W47029  44.384  24.666  10.618
76430W        W47030  43.322  41.802  12.106
76431W        W47031  25.138  21.066   4.536
76432W        W47032  34.233  32.731   1.804
76433W        W47033  20.215  27.775  12.166
76434W        W47034   0.524  38.821   4.130
76435W        W47035   1.797  21.645  14.197
76436W        W47036  25.377  13.958  11.470
76437W        W47037  35.160  32.929   2.811
76438W        W47038  41.218  15.819   3.550
76439W        W47039  17.537  25.884   2.624
76440W        W47040   0.345  34.132  12.091
76441W        W47041  44.952   3.400  12.335
76442W        W47042  41.505  40.024   1.456
76443W        W47043   6.073  21.914  12.958
76444W        W47044  15.123   3.323   2.671
76445W        W47045  19.254  23.966  11.482
76446W        W47046   4.138  44.417   2.277
76447W        W47047  24.003  15.893   1.351
76448W        W47048   0.779  31.215   3.801
76449W        W47049  23.577  33.108  12.433
76450W        W47050  25.753  17.077  13.409
76451W        W47051  42.537  25.660  14.317
76452W        W47052  26.422  43.437   3.989
76453W        W47053  12.730  20.082  13.902
76454W        W47054  32.229  31.478   1.783
76455W        W47055  26.981  36.015  14.511
76456W        W47056   1.227  28.790  13.940
76457W        W47057  18.576  40.111  11.972
76458W        W47058  40.428   2.814   1.642
76459W        W47059   7.908  43.135  14.824
76460W        W47060   6.833  11.591   3.256
76461W        W47061  36.368  31.457   1.278
76462W        W47062  34.109   6.074   2.748
76463W        W47063  44.877  36.966  14.624
76464W        W47064  32.273   2.946  11.104
76465W        W47065  15.319  31.936   3.833
76466W        W47066   1.367  33.317   2.692
76467W        W47067  42.758  25.970   0.456
76468W        W47068  24.522  28.655  10.697
76469W        W47069  33.525   9.288   1.516
76470W        W47070  17.656  21.961   4.133
76471W        W47071  12.737  19.083   1.884
76472W        W47072  30.926  39.052  12.076
76473W        W47073   9.900  21.166  14.567
76474W        W47074  28.826  41.431  10.739
76475W        W47075   6.567  15.412   3.891
76476W        W47076   8.737  32.345   3.596
76477W        W47077  15.806  27.415  13.419
76478W        W47078   8.389  37.005  13.624
76479W        W47079  14.041  32.188   1.892
76480W        W47080  11.327  32.934   0.659
76481W        W47081  29.756   5.292  12.163
76482W        W47082  38.053  18.265   2.226
76483W        W47083  36.148   4.247   0.866
76484W        W47084  36.003   4.040   2.166
76485W        W47085  29.868  19.607  13.715
76486W        W47086  13.028  13.191   4.938
76487W        W47087   3.254  14.165   4.761
76488W        W47088  17.349  32.493  12.383
76489W        W47089   8.635  44.596   2.664
76490W        W47090   0.300  32.918  10.344
76491W        W47091  31.082   9.374  13.945
76492W        W47092  36.796   9.174  13.477
76493W        W47093  22.973  21.936  13.054
76494W        W47094  37.676  34.537   1.451
76495W        W47095   2.197  23.725  13.000
76496W        W47096  12.191  32.681   0.914
76497W        W47097  11.414  34.766  11.035
76498W        W47098   0.174  13.760   0.351
76499W        W47099  33.635  38.535   3.201
76500W        W47100  10.901  37.547   4.681
76501W        W47101   3.217  10.382  11.134
76502W        W47102  36.105  21.636   2.393
76503W        W47103   6.159   9.455  13.492
76504W        W47104  12.873  20.590   4.277
76505W        W47105  19.788  27.590   3.718
76506W        W47106   6.208  41.139   0.002
76507W        W47107  23.046  36.980  14.579
76508W        W47108   0.773   7.677  12.332
76509W        W47109   8.277   3.508   2.172
76510W        W47110  40.561  15.646   4.950
76511W        W47111  23.104  30.851   4.562
76512W        W47112  24.723  17.774  14.495
76513W        W47113  24.017  44.015  11.901
76514W        W47114  13.879   7.642  13.960
76515W        W47115  39.883  40.258  12.037
76516W        W47116  11.033   4.123   2.735
76517W        W47117  17.029  26.292  12.067
76518W        W47118  40.547  15.027  13.430
76519W        W47119  41.243  36.550  11.613
76520W        W47120  41.752   2.327  13.557
76521W        W47121  41.495  32.880   0.927
76522W        W47122   8.958  38.630   1.901
76523W        W47123  40.726   5.032   1.183
76524W        W47124  19.381  18.690   2.777
76525W        W47125  31.468  39.730   3.232
76526W        W47126  11.100  31.512  14.308
76527W        W47127  32.561   1.032  14.909
76528W        W47128  10.864  21.638   1.885
76529W        W47129  19.013  13.682   0.420
76530W        W47130   3.304   4.990   2.031
76531W        W47131  38.575  20.898   1.779
76532W        W47132   4.253  10.102   1.618
76533W        W47133  18.097   0.756  12.864
76534W        W47134  23.632  11.068  14.536
76535W        W47135  31.583  32.526  12.411
76536W        W47136   8.801   6.192   0.381
76537W        W47137  19.702  28.424  13.848
76538W        W47138  16.138  16.634  12.870
76539W        W47139   5.492  41.772  12.133
76540W        W47140   1.024  30.656   1.712
76541W        W47141  14.538  15.558  13.091
76542W        W47142  29.468  19.628  11.741
76543W        W47143   0.776  11.358  11.570
76544W        W47144   8.303  33.122   3.730
76545W        W47145  12.624  40.682   4.611
76546W        W47146  25.778   8.593  12.369
76547W        W47147  29.179   7.193  12.937
76548W        W47148  21.009  22.153  13.597
76549W        W47149  42.809   2.000   3.623
76550W        W47150   8.124  41.192   1.317
76551W        W47151  34.324  19.753  14.386
76552W        W47152   5.311  34.651  13.383
76553W        W47153  15.068  44.932  14.310
76554W        W47154  18.765  12.172   3.786
76555W        W47155  42.393  30.570   2.308
76556W        W47156  42.882   5.710  11.466
76557W        W47157  29.578  14.424  13.907
76558W        W47158  39.306  32.740   3.085
76559W        W47159  18.554  20.968   0.236
76560W        W47160  41.875  11.669   3.597
76561W        W47161  10.934  43.225  13.287
76562W        W47162   5.808  14.432  14.593
76563W        W47163   3.749   0.377   2.291
76564W        W47164   5.334  12.799  12.335
76565W        W47165  15.646  30.533  13.809
76566W        W47166  21.133  24.899  11.598
76567W        W47167   1.519   2.181  11.918
76568W        W47168  25.696  11.632   4.094
76569W        W47169   7.816  30.582  13.211
76570W        W47170  31.553  34.928  10.373
76571W        W47171   6.649  41.537   4.601
76572W        W47172  44.473  23.711  11.681
76573W        W47173  22.738  19.549   4.222
76574W        W47174  11.071  10.832   4.582
76575W        W47175   9.213  36.559  12.581
76576W        W47176  11.751  17.553   1.588
76577W        W47177  36.930  37.553  13.063
76578W        W47178   2.119   9.767   1.666
76579W        W47179  17.000  38.822   2.465
76580W        W47180  30.074  33.356  14.962
76581W        W47181  18.015  15.791   4.138
76582W        W47182   8.454   1.428  14.522
76583W        W47183  36.352  17.059  12.978
76584W        W47184  14.617  26.703  14.917
76585W        W47185  16.855  19.301   1.153
76586W        W47186  38.536  24.386   4.563
76587W        W47187  24.811  22.554   2.207
76588W        W47188  44.422  13.703  14.401
76589W        W47189   4.931  44.758  13.013
76590W        W47190  28.251  44.958  14.338
76591W        W47191  19.984  11.210   1.580
76592W        W47192  15.889  16.046   0.961
76593W        W47193  34.810   2.990  14.893
76594W        W47194  32.595  22.644   1.759
76595W        W47195  11.705  16.647   1.375
76596W        W47196  26.609  32.868  14.449
76597W        W47197  14.502   7.634   5.095
76598W        W47198  14.789  24.193   4.207
76599W        W47199  33.935  19.976   1.461
76600W        W47200  25.053  40.609  12.592
76601W        W47201   3.412  22.214   3.372
76602W        W47202  15.818  16.859   4.530
76603W        W47203   4.897   4.706  12.388
76604W        W47204  24.570  44.947   3.165
76605W        W47205  37.973  32.676  12.941
76606W        W47206   8.691  12.819   3.391
76607W        W47207  31.397   6.080  12.501
76608W        W47208  39.437   3.152   1.458
76609W        W47209  37.859  41.288  13.941
76610W        W47210  32.072  29.250   4.147
76611W        W47211  30.767  34.912   1.939
76612W        W47212  21.270  21.778   3.671
76613W        W47213  20.753   4.664  14.262
76614W        W47214  30.591  10.491   3.192
76615W        W47215   4.688   7.185  13.796
76616W        W47216  10.804  12.225  14.436
76617W        W47217  28.677  28.694   0.036
76618W        W47218  41.896  20.715  12.370
76619W        W47219   0.958   5.828  13.525
76620W        W47220  12.288  24.697  12.644
76621W        W47221  16.858   3.098  13.906
76622W        W47222  10.829  38.356   3.462
76623W        W47223   9.548  15.852  11.104
76624W        W47224  36.925  12.978  12.478
76625W        W47225   4.294  23.314   4.211
76626W        W47226  15.996  41.586   3.108
76627W        W47227  16.125   1.796   4.091
76628W        W47228  14.297  41.038   4.423
76629W        W47229  43.609  37.409   3.192
76630W        W47230  42.082  27.601  11.098
76631W        W47231  23.254  18.026   4.229
76632W        W47232  35.216  41.386   3.513
76633W        W47233  38.541  12.669  14.299
76634W        W47234  15.157  32.939  12.607
76635W        W47235   7.086   3.655  14.792
76636W        W47236  21.213   4.923   0.898
76637W        W47237   9.657  39.711  11.103
76638W        W47238   3.419  27.113  14.686
76639W        W47239  37.759  25.092  11.171
76640W        W47240  38.886   2.580   3.300
76641W        W47241  27.642   7.709   4.169
76642W        W47242  11.598  14.200  10.176
76643W        W47243  29.957  44.589   0.888
76644W        W47244   1.299  20.144   1.729
76645W        W47245  33.094  28.591  13.955
76646W        W47246   0.099  13.141   2.081
76647W        W47247  38.247  10.173   2.516
76648W        W47248  38.023   2.194   2.319
76649W        W47249   4.994  39.163   4.834
76650W        W47250  33.219   4.261   3.331
76651W        W47251  24.516  43.742   5.043
76652W        W47252  34.924   4.244  13.935
76653W        W47253   3.658  38.272  12.395
76654W        W47254  37.937  23.452   4.411
76655W        W47255   7.913  11.167  12.484
76656W        W47256  26.489   8.725   1.708
76657W        W47257  20.047  40.363  13.576
76658W        W47258  32.570   8.846  11.922
76659W        W47259  17.308  11.186  12.584
76660W        W47260   1.853   9.700   4.257
76661W        W47261  40.415  40.123  14.459
76662W        W47262   1.492  30.427  12.380
76663W        W47263   3.756   2.783   3.809
76664W        W47264  43.726   9.429   3.755
76665W        W47265  18.872  38.656  11.215
76666W        W47266  14.600  33.632   2.652
76667W        W47267  37.923  14.347  11.605
76668W        W47268   3.035   0.881   3.603
76669W        W47269   1.520  22.832  11.172
76670W        W47270  17.262  26.436  14.178
76671W        W47271  38.112  16.823   0.860
76672W        W47272  16.338  32.710  12.426
76673W        W47273  41.090  30.112   1.633
76674W        W47274  15.672  14.242  12.016
76675W        W47275  26.945   5.488  13.051
76676W        W47276  32.865  18.482   3.215
76677W        W47277  23.961  41.983  14.491
76678W        W47278  42.922  41.276   0.358
76679W        W47279  24.400   3.322   0.597
76680W        W47280   5.204  32.131   0.783
76681W        W47281   5.121  26.548   0.942
76682W        W47282  26.451  18.675  14.922
76683W        W47283   2.387   2.046   0.919
76684W        W47284   9.338   1.704  12.496
76685W        W47285  24.979  22.711   3.689
76686W        W47286  17.571  42.268  14.969
76687W        W47287  14.255   7.631   4.134
76688W        W47288  15.325   2.739  11.190
76689W        W47289  18.296  13.153   2.635
76690W        W47290  17.637  44.279   4.919
76691W        W47291   1.260  22.419  14.379
76692W        W47292  38.406   2.809   3.278
76693W        W47293   9.122  16.154  13.723
76694W        W47294  23.217  21.669   1.791
76695W        W47295  20.264  22.673  11.552
76696W        W47296  43.521  37.646  12.817
76697W        W47297  44.865  19.017   4.200
76698W        W47298  27.199  33.394  12.442
76699W        W47299   6.184  44.343   4.544
76700W        W47300  24.254  29.359  14.375
76701W        W47301  14.411   4.401   4.247
76702W        W47302  10.605  38.536  13.718
76703W        W47303  34.050   8.426  12.022
76704W        W47304  13.589   6.872  14.376
76705W        W47305  28.107  13.178  13.562
76706W        W47306  38.738   2.380   1.398
76707W        W47307   4.007  29.026   4.451
76708W        W47308   5.969  13.884   2.438
76709W        W47309  32.237   2.244   1.170
76710W        W47310  41.315  21.645   0.096
76711W        W47311  38.531  11.127  13.850
76712W        W47312  23.127  12.332   3.573
76713W        W47313   3.784  44.805   0.172
76714W        W47314  10.833   4.256   2.264
76715W        W47315  42.352  39.777   2.950
76716W        W47316  10.702   0.799  12.486
76717W        W47317  14.765  31.705  10.786
76718W        W47318  37.533  11.686   5.100
76719W        W47319  12.467  11.374  14.278
76720W        W47320  32.917   8.424   3.744
76721W        W47321  20.125  27.121  14.001
76722W        W47322  38.809   6.911  10.559
76723W        W47323  44.402  37.612  12.173
76724W        W47324  11.634  10.934   1.195
76725W        W47325  44.365  37.492  11.682
76726W        W47326  28.218  39.648  13.366
76727W        W47327   8.173   6.000  11.922
76728W        W47328   6.639  29.237  14.700
76729W        W47329  22.503  39.934  11.188
76730W        W47330  39.311  40.567  11.577
76731W        W47331  41.779  36.989   0.855
76732W        W47332  12.830   9.379  10.859
76733W        W47333  24.626  32.671   4.226
76734W        W47334  25.394   0.048  11.942
76735W        W47335   6.400  17.720   1.854
76736W        W47336  18.277  15.119   3.750
76737W        W47337   1.322  36.089  13.478
76738W        W47338  13.207  32.699  12.008
76739W        W47339  36.838  30.873  13.998
76740W        W47340  40.040  10.904  12.659
76741W        W47341  16.435  25.961   4.568
76742W        W47342  29.813  44.917  14.381
76743W        W47343  30.212  43.441  12.288
76744W        W47344  35.263  33.722   0.153
76745W        W47345   8.264  12.218   0.150
76746W        W47346  20.706  40.026   3.092
76747W        W47347  23.647  16.280  11.529
76748W        W47348   3.376  34.756   5.057
76749W        W47349  22.764   9.434   4.001
76750W        W47350   8.252  15.246   3.884
76751W        W47351  27.727  43.444  14.782
76752W        W47352  24.589  31.588   4.155
76753W        W47353  19.192   8.132  10.961
76754W        W47354  42.005  24.281   3.188
76755W        W47355  31.354  44.780  11.939
76756W        W47356  36.066  20.733   4.345
76757W        W47357  28.422  15.096   3.689
76758W        W47358  28.413  42.370   4.357
76759W        W47359   8.356   3.685  14.870
76760W        W47360  35.023  27.083   3.364
76761W        W47361   9.795   3.501   4.341
76762W        W47362  34.844  17.178  13.028
76763W        W47363  18.582  21.986   1.192
76764W        W47364  35.774  10.636  11.173
76765W        W47365  36.274  37.913   3.135
76766W        W47366  44.833  17.778   3.699
76767W        W47367   8.843  16.245  12.872
76768W        W47368  33.902   7.728  13.384
76769W        W47369   3.797  32.093   4.669
76770W        W47370  38.775  30.199   2.485
76771W        W47371   5.991  33.101   0.859
76772W        W47372  26.197  23.961   4.568
76773W        W47373   8.714  23.164  14.319
76774W        W47374  10.256  44.366  13.032
76775W        W47375  23.210  44.558   2.715
76776W        W47376   1.308   2.873   1.328
76777W        W47377  37.555   2.839  12.131
76778W        W47378  31.345  44.907   3.068
76779W        W47379  13.901  40.431   1.759
76780W        W47380   1.980  29.610  11.136
76781W        W47381  20.198  29.427  14.763
76782W        W47382   0.951   1.305  13.900
76783W        W47383  29.446  12.099   0.177
76784W        W47384   1.713  23.462   4.406
76785W        W47385   6.171  41.862  12.714
76786W        W47386   7.959  22.035  14.737
76787W        W47387  29.056  25.394   2.345
76788W        W47388  36.909  40.966   2.776
76789W        W47389   3.463   4.629   3.543
76790W        W47390  28.146  10.346  11.126
76791W        W47391  14.325  10.825  11.484
76792W        W47392  26.729  39.961  14.406
76793W        W47393   1.419  40.311   4.818
76794W        W47394  43.713  39.676  13.800
76795W        W47395  37.939  23.162   2.863
76796W        W47396   9.659   4.201  13.485
76797W        W47397  32.529  34.520  14.583
76798W        W47398  19.103  29.426   1.726
76799W        W47399  13.194  10.818   3.660
76800W        W47400  17.555  14.682   2.212
76801W        W47401   0.790  26.099  14.479
76802W        W47402  42.361   4.025   4.044
76803W        W47403  26.507  24.180  12.566
76804W        W47404  24.986  28.956   4.434
76805W        W47405  33.036  13.368   3.115
76806W        W47406  37.274   3.896   3.610
76807W        W47407  10.878  40.356  10.275
76808W        W47408  39.907  43.975   3.181
76809W        W47409  12.617   4.688  14.891
76810W        W47410  42.811   5.652   0.891
76811W        W47411   2.728  34.526   0.297
76812W        W47412  23.560  24.653  12.936
76813W        W47413  30.701   3.459  10.335
76814W        W47414  13.589  35.393  14.541
76815W        W47415  18.320   7.419   4.441
76816W        W47416  20.762  22.520   4.581
76817W        W47417   5.119   6.377  12.950
76818W        W47418  40.299  41.029   1.744
76819W        W47419   0.798   7.276  10.697
76820W        W47420  43.239  18.379  13.096
76821W        W47421  44.544  26.092   1.863
76822W        W47422  41.937  10.053   1.895
76823W        W47423   8.440  35.942   1.352
76824W        W47424  25.460  14.927   3.232
76825W        W47425   7.263  38.529  13.864
76826W        W47426  12.345  31.536   2.871
76827W        W47427  33.889  21.757  14.191
76828W        W47428  43.074  17.382   3.666
76829W        W47429  33.894   0.914   4.883
76830W        W47430  34.355   7.995  13.255
76831W        W47431   5.252   5.214   3.200
76832W        W47432  27.168  15.526   4.208
76833W        W47433   8.244   5.390   4.897
76834W        W47434   3.645  38.959   4.485
76835W        W47435  30.487  44.382   1.105
76836W        W47436  22.560  21.084  11.267
76837W        W47437  27.022  21.591   1.224
76838W        W47438  28.539  27.698  11.601
76839W        W47439   6.358  14.814   3.275
76840W        W47440   8.000  19.559   9.709
76841W        W47441  43.873  27.425  14.260
76842W        W47442  23.380  25.880  14.535
76843W        W47443  10.441  39.211   1.650
76844W        W47444  20.067   9.115   5.066
76845W        W47445  32.104   7.308  13.490
76846W        W47446   7.903   9.270  12.545
76847W        W47447  44.464  15.107   3.628
76848W        W47448   9.121  38.550  12.906
76849W        W47449  12.359  20.998  10.831
76850W        W47450  28.974   5.621  14.940
76851W        W47451  19.528  29.465  13.333
76852W        W47452  16.755  29.313   4.986
76853W        W47453  43.385  15.288   4.875
76854W        W47454  37.499  34.323   3.263
76855W        W47455  44.230   4.449  14.258
76856W        W47456  12.299   6.425   3.959
76857W        W47457  20.220   3.231   1.399
76858W        W47458  23.914  37.039   0.059
76859W        W47459  43.946  43.442   2.224
76860W        W47460   5.292  37.623   3.623
76861W        W47461  44.363  29.424  11.215
76862W        W47462  29.135  35.882   4.099
76863W        W47463  17.776   8.283   3.563
76864W        W47464  30.492  38.268  12.663
76865W        W47465  32.696   7.677   4.209
76866W        W47466  19.257   4.936  14.312
76867W        W47467  43.067   0.543  14.802
76868W        W47468  15.558   7.297   1.285
76869W        W47469  37.871   5.300   2.453
76870W        W47470  15.229   9.664   3.610
76871W        W47471  34.567   1.365   3.354
76872W        W47472  41.391   2.732  10.168
76873W        W47473  18.931  16.034   2.165
76874W        W47474  11.906  11.632  10.889
76875W        W47475  30.592   9.632   1.811
76876W        W47476  33.521  12.390  14.730
76877W        W47477  29.149   7.919   4.691
76878W        W47478  21.207  28.063   1.223
76879W        W47479  30.103  38.977  13.138
76880W        W47480  17.177  42.423   1.715
76881W        W47481  31.732  27.629   0.415
76882W        W47482  27.444  29.631   4.216
76883W        W47483   0.448  14.655  14.959
76884W        W47484  41.602  25.645  14.031
76885W        W47485  15.299  11.808   4.153
76886W        W47486   8.189  14.059   0.535
76887W        W47487  24.746  24.582   4.108
76888W        W47488  18.715  20.696  14.822
76889W        W47489  31.373   8.503   2.235
76890W        W47490  16.555  38.273  11.671
76891W        W47491  13.676   5.799   2.584
76892W        W47492  12.977  39.903  11.972
76893W        W47493  33.513  18.726   1.324
76894W        W47494   0.231  12.536  13.925
76895W        W47495  39.879  27.501   0.721
76896W        W47496  41.417  33.753  12.773
76897W        W47497  13.258  41.231  10.314
76898W        W47498  18.145   7.230   3.342
76899W        W47499  17.609  35.510  11.671
76900W        W47500  43.551   5.741   1.643
76901W        W47501  41.846   4.178   3.853
76902W        W47502   3.780  39.923   4.732
76903W        W47503  26.948  11.112  14.273
76904W        W47504   0.260  42.408  14.665
76905W        W47505  25.367   8.372  12.597
76906W        W47506  34.985  34.095  10.734
76907W        W47507   0.481  23.136   1.181
76908W        W47508   2.610  26.040  13.936
76909W        W47509   0.743  29.061   3.747
76910W        W47510   2.507   3.388   0.727
76911W        W47511  34.549   3.527   4.176
76912W        W47512  22.920  10.252   3.079
76913W        W47513   9.178   4.773  14.696
76914W        W47514  24.609   8.260  10.972
76915W        W47515   4.860  23.686   2.301
76916W        W47516  30.929  43.525   1.337
76917W        W47517   0.308  36.438   0.863
76918W        W47518  23.932   8.258   2.256
76919W        W47519   3.238  16.148  12.455
76920W        W47520  20.585  23.019   4.574
76921W        W47521  37.509  26.596   0.800
76922W        W47522   7.702  34.144  13.485
76923W        W47523  32.982  37.847  13.066
76924W        W47524  21.612  38.088  11.223
76925W        W47525  14.957  24.668   4.045
76926W        W47526   4.274   6.345   1.796
76927W        W47527   1.694  13.820  12.829
76928W        W47528  27.569  31.940  12.675
76929W        W47529  31.907  43.891   1.711
76930W        W47530  11.584  15.185  13.370
76931W        W47531   3.074  41.197  14.761
76932W        W47532  41.822  34.646   2.792
76933W        W47533  43.651  17.642  11.168
76934W        W47534  18.831  11.976  13.765
76935W        W47535  24.576  25.082   4.192
76936W        W47536  17.454  44.678  14.783
76937W        W47537  44.781  21.574  13.440
76938W        W47538  35.357   2.772  10.631
76939W        W47539  31.100  42.076  12.973
76940W        W47540  42.359  27.724   0.586
76941W        W47541  28.727  23.485   0.228
76942W        W47542  38.234  15.404   0.897
76943W        W47543   2.709  18.699  14.445
76944W        W47544  39.054  12.427   1.244
76945W        W47545  42.895  42.341   3.329
76946W        W47546  36.876   0.776  12.567
76947W        W47547  40.847   4.312   1.671
76948W        W47548   5.795  23.436  13.468
76949W        W47549  35.329  31.975   0.819
76950W        W47550  13.884  17.334   4.967
76951W        W47551   9.969  24.210  11.854
76952W        W47552  34.045  16.563  14.176
76953W        W47553  14.301   3.135   5.070
76954W        W47554  34.057   2.995  10.746
76955W        W47555  39.755  36.407  12.514
76956W        W47556  34.029  23.746   3.737
76957W        W47557  17.843  36.878  11.993
76958W        W47558  23.043  10.253  14.936
76959W        W47559  42.875  13.855   2.690
76960W        W47560  11.218   3.464  11.976
76961W        W47561  40.883  12.665  14.736
76962W        W47562  40.883  12.776  12.970
76963W        W47563   6.843  33.956  12.968
76964W        W47564  24.006  28.800  14.996
76965W        W47565   4.668  14.406  12.561
76966W        W47566   2.744  10.916  12.831
76967W        W47567   1.754  24.489  13.398
76968W        W47568  43.489   9.925   3.675
76969W        W47569  42.829  23.210   4.711
76970W        W47570  37.522   4.516   4.222
76971W        W47571  36.038  23.624   4.573
76972W        W47572  29.687   4.988   0.318
76973W        W47573  44.996  44.529   3.153
76974W        W47574  11.201  10.642  10.449
76975W        W47575  25.236  23.543   0.724
76976W        W47576  13.748  14.241  13.583
76977W        W47577  19.573  39.958  11.078
76978W        W47578  37.544  40.535  11.964
76979W        W47579  40.249  21.056  10.286
76980W        W47580  16.962  26.907   0.811
76981W        W47581  28.856  25.715   1.099
76982W        W47582  11.599  16.765   2.687
76983W        W47583  10.605  24.752  10.521
76984W        W47584  14.390  26.156   3.347
76985W        W47585  19.894  39.593   0.355
76986W        W47586  44.506   8.097  13.822
76987W        W47587  18.593  16.023  13.936
76988W        W47588  26.587  19.342  11.990
76989W        W47589  12.526  33.312  10.799
76990W        W47590  42.403  36.963   0.941
76991W        W47591  20.084  41.382   0.911
76992W        W47592  34.494  10.158   4.616
76993W        W47593  14.625  16.057   0.340
76994W        W47594  20.692  24.619  10.728
76995W        W47595  19.694  31.523   1.956
76996W        W47596  14.731  23.691   4.646
76997W        W47597  27.675  26.115   3.164
76998W        W47598  44.321  35.551   4.832
76999W        W47599   1.235  34.382  11.107
77000W        W47600  24.123  29.263   3.922
77001W        W47601  20.719  23.607  12.083
77002W        W47602  27.435   3.789   2.661
77003W        W47603  25.589   2.635   3.194
77004W        W47604   9.895  22.111  11.157
77005W        W47605  41.143   3.363   1.613
77006W        W47606  41.948   1.184  14.084
77007W        W47607  41.689  24.838   4.040
77008W        W47608  42.043  11.287   4.039
77009W        W47609  26.228  29.309  12.013
77010W        W47610  22.074  24.009   1.163
77011W        W47611  28.203  20.333  14.387
77012W        W47612  13.280   6.022   2.941
77013W        W47613  25.904  38.057  11.610
77014W        W47614   0.997  40.609   2.054
77015W        W47615  37.948   8.948   4.458
77016W        W47616   0.505  27.102  11.903
77017W        W47617   3.490  31.647   4.095
77018W        W47618  37.495  39.397  12.815
77019W        W47619  16.139   5.184   0.802
77020W        W47620  35.480  23.975  12.176
77021W        W47621  16.091   9.624  14.844
77022W        W47622  11.135  43.925  11.233
77023W        W47623  36.852  22.481  13.459
77024W        W47624  26.920   5.526  14.983
77025W        W47625  19.582  30.089   1.841
77026W        W47626  34.562  20.589   0.728
77027W        W47627  37.487  30.237   2.985
77028W        W47628  37.450   0.933  14.047
77029W        W47629  12.452   7.344   4.968
77030W        W47630  39.025  16.198  12.584
77031W        W47631  11.916  29.726  11.607
77032W        W47632   4.406  43.926  14.732
77033W        W47633  16.432  40.272  12.074
77034W        W47634  44.478  10.428   2.107
77035W        W47635   6.885  12.124  10.786
77036W        W47636  26.070  22.974   2.724
77037W        W47637  23.333  15.036   2.779
77038W        W47638   8.824   8.617  12.393
77039W        W47639  43.343  26.609  12.998
77040W        W47640  19.126  43.899   4.830
77041W        W47641  27.862  19.126  10.089
77042W        W47642   2.510   2.043   4.133
77043W        W47643  11.694  16.174  13.441
77044W        W47644   4.232  21.490  12.008
77045W        W47645  28.954  41.950   3.783
77046W        W47646  44.114  36.029  11.886
77047W        W47647  25.061  10.662   1.671
77048W        W47648  32.656  13.813  13.378
77049W        W47649  12.696   7.067  14.138
77050W        W47650  26.569  17.479   4.604
77051W        W47651  42.958  10.830  13.505
77052W        W47652  43.442   0.669  10.362
77053W        W47653  19.208   1.038  11.751
77054W        W47654  25.486  31.049  14.354
77055W        W47655  15.569   8.660   3.289
77056W        W47656  14.047  14.848   2.306
77057W        W47657  20.011  23.732   1.681
77058W        W47658  21.135  21.310  12.944
77059W        W47659  33.973   6.754  13.339
77060W        W47660  21.212  35.501   4.556
77061W        W47661   1.921  35.199   1.864
77062W        W47662   9.832   2.081   1.329
77063W        W47663  12.363   3.167   1.749
77064W        W47664  18.420  38.855  13.075
77065W        W47665  19.455   6.348   2.997
77066W        W47666  43.224  33.573  14.897
77067W        W47667  10.921  29.945  10.771
77068W        W47668   5.751  41.256  10.579
77069W        W47669  19.983  38.548  11.250
77070W        W47670  29.631  28.473  11.172
77071W        W47671   1.832  36.241  14.535
77072W        W47672  19.494   8.081   4.139
77073W        W47673  14.875  12.720  11.607
77074W        W47674  12.308  20.715  14.781
77075W        W47675  40.835  14.122  12.560
77076W        W47676  31.480   5.894  11.241
77077W        W47677  36.660   8.297  13.365
77078W        W47678  11.263   2.958   3.151
77079W        W47679  41.699   7.894   0.766
77080W        W47680  43.868  42.110  14.010
77081W        W47681   1.197  15.901  14.530
77082W        W47682  43.407  14.103   2.881
77083W        W47683  20.627  15.693  12.479
77084W        W47684  42.959   5.797   2.256
77085W        W47685  42.042   1.018   3.238
77086W        W47686  20.993  41.808   4.242
77087W        W47687  24.728  33.588   0.760
77088W        W47688  35.901  14.544  14.972
77089W        W47689   1.400  25.593   2.460
77090W        W47690  14.193  23.595  12.956
77091W        W47691  30.456  26.214   2.805
77092W        W47692  39.588  27.153  11.152
77093W        W47693  18.493  29.447  11.123
77094W        W47694  30.043  36.866   3.276
77095W        W47695  19.247  24.230  11.920
77096W        W47696  21.497  33.949  13.401
77097W        W47697  31.294  16.894  14.814
77098W        W47698  21.783  35.355  10.802
77099W        W47699  44.109  35.875  13.723
77100W        W47700  42.735  33.486  14.768
77101W        W47701  33.153  23.351   4.565
77102W        W47702  31.000   5.153  11.660
77103W        W47703  44.048  42.484   3.383
77104W        W47704  20.131  26.497   0.429
77105W        W47705  31.949  43.372   4.271
77106W        W47706  26.157  28.702   4.702
77107W        W47707  17.205  37.521   3.660
77108W        W47708  34.108  11.580   1.302
77109W        W47709  41.293  21.253  10.297
77110W        W47710  41.471  29.002   2.229
77111W        W47711  24.351   2.825   0.399
77112W        W47712  20.492  42.792   1.784
77113W        W47713  19.581  19.069   0.078
77114W        W47714   9.357  27.376  10.693
77115W        W47715  21.586   2.787  12.869
77116W        W47716  30.363  42.283   2.773
77117W        W47717  10.528  35.406  14.854
77118W        W47718  42.103   3.765  11.238
77119W        W47719  16.257   4.366  12.071
77120W        W47720  15.842   5.625   3.068
77121W        W47721  14.124  12.099   2.698
77122W        W47722  23.626   2.332   1.456
77123W        W47723  14.813  11.810   9.911
77124W        W47724  33.977   7.242   4.435
77125W        W47725  30.288  40.582  14.558
77126W        W47726   7.513  13.430   5.012
77127W        W47727  12.832   7.141  10.761
77128W        W47728   5.757  42.100  11.832
77129W        W47729  33.814  15.362  11.160
77130W        W47730  23.311   6.839  11.594
77131W        W47731  43.737   5.278   1.784
77132W        W47732  23.946  33.152   3.180
77133W        W47733   7.132   2.493  12.517
77134W        W47734  17.175  19.635   3.672
77135W        W47735   1.364  15.428  13.239
77136W        W47736  37.444  34.155   2.728
77137W        W47737  29.389  23.252   2.683
77138W        W47738   0.919  22.946   0.945
77139W        W47739  41.308  26.934   4.634
77140W        W47740  23.468  26.958  12.442
77141W        W47741  28.385  12.920   4.787
77142W        W47742  31.146  44.650   5.031
77143W        W47743  15.832  15.841  11.587
77144W        W47744  36.594  37.411  14.775
77145W        W47745  44.719  16.708   1.759
77146W        W47746  25.552  10.029  10.254
77147W        W47747  34.660  27.425   1.654
77148W        W47748  16.663  11.205   2.386
77149W        W47749  21.023   0.064   0.836
77150W        W47750  30.078  36.791   4.200
77151W        W47751  40.717   3.136   4.575
77152W        W47752  33.910   8.258  13.331
77153W        W47753  37.531  15.759  14.928
77154W        W47754  42.745  27.197   3.019
77155W        W47755  42.267  12.620  11.648
77156W        W47756   8.646  41.562   4.887
77157W        W47757   7.756  36.739   4.767
77158W        W47758  25.418  18.634   0.861
77159W        W47759  11.347  36.975  14.014
77160W        W47760  17.568  43.749   0.944
77161W        W47761   3.194  22.205  12.743
77162W        W47762  26.976  38.865  12.556
77163W        W47763  23.003  40.213  10.429
77164W        W47764   7.691   7.823  10.936
77165W        W47765  29.196  28.049  12.125
77166W        W47766  32.427  10.647  14.001
77167W        W47767   0.487  37.609   2.296
77168W        W47768   6.360  33.504  14.965
77169W        W47769   4.018   2.964   0.029
77170W        W47770  23.007  38.750   1.852
77171W        W47771  24.045  30.753   0.396
77172W        W47772  33.350  27.612  11.444
77173W        W47773  28.623  14.119  11.346
77174W        W47774  32.060  23.054  11.075
77175W        W47775  13.655  12.813   1.530
77176W        W47776  44.514  24.523   2.774
77177W        W47777  22.563   5.058   5.061
77178W        W47778  40.323  10.587   2.311
77179W        W47779  29.976  20.777   4.179
77180W        W47780  38.504  36.421   3.185
77181W        W47781   3.880  19.731   0.226
77182W        W47782  35.387   9.091   3.440
77183W        W47783  32.041  28.183   3.140
77184W        W47784  34.086  30.278   5.066
77185W        W47785  36.124  13.306  12.913
77186W        W47786   9.766  42.515  14.260
77187W        W47787  21.664  43.761  11.821
77188W        W47788  40.752   4.096   2.591
77189W        W47789  23.679  22.234  12.384
77190W        W47790  37.006  10.137   3.696
77191W        W47791  11.464  44.278  12.077
77192W        W47792   0.981   9.270   3.144
77193W        W47793  22.093  31.875   1.516
77194W        W47794  31.394  15.730  13.855
77195W        W47795  20.739  39.914  10.776
77196W        W47796  32.488   3.467  11.022
77197W        W47797  44.945  38.242   0.726
77198W        W47798  42.722  14.724  14.324
77199W        W47799  43.444  24.069  13.244
77200W        W47800  39.965   4.710  14.347
77201W        W47801  30.062  43.164   0.824
77202W        W47802  29.655  16.296  13.478
77203W        W47803  32.644  30.396  11.220
77204W        W47804  15.906  15.694   2.335
77205W        W47805  17.145  20.332   1.961
77206W        W47806  14.526  17.303   4.525
77207W        W47807   7.572  41.100  10.865
77208W        W47808  30.042  40.186  12.472
77209W        W47809  30.054  11.234   3.606
77210W        W47810  19.695  38.197  11.532
77211W        W47811  36.868   5.925   4.304
77212W        W47812  34.031  36.808  14.820
77213W        W47813  29.443  29.968  10.782
77214W        W47814  30.152  11.259  13.998
77215W        W47815  20.890  22.352  12.726
77216W        W47816  28.027  31.198  14.939
77217W        W47817  30.530  38.822  12.895
77218W        W47818  30.640  26.427   4.553
77219W        W47819  14.161  37.673  13.430
77220W        W47820  40.373   9.618   3.998
77221W        W47821   3.460   8.165   1.350
77222W        W47822  38.490  21.744   4.641
77223W        W47823   2.685   9.602  14.463
77224W        W47824  12.726   1.318  14.516
77225W        W47825  43.641  25.264   0.885
77226W        W47826  44.474  38.569   2.845
77227W        W47827   4.349  35.292  12.579
77228W        W47828   0.749  36.326  13.901
77229W        W47829  32.308  31.394   2.790
77230W        W47830  13.462  36.892   1.777
77231W        W47831  39.398  43.784   1.007
77232W        W47832  22.285  20.266   0.290
77233W        W47833   5.440  13.265   4.180
77234W        W47834  27.375   3.190  11.965
77235W        W47835  14.216   3.763   0.518
77236W        W47836  21.331  41.391   2.788
77237W        W47837  23.249  23.730   3.751
77238W        W47838  19.815  41.192  10.622
77239W        W47839   9.446  23.730  11.211
77240W        W47840   3.498  12.712  14.911
77241W        W47841   1.857  22.160   2.655
77242W        W47842  32.063  23.185  14.859
77243W        W47843  16.555  42.927   1.207
77244W        W47844  16.648  11.565  11.093
77245W        W47845  18.830  37.834   3.745
77246W        W47846  19.549  23.470   3.161
77247W        W47847  44.911  38.319   3.711
77248W        W47848  14.627  34.000  14.298
77249W        W47849  37.126  23.614  13.853
77250W        W47850  39.243   6.272   3.408
77251W        W47851  13.723   3.731   4.806
77252W        W47852   1.494  15.700   2.369
77253W        W47853  32.315  16.565  14.781
77254W        W47854  39.922  39.910   0.787
77255W        W47855  34.263  25.795  10.770
77256W        W47856  34.114   3.191   0.312
77257W        W47857  18.192  40.497   4.734
77258W        W47858  40.370   9.693  13.023
77259W        W47859  11.675  17.722  11.182
77260W        W47860  34.359   5.779   0.536
77261W        W47861  18.176   0.665   4.129
77262W        W47862  33.279  32.878   2.317
77263W        W47863  18.985  30.075   1.460
77264W        W47864  31.716  42.529   3.778
77265W        W47865  32.757   6.346  12.230
77266W        W47866  23.165  38.110  11.587
77267W        W47867  29.830  43.203   1.294
77268W        W47868  17.300  36.552   1.262
77269W        W47869  42.238   2.988  11.620
77270W        W47870  25.513  38.526   2.203
77271W        W47871   4.738  19.856  14.465
77272W        W47872  15.688  12.826   3.388
77273W        W47873  34.036  41.812  10.762
77274W        W47874  31.088  28.915   2.655
77275W        W47875   8.297  18.193  10.643
77276W        W47876  43.816  34.124   4.505
77277W        W47877  24.840  21.277  11.186
77278W        W47878  27.638  28.554  13.408
77279W        W47879  13.764   5.007  14.324
77280W        W47880   0.936  20.045  12.585
77281W        W47881  15.736  41.625   3.571
77282W        W47882   9.132   7.245   1.397
77283W        W47883  31.546  13.800  13.217
77284W        W47884  18.610  43.971   4.127
77285W        W47885   7.618  11.262   1.404
77286W        W47886  27.840  17.470   3.171
77287W        W47887  30.398  26.667  12.463
77288W        W47888   2.345  38.549   3.816
77289W        W47889  26.500  41.765   3.577
77290W        W47890  40.757  33.172   4.828
77291W        W47891  20.965   6.001   3.224
77292W        W47892   1.497  18.912  11.161
77293W        W47893   6.615  28.947   1.049
77294W        W47894  22.448   1.237  11.500
77295W        W47895  22.194  37.154   4.524
77296W        W47896  42.116   6.941  10.210
77297W        W47897  27.441  22.309   2.951
77298W        W47898  16.480  43.912  10.077
77299W        W47899  13.944   4.812   5.106
77300W        W47900   5.709  32.347   1.847
77301W        W47901  19.293   9.383   1.899
77302W        W47902  18.626  41.150  12.125
77303W        W47903   6.337  20.949  11.113
77304W        W47904  30.456  25.340  13.528
77305W        W47905  17.069  32.612   2.719
77306W        W47906  17.688   6.131  12.332
77307W        W47907  24.591  35.017   4.631
77308W        W47908  27.397  11.920   1.188
77309W        W47909   7.218  16.272   2.463
77310W        W47910  11.277  36.886   2.274
77311W        W47911  14.982  28.444  14.158
77312W        W47912  41.794  32.522  10.687
77313W        W47913   9.894  31.144   3.582
77314W        W47914  35.201  40.063  12.965
77315W        W47915   8.489  12.827  13.242
77316W        W47916  33.414  22.158  10.612
77317W        W47917  36.858  32.983  12.624
77318W        W47918  29.528  16.614   2.256
77319W        W47919  10.861   8.348  13.560
77320W        W47920   5.901  32.547  12.452
77321W        W47921  22.558  26.461  12.983
77322W        W47922  26.997  18.148   4.472
77323W        W47923  10.214   5.686   3.228
77324W        W47924  17.788  15.756   1.942
77325W        W47925  41.883  27.506  10.641
77326W        W47926   8.750  18.790  11.246
77327W        W47927  28.867  28.136   4.518
77328W        W47928   5.728  23.264   1.306
77329W        W47929   9.857  15.693   1.861
77330W        W47930   4.235  14.750   0.923
77331W        W47931  39.632   8.992   2.939
77332W        W47932   9.559   9.061   0.036
77333W        W47933  26.018  20.396  12.013
77334W        W47934  31.485  16.231  13.967
77335W        W47935  12.673  42.810   1.980
77336W        W47936  42.970  40.969  14.819
77337W        W47937  34.387  21.453   3.634
77338W        W47938  11.120  17.136  13.383
77339W        W47939  30.463  14.631   2.321
77340W        W47940   5.886   9.746  12.515
77341W        W47941  25.253  11.952   1.911
77342W        W47942  10.648  12.295   1.523
77343W        W47943  23.962  37.400   4.531
77344W        W47944   1.165   4.662  14.470
77345W        W47945  17.677   4.327   0.982
77346W        W47946  41.921   9.234   0.345
77347W        W47947  26.192  34.071   0.159
77348W        W47948  23.435  42.018  14.496
77349W        W47949   6.357  19.286  11.656
77350W        W47950  25.326   8.729   0.842
77351W        W47951  25.079   1.281  10.899
77352W        W47952  29.929  35.097  10.768
77353W        W47953   9.778  44.370   2.245
77354W        W47954  17.554  13.701   2.664
77355W        W47955  24.564  31.114   3.226
77356W        W47956  38.554  20.854   3.649
77357W        W47957  34.628   1.444   4.711
77358W        W47958  31.903  39.721   0.361
77359W        W47959  34.543  13.603   1.423
77360W        W47960   7.561   8.523   2.784
77361W        W47961  11.270  24.876   1.865
77362W        W47962  20.726  25.780   1.267
77363W        W47963  35.095   8.495  13.532
77364W        W47964   7.788  13.573   3.202
77365W        W47965   9.209  27.258   3.762
77366W        W47966  25.523  28.989  11.614
77367W        W47967  19.441  35.674   5.002
77368W        W47968  38.740  13.586  13.492
77369W        W47969  34.239  11.652  11.238
77370W        W47970  29.202  23.778   4.388
77371W        W47971   1.322   4.691   0.827
77372W        W47972  44.262   6.082  10.655
77373W        W47973  37.005  30.885   0.875
77374W        W47974  13.418  31.553   3.858
77375W        W47975   4.387   6.012   3.706
77376W        W47976  16.292  18.316   3.249
77377W        W47977  14.126  13.056   5.086
77378W        W47978   0.549  12.548  14.343
77379W        W47979   5.896  13.313  11.066
77380W        W47980   1.328  43.011  12.900
77381W        W47981  24.022  43.739  12.329
77382W        W47982  25.490  28.999   3.666
77383W        W47983  41.698  30.991  14.324
77384W        W47984  40.488  11.302   0.782
77385W        W47985  32.960  15.058   1.351
77386W        W47986  27.539  34.015   2.366
77387W        W47987   8.794  40.319   1.373
77388W        W47988  30.296  29.657   3.959
77389W        W47989  22.505  17.872   4.681
77390W        W47990  25.689  34.103   0.059
77391W        W47991  34.566  25.655   4.484
77392W        W47992  17.710  23.294  12.887
77393W        W47993  35.021  21.672  14.983
77394W        W47994  23.135  43.208  11.276
77395W        W47995  20.637  12.282  13.992
77396W        W47996  27.563  33.571  13.959
77397W        W47997   0.388  23.522   2.479
77398W        W47998  32.598  15.411  13.019
77399W        W47999  17.222   3.937  13.857
77400W        W48000   1.595  24.167   4.677
77401W        W48001  23.974  39.495   3.260
77402W        W48002  16.045  39.550  14.099
77403W        W48003  30.908  20.180   1.814
77404W        W48004  40.357  30.915  12.797
77405W        W48005   2.784   7.748  10.933
77406W        W48006  17.335  42.421   3.175
77407W        W48007  24.176  14.046  10.230
77408W        W48008   5.803   5.743  13.452
77409W        W48009  24.298  13.150  14.816
77410W        W48010   0.810   5.806   4.763
77411W        W48011   9.677  11.969  14.038
77412W        W48012  24.042  42.715  11.988
77413W        W48013  13.246   6.223  14.029
77414W        W48014  18.677  38.340   0.724
77415W        W48015   3.606  13.183  14.678
77416W        W48016  36.585  44.514  12.486
77417W        W48017  40.115  19.093   3.974
77418W        W48018   9.868  38.568   1.637
77419W        W48019  18.788   9.679   0.478
77420W        W48020  10.047   5.430   5.353
77421W        W48021   5.774  22.493  11.958
77422W        W48022  28.876   9.824  14.512
77423W        W48023  25.898  34.454   0.394
77424W        W48024  14.015   9.069  14.003
77425W        W48025  39.491  17.835  13.373
77426W        W48026   5.976   9.672   2.803
77427W        W48027  35.347  23.467   2.251
77428W        W48028  32.683  37.809   4.510
77429W        W48029   8.073  37.675   3.114
77430W        W48030  29.208  41.569  10.318
77431W        W48031  33.584   9.706   4.782
77432W        W48032  32.030  28.459   2.679
77433W        W48033  10.437  22.560  13.148
77434W        W48034   4.956  29.663   4.083
77435W        W48035  42.580  42.790   1.818
77436W        W48036  16.854   6.254  14.408
77437W        W48037  39.000   6.645   3.668
77438W        W48038   7.903  35.225   0.343
77439W        W48039  17.627  40.789   0.447
77440W        W48040  25.603   8.684  13.704
77441W        W48041  11.368  24.542   2.693
77442W        W48042  37.358  37.121   3.134
77443W        W48043  41.797  26.224   2.479
77444W        W48044  32.935  17.589  14.830
77445W        W48045  17.558  33.059  13.572
77446W        W48046   2.451   6.621  10.119
77447W        W48047  37.576  44.982  14.286
77448W        W48048  29.051  27.469  14.245
77449W        W48049  40.052  27.695  10.700
77450W        W48050  39.587  21.921  11.067
77451W        W48051   0.421  14.669   2.366
77452W        W48052  17.152  28.953  13.523
77453W        W48053   3.699  36.642  10.269
77454W        W48054  43.742  15.223  13.957
77455W        W48055  27.938  35.966   1.201
77456W        W48056  19.598  38.316   0.083
77457W        W48057  14.958  27.350  11.143
77458W        W48058  20.242   4.377   4.486
77459W        W48059  16.509  44.749   0.079
77460W        W48060  11.190  12.520   2.763
77461W        W48061   3.965  34.780   3.026
77462W        W48062  19.321  43.746  13.792
77463W        W48063  44.385  39.821   4.292
77464W        W48064  41.550   7.056   1.125
77465W        W48065  22.621  43.246   3.710
77466W        W48066  28.540  35.399   0.726
77467W        W48067  25.734  36.497   0.930
77468W        W48068   3.177  36.354   1.995
77469W        W48069  19.022   4.458   3.807
77470W        W48070  27.478  32.369  14.816
77471W        W48071   3.360  19.563  11.226
77472W        W48072  33.517   0.034   2.667
77473W        W48073  19.539  43.481  14.913
77474W        W48074  19.678  27.169  12.531
77475W        W48075  18.619  15.142  10.546
77476W        W48076  11.484  19.591  13.036
77477W        W48077   3.827  37.666  11.098
77478W        W48078   7.890   4.953   3.131
77479W        W48079  41.278   5.380  12.167
77480W        W48080  30.141  20.082   4.555
77481W        W48081  13.988  33.608   1.737
77482W        W48082  28.847  22.373   1.256
77483W        W48083   6.431   4.874   3.758
77484W        W48084  25.914  27.721  11.373
77485W        W48085  40.062  33.607  10.616
77486W        W48086  44.942  19.823  14.450
77487W        W48087   3.288  36.359   0.212
77488W        W48088   8.739  27.248   4.139
77489W        W48089  24.127  10.611   1.229
77490W        W48090   9.341  17.064   4.508
77491W        W48091  42.824  31.864   2.199
77492W        W48092  31.697  41.493   0.920
77493W        W48093  24.023  39.360   0.465
77494W        W48094   9.712  25.992   2.890
77495W        W48095  28.952  35.564  13.037
77496W        W48096   0.458   7.802  14.065
77497W        W48097  29.533  44.842  11.814
77498W        W48098   1.182  16.328  14.864
77499W        W48099   8.366  34.047  13.969
77500W        W48100  25.312  34.534  12.555
77501W        W48101  19.642   0.870  13.819
77502W        W48102  42.739  31.034  12.420
77503W        W48103   5.518   5.862  13.024
77504W        W48104  32.904  38.935  14.481
77505W        W48105  10.562  39.000  11.966
77506W        W48106  17.658  19.594  12.381
77507W        W48107  42.920   7.901   3.182
77508W        W48108  30.534  36.665  11.113
77509W        W48109  26.248  20.971  13.880
77510W        W48110  17.057  22.494   0.943
77511W        W48111  29.680   3.275  12.098
77512W        W48112  22.646   0.482  11.259
77513W        W48113  32.535   4.392  14.556
77514W        W48114  42.390  31.819  10.827
77515W        W48115   8.614  38.355   2.844
77516W        W48116  13.141  21.316  12.358
77517W        W48117  29.164  40.297  14.606
77518W        W48118  43.329   7.781  10.743
77519W        W48119   0.050  41.955  14.825
77520W        W48120  31.581   7.599  10.456
77521W        W48121  42.926  22.591   1.762
77522W        W48122  13.189  24.952  12.422
77523W        W48123  10.900   0.184  13.709
77524W        W48124  29.720  34.013   3.423
77525W        W48125   1.266   9.162  12.711
77526W        W48126  18.837  23.616   3.708
77527W        W48127  26.630  41.273   3.644
77528W        W48128  34.165  44.524   2.479
77529W        W48129  22.484  27.670  14.524
77530W        W48130  41.592  27.484  12.142
77531W        W48131  36.427  21.232  14.320
77532W        W48132  33.414  23.522  12.107
77533W        W48133  34.616  25.183   1.756
77534W        W48134   8.186   9.812  12.717
77535W        W48135   2.232  29.936   3.672
77536W        W48136   6.208   7.142  11.885
77537W        W48137   5.423  18.184   2.916
77538W        W48138  40.775  17.732   3.069
77539W        W48139  16.547   4.525  11.124
77540W        W48140  24.979  18.535   1.892
77541W        W48141  44.405  35.008   5.124
77542W        W48142  39.175  18.135  14.862
77543W        W48143  19.131  13.767   4.270
77544W        W48144  40.865  33.948  12.400
77545W        W48145  11.413  34.031  12.097
77546W        W48146  36.375  11.796   4.979
77547W        W48147   2.019  26.192  11.542
77548W        W48148  25.033  16.850   0.408
77549W        W48149  44.996  29.453  14.928
77550W        W48150   3.027  42.318  12.506
77551W        W48151  14.591  26.737  12.947
77552W        W48152  27.566  38.498  10.710
77553W        W48153  21.284  10.582  14.778
77554W        W48154  16.653  15.024   4.894
77555W        W48155  26.080  10.597  14.940
77556W        W48156  25.033  24.173   3.037
77557W        W48157  21.381  25.220  11.928
77558W        W48158  20.365  40.846   3.184
77559W        W48159  41.333  27.906   0.406
77560W        W48160  28.359  31.514   4.765
77561W        W48161  10.160  26.532  13.567
77562W        W48162  14.638  23.495  13.915
77563W        W48163  44.411  18.768   4.107
77564W        W48164  41.977  22.513  14.486
77565W        W48165   4.019  36.029  12.042
77566W        W48166  26.493  39.161   3.790
77567W        W48167  23.157  30.624  10.542
77568W        W48168  42.290  39.602   0.947
77569W        W48169  23.769  31.582   2.817
77570W        W48170  12.996  42.953   1.320
77571W        W48171  33.705  40.323   4.986
77572W        W48172  22.229  14.348   1.363
77573W        W48173  17.063   1.235  11.582
77574W        W48174  43.925   5.096  11.609
77575W        W48175  39.798  12.774  13.861
77576W        W48176  27.963   1.923  10.495
77577W        W48177  44.494  11.206   4.461
77578W        W48178  12.804  17.245   2.970
77579W        W48179   6.110  31.232  14.932
77580W        W48180   3.843  37.534   4.283
77581W        W48181  27.573  21.698  11.185
77582W        W48182  39.520  16.174   3.524
77583W        W48183  10.843  30.003   2.263
77584W        W48184  44.419  16.637  10.738
77585W        W48185  27.673  38.756   2.835
77586W        W48186  27.494  31.462   2.230
77587W        W48187  10.664  26.209  10.893
77588W        W48188   4.532   3.902   0.529
77589W        W48189   4.154  32.432   3.986
77590W        W48190  44.214  13.063   0.423
77591W        W48191  23.121  40.898   1.214
77592W        W48192  29.757   7.104  14.400
77593W        W48193   7.194   0.735   3.260
77594W        W48194  31.628  43.797  12.028
77595W        W48195  25.670  12.315  13.101
77596W        W48196  41.855   7.202   2.229
77597W        W48197   2.241  37.795   0.352
77598W        W48198  35.576   2.997   4.286
77599W        W48199  35.526  12.217   4.847
77600W        W48200  44.792  14.282   1.954
77601W        W48201  44.832  10.128   3.731
77602W        W48202  22.870  44.724  13.873
77603W        W48203  16.705  22.667  14.993
77604W        W48204   1.680  25.554   4.007
77605W        W48205   7.839  34.309   1.277
77606W        W48206  10.706  24.634  14.837
77607W        W48207  28.911  23.317  12.108
77608W        W48208  14.585  37.582   1.389
77609W        W48209  24.408   6.922  12.066
77610W        W48210  43.435  18.785   3.175
77611W        W48211  20.683  36.597   3.402
77612W        W48212  12.375  14.204  13.914
77613W        W48213  16.200  16.871   3.137
77614W        W48214   9.092   5.893   2.810
77615W        W48215  13.453  20.680  11.600
77616W        W48216  13.556  37.091  11.716
77617W        W48217  10.094  30.516  12.970
77618W        W48218  43.860   1.410   3.563
77619W        W48219   6.745   1.205  14.361
77620W        W48220  15.837  40.530   0.319
77621W        W48221  36.513   5.941  13.629
77622W        W48222  17.300  16.233  12.489
77623W        W48223   4.827   6.441   4.510
77624W        W48224  39.469   3.426  11.032
77625W        W48225  16.344  41.909   4.911
77626W        W48226  30.515  19.059  14.752
77627W        W48227  41.807  17.515  11.562
77628W        W48228  12.585  22.319   2.343
77629W        W48229  26.345  33.479   4.952
77630W        W48230   2.907  34.471   1.374
77631W        W48231  27.167  23.458   0.524
77632W        W48232   5.297  41.354   2.650
77633W        W48233  37.390   7.886   0.432
77634W        W48234  34.452  15.029  13.880
77635W        W48235  23.437  14.639  11.180
77636W        W48236  33.056  44.980   4.123
77637W        W48237   3.409  20.027   0.862
77638W        W48238  17.372  36.161   2.610
77639W        W48239  41.890  34.378   4.629
77640W        W48240  27.421  37.937  11.599
77641W        W48241  26.920  38.556  11.918
77642W        W48242  30.839   9.774   3.272
77643W        W48243  13.673  27.726  10.758
77644W        W48244  37.857   4.781  14.753
77645W        W48245  40.394   3.098   2.171
77646W        W48246  35.410  13.105  12.128
77647W        W48247  12.039  39.987  12.425
77648W        W48248  23.472  17.167  14.308
77649W        W48249  12.225  13.104   0.069
77650W        W48250   5.325  28.349   0.416
77651W        W48251  15.188  38.512   2.911
77652W        W48252  26.141  15.801   1.362
77653W        W48253  11.474  36.064   4.571
77654W        W48254  19.038   0.967   4.045
77655W        W48255   8.164  36.146  14.366
77656W        W48256  29.121  14.858  11.513
77657W        W48257  44.883  28.375  11.703
77658W        W48258  39.260  28.190  13.788
77659W        W48259  18.040  33.472   4.517
77660W        W48260   9.219  35.521   0.916
77661W        W48261   0.271  41.419   2.619
77662W        W48262  35.464  10.608   4.031
77663W        W48263  34.048   2.926  11.638
77664W        W48264  31.413  28.007   1.317
77665W        W48265  34.140  16.686  11.925
77666W        W48266  11.754  30.547   1.190
77667W        W48267  18.062   1.064   3.677
77668W        W48268   7.948   4.335  11.057
77669W        W48269  35.323  17.170  14.902
77670W        W48270   4.743  22.984   1.433
77671W        W48271  43.022  30.146   4.699
77672W        W48272  35.417  10.216  11.150
77673W        W48273  13.671  34.327   0.560
77674W        W48274  14.090  26.257   5.012
77675W        W48275   8.738  32.203  14.101
77676W        W48276  28.481  22.504   3.680
77677W        W48277  26.222  36.325  14.993
77678W        W48278  31.006  16.623  13.339
77679W        W48279  31.380  37.319  10.677
77680W        W48280   0.745  32.658   3.735
77681W        W48281  30.252  33.926   4.055
77682W        W48282  26.562  40.312  12.490
77683W        W48283  41.799  11.097  11.520
77684W        W48284  30.587  14.049   0.563
77685W        W48285  32.033  25.411  11.510
77686W        W48286  16.007   8.837  14.123
77687W        W48287  14.846  38.003  11.520
77688W        W48288  14.066  20.105  14.500
77689W        W48289   7.720   9.770   2.504
77690W        W48290  27.301  35.123  14.714
77691W        W48291   7.568  12.789   0.172
77692W        W48292   5.495  25.233   3.992
77693W        W48293   3.044  14.695  12.170
77694W        W48294   0.424  12.069   0.340
77695W        W48295   9.815  33.912  14.750
77696W        W48296   4.845   0.467  12.614
77697W        W48297   9.011   9.796  10.974
77698W        W48298  29.175  25.036   1.360
77699W        W48299   5.384  32.536  13.367
77700W        W48300  14.527  28.572   1.868
77701W        W48301  14.884  16.487   4.172
77702W        W48302  40.244   0.423   0.732
77703W        W48303  13.219  26.803  12.823
77704W        W48304  13.421  23.892   3.883
77705W        W48305  13.207   9.385  13.476
77706W        W48306  25.951  36.582   1.421
77707W        W48307  44.359  38.196  13.633
77708W        W48308  18.158   5.312  10.577
77709W        W48309  31.121   7.748   0.446
77710W        W48310  21.001   4.386   2.715
77711W        W48311  27.721  40.611  13.969
77712W        W48312   4.047   2.540   0.834
77713W        W48313  43.049  18.782   2.211
77714W        W48314   9.098   6.843  11.572
77715W        W48315  38.087  14.770   0.843
77716W        W48316  26.475  10.013   5.355
77717W        W48317  31.058  21.813   2.231
77718W        W48318  32.102  31.657   3.193
77719W        W48319  20.734  33.910   1.844
77720W        W48320  35.495  14.113   3.856
77721W        W48321  39.078  15.210   4.295
77722W        W48322  42.353  16.356  12.098
77723W        W48323  20.134   9.312   1.908
77724W        W48324   2.207  34.533   0.681
77725W        W48325  39.088  33.515  11.612
77726W        W48326   7.881   3.609   3.358
77727W        W48327  25.724  21.206   0.938
77728W        W48328  39.547  18.810   1.825
77729W        W48329   1.969   6.454  10.681
77730W        W48330  37.644   1.907  11.414
77731W        W48331  40.801  11.744   3.896
77732W        W48332  26.804  38.131  14.317
77733W        W48333  17.784  22.930   3.623
77734W        W48334  36.632  22.594  12.589
77735W        W48335  39.486  18.728   0.768
77736W        W48336  41.834  31.991  10.737
77737W        W48337   5.649   0.387  11.586
77738W        W48338  21.548  38.848   0.791
77739W        W48339  39.963  28.642   4.863
77740W        W48340  32.829   9.436   1.811
77741W        W48341  32.206   3.705  13.463
77742W        W48342  34.568  33.396  10.432
77743W        W48343  38.426  39.504  13.482
77744W        W48344  39.962  30.659   4.515
77745W        W48345   8.219  42.742  13.422
77746W        W48346  38.331  11.309  11.557
77747W        W48347  10.658  18.622   2.255
77748W        W48348  19.358   1.398   2.411
77749W        W48349   7.442  32.643   1.582
77750W        W48350  44.409   3.401   1.864
77751W        W48351  18.719  17.738   3.774
77752W        W48352  33.505   7.754   0.915
77753W        W48353  15.786  11.610   3.313
77754W        W48354   3.337  42.885   4.669
77755W        W48355  16.800   2.082  13.890
77756W        W48356   1.547  23.922   4.200
77757W        W48357   1.902  10.223   1.686
77758W        W48358   7.667   4.832  12.450
77759W        W48359  31.991   4.137   0.197
77760W        W48360   9.218  25.877   2.763
77761W        W48361  23.884   5.353  12.497
77762W        W48362  29.247  21.638   0.884
77763W        W48363   8.529   2.135   4.932
77764W        W48364  43.566  20.000   3.677
77765W        W48365   4.852  32.007  11.055
77766W        W48366  42.059  38.078  11.373
77767W        W48367   9.718  37.559  11.797
77768W        W48368  42.028  42.897  13.125
77769W        W48369   9.959  43.762   2.880
77770W        W48370  37.975  12.248   1.220
77771W        W48371  12.481  38.053  12.498
77772W        W48372  17.822  38.471  12.041
77773W        W48373  42.923  35.824  14.533
77774W        W48374  36.514  18.153  14.947
77775W        W48375  41.368  19.112  14.409
77776W        W48376  41.153  25.263   2.208
77777W        W48377  18.848   1.480   2.240
77778W        W48378  38.388   4.900   3.276
77779W        W48379   4.462  43.855   0.227
77780W        W48380   4.802  16.329  11.461
77781W        W48381  24.670  27.497  14.886
77782W        W48382  41.494  23.650  14.715
77783W        W48383  28.729  12.201  11.532
77784W        W48384   6.341   2.236   0.813
77785W        W48385   7.165  23.816   0.875
77786W        W48386  27.594   8.835  13.559
77787W        W48387  39.327   0.261   1.446
77788W        W48388  38.781   0.018   4.081
77789W        W48389  32.355  26.118  13.857
77790W        W48390   0.954   0.921  12.159
77791W        W48391  42.975  30.232  10.576
77792W        W48392  31.564   5.771   3.307
77793W        W48393   3.402  35.862  12.510
77794W        W48394  25.891  19.747   1.816
77795W        W48395  14.581  16.769  13.638
77796W        W48396  25.008  17.627   4.888
77797W        W48397  37.025  42.155  13.466
77798W        W48398   1.182  44.262  10.191
77799W        W48399  29.974  18.505  14.799
77800W        W48400  22.453  40.161   2.474
77801W        W48401  28.745  27.612   2.292
77802W        W48402   9.197  29.484  12.698
77803W        W48403  38.019  16.526  11.013
77804W        W48404   1.293  44.513  11.589
77805W        W48405   5.161   7.412  10.513
77806W        W48406  34.832  20.306  14.954
77807W        W48407  44.804  31.317   0.188
77808W        W48408  38.936  44.664   0.845
77809W        W48409  19.223  33.579  13.912
77810W        W48410  16.202  35.409   2.182
77811W        W48411   6.532   8.719  11.092
77812W        W48412  41.882  28.069   2.561
77813W        W48413   7.480   1.314  12.896
77814W        W48414  16.522  42.986  10.975
77815W        W48415   7.393   1.797  10.651
77816W        W48416  31.271  38.383   3.754
77817W        W48417   1.931  26.644  14.205
77818W        W48418  23.088   6.689   4.601
77819W        W48419   9.623  22.326   0.177
77820W        W48420  14.874   7.936   3.681
77821W        W48421  32.918  17.072  11.596
77822W        W48422  30.090   2.020  14.331
77823W        W48423  43.923  18.387   0.729
77824W        W48424  37.843  18.735   2.273
77825W        W48425  24.239  25.103  10.768
77826W        W48426  30.067  44.007   2.334
77827W        W48427   0.768   8.185   4.850
77828W        W48428   6.701   6.668  11.012
77829W        W48429  41.923  28.259   1.154
77830W        W48430  21.683  11.796  10.020
77831W        W48431  24.936  35.996   2.853
77832W        W48432  41.907  15.331  14.320
77833W        W48433  11.804   4.841   1.264
77834W        W48434   5.982   3.817   4.545
77835W        W48435  33.864   2.692  12.723
77836W        W48436  19.993  14.433   4.428
77837W        W48437  39.870   9.924  13.827
77838W        W48438  19.484   2.279  13.614
77839W        W48439  26.633  35.656  11.070
77840W        W48440  36.240  18.603   3.198
77841W        W48441  11.232   1.902  12.784
77842W        W48442  32.988  11.588  13.961
77843W        W48443  33.853  17.367   4.935
77844W        W48444  19.286  28.153   4.805
77845W        W48445  28.447   1.317   2.696
77846W        W48446  43.462  12.579   1.667
77847W        W48447  10.993  30.042  14.270
77848W        W48448   7.350  30.857  11.006
77849W        W48449  29.086   1.814   2.388
77850W        W48450  11.455  25.208  13.668
77851W        W48451  42.085  23.055   4.116
77852W        W48452  19.346  35.397   2.051
77853W        W48453   6.734  12.385  13.072
77854W        W48454  35.694   3.910   1.779
77855W        W48455  22.068  22.983   2.614
77856W        W48456  24.889  27.599  11.638
77857W        W48457  15.215  18.695  11.103
77858W        W48458  33.541  36.549  10.361
77859W        W48459  23.004  39.946   4.060
77860W        W48460  30.064  13.162   2.116
77861W        W48461  42.067  27.167   4.518
77862W        W48462  25.125  44.480  13.615
77863W        W48463  35.596  10.264   2.753
77864W        W48464   4.952  20.998   5.042
77865W        W48465  23.294  37.509  14.723
77866W        W48466  12.911  20.710  12.328
77867W        W48467  30.896  14.316   3.805
77868W        W48468  28.466  23.565  12.039
77869W        W48469   3.357  21.926  13.589
77870W        W48470  13.688   4.207   2.206
77871W        W48471  21.234  21.689   2.287
77872W        W48472   6.189  13.501   2.148
77873W        W48473  28.760  44.492  14.852
77874W        W48474  38.553  43.853  14.762
77875W        W48475  14.628  35.054   1.365
77876W        W48476   2.697  12.045  10.728
77877W        W48477  37.182  26.614   3.241
77878W        W48478   3.766  22.386  10.646
77879W        W48479  39.584  14.826  13.140
77880W        W48480  23.616  36.809  13.859
77881W        W48481  21.721  31.593   4.537
77882W        W48482   9.949  13.841  12.892
77883W        W48483  10.807  41.420   1.090
77884W        W48484  28.600   0.230   4.304
77885W        W48485   0.005  38.222  11.805
77886W        W48486  26.997  32.676  11.116
77887W        W48487  26.930  35.984   3.354
77888W        W48488   0.852  17.102  12.787
77889W        W48489  24.963  43.838   0.709
77890W        W48490  41.734  17.753   1.387
77891W        W48491  30.649   9.317  14.234
77892W        W48492  40.571  24.106   1.931
77893W        W48493  27.620  13.918   0.494
77894W        W48494  36.834  17.815   4.879
77895W        W48495  21.943   1.124  14.356
77896W        W48496  19.127  19.323  14.364
77897W        W48497  14.658  14.761  13.422
77898W        W48498  16.261  30.006   1.055
77899W        W48499  39.461  42.657   1.910
77900W        W48500  15.923  34.515  13.984
77901W        W48501   6.227   0.858  13.933
77902W        W48502   4.806  11.903  13.964
77903W        W48503   2.016  32.974  14.258
77904W        W48504  31.961  44.834   2.706
77905W        W48505  33.984   0.359   1.499
77906W        W48506  16.695  36.102  10.379
77907W        W48507  40.751  35.625  13.154
77908W        W48508  44.892  38.298  12.814
77909W        W48509  22.333   1.953   1.206
77910W        W48510  44.813  22.696   3.914
77911W        W48511  17.998  30.933  13.356
77912W        W48512  23.624   8.192   0.933
77913W        W48513   1.235  38.424   4.233
77914W        W48514   0.983  37.148   2.794
77915W        W48515  39.872  30.723  11.171
77916W        W48516  13.679  28.931  11.178
77917W        W48517   4.029  24.633  12.979
77918W        W48518  41.224   7.964   0.962
77919W        W48519  17.957  25.963  13.563
77920W        W48520  26.193   6.660   2.482
77921W        W48521  25.641  27.130  12.545
77922W        W48522   6.787   6.645   1.878
77923W        W48523  41.584   8.446   2.273
77924W        W48524  27.939  12.577   2.323
77925W        W48525  42.331   5.201  12.521
77926W        W48526  23.961  22.639   2.618
77927W        W48527  28.449   2.343   1.811
77928W        W48528  17.192  18.290  14.466
77929W        W48529  28.740  19.688  14.387
77930W        W48530  16.247  36.464   0.342
77931W        W48531  38.368  22.439  14.814
77932W        W48532   4.465   2.872   0.832
77933W        W48533   8.789   2.963  11.986
77934W        W48534  42.585  28.223   0.930
77935W        W48535  39.138  11.309  11.184
77936W        W48536  42.550  10.399  11.309
77937W        W48537   4.290  12.776   1.654
77938W        W48538  40.285   8.240  11.226
77939W        W48539  25.797  43.951   3.608
77940W        W48540  28.139  36.343   1.946
77941W        W48541  23.865  18.043  11.987
77942W        W48542  21.061  26.129   4.592
77943W        W48543   0.109   5.477   4.800
77944W        W48544  33.617  28.017   1.032
77945W        W48545  41.877  10.569  12.869
77946W        W48546  31.001  37.346   4.664
77947W        W48547   2.304  38.847  10.665
77948W        W48548  42.596   0.308  14.847
77949W        W48549  16.099  34.384   2.963
77950W        W48550  27.966  40.553   4.572
77951W        W48551  15.624  27.015  12.632
77952W        W48552  27.897  26.513   3.554
77953W        W48553   5.093  32.799   2.634
77954W        W48554   1.516   3.303   4.621
77955W        W48555  38.256  43.099   3.629
77956W        W48556  30.375  20.259   2.677
77957W        W48557  16.738  17.156   0.015
77958W        W48558  42.818  32.638   2.722
77959W        W48559   7.927  17.176  13.151
77960W        W48560  17.988  14.775  12.967
77961W        W48561   5.919  34.424  13.892
77962W        W48562  18.666  25.428   4.036
77963W        W48563   6.834  42.631   3.743
77964W        W48564  14.453  17.151   3.595
77965W        W48565  16.631  17.329   2.370
77966W        W48566   8.819  10.389   3.674
77967W        W48567   2.443  18.036  14.880
77968W        W48568   1.794  24.397  13.884
77969W        W48569   6.695   7.742  14.426
77970W        W48570   1.679  40.752  12.027
77971W        W48571  20.780   7.785  13.973
77972W        W48572  40.057   3.689   1.233
77973W        W48573  37.620   2.144   2.630
77974W        W48574  17.150  19.428   4.451
77975W        W48575   4.346  32.445  12.549
77976W        W48576  35.479   1.306   3.880
77977W        W48577  35.546   8.984  14.236
77978W        W48578  32.978  12.267   2.286
77979W        W48579  26.934  38.739  14.306
77980W        W48580   1.894  11.335   1.059
77981W        W48581   6.045  15.412  11.152
77982W        W48582  39.363   1.556   4.590
77983W        W48583  11.668  25.694  12.157
77984W        W48584   1.139  26.190   3.626
77985W        W48585  35.857  25.737  11.585
77986W        W48586  10.709  17.620  11.616
77987W        W48587  21.195  24.493  13.452
77988W        W48588   5.783  40.895  13.650
77989W        W48589  23.581  20.069   4.865
77990W        W48590  44.893  25.970   2.744
77991W        W48591  22.802  31.706   9.717
77992W        W48592  36.144   8.086  12.043
77993W        W48593  32.097  35.545  10.596
77994W        W48594  36.676  32.402  11.147
77995W        W48595  44.214  13.314  10.939
77996W        W48596  41.019  34.615  11.235
77997W        W48597  38.477  10.106  13.942
77998W        W48598   1.577  34.763  11.242
77999W        W48599  29.024  40.969  13.802
78000W        W48600  13.626  12.892  11.136
78001W        W48601  26.709  19.549  10.777
78002W        W48602  41.845  21.039   0.533
78003W        W48603  24.716   9.174  13.903
78004W        W48604  24.972   6.551   4.127
78005W        W48605  21.280  29.700  10.913
78006W        W48606  30.934  11.218   0.725
78007W        W48607  22.355  11.333   1.820
78008W        W48608  34.335  17.175  13.033
78009W        W48609  10.857  40.099  11.072
78010W        W48610  18.262  10.215  13.457
78011W        W48611  36.544   4.990   3.388
78012W        W48612  16.201   6.993  11.421
78013W        W48613   4.459  21.819  14.486
78014W        W48614  39.761  38.897  12.154
78015W        W48615   4.283   2.622   1.344
78016W        W48616  39.270  22.489  11.574
78017W        W48617  27.868  41.016  11.420
78018W        W48618  33.906   0.137   0.316
78019W        W48619  34.068  31.548   4.535
78020W        W48620  23.662  22.498   4.121
78021W        W48621  16.284   4.341  13.113
78022W        W48622  13.189  41.115  11.111
78023W        W48623  12.585  20.235  13.391
78024W        W48624   9.348  34.270  14.851
78025W        W48625  36.304   6.957   1.248
78026W        W48626   2.216  22.986  12.352
78027W        W48627  18.732  12.056  12.493
78028W        W48628   8.042  13.373   4.244
78029W        W48629   3.769  34.083  11.972
78030W        W48630  10.065  29.556  12.902
78031W        W48631  43.983   3.409   0.023
78032W        W48632  23.901   2.535   3.135
78033W        W48633  35.487  10.362  13.782
78034W        W48634  35.882  12.352   3.253
78035W        W48635   2.692  16.240  12.454
78036W        W48636  40.217  21.744   4.886
78037W        W48637  41.097  29.024  11.988
78038W        W48638  38.707  36.934  14.773
78039W        W48639  40.489  40.327  14.933
78040W        W48640  40.379  37.677  11.014
78041W        W48641  35.096   5.653   3.804
78042W        W48642  17.628  23.636  13.745
78043W        W48643  37.604  25.276  13.142
78044W        W48644  20.229   1.726  12.870
78045W        W48645  41.700  25.564  13.183
78046W        W48646   2.947   6.306   2.860
78047W        W48647  23.130   2.741   1.000
78048W        W48648   2.970   3.392   2.418
78049W        W48649  18.102  25.586  14.834
78050W        W48650  24.093  32.131  14.959
78051W        W48651  20.033  25.269   4.095
78052W        W48652  44.761  13.234   3.119
78053W        W48653   1.739   4.940   3.162
78054W        W48654  40.959  30.008   2.804
78055W        W48655   3.419  44.257   1.788
78056W        W48656   4.230  21.536  14.121
78057W        W48657  41.304  36.457  14.243
78058W        W48658   5.934  37.085  10.608
78059W        W48659  13.480   4.392  11.090
78060W        W48660  34.065  17.261   2.593
78061W        W48661  15.241  13.381   0.366
78062W        W48662  36.456   4.878  13.004
78063W        W48663  29.247   1.336  11.370
78064W        W48664   2.978   3.402  11.521
78065W        W48665  27.518   2.671  11.871
78066W        W48666  41.718  27.029  10.792
78067W        W48667   0.854  20.628  11.587
78068W        W48668  35.029  13.346   2.211
78069W        W48669  33.286  42.972  14.847
78070W        W48670  39.826  33.612  11.071
78071W        W48671  19.629  34.477  14.465
78072W        W48672  29.620  41.626   3.462
78073W        W48673  44.001   1.496   1.297
78074W        W48674  17.826  25.573   2.260
78075W        W48675  18.188  21.811   0.366
78076W        W48676  19.806  21.518   4.535
78077W        W48677   3.914  29.490   4.233
78078W        W48678  41.386  43.240   0.747
78079W        W48679  14.135  27.121   0.760
78080W        W48680  39.424  16.986   3.846
78081W        W48681   4.190  39.563   1.523
78082W        W48682  22.269  10.690   3.355
78083W        W48683  21.034  23.723  10.523
78084W        W48684  19.553   5.676   2.195
78085W        W48685  10.064   6.858   4.772
78086W        W48686  42.696  31.305  10.172
78087W        W48687  27.194  20.012   1.289
78088W        W48688   3.260  15.075   0.965
78089W        W48689  14.499  17.251   1.418
78090W        W48690  35.792   4.637   4.596
78091W        W48691  14.733  41.017   3.663
78092W        W48692   4.666   0.217   3.775
78093W        W48693  39.990  29.484  13.928
78094W        W48694  37.793   0.506  11.681
78095W        W48695   6.781  27.095  12.029
78096W        W48696   8.208  23.187  12.836
78097W        W48697  26.508   7.891   2.003
78098W        W48698  12.833  16.621  12.858
78099W        W48699  42.245  43.952   3.524
78100W        W48700  11.712  39.033   4.089
78101W        W48701  18.510   7.231  12.597
78102W        W48702   8.784  43.043   1.219
78103W        W48703  32.019  40.797   9.924
78104W        W48704   6.511  13.117   4.129
78105W        W48705  33.902  17.532   1.294
78106W        W48706  11.884  32.438   0.258
78107W        W48707   9.309  20.187   3.427
78108W        W48708  33.141  19.702   3.549
78109W        W48709  21.754   4.578   5.039
78110W        W48710   2.874  17.167   0.555
78111W        W48711  14.382  34.406   2.219
78112W        W48712  19.003   7.687  13.892
78113W        W48713  43.354  22.391  14.952
78114W        W48714   6.910  10.604  13.790
78115W        W48715  13.196  34.961  11.367
78116W        W48716  34.576  36.282   1.797
78117W        W48717  23.783  31.665   4.572
78118W        W48718  14.944  20.368   2.118
78119W        W48719  28.636  20.845   0.835
78120W        W48720  23.468  43.928  13.516
78121W        W48721  28.600  40.586   3.243
78122W        W48722  31.123  34.096   3.251
78123W        W48723  44.932  27.769   4.235
78124W        W48724  33.786  31.673   4.961
78125W        W48725  30.658  27.806  11.058
78126W        W48726  19.270   0.637   1.332
78127W        W48727  39.562  25.638   0.332
78128W        W48728  32.525  29.498   3.276
78129W        W48729  18.132  15.274  10.426
78130W        W48730  30.823  42.604   2.314
78131W        W48731  13.767  36.888   2.935
78132W        W48732   2.268  37.347  10.701
78133W        W48733  23.752  14.754   4.078
78134W        W48734  27.020  43.089  12.393
78135W        W48735  41.858   1.013  10.742
78136W        W48736  39.422   7.196   4.133
78137W        W48737  20.581  43.806   3.240
78138W        W48738  26.847  28.053   1.219
78139W        W48739  30.850   3.351  14.366
78140W        W48740  17.880   9.382   0.978
78141W        W48741  36.652   6.444  14.338
78142W        W48742  40.979  33.586   3.341
78143W        W48743  38.264  34.008   4.190
78144W        W48744   5.794  10.601   0.324
78145W        W48745  27.058  11.048   0.776
78146W        W48746  15.308  15.243  14.394
78147W        W48747  33.775  26.500  11.147
78148W        W48748   7.766  20.011  12.420
78149W        W48749  21.963   2.960   1.219
78150W        W48750  20.488  24.013  12.888
78151W        W48751  11.270   1.873   1.657
78152W        W48752  17.133  44.926  13.256
78153W        W48753  21.060  18.008   3.703
78154W        W48754  22.131   2.676   0.222
78155W        W48755  41.466  41.883   0.410
78156W        W48756  21.070   1.710  14.230
78157W        W48757   2.500  21.196   2.266
78158W        W48758  16.575  13.864  13.953
78159W        W48759  13.593  26.747  13.542
78160W        W48760  29.879  28.173   3.244
78161W        W48761  28.593  15.565  11.193
78162W        W48762  10.204  10.850  13.081
78163W        W48763  20.118  29.573  10.942
78164W        W48764   4.012  15.056   1.877
78165W        W48765  17.705  10.078  11.469
78166W        W48766   5.203  11.064   1.308
78167W        W48767  13.086  40.538  12.589
78168W        W48768  25.195  16.599   1.763
78169W        W48769  34.008  40.471   3.282
78170W        W48770  43.500  31.153  12.912
78171W        W48771  18.023  42.903   1.716
78172W        W48772  40.241   7.284   3.690
78173W        W48773  43.422   7.423   1.970
78174W        W48774  12.609  10.200  11.168
78175W        W48775  36.912  30.408  12.393
78176W        W48776  40.164  32.821   2.255
78177W        W48777   2.236  14.407  10.794
78178W        W48778  10.510   8.266  14.459
78179W        W48779  15.834  44.070  13.839
78180W        W48780  31.082   5.391   3.533
78181W        W48781  40.926   2.784   0.850
78182W        W48782   3.665  41.403   1.836
78183W        W48783  33.572  23.067   0.896
78184W        W48784  13.391  24.376  13.670
78185W        W48785  27.170  35.975  13.146
78186W        W48786  26.190  17.760  13.076
78187W        W48787  36.035   5.248  14.141
78188W        W48788  31.002  24.752  14.772
78189W        W48789   6.403  33.093   3.059
78190W        W48790  42.440  19.949   2.218
78191W        W48791   5.992  19.777  13.304
78192W        W48792  31.086  36.417   4.185
78193W        W48793   6.122   5.712  11.607
78194W        W48794   4.280   3.507  11.075
78195W        W48795  41.815  33.561   1.541
78196W        W48796  37.544  41.871   3.182
78197W        W48797  44.352   9.731   0.370
78198W        W48798  12.294  20.199   1.818
78199W        W48799  19.458  42.535  13.724
78200W        W48800  22.061  16.063   4.473
78201W        W48801  17.545  44.021  14.419
78202W        W48802  10.366  39.270   2.157
78203W        W48803  42.377  24.279   2.637
78204W        W48804  11.524   2.620  14.316
78205W        W48805   7.239  15.104   2.693
78206W        W48806  33.811  41.428  12.343
78207W        W48807  37.553  28.762  13.179
78208W        W48808  19.162   8.891   1.884
78209W        W48809   0.428  38.506  12.062
78210W        W48810  10.605  28.755  13.974
78211W        W48811  13.824  25.503  14.977
78212W        W48812  33.532   6.895  11.527
78213W        W48813  18.216  22.721  13.233
78214W        W48814  22.368  23.504  12.424
78215W        W48815  12.208  15.296  11.379
78216W        W48816  26.587  32.477   3.610
78217W        W48817   0.012  42.266   1.475
78218W        W48818   9.979   0.866  10.636
78219W        W48819   8.956  18.366  12.207
78220W        W48820  16.728  34.968   0.951
78221W        W48821  25.271  28.705   1.856
78222W        W48822  24.124  39.860  11.683
78223W        W48823  12.530   6.801   2.290
78224W        W48824  41.964   6.991   0.410
78225W        W48825   7.491  33.533   3.322
78226W        W48826  44.959  25.629  11.165
78227W        W48827  38.024  36.122   4.220
78228W        W48828  43.487  28.662   1.724
78229W        W48829  33.846  12.690   2.009
78230W        W48830  23.193  10.177   3.518
78231W        W48831  36.661   3.515   1.885
78232W        W48832   2.197   0.817  14.273
78233W        W48833  21.018   3.224  13.423
78234W        W48834  36.375  36.564  10.672
78235W        W48835  40.116  22.065   0.052
78236W        W48836   2.195   4.937   0.889
78237W        W48837  20.719  21.558  13.125
78238W        W48838  23.539  13.321   3.309
78239W        W48839  14.676  24.432  11.238
78240W        W48840  40.507  24.769  10.955
78241W        W48841   6.139   6.783   2.506
78242W        W48842  41.707   2.914   4.519
78243W        W48843  14.744  38.848  14.508
78244W        W48844  17.336  26.523  12.405
78245W        W48845  38.029   7.599  11.775
78246W        W48846  35.589  31.534   1.833
78247W        W48847  22.646  27.500   0.974
78248W        W48848  42.889  39.045  11.175
78249W        W48849  16.834   7.920   1.383
78250W        W48850  40.598   9.130   0.503
78251W        W48851  12.071  44.761  13.578
78252W        W48852  22.775  25.969  12.555
78253W        W48853  28.775   9.168   0.318
78254W        W48854   7.940  21.526   2.848
78255W        W48855  39.285  43.853  10.741
78256W        W48856  15.577  44.750  14.754
78257W        W48857  11.779  10.723  13.214
78258W        W48858  17.716  11.640   3.212
78259W        W48859  43.264  34.495   3.324
78260W        W48860   8.068  21.732  12.039
78261W        W48861  38.991  19.545   4.495
78262W        W48862  38.148   1.974  14.288
78263W        W48863  40.698  37.799   1.954
78264W        W48864  40.405  27.584  11.929
78265W        W48865   5.223  35.853   0.844
78266W        W48866  41.279  43.749   4.753
78267W        W48867  39.370  31.898   4.729
78268W        W48868  25.258  25.355  13.358
78269W        W48869   6.179  27.497   0.801
78270W        W48870   8.867  18.230   2.816
78271W        W48871  41.620   3.852   2.337
78272W        W48872  42.911  15.498   3.250
78273W        W48873  23.084  10.875  10.761
78274W        W48874  40.638  32.316   0.925
78275W        W48875  21.571  38.578   3.527
78276W        W48876  13.114  18.543   3.057
78277W        W48877  42.587   1.418  12.099
78278W        W48878  32.446  18.842  11.486
78279W        W48879  44.229   4.364  12.419
78280W        W48880   0.301  17.514   3.680
78281W        W48881  25.740  36.798   0.489
78282W        W48882  31.951  38.952   0.472
78283W        W48883  11.677   0.710  11.146
78284W        W48884  18.746  35.422  14.033
78285W        W48885  28.142   6.295   3.689
78286W        W48886   5.157  10.036  14.900
78287W        W48887  34.750  26.119  13.385
78288W        W48888  26.907  39.902  13.287
78289W        W48889  13.840   6.765   1.858
78290W        W48890  39.974  37.827  10.697
78291W        W48891  15.245  25.012  11.418
78292W        W48892  43.675  18.206   1.134
78293W        W48893  26.429   0.496   2.169
78294W        W48894  37.972  23.656   2.776
78295W        W48895  18.455   5.289   2.820
78296W        W48896  39.483   6.344   0.726
78297W        W48897   4.805  40.542   4.540
78298W        W48898  26.712  21.066   0.916
78299W        W48899  42.387   7.990  13.954
78300W        W48900  41.280  22.944   1.660
78301W        W48901  18.589  17.219   3.160
78302W        W48902  13.519  27.649  13.476
78303W        W48903  25.213  17.213   4.550
78304W        W48904  12.086   9.671  10.769
78305W        W48905  34.995  26.046  14.921
78306W        W48906  37.314  16.095  13.044
78307W        W48907  32.213  39.535   0.723
78308W        W48908  36.608  44.475   4.282
78309W        W48909  13.254   6.413  12.565
78310W        W48910   3.912   4.895   2.198
78311W        W48911   1.954  43.822   0.829
78312W        W48912  33.690  18.197   2.672
78313W        W48913  29.281  40.308   1.830
78314W        W48914  44.030  33.954   0.657
78315W        W48915  15.263  13.070   4.175
78316W        W48916  18.127  26.476  12.041
78317W        W48917  25.455  41.777  14.430
78318W        W48918  35.854  12.288  12.447
78319W        W48919   5.248   4.693   4.722
78320W        W48920  24.688  13.652   3.849
78321W        W48921  28.476  23.537  14.430
78322W        W48922  17.642  22.008   0.408
78323W        W48923   2.941  18.731  13.930
78324W        W48924  43.483   6.212  10.287
78325W        W48925   6.221  37.289  11.460
78326W        W48926   5.227  20.581  13.558
78327W        W48927  32.806  38.230  12.638
78328W        W48928  27.204  43.797  11.133
78329W        W48929   1.104  22.158   3.192
78330W        W48930  11.458  24.659   0.469
78331W        W48931  32.765  20.675   2.829
78332W        W48932   8.111  39.567   4.686
78333W        W48933   3.056  30.447   4.426
78334W        W48934  43.926  25.007  12.454
78335W        W48935  11.094   5.241  10.726
78336W        W48936  13.125  26.488   3.577
78337W        W48937  33.653   5.066   0.560
78338W        W48938  34.299  18.557  11.973
78339W        W48939  30.378   4.934   2.537
78340W        W48940  26.206  17.904   2.854
78341W        W48941  28.003  31.899   4.736
78342W        W48942  10.502  11.912   2.690
78343W        W48943  21.020  25.959   5.136
78344W        W48944  17.626  33.679   1.234
78345W        W48945  33.513   1.727  13.376
78346W        W48946  30.178  14.727   1.834
78347W        W48947  34.922  11.863  13.506
78348W        W48948  31.796  21.083   0.278
78349W        W48949  38.174   6.327  13.528
78350W        W48950  26.237   3.473   0.686
78351W        W48951   6.821  35.039  14.369
78352W        W48952  27.617  30.116   1.748
78353W        W48953  10.792  14.807   4.430
78354W        W48954  25.206   0.395  11.058
78355W        W48955   2.301  40.127  12.206
78356W        W48956  33.018  14.157   0.779
78357W        W48957  32.169  21.792   4.192
78358W        W48958  34.963  44.150   4.121
78359W        W48959  19.412  23.517   0.886
78360W        W48960  33.135  42.573   3.188
78361W        W48961  16.827   7.948   3.698
78362W        W48962   7.455  22.647   2.324
78363W        W48963  31.992  29.349   4.992
78364W        W48964   0.621   7.815  10.472
78365W        W48965  13.810  41.877  11.583
78366W        W48966  42.568  23.693   3.976
78367W        W48967  38.259  27.219   4.425
78368W        W48968  27.446  14.234  14.739
78369W        W48969  12.790  18.293  14.879
78370W        W48970  44.666  26.421  14.156
78371W        W48971  12.828   3.436  13.887
78372W        W48972  11.906  28.313  12.968
78373W        W48973  11.761   5.877  10.399
78374W        W48974  16.535  10.239   0.464
78375W        W48975  22.787  12.697   4.489
78376W        W48976  44.549  30.550  12.547
78377W        W48977  39.314  32.498  11.626
78378W        W48978  31.561  13.322   2.447
78379W        W48979   7.715   7.826  11.471
78380W        W48980  12.782   5.241  14.025
78381W        W48981  22.605  43.935  11.650
78382W        W48982   5.816  18.091  11.434
78383W        W48983   9.259  26.588   2.906
78384W        W48984  28.087  28.507   3.550
78385W        W48985  18.675  40.772  11.166
78386W        W48986  23.522  18.280   0.322
78387W        W48987  26.178  42.500   3.903
78388W        W48988  28.426   5.617   4.887
78389W        W48989  15.200   1.385   4.127
78390W        W48990  18.856  34.059   1.387
78391W        W48991  39.105  11.127  14.960
78392W        W48992  14.239   0.684  10.098
78393W        W48993  12.802  42.312  12.412
78394W        W48994  40.078  40.282  12.935
78395W        W48995  21.185  18.376   0.484
78396W        W48996  27.418  26.693  11.657
78397W        W48997  39.650  21.999  14.864
78398W        W48998   4.100  23.558   1.650
78399W        W48999  15.774   3.974   1.947
78400W        W49000  38.257  43.601   3.674
78401W        W49001  15.705   8.136   1.650
78402W        W49002  31.600  28.518  10.945
78403W        W49003  20.161  17.136   3.251
78404W        W49004  14.620  41.810   1.831
78405W        W49005  22.082  25.544  14.085
78406W        W49006  20.795  31.323  13.829
78407W        W49007   1.792   1.482  12.299
78408W        W49008  44.869  29.774  12.115
78409W        W49009  34.606  43.246   2.393
78410W        W49010  24.271  27.127  13.651
78411W        W49011  18.139  41.754   4.325
78412W        W49012  38.653  23.498  12.965
78413W        W49013   6.796  40.541   0.296
78414W        W49014  33.519  29.015  13.809
78415W        W49015   9.772  32.396   1.286
78416W        W49016  12.380  40.129   1.689
78417W        W49017  40.510  23.881  11.529
78418W        W49018   6.826  15.865   3.957
78419W        W49019  24.725   0.219   0.812
78420W        W49020  21.080  10.195   0.769
78421W        W49021   1.958   9.963   3.788
78422W        W49022  44.202  35.968   2.656
78423W        W49023  32.622  23.088   2.584
78424W        W49024  40.435  35.991   2.431
78425W        W49025   8.190   0.460   2.481
78426W        W49026  40.082  28.501  12.169
78427W        W49027  39.241  28.273   1.568
78428W        W49028   5.819  11.274  13.374
78429W        W49029  11.391  17.070  13.822
78430W        W49030  41.068  34.494  13.467
78431W        W49031  10.024   2.222   4.575
78432W        W49032  14.727   7.340  13.286
78433W        W49033  31.317   2.005  14.903
78434W        W49034  19.317   1.284  12.178
78435W        W49035   6.289  27.877   2.606
78436W        W49036  44.990  22.042  14.147
78437W        W49037  30.075  25.672   3.337
78438W        W49038  11.904  11.409   0.527
78439W        W49039  20.176  18.794   2.243
78440W        W49040   7.700  44.424   3.551
78441W        W49041  39.486   7.768   2.906
78442W        W49042  30.203  20.514   4.842
78443W        W49043  33.413   5.213  10.088
78444W        W49044  27.518   7.815  12.009
78445W        W49045  18.533  30.181  14.660
78446W        W49046  19.689   5.019  10.483
78447W        W49047  30.641  39.964   1.828
78448W        W49048  33.978   7.742  14.645
78449W        W49049  38.047  11.450  11.145
78450W        W49050  22.102  42.738   3.269
78451W        W49051  18.413  36.111   3.262
78452W        W49052   3.144  39.308  12.989
78453W        W49053  29.696  38.898  14.045
78454W        W49054   1.549  11.667   1.289
78455W        W49055  34.074  39.650   3.081
78456W        W49056   5.504  39.078  11.149
78457W        W49057  39.480  10.892   1.919
78458W        W49058  12.724  20.742   3.321
78459W        W49059  43.539  34.550   1.974
78460W        W49060  43.315  35.625  11.143
78461W        W49061  13.397  40.319   2.775
78462W        W49062  38.056  25.410  12.557
78463W        W49063  30.422  15.058  11.158
78464W        W49064   7.727  33.121  13.311
78465W        W49065  27.458  14.640   2.151
78466W        W49066  25.149  30.679   2.925
78467W        W49067  30.848  25.000   2.336
78468W        W49068  42.362  19.564  13.438
78469W        W49069   7.398  44.943   0.287
78470W        W49070   8.315   4.285   0.031
78471W        W49071  36.511  23.186   0.908
78472W        W49072  33.094  19.634   4.465
78473W        W49073  11.788  16.877  12.166
78474W        W49074  27.706  16.009   3.120
78475W        W49075  25.856   7.618   2.197
78476W        W49076   0.673  21.772   2.309
78477W        W49077  25.535   2.882  12.819
78478W        W49078  13.739  34.483   0.054
78479W        W49079  41.808   8.822   2.021
78480W        W49080  19.066  24.984   1.217
78481W        W49081  33.872  21.241  11.574
78482W        W49082  37.986  21.614   1.330
78483W        W49083  13.770   1.287   4.612
78484W        W49084  17.943  34.823  13.428
78485W        W49085  37.487  13.751   0.362
78486W        W49086  27.544  21.570   2.277
78487W        W49087  24.668  31.672  14.565
78488W        W49088  16.663  29.123   0.449
78489W        W49089  42.578  13.210   2.303
78490W        W49090  20.057  40.118  11.087
78491W        W49091  31.366  41.771   5.059
78492W        W49092  19.798  36.123   4.175
78493W        W49093   6.778   5.253   2.684
78494W        W49094  41.530   0.809   2.665
78495W        W49095  29.122  21.157   4.398
78496W        W49096   5.901  34.315  14.778
78497W        W49097  24.001  33.741   2.865
78498W        W49098   9.109   2.249  14.716
78499W        W49099  20.264  27.774   4.549
78500W        W49100  42.262  32.312  10.725
78501W        W49101   9.221  24.073   1.393
78502W        W49102  36.864  30.530   4.594
78503W        W49103  37.501  35.384  11.655
78504W        W49104  11.399  40.404   1.712
78505W        W49105  44.157  32.199   0.878
78506W        W49106   2.237  30.921  13.335
78507W        W49107  29.934   8.886  12.384
78508W        W49108  14.555  19.031   4.037
78509W        W49109  41.574  17.079  14.297
78510W        W49110   7.179   2.557   2.280
78511W        W49111  29.370  32.722   1.962
78512W        W49112  43.397  19.658  11.211
78513W        W49113  44.938  35.447  10.514
78514W        W49114  11.686  23.836   3.328
78515W        W49115  28.430  33.556  10.258
78516W        W49116  32.598  16.727  12.076
78517W        W49117  11.891  10.342  12.906
78518W        W49118  34.833  29.528   1.017
78519W        W49119  11.468  36.998   0.035
78520W        W49120  14.249  34.360  13.662
78521W        W49121   5.502  28.592   1.815
78522W        W49122  17.759  15.226   3.673
78523W        W49123  11.739   7.424   3.340
78524W        W49124   8.237  18.089  13.909
78525W        W49125  13.314  36.963  13.795
78526W        W49126  12.834  29.963   4.635
78527W        W49127  36.947  21.705  10.362
78528W        W49128  25.229  15.715  14.577
78529W        W49129  31.656  41.933   4.636
78530W        W49130  39.552  35.855   1.683
78531W        W49131  37.677  16.654  13.998
78532W        W49132   3.801  15.140   4.546
78533W        W49133  42.326  10.381  11.771
78534W        W49134  22.702  34.374  11.622
78535W        W49135   2.803  37.376   1.771
78536W        W49136  29.305  19.155   0.248
78537W        W49137  26.682  10.321   0.298
78538W        W49138  42.396  19.848   3.085
78539W        W49139   6.835  38.023   0.380
78540W        W49140  26.968  17.850   2.992
78541W        W49141  36.839  15.265  13.937
78542W        W49142  22.951  18.545  13.650
78543W        W49143  20.013  42.991   1.861
78544W        W49144  33.557  23.553   3.861
78545W        W49145   2.472  36.352  13.845
78546W        W49146  33.471  28.060  12.843
78547W        W49147  21.009  36.231   1.260
78548W        W49148   6.279  10.261  11.144
78549W        W49149  15.528   3.595   2.828
78550W        W49150  25.534  10.936  11.882
78551W        W49151  40.338  38.242   1.279
78552W        W49152  25.503   5.204  12.098
78553W        W49153  43.812  42.873   3.615
78554W        W49154  15.368  19.736  12.790
78555W        W49155  44.951  35.447   2.189
78556W        W49156   6.871  34.030  10.522
78557W        W49157   1.479   8.685  12.595
78558W        W49158   4.203  19.158   1.838
78559W        W49159  29.487  32.401   4.109
78560W        W49160  15.067  42.393   0.411
78561W        W49161   8.807  43.730   4.106
78562W        W49162  29.880  17.769   1.398
78563W        W49163   1.019  37.214  14.072
78564W        W49164  30.301   8.087  12.561
78565W        W49165  30.038  11.658  12.087
78566W        W49166  21.949  30.456   0.836
78567W        W49167  19.461  33.279  11.171
78568W        W49168  19.315  15.343  14.148
78569W        W49169  22.319  36.452  14.450
78570W        W49170  35.943  14.364  13.532
78571W        W49171  14.091  25.530  13.309
78572W        W49172  26.077   1.231   1.404
78573W        W49173  44.518  12.631   0.357
78574W        W49174  26.033  38.868   3.618
78575W        W49175  41.557  10.153   3.561
78576W        W49176  26.064  11.306   1.306
78577W        W49177   2.192  43.352   1.489
78578W        W49178   6.641  43.888   1.751
78579W        W49179   5.479  38.682  12.033
78580W        W49180  29.437  15.283  13.872
78581W        W49181  26.963  23.177  11.608
78582W        W49182  39.636   5.921  10.195
78583W        W49183  23.053  43.510  14.517
78584W        W49184  36.557   4.450  12.547
78585W        W49185  44.292  21.149   5.014
78586W        W49186  12.645  33.062   0.547
78587W        W49187  23.693  41.427   1.660
78588W        W49188   0.458  36.547  13.158
78589W        W49189   6.720  35.583  11.594
78590W        W49190  27.620  14.786   4.915
78591W        W49191  28.105  37.891  13.932
78592W        W49192  38.617  19.583   4.076
78593W        W49193  23.144   5.607  11.211
78594W        W49194   0.057   1.380  11.170
78595W        W49195  26.074  35.106  10.665
78596W        W49196  19.816   5.770   3.546
78597W        W49197  23.913  43.101   4.134
78598W        W49198  14.353  23.091   1.712
78599W        W49199  34.168  13.279  14.179
78600W        W49200  16.261  26.054  11.131
78601W        W49201  25.011  26.515   0.756
78602W        W49202  43.319  15.478   1.234
78603W        W49203  31.017  17.441  11.630
78604W        W49204   1.434  29.517  12.410
78605W        W49205   2.803  42.034   3.747
78606W        W49206  33.418  27.406  10.988
78607W        W49207   3.911  17.192   0.140
78608W        W49208  40.464  20.961  11.635
78609W        W49209   3.323   3.983  12.152
78610W        W49210  44.986  18.099  12.946
78611W        W49211  38.507   4.216   0.351
78612W        W49212  16.323  31.159   3.335
78613W        W49213   3.878  31.415  10.294
78614W        W49214  18.039  19.831   1.500
78615W        W49215   4.729  39.267  10.850
78616W        W49216  41.471  15.265   0.900
78617W        W49217  25.882  37.696   4.570
78618W        W49218  36.638  19.145  11.497
78619W        W49219  22.932  28.660  11.660
78620W        W49220  14.560  36.286   2.582
78621W        W49221  33.513  39.926   4.377
78622W        W49222  22.612   6.175  14.675
78623W        W49223   3.432  10.697  14.436
78624W        W49224  35.184  44.261  12.399
78625W        W49225  12.882  16.509  11.141
78626W        W49226  13.061  25.952   0.300
78627W        W49227   5.297  11.533   3.858
78628W        W49228  13.683  25.721  10.599
78629W        W49229   9.926  30.484  13.806
78630W        W49230  20.096  26.144   0.988
78631W        W49231  34.906  22.125  11.376
78632W        W49232  25.081  10.972   1.250
78633W        W49233  23.975  27.932   9.795
78634W        W49234   4.240  10.817   0.485
78635W        W49235   7.836  27.766   4.080
78636W        W49236  21.728  17.470  12.135
78637W        W49237  26.578   6.400   3.538
78638W        W49238  16.752   6.371   1.913
78639W        W49239  36.081  34.873   4.974
78640W        W49240  37.615  29.805  13.460
78641W        W49241  18.648  40.405   1.573
78642W        W49242  41.258  23.833   1.225
78643W        W49243  16.423  19.351   0.351
78644W        W49244  37.969  13.508   0.360
78645W        W49245  25.870  42.243  12.121
78646W        W49246  44.765  24.984   2.921
78647W        W49247   9.913  24.227  11.338
78648W        W49248  32.485   0.914   4.846
78649W        W49249  18.128  36.795   0.753
78650W        W49250  28.516   2.939  14.745
78651W        W49251   5.359  34.829   1.012
78652W        W49252  40.610  26.284  13.657
78653W        W49253  42.103  19.327  12.088
78654W        W49254  34.492  44.287   4.657
78655W        W49255  41.619  10.471  14.789
78656W        W49256  25.500   2.823   4.545
78657W        W49257  30.811  17.016  13.040
78658W        W49258  10.219  29.460   0.148
78659W        W49259  41.343  18.193   0.755
78660W        W49260  42.509  17.244   3.031
78661W        W49261   1.051  36.403   4.561
78662W        W49262  35.632  43.504  14.949
78663W        W49263   3.869  20.105  13.597
78664W        W49264  12.087  12.835  14.374
78665W        W49265  17.998  26.469  12.921
78666W        W49266  13.633   3.856   0.277
78667W        W49267  37.785  11.774  13.995
78668W        W49268  27.450   9.607  11.124
78669W        W49269  13.273  11.724   0.824
78670W        W49270  32.995  31.333  14.822
78671W        W49271  23.704  18.569   2.398
78672W        W49272  34.579  27.048  11.556
78673W        W49273   2.389  17.820   4.608
78674W        W49274   4.782  44.274  14.777
78675W        W49275  25.676   4.820   0.491
78676W        W49276   1.299  18.658  11.567
78677W        W49277  44.883  20.582  12.599
78678W        W49278  26.186  43.515   4.829
78679W        W49279  43.205  38.118   2.734
78680W        W49280   0.481  22.670  13.267
78681W        W49281  30.185  21.556   3.250
78682W        W49282  34.662  28.202   4.055
78683W        W49283   6.762  44.863   2.148
78684W        W49284  20.681  17.135  11.666
78685W        W49285   2.253  36.083  13.402
78686W        W49286   9.442  21.182   0.037
78687W        W49287  44.981  10.895  13.417
78688W        W49288   9.605  26.158  10.936
78689W        W49289  16.816   2.783  14.378
78690W        W49290  40.305  21.573   2.631
78691W        W49291   8.509   8.324  14.387
78692W        W49292  19.651   9.319  13.043
78693W        W49293  18.715  30.558   0.471
78694W        W49294  42.747   0.996   2.170
78695W        W49295  10.168  13.117  12.646
78696W        W49296   8.451  40.094  14.485
78697W        W49297  34.240  38.340   1.976
78698W        W49298  26.010   6.450   0.260
78699W        W49299  14.690  36.629   0.320
78700W        W49300   4.907  15.731   3.758
78701W        W49301  22.171  28.908   1.744
78702W        W49302   6.915  21.517   0.974
78703W        W49303  18.780  38.461  13.041
78704W        W49304  33.908  43.971   3.689
78705W        W49305   5.102  27.732   4.944
78706W        W49306  26.534  24.028   1.950
78707W        W49307  40.776  14.111  11.084
78708W        W49308   0.165  17.731   4.507
78709W        W49309  31.861  11.034   4.731
78710W        W49310  14.402  15.140   1.842
78711W        W49311  42.864  41.019  13.246
78712W        W49312  21.707  44.022   1.294
78713W        W49313   6.904  38.852  12.067
78714W        W49314  25.669  13.767  11.088
78715W        W49315  21.479   7.101  12.131
78716W        W49316   5.253   0.777  14.123
78717W        W49317  17.892  36.976  10.597
78718W        W49318   3.426  18.949  13.475
78719W        W49319   0.946  28.679  14.347
78720W        W49320  32.406   5.125  14.503
78721W        W49321   9.341  43.747   2.071
78722W        W49322   5.226  14.653   0.978
78723W        W49323  29.624  40.114  14.879
78724W        W49324  17.149  22.708   2.899
78725W        W49325  23.540  44.912   0.344
78726W        W49326  36.352  13.155  11.597
78727W        W49327  14.431   8.358   1.334
78728W        W49328  16.621  41.770   0.014
78729W        W49329  15.666   0.473  13.609
78730W        W49330  39.507  22.020  11.581
78731W        W49331   2.947   6.409  10.534
78732W        W49332  18.574  42.325   2.742
78733W        W49333  33.180  28.995  14.501
78734W        W49334  38.547  33.597   2.720
78735W        W49335  14.652  11.595  11.305
78736W        W49336   5.270   3.419   3.834
78737W        W49337  34.851  34.770  12.013
78738W        W49338   3.731  23.988  13.535
78739W        W49339  27.584  37.508   4.192
78740W        W49340  29.530  39.342   3.090
78741W        W49341  12.060  23.823  12.556
78742W        W49342  15.138   5.897  10.997
78743W        W49343  16.318  32.837   5.478
78744W        W49344  36.806  22.617   2.625
78745W        W49345  28.803  33.550   1.561
78746W        W49346  30.925  33.805   2.873
78747W        W49347  36.067   4.349  14.843
78748W        W49348   0.701  20.531   0.863
78749W        W49349  23.691  22.760   2.170
78750W        W49350  34.357   8.287   2.790
78751W        W49351   0.321  42.990   4.232
78752W        W49352  43.370  22.151  13.798
78753W        W49353  32.648   7.463  14.706
78754W        W49354   3.472  21.110  11.151
78755W        W49355  12.739  29.497   0.947
78756W        W49356  16.702  30.356   3.769
78757W        W49357  18.769  17.199  11.607
78758W        W49358  38.785  11.884   0.397
78759W        W49359  17.278  30.061  10.841
78760W        W49360   3.276  31.964   1.452
78761W        W49361  44.997  42.629  14.277
78762W        W49362  12.903  33.533   2.996
78763W        W49363   4.806   5.173   3.450
78764W        W49364  36.841  19.271  14.333
78765W        W49365  43.392  21.558  11.618
78766W        W49366  44.894  24.535   0.771
78767W        W49367  42.071  40.752   1.445
78768W        W49368  39.526  14.761   2.805
78769W        W49369   9.978  27.651  12.886
78770W        W49370  38.371  16.303  10.496
78771W        W49371  23.539   6.996   4.565
78772W        W49372  16.090   0.583  13.930
78773W        W49373  19.530  16.738  12.380
78774W        W49374  38.972  33.919   2.799
78775W        W49375  38.247  31.587   2.364
78776W        W49376  44.928   1.383   4.776
78777W        W49377   3.943  13.750  13.528
78778W        W49378  16.183  36.022   0.884
78779W        W49379  19.598  39.042   3.666
78780W        W49380  36.746  18.053   5.353
78781W        W49381   8.773  37.815   3.867
78782W        W49382  18.842  30.566   2.938
78783W        W49383  31.797  22.708   2.746
78784W        W49384  35.053  34.294  10.254
78785W        W49385   5.938   0.483  12.586
78786W        W49386  29.204   7.305   3.365
78787W        W49387  37.330  10.009   0.654
78788W        W49388  21.527  20.624   3.286
78789W        W49389  14.878  32.617  11.263
78790W        W49390  35.917   7.891   1.383
78791W        W49391   9.993  33.024   1.826
78792W        W49392  38.933  41.076  12.677
78793W        W49393   5.821  16.722  10.957
78794W        W49394   1.790  24.090  13.056
78795W        W49395  17.214  41.337   2.230
78796W        W49396  36.080  31.947  12.648
78797W        W49397  32.485  12.721  12.648
78798W        W49398   1.040  21.779  12.532
78799W        W49399   9.242  14.345   0.847
78800W        W49400  32.531  21.612  14.091
78801W        W49401  40.285  19.008   0.370
78802W        W49402   7.755  37.785   4.558
78803W        W49403  36.766  44.970   4.244
78804W        W49404  24.266  21.258  12.550
78805W        W49405   6.625   8.892   2.698
78806W        W49406   5.000  25.127   3.854
78807W        W49407  30.474   3.466   3.216
78808W        W49408  22.782  13.630   1.317
78809W        W49409   1.993  29.544   3.920
78810W        W49410  16.585  11.391   3.682
78811W        W49411  26.720  43.077   3.722
78812W        W49412  44.250  33.105  14.103
78813W        W49413   3.900  40.268   1.152
78814W        W49414   3.225   6.824   2.808
78815W        W49415  27.064  40.282   4.357
78816W        W49416  30.395  38.882   1.353
78817W        W49417  34.705   8.210  10.622
78818W        W49418  11.566  31.415   1.442
78819W        W49419  39.763  18.903   1.258
78820W        W49420  23.012  12.286  11.071
78821W        W49421  24.700   1.084   3.991
78822W        W49422  21.090  13.146  14.000
78823W        W49423   8.490  32.807   0.613
78824W        W49424  32.188   4.500   4.150
78825W        W49425  10.426  16.203   2.679
78826W        W49426   6.130  32.393  12.029
78827W        W49427  40.416  32.431   3.722
78828W        W49428   3.169  26.164   1.415
78829W        W49429  18.125  25.049  12.040
78830W        W49430  38.920  35.988   0.952
78831W        W49431  21.003   9.834   4.100
78832W        W49432   4.818  18.686  10.191
78833W        W49433  20.267   1.993   3.251
78834W        W49434  26.529  35.206   2.083
78835W        W49435  26.011  20.147  11.493
78836W        W49436   0.790  42.016   1.420
78837W        W49437   5.431  26.066  13.060
78838W        W49438  23.699  28.172  10.692
78839W        W49439   4.624  43.427   3.736
78840W        W49440  10.993   4.710  12.652
78841W        W49441   6.652  30.875  14.080
78842W        W49442  42.981  15.139  11.211
78843W        W49443   5.385  31.610  10.711
78844W        W49444  12.438  22.640   2.746
78845W        W49445  37.140  30.440  11.519
78846W        W49446  11.698  29.506  14.847
78847W        W49447   5.881  44.830  13.083
78848W        W49448  28.018  21.145  12.563
78849W        W49449   6.411  38.040  11.990
78850W        W49450  25.435  18.545  12.837
78851W        W49451   2.439   8.692   3.616
78852W        W49452  38.958  25.244   5.260
78853W        W49453   2.000  23.394   2.246
78854W        W49454   2.035   6.959  10.768
78855W        W49455  34.527   9.701   0.861
78856W        W49456  26.137  43.011   3.900
78857W        W49457  14.438  32.583   5.268
78858W        W49458  21.147  26.593  12.106
78859W        W49459  28.628  44.741   0.297
78860W        W49460  44.231  25.057   1.646
78861W        W49461  28.043  21.555   3.525
78862W        W49462  40.653  22.631  14.322
78863W        W49463  32.326  43.142   2.310
78864W        W49464   0.508  16.613  12.059
78865W        W49465   0.413  26.021  11.885
78866W        W49466  19.310  20.003  14.022
78867W        W49467  32.301  32.908  14.503
78868W        W49468  35.499  38.092   0.144
78869W        W49469  24.659  28.691   2.690
78870W        W49470  28.407   7.067  13.520
78871W        W49471  12.189   3.712  10.631
78872W        W49472  27.982  16.705  11.402
78873W        W49473  24.602   7.676   2.263
78874W        W49474  40.350  16.735  14.454
78875W        W49475  18.771  15.613   1.444
78876W        W49476  41.915  26.489   0.268
78877W        W49477  26.751  37.644  12.066
78878W        W49478  38.071  29.127   2.001
78879W        W49479  38.084  12.333  14.235
78880W        W49480  33.898   0.976  14.517
78881W        W49481   4.869  42.269   3.139
78882W        W49482   2.901  17.189  10.567
78883W        W49483   7.413  42.489   2.620
78884W        W49484   8.455   5.787   0.324
78885W        W49485   4.341   5.891  12.591
78886W        W49486  42.086  27.469  11.949
78887W        W49487   2.519   8.215  13.324
78888W        W49488  28.338  26.005  14.451
78889W        W49489  17.151   9.243   0.831
78890W        W49490  24.606  14.095  12.165
78891W        W49491  28.079  10.379  12.445
78892W        W49492   1.490  21.838  14.606
78893W        W49493  28.608   0.336  13.173
78894W        W49494  27.750  23.101  13.342
78895W        W49495  14.231   7.083  10.917
78896W        W49496  41.465  16.379   4.891
78897W        W49497  22.282  12.790  10.578
78898W        W49498  31.408  26.156  13.705
78899W        W49499  17.703   7.638   2.856
78900W        W49500  27.061  42.508   0.260
78901W        W49501  42.231  39.077   4.157
78902W        W49502  16.359  11.871  12.593
78903W        W49503  15.194  18.673   2.873
78904W        W49504   5.632  17.247  12.465
78905W        W49505  42.502   6.657   2.908
78906W        W49506  30.219  28.120  11.848
78907W        W49507  25.104   3.861   0.371
78908W        W49508  41.745  33.048   0.356
78909W        W49509  31.962   6.270   1.430
78910W        W49510  13.864  26.032  11.409
78911W        W49511  44.545  11.734  12.108
78912W        W49512  30.798   5.233  12.429
78913W        W49513   0.695  33.001  10.036
78914W        W49514  18.293  21.242  14.383
78915W        W49515   9.661  16.245  10.741
78916W        W49516  24.180  40.805  12.153
78917W        W49517  16.861  25.547   4.520
78918W        W49518  27.436  23.072  11.228
78919W        W49519   9.690  14.338   4.101
78920W        W49520  42.089  30.031  10.808
78921W        W49521  28.615  19.605  10.639
78922W        W49522  25.224  40.185   0.791
78923W        W49523  14.120  16.749  13.879
78924W        W49524  35.052  30.405   0.814
78925W        W49525  31.956  28.189   2.221
78926W        W49526  36.942   6.508   2.140
78927W        W49527   9.461  38.999  13.007
78928W        W49528  39.766  22.284   1.352
78929W        W49529  43.746  28.978  10.600
78930W        W49530  19.741  15.148   3.857
78931W        W49531  28.172  22.831   4.629
78932W        W49532   4.585  19.804   0.759
78933W        W49533   6.094  28.609  11.582
78934W        W49534  21.146   1.174  14.989
78935W        W49535  23.546  37.045  14.306
78936W        W49536   3.084  29.410  14.280
78937W        W49537  10.575  37.523  14.054
78938W        W49538  13.182   6.901   4.475
78939W        W49539   8.486  30.860  13.314
78940W        W49540   8.370   8.191   2.355
78941W        W49541  19.787  41.495  12.905
78942W        W49542  14.271  17.086   0.943
78943W        W49543  21.294  35.358  13.044
78944W        W49544  29.671   5.318  13.040
78945W        W49545  17.232  30.865  10.252
78946W        W49546  34.023   1.891  12.508
78947W        W49547  40.636  22.068   0.136
78948W        W49548  18.613  30.061   1.813
78949W        W49549  18.677  43.693  12.511
78950W        W49550  19.752  21.968   1.210
78951W        W49551  21.827   9.767   3.691
78952W        W49552  29.334  26.897  11.580
78953W        W49553   8.254   0.324   3.885
78954W        W49554   6.275  14.490  11.631
78955W        W49555  38.381  32.206   3.033
78956W        W49556   9.444  38.344   1.838
78957W        W49557  17.547  30.398   1.043
78958W        W49558   1.272  12.335  11.706
78959W        W49559  19.169   2.194  14.487
78960W        W49560  19.680  33.497   1.177
78961W        W49561  36.732   2.255   0.899
78962W        W49562  29.157  10.989   2.277
78963W        W49563  30.102  17.394  14.217
78964W        W49564  42.726  25.399  13.304
78965W        W49565  21.979  39.505  14.701
78966W        W49566   7.842  40.008  11.936
78967W        W49567  14.834  41.998  11.353
78968W        W49568  26.630  26.488  14.371
78969W        W49569  20.143  18.111  11.145
78970W        W49570  40.893  26.154   4.699
78971W        W49571  32.761  30.448   1.894
78972W        W49572  22.787  11.306  10.672
78973W        W49573   8.574   7.485  11.483
78974W        W49574  30.233  43.882  14.896
78975W        W49575   7.623   3.513   2.907
78976W        W49576   1.403  33.540  12.336
78977W        W49577  12.560  44.270   1.837
78978W        W49578   4.244  17.626   4.131
78979W        W49579  25.989  44.407  11.024
78980W        W49580  23.776  43.666  12.767
78981W        W49581  28.059  43.859  14.790
78982W        W49582   4.569  20.162   2.374
78983W        W49583  33.969  21.725   0.937
78984W        W49584  27.393  42.273   1.431
78985W        W49585   8.458  24.124   0.854
78986W        W49586  25.406   0.356  14.809
78987W        W49587  34.930  43.027  13.556
78988W        W49588  29.374  39.511   5.063
78989W        W49589  11.126  15.804   1.339
78990W        W49590   7.315   4.285   3.595
78991W        W49591  23.658   1.395   2.454
78992W        W49592   1.473  30.109   2.507
78993W        W49593   7.402  43.322   3.470
78994W        W49594  41.730   2.855  10.552
78995W        W49595   8.548   1.377  10.910
78996W        W49596  21.292  23.891   0.509
78997W        W49597  31.415   2.709   0.854
78998W        W49598   7.932  18.573  13.839
78999W        W49599  25.054  27.717   3.564
79000W        W49600   8.214  15.115  13.967
79001W        W49601   7.728  35.576  11.303
79002W        W49602  40.013   4.128   3.810
79003W        W49603   4.612  33.595  14.547
79004W        W49604   1.727  37.878  13.596
79005W        W49605  27.616   9.666   3.175
79006W        W49606   7.671  24.013   2.214
79007W        W49607  15.229  16.712  12.911
79008W        W49608  28.430   1.980   2.190
79009W        W49609   4.462   1.904  11.532
79010W        W49610  13.688  18.558   0.890
79011W        W49611  27.438  29.572  11.931
79012W        W49612   1.459   8.499   3.801
79013W        W49613   5.325  15.547   1.285
79014W        W49614   4.081  32.434  12.089
79015W        W49615  44.346  41.780   1.972
79016W        W49616  38.971  39.943  11.293
79017W        W49617  35.069  23.003   1.861
79018W        W49618  35.514  10.621   1.891
79019W        W49619   7.266  18.149  14.343
79020W        W49620  20.068  12.758  12.523
79021W        W49621   0.945  37.897   3.150
79022W        W49622  23.722   6.526  11.705
79023W        W49623   6.957  21.153  12.105
79024W        W49624  19.118   5.909  12.901
79025W        W49625  34.680  21.702  13.509
79026W        W49626   9.646  20.999   2.775
79027W        W49627  11.999  17.728   4.356
79028W        W49628  22.881  34.019   3.184
79029W        W49629  36.881  17.834  14.307
79030W        W49630  22.639  10.275  13.078
79031W        W49631  20.116   3.021   4.290
79032W        W49632  19.147   1.449   3.220
79033W        W49633  38.321  27.217  11.207
79034W        W49634  11.083  26.108   3.379
79035W        W49635  19.599  35.897  14.352
79036W        W49636  29.653  22.079   2.370
79037W        W49637   2.654   9.357  12.389
79038W        W49638  25.521   9.277   2.528
79039W        W49639   6.938  38.701   4.025
79040W        W49640   1.878  18.691  12.393
79041W        W49641  26.013  31.212  11.419
79042W        W49642  13.865  18.541   1.816
79043W        W49643  40.187  31.357   2.039
79044W        W49644  39.424  27.492   2.249
79045W        W49645  24.273  35.165   0.029
79046W        W49646  38.114  17.236   3.889
79047W        W49647   6.118  29.768   0.879
79048W        W49648  16.139   4.311  14.584
79049W        W49649  19.309  31.141  14.408
79050W        W49650  42.017  39.004   2.423
79051W        W49651  11.639  38.408  12.186
79052W        W49652  42.932  43.746   1.525
79053W        W49653  14.483  40.958   3.215
79054W        W49654  17.468  24.645  14.305
79055W        W49655   5.422   7.191  11.295
79056W        W49656   7.181  13.260  13.178
79057W        W49657  14.772  29.165  14.950
79058W        W49658  11.250  30.508   1.658
79059W        W49659  27.881  40.614   0.357
79060W        W49660  37.094  33.399  10.758
79061W        W49661  10.301  43.339  10.740
79062W        W49662  35.650   7.318  12.913
79063W        W49663  39.889   9.427  11.186
79064W        W49664  23.627  30.877   3.270
79065W        W49665   6.945  20.697   4.646
79066W        W49666  25.466  29.641  12.984
79067W        W49667  41.922   4.265   1.373
79068W        W49668  37.989   6.287  12.458
79069W        W49669  15.321  34.347   3.221
79070W        W49670  11.396  44.792   4.548
79071W        W49671  44.377  42.919   2.420
79072W        W49672   0.418  35.354  14.947
79073W        W49673  36.449  36.904  11.405
79074W        W49674  26.571  21.756  12.513
79075W        W49675  27.817  19.246   3.602
79076W        W49676  40.280  25.913   2.836
79077W        W49677  22.284  41.852   3.649
79078W        W49678   5.188   3.714   2.460
79079W        W49679  30.020  35.778   4.063
79080W        W49680  33.343  35.557   1.286
79081W        W49681  23.434  17.306  12.927
79082W        W49682  37.586   2.866   1.399
79083W        W49683  26.118  18.642   4.152
79084W        W49684  29.402  12.644  13.949
79085W        W49685  39.100  25.660   4.294
79086W        W49686  36.479   6.911  12.537
79087W        W49687   7.929   0.107  12.436
79088W        W49688  31.127  28.215   3.304
79089W        W49689  26.143  28.454   4.239
79090W        W49690  35.565  38.481   3.283
79091W        W49691  33.067   4.804  10.224
79092W        W49692  12.521  23.689   0.664
79093W        W49693  24.726  11.766   2.223
79094W        W49694  22.229  28.041   1.207
79095W        W49695  43.762  26.144  11.674
79096W        W49696  17.732  24.958  11.302
79097W        W49697  26.366  29.743   5.130
79098W        W49698  28.643  15.287   2.685
79099W        W49699  36.126  43.772   3.442
79100W        W49700  38.341   3.579   2.213
79101W        W49701  25.967  37.262   2.629
79102W        W49702   2.031  39.393  11.022
79103W        W49703   0.669  16.799  14.298
79104W        W49704  38.405  36.256  14.343
79105W        W49705  43.275   1.865  13.652
79106W        W49706  14.089  41.438   2.780
79107W        W49707   8.865  41.821   1.576
79108W        W49708  17.228  17.318  11.273
79109W        W49709  40.471  14.666   1.675
79110W        W49710  43.376  17.926   5.040
79111W        W49711  24.483  12.247  12.858
79112W        W49712  21.329  37.807   4.968
79113W        W49713   3.062  13.330  14.496
79114W        W49714  26.596  23.730   3.390
79115W        W49715  18.564  18.238   3.717
79116W        W49716  39.430  30.503   4.393
79117W        W49717  33.650  18.634   2.996
79118W        W49718  22.688  30.521   4.503
79119W        W49719   4.949  13.708   0.015
79120W        W49720  22.141  16.344  11.187
79121W        W49721  12.869  25.878  13.080
79122W        W49722  13.697   4.006  12.876
79123W        W49723  24.261   9.833  11.714
79124W        W49724  26.132  44.115  11.919
79125W        W49725   2.214  35.662   2.288
79126W        W49726  37.990  14.623  14.416
79127W        W49727  28.692  33.550  11.163
79128W        W49728   3.485  21.265   3.356
79129W        W49729  40.265   1.189  11.825
79130W        W49730  41.220   7.810  13.421
79131W        W49731  36.330  32.524  14.367
79132W        W49732  32.870   7.519   0.189
79133W        W49733  36.457  42.480   1.461
79134W        W49734  36.891  40.045   0.859
79135W        W49735  39.444   5.325  12.160
79136W        W49736  25.068  35.262  10.816
79137W        W49737   7.828   8.395  14.774
79138W        W49738   1.432  26.002   0.747
79139W        W49739  22.470  18.484   0.654
79140W        W49740  41.367  19.515  11.666
79141W        W49741  19.038  43.868   0.257
79142W        W49742   3.164  11.714  11.590
79143W        W49743  35.491   5.782  12.102
79144W        W49744  41.935  28.679  14.745
79145W        W49745  35.252  39.712  10.405
79146W        W49746  41.479  33.841   3.028
79147W        W49747  38.285  43.520   2.784
79148W        W49748  30.109  42.082  12.185
79149W        W49749  13.461  15.697  11.493
79150W        W49750  19.625  35.817  12.977
79151W        W49751   7.417  37.475   4.286
79152W        W49752  14.257  30.443  13.356
79153W        W49753   4.501  18.283  13.126
79154W        W49754  21.362  19.615   4.756
79155W        W49755  38.450   7.786   2.791
79156W        W49756  21.538  28.548   0.763
79157W        W49757  30.211  24.057   0.893
79158W        W49758  37.844   0.956  14.993
79159W        W49759   2.431   8.095  12.130
79160W        W49760  14.298   2.448  11.574
79161W        W49761  10.719  32.068   2.154
79162W        W49762   0.903  15.113   0.845
79163W        W49763  18.088  37.516   0.146
79164W        W49764  20.737  31.564   1.739
79165W        W49765  43.978  40.735  12.960
79166W        W49766   6.203  41.961   2.225
79167W        W49767  31.497  15.326   1.630
79168W        W49768  10.598  33.494  14.418
79169W        W49769  29.044   5.708   3.896
79170W        W49770  32.682  27.631  12.975
79171W        W49771   5.760  26.042  11.219
79172W        W49772  14.086  11.243   2.296
79173W        W49773  19.572  28.691  12.502
79174W        W49774  20.217   0.122   5.870
79175W        W49775  10.378  22.662   1.266
79176W        W49776   4.900  37.363   5.053
79177W        W49777   1.301  23.242  12.051
79178W        W49778  25.946  25.644  10.713
79179W        W49779  11.916   2.139  10.960
79180W        W49780  34.285  30.577  10.917
79181W        W49781  23.149  30.224  11.364
79182W        W49782  35.101  15.054   2.294
79183W        W49783  44.814  36.971   3.809
79184W        W49784  14.650  31.762   5.288
79185W        W49785  32.791  10.762   0.297
79186W        W49786  13.234  43.706  12.803
79187W        W49787  22.541  42.956  14.322
79188W        W49788   2.835   3.889  14.978
79189W        W49789  43.390  27.045   4.622
79190W        W49790  27.970  17.015  12.336
79191W        W49791  44.380   2.753  11.584
79192W        W49792  13.102   6.752  11.590
79193W        W49793   0.391   7.772   0.072
79194W        W49794  31.254  36.952   4.904
79195W        W49795   2.731  18.926   2.702
79196W        W49796  18.523   6.464   0.756
79197W        W49797  29.856  19.304  12.957
79198W        W49798  26.890  18.417   2.338
79199W        W49799  32.273  16.906  13.152
79200W        W49800   0.074  41.330   3.783
79201W        W49801  25.311   5.564   3.211
79202W        W49802  24.951   7.477   4.256
79203W        W49803  44.909  16.036   4.149
79204W        W49804  37.381  33.399   0.224
79205W        W49805   2.663  24.966   2.705
79206W        W49806  43.598  42.209   1.135
79207W        W49807   7.826  26.513   0.247
79208W        W49808   4.835  41.571   2.751
79209W        W49809  43.294  36.448   3.080
79210W        W49810  17.920  14.906   4.061
79211W        W49811  12.484  14.825  11.608
79212W        W49812  12.299  22.055  14.354
79213W        W49813   0.902  40.944   3.739
79214W        W49814  40.419  21.672  13.363
79215W        W49815  27.245  13.595   3.309
79216W        W49816   4.357  15.517  13.332
79217W        W49817  15.834  36.039  12.558
79218W        W49818   0.233  31.519  14.980
79219W        W49819   7.514  12.364  12.201
79220W        W49820  15.349   3.921   3.182
79221W        W49821  41.061  33.066  12.176
79222W        W49822  42.342  17.566  12.860
79223W        W49823  40.391  11.176   4.397
79224W        W49824  33.519  34.929   0.319
79225W        W49825  38.253   5.904  13.836
79226W        W49826   7.225  38.525  12.299
79227W        W49827  31.245   5.445   4.513
79228W        W49828  28.676  16.105  11.193
79229W        W49829   1.344  37.545  12.971
79230W        W49830  43.995   1.605  14.728
79231W        W49831  11.545  15.550   5.060
79232W        W49832  15.159   9.697  10.692
79233W        W49833  36.304   1.180   0.278
79234W        W49834  30.372  35.000   2.250
79235W        W49835  38.034  37.584   1.422
79236W        W49836  31.717  37.478   9.887
79237W        W49837  16.701   7.855  13.845
79238W        W49838  32.562  44.425   2.800
79239W        W49839   2.260  36.366   2.692
79240W        W49840  13.399  19.645   2.205
79241W        W49841  37.378  13.729  12.902
79242W        W49842   5.222  10.816   2.755
79243W        W49843  31.626  32.973   1.627
79244W        W49844  11.638  37.074   4.981
79245W        W49845  10.388  41.666   2.403
79246W        W49846   3.637   8.237  12.324
79247W        W49847   0.685  32.343  13.429
79248W        W49848  38.424  13.595  13.897
79249W        W49849   6.196  16.743   1.763
79250W        W49850  22.123  22.085  13.361
79251W        W49851  22.730  20.582   1.884
79252W        W49852   5.212  43.288  12.583
79253W        W49853  12.579   3.983  11.151
79254W        W49854  29.089  21.626   4.185
79255W        W49855  15.500  19.579   1.180
79256W        W49856  19.253  32.321  14.662
79257W        W49857   4.538  44.672   4.557
79258W        W49858  44.469  26.980   3.805
79259W        W49859   9.852  35.423   1.728
79260W        W49860  27.229  19.577  10.906
79261W        W49861  23.286  23.224  13.930
79262W        W49862  19.659  20.650  12.049
79263W        W49863  13.264  24.685   0.642
79264W        W49864  16.839   8.430   3.513
79265W        W49865   4.226   2.485  14.877
79266W        W49866  41.290  15.800  14.041
79267W        W49867  18.073  29.970  14.460
79268W        W49868  35.127  25.040  14.919
79269W        W49869  12.885  15.272  10.798
79270W        W49870   1.837  34.110   2.687
79271W        W49871  17.002  36.729   5.540
79272W        W49872   8.133  38.437  11.417
79273W        W49873   7.733  14.571  10.910
79274W        W49874   8.261  13.609   0.781
79275W        W49875  32.052   7.363  14.376
79276W        W49876  14.400  41.141  14.018
79277W        W49877  29.782   9.358   1.706
79278W        W49878  12.126  37.641  12.542
79279W        W49879   2.336  40.376   3.779
79280W        W49880   5.969  20.855   2.397
79281W        W49881  38.288  19.497   1.978
79282W        W49882  20.090  41.783   1.956
79283W        W49883  40.914  24.718  13.387
79284W        W49884  10.798  20.127  11.099
79285W        W49885  20.159  44.955   0.549
79286W        W49886  34.886  22.249  13.386
79287W        W49887  16.475  10.200   2.270
79288W        W49888  37.820  23.563  11.063
79289W        W49889  42.397  39.364  11.476
79290W        W49890  25.731  31.931   0.627
79291W        W49891  28.185  26.534  13.435
79292W        W49892  30.050  11.383   1.840
79293W        W49893  11.656  13.206  12.240
79294W        W49894  14.123  22.508  12.536
79295W        W49895  40.303   7.705  11.185
79296W        W49896  39.036  40.838   2.932
79297W        W49897  34.156  30.055   0.284
79298W        W49898  38.781  32.547  11.622
79299W        W49899  34.831  17.048   1.255
79300W        W49900  31.325  27.220   4.623
79301W        W49901  33.864  20.480  14.066
79302W        W49902  32.627  23.523   2.891
79303W        W49903   1.334   5.343   1.661
79304W        W49904  19.571  29.983  14.888
79305W        W49905  40.551   6.695   0.959
79306W        W49906   8.605  24.537  12.810
79307W        W49907  24.774  28.866  11.099
79308W        W49908  41.437   4.428   3.643
79309W        W49909  26.755   7.205   0.364
79310W        W49910  14.202  18.452  10.426
79311W        W49911   3.000  29.605   0.758
79312W        W49912   0.400  33.911  11.613
79313W        W49913  16.249  22.340  12.595
79314W        W49914  34.892  25.148   3.254
79315W        W49915  21.581   3.967   1.025
79316W        W49916  11.524  13.788   2.831
79317W        W49917  33.775  36.796   3.674
79318W        W49918  21.214  19.192  11.654
79319W        W49919  13.347  26.883   0.271
79320W        W49920  41.424   8.287  13.477
79321W        W49921  16.720   5.739  10.544
79322W        W49922  42.274   2.406   4.736
79323W        W49923  28.505   4.929   1.966
79324W        W49924   8.919  26.521  11.002
79325W        W49925   5.835  27.001  14.489
79326W        W49926   0.250  41.485  10.887
79327W        W49927  22.096  11.220   0.505
79328W        W49928  14.569  11.833  12.550
79329W        W49929  16.265  11.710  12.127
79330W        W49930   1.353  13.160  14.313
79331W        W49931  40.046  16.599   4.093
79332W        W49932  18.192   3.451  11.173
79333W        W49933  34.439   6.921  11.373
79334W        W49934  14.755  11.676  14.412
79335W        W49935  19.803  35.958   2.516
79336W        W49936  36.021  32.599  14.791
79337W        W49937  13.220  29.027  10.966
79338W        W49938  36.659  33.006   1.914
79339W        W49939  38.445  41.351  10.702
79340W        W49940  34.580  27.294   4.231
79341W        W49941  28.644  44.278   0.791
79342W        W49942   8.940  17.639  14.964
79343W        W49943  26.741  11.675   1.764
79344W        W49944   9.264  28.418  13.714
79345W        W49945  27.742   0.636  14.512
79346W        W49946  25.507  21.811   3.442
79347W        W49947  28.492  32.401  13.330
79348W        W49948   2.728  40.162   1.530
79349W        W49949  29.648   7.394  14.831
79350W        W49950   6.138  18.935  13.742
79351W        W49951  35.950   3.717   1.352
79352W        W49952   7.921  33.422   4.482
79353W        W49953  42.493   4.933  12.931
79354W        W49954  36.140  25.527  11.951
79355W        W49955   5.131  32.992  12.582
79356W        W49956   6.445   3.288  14.278
79357W        W49957  12.614   4.780   3.708
79358W        W49958  14.803  25.100   4.698
79359W        W49959  30.013  42.464   0.037
79360W        W49960  39.378   9.360   0.891
79361W        W49961  28.178  18.584  14.835
79362W        W49962  16.173   6.916  13.009
79363W        W49963  38.060   3.506   2.675
79364W        W49964   3.717  44.946  13.870
79365W        W49965  44.585  27.056   3.308
79366W        W49966  11.875  42.405  11.953
79367W        W49967  22.118  10.870   2.690
79368W        W49968  40.171  39.072   3.816
79369W        W49969   7.610  18.742   0.284
79370W        W49970  22.157  39.309  10.693
79371W        W49971  21.802  40.249  13.950
79372W        W49972   2.960  28.592   3.879
79373W        W49973  38.530  42.168   4.858
79374W        W49974  37.234  17.237  13.571
79375W        W49975  22.487  30.491  11.800
79376W        W49976  15.892  41.607  13.407
79377W        W49977  39.997  19.497   3.175
79378W        W49978   5.152  41.130  14.325
79379W        W49979   2.660   6.919  12.617
79380W        W49980  23.347  27.902   2.001
79381W        W49981  43.041  20.137   1.850
79382W        W49982  43.312  11.938  13.498
79383W        W49983  22.689  38.347   1.735
79384W        W49984   7.205  16.217  12.471
79385W        W49985   4.880  35.544  11.733
79386W        W49986  10.616  15.275   2.819
79387W        W49987  13.957  44.073   4.123
79388W        W49988  25.218  41.852   2.644
79389W        W49989  10.696  19.602   2.298
79390W        W49990   6.887  28.870  13.349
79391W        W49991   8.387   0.286   4.374
79392W        W49992  35.633  18.038  13.508
79393W        W49993  26.514  20.979  11.570
79394W        W49994  37.024  19.082   4.607
79395W        W49995  30.115  44.199  12.488
79396W        W49996   8.789  22.605   0.446
79397W        W49997  17.265   9.108   3.864
79398W        W49998   0.722  33.024   3.376
79399W        W49999  32.118  13.054   1.273
79400W        W50000  26.474  16.643   1.714
79401W        W50001   4.955  40.220   4.142
79402W        W50002  21.978  36.885  11.088
79403W        W50003  40.477  23.117   0.986
79404W        W50004  30.407  23.942  12.255
79405W        W50005  37.580  13.667   3.205
79406W        W50006  16.285  25.906   0.924
79407W        W50007   1.234   3.155  12.700
79408W        W50008  11.254  15.646  12.119
79409W        W50009   3.129  25.978  14.011
79410W        W50010  26.107   7.802  13.556
79411W        W50011  19.349  32.564   4.216
79412W        W50012  18.279  35.313  14.827
79413W        W50013  36.106  39.850  10.762
79414W        W50014  27.041   4.272   2.624
79415W        W50015  23.684  41.514   0.639
79416W        W50016  44.085  29.495   2.720
79417W        W50017  13.560  20.712   1.859
79418W        W50018  41.926  42.235   0.329
79419W        W50019  20.472  41.379   1.909
79420W        W50020   8.210   1.898  14.436
79421W        W50021   4.756  44.377  11.721
79422W        W50022  36.553  23.213   4.216
79423W        W50023   8.200  15.250  13.036
79424W        W50024   8.317  14.560   1.389
79425W        W50025   5.471  14.371   3.234
79426W        W50026  15.706  40.708  11.471
79427W        W50027  31.586  32.808   1.046
79428W        W50028  20.032  38.660   0.948
79429W        W50029  24.520  19.088  14.434
79430W        W50030  19.629  29.898  11.265
79431W        W50031  18.342  31.399   4.328
79432W        W50032   8.608  37.321  11.555
79433W        W50033   1.273  38.803   3.342
79434W        W50034  19.173   3.945   0.875
79435W        W50035  19.542   3.751  14.925
79436W        W50036  42.183  24.449  12.470
79437W        W50037   0.355  23.084   3.566
79438W        W50038  34.483  23.741  12.884
79439W        W50039  33.000  29.089  13.948
79440W        W50040  34.361   0.937  14.297
79441W        W50041  13.523   2.152  11.511
79442W        W50042  32.638  21.998  12.072
79443W        W50043  11.839  41.073   3.357
79444W        W50044  27.997  36.900  13.885
79445W        W50045  31.571  31.609  13.882
79446W        W50046  24.227   8.809  13.724
79447W        W50047  24.454   9.236   4.535
79448W        W50048   5.820  19.939  13.797
79449W        W50049  21.987  25.306  10.359
79450W        W50050  21.150  11.531   0.916
79451W        W50051   5.302   7.102   3.235
79452W        W50052  39.083  40.569   4.196
79453W        W50053   0.762  22.240  13.514
79454W        W50054  40.532   1.014   2.883
79455W        W50055  26.120  24.696   3.297
79456W        W50056  23.119  20.926  10.630
79457W        W50057   0.312  10.992  14.420
79458W        W50058  40.852  33.957   0.704
79459W        W50059  37.449  40.170   3.819
79460W        W50060  34.574  31.919  11.044
79461W        W50061  23.951  27.275   0.956
79462W        W50062  10.905  20.824   2.866
79463W        W50063  20.131  11.283   1.084
79464W        W50064  28.992  10.888  12.588
79465W        W50065   4.236  28.484  12.609
79466W        W50066  13.324  18.882   1.768
79467W        W50067  10.388   5.303  14.298
79468W        W50068  17.627   7.883  13.000
79469W        W50069  31.055  18.465  11.618
79470W        W50070  43.454  16.336  14.928
79471W        W50071  20.238  23.461   3.621
79472W        W50072  21.305  28.604   4.551
79473W        W50073   0.465  13.295   3.624
79474W        W50074  18.569  11.295  10.596
79475W        W50075  10.142  18.854  10.756
79476W        W50076  12.871  41.702  11.924
79477W        W50077   7.090  44.849  12.172
79478W        W50078  30.349  44.890  14.377
79479W        W50079  39.271  35.058   4.673
79480W        W50080  10.151  11.835  13.852
79481W        W50081  14.111  43.118   0.071
79482W        W50082   3.474  17.537   1.733
79483W        W50083  28.611  42.422   2.225
79484W        W50084  33.687  30.622  14.809
79485W        W50085  32.651  41.408   3.401
79486W        W50086  42.642  20.571   3.614
79487W        W50087  44.449   4.765  13.882
79488W        W50088  29.368  15.361  12.034
79489W        W50089  38.866  15.716   3.214
79490W        W50090  14.191  18.776  13.914
79491W        W50091  37.536  20.113   4.667
79492W        W50092  24.478  41.657   1.213
79493W        W50093  29.464  15.099   4.258
79494W        W50094  43.316  43.544  11.710
79495W        W50095  44.378   5.344  14.615
79496W        W50096  31.105  19.768  13.221
79497W        W50097  27.742  32.257  13.083
79498W        W50098  37.836  34.301   3.664
79499W        W50099   2.167  43.558   4.226
79500W        W50100  30.200  27.405  10.763
79501W        W50101  22.736  34.929   5.042
79502W        W50102  31.436   4.786   3.380
79503W        W50103  36.169  18.074  11.957
79504W        W50104  26.656  14.635  13.997
79505W        W50105  11.986  39.979  13.409
79506W        W50106   1.699  37.079  10.930
79507W        W50107  44.829  25.010   0.003
79508W        W50108   2.037  37.951   4.102
79509W        W50109  22.916   0.431  13.393
79510W        W50110   5.070  35.271   0.352
79511W        W50111  10.783  36.313  12.878
79512W        W50112  28.146  37.387  13.906
79513W        W50113  29.700  30.236   3.143
79514W        W50114   6.444  28.873   2.840
79515W        W50115  22.499  43.520   3.256
79516W        W50116  37.089   1.334   3.151
79517W        W50117  32.853  32.616   0.430
79518W        W50118  30.696  14.443  10.489
79519W        W50119  21.678  37.343  12.555
79520W        W50120  40.215  19.788   1.514
79521W        W50121  30.370   7.362   0.728
79522W        W50122  28.404  30.288  10.971
79523W        W50123  41.773  34.563  14.929
79524W        W50124  43.981  33.554  14.043
79525W        W50125  21.961  30.200  10.874
79526W        W50126  40.431  31.412   0.797
79527W        W50127  26.845  15.270   2.672
79528W        W50128  13.075   8.598   2.582
79529W        W50129  39.956  19.969  13.308
79530W        W50130  39.432  22.637  13.844
79531W        W50131  19.149   3.952   3.659
79532W        W50132   0.410  21.043  11.055
79533W        W50133   0.270  11.862   3.621
79534W        W50134  21.295  12.168  11.386
79535W        W50135   1.713  18.048  14.461
79536W        W50136  35.519   5.667  11.084
79537W        W50137  13.805  15.889   3.224
79538W        W50138  40.486  35.114  10.728
79539W        W50139  10.264  32.716  11.152
79540W        W50140  22.051  40.633   1.198
79541W        W50141  10.884  36.543   2.296
79542W        W50142  42.842   8.885  12.952
79543W        W50143  10.174  20.698   2.370
79544W        W50144  11.567  42.930   0.735
79545W        W50145  16.069  44.261  10.303
79546W        W50146   6.430   5.540  11.041
79547W        W50147  10.133  16.370  13.910
79548W        W50148  11.644  41.421  12.422
79549W        W50149   7.396   9.862   3.760
79550W        W50150   1.720  17.340   3.764
79551W        W50151  27.120  22.081   0.487
79552W        W50152  34.868   6.854   4.765
79553W        W50153  42.403   0.365  14.352
79554W        W50154  36.981   4.999  13.583
79555W        W50155  25.999  43.381  14.667
79556W        W50156   1.973   4.331  11.586
79557W        W50157  19.179  40.508  13.367
79558W        W50158   7.964  15.300   1.789
79559W        W50159  36.849  33.372  13.439
79560W        W50160  39.095  44.319   4.557
79561W        W50161  20.918  39.618  11.164
79562W        W50162  41.465   7.259  13.169
79563W        W50163  28.491  29.484   3.374
79564W        W50164  12.442  20.645   4.570
79565W        W50165   7.344  34.999   3.566
79566W        W50166  35.549  44.673  14.296
79567W        W50167  42.107  25.018  10.781
79568W        W50168  42.283  13.296   4.774
79569W        W50169  16.188  27.744  13.477
79570W        W50170   0.890   1.502   1.276
79571W        W50171  15.872  14.043   4.064
79572W        W50172  15.076  18.274   3.671
79573W        W50173  42.005  32.383   0.677
79574W        W50174  25.178   8.421  13.974
79575W        W50175  37.929  38.338  14.335
79576W        W50176  31.482  12.717  12.454
79577W        W50177  27.090  25.464  13.570
79578W        W50178  44.521  14.160   1.197
79579W        W50179   1.910  29.585  12.919
79580W        W50180  14.174   1.348  13.417
79581W        W50181  15.616  37.791   2.391
79582W        W50182  20.437  18.114   2.132
79583W        W50183  19.788  27.195  11.634
79584W        W50184   7.133  27.191   4.403
79585W        W50185  40.812   0.504   4.525
79586W        W50186  20.565   2.886  10.408
79587W        W50187  33.735  17.547   0.371
79588W        W50188  29.547  17.000  11.689
79589W        W50189  38.010  22.469  12.432
79590W        W50190  26.134   2.729   1.965
79591W        W50191  28.574   5.440   2.073
79592W        W50192  10.231  37.910  13.563
79593W        W50193  15.294   2.732   3.807
79594W        W50194  42.001  17.694   2.417
79595W        W50195  29.530  23.738  13.685
79596W        W50196  27.960  40.623  11.084
79597W        W50197   1.097  24.030  10.757
79598W        W50198  33.364  32.643   0.357
79599W        W50199   6.021  10.553   2.863
79600W        W50200   2.033   9.384  10.902
79601W        W50201  32.920  41.286  13.555
79602W        W50202   2.260   3.411   1.749
79603W        W50203  33.085  35.545  11.516
79604W        W50204  18.214   0.213   0.272
79605W        W50205   3.756  28.000   0.011
79606W        W50206  33.143  32.583  13.563
79607W        W50207  34.792  21.672  12.523
79608W        W50208  36.817   5.415  11.136
79609W        W50209   0.020  26.515  11.691
79610W        W50210   9.390  38.588  12.481
79611W        W50211   9.148   1.946  13.281
79612W        W50212  25.640  37.613  14.588
79613W        W50213  20.493   7.646  13.546
79614W        W50214  25.416  28.060   3.735
79615W        W50215   0.210  24.320  12.909
79616W        W50216  10.104  36.072   9.997
79617W        W50217  11.799   9.625   1.772
79618W        W50218  13.891  27.451   1.556
79619W        W50219  22.553  21.733   4.617
79620W        W50220  21.406  20.816  13.458
79621W        W50221  19.285  37.320   1.343
79622W        W50222  33.194  13.133  13.895
79623W        W50223  24.427   6.558  14.740
79624W        W50224  24.292   7.867  12.155
79625W        W50225   9.569  16.232   0.170
79626W        W50226  14.561  37.085   4.244
79627W        W50227  14.730   6.484   3.686
79628W        W50228  31.386  14.099  11.014
79629W        W50229  25.524  21.085  13.984
79630W        W50230   0.724   4.443  13.541
79631W        W50231  41.547   3.526   4.575
79632W        W50232  28.728   5.151  10.376
79633W        W50233  14.537  25.228  12.459
79634W        W50234  35.786  23.410  11.056
79635W        W50235  20.380   7.330   0.034
79636W        W50236  16.824   1.832   3.347
79637W        W50237  42.347  34.808  14.913
79638W        W50238   5.480  19.467   2.951
79639W        W50239   4.444  12.255  11.117
79640W        W50240  13.852  31.616   4.644
79641W        W50241  13.050  16.675  11.612
79642W        W50242  31.580   0.953  11.912
79643W        W50243   6.678   9.884   4.095
79644W        W50244  24.803   7.773   3.105
79645W        W50245   6.808   7.970   4.169
79646W        W50246  25.671  29.381   2.631
79647W        W50247  40.935  39.415  10.730
79648W        W50248   8.648  25.814  11.602
79649W        W50249  27.475  32.476   4.203
79650W        W50250   6.680   3.522   4.047
79651W        W50251  21.696  27.920   1.391
79652W        W50252  43.484  13.204  13.999
79653W        W50253   0.932  24.859  13.551
79654W        W50254  42.050  18.604  12.451
79655W        W50255  29.263   2.623  12.613
79656W        W50256   6.939  27.057  12.982
79657W        W50257  13.182   9.212   2.143
79658W        W50258  12.638   3.450  12.562
79659W        W50259  36.445  10.083  13.032
79660W        W50260  18.816  29.610  10.704
79661W        W50261  30.202  34.105   1.220
79662W        W50262  34.117  24.265   2.002
79663W        W50263   3.770  19.346  11.502
79664W        W50264  13.741  39.452  10.405
79665W        W50265   7.161  41.588   4.634
79666W        W50266  25.073  35.533  13.840
79667W        W50267   1.761   7.036   1.033
79668W        W50268  14.077  33.874   1.298
79669W        W50269  15.702   9.288   0.730
79670W        W50270  10.955  25.995  13.555
79671W        W50271  26.174  33.019  13.111
79672W        W50272  30.587  18.358   1.901
79673W        W50273  32.151  39.073   0.925
79674W        W50274  11.294   4.373  14.181
79675W        W50275   3.346  22.045   3.873
79676W        W50276  41.283  37.322  10.584
79677W        W50277  20.904  33.092  13.308
79678W        W50278  17.692  20.717   0.861
79679W        W50279   3.420  18.479  12.516
79680W        W50280  30.820  26.045   0.927
79681W        W50281  33.337  15.651   4.129
79682W        W50282  22.250  11.640   0.015
79683W        W50283   5.812   2.659   0.460
79684W        W50284  34.898   1.830   4.467
79685W        W50285  27.914   1.359   3.670
79686W        W50286  16.030  20.626   0.427
79687W        W50287  10.638   0.274   2.083
79688W        W50288  24.487  20.143   1.299
79689W        W50289  18.323  25.635   3.698
79690W        W50290  25.689   4.798   1.811
79691W        W50291  12.223   4.121   4.631
79692W        W50292  35.646  17.152  13.489
79693W        W50293  22.226  27.252  12.878
79694W        W50294   2.249  33.375  14.001
79695W        W50295  29.049  13.757   3.624
79696W        W50296  43.470  18.115  11.026
79697W        W50297  33.872  13.259   1.143
79698W        W50298  25.174  17.653   2.804
79699W        W50299  12.306  26.026  12.294
79700W        W50300  34.877  23.543  14.733
79701W        W50301  20.100  42.911   0.368
79702W        W50302  29.410  39.011   4.859
79703W        W50303  23.222  11.156  14.846
79704W        W50304  31.097  14.697  12.076
79705W        W50305  17.785  33.405   3.592
79706W        W50306  13.262   3.913  11.013
79707W        W50307  30.023  39.816  13.770
79708W        W50308  15.780  43.740  11.952
79709W        W50309  31.724  27.839  14.405
79710W        W50310   1.310  30.540   3.877
79711W        W50311  18.185  26.259  11.573
79712W        W50312   2.329  20.565   2.616
79713W        W50313  11.309  22.365  11.150
79714W        W50314  16.629  25.185   1.478
79715W        W50315   6.447   3.617   1.794
79716W        W50316  16.161  33.483  14.783
79717W        W50317   7.497  28.277   1.344
79718W        W50318  36.661  32.495  12.461
79719W        W50319   6.282  31.169  13.008
79720W        W50320  10.768  12.599   3.492
79721W        W50321  44.795  44.646   4.422
79722W        W50322  33.593   5.773   2.638
79723W        W50323   2.443  37.596  11.181
79724W        W50324   9.459   9.394   2.465
79725W        W50325  10.281  22.956   0.198
79726W        W50326   7.274  13.700   4.160
79727W        W50327  20.493   3.497  12.567
79728W        W50328  34.638  35.840   2.516
79729W        W50329  44.386   7.684   0.319
79730W        W50330  29.458  44.597   2.647
79731W        W50331  24.251  11.627   3.106
79732W        W50332   8.774   0.245   3.172
79733W        W50333  10.373  37.494   1.407
79734W        W50334  42.538  28.048  14.780
79735W        W50335  10.480  44.360   3.028
79736W        W50336   5.820  12.572  12.965
79737W        W50337  26.309  26.636   0.960
79738W        W50338   3.993   2.885   1.693
79739W        W50339  15.694  36.608   0.425
79740W        W50340  31.133  33.069  12.036
79741W        W50341  39.341   7.753  12.864
79742W        W50342   0.078  23.169   4.827
79743W        W50343  25.883   3.225  14.147
79744W        W50344  30.030  41.473  12.270
79745W        W50345  27.881  29.751  12.962
79746W        W50346  12.845  24.515   2.702
79747W        W50347  35.095   8.949  14.487
79748W        W50348  36.627   9.323  11.883
79749W        W50349  20.564  12.805  12.404
79750W        W50350  16.595  35.645   3.439
79751W        W50351  22.736  22.194   0.165
79752W        W50352  41.164  37.103  12.903
79753W        W50353  35.641  23.525  11.519
79754W        W50354  41.210  19.631  14.451
79755W        W50355  24.089  29.043  13.988
79756W        W50356  42.462  27.949  13.974
79757W        W50357  25.922  44.855   2.808
79758W        W50358  27.985  31.164   1.208
79759W        W50359  35.795  30.789  12.009
79760W        W50360   5.949   5.723   3.030
79761W        W50361  38.104  20.369   2.772
79762W        W50362  18.214  31.457  10.960
79763W        W50363  17.301  35.555   1.344
79764W        W50364  29.638  12.307   1.049
79765W        W50365  15.617  24.906  11.061
79766W        W50366  33.095  19.791  13.240
79767W        W50367  19.849   0.382  12.070
79768W        W50368   6.303  17.790  12.895
79769W        W50369  35.094  16.332   0.793
79770W        W50370   3.183  19.541   1.302
79771W        W50371   6.322  23.107  12.933
79772W        W50372   8.850  35.965  11.517
79773W        W50373  27.927  38.827  10.469
79774W        W50374  10.673   0.770   0.266
79775W        W50375   9.607  14.992   3.861
79776W        W50376  20.749   3.296   0.138
79777W        W50377  13.898  38.004  14.370
79778W        W50378  10.444  25.090   4.315
79779W        W50379   5.642   9.617   3.206
79780W        W50380   0.937  11.087   3.565
79781W        W50381  17.893  31.165   4.136
79782W        W50382  44.319  21.812   2.009
79783W        W50383  42.538  34.861   1.283
79784W        W50384  10.119  37.098  14.908
79785W        W50385  20.748  38.977   4.418
79786W        W50386   1.286  22.513   0.536
79787W        W50387  37.336  11.414  11.653
79788W        W50388  30.532  26.993  11.695
79789W        W50389  22.739   0.971  13.182
79790W        W50390  41.019  18.153   1.797
79791W        W50391  31.859  10.362   1.581
79792W        W50392  43.682   4.941   2.253
79793W        W50393  14.320  39.858  13.362
79794W        W50394  12.071   1.899   2.114
79795W        W50395   7.301   5.510  13.437
79796W        W50396  29.416  30.523  12.974
79797W        W50397   4.596  42.888   2.437
79798W        W50398  29.131  26.253   4.251
79799W        W50399   9.268  39.497   1.293
79800W        W50400  20.779  44.549   1.754
79801W        W50401  25.212  23.031  11.174
79802W        W50402   7.500  29.867  12.610
79803W        W50403  14.348  44.747  13.922
79804W        W50404   2.000  10.686   3.347
79805W        W50405   5.942  29.466  11.360
79806W        W50406  12.394  27.433  12.043
79807W        W50407  26.614  12.169  14.072
79808W        W50408  17.622  15.080   0.746
79809W        W50409  10.879   0.383  12.228
79810W        W50410  37.915   3.719   4.061
79811W        W50411  24.146  24.489   3.776
79812W        W50412  18.175  22.537  12.732
79813W        W50413   5.302  16.250   3.280
79814W        W50414  43.952  31.929  11.070
79815W        W50415   8.325  11.780   0.420
79816W        W50416  42.593  31.323   2.697
79817W        W50417  35.208  15.581   2.288
79818W        W50418  15.766  41.388   4.361
79819W        W50419  25.714   2.915   3.660
79820W        W50420  41.253  17.677   5.418
79821W        W50421   1.032   0.262   2.190
79822W        W50422  15.734  40.368   1.297
79823W        W50423  28.178  37.491  10.338
79824W        W50424   7.598  21.322   3.664
79825W        W50425  35.083  13.541   1.369
79826W        W50426  36.535  12.587  11.869
79827W        W50427   7.471   0.501  13.296
79828W        W50428   9.240  24.011  13.010
79829W        W50429   1.510   2.961   0.423
79830W        W50430   4.010  20.203  11.332
79831W        W50431  32.631  14.650  10.662
79832W        W50432  18.660   3.685   3.731
79833W        W50433  26.155  33.613   4.459
79834W        W50434   4.900  39.736   3.274
79835W        W50435  30.094  10.761   4.094
79836W        W50436  30.332  14.165   4.644
79837W        W50437  22.232  16.849   1.727
79838W        W50438   4.441  25.125  14.843
79839W        W50439  20.655  12.843   4.325
79840W        W50440   2.492  13.863   0.084
79841W        W50441  13.055   5.484  13.378
79842W        W50442  17.972  20.987   4.210
79843W        W50443   6.670  43.557   3.680
79844W        W50444  36.146  16.815   2.264
79845W        W50445  32.563  42.524   0.516
79846W        W50446  44.212  44.526  14.574
79847W        W50447  27.276   2.767   4.799
79848W        W50448   2.003  26.127  12.521
79849W        W50449   9.676  11.386   0.833
79850W        W50450  35.149  21.806  13.349
79851W        W50451  10.176  36.355   1.271
79852W        W50452  39.051   9.647   4.586
79853W        W50453  44.502  38.587   9.993
79854W        W50454  11.273  13.116  11.888
79855W        W50455  11.486   3.703   1.899
79856W        W50456  29.504   3.492   2.837
79857W        W50457  17.310  18.166   1.324
79858W        W50458  11.358  26.145   2.514
79859W        W50459  15.847  28.585  10.548
79860W        W50460  27.024  39.549   0.192
79861W        W50461  33.301  44.364   4.799
79862W        W50462   7.469   8.280   3.657
79863W        W50463   2.284  33.569   1.084
79864W        W50464  28.197  38.039  12.906
79865W        W50465  20.703  11.444   2.774
79866W        W50466   1.891  40.959   0.533
79867W        W50467  13.667  13.139  10.668
79868W        W50468  38.279   1.366   4.161
79869W        W50469   0.543  35.020  11.074
79870W        W50470  15.862  11.101   4.139
79871W        W50471  35.163   0.495  12.200
79872W        W50472  37.095   3.804   1.862
79873W        W50473  22.517   1.800   0.320
79874W        W50474   1.989   9.944   2.833
79875W        W50475  28.101  40.807  13.066
79876W        W50476   9.886  38.288   3.676
79877W        W50477  13.593   5.284  10.429
79878W        W50478  26.307  30.567   1.813
79879W        W50479  26.107   1.926   2.642
79880W        W50480  35.897  15.880  10.808
79881W        W50481  36.210   0.879   1.474
79882W        W50482  30.503  25.271   1.468
79883W        W50483  15.821  13.520  12.354
79884W        W50484  40.766   9.435   1.738
79885W        W50485  39.765   1.946  14.849
79886W        W50486   1.148  13.143  11.096
79887W        W50487  20.766  30.595  11.230
79888W        W50488  12.895  29.938   0.168
79889W        W50489   8.424  33.983  12.987
79890W        W50490  11.859  19.492   3.643
79891W        W50491  35.501  14.230   0.908
79892W        W50492  43.214   2.649  12.819
79893W        W50493  17.370   0.694  11.043
79894W        W50494  16.667  22.567   2.373
79895W        W50495  42.481  10.622   0.206
79896W        W50496  19.182   5.773   4.137
79897W        W50497  18.364  35.549   1.168
79898W        W50498  35.459  44.914   0.581
79899W        W50499  19.986  18.542   3.055
79900W        W50500  42.488  14.177   2.635
79901W        W50501  43.268  22.614  14.074
79902W        W50502  22.249   7.478   0.465
79903W        W50503   4.039   8.825  12.657
79904W        W50504  40.072   6.366   2.741
79905W        W50505  21.967  19.048  11.143
79906W        W50506  35.593   0.510   2.782
79907W        W50507  15.335  36.574   3.532
79908W        W50508   9.115  13.735   3.094
79909W        W50509  10.153   8.712  11.928
79910W        W50510  28.144  11.805   2.773
79911W        W50511  42.985  44.761  10.917
79912W        W50512  19.500  39.103   2.298
79913W        W50513   6.399   9.026  13.673
79914W        W50514  25.154  13.791   1.980
79915W        W50515  17.750   7.779   3.735
79916W        W50516  35.720  31.176  11.071
79917W        W50517  41.817  14.757  14.789
79918W        W50518  31.609   0.032  10.719
79919W        W50519  29.318  23.020  12.145
79920W        W50520  34.270   5.324  14.718
79921W        W50521  22.531  31.574  13.490
79922W        W50522  37.126  12.838   3.667
79923W        W50523  33.265   8.400  10.917
79924W        W50524  37.787  28.532   0.219
79925W        W50525   5.798  28.536  12.031
79926W        W50526  39.305  14.626  13.861
79927W        W50527  18.319  24.579  12.142
79928W        W50528  43.927   5.371   0.406
79929W        W50529  33.644  11.719   4.683
79930W        W50530  25.362  26.952   3.650
79931W        W50531   1.279  40.556   3.755
79932W        W50532  24.258   0.701  13.492
79933W        W50533  18.058  19.637   4.168
79934W        W50534  36.756  30.771   2.984
79935W        W50535  28.545   7.397   0.875
79936W        W50536  20.515  33.519   0.883
79937W        W50537   7.721   6.637   1.770
79938W        W50538  27.915  20.718   4.238
79939W        W50539  37.957  23.156   0.412
79940W        W50540  30.037  12.384  10.631
79941W        W50541  36.137   5.232   3.115
79942W        W50542  44.297  20.164  14.108
79943W        W50543  26.522   8.919   2.193
79944W        W50544  33.952  18.924   1.532
79945W        W50545  42.233  24.732   3.302
79946W        W50546  25.607  18.177  12.504
79947W        W50547  30.132  36.539  12.989
79948W        W50548   6.819   8.343  13.120
79949W        W50549  16.257  37.343  10.950
79950W        W50550   1.310  34.109   2.257
79951W        W50551  18.691  29.555   2.030
79952W        W50552  32.428  10.957  12.476
79953W        W50553  15.192  24.424   2.741
79954W        W50554  16.230   4.362  14.059
79955W        W50555  17.133  36.085   0.006
79956W        W50556   8.995  27.605  11.930
79957W        W50557  21.158  32.970   2.700
79958W        W50558   9.088  13.320   0.797
79959W        W50559   0.765  17.198  10.890
79960W        W50560  30.578   3.175  12.518
79961W        W50561  39.231  37.614  13.495
79962W        W50562  14.573  44.253   4.517
79963W        W50563   4.934  26.054  14.562
79964W        W50564  24.216  20.834  11.574
79965W        W50565  31.054  27.504  11.705
79966W        W50566  21.372   2.301   2.267
79967W        W50567  29.359  34.521  10.599
79968W        W50568  39.879  11.349  13.640
79969W        W50569  21.481  36.163   1.479
79970W        W50570  34.180  20.739  12.119
79971W        W50571   1.322  43.528  12.826
79972W        W50572  25.684  20.165  13.665
79973W        W50573  13.090   3.797   4.898
79974W        W50574   6.914  29.393   2.404
79975W        W50575   5.571  15.983   3.656
79976W        W50576   7.262   4.849   1.791
79977W        W50577  37.589   1.410   3.077
79978W        W50578   7.379  34.500   4.896
79979W        W50579  31.992  40.394   2.176
79980W        W50580  35.087  17.505   3.575
79981W        W50581  13.025   0.029   1.851
79982W        W50582  30.511  41.876   3.805
79983W        W50583  44.019  16.251  10.707
79984W        W50584   1.367   5.297  11.137
79985W        W50585  35.900   4.248   1.388
79986W        W50586  27.067  15.136   3.140
79987W        W50587   8.874  17.905   0.896
79988W        W50588  41.939   6.856   3.159
79989W        W50589  10.116  16.229  14.787
79990W        W50590  14.041  12.934   3.615
79991W        W50591  30.054   1.438   0.950
79992W        W50592  39.695   8.712   4.559
79993W        W50593  43.594   0.529   2.546
79994W        W50594  31.226  14.748  13.973
79995W        W50595  33.051  15.058  12.515
79996W        W50596  13.190  25.234   5.085
79997W        W50597  24.951  41.349   4.253
79998W        W50598  34.631  16.476  14.997
79999W        W50599  31.926  22.796   0.823
80000W        W50600  36.382  15.813  11.572
80001W        W50601   8.742   2.223   2.362
80002W        W50602  30.577  31.495   4.166
80003W        W50603  38.163  36.931  13.917
80004W        W50604   7.356  14.939   3.205
80005W        W50605  44.002  18.488   3.957
80006W        W50606  26.982  38.533   1.483
80007W        W50607  36.553   3.555   3.883
80008W        W50608  35.982  40.042  11.524
80009W        W50609  19.512  17.204   0.814
80010W        W50610  40.526  31.687   2.838
80011W        W50611  10.424  24.412   3.077
80012W        W50612  13.028  11.068   3.015
80013W        W50613  10.114  28.231  10.823
80014W        W50614   4.394  11.201  13.723
80015W        W50615   7.364  26.226   4.145
80016W        W50616  26.502  34.084  13.931
80017W        W50617  17.686  33.856  13.735
80018W        W50618  14.256  22.594   4.695
80019W        W50619  28.858  13.795  12.698
80020W        W50620  42.788  10.706  11.659
80021W        W50621  22.573  27.737   4.664
80022W        W50622  15.338  32.213  11.931
80023W        W50623  18.783  19.160  12.017
80024W        W50624  32.810   2.032   4.117
80025W        W50625   3.938  29.904   0.461
80026W        W50626   2.771   0.495  13.287
80027W        W50627  43.848  44.533   1.385
80028W        W50628  30.029  24.145   4.409
80029W        W50629  13.146  11.651   2.200
80030W        W50630  36.908   4.000  14.765
80031W        W50631  35.368  22.248  13.081
80032W        W50632  20.094  23.942   4.586
80033W        W50633  28.680  26.723  13.416
80034W        W50634  38.002   5.228  14.547
80035W        W50635  12.614  13.323   3.716
80036W        W50636   2.913  27.624   1.742
80037W        W50637   1.519  37.579   2.757
80038W        W50638   0.708  19.453   1.809
80039W        W50639  19.765  27.512  12.919
80040W        W50640  23.728  40.926   4.368
80041W        W50641  21.478   3.206   2.195
80042W        W50642  15.290  38.001  14.756
80043W        W50643  38.578  22.681   0.200
80044W        W50644  21.125  43.983  14.070
80045W        W50645  31.609  26.895   3.238
80046W        W50646   1.245  30.240  13.149
80047W        W50647  17.190  14.092  11.277
80048W        W50648  14.291   3.557   1.355
80049W        W50649  13.909  17.403  12.093
80050W        W50650  22.417  15.380   2.180
80051W        W50651  42.694  43.619   2.826
80052W        W50652  43.964  23.681  12.835
80053W        W50653  17.613  26.406  13.273
80054W        W50654  31.965  36.574   2.556
80055W        W50655  14.298  10.897  12.451
80056W        W50656   2.960   9.185  12.765
80057W        W50657  13.626  24.244  12.879
80058W        W50658  11.147  39.496   4.586
80059W        W50659  14.341  28.851   4.211
80060W        W50660  36.583  30.423  11.271
80061W        W50661  26.907  26.591  11.657
80062W        W50662  19.611   5.643  12.931
80063W        W50663  21.092  39.070   3.888
80064W        W50664  32.956   3.890  14.789
80065W        W50665  19.745  43.340  13.045
80066W        W50666  25.223  44.484  10.490
80067W        W50667  20.115  13.127  13.495
80068W        W50668  15.752  24.171   1.162
80069W        W50669  16.673   5.886  11.038
80070W        W50670  35.704  44.923  13.866
80071W        W50671   5.929   7.347   3.882
80072W        W50672  31.395   0.513  12.557
80073W        W50673  10.963  19.026  12.394
80074W        W50674   2.726  40.882   1.414
80075W        W50675   1.504  21.228  11.783
80076W        W50676  29.456   6.358  11.135
80077W        W50677  37.913  17.807  11.443
80078W        W50678  33.532  12.319   1.756
80079W        W50679  34.848  16.564  11.564
80080W        W50680  35.352  37.368   1.155
80081W        W50681  17.662  43.825  11.687
80082W        W50682  36.592   4.913   1.436
80083W        W50683  12.171  26.471   1.419
80084W        W50684  10.739   4.944  11.559
80085W        W50685  26.057  35.898   4.208
80086W        W50686   7.159   0.463   4.542
80087W        W50687   7.418  19.159  14.910
80088W        W50688  30.068  18.549   0.840
80089W        W50689  19.833  36.452  13.499
80090W        W50690   2.400  26.435   1.835
80091W        W50691   2.345  15.160  11.156
80092W        W50692  31.490  35.703   4.490
80093W        W50693   2.210  43.722  13.821
80094W        W50694  34.472  26.176  14.788
80095W        W50695  13.120  27.063   2.652
80096W        W50696  30.504  33.421  14.489
80097W        W50697  34.029  34.057  10.404
80098W        W50698  36.624  26.511   3.217
80099W        W50699  26.022  39.307  10.784
80100W        W50700   4.495  30.432  11.600
80101W        W50701  22.941  16.705   3.854
80102W        W50702  16.715  17.807  12.611
80103W        W50703   8.691  25.955  14.419
80104W        W50704  24.433  12.370  11.933
80105W        W50705   7.278   0.955   2.325
80106W        W50706  44.835   7.658  12.517
80107W        W50707  36.576  10.445   1.856
80108W        W50708  39.258  43.821  11.286
80109W        W50709  14.664  29.320  14.000
80110W        W50710  23.453  14.833   4.770
80111W        W50711  36.068   2.198   4.334
80112W        W50712   4.319  33.923   2.909
80113W        W50713  38.526  20.814   0.382
80114W        W50714  15.702  29.371  13.019
80115W        W50715  11.582  24.220   4.176
80116W        W50716  23.701  41.465   1.148
80117W        W50717  25.315  16.413  11.094
80118W        W50718   1.167   4.476   0.353
80119W        W50719  35.480  35.194   4.511
80120W        W50720  15.671  30.249   0.447
80121W        W50721  34.067  33.595  10.632
80122W        W50722  22.162  11.572   2.231
80123W        W50723  21.781   0.322   2.632
80124W        W50724  34.202   6.879   3.592
80125W        W50725   4.740  31.709  11.457
80126W        W50726   3.792  14.274  13.619
80127W        W50727  11.233  40.051   0.267
80128W        W50728  29.609  26.967   4.547
80129W        W50729  42.769  39.586   2.711
80130W        W50730  26.121  44.399   4.697
80131W        W50731   1.730  27.072  11.242
80132W        W50732  23.735  34.823  13.456
80133W        W50733  27.495  38.659   0.886
80134W        W50734  28.591  39.559   3.221
80135W        W50735  29.008   3.645   2.691
80136W        W50736  37.344  23.954   0.282
80137W        W50737  22.589  27.763   0.529
80138W        W50738  41.682  35.177  11.516
80139W        W50739  17.785  27.000  14.540
80140W        W50740   7.363  34.688  11.726
80141W        W50741  17.196   2.208   0.587
80142W        W50742  11.569   3.102  14.075
80143W        W50743  32.450  28.897   4.290
80144W        W50744  35.723  26.530   4.496
80145W        W50745  29.460  34.443   0.974
80146W        W50746  18.901  26.446  12.423
80147W        W50747  17.075  41.963  13.908
80148W        W50748  28.591  29.623  12.536
80149W        W50749  44.325  43.102  10.130
80150W        W50750  41.319  14.266  11.093
80151W        W50751   6.967  21.047  13.784
80152W        W50752  37.034   5.931   0.395
80153W        W50753  40.726   6.654  11.979
80154W        W50754   2.195  44.869   3.657
80155W        W50755   9.785   6.658   0.417
80156W        W50756  13.235  38.803   0.335
80157W        W50757   0.843  20.034   3.395
80158W        W50758  14.663  17.017  11.276
80159W        W50759  29.009  28.454   3.719
80160W        W50760  35.675  31.037  11.553
80161W        W50761   7.177  22.440  14.839
80162W        W50762   5.214  36.614   3.908
80163W        W50763  28.441  32.934   4.038
80164W        W50764   7.699  16.701  10.615
80165W        W50765  30.940  39.276  14.596
80166W        W50766  37.419  38.471  14.285
80167W        W50767   2.714  12.340   0.876
80168W        W50768  12.096  44.851  14.458
80169W        W50769  25.723  26.116  12.616
80170W        W50770  28.441   4.794  11.101
80171W        W50771  29.076  29.868   2.693
80172W        W50772  20.226  39.996   0.459
80173W        W50773  26.648  28.395  12.074
80174W        W50774   3.397  35.831   0.399
80175W        W50775  16.063  10.325  11.522
80176W        W50776  11.711  42.466  10.981
80177W        W50777  41.256  38.089  13.011
80178W        W50778  18.664   3.482  13.443
80179W        W50779  27.876  27.432   2.489
80180W        W50780  20.271  38.358   1.369
80181W        W50781  35.324  17.635  14.294
80182W        W50782   7.152  32.562  12.872
80183W        W50783   1.945  41.428  12.479
80184W        W50784  41.868  23.531   0.415
80185W        W50785  19.881  28.516  10.764
80186W        W50786  18.558  39.838  11.042
80187W        W50787  12.930  31.509   4.057
80188W        W50788  35.556  17.699  13.082
80189W        W50789   8.934  33.627  12.082
80190W        W50790  14.510  34.212   3.539
80191W        W50791  34.355  40.137   4.873
80192W        W50792  37.234  30.913   5.221
80193W        W50793  26.653  28.707   1.945
80194W        W50794  15.783  23.053   2.252
80195W        W50795  11.313   4.677   3.949
80196W        W50796  22.099  14.785  11.605
80197W        W50797   0.940  15.655  13.961
80198W        W50798  12.236  26.497  11.175
80199W        W50799  10.876   0.826   2.742
80200W        W50800  42.114  33.636   1.951
80201W        W50801  22.546   2.829  14.909
80202W        W50802  42.904  32.872  13.943
80203W        W50803  33.021   2.190  14.939
80204W        W50804   8.193  25.208  13.119
80205W        W50805  34.489  32.627   1.367
80206W        W50806  31.612   6.995  11.525
80207W        W50807   1.538   1.624   2.382
80208W        W50808  12.270   7.954   3.599
80209W        W50809  19.965  27.328  10.304
80210W        W50810   6.848  27.511  10.411
80211W        W50811  43.756  22.580   2.332
80212W        W50812  27.947  13.174   4.866
80213W        W50813   9.877  36.823  14.486
80214W        W50814   4.667   1.072  11.089
80215W        W50815   5.751  17.729  14.847
80216W        W50816   4.333  29.517  12.408
80217W        W50817  28.165   8.175   3.697
80218W        W50818  38.755  35.460  14.190
80219W        W50819  34.111  28.737   0.419
80220W        W50820  13.625  16.722  10.680
80221W        W50821  22.400  31.586  11.752
80222W        W50822  28.790  26.398  12.121
80223W        W50823   1.994  31.108   4.898
80224W        W50824  31.742   7.923   4.146
80225W        W50825   1.193   1.046   0.345
80226W        W50826  41.719   9.249   1.716
80227W        W50827  16.512  35.482   0.970
80228W        W50828  15.671  42.382  11.833
80229W        W50829  15.658  12.082  11.593
80230W        W50830  37.852  23.409   1.359
80231W        W50831  19.304  35.172   4.839
80232W        W50832  38.963   0.100  12.621
80233W        W50833  22.718   5.640  11.575
80234W        W50834  15.720  22.993  11.938
80235W        W50835   2.152  31.968  14.206
80236W        W50836  39.345  30.580   1.313
80237W        W50837   1.228  12.274  10.825
80238W        W50838  32.912   9.951  12.800
80239W        W50839  40.129  25.713   4.161
80240W        W50840  15.712  13.742   0.910
80241W        W50841  24.754  12.166   1.877
80242W        W50842  32.803   9.092  12.489
80243W        W50843  20.003  18.746   3.535
80244W        W50844  14.113   8.695   1.648
80245W        W50845   9.804  11.821   3.234
80246W        W50846  33.762  14.871   2.338
80247W        W50847  33.037  19.677  12.264
80248W        W50848  14.310  21.380   3.815
80249W        W50849   9.807  38.355   3.147
80250W        W50850  31.379   0.706   2.387
80251W        W50851  11.910  20.185   2.218
80252W        W50852  28.044   8.429  10.048
80253W        W50853  17.734   4.165   4.143
80254W        W50854  33.059   1.329   4.643
80255W        W50855  12.058  10.183   4.298
80256W        W50856   0.514  21.437   5.120
80257W        W50857  44.306  37.553  14.454
80258W        W50858   0.758  19.935   3.892
80259W        W50859  27.633   8.419   2.761
80260W        W50860  19.144  15.006   3.629
80261W        W50861  13.348  30.608  12.848
80262W        W50862  22.729  18.137  13.897
80263W        W50863  38.844   1.513   0.474
80264W        W50864   6.798  22.438  12.768
80265W        W50865   3.189  22.015  14.728
80266W        W50866  44.865  44.512   2.647
80267W        W50867  24.768  36.415   0.611
80268W        W50868  24.955  27.066   4.873
80269W        W50869  16.182   5.842  10.687
80270W        W50870  22.759  34.149  14.787
80271W        W50871  38.021   4.023   1.831
80272W        W50872  42.360  12.762   2.147
80273W        W50873  41.956   0.384  12.139
80274W        W50874  43.993  31.461  13.075
80275W        W50875  42.402  32.752   1.014
80276W        W50876  17.866  31.092  11.033
80277W        W50877  44.009  11.141   3.218
80278W        W50878  23.719  23.992  13.560
80279W        W50879  44.031   6.791  12.104
80280W        W50880  40.855  22.466   2.425
80281W        W50881   1.269  11.363  11.331
80282W        W50882  39.599  27.047   0.829
80283W        W50883   5.882  11.368   5.036
80284W        W50884   5.217  44.422  14.516
80285W        W50885  21.795  14.082   1.361
80286W        W50886   6.692  28.602   1.416
80287W        W50887  26.918   4.852   4.518
80288W        W50888   3.231  24.159   3.258
80289W        W50889  29.228  34.287   4.191
80290W        W50890   2.977  16.900  14.143
80291W        W50891   3.567  32.999   1.875
80292W        W50892  24.947  30.493  14.916
80293W        W50893  22.303  32.057   2.007
80294W        W50894  31.494  14.365  13.771
80295W        W50895  14.269  42.890   4.957
80296W        W50896   8.147   5.758  14.002
80297W        W50897  44.567  38.007  14.486
80298W        W50898  29.016   3.267  13.298
80299W        W50899  44.919  21.280  10.381
80300W        W50900   6.099  23.019   2.684
80301W        W50901  19.300  13.055   5.035
80302W        W50902   1.857  16.954   4.841
80303W        W50903   2.444  17.582  11.106
80304W        W50904  13.545  36.024  13.679
80305W        W50905  30.235  40.336   0.308
80306W        W50906  34.876  10.923  13.489
80307W        W50907   4.442   3.804  10.452
80308W        W50908  36.751  31.163   3.332
80309W        W50909  40.091  12.396   4.233
80310W        W50910  18.989  19.238   0.943
80311W        W50911  12.183  32.681  13.509
80312W        W50912  25.766   7.608  12.602
80313W        W50913  15.795  35.558  13.992
80314W        W50914  23.478  25.572  12.954
80315W        W50915   1.491  30.919  14.867
80316W        W50916  38.029   3.682   3.176
80317W        W50917  19.659   5.851   2.661
80318W        W50918  14.604   5.730   2.295
80319W        W50919  11.454   2.636   2.757
80320W        W50920  19.742  26.694   3.100
80321W        W50921  25.581  20.447  11.506
80322W        W50922  30.608  24.608   0.058
80323W        W50923   9.616   2.417   2.849
80324W        W50924   3.510   4.480  12.116
80325W        W50925  39.536   1.189   3.708
80326W        W50926  12.754   0.538  11.520
80327W        W50927  41.217  15.787  10.358
80328W        W50928  12.814   1.785  14.311
80329W        W50929  22.539   0.732  13.602
80330W        W50930  30.911   1.245   4.915
80331W        W50931   0.887  33.247   2.431
80332W        W50932   1.396  24.808  10.535
80333W        W50933  18.166  34.455   2.388
80334W        W50934  41.574  17.604  14.365
80335W        W50935  18.200  37.851  12.769
80336W        W50936  42.411  19.151   3.285
80337W        W50937  22.143  14.485   3.818
80338W        W50938   0.717  43.556   2.774
80339W        W50939  39.046   4.764  14.461
80340W        W50940  39.083  13.470   1.213
80341W        W50941   6.686  37.664   3.796
80342W        W50942  25.231  21.128  12.196
80343W        W50943  26.055  28.447   0.196
80344W        W50944  32.936  20.271  12.920
80345W        W50945   2.821  19.843   3.179
80346W        W50946  16.887  21.604   0.580
80347W        W50947  36.196   1.060  13.455
80348W        W50948  25.423  17.061  11.670
80349W        W50949  29.657  10.217  13.387
80350W        W50950   2.973  28.642  12.901
80351W        W50951  41.576   6.469  10.442
80352W        W50952  43.493  38.829   1.350
80353W        W50953  16.574  30.858  13.895
80354W        W50954  35.159  16.774  12.878
80355W        W50955  10.701  31.795  10.966
80356W        W50956   7.853  20.847  13.263
80357W        W50957   0.792   1.872  10.712
80358W        W50958  14.298   5.809  12.394
80359W        W50959   5.904  32.527  13.349
80360W        W50960  36.467   8.697  10.226
80361W        W50961  32.960  19.748  12.763
80362W        W50962   7.670  34.828   1.244
80363W        W50963  31.710  20.197  10.549
80364W        W50964  41.094   7.459  12.145
80365W        W50965  20.546   5.398  11.495
80366W        W50966  21.010  20.719  14.341
80367W        W50967  27.695  28.555  12.474
80368W        W50968  21.026  33.556  14.966
80369W        W50969  44.277  38.023  10.410
80370W        W50970  37.617  37.296   0.402
80371W        W50971  16.582  41.469  11.380
80372W        W50972  20.702  39.810  11.591
80373W        W50973  17.034   1.210  12.486
80374W        W50974   2.739  13.280  11.068
80375W        W50975  33.383  38.584   3.693
80376W        W50976  21.688   5.859  12.991
80377W        W50977  17.241  30.166   1.864
80378W        W50978  44.851   5.910   4.658
80379W        W50979  40.359   9.762   3.296
80380W        W50980  38.334  10.602   1.181
80381W        W50981  13.026  10.299   4.643
80382W        W50982  21.998  11.755  13.061
80383W        W50983  28.783   9.799   2.807
80384W        W50984   4.956   8.022   4.689
80385W        W50985  20.421  29.400  11.339
80386W        W50986  29.537  21.282   2.923
80387W        W50987  28.820  15.820  10.341
80388W        W50988  17.499  39.726   1.407
80389W        W50989   0.355  39.856  14.824
80390W        W50990  10.082  24.299   1.741
80391W        W50991   3.734  32.833  11.535
80392W        W50992  41.865   4.502   2.850
80393W        W50993  14.562   5.449  12.101
80394W        W50994  14.801   3.618  11.055
80395W        W50995  40.405  17.182  10.287
80396W        W50996   7.123  12.714  13.453
80397W        W50997  22.203   6.910   1.863
80398W        W50998  22.594  44.301  12.035
80399W        W50999  15.717  38.380  12.401
80400W        W51000   4.429  16.540   4.138
80401W        W51001  25.018  30.393   4.409
80402W        W51002  17.119   4.121   2.290
80403W        W51003   0.856  25.958  11.638
80404W        W51004  39.537  41.059  14.333
80405W        W51005  22.621  20.457  13.101
80406W        W51006  12.711  35.521   3.361
80407W        W51007  19.018  13.795  10.449
80408W        W51008  17.062  26.467   1.463
80409W        W51009  18.644  11.992   2.180
80410W        W51010  10.439  16.419  12.015
80411W        W51011  44.858  41.504   0.401
80412W        W51012  11.415  32.187   0.415
80413W        W51013  30.072  18.580   2.690
80414W        W51014   8.264  19.532   3.240
80415W        W51015   8.950  32.908  12.891
80416W        W51016  14.428  41.302  13.209
80417W        W51017  14.124  14.930   3.143
80418W        W51018   6.385   2.004  12.608
80419W        W51019  19.262  30.768  13.444
80420W        W51020  34.677  22.107  10.928
80421W        W51021  26.477   6.247   0.480
80422W        W51022   9.855  20.632   3.909
80423W        W51023  31.240  42.129   5.464
80424W        W51024  37.852   4.593  11.114
80425W        W51025  35.105   7.188   2.307
80426W        W51026   0.341  26.163  12.374
80427W        W51027  28.199  29.957   3.348
80428W        W51028  30.154  17.781   4.024
80429W        W51029  23.757  35.772  12.443
80430W        W51030  10.697  32.495  10.603
80431W        W51031   2.451  11.366  13.888
80432W        W51032   1.396  30.067  14.435
80433W        W51033  42.876   1.719  13.362
80434W        W51034  10.891  23.652   2.888
80435W        W51035  32.164  16.039  13.492
80436W        W51036  29.169   2.968  11.010
80437W        W51037  14.030  38.543  12.880
80438W        W51038  14.251  21.793   1.383
80439W        W51039  12.311  34.100  13.032
80440W        W51040  25.591  24.992   4.552
80441W        W51041  20.088  11.834  12.227
80442W        W51042  25.988  40.331   2.726
80443W        W51043  12.108  21.233   4.918
80444W        W51044  27.999   2.962   2.160
80445W        W51045  44.248  10.755   2.871
80446W        W51046  25.127  32.479   3.965
80447W        W51047  34.431  21.994   2.659
80448W        W51048  28.799  39.890  11.733
80449W        W51049  23.742   6.948   0.428
80450W        W51050  32.483  44.915   4.707
80451W        W51051   7.713   4.613   1.763
80452W        W51052  17.713   9.598   4.669
80453W        W51053  17.561   5.209  10.819
80454W        W51054  19.191  31.134  10.674
80455W        W51055  44.321   3.160   4.500
80456W        W51056   4.278   8.783   3.878
80457W        W51057  37.834  25.128  14.929
80458W        W51058  24.048  26.252  10.249
80459W        W51059  43.941  21.526   2.876
80460W        W51060  22.533  37.076  13.405
80461W        W51061  11.281  40.389  13.088
80462W        W51062   0.320  12.773   0.691
80463W        W51063  35.149  10.348  14.304
80464W        W51064  36.086   6.229  12.569
80465W        W51065  13.142  29.980  13.421
80466W        W51066   5.904   9.179   4.932
80467W        W51067  11.780   8.744  10.827
80468W        W51068  12.604  42.814  13.650
80469W        W51069  11.111  18.706  14.903
80470W        W51070  31.472  11.267  11.404
80471W        W51071   1.448   3.920   2.201
80472W        W51072  33.138  41.923  10.682
80473W        W51073  37.357  22.555   3.331
80474W        W51074   1.307  11.237   4.385
80475W        W51075  38.353  36.507  14.802
80476W        W51076  21.138  43.570  11.117
80477W        W51077   3.788   6.159  12.031
80478W        W51078  35.234  23.778   2.665
80479W        W51079  18.157  17.985  10.983
80480W        W51080  39.420   1.025   0.925
80481W        W51081   2.803  15.207  10.924
80482W        W51082  13.555  18.778   3.201
80483W        W51083  37.875  25.922  13.444
80484W        W51084  23.151  30.042  12.349
80485W        W51085  42.920  22.244   3.247
80486W        W51086  19.546  40.531   2.449
80487W        W51087  15.362  27.876  14.302
80488W        W51088  29.637  16.706   3.798
80489W        W51089  35.109  33.007   1.753
80490W        W51090  29.216  29.205  11.677
80491W        W51091  35.032  37.641  13.835
80492W        W51092   1.910  16.084  13.895
80493W        W51093  38.530  20.612  12.632
80494W        W51094  34.447  15.153   4.757
80495W        W51095  44.310  21.402   1.685
80496W        W51096  30.398  18.172   2.759
80497W        W51097   9.771   8.846  14.077
80498W        W51098  26.319  38.968   2.475
80499W        W51099  30.546  40.127  14.479
80500W        W51100  22.423  30.466   3.188
80501W        W51101  33.070  38.400   0.243
80502W        W51102  31.940  12.271  11.085
80503W        W51103   0.329  40.023  13.048
80504W        W51104   1.387  15.950  13.927
80505W        W51105  36.386  36.421  11.173
80506W        W51106  11.212  42.069   0.469
80507W        W51107  32.491  28.150   2.774
80508W        W51108  41.290  34.435  14.835
80509W        W51109   9.228  41.989   3.768
80510W        W51110   4.906  17.140  12.011
80511W        W51111  35.143   8.730  14.009
80512W        W51112   6.789  12.563  14.843
80513W        W51113   8.621  24.290   4.744
80514W        W51114  29.064  38.942   1.753
80515W        W51115  19.776   9.931  10.721
80516W        W51116  15.876  28.137  10.305
80517W        W51117  16.874   0.626  11.164
80518W        W51118  15.273  20.002   1.922
80519W        W51119  16.110  43.380  12.158
80520W        W51120  17.072  18.849  11.183
80521W        W51121  23.533  27.089  14.323
80522W        W51122  14.643  34.794   1.888
80523W        W51123  23.997  33.887  14.425
80524W        W51124  28.236  31.072  13.389
80525W        W51125  35.035  27.567   3.118
80526W        W51126  32.101  43.792   3.136
80527W        W51127  29.170  33.141  12.094
80528W        W51128  36.484  44.036  14.889
80529W        W51129  31.556  36.434   3.369
80530W        W51130  11.528  28.923   4.529
80531W        W51131  38.467  38.286  14.350
80532W        W51132  17.361   1.204   1.900
80533W        W51133  23.187  43.770  14.089
80534W        W51134  42.454  13.282  13.919
80535W        W51135   4.929  33.409   1.435
80536W        W51136  38.877  21.649  11.236
80537W        W51137  28.180  17.088   3.186
80538W        W51138  12.817  39.512  10.349
80539W        W51139  33.631   4.307  11.743
80540W        W51140   0.732  13.785   4.594
80541W        W51141  37.545   9.312  12.999
80542W        W51142  31.835  29.715   1.238
80543W        W51143  24.598  24.786  13.792
80544W        W51144   2.828  40.051  11.461
80545W        W51145  39.770  38.073  14.953
80546W        W51146  30.872  18.194  14.456
80547W        W51147   2.789   6.982  13.583
80548W        W51148  24.477  27.645   4.628
80549W        W51149   6.919  28.144  14.046
80550W        W51150  17.962  37.394  12.867
80551W        W51151  17.891  35.704   4.057
80552W        W51152  31.382  31.500  11.193
80553W        W51153  15.810  25.207   2.695
80554W        W51154   2.057   2.563   3.004
80555W        W51155  18.310  13.241   1.135
80556W        W51156   1.922  21.481  11.640
80557W        W51157  39.076  17.340   1.407
80558W        W51158  25.199  40.835  14.938
80559W        W51159   3.746  41.382   4.588
80560W        W51160  44.981  20.024   0.873
80561W        W51161  23.638  44.664  14.902
80562W        W51162  42.767  30.345   0.017
80563W        W51163   0.409  21.216   0.248
80564W        W51164  44.950  23.244   4.346
80565W        W51165  28.341  40.063  11.588
80566W        W51166  36.884  23.695  14.405
80567W        W51167   6.638  21.824  13.422
80568W        W51168  26.589  18.165   4.114
80569W        W51169  38.526  36.042   1.859
80570W        W51170  28.119  12.643   4.265
80571W        W51171   4.984   5.111  12.079
80572W        W51172  11.158  16.533  12.652
80573W        W51173   9.917  39.529  12.003
80574W        W51174  32.368  42.449  12.044
80575W        W51175  15.197  17.539   0.370
80576W        W51176  32.963  38.167  12.126
80577W        W51177  18.612  28.564   4.306
80578W        W51178  37.845   2.991  12.656
80579W        W51179  37.271  41.929   2.741
80580W        W51180  29.543  44.308  10.736
80581W        W51181  36.435  34.500  13.941
80582W        W51182  37.276  40.832   0.338
80583W        W51183  26.015  31.531  12.192
80584W        W51184  36.982  40.960   0.732
80585W        W51185   6.637  27.908  14.519
80586W        W51186  37.934  33.150  11.446
80587W        W51187  20.134  24.500   2.924
80588W        W51188  35.931   5.870   1.893
80589W        W51189  17.739  29.959   4.094
80590W        W51190  39.597  29.042  11.084
80591W        W51191  28.034   5.915  14.918
80592W        W51192  21.477  41.705  12.543
80593W        W51193  34.958  30.655  13.558
80594W        W51194   0.940   3.233  13.801
80595W        W51195   0.899   8.391  13.382
80596W        W51196  23.964   6.814  12.309
80597W        W51197  26.119  15.708  10.917
80598W        W51198  37.111  35.801  10.719
80599W        W51199  16.355   7.404  13.053
80600W        W51200  14.664   9.707  11.777
80601W        W51201  16.524   9.449   0.042
80602W        W51202  35.434  21.052  12.653
80603W        W51203  25.312  30.054   0.765
80604W        W51204  23.019  35.465  12.669
80605W        W51205  36.089   7.810  11.609
80606W        W51206   5.403  44.390  10.662
80607W        W51207  31.611  29.895  12.559
80608W        W51208  11.455  15.781  11.603
80609W        W51209  11.937  31.954   0.438
80610W        W51210  10.311  11.784  12.024
80611W        W51211  30.671  13.571  14.442
80612W        W51212   2.158  18.706   0.496
80613W        W51213   9.349  15.802   1.938
80614W        W51214  28.966   4.246  13.419
80615W        W51215  36.950  30.674   1.740
80616W        W51216  12.262  43.778  13.520
80617W        W51217   4.366  11.240   0.218
80618W        W51218   1.430  25.358  10.573
80619W        W51219   5.985  13.269   4.110
80620W        W51220   1.265   4.768  11.111
80621W        W51221  20.202  24.166   1.958
80622W        W51222  27.368   5.133  14.337
80623W        W51223   9.457  19.609   4.104
80624W        W51224  16.866  25.327   2.741
80625W        W51225  37.489  30.117   3.509
80626W        W51226  39.536  16.247  12.484
80627W        W51227  38.030  43.404   3.229
80628W        W51228  11.916  21.059   0.000
80629W        W51229  10.898   4.160   1.418
80630W        W51230  23.117  16.387   1.948
80631W        W51231  18.063  21.531  10.762
80632W        W51232  34.803  28.642  13.440
80633W        W51233  23.038  28.031   2.404
80634W        W51234   3.406   5.422   1.248
80635W        W51235   3.029  41.858  12.772
80636W        W51236  27.115  17.242   3.662
80637W        W51237  18.048  15.526  12.204
80638W        W51238  36.582  19.763   0.515
80639W        W51239  40.819  34.481  12.571
80640W        W51240  27.148   9.742  14.582
80641W        W51241  39.360  10.347  12.541
80642W        W51242  36.161   3.429  13.179
80643W        W51243   7.184  24.764  11.138
80644W        W51244  37.294  10.280   3.175
80645W        W51245  22.531  18.138  13.408
80646W        W51246  40.049  26.733  12.450
80647W        W51247  25.635  10.209  13.966
80648W        W51248  14.595  35.917  14.547
80649W        W51249   5.199  21.764   1.250
80650W        W51250  13.536   4.678  12.533
80651W        W51251  11.736   8.618   1.679
80652W        W51252  28.367  44.508  14.527
80653W        W51253  31.457  26.674   2.779
80654W        W51254  19.747  44.392   0.841
80655W        W51255  41.979  15.272  12.216
80656W        W51256  21.900   8.356  12.435
80657W        W51257   3.006  21.020  14.837
80658W        W51258  25.559  39.128   9.934
80659W        W51259  14.852  35.228   5.437
80660W        W51260  26.166  13.958  11.093
80661W        W51261  15.057  19.071   1.878
80662W        W51262  26.950  39.787  11.591
80663W        W51263  22.552   7.851   0.252
80664W        W51264   2.268   9.707  13.627
80665W        W51265  19.302  31.265  13.152
80666W        W51266  15.875  29.345   4.054
80667W        W51267  44.445  24.578   1.584
80668W        W51268  34.682  33.047   2.756
80669W        W51269  28.587   8.566   1.139
80670W        W51270  31.991  44.755  14.838
80671W        W51271  31.850  39.607  12.897
80672W        W51272   8.411  31.923  13.262
80673W        W51273  10.086  13.287   0.805
80674W        W51274  31.101   1.798  12.308
80675W        W51275  31.358  18.385  14.526
80676W        W51276  36.982   5.555   1.884
80677W        W51277  15.741  43.435   1.665
80678W        W51278   0.819  27.986  11.698
80679W        W51279  12.202  26.282   3.122
80680W        W51280  12.963  36.733   1.831
80681W        W51281  43.862  25.152   3.199
80682W        W51282   5.678  36.270   2.921
80683W        W51283  39.946  36.523   2.882
80684W        W51284   7.712  40.110   1.845
80685W        W51285  24.265  41.914   2.209
80686W        W51286  23.084  40.028   3.526
80687W        W51287   0.357  28.287  10.474
80688W        W51288  11.930  43.244  12.527
80689W        W51289  10.005   6.851  14.531
80690W        W51290  16.340  15.710  13.059
80691W        W51291  31.523   3.676   1.904
80692W        W51292  44.019  16.642  11.065
80693W        W51293  10.105  43.070   1.207
80694W        W51294  28.549  29.583   1.181
80695W        W51295  15.714  41.617  14.484
80696W        W51296  42.959  34.969   3.702
80697W        W51297  14.546   4.820  13.975
80698W        W51298  21.074  25.639   4.739
80699W        W51299  32.461   0.240   4.270
80700W        W51300  25.425   3.813  13.386
80701W        W51301  27.481  19.075   0.255
80702W        W51302   7.930  40.696   1.108
80703W        W51303  24.192  43.981  13.963
80704W        W51304  10.635  12.282   4.144
80705W        W51305   0.179   9.802  14.726
80706W        W51306  21.694  23.272   2.860
80707W        W51307  19.690   7.800   4.557
80708W        W51308  21.810  41.811   0.943
80709W        W51309   3.895  15.168   1.363
80710W        W51310  12.335  13.099  11.182
80711W        W51311   9.738  35.306   0.871
80712W        W51312  43.764  17.078  11.616
80713W        W51313  11.168  25.031   0.238
80714W        W51314  14.649  20.459   0.352
80715W        W51315  25.298   4.860  11.602
80716W        W51316   3.947  29.956   4.493
80717W        W51317  19.926  28.478   3.084
80718W        W51318  26.495  19.049   2.591
80719W        W51319  24.087  42.315   2.825
80720W        W51320   1.722  16.192  10.956
80721W        W51321  35.156  11.643  14.916
80722W        W51322  25.832  22.751   4.084
80723W        W51323  12.836  24.182   3.716
80724W        W51324  39.834   2.370   0.739
80725W        W51325  24.005   6.897   4.978
80726W        W51326   8.446  26.206  13.088
80727W        W51327  36.929  18.595   4.381
80728W        W51328  17.253  23.715  11.617
80729W        W51329  42.814  35.352   0.414
80730W        W51330  22.949  21.883  14.808
80731W        W51331  33.359  44.867   4.585
80732W        W51332  27.864  31.437   0.772
80733W        W51333  21.020   6.799  12.157
80734W        W51334  36.768   1.798   4.133
80735W        W51335  18.554  43.853   0.420
80736W        W51336  42.495  21.906   0.958
80737W        W51337  32.044  43.279   0.456
80738W        W51338  26.622  10.164  13.939
80739W        W51339  28.100  27.251   2.922
80740W        W51340  41.745   9.157   3.817
80741W        W51341  42.768  35.104   2.246
80742W        W51342   6.773   1.219   2.296
80743W        W51343  24.193  43.137   0.369
80744W        W51344   3.219  44.052   3.761
80745W        W51345   3.874   4.736   2.689
80746W        W51346  40.609  43.266  12.416
80747W        W51347   6.133  39.578   4.486
80748W        W51348  12.317   0.192  13.063
80749W        W51349  29.073  10.817   0.881
80750W        W51350   1.338  26.709   0.430
80751W        W51351  31.399  18.857   1.135
80752W        W51352  33.893  37.079  11.456
80753W        W51353  43.765   7.106   4.888
80754W        W51354   1.852   9.167   3.285
80755W        W51355  21.320  33.054   0.355
80756W        W51356  33.934   5.108   4.756
80757W        W51357   0.560  20.935   1.690
80758W        W51358  32.243  34.243  13.845
80759W        W51359  22.396  31.404   0.918
80760W        W51360   9.927  23.643   1.238
80761W        W51361  40.858  10.327   2.923
80762W        W51362  32.468  33.902   3.776
80763W        W51363  19.099  19.646   4.365
80764W        W51364  29.598  16.198   1.936
80765W        W51365  10.383   1.736  14.408
80766W        W51366  11.890  27.672  14.392
80767W        W51367   3.729   8.039  14.985
80768W        W51368  27.699  39.599  13.344
80769W        W51369  32.241  13.533   1.501
80770W        W51370  42.303  10.457   3.887
80771W        W51371   3.424  23.496   2.271
80772W        W51372  10.766  23.687  13.983
80773W        W51373  34.954  18.269   0.334
80774W        W51374  13.343  31.972  10.675
80775W        W51375  33.119  21.021   1.750
80776W        W51376   0.368  28.558  13.635
80777W        W51377  14.299   0.449   4.198
80778W        W51378  27.040  15.884   5.176
80779W        W51379  31.958  36.700   0.697
80780W        W51380  36.079  41.059  12.847
80781W        W51381  16.170   2.343   0.916
80782W        W51382   4.858  13.160   3.095
80783W        W51383  27.473  42.973   1.010
80784W        W51384  43.837  15.673  10.451
80785W        W51385  20.508  18.179  12.432
80786W        W51386  14.589  34.516   2.731
80787W        W51387  43.731  44.907  11.502
80788W        W51388  11.626  37.781  12.626
80789W        W51389  42.961  44.699  10.389
80790W        W51390   1.831  24.356  12.607
80791W        W51391  12.759  27.294  14.027
80792W        W51392  26.647  43.220   0.268
80793W        W51393   0.247  29.134  12.821
80794W        W51394  34.897  29.136   3.628
80795W        W51395  35.190   3.508  14.551
80796W        W51396  15.541  30.136  14.604
80797W        W51397  40.453  40.547   3.673
80798W        W51398  19.714  36.191  11.596
80799W        W51399   5.325  38.123  14.850
80800W        W51400  23.996  12.084   5.062
80801W        W51401  10.568  11.846  13.509
80802W        W51402  18.053   0.844   0.757
80803W        W51403   1.042  42.142   4.107
80804W        W51404  36.135  18.803   4.022
80805W        W51405  41.890  38.314  10.517
80806W        W51406   1.777   9.778  10.668
80807W        W51407  17.162  13.466   1.733
80808W        W51408  39.379  20.690   1.475
80809W        W51409  31.147   3.850   4.602
80810W        W51410   6.982  34.598   0.455
80811W        W51411  10.361   0.561   0.654
80812W        W51412  22.232   6.187   1.487
80813W        W51413   6.692  12.877   3.664
80814W        W51414  19.110  43.316   2.404
80815W        W51415  22.699  33.502  12.143
80816W        W51416  37.314  34.598  12.562
80817W        W51417  27.963   1.063  13.297
80818W        W51418  29.026  13.602  12.228
80819W        W51419  41.974   5.973   3.306
80820W        W51420  33.580  29.081   4.163
80821W        W51421  39.934   0.841   4.591
80822W        W51422  44.479   1.932   0.424
80823W        W51423  38.038  25.787   2.768
80824W        W51424  29.624  30.893  12.356
80825W        W51425   5.120   0.331  11.546
80826W        W51426  44.386  40.241   2.914
80827W        W51427  20.181  43.839   3.639
80828W        W51428  17.025  18.058  11.549
80829W        W51429  20.082   3.481   3.179
80830W        W51430  11.400   3.745   0.853
80831W        W51431  21.183  24.470   3.808
80832W        W51432  23.526  25.962   0.944
80833W        W51433  42.814  44.554   2.707
80834W        W51434  38.238  12.159   0.584
80835W        W51435  22.199  26.988   1.461
80836W        W51436  44.447   0.836  13.407
80837W        W51437  24.400   6.752   3.255
80838W        W51438  12.852  36.527   0.156
80839W        W51439  43.103   4.948   0.730
80840W        W51440  36.298  30.021   2.297
80841W        W51441  20.777   3.740   3.826
80842W        W51442  40.864  36.581   3.618
80843W        W51443   4.356  20.572  13.912
80844W        W51444  20.280  43.484  13.852
80845W        W51445  21.071  14.552   2.251
80846W        W51446  34.516  33.865   4.309
80847W        W51447  31.124  15.142  10.590
80848W        W51448  40.719   8.747  11.412
80849W        W51449  43.444  18.583   4.655
80850W        W51450  11.861  25.838   3.842
80851W        W51451  41.466   4.814   2.753
80852W        W51452  25.779  18.628  14.155
80853W        W51453  23.659  43.055  11.963
80854W        W51454   9.247  41.840   0.754
80855W        W51455  38.926  38.556  14.338
80856W        W51456  21.541  40.023  12.971
80857W        W51457  39.581   3.895   1.120
80858W        W51458  36.979  23.680   4.799
80859W        W51459  39.356  30.162   3.347
80860W        W51460  10.342  15.605  14.003
80861W        W51461   9.851  16.341  13.479
80862W        W51462  35.915   7.593  13.638
80863W        W51463  16.235  23.410  13.880
80864W        W51464  15.977  10.375   2.270
80865W        W51465  44.014   4.354   0.596
80866W        W51466  26.505  12.792   1.063
80867W        W51467  19.219  36.078  11.164
80868W        W51468   0.042  27.187  11.134
80869W        W51469  20.819  40.762   2.164
80870W        W51470  34.652  17.895   0.104
80871W        W51471  44.963  29.770   3.847
80872W        W51472  14.048  28.201  14.532
80873W        W51473  21.213  12.546  11.931
80874W        W51474  25.685   2.745   0.725
80875W        W51475   2.536  29.977  13.985
80876W        W51476  40.893  18.363  11.211
80877W        W51477  12.879  43.927   0.046
80878W        W51478  28.019  35.473   4.598
80879W        W51479  18.893   1.404  11.288
80880W        W51480  15.633  12.796  12.023
80881W        W51481  35.145  34.398   1.492
80882W        W51482  25.081  37.772  14.700
80883W        W51483  39.190  11.668   5.419
80884W        W51484  26.167   6.274   3.854
80885W        W51485   9.320  38.568   2.276
80886W        W51486  26.716  24.523  12.905
80887W        W51487   7.647  42.000  13.371
80888W        W51488   4.201  36.743   0.350
80889W        W51489   3.163  36.004   3.591
80890W        W51490   8.387   5.575  12.099
80891W        W51491   9.357  10.230   0.436
80892W        W51492  23.612  25.999  12.116
80893W        W51493  26.712  44.429   2.916
80894W        W51494  12.477  12.399  14.323
80895W        W51495  44.296  37.407  13.158
80896W        W51496  33.526  14.852  13.809
80897W        W51497  31.028  43.778  10.919
80898W        W51498   2.777  30.854  11.159
80899W        W51499  26.618  11.514   2.297
80900W        W51500   3.413  32.564   2.677
80901W        W51501   3.144  14.638   1.758
80902W        W51502  11.055  19.882   3.465
80903W        W51503  41.610  20.006   0.945
80904W        W51504  13.692  34.328   3.526
80905W        W51505   2.294  24.725   2.393
80906W        W51506  24.060   5.479   0.057
80907W        W51507  16.887  37.120  13.854
80908W        W51508  26.654  18.651   3.260
80909W        W51509  43.896  22.571  12.645
80910W        W51510  11.179  13.144   3.764
80911W        W51511  32.808  26.655   1.395
80912W        W51512  17.839  27.570   0.395
80913W        W51513   5.485  27.531  11.946
80914W        W51514  24.437  40.549   3.983
80915W        W51515  17.830  16.810   2.921
80916W        W51516  19.633  22.705  14.008
80917W        W51517  37.752  12.836  13.836
80918W        W51518  18.444  21.523  11.126
80919W        W51519  37.298  37.186  10.326
80920W        W51520  40.066  14.671  12.384
80921W        W51521   5.625  32.588  13.820
80922W        W51522  20.575   0.235  10.658
80923W        W51523   6.365  11.582  13.872
80924W        W51524  29.198  29.918  11.982
80925W        W51525  42.366  29.741  12.978
80926W        W51526  41.402   6.877   3.254
80927W        W51527  25.757   5.462  13.368
80928W        W51528  36.445  13.879   2.359
80929W        W51529  15.582  13.279  13.689
80930W        W51530   1.461  13.342   3.554
80931W        W51531   9.457  37.330  10.611
80932W        W51532  31.883  24.504   0.889
80933W        W51533   4.327  40.577  12.399
80934W        W51534   8.210  24.409   4.206
80935W        W51535  20.947  19.947  13.489
80936W        W51536  27.357   1.781   1.879
80937W        W51537  32.213  43.253  11.037
80938W        W51538   7.010  18.863  12.883
80939W        W51539  32.991  16.795   2.101
80940W        W51540  32.091  34.305   2.274
80941W        W51541  16.069  33.179  12.392
80942W        W51542  34.509  26.240   0.501
80943W        W51543  40.794  20.819  11.116
80944W        W51544  24.692  33.129  12.416
80945W        W51545  13.535  11.182   2.838
80946W        W51546  43.395   0.358   3.719
80947W        W51547   5.664  11.108  14.021
80948W        W51548  12.962   4.353  11.106
80949W        W51549  28.507  28.663   2.759
80950W        W51550   1.284   5.455  12.531
80951W        W51551  24.683  17.563   1.310
80952W        W51552   1.832  13.307   3.160
80953W        W51553  24.804  43.412  12.713
80954W        W51554  34.115  15.827  11.161
80955W        W51555  11.844  34.498   4.367
80956W        W51556  15.626  42.653   3.695
80957W        W51557  29.032  15.466   3.332
80958W        W51558  15.074  37.760  13.280
80959W        W51559  34.424  10.070   2.402
80960W        W51560   8.320  37.115  12.698
80961W        W51561  27.732  35.323  12.500
80962W        W51562  31.014  44.750  11.491
80963W        W51563   5.756   1.059   0.649
80964W        W51564   3.388  22.974   2.355
80965W        W51565   1.655  37.910  12.764
80966W        W51566   7.769  42.616   1.130
80967W        W51567  39.145  34.058   3.963
80968W        W51568   7.908   2.386   4.646
80969W        W51569  25.126  13.875  13.067
80970W        W51570  14.832   8.344  11.466
80971W        W51571  38.275  36.076   2.887
80972W        W51572  34.011  25.670   1.902
80973W        W51573  38.547   4.721   0.276
80974W        W51574  19.111  16.151  13.935
80975W        W51575  42.621   4.944  14.497
80976W        W51576   7.114  42.172   2.342
80977W        W51577  14.384   4.309  11.564
80978W        W51578  43.604  13.597  14.309
80979W        W51579  12.473  41.945   3.378
80980W        W51580   2.382  38.844  13.875
80981W        W51581   0.729  23.104  13.389
80982W        W51582  35.504   9.331   0.716
80983W        W51583  17.815  19.176   4.007
80984W        W51584  21.242   2.442  11.699
80985W        W51585  41.956  18.408  10.078
80986W        W51586  36.798  24.415   0.769
80987W        W51587   7.171  42.184  13.503
80988W        W51588  34.871  43.011   1.442
80989W        W51589  28.194  26.995   0.881
80990W        W51590  23.405  42.248   0.824
80991W        W51591  16.552  34.836   0.486
80992W        W51592  11.922  39.938   1.466
80993W        W51593  12.145  14.903   3.770
80994W        W51594   0.443   6.714   1.381
80995W        W51595  38.402  26.598   3.739
80996W        W51596  28.603  23.144  13.505
80997W        W51597  30.751  33.474   0.339
80998W        W51598  23.023  44.741   1.821
80999W        W51599  15.869   2.758   0.929
81000W        W51600  12.862   8.643  14.477
81001W        W51601  10.781  35.676  11.608
81002W        W51602  26.182   1.737  11.092
81003W        W51603  42.569  11.924   0.683
81004W        W51604  34.056   4.345  12.037
81005W        W51605  22.478  33.480   5.000
81006W        W51606  20.965   2.986   3.318
81007W        W51607  40.977   0.459   3.736
81008W        W51608  15.783  24.687  10.617
81009W        W51609  40.297  21.688  12.392
81010W        W51610  21.611  30.750   4.320
81011W        W51611  18.341  11.296   0.548
81012W        W51612  37.749   3.260   0.721
81013W        W51613  12.726  26.009  12.591
81014W        W51614  30.091  37.649   1.965
81015W        W51615  41.934  15.092   3.322
81016W        W51616  10.851  42.814  11.413
81017W        W51617   5.784   2.972   4.082
81018W        W51618   5.392  22.360  11.081
81019W        W51619  38.299  20.247  12.937
81020W        W51620  10.237  26.861  11.291
81021W        W51621  20.308   3.643  13.053
81022W        W51622   2.961  36.105   3.145
81023W        W51623   2.805  19.227   3.889
81024W        W51624   4.066  28.523   0.608
81025W        W51625  19.889   6.121   0.422
81026W        W51626  20.587  16.320  13.024
81027W        W51627   2.886  32.391  11.175
81028W        W51628  37.017  12.009  12.792
81029W        W51629  24.599   9.056   3.248
81030W        W51630   7.712   5.770   0.929
81031W        W51631  16.427  11.100   3.265
81032W        W51632   4.316  19.884  13.398
81033W        W51633  16.356  29.035   2.715
81034W        W51634  44.728  29.185   0.962
81035W        W51635  21.163   6.765   4.727
81036W        W51636  35.916   8.239   0.742
81037W        W51637  28.181  22.208  10.114
81038W        W51638  15.921  23.261   2.762
81039W        W51639  12.171  41.470   1.982
81040W        W51640  13.222  40.482  13.099
81041W        W51641  40.561  41.129   0.728
81042W        W51642  15.302  24.829   3.689
81043W        W51643   9.182  28.544  12.802
81044W        W51644  42.024  38.938   3.711
81045W        W51645   0.688   9.126  14.348
81046W        W51646   7.202   7.295  13.939
81047W        W51647  29.994  14.122  12.017
81048W        W51648   2.677  34.087  13.570
81049W        W51649  35.211  27.397   1.742
81050W        W51650  30.527  21.361  13.852
81051W        W51651   6.701  21.226  14.204
81052W        W51652   1.436  24.021  12.594
81053W        W51653  25.023  34.731   1.044
81054W        W51654  19.849  30.750   2.726
81055W        W51655   2.517  32.929   9.839
81056W        W51656  20.346  36.006  14.361
81057W        W51657  35.042  42.896   2.880
81058W        W51658  28.144  28.988   1.196
81059W        W51659  28.642  37.824   0.257
81060W        W51660  21.670  35.425  13.910
81061W        W51661  27.308  22.826   4.318
81062W        W51662  29.030  22.518  10.431
81063W        W51663   5.925  21.722   2.534
81064W        W51664  26.589  38.557   2.654
81065W        W51665  36.469   4.861   1.955
81066W        W51666  13.758  37.105   4.678
81067W        W51667  14.258  21.505   0.908
81068W        W51668  18.679  22.516  10.346
81069W        W51669  30.608  24.713   2.729
81070W        W51670   1.013   5.277   2.071
81071W        W51671  33.104  16.704  11.028
81072W        W51672  42.589  37.960   3.589
81073W        W51673  17.829  35.497   3.353
81074W        W51674  18.579  18.141   1.701
81075W        W51675   9.499  16.388  12.448
81076W        W51676  24.058  29.899  11.019
81077W        W51677  24.591  25.075  13.340
81078W        W51678  14.319  32.362   2.293
81079W        W51679  21.044  41.838   3.207
81080W        W51680  38.368   8.747   4.208
81081W        W51681   4.163   2.494  13.350
81082W        W51682  36.225  35.985  11.598
81083W        W51683  19.132  41.859  14.257
81084W        W51684  10.315  26.081   4.128
81085W        W51685   2.402  36.760  12.856
81086W        W51686  10.073  37.208   5.214
81087W        W51687  12.075   1.285  14.867
81088W        W51688  30.978  37.378  14.398
81089W        W51689  33.256   2.759   2.190
81090W        W51690   6.768  10.224   4.483
81091W        W51691  40.937  31.336   0.824
81092W        W51692   7.433  11.010  11.194
81093W        W51693  40.008  23.992   4.998
81094W        W51694  20.477   4.922   3.237
81095W        W51695  18.272  35.004  11.630
81096W        W51696  33.218   6.775  14.767
81097W        W51697  14.079  13.057  13.772
81098W        W51698  10.619  21.099   1.193
81099W        W51699  44.497  38.118   1.980
81100W        W51700  30.096  21.791   1.172
81101W        W51701  21.298  33.996  13.871
81102W        W51702  11.793  38.884   1.381
81103W        W51703  39.087  31.795   1.750
81104W        W51704  37.367  27.407   4.344
81105W        W51705  24.936  40.002   3.159
81106W        W51706  42.089  42.064  12.659
81107W        W51707  23.408  41.372  13.848
81108W        W51708   7.003  39.179   2.865
81109W        W51709  12.164   1.858   0.229
81110W        W51710  20.742   8.207  11.707
81111W        W51711   5.614  21.227   3.627
81112W        W51712  40.749  15.895   3.702
81113W        W51713  24.279  41.997  12.939
81114W        W51714  41.552  27.136   1.452
81115W        W51715  40.805   2.364   0.483
81116W        W51716   2.275  26.558   0.934
81117W        W51717  40.099  40.529  12.441
81118W        W51718  40.553   3.643   9.911
81119W        W51719  25.393  25.696  11.511
81120W        W51720  19.160  32.575  10.755
81121W        W51721  16.635   1.181  14.974
81122W        W51722  11.259  36.613   0.328
81123W        W51723  21.441  38.914  13.981
81124W        W51724   5.134  10.468  10.202
81125W        W51725   8.476  43.010  14.794
81126W        W51726   8.319  39.368   2.088
81127W        W51727  33.580  40.878   1.721
81128W        W51728  16.216   8.203   0.878
81129W        W51729  30.218  43.967   3.627
81130W        W51730  35.507  27.199  13.579
81131W        W51731  15.922  44.787   4.520
81132W        W51732  37.367  26.964   4.078
81133W        W51733  13.584  32.264   2.744
81134W        W51734  36.849  21.770  14.560
81135W        W51735  23.224  37.708   2.379
81136W        W51736  21.042  43.526  13.811
81137W        W51737  37.921  18.016  11.909
81138W        W51738   8.438  11.603  12.963
81139W        W51739  29.146  31.467  12.049
81140W        W51740  18.808  27.440  13.589
81141W        W51741  32.565  17.693   1.728
81142W        W51742  34.944  29.730  14.357
81143W        W51743  38.600  24.946   3.716
81144W        W51744   5.953   8.278  14.779
81145W        W51745  26.412  27.142   0.887
81146W        W51746  11.642  33.380   3.370
81147W        W51747  16.743  30.043   1.786
81148W        W51748  15.685  21.797   5.010
81149W        W51749  34.584   9.389  14.533
81150W        W51750   1.560  11.695  13.780
81151W        W51751  37.507  27.019  13.112
81152W        W51752  23.556  32.052   2.869
81153W        W51753  18.713  28.155  14.125
81154W        W51754  37.335  13.072  13.600
81155W        W51755  16.130   0.020   2.900
81156W        W51756   1.718  43.887  10.793
81157W        W51757  44.426  13.288  12.162
81158W        W51758  37.088  32.771   1.057
81159W        W51759   1.505   7.929  12.101
81160W        W51760   3.222  30.137  14.758
81161W        W51761  33.471  19.137   5.063
81162W        W51762  27.007   0.673   3.712
81163W        W51763  40.011  40.023  12.475
81164W        W51764  10.994   3.942   1.879
81165W        W51765   0.916  43.719   0.880
81166W        W51766  20.793  11.230   3.682
81167W        W51767  42.412  38.512  10.583
81168W        W51768  21.286   3.807   3.850
81169W        W51769  12.616  43.415  14.285
81170W        W51770   2.037  30.917  11.241
81171W        W51771   0.359   3.491  12.685
81172W        W51772  24.648   2.045  14.370
81173W        W51773  43.289  15.181   2.867
81174W        W51774   2.879  10.577   3.516
81175W        W51775  38.461  27.610  10.843
81176W        W51776  37.133  20.982  11.691
81177W        W51777  33.621  14.938  11.623
81178W        W51778  42.443  38.862  13.830
81179W        W51779  38.023  13.773  14.778
81180W        W51780  27.271  16.251   3.758
81181W        W51781  31.491  14.127  12.810
81182W        W51782  14.239  34.764   4.683
81183W        W51783   5.536  12.176   3.740
81184W        W51784  27.093   8.146  12.051
81185W        W51785  23.672  33.071   0.821
81186W        W51786  39.349  36.482  14.426
81187W        W51787  39.257  11.210   2.812
81188W        W51788  16.494  16.537  12.120
81189W        W51789  22.135  43.439   3.620
81190W        W51790  32.893  32.951   1.208
81191W        W51791  39.183   3.073  11.709
81192W        W51792  21.227  26.108  13.364
81193W        W51793  24.788  34.474  12.561
81194W        W51794  37.587  19.186   2.310
81195W        W51795  33.414  23.568  11.192
81196W        W51796   4.835  34.814  14.716
81197W        W51797  44.714  39.642  11.278
81198W        W51798  26.762  15.611  12.071
81199W        W51799  12.387   9.262  10.646
81200W        W51800   2.206  16.760   1.793
81201W        W51801   2.793  14.561   0.826
81202W        W51802  14.896  12.898   2.977
81203W        W51803   6.808  30.440   1.003
81204W        W51804   7.959  34.422   2.258
81205W        W51805  13.493  41.197   3.242
81206W        W51806   7.558  27.890   3.668
81207W        W51807  20.699  21.038  13.046
81208W        W51808  30.500   4.167  12.409
81209W        W51809  12.616   1.301   3.104
81210W        W51810  14.490  36.021  13.088
81211W        W51811  22.368  10.809  14.654
81212W        W51812  32.617  32.896   3.728
81213W        W51813  29.483  30.826   3.775
81214W        W51814  16.073  36.939   0.532
81215W        W51815  29.132  11.681  12.043
81216W        W51816  36.977  36.806   4.064
81217W        W51817  14.852  22.614   2.903
81218W        W51818  17.726  44.851  12.573
81219W        W51819  25.677  34.463   4.821
81220W        W51820  28.532   1.018   0.020
81221W        W51821  24.445  34.129  11.569
81222W        W51822  42.542  42.071   4.139
81223W        W51823  36.501  15.788  14.979
81224W        W51824   5.189  14.681   1.964
81225W        W51825  21.178  41.952  12.183
81226W        W51826  31.704  21.786  14.619
81227W        W51827  10.984  16.699  13.102
81228W        W51828  43.769  19.746   0.452
81229W        W51829   4.716  10.455  11.095
81230W        W51830  10.962  33.636   1.316
81231W        W51831  24.669   2.790  10.726
81232W        W51832  25.980  10.532   2.777
81233W        W51833  32.511  13.357   1.943
81234W        W51834  16.992  44.747  11.147
81235W        W51835  27.521  19.448  13.338
81236W        W51836   4.300   3.661   1.329
81237W        W51837  32.749  16.297  10.987
81238W        W51838  20.618  41.556   0.302
81239W        W51839   5.392  40.981   4.718
81240W        W51840  29.407  24.041   3.165
81241W        W51841  16.087   8.782   3.143
81242W        W51842  27.941  33.470  10.436
81243W        W51843  39.954  31.532  13.346
81244W        W51844  20.043  22.376   1.151
81245W        W51845  15.287  15.888   3.314
81246W        W51846  38.200  36.994  14.848
81247W        W51847  41.959  26.682  12.509
81248W        W51848  27.484  44.918   2.712
81249W        W51849  32.400  41.035   0.210
81250W        W51850  40.275   9.211   1.777
81251W        W51851  12.952  29.213  11.687
81252W        W51852   4.771  18.571   2.735
81253W        W51853  22.737  17.367   2.849
81254W        W51854  32.121  21.798  12.758
81255W        W51855  43.836  30.155  14.888
81256W        W51856  44.942  42.625  12.699
81257W        W51857  13.322  27.974   1.746
81258W        W51858   1.525  18.839   4.835
81259W        W51859   6.953  20.183  12.077
81260W        W51860  37.841  24.451  14.993
81261W        W51861  10.234   9.114  10.663
81262W        W51862  32.438   8.066   2.783
81263W        W51863  29.178  33.939  12.221
81264W        W51864  44.433  15.243   2.737
81265W        W51865  15.735   8.385   3.697
81266W        W51866  14.052   7.144   4.220
81267W        W51867  39.250   4.800  11.479
81268W        W51868  11.931   8.826   4.067
81269W        W51869  34.311  27.571  10.707
81270W        W51870  14.645  16.964   1.871
81271W        W51871  19.201  10.663   0.505
81272W        W51872  17.819  29.490  14.388
81273W        W51873   9.634  35.871   1.867
81274W        W51874  24.217  40.786   4.689
81275W        W51875  13.752  35.580   1.355
81276W        W51876  24.690  35.869   0.490
81277W        W51877  30.632  26.319   2.318
81278W        W51878  15.749  33.530   1.219
81279W        W51879  28.080   0.767   0.909
81280W        W51880  42.406  43.517  13.548
81281W        W51881  29.226  21.010  12.143
81282W        W51882  11.668  31.610   2.287
81283W        W51883  17.280  43.489  11.191
81284W        W51884  24.187  33.731   3.369
81285W        W51885  13.785  22.210  11.166
81286W        W51886  14.251  21.176  12.854
81287W        W51887  37.879  43.231   0.777
81288W        W51888  40.490  39.775   4.265
81289W        W51889  39.347  24.078  12.989
81290W        W51890   6.308  32.447  10.345
81291W        W51891  22.499  20.107   1.916
81292W        W51892  43.791  22.670  14.920
81293W        W51893  28.448  38.488  13.021
81294W        W51894  10.280  38.267   2.425
81295W        W51895  17.528  20.539   1.358
81296W        W51896  42.401  22.432  14.793
81297W        W51897  38.976  27.470  12.046
81298W        W51898   5.382  15.508   3.827
81299W        W51899  26.728  40.026   0.877
81300W        W51900  38.417  41.021  14.728
81301W        W51901  35.384  12.895   2.827
81302W        W51902  31.108   3.223  10.118
81303W        W51903  28.197  31.030  12.456
81304W        W51904  19.190  32.078   1.573
81305W        W51905  23.267  18.655  11.031
81306W        W51906  14.852   7.775   1.897
81307W        W51907   9.589   7.013  12.504
81308W        W51908  42.353  41.033  12.515
81309W        W51909  13.134  24.943   2.390
81310W        W51910  29.116   4.441   0.989
81311W        W51911  39.864  34.027  11.793
81312W        W51912  36.311  28.594   0.508
81313W        W51913  43.923  24.667   4.544
81314W        W51914  26.191  30.738  11.172
81315W        W51915  37.997  12.537  12.922
81316W        W51916  35.489  27.526   4.628
81317W        W51917  20.817   6.676  14.428
81318W        W51918   1.923  12.957   0.865
81319W        W51919  30.908  19.028   3.628
81320W        W51920  19.243  24.636   1.748
81321W        W51921  31.196  16.586   3.667
81322W        W51922  44.881  24.072   0.973
81323W        W51923  40.749   4.637   2.642
81324W        W51924  28.654  11.996  13.050
81325W        W51925  18.993   6.219   4.352
81326W        W51926  22.006   7.948  12.092
81327W        W51927  27.536  25.987  10.631
81328W        W51928  22.521  35.106  14.475
81329W        W51929  20.019  15.583  12.944
81330W        W51930  39.825  40.741  12.851
81331W        W51931  39.517  14.646  10.629
81332W        W51932  21.027   2.112  11.378
81333W        W51933  28.783  13.754  14.340
81334W        W51934   1.250  14.716  13.063
81335W        W51935  20.545  24.184   0.989
81336W        W51936   4.921   0.889  10.661
81337W        W51937  42.363   0.023  13.537
81338W        W51938  26.612   3.108  13.848
81339W        W51939  11.269  42.253  10.889
81340W        W51940  29.995  35.663   3.552
81341W        W51941  29.902  35.173   3.556
81342W        W51942  31.443  34.666  13.957
81343W        W51943  32.612   5.832   4.203
81344W        W51944  22.795  36.280  10.421
81345W        W51945  35.483  23.771  13.520
81346W        W51946  18.339   0.648  10.911
81347W        W51947  26.129   9.843   4.699
81348W        W51948  13.554   9.659  13.097
81349W        W51949  39.415  35.170  11.635
81350W        W51950  30.559  34.582  12.872
81351W        W51951  34.461  38.328  10.940
81352W        W51952  31.400   2.393   1.425
81353W        W51953  27.041  43.163   4.550
81354W        W51954  22.359  37.355   3.597
81355W        W51955  15.282   6.798  12.950
81356W        W51956  22.075  37.390  10.327
81357W        W51957  38.373  42.384  12.764
81358W        W51958  13.880   1.484  11.961
81359W        W51959   8.907  13.315   2.245
81360W        W51960  38.762  42.171   0.847
81361W        W51961  18.776   0.418  10.701
81362W        W51962   0.987  32.565  13.060
81363W        W51963   8.508   8.733  11.968
81364W        W51964  37.545  18.881   4.057
81365W        W51965  37.227  15.260  14.866
81366W        W51966  42.251  31.999   3.208
81367W        W51967  16.248  41.539   3.595
81368W        W51968  36.954   3.265   4.126
81369W        W51969   9.189  29.118   3.282
81370W        W51970  13.044  43.210  11.893
81371W        W51971  31.178  15.663  13.110
81372W        W51972  41.029  20.171  12.502
81373W        W51973  34.595   4.385   3.812
81374W        W51974  39.968   7.733  12.289
81375W        W51975   9.770  33.735  14.264
81376W        W51976  41.428  28.573   1.477
81377W        W51977   5.882  22.699   2.328
81378W        W51978   5.017  31.431   3.218
81379W        W51979   1.303  41.267  11.207
81380W        W51980  44.074  33.668  11.460
81381W        W51981  41.292  37.342  14.553
81382W        W51982   8.295  37.895  11.260
81383W        W51983   6.769  22.467  12.262
81384W        W51984  24.632  31.580  13.261
81385W        W51985  12.897  27.037  11.105
81386W        W51986  27.024  38.253  11.505
81387W        W51987   1.256  12.180  14.025
81388W        W51988  16.468  11.964   2.738
81389W        W51989   3.814  27.691   1.001
81390W        W51990  42.792  28.458  12.422
81391W        W51991  18.130   8.095  13.896
81392W        W51992  13.818   5.336   1.978
81393W        W51993  12.025  44.927   1.823
81394W        W51994  10.958  18.863  13.539
81395W        W51995  40.663  38.373  13.956
81396W        W51996   1.854  13.962  12.060
81397W        W51997  16.087   7.847  12.935
81398W        W51998  14.113   3.262  12.781
81399W        W51999   5.953  11.874   5.050
81400W        W52000  24.047   7.995   3.603
81401W        W52001  31.518   2.772  12.669
81402W        W52002   7.133  40.990  12.313
81403W        W52003  36.340  21.159  13.491
81404W        W52004  31.155  23.018  14.490
81405W        W52005  19.141  20.517   3.686
81406W        W52006  25.633  15.898   4.053
81407W        W52007  19.294   3.380  10.707
81408W        W52008  37.844  35.570  14.034
81409W        W52009  20.480  24.348  11.121
81410W        W52010  32.626  35.066  13.350
81411W        W52011   9.096  10.816  10.940
81412W        W52012   7.637  12.658  13.447
81413W        W52013  22.974  39.500   2.426
81414W        W52014  17.018  43.880  14.337
81415W        W52015  33.448  27.526   2.771
81416W        W52016  27.768  26.570  11.192
81417W        W52017  17.276  21.864   3.299
81418W        W52018   4.185   1.310   4.059
81419W        W52019   1.219   5.010   3.281
81420W        W52020  28.622  10.179   1.241
81421W        W52021  24.953   6.244   2.633
81422W        W52022   8.350  29.095  14.009
81423W        W52023  15.015  25.645   3.156
81424W        W52024  26.111  11.806   4.351
81425W        W52025   8.087  31.547  11.167
81426W        W52026  32.618  31.517  11.492
81427W        W52027  19.811  43.051  14.025
81428W        W52028  40.058  30.829   1.446
81429W        W52029  15.292  41.549  14.199
81430W        W52030  23.110  33.515   3.169
81431W        W52031  40.739  25.984   0.774
81432W        W52032   6.750  19.224  10.905
81433W        W52033  21.608  23.614   4.154
81434W        W52034  12.295  38.399   3.772
81435W        W52035  11.143  29.325   0.364
81436W        W52036  27.045  26.632   3.752
81437W        W52037  25.580   6.142  11.529
81438W        W52038  26.899  25.659   1.835
81439W        W52039   8.449  18.420  12.073
81440W        W52040  30.448  27.908   0.391
81441W        W52041  38.917  15.709  11.890
81442W        W52042   0.859   8.308   3.016
81443W        W52043  12.256  20.747  13.006
81444W        W52044  32.682  26.468  12.470
81445W        W52045  37.504  28.721   3.372
81446W        W52046   6.642   2.945  13.909
81447W        W52047  37.920  24.403   1.255
81448W        W52048  43.004   3.918   1.749
81449W        W52049   6.975  30.927  13.655
81450W        W52050  24.145  26.940   4.993
81451W        W52051  17.675  27.904   0.030
81452W        W52052  34.437   1.143   2.790
81453W        W52053  15.552  28.391   1.440
81454W        W52054   0.269  23.737  12.954
81455W        W52055   3.014   2.920   4.299
81456W        W52056  25.530  22.756   1.350
81457W        W52057  34.826   8.733  13.164
81458W        W52058  35.388  12.778  14.969
81459W        W52059  30.157  14.137   1.833
81460W        W52060  27.286  43.430   2.283
81461W        W52061  14.148  42.578   0.227
81462W        W52062  34.068  33.524  13.274
81463W        W52063  15.158  10.098  11.696
81464W        W52064   2.921  34.789   1.895
81465W        W52065   0.286   6.407   1.792
81466W        W52066  36.564   5.499   3.180
81467W        W52067  25.286   7.816  11.857
81468W        W52068   2.661  36.887   0.661
81469W        W52069  20.389   7.229   9.852
81470W        W52070  27.123  39.050   0.320
81471W        W52071  23.179  36.807   4.542
81472W        W52072  16.503  26.365   3.291
81473W        W52073  14.208  41.729  10.327
81474W        W52074   0.278  13.892  12.919
81475W        W52075  36.986  23.107   2.739
81476W        W52076  14.743   9.653   0.228
81477W        W52077  28.134  28.263  12.910
81478W        W52078   3.667  25.227   1.911
81479W        W52079  42.044   1.466   2.360
81480W        W52080  16.548   4.017  12.468
81481W        W52081   1.828   2.224   1.580
81482W        W52082  29.470  26.554  13.829
81483W        W52083  20.081  21.839   1.922
81484W        W52084  17.179  13.478  12.978
81485W        W52085   1.245  28.410  14.752
81486W        W52086  31.368  10.394  11.863
81487W        W52087  16.986  23.585   1.493
81488W        W52088  32.450   8.310   0.214
81489W        W52089   9.544   6.819   4.924
81490W        W52090   4.166  14.245  10.538
81491W        W52091  15.809  11.748   2.395
81492W        W52092   5.108  38.279  13.959
81493W        W52093   0.573  20.334  14.796
81494W        W52094  10.190   4.234  11.308
81495W        W52095  31.118  22.448   1.599
81496W        W52096  40.104   7.817   4.790
81497W        W52097  13.676  32.474  14.756
81498W        W52098  39.756   6.909  12.187
81499W        W52099  28.080  38.986   3.650
81500W        W52100  23.064  13.973   3.591
81501W        W52101  37.906  28.963  12.506
81502W        W52102  16.761   4.224  12.051
81503W        W52103  21.256   1.955  11.869
81504W        W52104  38.528   5.671   0.219
81505W        W52105  22.638  28.245   2.795
81506W        W52106  20.790   9.280  12.921
81507W        W52107  39.503  37.998  14.453
81508W        W52108  18.736  32.206   1.369
81509W        W52109  43.452  19.775   4.144
81510W        W52110  17.935  23.221  14.422
81511W        W52111  28.140  13.170  12.372
81512W        W52112  16.537   4.637   1.637
81513W        W52113   8.594  28.964   0.900
81514W        W52114  10.164   9.826   9.983
81515W        W52115   2.194  14.254  10.305
81516W        W52116  40.277  33.930  10.951
81517W        W52117   7.887  22.712  13.621
81518W        W52118   5.969   8.883  13.410
81519W        W52119  32.542  33.894   1.798
81520W        W52120   3.827  39.566   2.556
81521W        W52121   8.791   3.221  14.556
81522W        W52122   4.335  44.506  14.524
81523W        W52123  27.987  31.797  12.929
81524W        W52124  34.253   5.828  13.821
81525W        W52125  26.414  13.516   3.001
81526W        W52126  36.816  26.904  10.604
81527W        W52127   1.968  26.551  12.835
81528W        W52128  43.075   0.520   4.659
81529W        W52129  42.585  16.280  13.927
81530W        W52130   9.252  27.629  14.283
81531W        W52131  44.464  29.982  11.587
81532W        W52132  36.427  33.559  14.403
81533W        W52133  39.399  24.546   2.225
81534W        W52134  29.514  37.381   1.219
81535W        W52135   4.980   7.868  11.967
81536W        W52136   6.840  13.089  13.966
81537W        W52137  38.886  10.267  13.564
81538W        W52138   6.337  25.510   3.485
81539W        W52139  24.669   4.009  14.400
81540W        W52140  44.875  18.289   3.713
81541W        W52141  28.478   7.674   3.060
81542W        W52142   0.947   5.656   3.917
81543W        W52143  33.163  33.495  10.351
81544W        W52144  38.397  27.941   3.172
81545W        W52145  33.552  25.411   2.454
81546W        W52146  33.877   2.024   0.928
81547W        W52147  16.214   9.351   4.450
81548W        W52148  32.219  27.986   0.876
81549W        W52149  39.916  38.811  14.276
81550W        W52150  15.290   1.207   2.713
81551W        W52151   9.839   3.256   3.882
81552W        W52152  17.286  38.857   0.046
81553W        W52153  18.161  34.364   0.283
81554W        W52154  26.595   8.732  12.385
81555W        W52155  39.720  31.808   3.226
81556W        W52156  38.479  29.326  14.453
81557W        W52157  31.484   9.739   0.894
81558W        W52158  27.442  29.920  14.924
81559W        W52159   0.570   3.436   3.140
81560W        W52160  26.378   8.858   0.760
81561W        W52161  13.347  17.303  12.912
81562W        W52162   9.230   7.914  14.351
81563W        W52163   5.146  37.545  13.488
81564W        W52164   0.991  22.229   2.136
81565W        W52165  24.742  25.221   2.584
81566W        W52166  23.941   5.691  10.767
81567W        W52167  27.783  18.300  11.209
81568W        W52168  12.091  30.624   3.775
81569W        W52169   8.297  25.185  14.518
81570W        W52170  33.131  27.997   0.885
81571W        W52171   3.216  14.661  12.652
81572W        W52172  25.591  24.736  14.380
81573W        W52173  40.838  32.067   2.633
81574W        W52174   1.297  33.834  13.200
81575W        W52175  31.948  34.699  13.865
81576W        W52176  35.855  42.957   3.973
81577W        W52177   9.111  24.494  12.928
81578W        W52178  16.894  19.254  12.188
81579W        W52179   2.431  27.234  13.865
81580W        W52180  21.015  42.184  13.161
81581W        W52181  19.130  38.503  13.868
81582W        W52182  27.172  37.866  11.151
81583W        W52183  12.243   3.297   2.640
81584W        W52184  43.194  29.258  14.906
81585W        W52185  17.470   5.396  11.851
81586W        W52186  41.049  20.199   2.898
81587W        W52187  38.821  20.033  12.678
81588W        W52188  29.060  10.147   3.678
81589W        W52189  32.749  25.715   2.716
81590W        W52190  43.687  16.852   0.762
81591W        W52191  32.554  22.836  13.590
81592W        W52192  29.222   3.190   4.957
81593W        W52193  39.638  42.961  13.014
81594W        W52194   9.626   9.842   1.805
81595W        W52195  38.622   5.813   2.669
81596W        W52196   4.973  23.975   1.436
81597W        W52197  16.315  41.059  13.030
81598W        W52198  38.964  32.194   3.512
81599W        W52199  32.172  11.802   0.817
81600W        W52200  29.725   6.393  12.628
81601W        W52201  30.092  30.846   2.615
81602W        W52202  10.275  24.938  14.773
81603W        W52203  28.888  36.488  13.093
81604W        W52204  29.002  32.309  14.933
81605W        W52205  29.751  29.500   3.188
81606W        W52206  32.171   4.118   3.157
81607W        W52207  34.922  17.872   2.651
81608W        W52208  16.131  27.620  12.970
81609W        W52209  34.393  34.161  13.117
81610W        W52210  36.814  16.112  10.726
81611W        W52211  38.849  10.298  12.505
81612W        W52212   7.702  35.416   2.409
81613W        W52213   9.187  20.049  11.632
81614W        W52214  24.000  14.434  13.506
81615W        W52215   8.844  21.982   3.080
81616W        W52216  23.137  14.163   4.454
81617W        W52217   0.481  11.929   4.712
81618W        W52218  17.024  31.750   1.415
81619W        W52219  35.534  34.339   1.129
81620W        W52220  27.171  23.923  10.433
81621W        W52221  10.889  29.921   3.797
81622W        W52222   0.328  32.137  13.057
81623W        W52223  42.423  12.282  13.953
81624W        W52224  22.372  32.052   3.451
81625W        W52225  15.357  29.527   4.054
81626W        W52226  29.661  32.075  14.900
81627W        W52227   6.915   0.958  11.622
81628W        W52228   0.957   2.510  14.980
81629W        W52229  42.387  29.085  13.540
81630W        W52230  17.871  10.806  13.915
81631W        W52231  39.952   5.645   0.412
81632W        W52232   8.806  34.828  14.432
81633W        W52233  33.972  42.318   4.596
81634W        W52234  10.929  16.660  11.403
81635W        W52235  33.012  20.187   2.955
81636W        W52236  23.608  17.043   4.721
81637W        W52237  18.171   0.159   4.242
81638W        W52238  16.071  28.745  12.072
81639W        W52239  32.854  28.015   1.859
81640W        W52240   6.247  14.123  13.289
81641W        W52241  19.238  27.653   3.706
81642W        W52242  32.497  32.606   1.276
81643W        W52243  24.758  38.273  11.988
81644W        W52244   7.877  23.573  11.978
81645W        W52245  10.296  43.300  11.975
81646W        W52246  35.484  26.217  14.816
81647W        W52247   2.973  19.124  11.197
81648W        W52248   7.703  14.320   2.779
81649W        W52249  40.680  34.067  14.362
81650W        W52250  43.405  17.615  14.326
81651W        W52251  26.895  42.933  12.893
81652W        W52252  20.231   6.878   3.017
81653W        W52253  16.690  23.461   1.884
81654W        W52254   8.482  24.160  12.426
81655W        W52255  24.210  21.455   0.063
81656W        W52256   9.767  32.193  10.658
81657W        W52257   5.639  41.021  12.622
81658W        W52258  36.989  38.531  14.563
81659W        W52259  26.561   9.191   3.086
81660W        W52260  23.336   5.173  14.455
81661W        W52261  15.072  25.953   1.719
81662W        W52262  42.254  20.685  14.786
81663W        W52263  36.067  16.814  10.728
81664W        W52264  17.372  27.764  11.561
81665W        W52265   4.703  11.866   0.080
81666W        W52266  32.981   9.411  13.375
81667W        W52267  25.661  43.383  12.303
81668W        W52268  31.086   8.914   2.116
81669W        W52269  22.903  13.038  13.476
81670W        W52270   2.884   0.690   1.879
81671W        W52271  38.606  17.188  10.984
81672W        W52272  34.685  25.487  13.201
81673W        W52273   8.284  44.629   4.902
81674W        W52274   9.782  42.963   2.199
81675W        W52275  23.514  25.657  14.084
81676W        W52276  16.754  16.196  13.421
81677W        W52277   0.183  11.338  14.052
81678W        W52278   6.238  27.476   2.936
81679W        W52279   5.377  41.382   0.672
81680W        W52280  27.539  26.449   0.842
81681W        W52281  33.591  38.102   3.642
81682W        W52282  14.434  29.489  11.665
81683W        W52283  17.637  19.221   4.490
81684W        W52284  11.927  14.755  12.482
81685W        W52285  25.940   3.415  11.994
81686W        W52286  12.084  41.236  14.505
81687W        W52287  22.435  36.590  11.965
81688W        W52288  40.987  37.109   0.402
81689W        W52289   1.942   7.305   2.871
81690W        W52290  34.123  32.207   0.069
81691W        W52291  44.074  22.580   0.347
81692W        W52292  26.509   4.289  12.014
81693W        W52293   9.402  25.018   1.709
81694W        W52294  18.829  25.868   0.376
81695W        W52295  20.487  35.898  10.913
81696W        W52296  18.633  18.630  12.418
81697W        W52297  22.800  18.100   3.306
81698W        W52298  14.802  17.300   3.203
81699W        W52299  23.685  27.674   3.687
81700W        W52300  44.806  35.870  10.764
81701W        W52301  27.992  26.566   0.650
81702W        W52302  13.738   3.013   0.833
81703W        W52303  37.319  41.443  11.667
81704W        W52304  40.038   2.789  12.594
81705W        W52305  12.711  18.523  11.050
81706W        W52306  11.102  30.991   4.160
81707W        W52307  41.472  19.034   3.229
81708W        W52308   0.734  23.921   3.169
81709W        W52309  11.228   0.017  12.389
81710W        W52310  26.581  35.612   0.287
81711W        W52311  17.975  42.373   3.835
81712W        W52312  34.378  44.841   1.626
81713W        W52313  25.535  41.587  13.942
81714W        W52314  13.891  20.486   2.224
81715W        W52315  15.679  17.578   0.163
81716W        W52316  18.373  11.272   4.219
81717W        W52317  31.039   6.862   2.874
81718W        W52318  36.845  11.195   0.309
81719W        W52319  29.755  24.633  14.704
81720W        W52320  19.538  40.540   1.929
81721W        W52321  17.819   6.778   1.401
81722W        W52322  12.096   2.959  14.073
81723W        W52323  19.616  25.849  14.922
81724W        W52324   6.841  36.094  14.643
81725W        W52325  22.009   1.757   0.255
81726W        W52326  22.276   0.737  11.553
81727W        W52327  42.377   5.728  13.398
81728W        W52328  30.406  26.525   3.643
81729W        W52329  37.461   6.081   0.844
81730W        W52330   5.255  26.082  11.112
81731W        W52331  12.399   5.269  14.384
81732W        W52332   3.249   9.652   4.986
81733W        W52333  32.774  16.304  14.950
81734W        W52334  35.870  15.204  11.139
81735W        W52335  36.406  34.516   0.931
81736W        W52336  30.529  26.274   1.299
81737W        W52337  22.372   4.447  13.810
81738W        W52338   6.670  32.924   1.275
81739W        W52339   5.260  36.823  11.615
81740W        W52340   5.764  10.804   2.039
81741W        W52341  12.291  20.200  11.267
81742W        W52342  32.441  35.698  10.940
81743W        W52343  19.054  34.862  14.998
81744W        W52344  40.348  25.650  10.928
81745W        W52345  29.212  22.650   4.447
81746W        W52346  43.690   1.791   1.775
81747W        W52347  27.249  23.048  14.261
81748W        W52348  32.474  17.310   2.808
81749W        W52349  21.782   0.498   0.277
81750W        W52350  39.977   1.614  11.699
81751W        W52351  34.783  37.353  14.531
81752W        W52352  28.379  16.778   1.608
81753W        W52353  21.071   5.891   4.214
81754W        W52354  11.085  14.696  12.934
81755W        W52355  13.191  18.131  12.015
81756W        W52356  18.072  23.971   2.403
81757W        W52357   9.334   8.209   2.408
81758W        W52358  25.953   6.103   1.772
81759W        W52359  37.614  25.748   3.273
81760W        W52360  35.524   4.893  13.567
81761W        W52361  39.513  15.599   1.921
81762W        W52362  32.861  44.724   0.759
81763W        W52363   6.397   5.030  11.040
81764W        W52364  39.932  40.245  13.450
81765W        W52365  36.618  12.644  12.881
81766W        W52366   1.062   5.114  14.742
81767W        W52367  43.898   6.944   3.061
81768W        W52368   7.659   0.947   3.262
81769W        W52369   9.401  25.527  14.769
81770W        W52370   3.496  34.864  11.660
81771W        W52371  24.741   7.173  13.326
81772W        W52372  27.381  13.301  10.604
81773W        W52373  10.725  10.662  11.980
81774W        W52374  41.244  22.514  11.494
81775W        W52375  14.067  11.924  12.481
81776W        W52376  44.379   2.645  12.467
81777W        W52377  35.378   2.079   0.932
81778W        W52378   6.431  13.163   1.826
81779W        W52379  13.557  43.854  11.629
81780W        W52380  22.700   9.928   3.620
81781W        W52381   7.837  16.120   2.239
81782W        W52382  29.927  10.116   2.803
81783W        W52383  26.232  13.378  14.539
81784W        W52384   5.360  24.609  11.037
81785W        W52385  17.617   1.011   4.920
81786W        W52386  30.134  28.450   1.725
81787W        W52387   3.362   5.437  10.752
81788W        W52388  27.307   0.370   1.862
81789W        W52389  30.433  14.694   4.585
81790W        W52390  33.175  40.595   0.676
81791W        W52391  21.971   1.168  12.583
81792W        W52392  23.572  36.500   3.758
81793W        W52393   6.327  32.135  14.505
81794W        W52394  24.080   4.401   1.680
81795W        W52395  42.268  15.694   0.955
81796W        W52396  20.273  13.121   2.739
81797W        W52397   6.352  24.438   2.723
81798W        W52398  31.869   0.309  12.622
81799W        W52399  17.174   3.899   3.217
81800W        W52400  37.827  32.211   1.050
81801W        W52401  20.469   3.880   4.334
81802W        W52402  31.851  37.422  10.915
81803W        W52403  32.894   6.469  11.707
81804W        W52404  31.582  37.743  13.927
81805W        W52405  44.628  27.296  10.331
81806W        W52406  38.937  12.265  10.772
81807W        W52407  29.621  26.174  12.010
81808W        W52408  36.131  28.420   4.511
81809W        W52409  34.898  13.283   3.673
81810W        W52410  11.889  32.910  12.994
81811W        W52411   7.261  27.043  13.415
81812W        W52412   7.757   0.836  14.034
81813W        W52413   8.449  11.035   4.097
81814W        W52414  25.110  34.673   2.372
81815W        W52415  39.894   0.446   3.117
81816W        W52416  12.644  10.230  13.586
81817W        W52417  19.951  22.606   3.681
81818W        W52418  13.060   0.778  13.628
81819W        W52419  12.320  36.409   4.719
81820W        W52420  26.176  32.449   3.223
81821W        W52421  10.770   8.444   0.951
81822W        W52422   8.290  38.555   1.210
81823W        W52423   8.599   9.442  11.816
81824W        W52424  10.671  14.341   2.782
81825W        W52425  40.791  17.126   1.960
81826W        W52426  32.039  42.586  14.373
81827W        W52427  19.762  44.880  10.041
81828W        W52428  29.872  12.207   4.521
81829W        W52429  39.412  24.076   1.254
81830W        W52430  28.529  25.645  14.764
81831W        W52431  21.810  30.944   2.255
81832W        W52432   3.929   3.720   1.746
81833W        W52433  31.662  20.307  14.963
81834W        W52434  15.968  38.605  14.949
81835W        W52435  21.510  25.035   1.760
81836W        W52436   1.359  36.022  12.457
81837W        W52437  25.972  18.245  10.623
81838W        W52438  29.445  16.168   2.483
81839W        W52439  12.310  26.007  14.661
81840W        W52440  13.377  33.645  14.624
81841W        W52441  17.329   1.224   0.293
81842W        W52442  17.714  40.080  11.854
81843W        W52443  41.022  14.954  12.507
81844W        W52444  15.078  35.017   1.647
81845W        W52445  10.061  24.997   1.075
81846W        W52446   4.405  42.326   2.835
81847W        W52447  34.047   5.470   1.866
81848W        W52448  12.395  12.226  12.444
81849W        W52449  24.878   3.346  14.091
81850W        W52450  39.651   0.793  11.122
81851W        W52451   2.762  32.547  12.926
81852W        W52452  16.236  38.527   2.233
81853W        W52453  24.898   2.901   0.392
81854W        W52454  14.747   6.344   0.829
81855W        W52455  12.865   4.311  14.270
81856W        W52456  37.852  33.549   2.343
81857W        W52457  20.582   5.149  14.425
81858W        W52458  43.841  16.544   0.367
81859W        W52459  41.042   3.810   3.280
81860W        W52460  19.094  12.544  14.468
81861W        W52461  18.439  40.185  14.948
81862W        W52462  30.055   3.400  10.916
81863W        W52463   4.923  31.756   2.262
81864W        W52464  21.463  17.166  11.277
81865W        W52465  27.682   4.762   1.920
81866W        W52466  21.126   1.700  12.432
81867W        W52467  40.309  34.532   1.255
81868W        W52468  19.768   9.874   1.249
81869W        W52469  18.097  37.054  13.367
81870W        W52470  15.198  19.646  12.318
81871W        W52471   1.024  10.827  14.056
81872W        W52472  32.022  41.708   2.293
81873W        W52473   3.844  23.197   2.233
81874W        W52474  34.652  30.002   1.893
81875W        W52475   1.465  39.675   1.698
81876W        W52476   0.345  31.955  13.543
81877W        W52477  31.847   3.522  10.289
81878W        W52478  43.187  37.767   5.042
81879W        W52479   9.243  42.248   3.319
81880W        W52480   1.065  28.093  13.414
81881W        W52481   0.332  22.818   4.010
81882W        W52482  36.018  13.398   1.593
81883W        W52483  43.570  24.635  12.024
81884W        W52484  41.629  19.162   0.660
81885W        W52485   4.613  14.995  14.795
81886W        W52486  19.017  33.617   4.207
81887W        W52487  34.074   9.938  11.126
81888W        W52488  34.536  20.794  12.558
81889W        W52489  17.011  29.519  11.670
81890W        W52490  11.438  22.739   2.833
81891W        W52491  34.407  23.035   0.808
81892W        W52492  16.616  36.664   3.201
81893W        W52493  12.036  41.820   4.232
81894W        W52494  22.145  23.901   3.554
81895W        W52495  35.800  22.986   4.867
81896W        W52496  20.348  35.453  10.651
81897W        W52497  42.199  25.375  12.111
81898W        W52498  10.715  36.697  13.577
81899W        W52499   3.383  15.227  14.384
81900W        W52500   5.217  24.701   3.656
81901W        W52501  25.708  33.363  14.889
81902W        W52502   8.379  21.028  13.995
81903W        W52503  43.987  16.140   3.672
81904W        W52504  21.743  10.994  11.060
81905W        W52505  28.228  36.167   0.798
81906W        W52506  19.205  28.111   5.799
81907W        W52507  37.619  29.521  11.468
81908W        W52508   4.187  26.003   2.320
81909W        W52509  16.288  33.951   3.262
81910W        W52510  31.386  17.648   0.728
81911W        W52511  17.815   6.624  14.095
81912W        W52512  28.706  42.983   1.258
81913W        W52513  37.016  18.088  13.851
81914W        W52514  24.137  37.672   3.170
81915W        W52515  13.838  11.337  14.095
81916W        W52516  22.076   2.892  12.972
81917W        W52517   2.794  32.884  13.358
81918W        W52518  43.178   0.192  11.130
81919W        W52519  35.334  44.476   3.255
81920W        W52520  32.144  28.110  14.330
81921W        W52521  11.517   1.040   4.131
81922W        W52522  26.045   0.280   1.238
81923W        W52523  27.740  41.606  13.489
81924W        W52524   3.461  17.129  14.041
81925W        W52525  32.575  30.189  12.079
81926W        W52526  15.125  21.052  12.645
81927W        W52527  43.265   2.807   3.187
81928W        W52528  35.129  36.467   2.729
81929W        W52529  15.607  26.116  13.930
81930W        W52530  22.171  11.369   2.686
81931W        W52531   1.431  27.330   3.080
81932W        W52532   3.674  30.146  10.499
81933W        W52533  37.312  39.212   2.142
81934W        W52534  30.862  13.905   4.165
81935W        W52535  32.105  42.355   4.061
81936W        W52536   8.835  15.757   0.686
81937W        W52537  27.454  44.233   3.368
81938W        W52538  35.672  40.111   2.405
81939W        W52539  33.426   2.262   0.248
81940W        W52540  12.264   2.488   3.258
81941W        W52541  41.657  39.923   2.397
81942W        W52542  26.934  32.143   3.815
81943W        W52543  27.518  10.365   3.768
81944W        W52544  38.085  18.361   4.515
81945W        W52545  38.804  34.442   1.129
81946W        W52546  39.365  34.240   2.794
81947W        W52547  14.591   0.488  13.009
81948W        W52548  40.936  36.618   2.159
81949W        W52549  36.570  37.826  11.417
81950W        W52550  32.326   5.409   4.216
81951W        W52551  17.588  41.222  13.114
81952W        W52552  24.026  43.211  11.645
81953W        W52553  33.675  30.961   3.779
81954W        W52554  20.048  43.431   2.204
81955W        W52555  43.783  38.548   0.464
81956W        W52556  31.877  42.661  11.545
81957W        W52557  12.104  24.170   2.328
81958W        W52558   8.353  28.186  14.090
81959W        W52559  26.804  19.024   3.558
81960W        W52560  30.200  38.371  13.955
81961W        W52561  20.191  19.358  13.014
81962W        W52562  34.363  42.550   0.460
81963W        W52563  18.622  10.038  10.043
81964W        W52564   6.778  23.575  10.818
81965W        W52565  22.199  37.888  12.623
81966W        W52566   9.650  10.965   4.439
81967W        W52567  11.778  36.678   2.209
81968W        W52568  28.926   3.898  10.706
81969W        W52569  18.325  20.328  13.412
81970W        W52570  41.518  25.731   3.917
81971W        W52571  40.933   4.707   3.562
81972W        W52572  37.218  44.809  13.936
81973W        W52573  31.958  16.725  11.538
81974W        W52574  18.311  31.984  12.108
81975W        W52575  41.824  21.612   2.109
81976W        W52576   0.172  44.480   4.101
81977W        W52577  39.563  42.291  12.396
81978W        W52578   6.025  31.396   3.452
81979W        W52579  42.945  12.765   3.406
81980W        W52580   9.285  18.057   0.156
81981W        W52581  40.247  20.363   3.336
81982W        W52582  18.789  28.946   4.005
81983W        W52583  14.660   9.659  10.769
81984W        W52584  12.713  23.119   3.851
81985W        W52585  44.513  11.278   3.117
81986W        W52586  34.904   6.828  11.578
81987W        W52587  26.041  40.082  14.472
81988W        W52588  13.941  34.618  10.948
81989W        W52589  40.364   7.586   0.886
81990W        W52590   1.832  30.127   2.865
81991W        W52591  25.624  13.945   4.492
81992W        W52592  38.738  10.860   3.732
81993W        W52593  42.740   0.448  11.018
81994W        W52594   7.845  18.308   0.053
81995W        W52595  10.775  25.386   0.391
81996W        W52596  15.358  40.083  14.442
81997W        W52597  17.884  17.568   3.576
81998W        W52598  33.390  16.817   2.970
81999W        W52599   7.367  31.217   3.685
82000W        W52600   7.419  27.070   0.341
82001W        W52601  42.749  12.787   0.782
82002W        W52602  39.367  17.369  12.444
82003W        W52603  37.427  17.092  14.137
82004W        W52604   5.480  41.984  13.357
82005W        W52605  30.382  19.701   2.361
82006W        W52606  19.716  43.013  12.013
82007W        W52607   9.322  26.491  10.683
82008W        W52608  35.658  42.506  13.871
82009W        W52609   2.764  15.662  11.164
82010W        W52610  32.602   5.679   2.784
82011W        W52611  23.564  26.500  12.646
82012W        W52612  18.250  33.135  13.025
82013W        W52613   7.783  20.326  13.287
82014W        W52614  40.110   6.148   3.258
82015W        W52615   9.642   3.778   0.726
82016W        W52616  26.442   9.181  13.511
82017W        W52617  14.104  41.479   4.595
82018W        W52618  32.860  29.860   1.379
82019W        W52619  28.375  32.075   0.285
82020W        W52620  41.344  11.794  11.939
82021W        W52621   6.256   0.464   4.987
82022W        W52622  15.817  18.747   0.542
82023W        W52623   3.889  26.159   3.303
82024W        W52624  30.947  30.982  11.965
82025W        W52625  38.993  21.540  11.711
82026W        W52626  23.985   4.771  10.703
82027W        W52627   6.263   9.158  11.963
82028W        W52628  13.063  13.939   1.310
82029W        W52629   3.761  16.509   1.845
82030W        W52630  17.134  39.327   3.704
82031W        W52631  27.297  17.631  14.427
82032W        W52632   8.043  44.204   0.845
82033W        W52633  17.297  18.997  12.397
82034W        W52634  15.734  16.211   0.394
82035W        W52635  41.647  15.686   2.725
82036W        W52636   7.292  37.579   4.768
82037W        W52637  32.849   7.663  12.044
82038W        W52638   4.753  17.516   0.729
82039W        W52639   2.895  27.167  12.648
82040W        W52640  30.636  41.870   2.572
82041W        W52641  28.635   9.857  11.543
82042W        W52642  12.786  26.751   3.851
82043W        W52643  18.649  26.247   4.448
82044W        W52644  21.830  13.155   3.816
82045W        W52645  30.209  35.475   1.362
82046W        W52646  32.827  44.857   3.162
82047W        W52647   2.429  35.372  12.976
82048W        W52648  33.103   8.980  12.996
82049W        W52649  32.178  33.730  13.024
82050W        W52650   2.420   8.177   0.433
82051W        W52651  37.272  26.570   0.330
82052W        W52652  14.267  42.758   0.854
82053W        W52653  10.341  33.553   3.684
82054W        W52654  33.464  31.202  10.690
82055W        W52655  10.138  39.504   1.344
82056W        W52656  35.588  37.318   4.265
82057W        W52657  16.155  32.906   1.257
82058W        W52658  23.407  22.094  11.552
82059W        W52659  39.020  20.281   2.157
82060W        W52660  16.552  33.328  14.478
82061W        W52661  25.196  44.755   1.163
82062W        W52662  39.683  42.803   4.492
82063W        W52663  33.723  11.230   4.855
82064W        W52664  15.344  17.651  11.919
82065W        W52665  24.084  19.495  14.349
82066W        W52666  22.289  18.207   5.091
82067W        W52667  33.192  38.940   2.102
82068W        W52668  18.342   5.417   1.930
82069W        W52669   5.789   7.176  14.423
82070W        W52670   5.230  41.101  10.567
82071W        W52671  42.278  22.570  13.942
82072W        W52672  31.873  19.212  12.167
82073W        W52673  37.979  31.700   1.146
82074W        W52674   8.580   8.784   2.152
82075W        W52675  30.692  21.183   1.576
82076W        W52676  20.005  15.265  12.538
82077W        W52677   1.835  42.886   0.705
82078W        W52678  32.980  42.330   0.790
82079W        W52679   7.828  12.176   1.409
82080W        W52680  37.459  37.038  14.364
82081W        W52681  38.417  13.158  13.579
82082W        W52682  19.626   6.466  10.366
82083W        W52683  32.440  19.340  12.385
82084W        W52684  38.017  11.619  14.439
82085W        W52685   8.814  17.792  13.941
82086W        W52686  20.248  15.185  13.155
82087W        W52687   4.843   3.719   3.684
82088W        W52688  41.289  21.632  14.569
82089W        W52689   3.573  21.147   1.288
82090W        W52690  19.926  22.651   2.392
82091W        W52691   7.459  24.666   3.160
82092W        W52692  34.499  35.973  12.378
82093W        W52693  17.802  19.136  12.199
82094W        W52694  13.176  26.170   1.191
82095W        W52695  18.480  29.707  11.586
82096W        W52696  44.389  33.893   3.040
82097W        W52697  28.530  38.046   3.365
82098W        W52698  35.931  25.999  11.142
82099W        W52699  13.176   0.461  14.511
82100W        W52700   8.273  24.643  12.413
82101W        W52701   7.904  27.933   1.332
82102W        W52702  40.453   6.945   3.378
82103W        W52703   1.228  31.154   1.398
82104W        W52704   6.154   2.889  14.144
82105W        W52705  38.363  18.101   4.163
82106W        W52706  24.436  25.502   0.781
82107W        W52707  10.347   5.421  13.793
82108W        W52708  31.607  23.007  12.967
82109W        W52709  15.413  42.489  11.405
82110W        W52710   6.132  24.239  14.827
82111W        W52711  14.829   2.168   2.860
82112W        W52712  34.173  37.985  11.582
82113W        W52713  21.249  25.485   3.299
82114W        W52714  14.894  20.991  10.345
82115W        W52715  17.877  35.328  13.154
82116W        W52716  18.089  31.792  12.522
82117W        W52717  21.774   8.934  11.681
82118W        W52718  24.275  11.720   4.103
82119W        W52719  33.606  29.143   2.389
82120W        W52720  40.423  44.003   2.979
82121W        W52721  10.816   5.951   1.719
82122W        W52722  10.179  35.588   0.764
82123W        W52723  13.620  29.156  10.683
82124W        W52724   5.811   0.474  12.083
82125W        W52725  10.694  26.997   1.916
82126W        W52726   0.846  21.287  10.988
82127W        W52727  16.951   3.295   3.797
82128W        W52728  10.572  24.839  12.134
82129W        W52729   1.590  41.946   2.787
82130W        W52730  33.587   7.659   4.678
82131W        W52731  26.247  37.936   4.852
82132W        W52732  10.931  19.631  10.984
82133W        W52733  32.865  24.030   2.221
82134W        W52734  44.450   9.025   0.922
82135W        W52735  24.020  42.609   4.171
82136W        W52736  32.968   8.955   1.792
82137W        W52737  19.261  10.219  14.385
82138W        W52738  22.509  21.949  11.371
82139W        W52739  25.189  18.707   1.348
82140W        W52740  38.501  20.343  10.642
82141W        W52741   5.897  13.628   0.783
82142W        W52742  41.880   8.932   3.378
82143W        W52743   0.584  14.995  11.644
82144W        W52744  16.291  32.596   3.195
82145W        W52745  18.182   2.962   2.435
82146W        W52746  29.896  19.555  11.427
82147W        W52747  19.558  36.324   0.803
82148W        W52748  42.909  21.936  11.184
82149W        W52749  30.483   4.749   1.096
82150W        W52750   8.104  38.928   2.284
82151W        W52751  31.430  19.049   3.773
82152W        W52752   3.401  27.652   4.110
82153W        W52753  12.088  23.693   2.123
82154W        W52754  34.184  33.048   2.649
82155W        W52755  35.089   8.938   5.020
82156W        W52756  17.353   1.550  13.588
82157W        W52757  20.968   9.020  11.567
82158W        W52758   9.803  32.637  10.400
82159W        W52759  29.151   4.351  10.536
82160W        W52760   6.333  13.590  11.934
82161W        W52761  29.021  37.919  14.911
82162W        W52762   8.920  17.023   1.348
82163W        W52763  36.965  38.683   3.349
82164W        W52764  34.605  12.049  12.889
82165W        W52765  24.268  31.540   2.708
82166W        W52766  12.339  36.230   1.421
82167W        W52767  18.499   9.813  14.566
82168W        W52768  41.251  40.710   1.885
82169W        W52769  41.933  33.725   5.248
82170W        W52770  11.724  27.262   2.035
82171W        W52771  12.547  22.513   1.657
82172W        W52772  31.525   0.375  13.594
82173W        W52773  21.715  13.663   3.796
82174W        W52774  37.803  25.976  11.387
82175W        W52775  22.695  18.140  14.829
82176W        W52776   6.423  38.058   3.558
82177W        W52777  24.584  16.044   4.495
82178W        W52778   7.690  44.072  10.390
82179W        W52779  33.849  37.490  10.670
82180W        W52780  14.831  15.202   2.976
82181W        W52781  13.770  33.231  11.021
82182W        W52782  29.875  24.157   3.394
82183W        W52783  38.099  20.613  12.360
82184W        W52784  10.941  27.767  13.933
82185W        W52785  17.658  26.081   2.166
82186W        W52786  28.922  42.392  14.080
82187W        W52787   8.135  36.405   4.471
82188W        W52788  43.070  21.048  14.253
82189W        W52789   1.857   3.574   1.489
82190W        W52790   5.701  11.202   1.272
82191W        W52791  14.878   0.225   4.838
82192W        W52792   3.915  34.959   3.603
82193W        W52793  10.247   4.987  11.832
82194W        W52794  44.290  17.682   2.598
82195W        W52795  42.688  13.084   5.009
82196W        W52796  11.659   6.703   0.559
82197W        W52797  15.377  35.381   2.365
82198W        W52798   3.402  38.546  14.571
82199W        W52799  29.559  33.703   1.751
82200W        W52800  43.824   5.316  13.885
82201W        W52801  39.581  12.650   2.236
82202W        W52802   1.313  42.245   4.891
82203W        W52803  38.058  39.034  11.144
82204W        W52804  29.574  18.551  14.473
82205W        W52805  33.173   7.258  12.037
82206W        W52806  10.002  18.951  12.606
82207W        W52807  34.050  31.084   4.728
82208W        W52808  24.137  37.076  12.604
82209W        W52809  44.032  40.899   4.888
82210W        W52810   7.632   0.846   1.021
82211W        W52811  17.599  20.079   1.817
82212W        W52812  13.677  35.055  14.982
82213W        W52813  41.368  37.465   2.300
82214W        W52814   5.156  22.552   4.570
82215W        W52815  12.076  32.975  14.953
82216W        W52816  16.761  34.469  13.790
82217W        W52817  28.069  19.586  13.770
82218W        W52818   0.862  16.206  12.058
82219W        W52819  15.119  28.610   2.654
82220W        W52820  39.705  36.306   4.373
82221W        W52821  11.358   9.344  14.753
82222W        W52822   9.642  33.122   4.789
82223W        W52823  12.241  41.010  13.557
82224W        W52824  40.531  42.582   0.468
82225W        W52825  44.198  30.486   0.064
82226W        W52826  25.463   4.598  13.793
82227W        W52827   8.107  35.736   2.321
82228W        W52828  17.245  18.582  12.682
82229W        W52829   1.022  19.544  13.690
82230W        W52830  12.728  32.845  10.712
82231W        W52831  35.662   3.199   3.809
82232W        W52832  19.890  34.422   4.165
82233W        W52833  18.550   6.921  14.444
82234W        W52834  25.143   7.782  10.394
82235W        W52835  27.920  34.407  12.107
82236W        W52836   6.784  38.411  13.992
82237W        W52837  34.172  10.751  11.471
82238W        W52838  19.326  23.510  13.878
82239W        W52839  24.687  10.842  12.132
82240W        W52840  40.586  20.575  13.854
82241W        W52841  24.566  39.552   4.133
82242W        W52842   0.879  14.498  10.525
82243W        W52843  11.438  14.595  12.485
82244W        W52844   2.367  37.491  13.476
82245W        W52845  19.461  17.605  14.462
82246W        W52846  38.064  34.585  11.162
82247W        W52847  40.938  17.671  14.021
82248W        W52848  44.858  29.621   4.325
82249W        W52849  41.914  36.550   3.690
82250W        W52850  33.571   1.305   4.944
82251W        W52851  43.551  35.861   3.687
82252W        W52852  40.851  16.343   2.698
82253W        W52853  41.556   8.691   4.163
82254W        W52854   8.099  14.868  12.712
82255W        W52855   5.766  23.626  10.812
82256W        W52856  38.813  31.843  14.324
82257W        W52857   1.489  14.804   0.247
82258W        W52858  36.120  22.761   2.211
82259W        W52859   8.886  36.286   4.111
82260W        W52860   2.981  39.940  12.429
82261W        W52861  10.879  20.450   3.651
82262W        W52862  21.151  42.318   3.029
82263W        W52863  12.764   3.646  14.956
82264W        W52864  42.723  22.684  12.061
82265W        W52865  19.447  10.141   4.353
82266W        W52866  24.379  41.295  12.092
82267W        W52867   3.704  41.015   3.174
82268W        W52868  23.781   6.312  11.240
82269W        W52869  24.598  26.872   0.704
82270W        W52870   3.543   5.990   4.589
82271W        W52871  31.535  13.304   4.470
82272W        W52872  25.011  11.730   0.421
82273W        W52873  24.026  34.296  14.784
82274W        W52874  11.092  16.299   3.353
82275W        W52875  38.586  44.867   2.135
82276W        W52876   8.920   2.905   2.687
82277W        W52877  42.980  10.638   0.940
82278W        W52878  37.005   3.703   3.183
82279W        W52879   2.024   4.491  12.106
82280W        W52880  42.474  11.767  13.956
82281W        W52881  18.828  39.573  12.451
82282W        W52882   3.433  38.918   1.350
82283W        W52883  20.216  31.169   3.083
82284W        W52884  43.344  23.114  13.823
82285W        W52885   1.752   7.240   0.034
82286W        W52886   7.108  13.839  14.893
82287W        W52887  13.118  12.111   3.052
82288W        W52888  21.089  17.428  11.587
82289W        W52889   8.944  21.112   4.146
82290W        W52890   4.171  27.404  12.518
82291W        W52891  20.049  41.232   3.153
82292W        W52892  24.482  31.110   1.761
82293W        W52893  44.818  33.519   0.732
82294W        W52894  19.998  11.449   3.252
82295W        W52895  43.482  29.955   2.192
82296W        W52896  17.023   4.803   0.427
82297W        W52897   1.421  42.051  14.711
82298W        W52898   9.768  37.342   0.351
82299W        W52899  29.953  22.727   4.282
82300W        W52900  34.649  20.275  11.624
82301W        W52901  16.640  35.426  13.417
82302W        W52902  10.252  34.266  10.435
82303W        W52903   0.005  13.756  14.285
82304W        W52904  40.773  40.865  11.405
82305W        W52905   3.747  44.705  10.763
82306W        W52906   8.994  23.932   4.631
82307W        W52907   0.272  16.984   3.597
82308W        W52908  26.206  34.589   4.162
82309W        W52909  15.482   1.109  14.532
82310W        W52910  19.730  40.275  11.478
82311W        W52911  12.870  15.903   0.990
82312W        W52912  41.810   1.742  12.022
82313W        W52913   2.518  40.514   0.003
82314W        W52914  12.146  41.864  11.524
82315W        W52915   0.503  44.111   4.650
82316W        W52916   2.768  42.948  14.359
82317W        W52917  27.825  36.047   2.241
82318W        W52918   6.755  18.368  14.302
82319W        W52919  30.052  34.436  12.822
82320W        W52920   0.131  11.384   3.891
82321W        W52921  18.475  18.084   3.190
82322W        W52922  20.863  11.892  14.270
82323W        W52923  28.143   2.224   1.426
82324W        W52924  43.845  25.020   1.289
82325W        W52925  17.840  27.945  11.765
82326W        W52926  27.495  37.804   1.455
82327W        W52927  43.241  21.819  12.428
82328W        W52928  22.733  27.234  11.154
82329W        W52929  39.873  10.331  13.413
82330W        W52930  24.084   5.882   2.882
82331W        W52931  40.585  16.690   1.700
82332W        W52932   1.298  13.357   2.150
82333W        W52933  26.267  31.647  14.467
82334W        W52934  40.462  15.485  10.762
82335W        W52935  38.319   8.814   2.754
82336W        W52936  26.957  42.419  12.980
82337W        W52937  36.895  17.601  10.786
82338W        W52938  23.031  25.706   4.563
82339W        W52939  18.071  23.603   3.091
82340W        W52940   1.991  40.315   1.963
82341W        W52941  12.238  30.979  11.069
82342W        W52942  35.667  41.127   2.831
82343W        W52943  34.003   6.315   1.352
82344W        W52944  38.789  29.094   4.334
82345W        W52945  30.022  41.466   3.783
82346W        W52946  40.779  21.171  10.281
82347W        W52947  12.357  42.204  12.663
82348W        W52948  40.721  29.802   3.473
82349W        W52949  13.619  14.739  13.753
82350W        W52950  33.328  44.017  10.743
82351W        W52951  18.448  23.576   4.032
82352W        W52952   2.994  16.575   3.693
82353W        W52953   9.308  26.106   4.691
82354W        W52954  37.102  12.402  13.127
82355W        W52955  43.786  38.928   1.881
82356W        W52956  22.117   8.840   3.121
82357W        W52957  10.091  38.959   1.344
82358W        W52958   2.489  10.730   4.259
82359W        W52959  28.125  21.136   4.594
82360W        W52960  11.777  29.985   4.342
82361W        W52961  31.031  24.246  11.710
82362W        W52962  27.960  11.753  12.970
82363W        W52963  28.519  26.493   0.813
82364W        W52964  32.601   0.681   1.891
82365W        W52965   0.840   8.788   0.767
82366W        W52966  29.550  13.800  12.129
82367W        W52967  42.398  42.840   2.747
82368W        W52968  41.034  31.590   1.252
82369W        W52969  20.888  42.915   2.312
82370W        W52970  15.561  33.962   2.426
82371W        W52971   7.707  39.534  10.901
82372W        W52972  44.371  25.712   4.791
82373W        W52973   7.341  19.023  14.363
82374W        W52974  21.756  32.130   1.207
82375W        W52975  14.439  27.902   2.340
82376W        W52976  18.463  27.084  14.023
82377W        W52977   6.387  37.602   0.887
82378W        W52978  44.486  12.651  13.485
82379W        W52979  34.922  30.414  11.631
82380W        W52980   5.945  27.613  11.737
82381W        W52981  43.477   9.427  14.428
82382W        W52982   9.577  39.721  10.075
82383W        W52983  21.307  42.321   3.525
82384W        W52984  18.171   8.413   4.185
82385W        W52985   8.448  19.004   0.061
82386W        W52986  23.989  25.199   0.930
82387W        W52987   7.175  11.698  10.666
82388W        W52988  41.330   4.726   0.423
82389W        W52989  26.454   8.248   4.551
82390W        W52990  44.947  36.305   4.725
82391W        W52991  42.592  30.681  12.764
82392W        W52992  24.672  27.037  13.364
82393W        W52993  40.354  21.599   0.150
82394W        W52994  42.977   4.166   2.283
82395W        W52995  13.262  32.341   0.405
82396W        W52996  26.142  26.512   3.943
82397W        W52997  41.903  12.220  10.834
82398W        W52998  11.398   5.673   0.781
82399W        W52999  24.110  37.211   1.285
82400W        W53000  38.512  18.080   1.192
82401W        W53001  39.208  42.914  10.306
82402W        W53002  25.986  27.952   1.852
82403W        W53003   7.832  38.661  11.044
82404W        W53004  27.132  17.774  11.213
82405W        W53005   8.773  13.146  14.413
82406W        W53006  40.789  19.815  11.101
82407W        W53007   9.193  11.627   0.449
82408W        W53008  14.620  28.470  13.320
82409W        W53009  11.132  25.186  12.855
82410W        W53010   3.206  16.582   4.891
82411W        W53011   2.399  25.564  12.025
82412W        W53012  23.512   7.652  13.130
82413W        W53013   3.174   7.306   0.881
82414W        W53014  21.480  44.843  14.468
82415W        W53015  16.005  28.139   1.168
82416W        W53016  38.341  32.915   1.445
82417W        W53017  26.650  44.490   4.669
82418W        W53018   0.832  25.691  12.087
82419W        W53019  20.746  27.218  10.734
82420W        W53020  39.419  16.808  12.368
82421W        W53021  30.233  31.185  13.484
82422W        W53022  37.418  27.347  14.065
82423W        W53023  31.139  12.363   0.430
82424W        W53024  24.617  43.347  13.603
82425W        W53025  24.618  41.357   2.154
82426W        W53026  42.796  43.271   0.116
82427W        W53027  44.745  43.214  11.481
82428W        W53028  16.512  37.823  14.442
82429W        W53029  11.691  16.010   2.194
82430W        W53030  20.227  20.528   3.531
82431W        W53031  15.618  24.330   3.674
82432W        W53032  18.041  20.609  11.618
82433W        W53033  10.305  36.902  13.954
82434W        W53034  32.083  14.649  13.524
82435W        W53035  23.406  29.175   0.835
82436W        W53036  13.979  20.141  13.068
82437W        W53037  19.640  44.005  14.843
82438W        W53038   8.996  10.440  12.536
82439W        W53039  26.146  13.231   1.493
82440W        W53040   0.163  12.128  12.687
82441W        W53041   7.494  38.493   1.711
82442W        W53042  19.945  39.907  12.827
82443W        W53043  27.751   7.191  12.606
82444W        W53044  13.608  41.629   2.778
82445W        W53045   3.252   1.230   3.078
82446W        W53046  19.294  20.489  11.084
82447W        W53047   9.743  12.840  12.804
82448W        W53048  13.303   8.352  14.354
82449W        W53049  14.880  42.461  12.484
82450W        W53050  43.312  42.440   0.760
82451W        W53051   1.278   5.728   0.729
82452W        W53052  21.160  32.597   4.822
82453W        W53053  16.833  32.038   1.846
82454W        W53054  41.471   9.325  13.444
82455W        W53055  10.083  14.694   3.141
82456W        W53056   1.018  15.830   1.336
82457W        W53057  29.020  39.459  13.909
82458W        W53058  32.592  39.210  14.923
82459W        W53059  30.165  42.326   3.247
82460W        W53060  20.764   4.926  11.403
82461W        W53061   2.818  19.362   0.508
82462W        W53062   9.205  26.158   3.198
82463W        W53063   9.069  22.700   0.897
82464W        W53064  38.549   3.702   3.207
82465W        W53065  42.336   1.744  14.385
82466W        W53066  28.713  28.369  11.165
82467W        W53067  24.949   6.707  13.511
82468W        W53068  12.134  13.874  11.603
82469W        W53069  35.529   0.703  11.527
82470W        W53070   9.325  29.050  12.971
82471W        W53071  37.932  30.316   3.697
82472W        W53072  26.708  39.419  14.228
82473W        W53073  23.764   0.834  13.480
82474W        W53074  40.537  35.534   2.214
82475W        W53075  12.518   6.251   3.494
82476W        W53076  14.272  33.343   1.373
82477W        W53077  33.920  42.486  12.139
82478W        W53078  19.140  24.141  12.801
82479W        W53079  41.720   6.068  12.863
82480W        W53080  28.992  35.575  12.128
82481W        W53081  33.724  12.249   4.917
82482W        W53082  10.591  33.546   0.395
82483W        W53083  41.304   6.803  13.351
82484W        W53084  36.544   7.381  14.260
82485W        W53085  16.784  40.032   4.248
82486W        W53086  23.401  33.411  10.520
82487W        W53087  14.413  41.976   3.957
82488W        W53088   7.001  22.602  11.243
82489W        W53089  23.585  32.873  13.968
82490W        W53090  23.319  10.619   3.257
82491W        W53091  18.186   1.461   3.342
82492W        W53092  27.615  26.395  13.059
82493W        W53093  39.835  25.601  14.902
82494W        W53094  14.933  27.723   2.280
82495W        W53095  27.512  36.127  13.821
82496W        W53096   4.162  36.132  14.253
82497W        W53097   7.316  26.333  12.758
82498W        W53098  41.120  19.254  10.379
82499W        W53099  25.573  41.820  10.598
82500W        W53100  31.496   4.710   1.654
82501W        W53101  14.692  15.546  13.979
82502W        W53102   9.175  27.591   2.556
82503W        W53103   8.435  21.159  11.244
82504W        W53104   1.947  20.067  11.630
82505W        W53105   2.325  31.464  14.193
82506W        W53106  22.087   8.518   2.669
82507W        W53107  20.598  21.676  11.709
82508W        W53108  39.784   4.187   5.541
82509W        W53109  26.315   3.299   2.694
82510W        W53110  21.774  32.046  14.416
82511W        W53111   3.093  30.427   0.727
82512W        W53112  40.437  21.490  10.537
82513W        W53113   1.971  19.528   3.399
82514W        W53114  35.110  24.537  13.158
82515W        W53115  24.603  19.232  13.934
82516W        W53116  42.309  28.393   1.455
82517W        W53117   7.797  36.867   1.848
82518W        W53118  34.254  33.948  11.691
82519W        W53119  38.378  31.056  14.829
82520W        W53120  31.836   3.248  14.297
82521W        W53121  12.763  40.293  12.980
82522W        W53122  35.593  17.354  12.606
82523W        W53123  21.770   8.936   3.498
82524W        W53124   1.509  36.685  14.844
82525W        W53125  10.252  34.603   4.517
82526W        W53126   2.239  10.674  11.443
82527W        W53127   6.818  27.076  10.748
82528W        W53128  41.897   2.177  12.645
82529W        W53129  31.391  13.334   1.939
82530W        W53130  12.723  44.759  10.922
82531W        W53131   7.744  24.227   3.244
82532W        W53132   3.270  41.270  10.926
82533W        W53133  22.847  24.865   1.738
82534W        W53134   0.308  21.863   4.185
82535W        W53135  17.488  13.841   1.868
82536W        W53136  16.204  22.195  10.423
82537W        W53137  35.401  30.430  10.640
82538W        W53138  30.417  31.186   2.838
82539W        W53139  35.339   1.395   0.444
82540W        W53140   1.506  38.845   1.202
82541W        W53141  25.797  23.444  13.125
82542W        W53142  37.941  15.036   5.090
82543W        W53143  38.118  44.908  14.071
82544W        W53144  19.062   7.197  12.517
82545W        W53145  32.916  26.764   0.488
82546W        W53146  24.154   6.795  11.039
82547W        W53147  18.147  27.061   0.462
82548W        W53148  19.680   5.947  14.939
82549W        W53149  30.662  26.064  14.958
82550W        W53150  34.123   9.431  12.001
82551W        W53151  18.291   0.469   2.691
82552W        W53152  29.584  26.147   2.657
82553W        W53153  39.293  30.113  11.726
82554W        W53154  15.712   8.205  12.876
82555W        W53155   3.888  13.826  12.171
82556W        W53156  31.024  44.772  12.358
82557W        W53157  14.568  21.811  11.173
82558W        W53158  12.076  35.486   5.000
82559W        W53159  22.590  14.362  12.654
82560W        W53160  37.306  13.837   1.419
82561W        W53161   0.482   1.183   1.296
82562W        W53162   9.118   3.695   3.177
82563W        W53163   7.419  16.191  10.641
82564W        W53164  33.867   1.978  14.286
82565W        W53165  29.459  37.904  13.751
82566W        W53166  42.005  38.877   0.309
82567W        W53167  35.131  33.690   0.664
82568W        W53168  36.129  23.874  14.922
82569W        W53169  13.057  28.123   5.053
82570W        W53170  31.966  17.177   3.622
82571W        W53171  37.871  42.920  10.726
82572W        W53172  21.230  29.173   4.636
82573W        W53173  43.393   3.224   3.537
82574W        W53174  19.852  35.146   2.691
82575W        W53175  41.305  20.726  14.519
82576W        W53176  26.717  26.544  11.186
82577W        W53177  33.958  34.301   4.146
82578W        W53178  40.973  40.413   3.760
82579W        W53179  37.071  26.432  10.657
82580W        W53180  14.626  44.356   5.019
82581W        W53181  29.867   8.371  12.499
82582W        W53182  37.864   6.242   1.122
82583W        W53183  16.057   7.240   4.231
82584W        W53184  12.939  19.146  10.610
82585W        W53185  11.785  32.635   2.920
82586W        W53186   6.670  19.626  14.768
82587W        W53187   4.369   2.148   1.668
82588W        W53188  15.268  29.730   1.558
82589W        W53189  16.275   0.636   3.664
82590W        W53190  32.560  21.911   0.211
82591W        W53191  32.043  43.469   1.438
82592W        W53192  38.003  44.035  11.600
82593W        W53193  28.477   6.296  14.421
82594W        W53194  31.273   2.867   4.439
82595W        W53195  33.182  41.571  13.952
82596W        W53196  36.316   2.899   1.379
82597W        W53197  13.617  12.402  11.980
82598W        W53198  38.349   4.408   1.767
82599W        W53199  18.219  18.084  14.901
82600W        W53200   8.335  40.952   3.122
82601W        W53201  26.394  35.296   3.237
82602W        W53202  23.017  42.071  13.399
82603W        W53203  17.515  23.061  10.645
82604W        W53204  25.153   6.331   1.247
82605W        W53205   4.799  11.798   2.674
82606W        W53206   8.229   8.057   3.843
82607W        W53207   5.766  37.282  14.866
82608W        W53208  17.258  12.625   1.368
82609W        W53209  12.343   4.967  13.384
82610W        W53210  15.783  39.882  11.487
82611W        W53211  40.874  16.566  13.949
82612W        W53212  38.926  34.973   3.711
82613W        W53213  34.483  43.388   1.422
82614W        W53214  29.977  23.541  13.455
82615W        W53215   4.688  24.199   1.058
82616W        W53216   4.499   1.461   9.941
82617W        W53217   4.605  14.267   5.067
82618W        W53218   8.940  15.408   0.308
82619W        W53219  32.433  22.498  10.600
82620W        W53220  37.573   8.398  12.849
82621W        W53221  38.606  13.579  12.634
82622W        W53222  37.986  44.619  12.474
82623W        W53223   8.850  40.901   3.330
82624W        W53224  33.470  32.668  12.988
82625W        W53225  39.353  40.362   0.459
82626W        W53226  13.697  10.134  14.271
82627W        W53227  15.520  40.848   1.259
82628W        W53228  21.197  13.666   3.125
82629W        W53229  44.311  39.649  11.612
82630W        W53230   0.269  40.001   0.820
82631W        W53231  11.173  20.419  13.089
82632W        W53232  18.293  42.498  10.909
82633W        W53233  10.586  42.815   1.310
82634W        W53234  36.909  17.667  13.478
82635W        W53235  30.144  44.876   3.804
82636W        W53236  41.333  36.823  12.475
82637W        W53237  13.284  43.328  13.154
82638W        W53238  42.293   6.937   2.195
82639W        W53239  33.614  40.099  13.033
82640W        W53240  40.819   8.548   3.696
82641W        W53241  28.962  18.697  12.121
82642W        W53242  39.589  31.252  10.606
82643W        W53243  42.401  12.334   4.734
82644W        W53244  44.801  26.561   4.584
82645W        W53245  17.706  18.660  12.409
82646W        W53246  31.632  13.143   1.447
82647W        W53247   3.799  33.181  14.180
82648W        W53248  41.139  43.769  13.758
82649W        W53249  39.414  25.033   3.296
82650W        W53250   1.319  35.050  11.579
82651W        W53251  33.546  40.520   2.468
82652W        W53252   2.269  22.924   1.459
82653W        W53253  14.095   6.760   0.913
82654W        W53254  29.521  34.414  12.905
82655W        W53255  26.651   8.860   0.300
82656W        W53256  31.403  29.479   2.403
82657W        W53257  11.825  14.377  12.051
82658W        W53258   7.384  35.642   2.750
82659W        W53259   6.569  36.648   2.836
82660W        W53260   9.415  33.391   1.432
82661W        W53261   2.025  44.277  14.874
82662W        W53262  24.519  40.933   1.395
82663W        W53263  15.370   8.140  13.282
82664W        W53264  43.890   4.829   4.527
82665W        W53265  18.971  31.199  13.542
82666W        W53266  42.364  30.831   3.177
82667W        W53267  19.265  21.228   3.283
82668W        W53268   4.327  26.959   0.830
82669W        W53269  28.411   9.743   2.147
82670W        W53270  27.700  32.832  14.728
82671W        W53271   2.720  19.430   0.017
82672W        W53272  30.668  34.572   2.381
82673W        W53273  20.622  44.854  12.473
82674W        W53274  12.826  28.724  14.052
82675W        W53275   7.367  29.138   2.238
82676W        W53276   4.781  20.488   2.792
82677W        W53277  20.768  22.623  10.823
82678W        W53278  32.579   6.038   3.728
82679W        W53279  16.370  15.626  14.953
82680W        W53280  13.891  23.570   0.228
82681W        W53281  42.362  17.573  13.866
82682W        W53282  22.321  14.742   4.242
82683W        W53283  28.517   4.679  13.182
82684W        W53284  24.674  29.551  12.643
82685W        W53285  16.137  19.527  11.137
82686W        W53286   2.083  34.625  12.425
82687W        W53287   0.966   4.764   2.081
82688W        W53288  38.087   3.392  14.398
82689W        W53289  13.857  42.424  12.315
82690W        W53290  41.871  33.462   4.410
82691W        W53291  11.842  13.261   1.145
82692W        W53292  15.690  27.746   4.755
82693W        W53293  26.061  25.643  12.581
82694W        W53294   2.682   3.447  10.556
82695W        W53295  20.522   8.049   3.037
82696W        W53296  25.244   5.147  14.439
82697W        W53297  17.200  32.393   4.020
82698W        W53298  15.200   6.472   0.144
82699W        W53299  23.888  24.577  13.341
82700W        W53300  26.135  21.142   1.686
82701W        W53301  34.608  29.989  13.391
82702W        W53302  13.167  36.551   1.360
82703W        W53303  44.054  37.828  13.422
82704W        W53304  44.343  15.777   0.530
82705W        W53305  30.546  43.952   0.372
82706W        W53306  33.916   4.382  12.533
82707W        W53307  28.457   7.673  12.375
82708W        W53308  18.283  17.189  12.501
82709W        W53309  11.247   0.450  11.419
82710W        W53310  32.046  34.574  13.365
82711W        W53311  29.075  39.845  14.252
82712W        W53312   9.899   9.277   4.423
82713W        W53313  18.579  25.706   5.340
82714W        W53314  27.515  36.623   0.186
82715W        W53315   8.660  11.355   2.586
82716W        W53316  20.006  18.891  11.683
82717W        W53317  41.614  27.634  13.144
82718W        W53318  26.681  24.363   0.970
82719W        W53319  22.553  42.826   1.392
82720W        W53320  14.314  41.559   0.092
82721W        W53321   5.421  13.317  14.052
82722W        W53322  27.481  10.863  13.604
82723W        W53323   1.391   8.138   2.348
82724W        W53324   0.966   1.256   3.742
82725W        W53325  35.583  18.130   1.002
82726W        W53326  11.690   2.594   2.259
82727W        W53327  18.001  12.728   0.435
82728W        W53328  23.130  20.782   1.094
82729W        W53329   8.301  18.773   2.752
82730W        W53330  31.218  30.501   5.032
82731W        W53331  36.653  36.462   1.374
82732W        W53332  36.978  44.033   0.042
82733W        W53333  34.629   8.723  13.941
82734W        W53334   5.648  42.500   1.188
82735W        W53335  32.836  16.419   1.316
82736W        W53336  18.205  33.708  12.305
82737W        W53337   1.479  43.679   2.162
82738W        W53338  11.273  18.704  11.995
82739W        W53339  17.460  29.870  12.383
82740W        W53340  16.845  41.036  13.955
82741W        W53341  34.105  30.584   2.305
82742W        W53342  34.137  24.035  12.611
82743W        W53343  42.076   9.097  11.187
82744W        W53344  13.261   3.260  10.179
82745W        W53345  18.306  44.401   3.581
82746W        W53346  20.781  25.603  11.599
82747W        W53347  13.269  30.368   2.131
82748W        W53348  13.640  18.195   0.504
82749W        W53349  35.307   7.208  14.747
82750W        W53350  16.709  41.891   3.600
82751W        W53351  19.475   4.956   1.786
82752W        W53352  17.369  21.134   4.018
82753W        W53353   8.700  15.077  10.731
82754W        W53354  13.512  43.841   3.130
82755W        W53355   5.996  34.676   4.755
82756W        W53356  19.406  44.330  14.506
82757W        W53357  23.990   7.148  10.712
82758W        W53358  20.998  34.950   0.321
82759W        W53359   7.026  20.422   0.281
82760W        W53360   7.211  40.244   3.631
82761W        W53361  30.771  36.906  14.310
82762W        W53362  22.220  44.321   0.323
82763W        W53363   1.809  37.370  13.536
82764W        W53364  38.427  42.747  12.411
82765W        W53365  25.231  39.679   0.734
82766W        W53366   3.814  12.132  13.925
82767W        W53367  30.200  34.343  11.332
82768W        W53368  36.373  16.333   0.812
82769W        W53369  10.053  32.393   0.392
82770W        W53370  38.062   2.868   1.205
82771W        W53371   9.305  30.740   0.950
82772W        W53372  28.041  26.059   2.811
82773W        W53373  25.909  23.258   4.089
82774W        W53374  41.609  23.767  11.650
82775W        W53375  22.459  18.809   1.614
82776W        W53376  40.287  31.715  14.900
82777W        W53377  19.227   4.510   1.747
82778W        W53378   5.061  27.599   1.780
82779W        W53379  25.176  25.552   0.425
82780W        W53380  38.488  23.462   3.636
82781W        W53381  23.638  22.623   1.677
82782W        W53382  22.862  16.607   4.817
82783W        W53383  16.315  26.574   2.628
82784W        W53384  40.209  15.750  13.769
82785W        W53385  42.017  37.328   2.714
82786W        W53386  32.606  39.974  12.940
82787W        W53387  37.931  27.999  14.483
82788W        W53388  18.702   9.674  12.881
82789W        W53389  41.033  16.285   0.828
82790W        W53390   9.173  19.296  14.667
82791W        W53391  38.707  15.865  13.425
82792W        W53392  32.705  41.762  10.954
82793W        W53393  24.622   9.745   4.603
82794W        W53394  41.234  20.592   3.302
82795W        W53395  22.143   0.833   3.392
82796W        W53396  28.458  44.936  14.842
82797W        W53397  31.895  30.467  10.713
82798W        W53398  44.045  41.403   0.821
82799W        W53399   6.563  18.057   4.100
82800W        W53400  12.193  27.950   2.355
82801W        W53401   5.235  13.689   3.984
82802W        W53402  38.011  39.017   1.404
82803W        W53403  12.922  33.452  14.832
82804W        W53404  28.488   4.015  12.165
82805W        W53405  30.646  13.136  11.544
82806W        W53406  31.184  10.419   3.682
82807W        W53407  15.105  27.005  14.909
82808W        W53408  34.876  15.582  10.708
82809W        W53409  32.585  37.889  10.805
82810W        W53410  24.765   0.829  13.448
82811W        W53411  13.549  23.082  11.470
82812W        W53412  25.712  42.806  11.547
82813W        W53413  11.249  16.118  11.919
82814W        W53414  33.506  15.680   0.272
82815W        W53415  28.154  16.815  13.303
82816W        W53416  23.193  37.991   0.693
82817W        W53417  33.532  14.525  10.262
82818W        W53418  26.708  36.678  11.124
82819W        W53419  26.013  28.581  13.705
82820W        W53420  16.277   7.835  11.640
82821W        W53421  39.752  13.053  11.406
82822W        W53422  19.310  27.028  14.404
82823W        W53423  10.523   0.725  14.271
82824W        W53424  38.930  36.299  13.687
82825W        W53425  33.511  37.489   0.537
82826W        W53426  26.474  32.368  11.957
82827W        W53427  15.241  12.843   0.278
82828W        W53428   8.070   4.896   1.490
82829W        W53429  11.965  11.307  12.545
82830W        W53430  35.346  25.756  11.667
82831W        W53431  37.603  16.641   0.804
82832W        W53432  35.818  36.399   3.644
82833W        W53433  17.726  14.717   3.569
82834W        W53434  42.523  32.547   0.562
82835W        W53435  14.190  12.718  12.125
82836W        W53436  16.040  26.160   3.523
82837W        W53437  13.706   8.284   1.483
82838W        W53438  42.434  23.892   0.773
82839W        W53439  28.045  28.515   3.029
82840W        W53440   0.898  12.569   2.423
82841W        W53441  17.547  22.497   4.175
82842W        W53442  26.091  33.333   1.700
82843W        W53443   6.114  10.383   4.038
82844W        W53444   5.980  38.268  11.151
82845W        W53445   5.938   2.639  12.896
82846W        W53446  28.424   6.374   2.349
82847W        W53447  12.838  24.694   3.641
82848W        W53448  28.176  15.044  12.184
82849W        W53449  43.403  28.163   2.751
82850W        W53450  17.966   9.698  14.525
82851W        W53451  40.416   8.243  13.379
82852W        W53452   4.440  12.272   0.259
82853W        W53453  18.145  21.457   4.448
82854W        W53454  20.002  35.022  13.328
82855W        W53455  31.936  10.149   4.023
82856W        W53456  35.584  25.689  14.712
82857W        W53457   1.458  12.599  13.227
82858W        W53458  40.098  24.477  10.970
82859W        W53459  28.563  38.369  11.764
82860W        W53460  22.803  34.414   0.284
82861W        W53461   5.268   0.909   0.466
82862W        W53462  23.738   3.976   3.775
82863W        W53463  37.949  24.513   4.523
82864W        W53464  17.557  29.753  14.755
82865W        W53465   7.325  22.071   2.171
82866W        W53466  40.401   8.035   1.130
82867W        W53467  37.557  21.018  12.122
82868W        W53468  24.968  12.267  14.810
82869W        W53469  25.758  21.086  12.037
82870W        W53470   0.536  14.836  10.772
82871W        W53471  21.937  41.049   3.568
82872W        W53472  19.920  15.672   2.167
82873W        W53473   7.128  25.657   2.897
82874W        W53474  30.628  34.457  10.758
82875W        W53475  27.029  17.130  13.842
82876W        W53476  24.740  31.483   2.900
82877W        W53477  33.966  44.446   1.435
82878W        W53478  24.085   3.208   0.178
82879W        W53479   0.126  37.060   1.226
82880W        W53480   6.194   3.918  10.991
82881W        W53481  21.640  17.590  11.549
82882W        W53482  20.041  25.985  11.417
82883W        W53483  26.581  17.326  12.487
82884W        W53484   2.350  42.056   0.575
82885W        W53485  20.583  19.256  14.723
82886W        W53486  34.052  25.966   1.401
82887W        W53487  23.809  17.807   0.305
82888W        W53488  44.270  27.154   1.289
82889W        W53489  32.624  10.779   3.612
82890W        W53490  24.039  41.435   3.374
82891W        W53491  42.623  22.730   0.344
82892W        W53492   1.741  11.569  10.823
82893W        W53493  25.220  12.959   2.077
82894W        W53494  38.051  26.561  10.175
82895W        W53495   5.409  37.029   1.381
82896W        W53496  41.273  28.914  14.987
82897W        W53497   6.251  13.799  14.313
82898W        W53498  19.342  30.897   0.325
82899W        W53499  29.929  17.847   2.213
82900W        W53500  14.248  10.812   0.190
82901W        W53501  27.609  25.792   0.273
82902W        W53502  24.968  24.474  10.698
82903W        W53503  43.477  40.625   3.261
82904W        W53504  22.531  25.475   2.733
82905W        W53505  32.328   9.264  11.618
82906W        W53506  43.543  30.374   2.838
82907W        W53507  43.541  34.881  12.029
82908W        W53508  41.401  10.966   4.800
82909W        W53509  43.102  14.150   3.311
82910W        W53510  43.652  24.966  13.480
82911W        W53511  29.176  28.054   4.094
82912W        W53512  25.899  17.607  13.494
82913W        W53513  19.528   7.703  14.039
82914W        W53514  33.679  13.675   0.889
82915W        W53515  10.242   2.712   3.189
82916W        W53516  37.792  13.321  11.672
82917W        W53517  28.061   8.422  12.170
82918W        W53518   6.630  22.666  10.876
82919W        W53519   3.305  30.502   1.649
82920W        W53520   4.988  16.621  13.503
82921W        W53521  36.519  11.197  11.610
82922W        W53522   5.180  36.902   1.833
82923W        W53523  20.055  40.740   0.300
82924W        W53524  44.753   8.220   4.857
82925W        W53525  23.920  38.298  10.819
82926W        W53526   7.164   5.609  12.625
82927W        W53527  28.390  19.555   2.312
82928W        W53528  29.909  26.519  14.388
82929W        W53529  10.273  10.688  11.697
82930W        W53530   4.621  25.109  12.581
82931W        W53531   9.767   5.205  12.123
82932W        W53532  10.253   3.738  11.213
82933W        W53533  41.098   3.913   2.250
82934W        W53534  37.860  13.201  13.490
82935W        W53535  29.095  20.589   2.677
82936W        W53536   7.401  19.212  12.142
82937W        W53537  25.317   5.466   0.717
82938W        W53538  33.057  32.854   4.014
82939W        W53539  12.004   4.798  13.832
82940W        W53540   8.461  17.164   1.171
82941W        W53541   9.385  44.661  13.900
82942W        W53542  40.294   9.778   1.873
82943W        W53543   6.639  22.938  12.100
82944W        W53544  29.252   0.946   0.484
82945W        W53545  19.819  12.779  10.682
82946W        W53546  41.576  32.630  14.478
82947W        W53547  33.447  37.241  14.635
82948W        W53548  25.699  39.228   4.893
82949W        W53549  29.011  43.666   4.913
82950W        W53550  15.588   0.871  13.083
82951W        W53551  12.396   3.985   3.318
82952W        W53552  32.504  20.649  14.103
82953W        W53553  33.776  35.181   3.551
82954W        W53554  38.477  37.418  13.069
82955W        W53555   7.614  29.050   1.788
82956W        W53556  44.365  10.906  10.808
82957W        W53557   1.329  24.559   3.429
82958W        W53558  19.166  38.689   1.861
82959W        W53559  25.272  25.175   1.276
82960W        W53560   4.824  23.742  10.715
82961W        W53561  33.580  10.767   3.185
82962W        W53562  25.108  13.320   1.258
82963W        W53563  14.609  31.114   0.894
82964W        W53564  19.156  12.273   1.320
82965W        W53565  15.295  24.149   4.089
82966W        W53566  32.056  36.728   1.202
82967W        W53567  24.759   9.289   3.686
82968W        W53568   7.085   3.932  14.356
82969W        W53569  27.547  15.429  14.303
82970W        W53570  40.213  15.663  11.175
82971W        W53571   3.866   5.673  11.849
82972W        W53572   4.715  42.866  13.092
82973W        W53573  27.162   8.694  10.520
82974W        W53574  15.994  34.910   1.358
82975W        W53575  35.639  16.562  12.059
82976W        W53576  17.857  15.977   0.140
82977W        W53577  24.039   4.969   3.064
82978W        W53578  42.343   0.813   1.254
82979W        W53579  41.767  31.806  14.304
82980W        W53580  40.995  32.682   3.630
82981W        W53581   9.028   5.864  12.134
82982W        W53582   6.179   0.291  14.055
82983W        W53583  16.975   0.233  13.900
82984W        W53584  23.554   2.961  10.300
82985W        W53585  43.723   7.616   4.160
82986W        W53586  44.641  12.572   3.882
82987W        W53587  26.981   9.409  11.008
82988W        W53588   3.769  10.904  11.449
82989W        W53589  12.975  22.683  12.095
82990W        W53590  12.065   8.404  11.121
82991W        W53591  27.153  18.771   3.192
82992W        W53592  41.686  39.711  10.875
82993W        W53593  16.269  34.059  14.851
82994W        W53594  14.207   8.312   2.301
82995W        W53595   9.607  40.155  10.802
82996W        W53596  14.289  18.250   4.155
82997W        W53597  39.684  12.112   0.366
82998W        W53598  31.486  35.152  11.177
82999W        W53599  41.331   5.162   1.764
83000W        W53600  14.201   1.717   1.719
83001W        W53601   9.347   1.569  13.564
83002W        W53602  17.701   2.199  14.820
83003W        W53603   0.438  10.267   1.664
83004W        W53604   6.088  43.907   1.870
83005W        W53605  18.133   5.324  13.472
83006W        W53606  29.643  27.745   2.443
83007W        W53607   3.892  14.086   0.542
83008W        W53608  40.802  33.285  11.193
83009W        W53609  29.460  15.344  11.099
83010W        W53610  14.412   4.836   2.310
83011W        W53611   5.336   8.606   2.341
83012W        W53612  18.453  29.250  10.612
83013W        W53613   2.229  41.754  11.196
83014W        W53614  22.759  27.480   4.236
83015W        W53615  37.675  21.165   2.086
83016W        W53616   0.035  28.587   1.811
83017W        W53617  36.136  43.118  10.394
83018W        W53618  31.286  19.654   4.948
83019W        W53619   2.966  38.554  13.711
83020W        W53620  14.532  27.395   2.316
83021W        W53621   6.555  37.398  12.414
83022W        W53622  36.405  11.677  12.920
83023W        W53623   7.778  24.155   0.317
83024W        W53624  38.565   1.376   3.755
83025W        W53625  10.547  11.260   2.703
83026W        W53626  24.195  25.781  12.436
83027W        W53627   7.313  35.537  13.602
83028W        W53628   1.347  28.343   2.880
83029W        W53629  22.548  24.013   0.975
83030W        W53630  10.026  44.999   4.238
83031W        W53631  35.940   4.932   2.189
83032W        W53632  14.486  20.172   2.293
83033W        W53633   1.389  41.017  10.728
83034W        W53634  11.366  26.005   3.796
83035W        W53635  18.647  36.135  14.506
83036W        W53636  39.811  43.843  12.588
83037W        W53637  19.274  28.980   4.265
83038W        W53638  24.832  34.414  14.577
83039W        W53639  39.825  41.501   3.188
83040W        W53640  10.165  37.902   1.132
83041W        W53641   3.483   4.262  14.838
83042W        W53642   9.926   9.269   2.605
83043W        W53643  15.149  21.560   4.300
83044W        W53644   9.892   5.555  14.883
83045W        W53645  35.670  39.428  13.458
83046W        W53646  37.175  22.653  13.929
83047W        W53647  40.392  18.357   1.199
83048W        W53648  43.772   6.309  12.354
83049W        W53649  16.065  25.928   4.001
83050W        W53650   3.778  15.529   1.773
83051W        W53651  41.274  20.971  11.540
83052W        W53652  32.507  21.264   1.408
83053W        W53653   7.465  42.868  14.752
83054W        W53654   9.854   6.839  12.930
83055W        W53655  42.602  15.022   1.687
83056W        W53656  42.513  14.157   4.190
83057W        W53657  31.913  29.507   2.211
83058W        W53658  40.726  19.709   1.582
83059W        W53659  20.296  18.287   1.670
83060W        W53660  13.125  39.072   3.291
83061W        W53661   0.677  12.840   3.730
83062W        W53662   8.646  15.259  14.458
83063W        W53663   6.931  30.396   4.830
83064W        W53664  35.416  42.413   1.189
83065W        W53665  13.634  10.312   1.590
83066W        W53666  22.555  19.694  10.718
83067W        W53667  21.051   2.244  10.880
83068W        W53668  41.458  18.661  12.268
83069W        W53669  18.978  24.616  10.458
83070W        W53670  37.100   1.961   3.775
83071W        W53671  43.004  16.513   3.217
83072W        W53672   5.449  13.749  11.933
83073W        W53673   7.875  21.014   0.018
83074W        W53674  42.477   4.695  13.392
83075W        W53675   4.207  42.829   2.795
83076W        W53676  29.090  19.253   2.385
83077W        W53677  17.211  10.906  10.952
83078W        W53678  43.915  40.078   4.212
83079W        W53679  19.374  33.799  11.143
83080W        W53680  33.350  34.480   0.016
83081W        W53681   4.772  31.161  12.597
83082W        W53682  33.842   2.694   3.329
83083W        W53683  39.848  27.088   4.564
83084W        W53684  27.093  15.406  13.765
83085W        W53685  40.505  25.497  12.533
83086W        W53686  28.533  35.836   3.713
83087W        W53687  10.209  35.539  12.901
83088W        W53688   4.169  31.555  13.985
83089W        W53689  37.879  14.851  11.763
83090W        W53690  29.010  20.145   0.691
83091W        W53691  26.104  15.836  12.443
83092W        W53692  16.168  18.269  13.315
83093W        W53693   8.355   0.426   3.395
83094W        W53694  26.510   3.479  10.170
83095W        W53695  32.651  24.114   1.759
83096W        W53696  24.338  36.399   4.251
83097W        W53697  25.611  26.961   2.197
83098W        W53698  35.842  10.211   1.775
83099W        W53699  34.435   9.294   3.855
83100W        W53700  11.302  44.937  14.038
83101W        W53701   3.697   3.496   3.342
83102W        W53702  37.000   1.459   0.538
83103W        W53703   0.490  21.950  10.894
83104W        W53704  33.188   0.444   1.025
83105W        W53705   9.393  31.572  11.234
83106W        W53706  11.713   9.683  11.926
83107W        W53707  19.527   1.793  14.316
83108W        W53708  33.264   6.327  12.082
83109W        W53709  25.544   0.211  13.845
83110W        W53710   3.444  36.112  12.058
83111W        W53711  19.256   1.148   3.604
83112W        W53712  16.656  29.777   5.180
83113W        W53713  26.426  32.059   5.420
83114W        W53714  23.923  41.390  11.847
83115W        W53715  34.387   9.886  14.431
83116W        W53716  31.024  10.640  10.544
83117W        W53717  29.956   7.910  11.826
83118W        W53718   3.434  26.601   0.359
83119W        W53719  30.675  43.976  13.900
83120W        W53720  35.791  33.436  10.982
83121W        W53721   1.236   1.753   4.605
83122W        W53722  38.047  41.026  10.849
83123W        W53723  25.338   5.197  11.180
83124W        W53724   1.715  21.171   2.675
83125W        W53725  11.862  11.845   1.235
83126W        W53726  21.644  40.041   0.409
83127W        W53727  36.150   1.314  12.066
83128W        W53728  19.007  43.394  12.019
83129W        W53729  29.753  14.026  14.308
83130W        W53730  17.636   2.976   0.400
83131W        W53731   9.640  21.186   4.645
83132W        W53732   6.801  27.965  10.667
83133W        W53733   5.407  12.033  14.486
83134W        W53734   2.915   8.125   3.286
83135W        W53735  36.078  21.936  12.696
83136W        W53736  43.332  37.166   2.819
83137W        W53737  37.890   7.646   2.738
83138W        W53738  35.541  25.529  10.735
83139W        W53739   5.624   1.422   4.581
83140W        W53740  11.807   0.297  14.209
83141W        W53741  42.051  11.838   3.112
83142W        W53742  39.833   8.882   4.104
83143W        W53743  23.233   5.805  12.935
83144W        W53744   8.680  12.927  13.896
83145W        W53745  31.922  36.442   4.136
83146W        W53746   9.344  14.997   4.553
83147W        W53747  38.329   3.392   4.006
83148W        W53748  28.179  34.203  14.387
83149W        W53749  26.109   9.997  14.025
83150W        W53750  10.671  43.821  11.039
83151W        W53751  15.645  19.719   1.679
83152W        W53752  18.160  15.128  11.432
83153W        W53753  44.379  22.350  11.392
83154W        W53754  24.038   2.181   4.155
83155W        W53755  31.390  41.850  11.430
83156W        W53756  15.535  16.184  10.631
83157W        W53757  32.605   8.959   2.648
83158W        W53758  37.856   1.326  14.572
83159W        W53759  44.226  25.565   1.854
83160W        W53760  33.613  39.017   4.036
83161W        W53761  13.127  36.630   4.066
83162W        W53762  14.904  20.772   1.612
83163W        W53763  35.317  44.228  14.296
83164W        W53764  40.956  36.141   3.866
83165W        W53765   5.739   1.970  13.374
83166W        W53766  34.664  44.406   0.744
83167W        W53767   4.261  30.147   2.753
83168W        W53768  24.951  10.302   2.033
83169W        W53769  12.570  34.914   4.147
83170W        W53770  24.658  26.155   4.535
83171W        W53771  23.214  37.969  12.980
83172W        W53772  27.482  24.021   3.296
83173W        W53773   1.264  23.483   4.138
83174W        W53774  29.324  35.311   3.401
83175W        W53775  21.529  11.883  12.436
83176W        W53776  22.945  34.356  11.176
83177W        W53777  27.705  27.306  10.838
83178W        W53778  43.002   3.272   4.847
83179W        W53779  39.884  20.241   3.768
83180W        W53780   7.822   7.787  10.453
83181W        W53781   6.672  24.206  14.791
83182W        W53782  34.162  34.012  14.828
83183W        W53783  23.616  35.202   2.053
83184W        W53784  27.517  20.218  14.998
83185W        W53785  37.535  38.959  11.543
83186W        W53786   8.189  23.301   2.494
83187W        W53787  33.312  39.470   4.174
83188W        W53788  36.816  25.048   1.417
83189W        W53789  44.847  39.892  14.899
83190W        W53790  40.424   6.711   4.318
83191W        W53791  27.033  10.824  12.803
83192W        W53792  34.769  40.071   0.008
83193W        W53793  28.531  41.785   1.469
83194W        W53794  25.125   0.606  10.103
83195W        W53795  14.519   4.705   3.791
83196W        W53796  19.185  13.106   3.105
83197W        W53797   3.710  11.976   4.918
83198W        W53798  42.497  23.810  14.841
83199W        W53799   8.356  43.915  11.665
83200W        W53800  26.089  44.250   0.193
83201W        W53801  19.376  25.259  11.173
83202W        W53802   4.488  16.179   4.503
83203W        W53803   1.936   4.828  10.473
83204W        W53804   9.649   8.485  14.954
83205W        W53805  21.677  17.339   4.355
83206W        W53806  11.217  40.519  11.692
83207W        W53807  14.906   3.347  12.009
83208W        W53808  16.463  41.817   4.025
83209W        W53809   8.630  19.448   0.524
83210W        W53810  16.777  21.302  13.938
83211W        W53811  34.563  44.354   1.679
83212W        W53812  38.911  19.706   3.661
83213W        W53813   0.945  30.374  11.046
83214W        W53814  36.365  18.508  12.958
83215W        W53815   4.805  25.830   3.137
83216W        W53816  42.809  15.603  11.445
83217W        W53817  19.288  43.526  13.299
83218W        W53818  19.298  41.367   2.804
83219W        W53819  43.551  22.564   0.410
83220W        W53820  40.372  13.321  14.564
83221W        W53821  14.578  41.534   3.685
83222W        W53822  32.829  14.399  14.248
83223W        W53823  37.441  22.070   0.681
83224W        W53824  39.457  26.156   1.493
83225W        W53825  40.147  25.194   3.810
83226W        W53826  25.956  35.575   3.267
83227W        W53827  39.375  19.294   0.028
83228W        W53828   1.227   0.905   4.902
83229W        W53829  39.606  36.257  11.165
83230W        W53830  37.009   6.337  13.011
83231W        W53831  24.756  16.775   0.861
83232W        W53832  41.868  43.568  11.475
83233W        W53833  43.389  18.442   5.153
83234W        W53834   7.927  21.750   3.751
83235W        W53835  20.568   2.190   4.484
83236W        W53836  30.576  16.526  13.052
83237W        W53837   8.661  21.027   1.380
83238W        W53838  24.071  20.795  12.502
83239W        W53839  20.414  20.846  12.440
83240W        W53840  40.506  26.028  12.223
83241W        W53841  33.502  35.559   3.780
83242W        W53842   3.035  23.719  12.046
83243W        W53843  42.356  20.033  10.714
83244W        W53844  12.542  37.575  13.799
83245W        W53845  36.502   8.251   3.152
83246W        W53846  34.874  17.569  13.382
83247W        W53847  26.171  18.210   1.902
83248W        W53848   3.239  16.545   1.822
83249W        W53849   8.466  30.547   1.786
83250W        W53850  19.653   2.718   2.055
83251W        W53851  30.110  41.134  12.964
83252W        W53852  21.658  21.942  14.292
83253W        W53853   0.849  21.097   0.795
83254W        W53854  29.600  31.078  13.779
83255W        W53855   6.612  36.347   3.993
83256W        W53856  13.900  14.953   4.044
83257W        W53857  23.530  43.412   4.305
83258W        W53858  19.126  34.480   0.412
83259W        W53859  29.420  28.121   1.292
83260W        W53860  10.394  41.962  11.338
83261W        W53861   6.043   3.854   0.609
83262W        W53862  37.599  30.358  12.785
83263W        W53863  14.329  25.533  12.058
83264W        W53864  28.736  23.048  14.432
83265W        W53865   6.783  29.864  14.334
83266W        W53866  38.504  26.389  12.941
83267W        W53867  12.503  12.856   2.461
83268W        W53868   0.839   1.807   0.829
83269W        W53869  12.339   0.067   4.474
83270W        W53870  38.296  30.645   2.774
83271W        W53871  34.836  34.998   0.806
83272W        W53872  25.186  20.074   0.489
83273W        W53873   0.725   2.292  12.395
83274W        W53874  29.531  38.361  11.902
83275W        W53875  27.879  39.967  12.889
83276W        W53876  25.511  36.172  14.329
83277W        W53877   7.377  25.835  12.877
83278W        W53878   4.515  28.222   0.532
83279W        W53879  29.080   3.704  14.598
83280W        W53880  25.774  10.055   1.279
83281W        W53881  18.753  32.616   4.093
83282W        W53882  18.259  24.592  14.744
83283W        W53883  22.458  22.643   5.408
83284W        W53884  15.629  15.538  12.854
83285W        W53885  17.791  42.371  11.003
83286W        W53886   7.083  28.233   3.154
83287W        W53887  27.183  16.607  11.619
83288W        W53888   2.721  20.527  11.426
83289W        W53889  34.448  16.195   2.594
83290W        W53890   6.971  14.132   3.350
83291W        W53891  30.406   5.198   4.246
83292W        W53892  41.378   2.263  14.428
83293W        W53893  41.376  43.420  11.636
83294W        W53894  31.487  32.461  12.942
83295W        W53895  42.098  31.050  12.903
83296W        W53896   4.626  11.157   4.646
83297W        W53897  26.231  21.298   3.303
83298W        W53898  21.788  12.267   1.383
83299W        W53899  36.063  27.497  14.975
83300W        W53900  38.422  37.262   4.198
83301W        W53901  39.723  17.108   2.862
83302W        W53902  44.584  41.489  11.513
83303W        W53903  30.318  31.966  12.451
83304W        W53904   8.284  31.016  13.767
83305W        W53905  41.261  37.385  13.336
83306W        W53906   8.043  23.337  11.533
83307W        W53907  44.470   3.738  11.700
83308W        W53908   9.825  14.575  10.769
83309W        W53909  28.109  15.666   1.865
83310W        W53910  40.660  14.995  12.129
83311W        W53911  43.348  34.292  10.193
83312W        W53912  29.060  20.765  13.416
83313W        W53913  33.900  38.946  10.564
83314W        W53914  39.296  25.661  14.864
83315W        W53915  15.020  18.494   1.937
83316W        W53916  27.188  41.773  14.865
83317W        W53917  26.582  16.957   4.571
83318W        W53918  24.805   9.625  10.537
83319W        W53919   8.928  31.984  13.091
83320W        W53920   0.832  32.915   1.426
83321W        W53921   3.928  33.985  12.464
83322W        W53922  20.515  14.059   1.724
83323W        W53923  19.613  11.632   3.800
83324W        W53924  25.474   9.554  13.027
83325W        W53925  27.004   4.176  11.827
83326W        W53926  43.219  12.608   4.246
83327W        W53927  30.677  35.958   0.849
83328W        W53928  36.170  42.344   3.378
83329W        W53929   9.780  25.708  11.090
83330W        W53930  30.054   1.464  11.537
83331W        W53931  27.161  20.145   0.748
83332W        W53932   6.547  25.255  12.450
83333W        W53933   5.452  27.167  14.772
83334W        W53934   8.700  19.299   2.744
83335W        W53935   6.901  19.349  13.488
83336W        W53936   5.924  11.380   0.845
83337W        W53937   7.969  14.100  13.931
83338W        W53938  38.157  22.010   0.030
83339W        W53939  36.930  27.531   3.091
83340W        W53940  30.479   7.091   4.682
83341W        W53941  44.267  11.267  12.832
83342W        W53942  20.370  22.434  11.104
83343W        W53943  16.181   0.200  11.238
83344W        W53944  30.492  13.654   0.922
83345W        W53945  39.341  43.361  11.593
83346W        W53946  17.876  29.031   4.540
83347W        W53947  34.567  28.566  10.485
83348W        W53948  35.225  29.371  10.449
83349W        W53949  14.750   2.254  11.477
83350W        W53950  29.024  29.120  10.707
83351W        W53951  39.109   1.859   0.770
83352W        W53952  33.161  36.521  11.871
83353W        W53953  32.995  11.258  13.562
83354W        W53954   0.761  13.624   0.037
83355W        W53955   8.690  24.410   3.834
83356W        W53956  41.804  32.957   3.077
83357W        W53957   8.937  26.703  11.476
83358W        W53958  27.018   3.901   2.962
83359W        W53959  10.913  16.759  10.558
83360W        W53960  16.207  11.271  11.111
83361W        W53961   3.676   9.828  14.372
83362W        W53962  12.905  20.994  14.973
83363W        W53963  29.628  25.421   3.411
83364W        W53964  40.970  14.565  12.832
83365W        W53965  20.331  43.261   1.291
83366W        W53966   6.938  39.882  12.121
83367W        W53967   2.365  30.484   0.162
83368W        W53968  44.437   5.832  13.387
83369W        W53969   4.290   6.396  11.336
83370W        W53970  44.493  25.611   3.759
83371W        W53971  37.940  26.129  14.803
83372W        W53972  44.816  12.217   0.372
83373W        W53973  32.070   2.886   3.246
83374W        W53974   1.260  21.675  11.999
83375W        W53975   1.739   2.579   1.185
83376W        W53976  37.890   7.867   1.277
83377W        W53977  43.987  14.665  14.724
83378W        W53978   9.310   5.497   0.761
83379W        W53979  24.630   1.005   1.243
83380W        W53980   2.438  32.454   1.490
83381W        W53981   4.276  22.572  10.654
83382W        W53982  29.101  33.041  12.597
83383W        W53983  30.034   3.457  11.428
83384W        W53984  41.073  44.964   3.202
83385W        W53985  24.515  34.530   4.456
83386W        W53986  20.282  34.110   3.181
83387W        W53987   6.713  24.487  12.063
83388W        W53988  21.189   2.661  12.585
83389W        W53989   8.898  40.845  11.209
83390W        W53990  36.105  42.946   4.532
83391W        W53991  15.736   3.699  12.006
83392W        W53992  14.054  21.784  11.092
83393W        W53993  10.697  16.090   3.105
83394W        W53994   4.348   1.366   3.553
83395W        W53995   3.134  27.550   0.374
83396W        W53996  40.570   7.796   1.875
83397W        W53997  40.086  20.128   0.847
83398W        W53998  35.026  34.942   0.284
83399W        W53999  21.254  20.779   1.916
83400W        W54000  17.247  28.669   3.522
83401W        W54001  27.195   8.886  13.220
83402W        W54002  19.592  40.546   5.050
83403W        W54003  30.499   6.949  11.068
83404W        W54004  37.169  44.960  11.272
83405W        W54005  41.263  12.587   2.942
83406W        W54006  28.403  27.906  13.723
83407W        W54007  12.557  17.845  14.456
83408W        W54008   2.998   7.346  12.581
83409W        W54009  19.059   7.866  12.925
83410W        W54010  20.140  13.952  12.564
83411W        W54011  35.301  31.641  12.512
83412W        W54012   5.929  11.250  14.443
83413W        W54013  28.514  15.609  14.823
83414W        W54014  24.795  40.885  14.626
83415W        W54015  41.857   8.795   1.080
83416W        W54016  10.866  24.772   3.371
83417W        W54017  16.540   8.948  14.868
83418W        W54018  18.096   3.486  14.834
83419W        W54019  24.297  31.944   5.034
83420W        W54020   5.313   3.142   4.271
83421W        W54021   1.859  43.005  13.297
83422W        W54022  36.851  34.899   2.575
83423W        W54023   0.485  25.411  11.011
83424W        W54024   1.109  11.601   3.597
83425W        W54025  29.669   3.997   2.900
83426W        W54026  12.426  23.642  13.405
83427W        W54027  40.501  24.658   1.339
83428W        W54028   8.427  26.112   3.762
83429W        W54029  33.963  19.795   4.051
83430W        W54030  32.476   3.997   0.004
83431W        W54031  17.317  22.784  13.309
83432W        W54032   3.970  31.181  12.549
83433W        W54033   6.818  44.405  12.371
83434W        W54034  36.981  13.850  12.555
83435W        W54035   6.441  11.543   0.853
83436W        W54036  20.562  38.496   0.957
83437W        W54037  29.008  25.196  10.777
83438W        W54038  16.071  20.818  10.700
83439W        W54039   3.766  37.895  10.628
83440W        W54040  31.668  17.841  11.181
83441W        W54041  23.122  25.271  13.380
83442W        W54042  33.632  29.890   3.702
83443W        W54043  33.277  29.399   1.084
83444W        W54044   1.275  22.139   0.020
83445W        W54045  16.729  17.245  12.626
83446W        W54046  40.306  17.980   4.424
83447W        W54047  24.486   4.578  12.048
83448W        W54048  40.765   4.834   1.661
83449W        W54049  37.949  27.904  13.566
83450W        W54050  23.669   3.215   4.319
83451W        W54051  31.084   6.401   3.690
83452W        W54052  42.593   8.424   1.363
83453W        W54053  44.125   4.316   1.100
83454W        W54054  36.618  21.200  11.917
83455W        W54055   5.129  28.925  14.255
83456W        W54056  36.435  34.336   3.317
83457W        W54057  36.152  23.692  12.887
83458W        W54058   1.819  27.697   4.180
83459W        W54059  37.437  16.512   4.355
83460W        W54060  15.921  25.046   4.453
83461W        W54061  12.762  11.398   3.299
83462W        W54062  34.305   2.526   1.325
83463W        W54063   1.705  29.105  12.605
83464W        W54064   7.626  27.163   0.911
83465W        W54065  36.377  40.752   3.564
83466W        W54066  40.826  37.161   0.915
83467W        W54067  41.929  22.487   0.008
83468W        W54068  10.847  27.092   3.257
83469W        W54069  10.229  25.034   0.275
83470W        W54070   4.936  44.795   3.294
83471W        W54071   5.210  39.984   1.344
83472W        W54072  29.630  43.474   4.732
83473W        W54073  20.321  29.567   3.647
83474W        W54074  33.900  31.649  14.392
83475W        W54075  15.621  24.672   4.688
83476W        W54076   5.095  32.489  12.063
83477W        W54077  11.575  31.585   0.577
83478W        W54078  29.304  36.446  11.830
83479W        W54079  35.624   8.822   0.795
83480W        W54080  16.111  12.647   1.721
83481W        W54081  15.827  12.008  12.446
83482W        W54082  21.913  31.997   4.947
83483W        W54083  34.524   3.870   2.098
83484W        W54084  29.456  13.932  10.758
83485W        W54085  42.428  30.507   1.351
83486W        W54086  15.400  20.884   1.440
83487W        W54087  19.311  27.741  12.512
83488W        W54088   8.490   8.464   0.760
83489W        W54089  31.499  16.475  11.419
83490W        W54090  41.767  18.652   2.302
83491W        W54091  13.569  31.923  14.642
83492W        W54092  36.546  38.372   3.227
83493W        W54093  32.499   3.804  10.524
83494W        W54094  36.935  20.227  14.056
83495W        W54095  23.431  36.601  11.146
83496W        W54096  23.867  27.509   0.494
83497W        W54097   4.487  12.940  14.488
83498W        W54098  17.350  22.711  11.462
83499W        W54099  27.351  24.489  14.522
83500W        W54100   1.360   0.831   1.330
83501W        W54101  29.038  29.167  11.207
83502W        W54102  13.307  21.274  12.857
83503W        W54103  37.299  22.204  13.039
83504W        W54104   5.833   3.013   2.254
83505W        W54105  22.508  18.610  10.640
83506W        W54106  38.822  41.762  13.300
83507W        W54107  17.631  38.075   0.929
83508W        W54108  33.120  28.951  12.990
83509W        W54109  21.069  25.822  11.202
83510W        W54110   7.229  38.574  12.798
83511W        W54111  21.294   1.605  14.734
83512W        W54112   1.064  31.065  12.748
83513W        W54113   3.909  22.130   2.210
83514W        W54114  13.735  30.897  14.466
83515W        W54115  30.002   0.381   3.829
83516W        W54116  23.629  10.325   0.285
83517W        W54117   1.368  17.995   1.237
83518W        W54118  13.811  29.952  13.827
83519W        W54119  23.612  30.130  11.142
83520W        W54120  12.690  41.868   1.269
83521W        W54121  14.238   0.029   4.589
83522W        W54122  43.335  43.076   3.582
83523W        W54123  41.552  39.865  12.431
83524W        W54124  24.799   1.425   1.492
83525W        W54125  15.183  18.127   1.593
83526W        W54126   6.326  34.821  14.913
83527W        W54127  38.666  38.431  13.888
83528W        W54128  23.150   6.496  14.409
83529W        W54129  28.599   7.886  13.345
83530W        W54130  34.666  14.133   0.269
83531W        W54131  29.268  40.886  12.532
83532W        W54132  15.073  22.435  12.553
83533W        W54133  41.702   6.412   3.180
83534W        W54134  41.389  23.707   0.314
83535W        W54135   1.786  41.859   0.025
83536W        W54136  12.573  36.728  12.568
83537W        W54137  27.961  43.537   0.237
83538W        W54138   6.303  28.146   4.167
83539W        W54139  16.095  39.250   0.242
83540W        W54140  34.701  12.150   4.091
83541W        W54141   4.404  28.016  12.854
83542W        W54142  18.102   0.560   1.650
83543W        W54143  12.613   8.347   3.587
83544W        W54144  34.422  11.764   4.334
83545W        W54145  28.974  36.029  11.834
83546W        W54146   2.834  40.880   0.892
83547W        W54147   9.048  13.003   2.630
83548W        W54148  10.999   5.784  11.121
83549W        W54149   9.774  24.124   1.331
83550W        W54150  29.664  30.203   0.830
83551W        W54151  41.517  27.665   1.420
83552W        W54152  19.611  16.996   3.195
83553W        W54153  30.296  18.213   4.772
83554W        W54154  17.006  25.471  14.886
83555W        W54155   1.705  26.611  14.677
83556W        W54156  38.283  33.727  13.752
83557W        W54157  27.543  15.396   3.185
83558W        W54158  13.180  14.197   2.024
83559W        W54159   8.143   5.354   0.381
83560W        W54160  35.294  22.671  13.373
83561W        W54161   3.677  13.023   1.285
83562W        W54162  35.844  24.937  13.159
83563W        W54163  15.036  32.630   2.662
83564W        W54164   9.676  18.276   3.207
83565W        W54165  32.099  25.918  11.635
83566W        W54166   3.353  11.584  14.474
83567W        W54167  20.645  28.744   1.221
83568W        W54168  37.850  17.616  10.412
83569W        W54169  20.844  43.544   2.830
83570W        W54170   7.243   5.323   3.641
83571W        W54171  41.928  18.081   3.722
83572W        W54172  11.288  11.780  11.424
83573W        W54173  31.679  20.503  13.082
83574W        W54174  40.424   3.426  12.100
83575W        W54175   8.612   5.800  14.776
83576W        W54176  28.019  39.452   4.748
83577W        W54177  33.371  21.464   1.925
83578W        W54178  14.744  39.561   4.187
83579W        W54179  25.596  18.676  11.797
83580W        W54180  19.139  20.695  12.018
83581W        W54181  15.995  24.126   4.874
83582W        W54182  20.768  14.641  11.617
83583W        W54183  17.126  29.690   4.922
83584W        W54184  17.087  15.409  11.240
83585W        W54185  30.549   8.169  13.436
83586W        W54186  11.717  16.511   2.224
83587W        W54187  20.459   0.958  13.297
83588W        W54188  19.838   1.720   3.108
83589W        W54189  19.633  10.335   3.910
83590W        W54190   0.982  24.227   0.761
83591W        W54191  16.362   3.184   2.786
83592W        W54192   5.617  26.554  11.395
83593W        W54193  37.627  18.509  10.273
83594W        W54194  43.307  27.231  11.546
83595W        W54195  37.468  13.299   5.064
83596W        W54196  19.084  37.820  12.917
83597W        W54197  24.944  15.159  10.640
83598W        W54198  21.684   6.111   2.771
83599W        W54199   0.862  10.286   3.297
83600W        W54200  17.601  17.582   3.142
83601W        W54201  13.247  15.007  14.029
83602W        W54202  41.870   6.402   1.847
83603W        W54203  23.665  40.252  13.491
83604W        W54204  11.080  27.940   0.408
83605W        W54205  28.995  30.858   2.701
83606W        W54206  21.519  14.839   2.316
83607W        W54207  27.658   4.210   2.013
83608W        W54208  21.548  32.078  12.177
83609W        W54209  37.050   6.254  12.501
83610W        W54210  13.618   1.822   0.418
83611W        W54211   0.062  18.199  11.999
83612W        W54212   9.333  27.836  12.258
83613W        W54213  43.478  14.305  11.827
83614W        W54214  28.604  29.969  12.969
83615W        W54215  44.486  15.178  12.556
83616W        W54216  36.596  40.402  14.981
83617W        W54217   7.857  13.830   3.670
83618W        W54218   0.355  12.765   4.516
83619W        W54219  17.366  28.712  13.922
83620W        W54220  30.444  16.044  12.935
83621W        W54221  32.134  43.011  11.973
83622W        W54222  22.675   1.272  11.979
83623W        W54223  43.313  32.198   3.315
83624W        W54224   5.533   4.546  10.730
83625W        W54225  36.056  14.210   2.232
83626W        W54226   1.104  11.258  12.719
83627W        W54227  41.753  38.055  12.871
83628W        W54228  41.379  40.818   2.822
83629W        W54229  33.378  42.864  13.600
83630W        W54230   0.162  31.065  13.375
83631W        W54231  37.947  28.975  11.475
83632W        W54232   6.038  15.338  13.357
83633W        W54233  20.342  24.028   2.901
83634W        W54234   9.257  28.703   2.540
83635W        W54235  44.314   9.227  11.484
83636W        W54236  10.756  41.601   5.107
83637W        W54237  12.817   2.322   4.076
83638W        W54238   1.036  22.665  13.381
83639W        W54239   9.613  25.524   4.264
83640W        W54240   2.266  23.399   1.734
83641W        W54241   0.466  10.169  10.441
83642W        W54242  22.585  38.957  11.725
83643W        W54243   6.946  26.756   1.216
83644W        W54244   0.463  25.688  13.440
83645W        W54245   0.418  42.710   3.800
83646W        W54246  14.273  11.437  14.354
83647W        W54247  39.823  14.823  14.043
83648W        W54248  31.980  33.134   0.763
83649W        W54249  13.527  28.394   1.974
83650W        W54250   3.765   7.637  13.735
83651W        W54251  40.986  39.499   2.066
83652W        W54252   6.813  36.567  14.945
83653W        W54253  44.130  18.543  14.797
83654W        W54254  20.794   9.917   0.217
83655W        W54255  28.804  41.499   4.607
83656W        W54256  11.431  42.029   3.397
83657W        W54257  32.076   8.722   1.812
83658W        W54258  22.584  27.976   4.208
83659W        W54259  19.133   8.383   0.999
83660W        W54260  14.178  39.993   0.250
83661W        W54261  14.228  27.592   1.944
83662W        W54262   4.803  43.244   3.270
83663W        W54263   8.117   3.122  13.049
83664W        W54264  43.418  13.417  13.489
83665W        W54265  18.712   0.372  13.373
83666W        W54266  24.201  28.561  14.124
83667W        W54267   3.355  25.543  13.422
83668W        W54268  26.042  42.096   2.709
83669W        W54269  34.254  22.496   3.970
83670W        W54270   0.193   0.113  13.541
83671W        W54271   2.245   1.523   4.083
83672W        W54272  12.474  35.115   0.528
83673W        W54273  41.864  26.905  13.438
83674W        W54274  19.339  29.911  14.424
83675W        W54275   4.311  17.280   4.605
83676W        W54276  31.965  24.629  13.627
83677W        W54277  43.812  14.479  14.284
83678W        W54278   8.741   8.802   4.277
83679W        W54279  34.497  18.794   4.966
83680W        W54280  41.529  29.523  14.786
83681W        W54281  17.534  10.878   1.473
83682W        W54282  21.539  37.122   3.315
83683W        W54283   0.870   0.484  12.978
83684W        W54284  24.493   0.281  14.826
83685W        W54285  35.158  29.734  11.243
83686W        W54286  20.965  33.468  10.757
83687W        W54287   1.810  14.652   2.725
83688W        W54288  22.038  24.440   0.389
83689W        W54289  44.377  17.800   3.088
83690W        W54290  26.002  37.091   1.578
83691W        W54291  39.049   9.598  14.989
83692W        W54292  32.531  41.939  11.930
83693W        W54293  41.261  30.378   4.282
83694W        W54294  44.765  32.341   1.419
83695W        W54295   3.372  20.709  14.611
83696W        W54296  16.343   8.641   0.645
83697W        W54297  32.849  13.908   3.664
83698W        W54298  29.650  15.261   2.315
83699W        W54299  37.480  15.312   2.808
83700W        W54300  18.168  42.316   0.485
83701W        W54301  21.322  25.034  13.517
83702W        W54302   7.850  21.810   4.665
83703W        W54303  36.419  41.104   3.929
83704W        W54304  37.354  15.352  10.646
83705W        W54305  27.037  17.210   4.629
83706W        W54306  42.866   3.274   2.845
83707W        W54307  27.153  24.538   0.005
83708W        W54308  21.990   4.458   3.696
83709W        W54309  39.356  11.117  12.961
83710W        W54310  38.960   6.454   1.754
83711W        W54311   0.079  19.484   5.028
83712W        W54312  43.203  15.950   2.341
83713W        W54313  16.238  32.874  13.371
83714W        W54314  10.080  31.552   2.859
83715W        W54315   3.441  27.094   3.790
83716W        W54316  21.506  27.109  13.133
83717W        W54317  25.418  40.599   3.711
83718W        W54318  18.108  21.611  12.675
83719W        W54319  10.316  38.752   2.256
83720W        W54320  18.467  27.204  12.108
83721W        W54321   7.279   0.295  10.660
83722W        W54322  24.223   9.589   2.077
83723W        W54323   7.233  42.302   3.069
83724W        W54324  33.602  25.220   0.834
83725W        W54325   2.193  14.736   1.382
83726W        W54326  32.360   1.970  11.459
83727W        W54327  31.412  31.310   1.369
83728W        W54328  25.600  30.896  11.560
83729W        W54329  22.763  31.160  14.773
83730W        W54330  20.749   6.282   4.288
83731W        W54331  29.521   5.148   4.218
83732W        W54332   3.745  41.338   0.398
83733W        W54333   3.320  39.430  11.625
83734W        W54334  23.624   4.789  13.506
83735W        W54335  40.024  23.458  14.901
83736W        W54336  44.305  28.875   0.942
83737W        W54337  14.639  11.469  12.924
83738W        W54338  25.640  19.333   3.647
83739W        W54339  11.629  43.035  10.240
83740W        W54340  18.208  18.663   0.848
83741W        W54341  28.821   3.214   3.118
83742W        W54342  37.296   8.835  12.926
83743W        W54343  26.975   8.309  13.486
83744W        W54344  35.976  26.597  13.934
83745W        W54345   7.153  36.684  12.458
83746W        W54346  33.894  10.223  14.828
83747W        W54347  34.885  31.967  13.008
83748W        W54348  38.210   3.223  11.611
83749W        W54349  21.799  34.989   1.477
83750W        W54350  16.123  29.049  11.197
83751W        W54351   9.443  34.545   0.282
83752W        W54352  30.588  31.866  11.982
83753W        W54353   8.272  17.751  12.584
83754W        W54354  42.125  25.178   4.225
83755W        W54355   0.308   1.731  13.587
83756W        W54356  13.074  24.108  14.920
83757W        W54357  23.044  26.428  13.863
83758W        W54358  14.419   1.425   0.501
83759W        W54359  23.755  29.014  11.075
83760W        W54360  40.796  23.483  11.995
83761W        W54361  28.323  13.414   5.116
83762W        W54362   7.830  37.966  12.960
83763W        W54363  23.904   0.286  13.540
83764W        W54364  33.450   4.931  11.999
83765W        W54365   3.641  14.283   2.239
83766W        W54366  28.122   3.615  12.538
83767W        W54367  23.444  44.489  11.634
83768W        W54368  10.120  38.893   5.047
83769W        W54369  22.329   6.951   0.398
83770W        W54370  37.084  17.392   2.581
83771W        W54371  22.128  42.922   0.234
83772W        W54372   4.487  28.227  11.067
83773W        W54373   2.649  18.809   4.153
83774W        W54374   2.920  37.112  12.058
83775W        W54375  27.991  36.398  13.952
83776W        W54376  27.020  35.238   3.563
83777W        W54377  28.520   1.983   0.176
83778W        W54378   1.418  31.891   2.612
83779W        W54379  44.027  31.912   3.700
83780W        W54380  36.395  26.243  14.802
83781W        W54381   0.161  26.553  12.689
83782W        W54382  14.379  10.445  12.197
83783W        W54383  28.013  25.990   1.341
83784W        W54384  13.275   6.911  11.131
83785W        W54385  32.170  20.810  10.850
83786W        W54386   0.927   9.141   3.645
83787W        W54387   8.343  13.571   2.279
83788W        W54388  12.054   5.848   0.260
83789W        W54389   2.760  33.216  12.378
83790W        W54390  43.263  32.115   2.339
83791W        W54391  33.951  33.072  13.491
83792W        W54392  22.701  13.126   1.978
83793W        W54393   3.743  29.261  13.113
83794W        W54394  15.737  30.659  12.445
83795W        W54395   5.975  26.664  11.903
83796W        W54396  20.045  16.270   1.391
83797W        W54397  33.970  25.876   4.570
83798W        W54398  26.205  18.576   0.361
83799W        W54399   0.916  30.157   1.812
83800W        W54400  23.751  42.561  11.576
83801W        W54401  15.015   3.818  14.811
83802W        W54402  33.948  11.339   1.795
83803W        W54403  15.026  30.933  11.474
83804W        W54404  22.168  23.133   3.103
83805W        W54405  10.960   0.307  13.216
83806W        W54406  14.001  17.475   4.447
83807W        W54407   4.421  37.158   4.972
83808W        W54408  17.002  19.362  14.385
83809W        W54409  43.628   1.517  13.445
83810W        W54410   9.583  29.497  13.061
83811W        W54411   5.718  15.287  11.536
83812W        W54412  25.249   0.859  12.502
83813W        W54413  12.614  37.663   3.833
83814W        W54414  19.788  39.046  11.163
83815W        W54415  17.733  16.489   0.293
83816W        W54416  42.877   6.653  11.578
83817W        W54417   6.303  43.878   0.346
83818W        W54418  36.599  21.928   4.498
83819W        W54419  42.555  18.579  11.442
83820W        W54420  43.760   8.871  12.608
83821W        W54421  18.473  40.928   4.656
83822W        W54422  31.264  43.978  11.598
83823W        W54423  44.268  39.112  11.713
83824W        W54424  28.564  31.187   2.892
83825W        W54425  22.686  12.151  12.757
83826W        W54426   1.445  18.116   4.342
83827W        W54427  11.601  43.597   2.401
83828W        W54428  38.841  11.509   2.738
83829W        W54429  18.733  11.425  13.041
83830W        W54430  25.119   8.703  14.416
83831W        W54431  27.217  10.444   4.558
83832W        W54432  30.128  24.507   1.598
83833W        W54433  28.075  32.542   0.067
83834W        W54434  18.678  28.942  10.159
83835W        W54435  11.659  11.844  14.432
83836W        W54436   2.343   4.666  12.545
83837W        W54437  28.495  25.739   0.317
83838W        W54438  39.802  40.813   1.194
83839W        W54439  32.339  19.671  11.140
83840W        W54440  30.526   2.790   1.459
83841W        W54441  23.174  42.315  10.741
83842W        W54442  36.379  11.164   3.241
83843W        W54443   2.215  16.427  13.043
83844W        W54444  32.127  40.055  11.641
83845W        W54445  30.513  41.755   2.094
83846W        W54446  41.612  40.194  10.693
83847W        W54447  14.069  34.214  12.600
83848W        W54448  27.520  19.201  14.305
83849W        W54449  43.744  13.309   0.415
83850W        W54450   7.803  43.786  10.807
83851W        W54451  11.286  44.548  10.684
83852W        W54452  30.606  33.780   1.226
83853W        W54453  43.540   2.243  12.805
83854W        W54454  32.516  39.853  14.283
83855W        W54455   3.320  24.522  12.388
83856W        W54456  30.550  13.233  13.434
83857W        W54457  29.391   0.322  11.634
83858W        W54458  35.683  19.496  11.393
83859W        W54459  10.425  23.079  12.005
83860W        W54460  17.716  14.443  10.602
83861W        W54461  13.679  40.969  10.203
83862W        W54462  34.718  29.170  11.987
83863W        W54463  31.312  37.486  12.044
83864W        W54464  39.420   6.844  12.595
83865W        W54465  26.498  19.921   4.884
83866W        W54466   7.063  35.090  11.510
83867W        W54467  39.921  26.573  11.493
83868W        W54468  19.718  20.922  10.003
83869W        W54469  19.942  34.349  10.595
83870W        W54470  33.504  14.688   3.337
83871W        W54471  36.647  20.878  12.471
83872W        W54472  39.859   7.304  14.869
83873W        W54473  37.138  41.250   2.011
83874W        W54474  39.896  31.878  12.985
83875W        W54475   4.340  13.516   0.868
83876W        W54476  25.948  15.728   3.681
83877W        W54477  24.702  30.493   0.382
83878W        W54478  25.300  32.159  14.303
83879W        W54479   4.775  43.157  14.484
83880W        W54480  12.618  37.592  14.305
83881W        W54481  18.018  15.891   1.033
83882W        W54482  41.837   8.765   0.556
83883W        W54483  32.934  10.324   4.760
83884W        W54484  23.855  35.070  12.068
83885W        W54485   4.913  41.221   1.217
83886W        W54486  23.548  39.978   2.139
83887W        W54487  28.600  35.912  11.050
83888W        W54488  32.932  22.483   4.171
83889W        W54489  35.639  18.311   4.605
83890W        W54490  25.224   8.836   3.179
83891W        W54491   4.677   8.496  14.040
83892W        W54492  43.809   8.431  11.723
83893W        W54493  15.097  36.667  12.709
83894W        W54494   4.203  28.628   1.837
83895W        W54495  44.273  32.480   3.666
83896W        W54496  41.628  42.276   4.576
83897W        W54497  32.833  35.669   4.630
83898W        W54498   2.750  16.210  11.010
83899W        W54499  28.036  39.012  10.953
83900W        W54500  30.350  37.944   3.144
83901W        W54501  44.090   3.209  10.781
83902W        W54502  28.700  44.907  12.921
83903W        W54503  16.281   4.148   1.882
83904W        W54504  13.802  13.469  11.940
83905W        W54505  43.829   3.035   3.713
83906W        W54506   3.698  44.988  12.444
83907W        W54507  38.594  12.098  12.044
83908W        W54508   4.915  31.503  10.979
83909W        W54509  13.085  18.071  12.591
83910W        W54510  22.119  36.364   0.369
83911W        W54511  38.855  37.355   0.882
83912W        W54512  28.182   0.067  13.009
83913W        W54513  11.837  13.793   2.421
83914W        W54514  23.071  15.904   2.803
83915W        W54515  19.974  12.169   4.238
83916W        W54516  28.508  24.344  12.813
83917W        W54517  21.748  17.495   0.415
83918W        W54518  30.197  16.169   3.591
83919W        W54519  18.156   8.637   1.809
83920W        W54520  11.522  32.237  10.448
83921W        W54521  38.664   1.819  11.580
83922W        W54522  26.645  17.175   2.004
83923W        W54523  32.998  14.621   1.047
83924W        W54524  11.847  39.407   3.720
83925W        W54525   8.811  18.710   4.018
83926W        W54526  43.271  32.104  14.976
83927W        W54527  34.850  33.896  12.953
83928W        W54528  39.684  14.609   4.198
83929W        W54529   4.921  21.966  14.670
83930W        W54530  12.827  42.438   1.018
83931W        W54531   0.269  36.872   1.693
83932W        W54532  10.878  15.972   0.188
83933W        W54533  37.151  40.483   0.858
83934W        W54534   7.732  10.119   4.675
83935W        W54535  29.517   7.736   5.012
83936W        W54536  30.154  43.971  10.844
83937W        W54537   5.875  33.012  10.755
83938W        W54538   4.911   1.882  12.308
83939W        W54539  42.210  34.326  14.890
83940W        W54540  35.512  30.839   3.587
83941W        W54541   8.303  39.277   2.606
83942W        W54542  22.826  25.442   3.177
83943W        W54543  25.698   8.272   1.835
83944W        W54544   2.994  28.598  12.018
83945W        W54545  16.477  39.947  13.266
83946W        W54546  17.171   7.586   1.639
83947W        W54547  15.114  33.624   2.593
83948W        W54548   9.461  15.626  13.093
83949W        W54549  39.416  25.848   1.908
83950W        W54550  16.637  38.653   4.107
83951W        W54551  31.064  31.608   4.384
83952W        W54552  28.923  21.517  14.021
83953W        W54553  38.303   6.463   3.818
83954W        W54554  14.967   5.907   1.959
83955W        W54555  27.773   3.181   0.376
83956W        W54556  38.855  23.619   4.451
83957W        W54557  35.885  10.106   1.257
83958W        W54558  25.550   8.443  13.236
83959W        W54559   4.405  13.959   4.035
83960W        W54560   1.988  36.482   1.382
83961W        W54561  34.605  31.749   1.718
83962W        W54562  31.315  41.405  11.714
83963W        W54563  17.355  27.490  12.543
83964W        W54564  39.432  43.548  14.526
83965W        W54565  36.307   7.812   2.913
83966W        W54566  38.613   2.944   2.664
83967W        W54567  36.956   1.441  11.164
83968W        W54568  35.456   8.688   3.723
83969W        W54569  34.532  38.894  14.029
83970W        W54570  19.741   1.137   3.331
83971W        W54571  41.274  32.162   1.798
83972W        W54572  16.741  28.570   3.339
83973W        W54573  35.981  32.120  14.977
83974W        W54574  19.363  42.887   4.542
83975W        W54575  37.600   2.423  12.784
83976W        W54576  16.980   4.131   3.669
83977W        W54577  43.420  44.245   0.838
83978W        W54578  22.711  25.968  10.647
83979W        W54579  40.887   6.384   3.809
83980W        W54580   0.307  28.165   3.883
83981W        W54581  39.952   9.411  13.909
83982W        W54582  13.947  39.895   1.650
83983W        W54583  21.149  36.788  13.981
83984W        W54584  37.641  21.962   3.700
83985W        W54585  36.679   9.627  14.819
83986W        W54586  14.747  18.291   2.313
83987W        W54587  37.736  15.274  14.976
83988W        W54588  41.593  15.914   0.500
83989W        W54589   2.884  33.961  13.116
83990W        W54590  32.385  14.358  11.007
83991W        W54591  28.553   3.967  11.650
83992W        W54592  18.182   5.258  13.999
83993W        W54593   9.357   8.816  10.684
83994W        W54594  37.272   5.015   2.319
83995W        W54595  17.182  17.784  14.435
83996W        W54596   7.914  11.551  14.724
83997W        W54597  13.105  38.583   0.831
83998W        W54598  29.879  29.395   3.739
83999W        W54599  37.381  26.486  11.483
84000W        W54600   6.939   0.240   3.884
84001W        W54601  21.383  17.723   2.198
84002W        W54602  35.976   5.675  14.455
84003W        W54603  19.533  10.458  13.048
84004W        W54604  18.988  13.685  14.534
84005W        W54605  25.215  41.446   4.682
84006W        W54606  35.348   7.935  14.420
84007W        W54607  22.603   2.935   2.518
84008W        W54608  28.671  18.584   1.687
84009W        W54609  34.140  42.516  11.638
84010W        W54610  20.793  41.427  10.822
84011W        W54611  33.305  43.677  11.584
84012W        W54612  10.611   1.829  14.909
84013W        W54613   8.162  34.037  11.140
84014W        W54614  16.794  43.703   1.392
84015W        W54615  16.713   1.059   2.194
84016W        W54616   8.711  15.319  13.937
84017W        W54617  16.974  18.135  14.932
84018W        W54618  38.982  10.464  14.579
84019W        W54619   4.669  26.512  11.168
84020W        W54620  11.956  36.191   2.225
84021W        W54621   6.204  40.080  10.807
84022W        W54622  23.664   0.141   2.254
84023W        W54623  34.430  40.466  11.197
84024W        W54624  30.049  27.511  13.678
84025W        W54625   9.301  14.094   4.912
84026W        W54626   4.225   7.872  12.926
84027W        W54627   6.472  20.008  12.049
84028W        W54628  43.230  41.845  13.442
84029W        W54629   1.276   5.807   2.834
84030W        W54630   1.446  17.752   3.135
84031W        W54631  26.126  39.318  14.687
84032W        W54632   9.864   1.061   2.872
84033W        W54633  12.991  32.158  10.346
84034W        W54634   9.291  22.233  11.949
84035W        W54635   7.363  22.781  13.569
84036W        W54636   4.485   2.157  12.007
84037W        W54637   3.365  16.133  13.899
84038W        W54638  22.179  14.114   2.204
84039W        W54639  22.055  15.540   4.568
84040W        W54640  34.078  37.388  12.834
84041W        W54641  28.570   3.285  12.404
84042W        W54642  38.785  35.048   0.911
84043W        W54643  11.750  40.609  13.004
84044W        W54644  15.662   9.339  14.725
84045W        W54645   0.755   3.230   5.041
84046W        W54646   6.654   7.395   3.359
84047W        W54647  34.627  18.083  10.718
84048W        W54648  37.035  18.222   2.136
84049W        W54649  25.914  27.770  13.374
84050W        W54650  13.111  13.391  11.724
84051W        W54651  40.882   5.983   2.850
84052W        W54652  25.138  40.767  13.976
84053W        W54653  11.681  12.252   3.182
84054W        W54654  34.043  26.696  14.495
84055W        W54655   5.399  12.809   0.849
84056W        W54656  38.854  20.733  11.352
84057W        W54657  29.679  18.240   1.714
84058W        W54658  39.993  24.569   1.333
84059W        W54659  22.334  22.716   3.353
84060W        W54660   7.936  31.883   3.789
84061W        W54661  33.315  13.941   3.865
84062W        W54662  32.058  40.920   3.491
84063W        W54663  13.462  40.320   3.547
84064W        W54664  21.984  33.481   1.811
84065W        W54665  27.439  28.189   4.254
84066W        W54666  27.321  35.055  12.285
84067W        W54667  27.633  34.089   1.475
84068W        W54668  19.613  22.979   1.435
84069W        W54669  36.007  30.735  11.102
84070W        W54670  37.412   6.468   1.859
84071W        W54671   9.605   2.779   3.227
84072W        W54672  41.913  35.348  13.835
84073W        W54673   2.237   2.514   1.057
84074W        W54674   1.963  13.393  11.494
84075W        W54675  15.434   8.629  10.665
84076W        W54676  31.688  42.353   1.876
84077W        W54677  14.238  43.242  10.702
84078W        W54678  13.565   5.704   1.102
84079W        W54679  23.830  22.012  13.253
84080W        W54680  24.531  34.067  12.440
84081W        W54681   2.639  39.231  12.905
84082W        W54682  12.762  41.538   3.261
84083W        W54683  35.147  10.747  13.933
84084W        W54684  21.619  26.564   3.268
84085W        W54685   2.463  44.870   0.395
84086W        W54686  25.501  36.092  10.736
84087W        W54687   8.783  12.761  11.876
84088W        W54688  37.762   4.926  12.503
84089W        W54689   4.285  18.613   1.470
84090W        W54690  16.088  42.467   3.843
84091W        W54691  20.674  37.913  13.481
84092W        W54692   9.407  21.379   1.796
84093W        W54693  42.902  36.515   2.161
84094W        W54694  39.591  25.164  13.976
84095W        W54695  44.978  12.811  13.364
84096W        W54696  21.228  18.576  13.743
84097W        W54697  35.093  34.942   1.320
84098W        W54698  12.700   9.776   1.299
84099W        W54699  41.170  13.744  11.146
84100W        W54700  13.721  44.308   0.250
84101W        W54701  17.252  41.720  13.478
84102W        W54702  31.452  14.841  13.511
84103W        W54703   5.672  37.768  14.985
84104W        W54704  32.798  39.094   5.009
84105W        W54705   1.898   3.536  11.996
84106W        W54706  31.558  26.695   1.923
84107W        W54707   3.284  17.068   4.712
84108W        W54708  38.303  13.162   0.987
84109W        W54709   5.619  42.558   2.317
84110W        W54710  29.203  24.076   4.892
84111W        W54711  38.751  17.744   2.337
84112W        W54712  12.455  11.164  12.633
84113W        W54713  10.218  29.697  10.263
84114W        W54714   5.294  37.560  12.970
84115W        W54715  18.845  34.939   4.824
84116W        W54716  24.503   4.311   2.368
84117W        W54717  28.467  41.516  14.863
84118W        W54718  27.439  32.938  12.512
84119W        W54719  12.344  19.280   3.634
84120W        W54720  13.803  31.429   0.520
84121W        W54721  15.206  26.869   1.837
84122W        W54722  13.486  11.455   5.134
84123W        W54723  37.873  29.620   1.356
84124W        W54724  21.213  10.911   1.553
84125W        W54725  26.632  32.817  10.620
84126W        W54726  32.672   3.790   4.915
84127W        W54727  22.214   6.164   3.211
84128W        W54728  25.684  43.405   4.727
84129W        W54729  32.454  18.406  13.156
84130W        W54730  19.722  11.700   4.360
84131W        W54731  41.001  44.448   4.473
84132W        W54732  36.536  13.678   4.673
84133W        W54733   8.931  39.486  12.670
84134W        W54734  38.841  44.913   1.666
84135W        W54735  27.878  41.393   2.959
84136W        W54736  10.147  42.648  10.237
84137W        W54737  16.730  42.070   2.203
84138W        W54738   8.434   6.351   1.855
84139W        W54739   5.394   8.074   3.236
84140W        W54740  20.760  26.023  12.121
84141W        W54741  19.989  17.550   0.178
84142W        W54742  31.547  44.129   3.724
84143W        W54743  34.353  23.578   4.484
84144W        W54744  23.150  35.308   3.592
84145W        W54745  39.870  22.205  10.744
84146W        W54746  29.607  37.597   1.692
84147W        W54747  41.801   5.279   2.209
84148W        W54748  13.170  42.770   0.832
84149W        W54749   0.055  16.816   2.730
84150W        W54750   8.749  28.384  14.455
84151W        W54751  43.942  12.662  11.946
84152W        W54752   2.252   4.965   3.249
84153W        W54753   9.774  36.664   1.420
84154W        W54754  16.026  26.285   4.478
84155W        W54755  27.118  19.725   2.356
84156W        W54756  21.806  20.573  11.205
84157W        W54757  43.507  12.620   0.243
84158W        W54758  36.139  24.703  13.888
84159W        W54759   5.871  31.130  11.204
84160W        W54760  38.390   4.801   4.169
84161W        W54761  32.418  38.920   2.345
84162W        W54762  17.433  27.595   1.694
84163W        W54763  29.703  37.862  11.189
84164W        W54764  18.607  13.093  10.742
84165W        W54765  12.648   3.843   4.624
84166W        W54766  38.118   7.398   1.190
84167W        W54767  10.327  39.933   1.643
84168W        W54768  43.799  40.527   4.025
84169W        W54769  19.731  24.622   4.623
84170W        W54770  40.740  38.179   4.660
84171W        W54771  13.246  26.621   0.916
84172W        W54772  14.853  10.148  13.562
84173W        W54773  24.685  35.019  13.036
84174W        W54774  29.493  41.286   1.955
84175W        W54775  16.752  19.137   4.641
84176W        W54776  40.928  35.038   1.409
84177W        W54777  23.983  20.521   0.550
84178W        W54778  30.591  31.192   3.703
84179W        W54779   4.512   8.593  14.514
84180W        W54780  39.544  26.399   4.525
84181W        W54781  44.744  18.607   2.812
84182W        W54782  36.854  16.849  11.035
84183W        W54783  43.438  33.463  13.175
84184W        W54784  21.274  12.358  10.440
84185W        W54785   6.387  33.681   1.822
84186W        W54786  10.672   4.164  11.945
84187W        W54787  42.359  33.398   2.718
84188W        W54788  14.825  10.738   2.639
84189W        W54789  30.436  23.596   0.749
84190W        W54790  19.086  22.394   0.890
84191W        W54791   9.277  43.505   4.731
84192W        W54792  15.567  11.875   1.182
84193W        W54793  11.127  17.741   0.890
84194W        W54794  11.110  13.728   1.381
84195W        W54795  34.836  10.929  10.951
84196W        W54796  20.584  36.767   0.886
84197W        W54797  23.084  32.616   0.312
84198W        W54798  25.704  23.252   1.396
84199W        W54799  28.418   0.822   1.368
84200W        W54800  29.467  43.962   4.654
84201W        W54801  38.405  18.098  14.340
84202W        W54802  43.268  38.889   1.845
84203W        W54803  17.598  14.618  11.953
84204W        W54804  13.868  23.374  12.480
84205W        W54805  43.985  39.992   4.708
84206W        W54806  38.083  41.514   3.648
84207W        W54807  32.043  12.764  11.903
84208W        W54808  14.728  34.881  14.805
84209W        W54809  29.650  44.512   4.024
84210W        W54810  29.661  15.282  13.407
84211W        W54811   9.003  10.275  11.834
84212W        W54812   3.433   6.994  14.290
84213W        W54813  29.754   1.038   0.461
84214W        W54814  28.150   7.207  13.093
84215W        W54815   6.754  18.982  11.892
84216W        W54816  23.927  30.552  14.918
84217W        W54817  39.709   2.898   3.359
84218W        W54818  16.603   0.972  12.705
84219W        W54819  14.393  18.866  12.951
84220W        W54820   8.598  34.841  12.411
84221W        W54821  23.600   0.082  10.588
84222W        W54822   0.211  20.866  10.610
84223W        W54823  17.772  35.345  14.806
84224W        W54824  22.634  32.248   0.839
84225W        W54825  19.195  29.410  14.450
84226W        W54826   1.499  38.845   2.136
84227W        W54827  34.867  19.632  13.238
84228W        W54828  14.480  40.151   3.689
84229W        W54829  33.104  29.753   4.914
84230W        W54830  26.194  28.003   0.989
84231W        W54831  39.998  44.550   2.862
84232W        W54832  31.990  35.603   2.701
84233W        W54833  21.075  38.061   0.882
84234W        W54834   6.212   0.933   0.865
84235W        W54835  41.747  15.707   0.953
84236W        W54836  34.836  37.741  11.450
84237W        W54837  28.216  32.940   3.174
84238W        W54838  27.257   8.280   0.049
84239W        W54839  31.044  19.458   4.511
84240W        W54840  16.528  18.073   2.838
84241W        W54841  30.391  33.201  14.037
84242W        W54842  15.587  15.038  14.015
84243W        W54843   2.271   8.889   3.159
84244W        W54844   5.337   4.998  10.593
84245W        W54845   6.936  43.534   4.140
84246W        W54846  41.064   9.606  13.439
84247W        W54847  13.400   6.286  10.314
84248W        W54848   5.137  25.219  12.645
84249W        W54849  23.908  41.448  13.896
84250W        W54850  37.408  22.500  11.516
84251W        W54851   5.813  42.544   3.893
84252W        W54852  17.713  18.255   4.110
84253W        W54853  15.347  25.667  13.896
84254W        W54854  41.737  12.143   3.387
84255W        W54855   6.865  32.108   2.273
84256W        W54856   2.986  13.224  13.987
84257W        W54857   2.990  28.973  13.445
84258W        W54858  38.482  25.157   5.110
84259W        W54859  18.543  42.270   1.358
84260W        W54860  33.514  34.302  14.531
84261W        W54861   9.048   8.641  10.303
84262W        W54862  36.261  27.211   0.806
84263W        W54863  44.841  12.925  14.821
84264W        W54864   4.950   0.026  13.473
84265W        W54865   7.741  15.305   0.421
84266W        W54866  43.476  12.803   3.255
84267W        W54867  37.908  40.842  11.725
84268W        W54868   1.247  18.210   3.875
84269W        W54869   0.080   6.306   0.394
84270W        W54870   3.300  40.127   4.019
84271W        W54871  24.506  31.271  13.654
84272W        W54872  41.930  35.618   3.207
84273W        W54873   8.845  21.341  13.870
84274W        W54874   2.845  29.469  10.389
84275W        W54875  23.323   8.186  11.980
84276W        W54876  15.382  17.115  14.451
84277W        W54877  27.088  11.655   2.681
84278W        W54878  24.665   2.327   4.849
84279W        W54879  13.758  22.598  11.646
84280W        W54880  21.131  31.736  12.141
84281W        W54881  41.073  33.410  10.767
84282W        W54882  13.559  40.489   2.295
84283W        W54883  13.351   6.295  11.671
84284W        W54884   0.319   3.043   2.287
84285W        W54885   3.200  36.011   1.581
84286W        W54886   1.727   5.268   3.558
84287W        W54887  16.344  38.599   1.699
84288W        W54888  19.810  24.120   2.854
84289W        W54889   1.992   1.988   4.151
84290W        W54890  24.574  21.577   2.250
84291W        W54891  30.169   9.460   3.520
84292W        W54892  36.451   8.141   0.785
84293W        W54893   8.810  41.970  12.522
84294W        W54894   1.427  23.274   2.734
84295W        W54895  17.508  24.283  13.935
84296W        W54896  28.621  43.952   4.689
84297W        W54897   6.674  31.640  14.811
84298W        W54898   1.761  12.824   2.940
84299W        W54899  22.462  27.055   4.243
84300W        W54900   1.313  21.678  12.957
84301W        W54901  11.168  16.364   1.329
84302W        W54902   7.791   5.193   3.598
84303W        W54903  32.048  17.538   4.580
84304W        W54904  36.445   7.921   0.302
84305W        W54905  42.423  26.219  12.222
84306W        W54906  41.437  43.681  11.181
84307W        W54907  23.774  15.270  13.429
84308W        W54908   0.835  32.904   4.842
84309W        W54909  11.380  26.286  13.941
84310W        W54910   0.760  31.844  14.375
84311W        W54911  40.381  33.705  13.518
84312W        W54912  39.948  34.119   3.635
84313W        W54913  38.356  20.559  14.928
84314W        W54914  22.580  11.354  13.825
84315W        W54915  44.489   3.608   0.941
84316W        W54916  32.334  37.523  11.638
84317W        W54917   8.258  11.866   4.829
84318W        W54918  15.095  29.247   1.453
84319W        W54919   7.278  31.468   4.105
84320W        W54920  23.137   9.436  12.989
84321W        W54921  16.887   2.410  10.745
84322W        W54922  15.739  38.425  10.439
84323W        W54923  15.178  44.253  13.121
84324W        W54924   7.023  21.157  14.716
84325W        W54925  11.087  38.864   1.156
84326W        W54926  26.616  35.900  13.420
84327W        W54927   1.988  15.122  14.802
84328W        W54928  10.046  34.081   3.775
84329W        W54929  38.397  44.661   1.691
84330W        W54930  44.777   0.220   4.109
84331W        W54931  37.045  24.784   2.158
84332W        W54932   2.798   3.398   4.185
84333W        W54933  30.092  23.604   4.560
84334W        W54934  33.382  36.801   2.405
84335W        W54935  38.110  40.870  13.701
84336W        W54936  35.878  34.571  13.038
84337W        W54937  28.463  13.924  14.936
84338W        W54938  26.219  39.065   1.993
84339W        W54939  25.577  10.046  12.901
84340W        W54940  38.264  28.775   0.242
84341W        W54941  22.685  39.387   2.842
84342W        W54942  20.489  30.055  12.543
84343W        W54943  22.674   0.955   0.555
84344W        W54944   3.413   9.709   2.497
84345W        W54945   8.505  13.366   4.521
84346W        W54946  16.980  37.928  13.369
84347W        W54947  11.892   0.426   1.824
84348W        W54948  39.469  41.573  11.664
84349W        W54949  41.807  26.285   4.415
84350W        W54950   0.976  37.657   3.599
84351W        W54951   6.351  28.042  11.266
84352W        W54952   1.483  35.932   3.167
84353W        W54953  28.419   1.507   0.925
84354W        W54954  30.039  37.072  13.865
84355W        W54955  28.644  44.043  12.917
84356W        W54956  28.208  13.128  12.900
84357W        W54957  38.422  25.970  14.107
84358W        W54958  10.074  18.193  14.259
84359W        W54959  39.075  33.184   3.302
84360W        W54960  35.941  24.106  11.981
84361W        W54961   6.490  16.313   1.793
84362W        W54962  23.953  12.104   4.011
84363W        W54963  32.460   7.608  11.164
84364W        W54964  26.770  42.724  13.380
84365W        W54965  10.693   1.840  11.180
84366W        W54966  42.370  40.897   0.980
84367W        W54967   4.354  16.343   3.658
84368W        W54968   5.740  25.985   3.185
84369W        W54969  36.956   0.085  11.722
84370W        W54970  25.947  42.891  14.847
84371W        W54971  22.307   8.757  13.939
84372W        W54972  18.992  39.557  13.420
84373W        W54973  21.402  44.839   1.678
84374W        W54974   3.785  44.562   4.200
84375W        W54975  21.447  32.105   2.662
84376W        W54976  14.821  15.671  10.281
84377W        W54977  10.194  30.292   0.622
84378W        W54978   0.971  20.587  14.512
84379W        W54979  23.210   7.592   3.691
84380W        W54980   7.304  17.123   0.362
84381W        W54981   8.908  16.250   4.790
84382W        W54982  32.164   2.463  10.753
84383W        W54983  23.981  10.188  13.862
84384W        W54984  32.726  11.826   2.186
84385W        W54985  17.010  39.987  11.080
84386W        W54986  32.945  27.927   4.658
84387W        W54987  11.396  25.135  10.792
84388W        W54988  16.630   9.132  13.394
84389W        W54989   6.347  25.724  12.267
84390W        W54990  28.959   3.908  11.959
84391W        W54991   5.802   8.430  12.192
84392W        W54992  15.633  30.037  13.621
84393W        W54993  20.089  14.333  12.159
84394W        W54994  12.192  10.225   1.360
84395W        W54995   2.299  11.810   2.446
84396W        W54996  33.599  40.970  12.998
84397W        W54997  42.943  22.260  13.133
84398W        W54998  18.556  14.799  13.782
84399W        W54999  41.948  31.849   2.244
84400W        W55000  31.432   0.054   1.665
84401W        W55001  13.747  10.101   2.074
84402W        W55002   7.748   6.053  13.847
84403W        W55003   3.932  40.989  10.226
84404W        W55004  40.797   9.937   1.763
84405W        W55005  44.263  16.122  12.976
84406W        W55006   5.739  30.427  14.355
84407W        W55007  33.947  19.576  12.806
84408W        W55008  37.003  36.047  11.149
84409W        W55009   7.203  42.825   3.104
84410W        W55010  36.547  31.978  12.428
84411W        W55011   1.446  29.304  14.919
84412W        W55012   0.768  36.194   0.985
84413W        W55013  42.286  36.322  11.584
84414W        W55014  39.385  12.274   2.689
84415W        W55015  15.850  10.261   4.553
84416W        W55016  18.620  35.077   4.062
84417W        W55017   7.319   8.148   3.149
84418W        W55018   2.446  17.180  12.667
84419W        W55019  33.086  11.711   4.513
84420W        W55020   8.853   0.869  11.505
84421W        W55021  22.555   9.509   5.487
84422W        W55022   2.329  26.415   2.714
84423W        W55023  10.428   1.732  10.761
84424W        W55024  23.780   1.912  11.172
84425W        W55025  16.685  44.689  12.643
84426W        W55026  10.901  42.245   1.197
84427W        W55027  29.616   1.248  11.690
84428W        W55028  22.262  38.125   1.067
84429W        W55029  31.018  29.506  10.323
84430W        W55030  37.825   9.443  14.322
84431W        W55031  32.422  30.555  14.422
84432W        W55032  32.732   7.073  12.950
84433W        W55033   6.360  23.809   1.034
84434W        W55034   9.865  33.479   2.935
84435W        W55035  34.294  28.572  13.302
84436W        W55036  38.859  40.343   0.775
84437W        W55037  24.197  33.531   0.976
84438W        W55038  37.873  25.047  13.944
84439W        W55039   8.777  20.657   4.356
84440W        W55040   3.769  38.303   3.644
84441W        W55041   4.994  16.180   1.181
84442W        W55042   5.848  29.625   4.652
84443W        W55043  16.745  30.461  11.940
84444W        W55044   2.150  10.851  14.908
84445W        W55045  38.815  23.127  10.724
84446W        W55046  18.605  35.897  12.424
84447W        W55047  33.616  14.831  10.719
84448W        W55048  41.978  33.928  11.908
84449W        W55049  24.062   5.157  13.781
84450W        W55050  43.704  41.402   2.637
84451W        W55051  28.457  33.203   1.193
84452W        W55052   9.783  31.744  10.944
84453W        W55053  38.367   2.554  14.916
84454W        W55054   0.223   4.315  12.439
84455W        W55055  40.061  33.134   1.847
84456W        W55056  16.017  12.647  14.124
84457W        W55057  42.510   9.356   2.316
84458W        W55058   0.785  39.429  14.358
84459W        W55059  13.810   3.428   4.356
84460W        W55060  24.539  16.362  11.478
84461W        W55061  36.717  16.687  12.890
84462W        W55062  20.732  25.896  13.489
84463W        W55063   8.152   9.547   4.139
84464W        W55064  42.796  20.136   0.428
84465W        W55065  37.336   8.479   0.412
84466W        W55066  43.960   6.456  13.384
84467W        W55067  26.597   1.529  11.567
84468W        W55068  40.596   0.972  11.462
84469W        W55069  24.600   7.738  11.126
84470W        W55070   2.453  24.787   0.721
84471W        W55071   7.093  32.188  14.021
84472W        W55072  18.810  37.443   5.183
84473W        W55073  36.396  27.551   2.346
84474W        W55074  28.793   2.649  11.121
84475W        W55075  14.339  22.248   0.311
84476W        W55076  24.768  26.960  14.350
84477W        W55077  28.420  42.791   4.714
84478W        W55078  44.998  12.367   3.530
84479W        W55079  18.757  27.446  11.638
84480W        W55080  29.889  33.025  13.997
84481W        W55081  17.902  41.387  10.817
84482W        W55082  33.564  30.550   2.313
84483W        W55083   6.834   9.576   1.899
84484W        W55084  29.124  36.000  13.823
84485W        W55085   2.390  19.890   4.819
84486W        W55086  21.258  33.094  14.831
84487W        W55087  33.308  23.702   3.045
84488W        W55088  23.331   4.832  11.561
84489W        W55089  23.391  35.899  13.411
84490W        W55090  26.020  10.303  13.056
84491W        W55091  41.472  32.952  14.915
84492W        W55092  43.690  21.815  10.767
84493W        W55093  43.757  19.927  11.982
84494W        W55094  22.452  31.570   3.264
84495W        W55095   3.688  30.183   2.856
84496W        W55096   1.786  36.573  11.643
84497W        W55097  11.896  43.500  10.303
84498W        W55098  33.670  42.425  13.572
84499W        W55099  24.629   2.322   4.294
84500W        W55100   5.608   7.752   4.015
84501W        W55101  40.060  42.811   1.187
84502W        W55102  16.018   5.835   3.602
84503W        W55103  11.628  22.211  13.704
84504W        W55104  44.194  39.711  14.397
84505W        W55105   2.164  26.772   4.125
84506W        W55106  20.688   0.003   0.439
84507W        W55107  17.198  24.571   3.163
84508W        W55108   8.701  38.661  10.863
84509W        W55109  37.879   9.674   3.421
84510W        W55110  12.420  29.705  11.641
84511W        W55111   8.852   6.236   5.030
84512W        W55112   9.801  36.574   2.332
84513W        W55113  39.817  10.328  11.500
84514W        W55114  11.271  35.126  10.637
84515W        W55115  37.333  34.464   0.019
84516W        W55116  19.034   0.704  13.012
84517W        W55117  36.852  23.251  13.148
84518W        W55118  33.527  41.943  13.465
84519W        W55119   8.127  29.623   0.251
84520W        W55120  20.768   3.378  12.976
84521W        W55121  28.657  16.160  11.719
84522W        W55122   4.489   5.249   4.249
84523W        W55123   3.793  34.624   1.026
84524W        W55124  40.567  28.038  12.692
84525W        W55125  17.008  35.752   0.979
84526W        W55126  12.865   3.699   1.425
84527W        W55127  33.910  23.718   4.724
84528W        W55128  17.856  26.590  12.452
84529W        W55129  37.927  21.518   0.803
84530W        W55130  30.426  15.626   2.783
84531W        W55131  34.907  31.390   0.343
84532W        W55132  14.758  19.852   1.750
84533W        W55133  43.235  41.119   3.791
84534W        W55134   4.351  38.905  14.154
84535W        W55135   6.515   2.311   1.314
84536W        W55136  25.944   1.492   3.801
84537W        W55137   7.540  43.832   3.506
84538W        W55138  24.772  19.528   3.363
84539W        W55139  25.787  42.251   0.472
84540W        W55140   2.021  38.342  11.053
84541W        W55141  18.639   5.793   2.855
84542W        W55142   4.954  42.149  14.475
84543W        W55143  41.184  17.975  14.366
84544W        W55144  13.139  28.645  10.602
84545W        W55145   4.732   5.121  11.644
84546W        W55146   8.702  33.070  13.535
84547W        W55147   3.653  16.679   4.475
84548W        W55148  33.708   6.398   0.940
84549W        W55149   9.621  37.394   0.884
84550W        W55150  41.540   2.915  11.030
84551W        W55151  31.501  16.000   4.726
84552W        W55152  12.637   6.345   4.894
84553W        W55153  44.418  21.628   3.716
84554W        W55154  26.542  17.813  12.662
84555W        W55155   8.163  21.783   4.201
84556W        W55156  15.733  14.164   1.267
84557W        W55157  22.635  38.821   4.094
84558W        W55158  35.790   1.158   0.337
84559W        W55159   8.301  43.305   1.236
84560W        W55160  25.918  16.447  12.043
84561W        W55161  44.250   6.583  13.872
84562W        W55162  26.454  29.820  12.002
84563W        W55163  17.119   1.307   4.930
84564W        W55164  29.342  30.516   4.524
84565W        W55165  23.936  13.814  14.884
84566W        W55166  28.415  34.027  12.808
84567W        W55167  21.845  13.595  14.172
84568W        W55168   5.033  33.216  10.453
84569W        W55169  27.813  15.067  11.317
84570W        W55170  27.416   2.857  10.413
84571W        W55171  33.646  11.366  10.112
84572W        W55172  38.308  14.536   3.319
84573W        W55173  33.656   2.720   4.155
84574W        W55174   9.312   6.429   0.284
84575W        W55175  19.118  31.382  12.648
84576W        W55176   3.605   8.226  12.837
84577W        W55177   4.950   8.409   0.959
84578W        W55178  36.568  36.632   2.861
84579W        W55179  38.089  18.061   2.726
84580W        W55180  32.944  21.163  12.425
84581W        W55181  10.448  42.127  14.441
84582W        W55182   7.692  39.733  12.361
84583W        W55183  14.661  37.161   4.911
84584W        W55184  14.657  33.689  11.228
84585W        W55185  12.577  33.855   2.321
84586W        W55186  12.074  22.689  10.591
84587W        W55187  42.778  12.652  13.848
84588W        W55188  30.051  41.984   2.106
84589W        W55189   0.433  27.619  11.837
84590W        W55190  11.629  24.145   2.928
84591W        W55191   5.292   9.600   2.378
84592W        W55192  31.892   9.169   1.207
84593W        W55193  44.675   1.860   3.586
84594W        W55194  20.791  12.173   3.869
84595W        W55195   3.462   1.481  11.559
84596W        W55196   8.887  37.899  14.335
84597W        W55197  18.743  16.521  13.972
84598W        W55198  27.432   7.165  14.366
84599W        W55199  40.186  14.653   0.756
84600W        W55200  14.140  32.427   4.221
84601W        W55201  28.613  31.673   2.609
84602W        W55202  33.465  20.063   4.484
84603W        W55203   7.662  44.797   1.826
84604W        W55204  11.978  28.090   4.989
84605W        W55205  21.982  41.878  12.494
84606W        W55206  16.647  39.563   2.903
84607W        W55207   3.901   4.199   2.670
84608W        W55208   5.634   5.352   0.758
84609W        W55209   2.757   9.933   3.794
84610W        W55210  42.467  39.516  14.548
84611W        W55211  26.151  21.974   4.693
84612W        W55212  32.343  35.869   4.703
84613W        W55213  27.084   2.595  10.741
84614W        W55214  22.303  13.828   1.315
84615W        W55215   2.544  15.030   4.597
84616W        W55216   9.268  41.621   1.318
84617W        W55217   9.354  27.171  14.486
84618W        W55218  36.092  40.371  13.263
84619W        W55219  17.606  14.742  13.874
84620W        W55220  36.253  21.203  12.462
84621W        W55221  34.938  15.576   4.073
84622W        W55222  39.877  25.249   4.248
84623W        W55223  28.657  24.318  11.407
84624W        W55224  22.512   4.718   3.196
84625W        W55225  11.898   3.946   1.675
84626W        W55226   2.288  37.293   3.135
84627W        W55227   0.952  28.952   0.959
84628W        W55228   4.774  32.447   2.854
84629W        W55229  23.119  19.123   2.187
84630W        W55230  42.171  38.862   0.803
84631W        W55231  14.791  14.061   1.288
84632W        W55232  28.808  21.702  14.982
84633W        W55233  41.484  41.809   2.657
84634W        W55234  28.873   1.200  14.348
84635W        W55235   1.412   5.781  11.658
84636W        W55236  10.574   8.752  14.282
84637W        W55237  33.685   0.198  14.254
84638W        W55238  24.567  32.290  13.811
84639W        W55239  26.191  38.804  14.838
84640W        W55240  11.773  30.569   5.181
84641W        W55241  28.865   9.577   2.354
84642W        W55242  28.886  39.387  11.638
84643W        W55243  11.731  23.804  12.979
84644W        W55244  17.090  20.131  13.331
84645W        W55245   0.975  28.017  14.942
84646W        W55246  37.063  31.157  13.638
84647W        W55247  36.560   5.477   1.255
84648W        W55248  34.577  36.853   3.129
84649W        W55249   2.258  12.897   0.288
84650W        W55250  28.571  13.819   4.883
84651W        W55251   4.673  10.512   0.297
84652W        W55252  17.143   7.960  14.605
84653W        W55253  27.703  22.832  14.575
84654W        W55254   3.994   6.536  13.715
84655W        W55255   6.590  17.235   0.886
84656W        W55256  14.921  15.827   2.325
84657W        W55257  17.230   5.742   1.179
84658W        W55258  14.345  27.282   0.308
84659W        W55259  32.553  38.870  10.861
84660W        W55260   1.046  40.135   1.855
84661W        W55261  28.043  35.578   3.672
84662W        W55262  20.005  31.702  12.537
84663W        W55263  13.039  26.904  13.796
84664W        W55264  11.747  27.812  12.587
84665W        W55265  37.587  39.537   0.760
84666W        W55266  15.730  41.298  10.804
84667W        W55267  10.905  28.154   3.305
84668W        W55268   1.487  44.978  11.604
84669W        W55269   9.643   1.734  11.107
84670W        W55270  36.197  19.766  13.526
84671W        W55271  26.232   2.247  12.936
84672W        W55272  21.464  11.759  11.705
84673W        W55273  18.068   9.301  12.939
84674W        W55274   2.521  16.803   3.242
84675W        W55275  26.222  41.311   0.245
84676W        W55276   3.134   6.177  13.982
84677W        W55277  36.521   2.161   0.420
84678W        W55278  30.955  12.381  11.183
84679W        W55279   3.887  24.000   2.679
84680W        W55280   4.704  35.046  12.871
84681W        W55281  37.591  32.282   3.599
84682W        W55282  36.433  32.695  12.001
84683W        W55283  15.612   5.316  13.476
84684W        W55284   8.695  19.161  14.331
84685W        W55285  30.818  15.677   3.742
84686W        W55286   5.283  18.799   0.051
84687W        W55287  35.972  38.562  12.123
84688W        W55288   6.803  13.839   3.731
84689W        W55289   9.977  15.872   5.051
84690W        W55290   9.404  22.773  13.443
84691W        W55291  14.195   6.220   2.516
84692W        W55292  30.613  13.882  14.001
84693W        W55293  26.256  39.814  14.852
84694W        W55294   9.162  34.621   4.533
84695W        W55295  28.502  37.603   4.202
84696W        W55296  35.520  21.805   1.357
84697W        W55297  43.508  17.775   3.431
84698W        W55298  18.548  15.115   3.179
84699W        W55299  29.244  12.831   2.789
84700W        W55300   3.241  42.179  14.873
84701W        W55301  25.739  18.328   1.647
84702W        W55302  26.904  42.473  12.053
84703W        W55303  34.142  28.565   3.702
84704W        W55304  31.597  28.009  14.911
84705W        W55305  19.500  43.926   0.905
84706W        W55306  22.175  38.401   2.826
84707W        W55307   7.332  31.709   1.283
84708W        W55308  33.538  38.841  10.907
84709W        W55309  26.085   9.430   1.295
84710W        W55310   9.168   8.320  10.760
84711W        W55311  20.310   8.421  11.834
84712W        W55312  14.936  18.536   0.295
84713W        W55313  38.762  36.773  13.574
84714W        W55314  11.739  27.733   4.082
84715W        W55315   4.775  12.934  14.025
84716W        W55316  35.432   3.412  10.987
84717W        W55317  23.482  31.025   1.808
84718W        W55318   9.818  31.737  10.430
84719W        W55319  32.898  32.807   4.519
84720W        W55320  24.536  11.805  10.655
84721W        W55321  27.057   6.303   4.396
84722W        W55322  13.315   0.320  10.957
84723W        W55323  32.174   9.372   3.343
84724W        W55324  27.009  11.696   4.264
84725W        W55325  27.504  37.438  10.892
84726W        W55326  14.661  15.715  12.124
84727W        W55327   2.338   7.416   3.222
84728W        W55328  44.738   4.651  12.098
84729W        W55329  22.326  34.324   1.193
84730W        W55330  15.662  17.660   4.078
84731W        W55331  36.974  33.364   2.729
84732W        W55332  16.695  10.048  12.448
84733W        W55333   8.831   6.692  11.158
84734W        W55334  19.402  31.131  11.904
84735W        W55335  40.334  36.927   4.159
84736W        W55336   9.447  26.300   2.511
84737W        W55337   3.413   4.946   2.530
84738W        W55338  21.615  40.349  10.284
84739W        W55339  42.117   4.748   1.002
84740W        W55340  37.936  36.320  11.132
84741W        W55341  11.868  34.450   4.862
84742W        W55342  21.309  16.107   0.531
84743W        W55343  39.312  31.923  14.467
84744W        W55344  24.515   2.370   1.323
84745W        W55345   3.227   5.931   2.411
84746W        W55346  23.479  33.989  12.587
84747W        W55347  27.057  42.206   2.719
84748W        W55348   9.221  23.227   2.013
84749W        W55349  27.026  24.896   1.368
84750W        W55350   2.881  44.871  12.065
84751W        W55351  37.982   3.308  10.085
84752W        W55352  23.777  24.154  14.057
84753W        W55353  37.377  17.863   4.302
84754W        W55354   1.242  37.401   3.158
84755W        W55355  37.337  20.087  11.838
84756W        W55356  37.077  37.556  14.955
84757W        W55357  11.653  13.737   1.411
84758W        W55358  13.214  25.671   3.178
84759W        W55359  32.049  43.071   1.801
84760W        W55360  12.861  25.679  12.198
84761W        W55361  33.137  21.573   4.081
84762W        W55362  22.375   9.721  10.383
84763W        W55363   5.391  30.614  14.900
84764W        W55364  39.140  43.770   3.716
84765W        W55365  15.356   2.076   2.769
84766W        W55366  17.172  14.641  13.612
84767W        W55367  26.059  16.363   4.749
84768W        W55368  35.984  25.649  12.795
84769W        W55369  29.391  11.832  14.018
84770W        W55370  12.676  37.653  11.884
84771W        W55371   4.981  36.366   1.746
84772W        W55372  13.753  22.546   2.263
84773W        W55373  23.005  37.485  12.979
84774W        W55374  29.155  37.279   2.989
84775W        W55375  10.170   3.858   1.568
84776W        W55376   2.866  35.993   2.211
84777W        W55377   2.773  31.167  14.012
84778W        W55378  31.511  41.532   2.370
84779W        W55379   3.965  38.640  13.364
84780W        W55380   3.194  16.642  13.081
84781W        W55381  19.183  24.449  12.385
84782W        W55382  38.208  30.706   0.288
84783W        W55383   4.389  34.907   2.772
84784W        W55384  12.263  36.308   3.703
84785W        W55385  35.153  16.751  11.967
84786W        W55386  12.256   4.930   3.125
84787W        W55387  29.636  23.713  11.591
84788W        W55388   3.940  36.333   0.200
84789W        W55389  38.923  22.077  11.713
84790W        W55390   0.008   8.651  12.344
84791W        W55391  18.607  32.700  11.130
84792W        W55392  44.762  22.106   2.758
84793W        W55393   9.597  41.936  11.024
84794W        W55394   4.653  42.584  10.157
84795W        W55395  20.640  26.070  13.997
84796W        W55396   9.661  17.117   1.751
84797W        W55397  28.546  37.304   2.188
84798W        W55398  33.042  44.530   4.380
84799W        W55399  34.994  20.157  12.029
84800W        W55400  27.233  41.585  14.378
84801W        W55401   5.669  42.471  13.871
84802W        W55402  32.359   5.128   3.413
84803W        W55403  11.298  20.019   0.337
84804W        W55404  37.479   7.516   0.836
84805W        W55405  20.563  10.768   1.735
84806W        W55406  27.462   3.279   3.793
84807W        W55407  36.728  37.117   3.707
84808W        W55408  30.068  21.775   1.684
84809W        W55409  28.192  20.610   4.676
84810W        W55410  32.638  43.647   1.225
84811W        W55411   8.698  31.010   3.618
84812W        W55412   0.920  10.367  13.802
84813W        W55413  31.614   4.461  11.567
84814W        W55414  43.490  13.684   3.569
84815W        W55415  19.983   7.252   2.763
84816W        W55416  21.651  13.830   0.924
84817W        W55417   7.632  37.132  10.373
84818W        W55418  11.068  21.616  14.301
84819W        W55419   2.951  23.493   2.083
84820W        W55420  19.622  16.071   1.964
84821W        W55421  40.744   0.257  14.102
84822W        W55422   9.325  43.333  12.949
84823W        W55423  35.947  38.923   1.951
84824W        W55424  33.988  35.336   3.994
84825W        W55425  12.735  19.359  13.445
84826W        W55426  30.587  33.015  12.022
84827W        W55427   8.576  25.626  14.023
84828W        W55428   8.345  20.986   2.231
84829W        W55429  42.870  22.219   4.531
84830W        W55430  34.531   6.403   4.452
84831W        W55431  31.018  37.901  11.188
84832W        W55432  19.771  21.489   1.432
84833W        W55433  14.848  12.283   1.164
84834W        W55434  27.892  12.727  12.548
84835W        W55435  39.852  43.288  11.848
84836W        W55436  29.411   5.765  12.970
84837W        W55437  41.245  11.711  13.540
84838W        W55438  35.622  41.450   4.537
84839W        W55439   8.835  36.600   0.930
84840W        W55440  17.457  33.711  14.464
84841W        W55441   6.421   9.031   4.992
84842W        W55442  35.359   3.289   2.433
84843W        W55443  10.785  20.650  12.423
84844W        W55444  10.339  26.646  10.807
84845W        W55445  18.649  13.784   3.580
84846W        W55446  38.304  17.193  13.821
84847W        W55447   9.948  41.365  13.558
84848W        W55448   2.930   2.400   0.275
84849W        W55449  32.709  33.609   4.200
84850W        W55450  43.960  12.165  11.952
84851W        W55451   4.928  16.620   4.174
84852W        W55452  35.368  42.008   2.662
84853W        W55453  29.687   0.887  14.238
84854W        W55454  19.294  42.757  12.774
84855W        W55455   7.967  39.520   2.897
84856W        W55456  33.902  16.762  10.864
84857W        W55457  14.350   3.387  14.163
84858W        W55458  13.940  22.746  13.373
84859W        W55459  24.591  16.598   0.369
84860W        W55460  18.068  15.556  14.159
84861W        W55461  34.939  40.760   0.756
84862W        W55462   7.849  39.891  13.890
84863W        W55463  32.463   9.277   0.345
84864W        W55464   0.130   3.713   1.628
84865W        W55465  34.938  22.246  14.466
84866W        W55466  42.405   2.037   2.927
84867W        W55467  38.622  41.957  12.618
84868W        W55468  43.437  40.588  12.910
84869W        W55469  33.749  13.658   2.691
84870W        W55470  44.714  17.237   2.769
84871W        W55471  11.619   7.776   2.935
84872W        W55472  37.586  16.237  11.093
84873W        W55473  24.227  23.542   0.888
84874W        W55474  28.495   3.660  10.535
84875W        W55475  11.947  29.000  14.106
84876W        W55476  29.078  22.488   4.937
84877W        W55477  10.626  16.952   4.425
84878W        W55478  40.851  25.484  12.937
84879W        W55479  34.838   6.276  14.086
84880W        W55480  34.402  34.379  10.670
84881W        W55481  14.322   6.602  11.151
84882W        W55482  15.524  11.330   3.798
84883W        W55483  29.129  16.170  12.527
84884W        W55484  39.935  11.890   4.390
84885W        W55485  25.738  13.650   2.391
84886W        W55486  21.145  37.171   4.553
84887W        W55487  12.703  32.241   3.317
84888W        W55488  24.190   8.759   2.298
84889W        W55489   9.274  10.724  11.889
84890W        W55490  39.469  25.903  13.107
84891W        W55491  27.012  40.125  12.805
84892W        W55492  30.815  30.401  13.977
84893W        W55493  31.608  30.998  12.528
84894W        W55494  15.179  18.039   0.207
84895W        W55495  32.755   4.191   1.741
84896W        W55496   9.417   0.461   1.817
84897W        W55497  44.056  29.492  13.409
84898W        W55498  44.219  28.072   0.272
84899W        W55499  37.120  14.796   1.837
84900W        W55500  39.615  16.139  14.358
84901W        W55501  37.550  32.114  13.480
84902W        W55502  18.264  36.409   3.692
84903W        W55503  39.598   9.877   2.906
84904W        W55504  14.447  23.755  11.993
84905W        W55505   5.333   4.011   2.859
84906W        W55506  39.242  44.454  14.328
84907W        W55507  37.609  42.458   0.383
84908W        W55508  14.908  39.707  11.165
84909W        W55509  32.111  17.288   4.102
84910W        W55510  35.003   8.726  12.321
84911W        W55511   2.675   4.300  13.845
84912W        W55512  14.772  19.152  13.940
84913W        W55513  36.099  22.812  13.016
84914W        W55514  31.641  33.867   1.898
84915W        W55515  31.655  43.421   1.823
84916W        W55516  32.934  13.426  14.239
84917W        W55517  27.859  30.905   0.780
84918W        W55518   6.635  19.226   4.775
84919W        W55519   8.786   5.902   4.591
84920W        W55520  27.962  17.857   3.560
84921W        W55521  14.783   8.766  11.735
84922W        W55522  24.439  32.507   1.986
84923W        W55523  39.039   6.825  14.112
84924W        W55524  22.026  42.532   2.792
84925W        W55525  44.340  30.371   4.776
84926W        W55526  44.255  31.459   3.585
84927W        W55527  30.979   6.146  10.777
84928W        W55528  12.202   5.759   3.800
84929W        W55529  13.142   3.145   3.158
84930W        W55530  10.644   7.732   1.964
84931W        W55531  41.275  13.168  13.009
84932W        W55532  13.012   5.785  13.800
84933W        W55533  43.842   3.266  12.958
84934W        W55534  39.707   4.601   3.752
84935W        W55535   2.162  35.501   4.167
84936W        W55536  19.154  44.488   1.518
84937W        W55537  29.063   6.591  12.123
84938W        W55538  40.932   7.439   1.713
84939W        W55539   3.500  10.154  10.780
84940W        W55540  44.280  44.006   4.356
84941W        W55541  27.526  33.419  12.053
84942W        W55542  20.222  22.810   0.952
84943W        W55543   9.240  10.391   0.941
84944W        W55544  38.292  44.854  12.113
84945W        W55545  43.724  37.943   1.578
84946W        W55546  20.496  38.472   4.531
84947W        W55547  39.174  14.830  14.878
84948W        W55548  42.953  23.761  14.015
84949W        W55549   3.781  30.979  10.556
84950W        W55550   3.217  35.538   2.313
84951W        W55551  26.250   0.315  10.447
84952W        W55552  36.480  22.001  14.881
84953W        W55553   7.589   9.325  14.428
84954W        W55554  12.604  21.911   4.135
84955W        W55555   2.472  10.612  11.936
84956W        W55556   6.396  43.843   4.635
84957W        W55557  31.142  25.445   2.289
84958W        W55558   4.923  19.304   2.322
84959W        W55559  24.726  26.045  14.906
84960W        W55560  21.372  16.619  10.150
84961W        W55561  39.614  17.904   0.028
84962W        W55562  32.189  20.226  10.756
84963W        W55563  13.552  17.717   4.563
84964W        W55564  10.876  22.107  14.337
84965W        W55565  38.676  22.791   1.793
84966W        W55566  36.470  18.770   0.326
84967W        W55567  33.588  17.087  13.491
84968W        W55568  38.007  13.342   3.704
84969W        W55569   7.333  11.347  12.062
84970W        W55570  40.577  35.533  12.368
84971W        W55571  32.872  30.119   2.735
84972W        W55572  25.619   0.696   4.400
84973W        W55573   3.240  10.878  11.197
84974W        W55574  42.870  43.803   2.373
84975W        W55575  10.324   2.324   3.577
84976W        W55576  28.337  40.451   3.789
84977W        W55577   6.462   5.496  12.013
84978W        W55578  15.242   8.147   2.427
84979W        W55579  41.904  13.877   1.348
84980W        W55580  27.632   0.026  12.301
84981W        W55581  29.699   1.591  11.135
84982W        W55582  13.285  39.008  13.860
84983W        W55583  13.255  39.499   2.506
84984W        W55584  25.558  34.998  10.621
84985W        W55585  10.815  39.494  12.631
84986W        W55586  24.005  35.750   0.639
84987W        W55587  33.258  11.532  14.400
84988W        W55588   1.795   5.903  14.000
84989W        W55589  10.768  16.668   3.177
84990W        W55590   2.479   3.355  12.932
84991W        W55591  19.130   8.449  11.927
84992W        W55592  15.188  43.968  14.391
84993W        W55593  21.613   5.864  10.589
84994W        W55594   7.142  37.452  14.890
84995W        W55595  12.249   5.277  12.408
84996W        W55596   7.670  37.096   2.308
84997W        W55597  33.563  30.668   0.489
84998W        W55598  36.553   0.648   0.538
84999W        W55599  44.695   5.977  11.692
85000W        W55600   3.424  15.232   4.176
85001W        W55601  24.935  27.875   4.593
85002W        W55602  26.822  32.993  11.491
85003W        W55603  34.375  40.537   1.984
85004W        W55604  26.393  10.267  14.389
85005W        W55605  27.127  25.502   4.161
85006W        W55606   2.081  38.903   4.114
85007W        W55607  25.039  17.324   0.217
85008W        W55608   3.916  24.706  11.123
85009W        W55609  26.017  37.601   0.313
85010W        W55610  38.595  10.103   1.621
85011W        W55611   5.462  33.929  12.569
85012W        W55612  38.775  29.619   1.530
85013W        W55613  33.719  39.814   2.746
85014W        W55614  43.403  28.565   4.562
85015W        W55615  44.927  14.188  13.550
85016W        W55616  10.298  28.976   0.375
85017W        W55617  33.744  25.168  12.052
85018W        W55618  29.383  44.782  10.859
85019W        W55619   6.296   9.555   0.364
85020W        W55620  13.217  38.332   3.685
85021W        W55621   4.626  22.283  14.325
85022W        W55622  43.851  38.927  14.850
85023W        W55623  10.955  12.644   1.767
85024W        W55624  14.430  19.959  12.176
85025W        W55625   6.510  41.462  11.040
85026W        W55626   6.147   8.789   1.429
85027W        W55627  44.575  28.594  13.984
85028W        W55628  26.988  37.402  11.030
85029W        W55629  42.816  34.455  14.014
85030W        W55630  12.577  30.141   1.946
85031W        W55631  11.738  20.668   2.360
85032W        W55632  25.962  39.997   3.109
85033W        W55633  10.690  38.516  12.739
85034W        W55634  23.343   9.868   0.127
85035W        W55635  17.733  33.639  14.888
85036W        W55636  39.103  32.612  14.928
85037W        W55637  22.676   3.940   4.868
85038W        W55638  40.215  43.873   0.848
85039W        W55639  38.333  42.259  12.270
85040W        W55640  13.740   5.228   1.468
85041W        W55641  26.830  32.421   2.583
85042W        W55642  14.300  25.151  11.620
85043W        W55643   5.880  31.914  14.384
85044W        W55644  17.254  42.769   0.351
85045W        W55645   1.464  15.105  11.606
85046W        W55646   3.918  25.482   3.801
85047W        W55647  21.523  30.386  13.117
85048W        W55648  16.649  32.930  14.028
85049W        W55649  17.234   7.381   1.150
85050W        W55650  27.945  30.149   3.779
85051W        W55651  40.818  17.338   4.672
85052W        W55652  35.488  28.899   2.323
85053W        W55653  32.199  41.301   5.579
85054W        W55654  19.446  28.514   2.876
85055W        W55655  27.517  13.701  10.876
85056W        W55656  10.112  30.909   3.999
85057W        W55657  28.002  18.616  10.138
85058W        W55658  31.051   5.255   2.201
85059W        W55659  39.798  20.727  14.852
85060W        W55660  15.420  37.463   2.014
85061W        W55661  11.449  11.774  14.899
85062W        W55662  14.873  41.578  14.511
85063W        W55663   5.500   3.752   4.724
85064W        W55664  43.771  12.872   0.693
85065W        W55665  20.472  26.038  11.692
85066W        W55666   6.912  44.721   0.385
85067W        W55667   3.429  18.780   4.644
85068W        W55668  43.233  26.143   2.451
85069W        W55669  15.102  10.476   1.335
85070W        W55670  44.301  11.814   1.851
85071W        W55671  44.874  23.058  14.888
85072W        W55672  16.322   5.810   0.179
85073W        W55673  21.751  32.342  14.862
85074W        W55674   2.277  38.488   1.612
85075W        W55675   8.866  25.997   4.954
85076W        W55676  19.306   3.458   2.920
85077W        W55677  16.718  33.458  12.077
85078W        W55678  20.681   4.774  14.758
85079W        W55679  15.156   1.680   4.560
85080W        W55680  11.347  15.815   0.846
85081W        W55681  12.260  10.804  13.424
85082W        W55682  38.051  14.359   4.626
85083W        W55683  33.646   0.254   1.136
85084W        W55684  43.364  28.904  14.543
85085W        W55685  37.839  39.732  14.078
85086W        W55686  44.311  30.918  14.782
85087W        W55687  33.435   0.416  13.825
85088W        W55688  20.072  14.812  10.651
85089W        W55689  42.946  11.153  10.675
85090W        W55690  11.544  17.605  13.904
85091W        W55691  23.037  23.593  14.195
85092W        W55692  40.838  33.639   2.073
85093W        W55693   2.830  44.005  13.792
85094W        W55694  27.657  44.414   2.695
85095W        W55695   2.233   2.474   4.173
85096W        W55696  43.264   2.870  10.714
85097W        W55697  27.833  38.337   0.579
85098W        W55698  34.980   7.059  12.033
85099W        W55699   4.869  30.115  13.417
85100W        W55700  22.107  44.794   3.395
85101W        W55701  18.680  16.780   2.380
85102W        W55702  35.140   5.270  14.477
85103W        W55703  26.152   3.163   1.652
85104W        W55704  40.928  42.155   4.217
85105W        W55705   2.521  38.846   4.409
85106W        W55706  21.315  16.425   4.194
85107W        W55707  24.206   2.748   5.263
85108W        W55708  17.494   1.128  11.266
85109W        W55709   3.646  13.183  12.521
85110W        W55710  44.367  12.128  13.415
85111W        W55711  15.593  31.356  13.144
85112W        W55712  22.753  13.875  12.533
85113W        W55713  44.321  17.982   4.765
85114W        W55714  19.342  10.537  11.869
85115W        W55715  14.224  19.826  14.974
85116W        W55716   0.983  13.812  14.304
85117W        W55717   1.288  10.890  13.222
85118W        W55718  38.825  40.479  11.195
85119W        W55719  37.787  11.786   1.391
85120W        W55720   2.679  21.514  13.857
85121W        W55721   2.333  24.913  10.475
85122W        W55722   7.613  15.064   0.867
85123W        W55723   9.121   7.771  11.933
85124W        W55724  36.856  44.593  11.546
85125W        W55725  21.737  16.799   3.264
85126W        W55726  14.298  42.348   2.665
85127W        W55727   8.030   3.042  10.973
85128W        W55728  39.857  37.740   2.289
85129W        W55729  17.491  29.409   2.171
85130W        W55730  27.962   1.846   2.378
85131W        W55731  21.295  25.970   0.400
85132W        W55732  17.183  37.833   4.069
85133W        W55733  26.753  18.072  13.915
85134W        W55734  15.272  12.669   2.687
85135W        W55735   7.218   1.756   4.168
85136W        W55736   6.392  33.031   4.643
85137W        W55737  23.244  33.945  11.053
85138W        W55738  32.622   1.163  12.588
85139W        W55739  29.373  29.319   3.537
85140W        W55740  32.880  16.542  11.462
85141W        W55741  17.252   3.412  13.853
85142W        W55742  43.072  21.982   2.816
85143W        W55743  38.354  26.065  13.580
85144W        W55744  40.049  10.495   3.428
85145W        W55745  43.831   2.900   4.617
85146W        W55746  35.979  32.222   1.727
85147W        W55747  20.104  35.546  12.009
85148W        W55748  39.023   0.375  13.096
85149W        W55749  40.980  29.562   3.856
85150W        W55750   0.937  21.051  14.280
85151W        W55751  34.578  42.231   0.081
85152W        W55752  40.737  43.169  12.943
85153W        W55753  38.922  43.815   2.295
85154W        W55754  34.829  24.082  13.084
85155W        W55755   8.950  29.948  12.543
85156W        W55756  41.125  31.013  12.038
85157W        W55757  35.019  14.250  11.730
85158W        W55758  11.153  26.701  12.948
85159W        W55759  24.715   4.641   4.179
85160W        W55760  20.243  43.477  10.650
85161W        W55761  11.949   6.912  11.160
85162W        W55762   5.004  40.210   2.501
85163W        W55763  39.734   6.225   1.258
85164W        W55764  16.636  35.483   5.003
85165W        W55765  22.723  26.300   5.109
85166W        W55766   7.783  33.060   4.886
85167W        W55767  27.143  27.399   4.055
85168W        W55768  27.533  40.293  12.139
85169W        W55769  31.560  30.559  12.855
85170W        W55770   0.382  35.624   1.280
85171W        W55771  22.550  26.467  12.454
85172W        W55772  28.773  28.887   2.256
85173W        W55773  22.541  28.157   2.304
85174W        W55774  37.009  25.173   4.645
85175W        W55775  16.178   5.288  12.161
85176W        W55776  36.604  25.452  11.611
85177W        W55777  19.160  33.663   3.231
85178W        W55778  42.803  16.028  11.180
85179W        W55779  15.709  40.264   0.775
85180W        W55780  31.578  10.111   3.644
85181W        W55781  24.097  33.375  13.603
85182W        W55782  31.926  24.940   3.872
85183W        W55783  14.198  44.222  12.486
85184W        W55784  13.884  36.993   3.858
85185W        W55785  33.017  43.420  10.591
85186W        W55786  34.034  33.566  14.511
85187W        W55787  35.449  28.589   0.425
85188W        W55788  38.859   7.027  13.321
85189W        W55789  38.097  41.329   2.270
85190W        W55790  20.259  15.626   3.061
85191W        W55791  21.065  40.120  11.157
85192W        W55792  34.317   3.928  14.244
85193W        W55793  43.301  31.581   2.338
85194W        W55794   3.381  32.029  13.435
85195W        W55795  17.302  23.969  11.160
85196W        W55796  25.472  41.479   1.273
85197W        W55797  26.558  10.851   0.160
85198W        W55798  43.821  27.255   4.815
85199W        W55799  11.253  17.476  12.428
85200W        W55800   1.939  34.152   1.842
85201W        W55801   0.083  35.061  13.603
85202W        W55802  44.664   4.378   3.899
85203W        W55803  30.463  22.645  13.531
85204W        W55804   6.409  28.161   1.359
85205W        W55805  38.894  43.630  11.629
85206W        W55806  18.562  23.259   0.069
85207W        W55807  23.043  19.453  12.834
85208W        W55808  31.423  44.888  14.484
85209W        W55809   0.018  23.231  14.159
85210W        W55810  24.698  14.408  11.504
85211W        W55811  38.332  21.722   1.716
85212W        W55812  19.531  25.621   1.651
85213W        W55813  17.035   6.822  11.963
85214W        W55814   2.339   8.947  11.235
85215W        W55815   4.394  15.826   0.073
85216W        W55816  38.921  39.295   1.800
85217W        W55817  13.648  44.982   0.686
85218W        W55818  27.689  14.882   4.429
85219W        W55819  23.908  11.912   2.057
85220W        W55820   9.252  13.873   1.682
85221W        W55821   3.711  31.464  12.134
85222W        W55822   7.764  12.557  10.525
85223W        W55823  16.272  31.838   0.799
85224W        W55824  18.735  32.939  12.833
85225W        W55825  44.449  14.319   4.056
85226W        W55826  12.799  34.648   3.526
85227W        W55827  27.012  36.619  14.474
85228W        W55828   3.293  31.132   2.033
85229W        W55829  30.382  42.952  12.384
85230W        W55830  17.532  32.014  11.630
85231W        W55831  30.147  28.650   3.195
85232W        W55832  23.201   5.213   0.995
85233W        W55833  41.466  24.926   4.523
85234W        W55834   8.408  12.093  10.697
85235W        W55835  14.321  15.767  12.494
85236W        W55836  29.138  38.206  12.550
85237W        W55837  40.571  33.494  10.740
85238W        W55838  40.863  38.225  14.403
85239W        W55839  11.743  33.475   2.216
85240W        W55840  20.259  38.997  13.379
85241W        W55841  22.639  14.886   2.357
85242W        W55842  23.709   2.746   1.771
85243W        W55843   7.245   8.208  13.898
85244W        W55844  11.822   4.231  12.438
85245W        W55845  42.291  37.957   4.574
85246W        W55846  44.918   5.500   3.280
85247W        W55847   3.663  14.601   1.832
85248W        W55848  28.785  22.085  14.230
85249W        W55849   7.973  24.641   0.347
85250W        W55850   0.290   3.169  13.084
85251W        W55851  26.931  12.334   3.835
85252W        W55852  11.628  40.306   1.241
85253W        W55853   0.192  16.746  14.473
85254W        W55854  30.189  12.102  11.029
85255W        W55855  26.152   5.433  14.334
85256W        W55856  26.709  44.007  13.535
85257W        W55857   9.539  17.104   0.865
85258W        W55858  21.275  25.664  14.385
85259W        W55859  21.964   7.898   0.469
85260W        W55860   4.193  14.439  12.773
85261W        W55861  32.086   8.815  14.346
85262W        W55862  25.144   8.655  13.494
85263W        W55863  33.133  23.101   2.364
85264W        W55864  11.513  26.214  12.891
85265W        W55865   1.421  11.738   4.493
85266W        W55866   9.887  10.782   3.658
85267W        W55867  22.075  16.326   0.858
85268W        W55868  25.706  31.456   1.748
85269W        W55869  24.032   2.519   1.183
85270W        W55870   4.091  22.715   2.264
85271W        W55871  17.649   4.278  10.495
85272W        W55872   6.542  10.147   1.281
85273W        W55873   1.411  28.213   2.378
85274W        W55874   7.601  16.098   4.015
85275W        W55875  21.368  20.344  14.333
85276W        W55876  27.012  18.254  14.366
85277W        W55877   4.487  22.965   3.266
85278W        W55878  35.987  30.677   1.798
85279W        W55879   8.868  15.344   3.067
85280W        W55880  32.303  26.626  10.931
85281W        W55881  32.953   1.004  14.361
85282W        W55882  12.688  23.615   1.548
85283W        W55883  28.404  43.583  14.398
85284W        W55884   7.109   2.466  14.703
85285W        W55885  22.955  20.691  13.414
85286W        W55886  29.009  19.127   4.158
85287W        W55887  17.733  42.458   1.754
85288W        W55888  24.388   7.407   1.865
85289W        W55889  31.454  14.052  14.400
85290W        W55890  41.557  12.627  14.393
85291W        W55891  38.619  19.847  10.752
85292W        W55892  21.585  11.792   0.665
85293W        W55893  18.619  27.185   2.711
85294W        W55894  11.915  26.058  13.282
85295W        W55895  16.411  14.748  14.862
85296W        W55896  44.470   1.533  14.021
85297W        W55897  34.429  16.296   3.623
85298W        W55898  35.379   0.376   0.275
85299W        W55899   7.617  26.572   5.035
85300W        W55900  39.928  13.208   2.130
85301W        W55901  12.792  37.508   5.166
85302W        W55902  13.624  38.833  12.162
85303W        W55903  41.295  29.141   3.751
85304W        W55904  12.335  39.634  13.623
85305W        W55905  16.766  33.956  13.976
85306W        W55906   4.185   2.449  12.472
85307W        W55907  25.979   2.850   2.850
85308W        W55908  23.113  44.558  14.787
85309W        W55909  29.384  32.980   0.431
85310W        W55910  12.854  23.494   1.035
85311W        W55911  10.249  36.867  10.099
85312W        W55912  12.842  37.874  13.474
85313W        W55913   1.897  41.204  12.037
85314W        W55914  21.784  34.339  12.640
85315W        W55915  34.843  37.278  11.637
85316W        W55916  13.074   7.108  11.974
85317W        W55917  11.841   2.969  14.531
85318W        W55918   8.160  13.060   2.808
85319W        W55919  35.605  24.018  10.691
85320W        W55920  39.100   9.946   2.823
85321W        W55921  10.004  10.581   1.221
85322W        W55922  13.312  17.767   3.732
85323W        W55923  30.617  12.141   3.625
85324W        W55924  13.622   9.724   4.622
85325W        W55925  28.602  39.146   5.435
85326W        W55926  13.302  36.039   0.732
85327W        W55927  14.305  11.410  13.341
85328W        W55928  25.167  44.400  12.623
85329W        W55929  23.754  33.590  12.383
85330W        W55930  43.953  26.685  10.439
85331W        W55931  32.149   9.798   2.290
85332W        W55932  15.307  24.552  12.501
85333W        W55933  40.287  36.591  12.470
85334W        W55934  16.769  13.707  11.854
85335W        W55935   3.159  18.518  13.471
85336W        W55936  33.568  25.897  10.124
85337W        W55937  34.558  41.322   1.333
85338W        W55938   7.330  42.870  14.257
85339W        W55939  24.763   2.981  13.617
85340W        W55940   2.033  20.152  14.978
85341W        W55941   7.158  30.392  14.417
85342W        W55942  42.974  11.752   0.372
85343W        W55943   2.808   7.702  11.989
85344W        W55944  40.226   2.332  11.281
85345W        W55945  23.478  10.647  11.651
85346W        W55946  25.693  11.246  13.573
85347W        W55947  33.612  27.729  12.412
85348W        W55948  32.651  15.244   4.316
85349W        W55949  11.172  36.489  13.806
85350W        W55950  11.173  35.468   1.106
85351W        W55951   6.812  19.442   3.899
85352W        W55952  40.841  32.461  10.647
85353W        W55953   9.776  27.894   3.270
85354W        W55954  23.018  14.352   3.934
85355W        W55955  21.773  13.601  12.008
85356W        W55956  43.372   7.311   1.044
85357W        W55957  15.156  11.734   2.670
85358W        W55958  12.675  42.296   1.953
85359W        W55959   1.374  32.942  12.981
85360W        W55960  15.311   9.898  13.529
85361W        W55961  27.115  37.146  13.586
85362W        W55962  30.194   4.800   3.805
85363W        W55963   3.836  23.090   1.549
85364W        W55964   1.421  32.506   4.319
85365W        W55965   0.750   5.483   1.683
85366W        W55966  16.136  28.499  11.192
85367W        W55967  33.614  42.938  12.250
85368W        W55968  35.569  10.730   3.528
85369W        W55969  37.538  17.526  11.208
85370W        W55970  21.529  10.489   3.688
85371W        W55971  19.688  21.158   0.830
85372W        W55972   1.062   9.809   3.294
85373W        W55973  33.056  18.643   4.590
85374W        W55974  14.884  12.719   4.032
85375W        W55975  19.212   1.995   1.817
85376W        W55976   5.277  19.744   4.662
85377W        W55977   2.835   3.644   2.859
85378W        W55978  41.924   7.723  13.948
85379W        W55979   3.675   1.405   4.264
85380W        W55980  38.854  40.731  14.830
85381W        W55981  43.725  18.711   2.749
85382W        W55982   6.349  33.208  10.612
85383W        W55983  34.847   0.995   4.520
85384W        W55984  14.581  40.262  12.676
85385W        W55985  28.119  19.127   2.305
85386W        W55986  32.083  19.666   4.686
85387W        W55987  36.827  36.673  11.646
85388W        W55988  12.054  40.066   4.280
85389W        W55989   8.739  44.707  11.141
85390W        W55990  23.771  31.109  13.252
85391W        W55991   1.433   6.448  13.401
85392W        W55992  43.586  41.571  11.738
85393W        W55993  13.683  27.433   3.248
85394W        W55994   6.465   4.225  10.692
85395W        W55995  27.171  43.832  14.279
85396W        W55996  11.603  33.378   0.631
85397W        W55997   8.726  15.780   2.758
85398W        W55998  31.208  14.615  14.681
85399W        W55999  14.527  37.251  14.475
85400W        W56000   2.352   8.883  14.940
85401W        W56001  17.621  28.268   2.760
85402W        W56002  38.108  34.901   4.094
85403W        W56003  40.474  30.817   3.239
85404W        W56004  37.938  31.057  11.204
85405W        W56005  44.034  39.033   3.760
85406W        W56006  14.837  32.576   1.665
85407W        W56007   1.266  18.613   2.942
85408W        W56008  30.030  25.037  11.589
85409W        W56009  44.468  32.601   0.733
85410W        W56010   3.371  20.758   4.739
85411W        W56011   1.378  18.314   3.386
85412W        W56012  29.851   0.276  11.879
85413W        W56013   7.043   6.703  11.402
85414W        W56014   5.411  19.625   1.038
85415W        W56015  17.176  19.052   2.337
85416W        W56016  30.944  26.447   1.688
85417W        W56017  31.423  12.746  11.097
85418W        W56018  30.003  13.035   0.990
85419W        W56019  39.472  31.472  14.123
85420W        W56020   5.175  19.393   4.272
85421W        W56021  36.932  29.471   4.682
85422W        W56022  33.933   4.995  11.756
85423W        W56023  25.212  19.429  13.841
85424W        W56024   3.108  21.993  11.094
85425W        W56025   5.122   2.763   2.688
85426W        W56026  38.545  40.326  13.047
85427W        W56027  36.995  20.665  13.805
85428W        W56028  28.958  15.589  13.970
85429W        W56029  40.789  20.455   2.088
85430W        W56030  28.922   4.246   3.705
85431W        W56031  10.158  24.407  14.006
85432W        W56032  13.905  29.893   2.782
85433W        W56033  24.798  36.418  14.354
85434W        W56034  38.097   7.121   2.093
85435W        W56035  28.093  28.989   1.712
85436W        W56036  36.464   3.701   2.703
85437W        W56037  31.983  32.146  13.141
85438W        W56038   7.850   7.872  14.790
85439W        W56039  40.870  43.433   4.927
85440W        W56040  18.558   0.209  11.105
85441W        W56041   2.046  24.142   2.727
85442W        W56042  38.901  33.083  14.819
85443W        W56043  37.305  15.997   4.264
85444W        W56044   2.575  34.556  14.786
85445W        W56045  30.090  41.383   0.715
85446W        W56046   3.843  14.021   3.629
85447W        W56047  18.665  23.162   0.571
85448W        W56048  38.026  38.858  11.637
85449W        W56049  10.728  35.409  13.014
85450W        W56050  32.070  21.466   1.213
85451W        W56051  24.157   4.911  14.267
85452W        W56052  39.549  43.552  12.160
85453W        W56053  13.542  25.091   0.354
85454W        W56054   9.785  19.118   1.534
85455W        W56055  38.789  37.560  11.044
85456W        W56056  14.842   9.577   1.967
85457W        W56057  28.975  19.290  12.823
85458W        W56058  28.580   0.934   4.137
85459W        W56059  40.094  13.773   4.149
85460W        W56060  22.243  41.503  14.624
85461W        W56061  15.233   9.898   4.896
85462W        W56062  41.441  25.476  12.432
85463W        W56063  34.361  18.455   4.301
85464W        W56064   8.181  41.226  11.659
85465W        W56065   0.765   6.680  11.588
85466W        W56066   5.526   3.962   0.603
85467W        W56067  14.213   7.773   0.390
85468W        W56068  40.330  25.051  10.292
85469W        W56069  11.018  17.287   1.151
85470W        W56070  38.380  35.751  14.354
85471W        W56071   2.382  35.509   1.816
85472W        W56072  10.762   6.937  10.542
85473W        W56073  43.408  29.110  11.916
85474W        W56074  37.016  29.319  13.907
85475W        W56075  43.339  24.354   0.712
85476W        W56076  26.982  29.485   0.543
85477W        W56077  19.757  35.272   5.106
85478W        W56078  33.899  24.090   0.383
85479W        W56079  32.325  10.270   4.367
85480W        W56080  36.875  34.284  12.502
85481W        W56081  26.180  43.232   2.285
85482W        W56082  12.682  21.931  12.617
85483W        W56083  15.748  29.131   1.902
85484W        W56084  32.403  27.063  13.915
85485W        W56085  26.166  26.220   4.721
85486W        W56086  36.424  29.109   0.537
85487W        W56087  33.936  40.112  12.628
85488W        W56088  41.922  36.221  12.915
85489W        W56089  33.059  32.372   2.352
85490W        W56090  29.604  40.536   2.218
85491W        W56091  13.818  13.295  12.448
85492W        W56092   8.597  34.437   1.064
85493W        W56093  42.836  29.083   1.491
85494W        W56094  43.045  39.948   0.006
85495W        W56095  10.778   2.929   0.996
85496W        W56096  32.617  18.995  13.968
85497W        W56097  14.190  29.721   4.630
85498W        W56098  27.408  14.547   4.146
85499W        W56099  33.652  29.017  12.244
85500W        W56100   6.040  43.748   3.275
85501W        W56101   6.212   3.833  10.479
85502W        W56102  33.587  19.774  11.682
85503W        W56103  44.061  25.573  13.362
85504W        W56104  22.089  16.774  10.667
85505W        W56105  25.989  21.408   2.858
85506W        W56106   3.846   0.610   3.301
85507W        W56107   2.771   9.651   4.754
85508W        W56108  43.489  40.287   2.846
85509W        W56109   5.728  39.326   4.791
85510W        W56110   2.403   7.305  11.551
85511W        W56111  25.794   5.673   0.683
85512W        W56112  21.190   0.846  14.323
85513W        W56113  40.708  22.782   3.756
85514W        W56114  31.092  36.641   2.230
85515W        W56115  41.456   1.919  12.963
85516W        W56116  29.645  17.547   1.840
85517W        W56117  42.299  38.948  11.808
85518W        W56118  17.763  32.999   1.853
85519W        W56119  17.302  31.404   3.165
85520W        W56120  40.032  15.105   0.954
85521W        W56121   6.458  39.148  12.044
85522W        W56122  15.188  40.427  14.871
85523W        W56123   7.723   6.495  10.688
85524W        W56124   0.829  32.913   4.336
85525W        W56125  22.945   9.263   3.049
85526W        W56126  27.737  41.486  14.317
85527W        W56127  44.812   0.975  13.073
85528W        W56128  11.503  12.116   2.699
85529W        W56129   9.736  22.767  14.219
85530W        W56130  28.346  16.751   0.865
85531W        W56131  23.148  40.790   0.143
85532W        W56132   4.318  16.865   3.718
85533W        W56133  27.480  17.155  13.570
85534W        W56134  44.747  35.611   3.208
85535W        W56135   9.257  28.525  14.215
85536W        W56136  16.744  23.732   4.684
85537W        W56137  15.511  26.997   0.968
85538W        W56138  34.767  41.701   1.658
85539W        W56139  17.200  43.734   3.232
85540W        W56140  20.511  44.264  11.530
85541W        W56141  11.382  14.695   1.312
85542W        W56142  23.041  15.587  11.240
85543W        W56143  32.052   5.582   3.415
85544W        W56144  13.031   7.614  12.005
85545W        W56145  10.088  26.713  12.152
85546W        W56146  13.519  21.163   3.646
85547W        W56147  24.043  26.800  13.315
85548W        W56148   3.220  33.975   3.674
85549W        W56149  29.569  42.505  13.353
85550W        W56150  40.915  30.192   1.164
85551W        W56151  34.029  28.187  13.934
85552W        W56152  10.542  22.945  14.705
85553W        W56153   5.202  36.362   2.579
85554W        W56154  41.982  13.636  12.000
85555W        W56155  23.993  32.870  13.333
85556W        W56156   7.675  29.853   0.125
85557W        W56157  10.852   2.231  12.932
85558W        W56158   6.119  26.624  13.027
85559W        W56159  22.643   0.219  12.202
85560W        W56160   8.781   4.434   3.252
85561W        W56161  39.517  38.386  11.987
85562W        W56162   7.829   3.139  14.351
85563W        W56163  39.389  43.180  14.015
85564W        W56164  41.904   0.916   2.326
85565W        W56165  42.244   8.565   5.134
85566W        W56166  36.591  35.629  10.736
85567W        W56167  31.758  40.721  13.538
85568W        W56168  34.048   9.031   3.617
85569W        W56169  16.034  20.019  11.103
85570W        W56170  29.619  29.308  13.518
85571W        W56171  13.089  29.176  14.342
85572W        W56172  37.824  10.214  11.621
85573W        W56173   3.033  40.408  11.062
85574W        W56174  11.087  19.228   0.760
85575W        W56175  13.650  12.555  12.922
85576W        W56176  31.170  34.554  10.681
85577W        W56177  10.308  35.828  13.320
85578W        W56178   8.030  38.465   3.459
85579W        W56179  21.312  23.084  14.560
85580W        W56180   7.907  31.850   0.263
85581W        W56181  15.519   3.952  11.586
85582W        W56182  25.420  18.113   2.725
85583W        W56183  16.786  43.794  12.515
85584W        W56184  26.067   8.954   4.645
85585W        W56185   5.375  39.502   3.619
85586W        W56186  35.904  25.782  12.320
85587W        W56187  11.986   1.409   1.994
85588W        W56188  34.595   8.079   2.288
85589W        W56189  39.221  36.903   1.812
85590W        W56190  17.806  18.820   4.857
85591W        W56191   0.324  26.007  14.268
85592W        W56192  40.508  13.754  11.764
85593W        W56193  26.084  27.854  10.806
85594W        W56194  42.792  42.277   0.556
85595W        W56195  36.151   7.305  11.572
85596W        W56196  20.131  21.597  11.981
85597W        W56197   7.194  44.782  10.708
85598W        W56198  20.213  40.031   2.922
85599W        W56199  22.792  21.160  10.259
85600W        W56200   8.281  33.008  13.818
85601W        W56201  18.559  21.295   4.878
85602W        W56202  38.467  36.196  12.177
85603W        W56203  30.663  37.079   0.292
85604W        W56204  15.860  23.583   2.369
85605W        W56205  26.744  26.408  13.051
85606W        W56206  41.085  41.347   3.806
85607W        W56207  36.102  12.861   0.407
85608W        W56208  26.949  17.495  14.820
85609W        W56209  22.542   7.179   2.848
85610W        W56210  17.685   9.774   1.828
85611W        W56211   2.012  32.436   3.099
85612W        W56212   9.803   0.301   3.194
85613W        W56213   0.336   2.490   3.155
85614W        W56214  16.272   9.795   1.839
85615W        W56215  43.827  12.677  14.810
85616W        W56216  14.049   0.504  12.083
85617W        W56217  40.382  16.446  14.891
85618W        W56218  24.210  26.425   4.143
85619W        W56219  25.151  21.596   0.275
85620W        W56220  38.609  32.049  13.420
85621W        W56221  38.885   7.613  12.527
85622W        W56222   5.756  25.444  12.026
85623W        W56223  23.288   7.121  10.139
85624W        W56224   0.641  14.149  14.933
85625W        W56225  31.537  44.274   0.347
85626W        W56226  36.518   1.801   9.665
85627W        W56227  41.976  26.199  11.958
85628W        W56228  33.899   4.862   2.334
85629W        W56229  22.803  23.886   4.644
85630W        W56230  40.964  18.675   4.125
85631W        W56231   5.919  25.860  12.488
85632W        W56232  36.007   2.904  13.260
85633W        W56233   7.794   1.448  11.974
85634W        W56234  43.336  40.617   3.795
85635W        W56235  14.889  30.085   0.933
85636W        W56236   6.262  35.010  10.526
85637W        W56237  10.893  28.903   3.826
85638W        W56238  10.101   3.521   0.715
85639W        W56239   6.168  22.542   1.937
85640W        W56240  39.873  35.980  13.345
85641W        W56241   8.290  28.215  14.616
85642W        W56242  30.428  12.079  12.863
85643W        W56243  13.299  12.865   1.904
85644W        W56244  20.344  36.521   0.498
85645W        W56245  21.628  16.754  11.564
85646W        W56246  14.192  35.489   0.699
85647W        W56247  15.106  24.092   1.394
85648W        W56248  15.934  44.060   4.929
85649W        W56249  27.201  30.069   3.319
85650W        W56250  30.142  21.159  11.229
85651W        W56251   8.898  31.027   1.681
85652W        W56252  15.614  21.262  14.297
85653W        W56253  26.455  38.986  13.445
85654W        W56254  29.467  36.930  12.158
85655W        W56255  21.112  30.516  10.373
85656W        W56256  21.267  12.318   1.371
85657W        W56257   4.846  29.418  12.389
85658W        W56258  32.361  42.945  12.430
85659W        W56259  43.975  34.543  12.443
85660W        W56260  34.625  32.289  13.342
85661W        W56261  21.132   8.813  10.219
85662W        W56262  31.610  42.824  13.028
85663W        W56263  40.484  16.655  10.178
85664W        W56264  42.758  44.937   4.615
85665W        W56265  18.628  21.630  14.376
85666W        W56266  34.856  19.220   2.961
85667W        W56267   6.367   3.177   1.298
85668W        W56268  37.118   6.586  14.567
85669W        W56269  24.039   8.348  12.805
85670W        W56270  35.093  30.667  13.056
85671W        W56271  44.480  40.845   1.342
85672W        W56272  32.463  11.681   4.764
85673W        W56273  32.986  17.124   0.059
85674W        W56274  38.139  20.089   2.312
85675W        W56275  21.177  36.084   2.706
85676W        W56276   7.037  15.149   4.714
85677W        W56277  16.302  32.972   9.745
85678W        W56278  34.488  42.072  10.628
85679W        W56279  31.761  38.149   3.675
85680W        W56280  19.261  39.082   4.499
85681W        W56281  22.238  27.539   1.332
85682W        W56282  26.727  37.134   4.335
85683W        W56283  28.930  39.242   5.032
85684W        W56284   9.806  19.256  13.913
85685W        W56285  15.992  10.575   3.294
85686W        W56286  30.048   3.289  13.377
85687W        W56287  31.026  16.093  13.726
85688W        W56288  32.513  10.461  12.630
85689W        W56289  25.354   2.096  10.835
85690W        W56290  10.082  28.736  13.258
85691W        W56291  33.042  37.646  12.059
85692W        W56292  29.529  12.809   0.937
85693W        W56293  36.066   3.315  14.000
85694W        W56294   2.167  42.667  12.023
85695W        W56295  18.619  42.996   5.153
85696W        W56296  28.262   0.855   2.789
85697W        W56297   2.954  43.805  12.834
85698W        W56298  17.239  41.731   1.262
85699W        W56299  21.482  41.321   4.181
85700W        W56300  44.410  28.566  11.617
85701W        W56301   2.968   7.958  13.383
85702W        W56302   5.438  40.392   2.924
85703W        W56303  13.062  13.071  13.558
85704W        W56304   7.735   6.379  12.554
85705W        W56305   3.474   1.219  14.373
85706W        W56306   2.958  21.636   0.920
85707W        W56307  31.609  23.139   3.825
85708W        W56308  10.292  12.258   0.709
85709W        W56309  14.939  33.811  10.808
85710W        W56310  40.379   1.501   0.879
85711W        W56311  39.768   7.924  11.875
85712W        W56312  10.376  29.488  13.367
85713W        W56313   9.232  28.183   0.004
85714W        W56314   4.703  33.295   3.247
85715W        W56315   0.844  15.541  12.561
85716W        W56316  14.753   3.554   1.798
85717W        W56317  37.081  28.557   4.581
85718W        W56318   3.822  41.459  13.058
85719W        W56319  29.793  29.925  12.971
85720W        W56320  25.159   5.752   1.347
85721W        W56321  19.757  28.188  12.360
85722W        W56322   6.635  38.508   0.477
85723W        W56323  27.130  22.660  13.929
85724W        W56324  30.074  28.887   3.657
85725W        W56325   8.213   4.900   3.874
85726W        W56326  18.480   7.165   2.732
85727W        W56327   1.168  30.062   4.565
85728W        W56328  40.503   2.862   5.212
85729W        W56329   1.899   3.549  11.195
85730W        W56330  31.446  25.328  10.693
85731W        W56331  40.903  30.425   0.708
85732W        W56332  33.008  21.882   0.773
85733W        W56333   2.440   2.229   3.078
85734W        W56334  12.199  16.578  10.589
85735W        W56335  24.447   7.376   4.351
85736W        W56336  31.548  10.169  14.551
85737W        W56337  16.688   8.699   2.605
85738W        W56338  23.476  25.167  12.514
85739W        W56339  33.017  10.631   2.126
85740W        W56340  36.555   5.394  12.891
85741W        W56341   1.851  36.136   3.719
85742W        W56342  38.343  41.878  11.366
85743W        W56343  23.375  12.301   1.399
85744W        W56344  42.853   9.134   4.764
85745W        W56345   9.814  25.487   3.786
85746W        W56346  16.226  38.272  11.203
85747W        W56347   4.251  18.679   3.457
85748W        W56348  31.649   4.857  11.124
85749W        W56349   7.352   3.330   4.709
85750W        W56350   3.926  26.237   1.956
85751W        W56351  27.532  23.831   0.407
85752W        W56352  40.571  31.296  13.073
85753W        W56353   4.151   9.107   1.895
85754W        W56354  33.164  14.060  10.587
85755W        W56355  14.292  34.137   0.878
85756W        W56356   3.503  14.802  14.023
85757W        W56357   5.785  23.605   3.554
85758W        W56358  27.815   6.002   2.779
85759W        W56359   6.758  30.736  14.582
85760W        W56360   7.452  20.122  14.729
85761W        W56361  29.718   9.439  11.172
85762W        W56362  32.753  11.243   1.458
85763W        W56363  34.032  43.948   4.543
85764W        W56364  44.778   7.051   1.709
85765W        W56365  10.140  19.190   1.178
85766W        W56366  28.080   7.349  11.559
85767W        W56367   6.709   3.247  12.911
85768W        W56368  42.749  15.767   0.006
85769W        W56369  32.453   2.982   0.068
85770W        W56370  22.140   9.627   1.878
85771W        W56371  17.216  44.889  14.316
85772W        W56372  42.487  39.037  10.653
85773W        W56373  42.979   7.986  11.916
85774W        W56374  41.142  19.592  10.775
85775W        W56375  25.147  11.844   3.649
85776W        W56376  36.461  39.446   2.277
85777W        W56377  43.521  13.790  11.126
85778W        W56378  23.355   2.844   4.718
85779W        W56379  16.035  26.965   0.949
85780W        W56380  25.514  43.132  14.053
85781W        W56381  36.315  17.728   0.932
85782W        W56382  11.375  37.558  11.233
85783W        W56383   7.713  23.562   4.029
85784W        W56384  28.482  19.820   1.864
85785W        W56385  18.168  10.996  14.330
85786W        W56386  33.810  42.972  14.999
85787W        W56387  38.736  30.583   1.463
85788W        W56388  38.124  32.603   0.878
85789W        W56389  34.427  26.958   1.418
85790W        W56390  26.540  22.759  12.981
85791W        W56391  21.031  37.699  10.488
85792W        W56392  40.954  35.536   1.302
85793W        W56393  26.726  10.394  10.287
85794W        W56394   7.326  15.781  11.207
85795W        W56395   0.971   2.372   2.303
85796W        W56396  40.805   7.669  12.510
85797W        W56397  25.956  22.555  12.100
85798W        W56398  25.636  30.501   2.816
85799W        W56399  12.664   6.175  10.530
85800W        W56400  44.012   8.933   3.755
85801W        W56401   4.872  15.295   4.000
85802W        W56402  35.107   3.260   5.075
85803W        W56403  35.992  27.785  13.873
85804W        W56404  44.470  36.624  10.687
85805W        W56405  16.636  28.886  14.973
85806W        W56406   1.855  20.414  12.067
85807W        W56407  26.955  12.365  11.166
85808W        W56408  44.293  33.529  10.987
85809W        W56409  20.167  43.025  13.663
85810W        W56410   8.639  36.090   3.705
85811W        W56411  39.796  34.466   1.355
85812W        W56412  42.748   2.438   4.951
85813W        W56413  41.530   8.790  11.897
85814W        W56414   1.494  13.589   1.717
85815W        W56415   8.309  12.933  14.470
85816W        W56416  21.189  30.864  14.495
85817W        W56417  40.090  29.379  12.030
85818W        W56418  27.785   6.988   0.353
85819W        W56419   6.937  11.034  12.199
85820W        W56420  27.232  39.339  12.465
85821W        W56421  22.290   9.145   0.691
85822W        W56422   8.890   5.888  12.741
85823W        W56423  34.482   0.320   1.382
85824W        W56424  20.545   5.920  13.880
85825W        W56425   4.324  31.917  12.050
85826W        W56426  29.106   6.192   3.701
85827W        W56427  36.546  22.408  10.637
85828W        W56428  29.979  19.111  13.551
85829W        W56429  34.614  20.481  12.135
85830W        W56430  29.480  11.876   1.363
85831W        W56431   4.338  30.855   3.329
85832W        W56432  44.169  35.278  10.960
85833W        W56433  30.994  37.429   3.229
85834W        W56434  37.310  21.042   2.832
85835W        W56435   7.396   5.030   2.385
85836W        W56436  19.089   4.900   4.612
85837W        W56437  24.100  10.278  14.938
85838W        W56438  35.024   8.239  12.047
85839W        W56439  14.769  17.527  13.006
85840W        W56440  27.996  23.743  12.134
85841W        W56441   3.807  23.167  14.871
85842W        W56442  34.135   1.411  12.619
85843W        W56443  18.748  14.252  11.731
85844W        W56444  21.273  33.972   4.883
85845W        W56445  30.974  27.452  12.212
85846W        W56446  43.468  37.037  13.467
85847W        W56447   1.252  23.704  11.118
85848W        W56448  34.422  44.360  11.486
85849W        W56449   6.668  33.682  12.030
85850W        W56450   6.520  17.563  12.479
85851W        W56451  16.612   9.992  13.878
85852W        W56452   6.144   0.448   3.024
85853W        W56453  44.290  27.565  13.389
85854W        W56454  12.325   9.560   2.218
85855W        W56455  42.345  43.273   1.871
85856W        W56456  10.902  28.678   3.346
85857W        W56457   8.179   9.723   2.732
85858W        W56458  23.502   8.880  14.262
85859W        W56459   1.342   1.366  12.530
85860W        W56460  34.698  13.202  10.655
85861W        W56461  24.993   3.341  13.142
85862W        W56462  15.598  14.751  14.440
85863W        W56463  37.986  26.482  11.210
85864W        W56464   4.665  15.820   1.344
85865W        W56465  31.456   8.821  10.990
85866W        W56466  35.615  43.043   4.459
85867W        W56467  16.499  16.392   4.512
85868W        W56468  25.601  31.186   2.196
85869W        W56469  14.848  38.335   0.916
85870W        W56470  37.439  28.394  11.155
85871W        W56471  22.687  13.448   2.371
85872W        W56472  40.769  13.448   2.863
85873W        W56473  23.285   6.478  11.204
85874W        W56474  16.006  32.618   5.121
85875W        W56475  13.278  14.210   3.471
85876W        W56476  33.860   1.476   1.709
85877W        W56477  37.286  15.665   3.134
85878W        W56478  17.818  42.242  14.091
85879W        W56479   0.348   4.314   1.657
85880W        W56480  19.315  38.735  14.312
85881W        W56481  21.098  37.806  12.907
85882W        W56482  23.271  26.114   4.822
85883W        W56483  24.024  16.965  14.877
85884W        W56484  17.133  18.590  13.173
85885W        W56485  31.686  34.559   3.746
85886W        W56486  39.569  31.404   1.924
85887W        W56487  22.220  27.235  11.135
85888W        W56488  21.183   3.465   4.586
85889W        W56489   8.393  30.893  11.525
85890W        W56490  19.081   7.572   2.368
85891W        W56491  37.033   1.443  10.670
85892W        W56492  37.061  25.503   2.802
85893W        W56493  22.149  24.074   2.618
85894W        W56494  27.646  28.209   2.896
85895W        W56495  29.482  22.185  11.530
85896W        W56496  37.084  39.552  10.547
85897W        W56497  32.131  30.228  12.410
85898W        W56498   1.675   1.050   0.543
85899W        W56499  31.033  25.219  12.559
85900W        W56500  29.046  32.948  11.140
85901W        W56501  29.294  20.789   4.711
85902W        W56502  16.027  16.032  14.959
85903W        W56503  22.189   2.617  12.528
85904W        W56504  25.611  42.811  14.440
85905W        W56505  12.017  24.291   1.484
85906W        W56506  26.427  10.045  11.658
85907W        W56507  35.103  36.078  11.412
85908W        W56508  41.169   1.411  13.448
85909W        W56509  36.842  38.369   3.738
85910W        W56510  13.251  16.193  11.447
85911W        W56511  28.427  32.448   4.203
85912W        W56512  31.435  35.773   2.648
85913W        W56513  19.792  44.797  10.573
85914W        W56514  19.473  10.697  14.513
85915W        W56515  25.934   8.623  14.868
85916W        W56516  19.785   9.419  10.682
85917W        W56517  26.159  36.104  11.486
85918W        W56518  23.999  33.889  13.497
85919W        W56519  17.549  32.385  13.738
85920W        W56520  18.311  30.647   1.286
85921W        W56521  22.832   5.561  13.306
85922W        W56522  18.968  41.321  13.995
85923W        W56523  43.504   4.617   0.587
85924W        W56524  35.964  21.478   1.450
85925W        W56525  10.237   7.567  13.994
85926W        W56526  27.986   4.306  14.845
85927W        W56527  20.002  41.400  12.413
85928W        W56528  38.958  44.888  14.342
85929W        W56529  31.983  11.553   4.642
85930W        W56530   5.491  33.522   4.032
85931W        W56531  22.646   5.373   1.718
85932W        W56532  29.020  15.852   2.365
85933W        W56533  10.433  42.308  12.133
85934W        W56534   1.181  10.630   0.340
85935W        W56535  11.797  15.841   4.543
85936W        W56536  15.950  34.858  14.367
85937W        W56537   1.316  26.373  10.723
85938W        W56538  38.027  26.665  12.111
85939W        W56539  25.962  14.131  10.654
85940W        W56540   6.187  43.464   2.087
85941W        W56541   4.843  16.482   3.105
85942W        W56542  44.897  35.003   4.989
85943W        W56543   0.998  12.668  12.934
85944W        W56544  41.374  31.129  11.055
85945W        W56545   2.773  44.274  11.602
85946W        W56546  19.387  29.171  12.464
85947W        W56547  34.381  29.065   3.641
85948W        W56548  12.757  43.813  10.647
85949W        W56549  15.739  44.635  10.575
85950W        W56550   5.500  35.362  13.051
85951W        W56551  35.293   0.059   4.529
85952W        W56552  21.502   5.230   3.798
85953W        W56553  28.798  42.399  14.967
85954W        W56554  39.269  17.736   2.234
85955W        W56555   5.452  31.320  10.278
85956W        W56556   5.789  27.472   3.208
85957W        W56557  16.966   8.689  14.072
85958W        W56558  41.912  42.037  11.715
85959W        W56559  18.747  33.485   2.905
85960W        W56560  10.529  27.165  11.015
85961W        W56561  26.721  21.967  11.601
85962W        W56562   0.520   0.697   3.837
85963W        W56563  34.634   6.250  12.398
85964W        W56564  40.284  44.447  14.265
85965W        W56565   7.281  29.210   3.647
85966W        W56566  12.847  34.581   1.228
85967W        W56567  25.722  12.553  11.638
85968W        W56568   8.455  19.994  12.021
85969W        W56569  35.253   3.913   4.178
85970W        W56570  38.788   1.063   1.451
85971W        W56571  21.373   0.555  10.420
85972W        W56572   2.284  39.607   1.646
85973W        W56573  19.242  18.406   4.116
85974W        W56574  41.208   2.919  10.657
85975W        W56575  26.537  39.721   0.431
85976W        W56576  21.662  13.592  11.178
85977W        W56577  41.976  23.762  13.906
85978W        W56578  36.306  27.509   3.681
85979W        W56579   5.352   4.660  14.439
85980W        W56580  24.364  11.811   1.792
85981W        W56581  27.568  11.330  13.403
85982W        W56582   0.395  39.458  12.497
85983W        W56583  36.449  33.945  12.456
85984W        W56584   1.766   7.891   1.245
85985W        W56585  25.153   4.997  12.925
85986W        W56586  10.260  44.344  14.419
85987W        W56587  41.389  43.604   0.296
85988W        W56588  35.856  31.438   1.399
85989W        W56589   6.859  25.826   0.503
85990W        W56590  29.518  36.283   2.296
85991W        W56591  13.251  13.317   2.410
85992W        W56592  17.367  29.277   2.839
85993W        W56593  35.854  27.652   2.776
85994W        W56594  20.297   7.538  14.436
85995W        W56595  10.813  28.059   0.869
85996W        W56596  23.521   5.848   0.317
85997W        W56597  27.943   0.420  12.043
85998W        W56598  36.438  35.103   2.855
85999W        W56599   5.654  28.274   3.064
86000W        W56600  36.010  13.820  12.898
86001W        W56601  29.287   7.354  14.406
86002W        W56602  24.338  40.921   2.322
86003W        W56603  40.815  37.939  10.920
86004W        W56604  24.115  26.978   4.155
86005W        W56605   7.067  24.122  13.301
86006W        W56606  15.549   3.429   0.442
86007W        W56607  37.048  28.953  14.435
86008W        W56608  34.117  26.843  11.341
86009W        W56609   9.354  44.597   2.005
86010W        W56610  41.856   9.125  14.185
86011W        W56611   3.051   3.265   3.769
86012W        W56612   7.885  43.762   4.105
86013W        W56613   2.362  17.219   2.424
86014W        W56614   2.764   2.352   1.163
86015W        W56615  27.183   1.685  12.821
86016W        W56616   8.565  33.153   1.478
86017W        W56617  33.738   5.741  12.939
86018W        W56618  42.812   8.008  12.405
86019W        W56619   7.227   4.116   0.047
86020W        W56620   3.411   5.414   0.726
86021W        W56621  12.773  31.502  12.088
86022W        W56622  29.552  26.434  12.447
86023W        W56623  36.519  22.402   4.639
86024W        W56624   3.921  13.238  12.947
86025W        W56625  38.953   4.740   3.196
86026W        W56626  26.338   4.134   1.704
86027W        W56627  39.871  44.431  11.616
86028W        W56628  13.964  40.084   2.636
86029W        W56629  17.624  38.907   1.759
86030W        W56630   6.390  15.432  10.748
86031W        W56631  20.981   0.403  13.003
86032W        W56632  21.828  41.024  10.718
86033W        W56633  16.620  38.086   1.907
86034W        W56634   6.728  25.552  11.993
86035W        W56635  42.344  17.640   4.593
86036W        W56636   8.378  14.164  11.536
86037W        W56637  41.358  24.975  11.168
86038W        W56638   5.671  27.311  10.957
86039W        W56639  38.450   9.572  12.066
86040W        W56640  33.323  17.495   3.772
86041W        W56641  38.576  16.982  13.427
86042W        W56642  27.140  18.742  11.110
86043W        W56643  22.007  10.805  13.138
86044W        W56644  36.270  32.097  14.068
86045W        W56645   7.741   1.565  10.333
86046W        W56646  32.973  13.051   0.708
86047W        W56647  18.324   2.171   4.509
86048W        W56648   6.679   9.624  12.986
86049W        W56649  24.479  14.032   0.037
86050W        W56650   9.943  13.015  14.941
86051W        W56651  41.969  32.587   0.210
86052W        W56652  15.077  17.328  12.635
86053W        W56653  24.545  15.355  14.405
86054W        W56654  28.658  31.491   3.880
86055W        W56655  21.031  14.615  14.962
86056W        W56656   2.936  18.081  13.270
86057W        W56657  33.666   1.762   2.296
86058W        W56658   3.709   4.409   2.221
86059W        W56659   5.400  33.860   0.386
86060W        W56660  25.104  27.780  14.880
86061W        W56661  35.949  21.395  11.472
86062W        W56662  36.452   2.673  13.078
86063W        W56663  24.017  38.896  12.759
86064W        W56664   9.780  15.575   9.725
86065W        W56665  23.647  43.374  12.369
86066W        W56666   3.705   9.872  12.163
86067W        W56667   0.098   3.138  11.413
86068W        W56668  31.697   3.973   2.849
86069W        W56669  23.721  29.667   2.805
86070W        W56670  38.537  29.649  13.483
86071W        W56671  30.554   6.497  12.069
86072W        W56672  32.358  40.167  14.648
86073W        W56673  23.950  27.617  14.494
86074W        W56674  26.612   1.406   3.200
86075W        W56675  34.055  41.454   2.116
86076W        W56676  40.329   8.778   0.203
86077W        W56677   7.745   9.772   1.957
86078W        W56678  12.672  39.321  13.362
86079W        W56679  33.983  36.026  10.773
86080W        W56680   4.589  26.652   1.737
86081W        W56681  34.901  20.213   4.148
86082W        W56682   2.898   5.434  14.785
86083W        W56683   0.760  41.904  11.954
86084W        W56684  14.246  27.829   1.494
86085W        W56685  32.507  38.091   2.618
86086W        W56686  14.351  26.760   1.861
86087W        W56687   5.872  44.712   2.705
86088W        W56688  19.652  14.125  14.481
86089W        W56689  23.141  17.119   0.780
86090W        W56690  19.533   4.666   3.007
86091W        W56691  38.084   8.145  13.508
86092W        W56692   6.398  10.803   4.646
86093W        W56693  31.084  32.913  11.120
86094W        W56694  34.860   0.205   0.236
86095W        W56695  32.500  23.969  11.534
86096W        W56696  15.605   7.394  14.324
86097W        W56697  39.944  41.454  11.524
86098W        W56698  20.947  22.036   0.827
86099W        W56699  39.046  27.157   0.810
86100W        W56700   3.649  36.853  12.348
86101W        W56701  24.835  19.973  14.547
86102W        W56702  31.149  14.363   4.249
86103W        W56703  29.006   4.627   2.592
86104W        W56704   6.348  31.634   0.723
86105W        W56705   1.944  19.333   2.343
86106W        W56706  27.649  14.497   2.609
86107W        W56707  38.624  11.735  10.648
86108W        W56708   3.970  41.630   2.573
86109W        W56709  20.983  14.248   2.907
86110W        W56710  32.852  16.275   2.862
86111W        W56711  18.732   2.522   1.892
86112W        W56712  15.092  30.739  13.852
86113W        W56713  24.965   0.501  11.523
86114W        W56714  17.448  30.871   0.742
86115W        W56715   4.315  20.956  10.211
86116W        W56716  17.653  19.792   0.828
86117W        W56717  38.342  29.207   3.838
86118W        W56718   1.413  28.281   3.696
86119W        W56719  28.667   9.628   0.514
86120W        W56720   8.799   0.582   1.270
86121W        W56721  10.040   9.124   3.111
86122W        W56722  23.100  21.793   4.073
86123W        W56723  22.568  16.627  10.652
86124W        W56724   1.953   0.288   1.777
86125W        W56725  33.579  14.147   2.952
86126W        W56726  19.341  31.817   4.602
86127W        W56727  40.334   1.959   2.794
86128W        W56728   8.744  41.900   3.613
86129W        W56729  19.019  11.425  13.598
86130W        W56730  23.594  38.950  13.080
86131W        W56731   5.625  27.092  13.552
86132W        W56732  28.671   4.733   0.306
86133W        W56733   2.486  35.185  14.532
86134W        W56734  21.707  27.577   4.182
86135W        W56735  44.768  10.645  14.513
86136W        W56736  39.810  41.486  12.387
86137W        W56737  31.009   2.902  14.910
86138W        W56738  15.318  11.423   0.906
86139W        W56739  42.408  26.509   2.297
86140W        W56740  22.224  14.225   4.302
86141W        W56741  24.020   5.654  11.620
86142W        W56742   8.236  25.139   0.490
86143W        W56743  42.656  40.270   5.123
86144W        W56744  43.905  39.596   4.360
86145W        W56745   7.242  41.479   4.148
86146W        W56746  20.537   4.153   3.525
86147W        W56747  35.030  18.698   3.082
86148W        W56748  44.890  44.972   2.926
86149W        W56749  28.915  14.010  11.778
86150W        W56750  41.766  17.615  10.724
86151W        W56751  31.684   1.588  10.813
86152W        W56752   4.373  43.223   1.925
86153W        W56753  19.028  42.975   4.157
86154W        W56754  32.513  11.484   4.277
86155W        W56755  15.125  33.924  14.085
86156W        W56756   8.277  18.251  12.552
86157W        W56757  24.152   9.161  10.696
86158W        W56758  11.721  22.009  13.249
86159W        W56759  19.176  19.640   2.782
86160W        W56760   9.040  29.947   2.728
86161W        W56761  37.873  36.438  13.621
86162W        W56762  37.036  15.162  11.414
86163W        W56763  30.826  25.204  13.020
86164W        W56764  23.832   9.716  14.514
86165W        W56765  19.785  42.809   0.965
86166W        W56766  33.993  39.482   3.557
86167W        W56767  43.235  29.015   2.858
86168W        W56768  15.626  38.646   2.661
86169W        W56769  13.568  34.139   9.695
86170W        W56770  16.739  24.217   1.004
86171W        W56771  12.250   7.922   0.205
86172W        W56772   5.150  43.474   3.624
86173W        W56773  14.651  44.751   4.655
86174W        W56774  29.446  22.763  13.916
86175W        W56775  40.257  30.235  11.945
86176W        W56776  16.562  33.030   0.948
86177W        W56777  23.275  12.459  12.033
86178W        W56778  18.074   3.925  12.340
86179W        W56779  39.341  40.076  14.434
86180W        W56780  36.623   8.185   2.105
86181W        W56781  36.567  13.889   2.905
86182W        W56782  44.941  25.115  10.954
86183W        W56783   8.631  12.568  10.641
86184W        W56784   8.115  10.645  14.349
86185W        W56785   7.295  12.382  14.435
86186W        W56786  42.014   5.386  11.615
86187W        W56787  34.324  34.684   1.680
86188W        W56788  14.609  14.227  14.609
86189W        W56789  42.032  15.874   4.243
86190W        W56790  31.901   3.383   3.913
86191W        W56791  19.463  40.081   3.242
86192W        W56792  17.056  11.864  11.095
86193W        W56793  15.337  13.410  10.615
86194W        W56794  26.582  41.330   4.537
86195W        W56795  42.960  38.367  12.519
86196W        W56796   9.593  12.988  14.073
86197W        W56797  38.494  42.112   1.282
86198W        W56798  43.205  24.667   2.353
86199W        W56799  44.594  38.441   4.195
86200W        W56800  20.761  30.111  13.005
86201W        W56801   9.800  43.787  14.892
86202W        W56802  28.173   8.636   0.790
86203W        W56803  27.698  44.371  13.478
86204W        W56804  16.275  27.774  11.628
86205W        W56805  20.838  43.430   0.383
86206W        W56806  13.806  43.980   5.156
86207W        W56807  27.016  32.644   1.141
86208W        W56808  15.932  19.978  12.805
86209W        W56809  20.815  40.569  11.279
86210W        W56810  33.988  18.587   0.332
86211W        W56811  31.097  16.094   3.746
86212W        W56812  33.989  26.215   2.248
86213W        W56813  21.661  21.268  10.744
86214W        W56814   9.905   1.995   2.893
86215W        W56815  37.269  41.762   1.873
86216W        W56816   7.505  31.178  13.316
86217W        W56817  25.171   6.439  13.123
86218W        W56818  27.726  19.317   4.488
86219W        W56819   4.725  33.096   0.291
86220W        W56820  42.025  28.182  14.800
86221W        W56821   4.607  29.052   0.905
86222W        W56822  43.529  22.698  10.301
86223W        W56823  24.576  38.120   0.485
86224W        W56824  18.765  25.465   4.912
86225W        W56825  26.857  30.713  11.510
86226W        W56826  21.140  32.654  14.558
86227W        W56827   9.961  19.432   1.931
86228W        W56828   3.949  11.304   3.407
86229W        W56829  23.511   6.276   4.097
86230W        W56830  38.853   0.268  10.654
86231W        W56831   8.311  11.151  14.800
86232W        W56832  41.295  35.380   2.856
86233W        W56833  43.337  14.943   1.156
86234W        W56834   6.869  23.077  10.662
86235W        W56835  42.527   0.757   1.761
86236W        W56836  27.580  17.944   3.206
86237W        W56837  21.305  40.581  11.110
86238W        W56838  15.834  32.633  13.119
86239W        W56839  13.160  15.762   2.480
86240W        W56840  21.690  11.426  13.893
86241W        W56841  14.767  44.974  12.067
86242W        W56842   4.241  36.839   2.767
86243W        W56843   0.840  33.923   4.536
86244W        W56844  33.498   7.409  10.562
86245W        W56845  44.547  42.530  14.548
86246W        W56846  44.344   9.739  11.640
86247W        W56847  22.498  12.957   2.409
86248W        W56848  44.472  33.872  10.215
86249W        W56849  35.001  26.870  12.818
86250W        W56850  33.304   3.608  14.466
86251W        W56851  36.546  17.319   2.486
86252W        W56852   6.280  18.506  12.069
86253W        W56853  11.843  42.728   4.928
86254W        W56854  22.086  35.735  12.020
86255W        W56855   8.225  39.039   0.358
86256W        W56856  26.084  13.470  11.220
86257W        W56857   2.269  13.206  13.872
86258W        W56858  30.503  15.547  14.367
86259W        W56859  27.534  28.486   1.057
86260W        W56860  44.958  29.891   0.265
86261W        W56861  27.550  43.866  13.458
86262W        W56862   6.661  21.278  11.709
86263W        W56863  13.235  43.297  14.621
86264W        W56864  26.094  10.832  13.455
86265W        W56865  26.420  27.618  13.454
86266W        W56866   1.856  28.651  12.404
86267W        W56867  25.828  10.107   2.288
86268W        W56868  43.943  31.006  13.883
86269W        W56869  38.560  34.335  12.018
86270W        W56870  29.596  13.386  13.836
86271W        W56871  16.721  32.307  13.083
86272W        W56872  21.660  20.079   1.622
86273W        W56873  22.986  25.236   4.314
86274W        W56874  43.338  12.887  14.806
86275W        W56875  40.211  22.883  11.672
86276W        W56876   0.947  42.383  11.867
86277W        W56877  16.768  18.540  14.322
86278W        W56878  36.017   6.935  11.031
86279W        W56879  18.673  16.851  13.547
86280W        W56880  37.009  20.101   3.674
86281W        W56881  10.359  18.896  13.008
86282W        W56882  40.887  31.788  12.260
86283W        W56883  10.599  38.835   1.305
86284W        W56884   1.211  37.546   0.813
86285W        W56885  39.680  21.861  13.585
86286W        W56886  39.149   6.032  10.320
86287W        W56887  28.544  29.283  10.664
86288W        W56888  38.278   7.506  14.008
86289W        W56889  29.859  23.201   2.867
86290W        W56890  36.114  25.489   3.110
86291W        W56891   8.587  20.120  14.432
86292W        W56892   6.315  22.469  12.986
86293W        W56893  26.161  27.896   3.243
86294W        W56894  11.532  22.560   4.534
86295W        W56895  41.615  33.434  12.335
86296W        W56896  28.599  17.818   4.760
86297W        W56897  27.600  16.146   1.332
86298W        W56898  41.978  17.251  12.037
86299W        W56899  36.085  34.903  13.878
86300W        W56900  15.723  20.779   1.859
86301W        W56901  30.223   4.550  11.357
86302W        W56902  26.640  17.829  11.088
86303W        W56903  35.332  28.602  13.451
86304W        W56904  17.543  34.620  12.084
86305W        W56905  44.587  18.506   2.214
86306W        W56906  33.820  10.148   3.792
86307W        W56907  25.170  12.367   3.678
86308W        W56908  20.796  23.464   1.267
86309W        W56909  11.811  42.931   4.420
86310W        W56910  32.274  39.154  10.447
86311W        W56911  19.219  13.385   4.646
86312W        W56912  44.045  26.891  12.957
86313W        W56913  33.328   0.549  10.726
86314W        W56914  40.984  31.228   3.232
86315W        W56915   6.243  13.339   4.549
86316W        W56916  28.391  41.488   4.298
86317W        W56917  42.269   3.800  12.009
86318W        W56918  19.031  12.022  14.352
86319W        W56919   0.628   4.424   0.355
86320W        W56920   5.574  19.572   3.807
86321W        W56921   4.864  37.819  11.556
86322W        W56922   9.267   3.703   1.756
86323W        W56923  43.922  18.735  11.084
86324W        W56924  15.113  23.078   0.968
86325W        W56925  23.433  25.552   2.789
86326W        W56926  29.400   6.731   0.317
86327W        W56927  32.096   6.763   1.549
86328W        W56928   3.347  16.869   0.404
86329W        W56929  21.205  24.062   1.710
86330W        W56930  16.687  31.310   0.238
86331W        W56931   3.263  44.561   2.761
86332W        W56932  35.822  43.121   1.326
86333W        W56933  31.316  19.669   1.337
86334W        W56934  37.118   3.258   1.886
86335W        W56935  28.492  10.527  10.178
86336W        W56936  19.246  33.994   1.761
86337W        W56937  27.210  15.226  12.833
86338W        W56938   4.361  15.449   1.818
86339W        W56939  42.877  11.902  12.593
86340W        W56940  15.070  10.121   2.307
86341W        W56941   5.415  43.708   4.049
86342W        W56942  33.544  38.957  13.672
86343W        W56943  20.427  39.966  11.988
86344W        W56944   5.250  24.447   0.788
86345W        W56945  15.247  12.101   4.672
86346W        W56946   0.682  16.741  10.663
86347W        W56947  42.512  15.730   0.493
86348W        W56948   0.417   4.851  13.332
86349W        W56949  44.253  11.373  11.005
86350W        W56950  27.624  13.702  13.452
86351W        W56951   7.717  41.536  10.242
86352W        W56952  26.555  16.392  14.958
86353W        W56953  21.342  42.328   4.054
86354W        W56954  41.620  19.433  10.658
86355W        W56955  39.889  33.476  14.353
86356W        W56956  18.403  37.382  12.582
86357W        W56957  23.557  24.669   3.160
86358W        W56958  23.285  16.157   0.598
86359W        W56959  16.781  44.697  14.528
86360W        W56960  31.865   1.287  14.858
86361W        W56961  17.114  31.196   0.510
86362W        W56962  24.010  15.183   0.277
86363W        W56963  21.657   0.055   3.356
86364W        W56964   5.648  14.087  12.434
86365W        W56965  17.789   6.115  11.419
86366W        W56966  20.133  37.629  11.571
86367W        W56967  28.552  18.068   1.489
86368W        W56968  10.089  30.942   2.234
86369W        W56969   8.336  23.016   1.330
86370W        W56970  38.831  31.453  11.671
86371W        W56971  28.239  29.696   3.789
86372W        W56972  32.447  15.687   4.605
86373W        W56973  17.829  16.188  11.121
86374W        W56974  41.466   9.437  13.953
86375W        W56975  29.710  32.175   5.037
86376W        W56976  41.699  22.042   1.399
86377W        W56977   9.617  10.771   1.829
86378W        W56978  12.414  24.199  10.719
86379W        W56979   6.604   9.417   2.771
86380W        W56980  44.459  11.453   0.984
86381W        W56981  32.674  36.137  14.090
86382W        W56982  12.119  34.436  13.515
86383W        W56983  43.992  29.872   0.887
86384W        W56984  31.642  29.627  13.888
86385W        W56985  36.774  30.293   2.732
86386W        W56986  11.148   5.796   2.566
86387W        W56987  22.727  38.064   3.512
86388W        W56988  37.354  19.105   1.826
86389W        W56989  26.022  10.246   3.240
86390W        W56990  34.389  37.926   4.319
86391W        W56991  37.866   6.758   2.361
86392W        W56992  26.213  14.096   0.778
86393W        W56993  19.602  31.564   1.355
86394W        W56994  13.613  40.491  12.496
86395W        W56995  18.505  28.050   0.029
86396W        W56996  41.408  21.808  13.028
86397W        W56997  39.935  29.972   1.799
86398W        W56998  25.663  10.797   0.195
86399W        W56999  18.115  10.680  14.757
86400W        W57000   9.323   8.645   4.338
86401W        W57001  24.205  12.418  12.410
86402W        W57002  25.043   0.338  13.098
86403W        W57003   2.812  24.883   3.271
86404W        W57004  21.043  35.912   1.710
86405W        W57005   6.838  44.790   1.069
86406W        W57006  15.897   1.408  14.519
86407W        W57007   9.874   8.744  10.706
86408W        W57008  22.917   8.449   2.295
86409W        W57009   1.973  11.202   3.290
86410W        W57010   7.870   4.731   4.223
86411W        W57011  39.306   1.872  12.621
86412W        W57012  22.657  12.803  11.038
86413W        W57013   8.314   5.169   2.923
86414W        W57014  15.263  39.017   2.666
86415W        W57015  20.007  10.149  14.948
86416W        W57016  26.905   6.704   3.225
86417W        W57017  13.983  40.279   3.588
86418W        W57018   7.271  31.785   4.502
86419W        W57019  23.502  21.659  12.642
86420W        W57020  13.300  38.452  11.546
86421W        W57021  22.385   8.355   2.268
86422W        W57022  39.693  12.708  14.637
86423W        W57023   0.495  13.132   1.750
86424W        W57024   6.819   7.567  11.542
86425W        W57025   0.279   7.855   2.847
86426W        W57026  31.848  32.569   2.615
86427W        W57027  25.124   3.594   2.433
86428W        W57028  33.728  35.404  13.132
86429W        W57029  19.033   9.534  12.063
86430W        W57030  17.991  36.460   1.708
86431W        W57031  15.886  28.971  11.663
86432W        W57032  14.931   9.922  14.819
86433W        W57033  23.614  27.867   4.616
86434W        W57034  14.645  12.478  12.047
86435W        W57035  40.245  30.700   0.969
86436W        W57036  33.918  16.699  11.413
86437W        W57037   8.977  26.071  11.900
86438W        W57038  11.819   9.512   2.655
86439W        W57039  19.043  35.431   4.090
86440W        W57040  13.812  36.889  12.135
86441W        W57041  43.849  18.931  13.606
86442W        W57042  20.771   7.896  14.548
86443W        W57043  11.793  37.319   0.261
86444W        W57044  10.571  41.083  11.005
86445W        W57045  12.978  21.125   0.836
86446W        W57046  18.403  30.991  10.973
86447W        W57047  40.529  34.814  11.161
86448W        W57048  30.963  43.993  10.436
86449W        W57049   6.880  35.798   1.895
86450W        W57050  40.906  32.092   1.363
86451W        W57051   9.743  44.747   3.891
86452W        W57052  39.967  30.903  13.624
86453W        W57053  39.041  41.732  14.930
86454W        W57054  24.702  29.490   0.285
86455W        W57055   2.356  31.647  10.273
86456W        W57056   8.449  16.586   4.769
86457W        W57057  40.849  38.450  12.579
86458W        W57058  28.065  35.738  11.785
86459W        W57059  39.044   1.270   3.662
86460W        W57060  10.595  34.497  13.415
86461W        W57061   7.867  16.825   1.914
86462W        W57062  15.390  24.529   1.348
86463W        W57063  29.987   1.005   1.355
86464W        W57064  11.108   3.862  13.440
86465W        W57065  24.986  43.970   3.232
86466W        W57066  17.587  15.059  14.740
86467W        W57067   1.413  15.140   1.013
86468W        W57068   7.914  33.950  13.028
86469W        W57069  10.343  14.660   0.931
86470W        W57070  35.544  21.912   0.503
86471W        W57071   3.746  26.381   2.854
86472W        W57072  38.513  11.581   3.617
86473W        W57073  33.527  21.432   2.859
86474W        W57074  10.283  38.135  14.413
86475W        W57075  37.611  21.511   0.372
86476W        W57076  36.836  15.717   1.727
86477W        W57077  18.931  32.683  13.240
86478W        W57078  38.086  42.492   2.568
86479W        W57079  41.305   1.400  14.247
86480W        W57080  18.609  35.853  13.401
86481W        W57081  12.978  34.494  14.427
86482W        W57082  31.816  39.427   2.971
86483W        W57083   0.875  25.413  13.580
86484W        W57084  16.570  22.555   1.850
86485W        W57085   1.945  40.355  13.706
86486W        W57086  27.628  25.910  12.861
86487W        W57087  19.126   8.144  14.101
86488W        W57088  43.530  28.452  12.895
86489W        W57089  41.235  28.490  13.352
86490W        W57090   6.440  37.949   1.271
86491W        W57091  36.050  22.075  12.213
86492W        W57092   4.320  23.217  14.722
86493W        W57093  11.864  34.563  11.599
86494W        W57094  43.877  18.516   3.209
86495W        W57095  25.689  21.634  11.319
86496W        W57096  43.174  15.097  13.152
86497W        W57097  35.111  43.144   4.397
86498W        W57098   0.751   3.778  12.901
86499W        W57099  40.142   6.355  13.298
86500W        W57100  24.471  35.042  14.449
86501W        W57101   9.701  39.312  14.308
86502W        W57102  37.013  13.376  13.913
86503W        W57103  34.206  36.564  13.519
86504W        W57104  23.116  17.714   0.867
86505W        W57105  33.486  23.918  14.352
86506W        W57106   6.818  43.010  14.448
86507W        W57107   8.264  22.318   0.796
86508W        W57108   7.812  31.459  14.268
86509W        W57109  41.772  30.036   0.844
86510W        W57110   2.470   0.873   1.631
86511W        W57111  38.460   9.717   3.239
86512W        W57112  26.908  35.577  13.002
86513W        W57113   0.768   3.053   1.975
86514W        W57114  20.942  22.419   5.038
86515W        W57115  39.950  11.573  12.041
86516W        W57116   9.573  23.721  14.600
86517W        W57117  28.707  16.332   3.171
86518W        W57118  34.013  35.362  10.622
86519W        W57119  21.434  36.784  11.834
86520W        W57120  37.969   4.265   4.144
86521W        W57121   3.169  23.082   3.197
86522W        W57122  29.596   0.403  14.379
86523W        W57123  15.286  17.019  11.919
86524W        W57124  22.849  21.228   1.017
86525W        W57125  12.702  35.976   3.107
86526W        W57126   7.946   2.861   0.456
86527W        W57127  28.646  44.823  13.917
86528W        W57128  17.725   0.028  14.435
86529W        W57129  41.444  18.282   3.678
86530W        W57130  28.589  44.199   4.200
86531W        W57131  25.616   5.081   0.959
86532W        W57132  24.975   8.849  13.050
86533W        W57133  27.269  25.173  12.520
86534W        W57134  22.177  24.027  14.029
86535W        W57135   3.715  10.730  13.665
86536W        W57136  41.823  44.532  12.970
86537W        W57137   6.187  30.510   1.653
86538W        W57138  14.813  19.414  11.196
86539W        W57139  11.282  23.083  13.940
86540W        W57140  22.032  33.026  12.466
86541W        W57141  32.937  27.273  11.200
86542W        W57142  35.929  28.048   4.221
86543W        W57143   2.481   7.406   1.734
86544W        W57144  14.210  24.404   0.316
86545W        W57145   6.287  17.027   2.214
86546W        W57146   0.429   4.479   4.483
86547W        W57147  24.036  18.661  12.857
86548W        W57148  24.659  41.028   4.816
86549W        W57149  12.577   5.450   3.032
86550W        W57150  10.649   4.435  11.500
86551W        W57151  10.294  32.417   2.410
86552W        W57152  11.209  43.256  11.993
86553W        W57153  11.278  37.325  13.627
86554W        W57154  33.494  35.103  12.761
86555W        W57155  40.572  21.611  11.974
86556W        W57156  13.714  37.645  10.738
86557W        W57157  20.819  40.351   0.913
86558W        W57158  25.232  19.083   4.468
86559W        W57159   7.156  11.736   2.362
86560W        W57160  43.852  41.266  12.064
86561W        W57161  21.566  36.143  13.538
86562W        W57162   7.808  32.476   4.634
86563W        W57163  37.934  12.172   2.562
86564W        W57164  29.017  41.361  12.519
86565W        W57165  22.795  39.016   3.193
86566W        W57166  32.857  12.983   3.857
86567W        W57167   6.592  16.881  12.574
86568W        W57168   7.955  27.794  11.544
86569W        W57169   4.780  20.548   1.504
86570W        W57170  23.748  12.266  10.629
86571W        W57171  37.308  11.626   1.356
86572W        W57172  22.506   5.913   4.778
86573W        W57173  31.680  44.573   4.298
86574W        W57174  31.858  20.105  13.412
86575W        W57175  23.757  30.621  12.548
86576W        W57176   6.722  21.571  14.580
86577W        W57177  33.156  32.137  11.044
86578W        W57178   6.257  10.897   0.196
86579W        W57179   6.208   7.721   4.115
86580W        W57180  41.934  37.037  11.172
86581W        W57181  37.358  25.568   4.635
86582W        W57182  20.963  18.127   2.199
86583W        W57183  20.652   7.144  12.340
86584W        W57184  43.628  38.083  12.100
86585W        W57185   4.240  22.259  11.565
86586W        W57186  36.413  34.651  10.666
86587W        W57187   8.303   5.626   4.434
86588W        W57188  44.815  40.162   2.614
86589W        W57189  39.959  34.871  13.636
86590W        W57190  44.260  27.837  14.328
86591W        W57191  13.786  31.078  13.992
86592W        W57192  16.846  25.097  14.252
86593W        W57193  21.281  22.885   1.830
86594W        W57194  33.564  42.485  14.998
86595W        W57195  20.053  34.103   2.702
86596W        W57196  22.023  21.882  11.618
86597W        W57197  12.906  16.600   2.343
86598W        W57198  16.822  43.764   4.797
86599W        W57199  32.600  42.030   0.302
86600W        W57200  29.646   0.784  12.384
86601W        W57201  21.609  20.478  13.869
86602W        W57202   4.466  30.073  13.815
86603W        W57203   7.896  17.805   1.028
86604W        W57204  24.160  16.098  14.659
86605W        W57205  21.735   2.802  14.466
86606W        W57206   4.827  23.605   2.831
86607W        W57207   9.252   5.018   0.900
86608W        W57208  23.640  25.697   0.497
86609W        W57209   7.719  37.906   2.716
86610W        W57210   6.423   2.857  14.622
86611W        W57211  15.183  30.625   3.625
86612W        W57212   1.472  17.372  12.577
86613W        W57213  13.104  17.030  12.537
86614W        W57214  25.110  18.635   4.691
86615W        W57215   4.929  37.916  10.527
86616W        W57216  42.768  10.724  14.305
86617W        W57217   4.928  26.217   4.064
86618W        W57218  33.922   2.541   0.948
86619W        W57219  26.806  34.848  11.178
86620W        W57220  17.054  39.299   2.294
86621W        W57221  21.288  44.647  11.352
86622W        W57222  24.454  14.662   4.719
86623W        W57223   8.739  16.654  10.857
86624W        W57224   6.808   1.481   4.216
86625W        W57225   9.763  15.232   0.913
86626W        W57226  25.635  20.078  11.899
86627W        W57227  15.282  27.478  11.549
86628W        W57228  37.869  26.104  10.386
86629W        W57229  20.882  37.945   0.386
86630W        W57230  43.973   6.479  10.896
86631W        W57231  19.130  39.584  11.493
86632W        W57232  19.792  23.723   1.194
86633W        W57233  33.000  25.520   1.679
86634W        W57234   8.728  34.517  14.869
86635W        W57235   8.866  10.284   0.262
86636W        W57236  43.655  30.392  14.480
86637W        W57237  13.707  32.654  12.849
86638W        W57238  29.812  21.376   1.937
86639W        W57239   0.794   8.916  13.369
86640W        W57240  13.342  18.245  10.743
86641W        W57241  12.499  24.465   4.454
86642W        W57242  36.828  32.979   2.416
86643W        W57243  39.483  14.320  12.933
86644W        W57244  21.989  34.622  14.936
86645W        W57245   8.460   6.612   2.308
86646W        W57246  43.351  26.903   0.297
86647W        W57247  36.485  22.908  10.542
86648W        W57248  13.648  21.476   1.948
86649W        W57249  17.666  16.683  10.845
86650W        W57250  14.392  14.116   2.782
86651W        W57251  30.462   6.208   0.038
86652W        W57252  44.978  24.627  13.888
86653W        W57253   0.019   6.354   3.208
86654W        W57254  16.107  41.590  12.478
86655W        W57255   6.867  34.983   2.481
86656W        W57256  42.852  13.318   3.735
86657W        W57257  18.243  32.452   2.259
86658W        W57258  16.493  10.327  12.032
86659W        W57259  44.206  21.056   2.681
86660W        W57260  36.788   6.641  12.210
86661W        W57261  26.926   6.460  14.343
86662W        W57262  15.772  13.650  12.836
86663W        W57263  23.210  17.239   2.215
86664W        W57264  33.600   0.757   1.301
86665W        W57265  22.700  41.846  11.082
86666W        W57266  18.200   8.820   3.151
86667W        W57267  13.558  13.177  11.577
86668W        W57268  34.566  43.426  13.907
86669W        W57269  20.770  11.192  13.131
86670W        W57270  30.173   2.885   4.783
86671W        W57271  40.764  31.386  11.395
86672W        W57272   7.766  36.128   2.343
86673W        W57273   4.720  27.464   2.434
86674W        W57274  19.132   7.303  11.035
86675W        W57275  39.861   7.836  13.740
86676W        W57276   2.355  40.726   4.803
86677W        W57277  18.929  42.019  12.453
86678W        W57278  20.874  31.142   2.470
86679W        W57279   1.682  40.229   4.340
86680W        W57280  27.998   2.389   3.745
86681W        W57281  16.091  24.066   2.445
86682W        W57282   4.242   9.934  10.537
86683W        W57283  27.067  37.371   4.645
86684W        W57284  18.844   0.112  11.518
86685W        W57285  21.124  22.532   2.866
86686W        W57286  20.711  25.100   4.707
86687W        W57287  25.916   2.397  10.640
86688W        W57288  35.410  33.492   3.692
86689W        W57289  13.536   4.155  10.638
86690W        W57290  30.746  13.583   2.757
86691W        W57291  38.814  15.853   4.095
86692W        W57292  21.089  20.569   2.898
86693W        W57293  22.760   8.948   3.713
86694W        W57294  30.553  26.119  12.339
86695W        W57295  43.062  20.029  11.185
86696W        W57296  39.004  12.930  14.247
86697W        W57297  26.236  32.748  14.067
86698W        W57298   9.266  24.588  13.419
86699W        W57299  21.383  24.752   0.910
86700W        W57300  19.986  41.883  14.527
86701W        W57301  41.903  41.459  12.806
86702W        W57302  11.749   2.002  12.758
86703W        W57303  22.759  10.361   4.198
86704W        W57304  39.298  34.104  10.626
86705W        W57305  12.335  13.345  10.715
86706W        W57306   1.251  32.900   4.047
86707W        W57307  17.577  22.781  14.309
86708W        W57308  34.032  28.399  10.620
86709W        W57309   8.738  31.693  13.937
86710W        W57310  41.946  41.859   3.458
86711W        W57311  33.973  27.575  14.992
86712W        W57312   7.935   2.896  14.920
86713W        W57313  21.243  13.069  14.924
86714W        W57314   0.508   4.042  14.241
86715W        W57315  19.130   7.688   3.928
86716W        W57316  24.926  38.293   0.942
86717W        W57317  35.848   2.441  13.458
86718W        W57318  17.589   0.216   3.343
86719W        W57319  29.543  19.146   1.405
86720W        W57320  44.961   0.798  11.517
86721W        W57321  15.403  15.063   3.529
86722W        W57322   7.625  21.992  11.130
86723W        W57323   9.214  41.115  14.424
86724W        W57324  19.752  30.863  11.445
86725W        W57325  10.223  19.612   3.729
86726W        W57326  35.117  18.035  13.459
86727W        W57327  20.719  19.259   2.740
86728W        W57328  27.961  20.484  14.885
86729W        W57329  37.540   3.803   4.942
86730W        W57330  21.603  32.583  13.352
86731W        W57331  37.000  27.056  12.588
86732W        W57332  30.595  34.935   3.163
86733W        W57333  36.085  15.281  12.481
86734W        W57334  28.207   0.572   4.149
86735W        W57335   3.916   3.638   2.696
86736W        W57336   5.387   2.690  11.034
86737W        W57337  20.836  33.882  12.073
86738W        W57338   7.796  24.072   1.721
86739W        W57339   5.735   2.937   4.608
86740W        W57340  31.919  39.118  13.061
86741W        W57341  20.117   4.883   4.620
86742W        W57342   8.460   0.608   2.916
86743W        W57343   6.393  27.780  10.407
86744W        W57344  40.941  11.708  13.975
86745W        W57345  36.259  38.916  12.699
86746W        W57346  14.357   1.335  12.012
86747W        W57347  34.882   1.014   3.149
86748W        W57348  26.181  40.217   2.248
86749W        W57349  34.356   4.671  12.539
86750W        W57350  40.904   3.923  10.607
86751W        W57351  11.156  21.605   3.286
86752W        W57352  39.895  21.804   1.375
86753W        W57353  21.593  33.176  10.788
86754W        W57354  11.510  32.384   1.171
86755W        W57355  41.125  22.091  11.224
86756W        W57356  15.514  26.251   2.278
86757W        W57357  10.286  24.696   4.629
86758W        W57358  22.763  25.477   1.413
86759W        W57359  17.879  11.070   4.260
86760W        W57360  20.982  22.046   4.652
86761W        W57361  21.064  37.540   0.875
86762W        W57362  14.216  28.906   2.247
86763W        W57363  44.950  34.976   4.413
86764W        W57364  44.240  39.953   3.313
86765W        W57365   7.828  19.797  14.407
86766W        W57366  11.641   8.633   0.749
86767W        W57367  29.657  26.733  12.023
86768W        W57368  36.941  27.954  12.453
86769W        W57369   8.757  31.201  13.633
86770W        W57370  10.196   1.883   0.997
86771W        W57371  31.742  13.719  12.010
86772W        W57372  17.586  14.953   4.442
86773W        W57373   0.675   1.510   4.184
86774W        W57374  37.195  22.492   0.803
86775W        W57375  10.176  17.197   4.522
86776W        W57376  16.555  10.111  13.349
86777W        W57377  27.740  22.614  11.714
86778W        W57378  16.487   6.660  13.534
86779W        W57379  42.395  36.435   4.438
86780W        W57380  28.393  27.135  12.473
86781W        W57381  38.019   9.824   2.900
86782W        W57382  42.232   4.665   2.279
86783W        W57383   7.782   5.519  10.969
86784W        W57384   4.485   1.726  13.942
86785W        W57385  11.287  38.200  10.590
86786W        W57386  13.594  27.090   2.866
86787W        W57387  29.749  44.178   2.691
86788W        W57388   7.697  22.619   0.572
86789W        W57389  39.420  36.335  13.898
86790W        W57390   8.254  24.479  10.980
86791W        W57391  29.008   5.109  13.823
86792W        W57392  33.977  29.483   3.832
86793W        W57393   6.027  11.742   1.734
86794W        W57394  33.801   4.054   0.943
86795W        W57395  26.203  18.172   0.691
86796W        W57396   4.174  28.291   0.144
86797W        W57397  29.923   1.308  14.409
86798W        W57398  17.353  21.341   3.151
86799W        W57399  36.411  31.946  11.077
86800W        W57400  35.910  44.928   3.686
86801W        W57401  22.593  21.552  11.077
86802W        W57402  37.379  25.580   3.744
86803W        W57403  20.603  26.454  14.849
86804W        W57404   5.745   3.172   0.429
86805W        W57405  22.582  28.251   0.269
86806W        W57406  30.849  27.168   4.917
86807W        W57407  30.505  10.596  14.589
86808W        W57408   4.759  28.974   9.854
86809W        W57409  30.598  13.990  14.754
86810W        W57410  25.156  43.825   2.725
86811W        W57411   6.618  29.404  14.201
86812W        W57412  36.034  42.887  10.855
86813W        W57413   8.701  28.082  14.928
86814W        W57414  14.737  26.392  10.972
86815W        W57415  20.193   2.875   2.845
86816W        W57416  18.681  41.430  13.145
86817W        W57417   8.749  21.314   2.276
86818W        W57418  35.728  17.133   4.136
86819W        W57419   4.823   5.872  11.117
86820W        W57420  32.386  27.435  11.514
86821W        W57421  26.618  21.309  14.040
86822W        W57422  37.897   6.808  12.995
86823W        W57423   2.196  37.131  11.150
86824W        W57424  10.542   5.241   4.136
86825W        W57425  34.628   1.283  12.665
86826W        W57426  39.995  17.155  13.270
86827W        W57427  38.340  25.353  14.872
86828W        W57428  40.527  29.500  14.054
86829W        W57429   2.372   0.599   1.114
86830W        W57430  29.934  35.991   0.598
86831W        W57431  40.001  35.943   4.127
86832W        W57432  22.146  36.608  11.544
86833W        W57433   0.967  13.787   1.469
86834W        W57434  33.159  44.311   1.734
86835W        W57435   0.438  22.658  11.931
86836W        W57436  24.080  12.758   2.626
86837W        W57437  12.827  34.720   0.737
86838W        W57438   2.901  41.260   4.195
86839W        W57439  18.684  37.326   4.577
86840W        W57440  11.853  32.498  10.138
86841W        W57441  28.611  22.756  11.585
86842W        W57442  39.977  34.612   4.409
86843W        W57443   3.489  43.695  14.968
86844W        W57444  37.618  28.901   1.826
86845W        W57445  25.610  30.678  12.943
86846W        W57446   7.950  26.737   2.825
86847W        W57447  37.478  38.494  10.750
86848W        W57448   2.056  15.814   4.267
86849W        W57449  20.293  15.731   2.558
86850W        W57450  10.317  43.952   1.636
86851W        W57451  24.123  17.664  13.888
86852W        W57452   4.349  35.666  14.429
86853W        W57453  35.822  30.480  11.554
86854W        W57454  23.749  37.441   1.808
86855W        W57455   6.292  13.773   1.714
86856W        W57456  17.943  39.996   0.088
86857W        W57457   0.226   5.946  10.911
86858W        W57458  12.622  44.514   2.794
86859W        W57459  33.074  10.736   0.721
86860W        W57460  38.558  43.490  12.034
86861W        W57461   5.868   0.882   2.885
86862W        W57462  44.748   9.592  14.431
86863W        W57463  16.108  13.827  13.633
86864W        W57464   6.968   3.757  12.997
86865W        W57465  12.398  23.053  12.652
86866W        W57466   3.469  11.529  10.697
86867W        W57467  22.822  41.008   2.123
86868W        W57468  13.837   2.365   2.774
86869W        W57469   4.796   6.962   4.495
86870W        W57470  14.284  13.214   5.567
86871W        W57471  12.763  29.829   3.161
86872W        W57472  16.796  44.352   2.571
86873W        W57473  44.133  25.864  10.748
86874W        W57474   9.499  36.425  12.175
86875W        W57475  44.315  22.518   2.804
86876W        W57476  14.217   6.437  14.039
86877W        W57477  20.285  21.686   0.268
86878W        W57478  12.601  30.422   4.613
86879W        W57479  42.951  29.437   2.718
86880W        W57480   0.244  12.295  14.889
86881W        W57481  17.661  27.124   1.907
86882W        W57482   5.981  31.180  13.426
86883W        W57483  44.760  25.681   0.622
86884W        W57484  41.527  39.077   3.673
86885W        W57485   9.373   1.813   1.370
86886W        W57486  41.052  19.352  11.211
86887W        W57487  22.444  21.749  14.754
86888W        W57488  33.982  44.261  14.967
86889W        W57489  32.137   3.400  11.967
86890W        W57490  36.928   5.838  12.867
86891W        W57491   0.738   3.818   3.887
86892W        W57492   0.091  25.634   3.141
86893W        W57493  43.891  41.082   0.204
86894W        W57494  36.048  43.131   2.723
86895W        W57495  20.692   9.630   3.177
86896W        W57496   2.248  43.218  12.964
86897W        W57497  30.411  13.302   2.480
86898W        W57498  41.855   7.193   4.756
86899W        W57499   7.218  41.976  13.979
86900W        W57500   8.363   5.566   0.812
86901W        W57501  44.837  11.136   0.727
86902W        W57502  14.544   0.932  11.227
86903W        W57503  44.423  38.167   3.776
86904W        W57504  28.949  37.747  12.437
86905W        W57505   1.386  13.190   4.083
86906W        W57506  23.410  42.006  12.577
86907W        W57507  24.489  29.684   2.421
86908W        W57508  10.298   9.796  13.872
86909W        W57509  32.327  29.195   1.435
86910W        W57510  31.045  21.831   1.314
86911W        W57511  28.481  17.745  11.006
86912W        W57512  32.675   9.351   3.417
86913W        W57513  28.109   0.819  14.825
86914W        W57514  43.948  28.553   2.937
86915W        W57515  26.448  16.147   0.486
86916W        W57516  29.392  44.729  11.352
86917W        W57517  36.036   9.750  12.156
86918W        W57518  20.061   1.833   0.851
86919W        W57519   9.351  24.274   2.192
86920W        W57520  20.031  27.464   3.277
86921W        W57521  32.169   8.466  11.231
86922W        W57522   0.248  25.596   1.745
86923W        W57523  43.221   9.890  11.173
86924W        W57524  15.362  14.343   0.289
86925W        W57525  43.009  19.554  10.891
86926W        W57526   2.161  27.159  11.509
86927W        W57527  11.656  35.371  10.314
86928W        W57528  27.445  28.346   2.354
86929W        W57529  13.240  14.388   1.551
86930W        W57530  42.491  12.351  13.011
86931W        W57531  19.700  29.764  14.087
86932W        W57532  16.220   7.454  14.254
86933W        W57533  12.549  25.955   0.317
86934W        W57534  33.011   9.363   2.716
86935W        W57535  34.678  33.909   4.817
86936W        W57536  25.457  29.389   0.753
86937W        W57537  13.636  16.785  14.076
86938W        W57538  17.170  33.235   1.263
86939W        W57539  15.714  21.266   1.683
86940W        W57540   0.273  42.589   4.564
86941W        W57541  16.559  43.837   0.948
86942W        W57542  25.911  23.770  13.653
86943W        W57543   3.825  28.870   2.454
86944W        W57544  37.321   3.888   0.100
86945W        W57545  29.464   8.670   5.107
86946W        W57546  15.203  29.159   3.741
86947W        W57547  38.534  34.011   1.370
86948W        W57548  38.685  13.142   0.098
86949W        W57549  37.201  24.119   4.172
86950W        W57550  24.737  10.149  10.819
86951W        W57551  34.556   8.625  10.346
86952W        W57552   8.646  11.974   1.768
86953W        W57553   7.622  15.930  12.559
86954W        W57554  16.770  43.460   0.513
86955W        W57555   6.737   0.789  13.007
86956W        W57556  28.679   5.664  10.574
86957W        W57557  22.853  29.949  14.418
86958W        W57558  41.042   5.641   3.223
86959W        W57559  23.458  34.112   2.327
86960W        W57560   3.466  29.720  11.130
86961W        W57561  39.811  13.548  10.584
86962W        W57562  37.406   2.761  13.589
86963W        W57563  16.622   6.864   1.681
86964W        W57564   9.415   4.261  10.878
86965W        W57565  39.782  40.829   1.733
86966W        W57566   5.814  16.287   3.201
86967W        W57567  41.887  22.802   4.785
86968W        W57568  30.410  30.566   1.439
86969W        W57569  15.263  12.270   3.756
86970W        W57570  13.620  38.951   1.894
86971W        W57571  22.160   2.412   3.711
86972W        W57572  19.268   2.437  11.698
86973W        W57573  13.750  13.900  14.014
86974W        W57574  12.151  43.505   0.420
86975W        W57575  18.971  33.629  13.459
86976W        W57576  38.111  21.084   0.559
86977W        W57577  19.135  37.029  13.127
86978W        W57578  24.200  24.681   1.701
86979W        W57579  18.843  11.563  14.059
86980W        W57580  21.328  40.224  10.727
86981W        W57581  43.520  30.885   2.741
86982W        W57582   4.428   8.729   4.401
86983W        W57583  40.765  17.245   2.847
86984W        W57584  39.836   8.296   3.255
86985W        W57585  10.907  16.385   1.786
86986W        W57586  28.834  15.739   4.871
86987W        W57587  22.993   9.669   1.359
86988W        W57588  17.324  43.878  10.752
86989W        W57589  16.478  32.209  12.577
86990W        W57590   8.987   4.532   1.416
86991W        W57591  18.762  28.726   5.427
86992W        W57592  28.175  38.277   4.711
86993W        W57593  22.357  39.588   3.257
86994W        W57594  13.396   8.295  13.272
86995W        W57595  43.246  35.869   4.629
86996W        W57596  27.048  30.601  12.985
86997W        W57597  31.167  40.373  12.387
86998W        W57598  25.811  18.533   2.151
86999W        W57599  17.081   2.875  10.699
87000W        W57600  28.653  41.029   0.044
87001W        W57601  16.670  16.694  11.118
87002W        W57602  43.519  16.122  12.551
87003W        W57603  17.734  44.766  13.876
87004W        W57604  13.908   9.603  12.127
87005W        W57605  15.373  12.091   3.293
87006W        W57606  31.503  16.569   1.249
87007W        W57607  15.083  33.428   3.085
87008W        W57608   0.272  43.461  12.403
87009W        W57609  24.501  30.547  13.088
87010W        W57610  39.635  42.820  12.511
87011W        W57611  23.659   6.017  11.697
87012W        W57612  42.731  36.540   0.969
87013W        W57613  29.480  23.429  12.752
87014W        W57614  18.229  14.285  12.956
87015W        W57615  24.558  12.874   4.858
87016W        W57616  36.566  32.343   1.138
87017W        W57617  28.948  26.645  10.425
87018W        W57618  39.944   2.259   4.722
87019W        W57619  38.570  41.369   3.696
87020W        W57620  29.152   6.982  11.219
87021W        W57621   2.935  14.205   3.762
87022W        W57622  33.583  36.724   1.937
87023W        W57623  35.806  27.544  11.990
87024W        W57624   2.895  15.804  14.952
87025W        W57625  26.283  35.919  11.945
87026W        W57626   1.037  17.703   2.287
87027W        W57627  11.750  10.865  12.734
87028W        W57628   1.768   1.306   1.807
87029W        W57629  23.065  13.017  14.314
87030W        W57630  23.595  35.446   4.703
87031W        W57631  39.239  14.314   2.278
87032W        W57632  42.932   9.908  10.745
87033W        W57633  31.510  29.999   3.275
87034W        W57634  37.364  26.704  12.690
87035W        W57635  14.680   0.952   4.758
87036W        W57636   3.218  19.344  10.787
87037W        W57637  41.597  19.976  14.583
87038W        W57638  39.379   3.959  12.293
87039W        W57639  26.105   9.214   2.125
87040W        W57640  23.260  15.252  12.016
87041W        W57641  35.524  32.443   1.391
87042W        W57642  16.848  44.241   0.800
87043W        W57643  15.627   9.868  10.931
87044W        W57644  30.617  27.025   3.696
87045W        W57645  10.794   3.622  10.511
87046W        W57646  36.308  27.690   4.181
87047W        W57647  44.428  23.677  14.481
87048W        W57648   7.961  35.740   0.423
87049W        W57649  14.742   3.400  11.518
87050W        W57650   4.629   9.360  12.445
87051W        W57651  43.009   0.307  12.503
87052W        W57652  23.706  35.642   2.318
87053W        W57653   9.793  10.774  11.534
87054W        W57654  14.902  44.488   2.310
87055W        W57655  26.530  37.862   1.384
87056W        W57656  10.282  11.853  12.977
87057W        W57657  34.463   5.000  11.092
87058W        W57658   3.708   4.104  14.035
87059W        W57659  22.137  20.148  12.362
87060W        W57660  31.575   7.182   4.601
87061W        W57661  39.487  40.556  14.324
87062W        W57662  13.031   6.009   4.385
87063W        W57663  16.518  21.542   1.977
87064W        W57664  39.470  16.629   2.774
87065W        W57665  39.481  20.404   0.549
87066W        W57666  36.012   3.039   2.187
87067W        W57667   3.295  37.594  14.098
87068W        W57668  34.502  28.691   2.252
87069W        W57669  24.314  19.095   4.843
87070W        W57670  36.434  40.132   1.639
87071W        W57671  22.488  29.176   2.713
87072W        W57672   7.661  31.826  11.207
87073W        W57673  10.770  24.069   0.346
87074W        W57674  34.033  18.467  11.497
87075W        W57675   8.538  15.775  10.654
87076W        W57676   5.468  32.072   3.247
87077W        W57677  28.172  22.575  14.628
87078W        W57678  31.602   5.264   3.548
87079W        W57679  22.756  16.037   1.862
87080W        W57680  28.346  44.436   1.783
87081W        W57681  32.857  40.349   0.312
87082W        W57682  22.721  21.945   0.619
87083W        W57683   0.733  43.171  12.437
87084W        W57684  21.246  26.653   1.741
87085W        W57685  21.872  22.532  12.573
87086W        W57686  16.408  22.529  11.693
87087W        W57687  33.976  33.203  10.952
87088W        W57688  26.217   7.264   4.152
87089W        W57689   3.873  39.495  10.451
87090W        W57690  29.767   4.510   2.131
87091W        W57691  33.821  34.886   0.778
87092W        W57692  34.820  38.464  11.964
87093W        W57693  40.933  14.887   2.875
87094W        W57694  19.351  42.408   2.784
87095W        W57695  31.601  38.439  13.174
87096W        W57696  14.335  11.226  11.180
87097W        W57697  39.537  41.835  12.118
87098W        W57698  10.729   8.152   3.824
87099W        W57699   2.376  35.039  12.568
87100W        W57700  37.528  23.483  11.523
87101W        W57701  36.163  19.281   3.197
87102W        W57702  21.732   4.868  12.666
87103W        W57703   7.578  35.112  11.526
87104W        W57704  13.028  23.578   4.596
87105W        W57705  20.407  20.514   1.131
87106W        W57706   5.917  10.792   4.349
87107W        W57707  25.538  26.930   4.541
87108W        W57708  22.648  20.729   0.851
87109W        W57709  37.816  15.540   0.409
87110W        W57710  18.332  32.935   4.086
87111W        W57711  15.574   6.798  13.464
87112W        W57712   6.010  29.553  10.864
87113W        W57713  36.839  33.984   3.510
87114W        W57714  37.521  37.487  11.602
87115W        W57715   3.532  37.966   4.243
87116W        W57716  33.631  22.046  11.059
87117W        W57717  17.187  13.376   0.434
87118W        W57718   6.613  21.024   3.720
87119W        W57719  22.520  36.361  13.934
87120W        W57720  24.027  11.719   0.402
87121W        W57721  34.816  39.335  12.079
87122W        W57722  24.647   1.516  13.477
87123W        W57723  21.103   1.735  10.998
87124W        W57724  28.259  34.060  13.409
87125W        W57725   0.635  42.596   2.422
87126W        W57726  10.876   3.180  12.219
87127W        W57727  37.406  26.049  10.656
87128W        W57728  31.910  41.879   1.814
87129W        W57729  44.224  16.557  14.205
87130W        W57730  17.210  31.096   4.767
87131W        W57731   4.365  31.007  12.895
87132W        W57732  17.295  24.083   2.879
87133W        W57733  11.285   0.597   3.897
87134W        W57734  34.099   0.296  13.331
87135W        W57735  26.249  22.125  12.217
87136W        W57736  22.966   2.695  10.935
87137W        W57737   9.734  41.928   0.571
87138W        W57738  37.499  26.088   2.303
87139W        W57739  32.616  21.054  10.765
87140W        W57740  38.075  27.469  13.821
87141W        W57741  30.390  33.174  12.517
87142W        W57742   7.405  40.111  12.173
87143W        W57743  37.938  18.532  11.961
87144W        W57744  16.304  11.569   2.422
87145W        W57745  22.793  41.667  13.088
87146W        W57746  44.303   1.163   3.320
87147W        W57747  41.191  37.177  11.099
87148W        W57748   0.752  26.000   0.082
87149W        W57749  34.825  18.257  11.157
87150W        W57750   4.720   4.733   4.525
87151W        W57751   8.091  25.819  13.956
87152W        W57752   5.738  13.135   0.036
87153W        W57753  43.235  21.755   3.253
87154W        W57754   7.434   3.512  12.458
87155W        W57755  39.578   6.839  14.981
87156W        W57756  35.499  33.311   2.390
87157W        W57757  28.014  10.823   3.151
87158W        W57758  19.608  20.777  14.613
87159W        W57759  39.274  42.267  10.592
87160W        W57760  14.343  39.476  13.000
87161W        W57761  28.384  21.145   3.578
87162W        W57762  43.914  12.712   4.662
87163W        W57763  10.577  14.245   3.780
87164W        W57764  21.692   3.490   3.731
87165W        W57765   3.802  25.623   0.839
87166W        W57766  22.702  44.785  11.915
87167W        W57767  10.844  12.797  12.095
87168W        W57768  32.270   8.132  13.969
87169W        W57769   4.511  20.739  10.681
87170W        W57770  15.107   2.960  12.925
87171W        W57771  37.066  11.948   4.133
87172W        W57772   9.268  21.927   3.816
87173W        W57773  29.814  33.188   3.450
87174W        W57774   4.312   0.783   4.851
87175W        W57775  32.576  31.604  10.547
87176W        W57776  42.973  30.102   3.396
87177W        W57777  13.300   1.529   3.325
87178W        W57778  24.600   2.744   2.819
87179W        W57779  36.631  27.253   2.713
87180W        W57780  24.962  36.225   0.184
87181W        W57781  36.836  35.335  12.521
87182W        W57782  25.606  35.113   3.656
87183W        W57783   1.968   0.017  13.420
87184W        W57784  28.282  20.769  12.301
87185W        W57785  15.787  16.914  14.798
87186W        W57786   9.490   9.819   3.731
87187W        W57787   7.365  36.330  14.275
87188W        W57788  19.188  19.341   1.824
87189W        W57789   2.061  41.721  12.090
87190W        W57790   5.203  25.683  11.414
87191W        W57791  34.448  29.586  14.495
87192W        W57792  24.655  27.360   3.490
87193W        W57793   2.380  38.893  11.549
87194W        W57794  21.759   9.207   5.013
87195W        W57795  31.876  22.053   4.520
87196W        W57796  29.983  43.476   3.624
87197W        W57797  28.577   8.962   0.765
87198W        W57798  31.020  26.511  10.663
87199W        W57799  42.279  39.023  11.116
87200W        W57800  14.564  16.556  14.095
87201W        W57801   2.154  37.279   4.146
87202W        W57802  19.947  29.788   2.789
87203W        W57803  24.310  15.325  11.831
87204W        W57804  16.482   2.288  12.985
87205W        W57805  42.354  13.244   3.761
87206W        W57806   2.846  43.072   4.664
87207W        W57807  36.691  25.084   1.936
87208W        W57808  43.845  23.129  11.411
87209W        W57809  19.222  27.121  13.483
87210W        W57810  16.397   0.149   3.765
87211W        W57811  39.143  10.716   2.959
87212W        W57812  41.962  39.455  14.715
87213W        W57813   4.869  33.341  11.124
87214W        W57814  43.829   2.363  11.201
87215W        W57815   2.813  27.759   0.733
87216W        W57816  34.886  43.024  14.557
87217W        W57817  28.315  36.166  10.393
87218W        W57818  26.978  32.728  12.583
87219W        W57819  32.887  24.641   1.768
87220W        W57820   1.076  18.180  13.764
87221W        W57821  12.289  26.254  13.658
87222W        W57822   9.035  19.587  13.444
87223W        W57823  24.993  11.594   4.613
87224W        W57824  17.794   7.250   3.711
87225W        W57825  21.522  24.522  14.519
87226W        W57826  42.284  37.533   3.100
87227W        W57827  29.410  34.955   2.351
87228W        W57828  21.470  16.785   2.759
87229W        W57829  44.922  20.093  12.400
87230W        W57830  25.090  40.483   3.297
87231W        W57831   3.920  42.908  14.840
87232W        W57832   7.737   6.260   0.238
87233W        W57833  24.616  33.404  14.860
87234W        W57834  17.743  11.584   4.071
87235W        W57835   7.822  34.450  11.138
87236W        W57836  34.987  33.696  13.801
87237W        W57837  42.503  15.326  10.514
87238W        W57838  16.814  20.308   3.585
87239W        W57839   5.710   0.163   0.396
87240W        W57840  29.684   5.905  11.139
87241W        W57841  41.971  12.234   1.491
87242W        W57842  42.056  43.506  13.984
87243W        W57843  41.489  11.836   2.032
87244W        W57844  25.196  13.055   3.418
87245W        W57845  18.627   3.094  12.104
87246W        W57846   4.354  39.195  12.628
87247W        W57847  21.066  27.217  13.364
87248W        W57848  44.579  26.095   4.492
87249W        W57849  30.153  22.731   2.138
87250W        W57850   1.721  18.728  12.876
87251W        W57851  11.760  40.302  12.068
87252W        W57852  30.678  10.663   0.058
87253W        W57853  33.928  35.132  12.330
87254W        W57854  11.586  38.413   0.343
87255W        W57855  44.400  35.877  14.807
87256W        W57856  10.329  40.995  12.545
87257W        W57857  38.282  31.656  12.529
87258W        W57858  32.229   1.290   2.684
87259W        W57859  14.393  21.319  13.721
87260W        W57860  33.036  21.790   2.153
87261W        W57861   0.882  44.137   3.903
87262W        W57862  29.196   7.661   2.617
87263W        W57863  13.297   7.479  12.450
87264W        W57864  11.732  24.479  14.268
87265W        W57865  26.629  16.492  11.185
87266W        W57866  44.349  33.945   4.470
87267W        W57867  31.123  44.676  13.556
87268W        W57868  37.525  12.331   3.421
87269W        W57869   3.836  23.613  10.079
87270W        W57870   3.769  12.345   4.299
87271W        W57871   7.546  33.366  11.246
87272W        W57872   4.002  25.670  14.022
87273W        W57873  36.521   1.982  14.929
87274W        W57874   7.648  19.277   0.983
87275W        W57875  19.620  41.941   4.509
87276W        W57876   6.734  25.120   4.193
87277W        W57877   6.917   0.986   4.360
87278W        W57878  24.039  32.415  12.352
87279W        W57879  44.183  28.367   2.116
87280W        W57880   1.670  21.066   4.118
87281W        W57881  10.254  20.828   0.795
87282W        W57882  28.564   8.785  10.524
87283W        W57883  31.964  44.249   0.013
87284W        W57884  21.940  11.789   1.420
87285W        W57885  28.944  31.638  13.559
87286W        W57886  43.565  39.973  12.602
87287W        W57887  14.663  10.419   2.202
87288W        W57888  32.657   9.323  11.221
87289W        W57889  38.532   8.820  13.603
87290W        W57890   3.933  29.743  13.151
87291W        W57891  34.660  15.701  14.423
87292W        W57892   6.489  43.034   3.661
87293W        W57893  27.388  28.516  12.882
87294W        W57894   7.286  32.610   1.050
87295W        W57895  20.765  38.352  12.571
87296W        W57896  25.605  33.983   4.040
87297W        W57897   7.922  28.456  13.471
87298W        W57898   8.286  36.222   2.405
87299W        W57899  44.419  26.042  14.530
87300W        W57900  33.759  10.358  10.245
87301W        W57901   7.682  28.921  13.634
87302W        W57902  10.462  30.632  12.055
87303W        W57903  25.144  12.394  11.029
87304W        W57904  35.542  26.012   2.344
87305W        W57905  18.542  13.081  12.563
87306W        W57906  40.105  25.196   2.220
87307W        W57907  38.507   9.150   0.420
87308W        W57908  31.353  43.079  11.372
87309W        W57909  10.051   8.918   0.028
87310W        W57910  18.484  43.728   3.605
87311W        W57911  31.214  31.678  11.656
87312W        W57912   5.317  43.673   1.722
87313W        W57913  38.851   0.730   4.966
87314W        W57914  18.852  29.647  14.160
87315W        W57915  36.287  43.740  12.006
87316W        W57916  25.158  27.679   1.312
87317W        W57917  14.023   6.142   4.196
87318W        W57918   8.609  13.766   2.926
87319W        W57919   8.356   6.242  13.996
87320W        W57920   1.333  29.822  14.885
87321W        W57921  40.947  21.241   3.616
87322W        W57922  19.739  26.262   0.211
87323W        W57923  41.288  10.358  13.537
87324W        W57924  24.058  29.348  10.129
87325W        W57925   6.404   6.187  11.925
87326W        W57926   5.735  39.078  14.510
87327W        W57927  41.129  16.224  14.304
87328W        W57928  31.422  20.854   4.877
87329W        W57929   8.383   0.129   0.024
87330W        W57930  20.691  24.682   3.055
87331W        W57931  17.964  20.838  14.299
87332W        W57932   2.998  40.227  14.694
87333W        W57933  21.032  34.913  13.346
87334W        W57934  12.721  38.251  11.073
87335W        W57935  10.258  28.265  13.106
87336W        W57936  12.450  35.503  11.092
87337W        W57937  27.522  41.392  11.286
87338W        W57938  15.514   0.721   2.692
87339W        W57939  29.871  16.154  11.677
87340W        W57940  16.481  24.464   3.016
87341W        W57941  42.820  16.788   1.300
87342W        W57942  17.957  33.502   0.330
87343W        W57943  29.851   2.804  13.445
87344W        W57944  43.898  22.576   1.807
87345W        W57945   8.364  36.449  10.621
87346W        W57946  19.522  22.513  13.021
87347W        W57947  32.227  14.309  11.488
87348W        W57948  44.934   3.992   0.788
87349W        W57949   8.850   0.225   2.272
87350W        W57950  22.460  40.900  13.286
87351W        W57951  41.886  39.926  12.002
87352W        W57952  39.770  35.515   2.792
87353W        W57953  37.361  35.929   1.270
87354W        W57954  13.273  32.718  13.500
87355W        W57955   1.405  41.096  14.839
87356W        W57956  13.279  32.779  11.164
87357W        W57957  43.071  23.656   2.319
87358W        W57958  27.705  32.031  14.068
87359W        W57959  34.083  11.991   4.644
87360W        W57960   8.120  42.236  13.365
87361W        W57961   6.283  13.628  10.254
87362W        W57962   2.433   0.851  10.586
87363W        W57963  43.543   6.612  10.643
87364W        W57964  43.249  24.133   2.268
87365W        W57965  15.574  23.809   4.843
87366W        W57966   9.346   5.779   1.516
87367W        W57967  44.459   1.905   1.419
87368W        W57968  24.585   0.494  14.351
87369W        W57969  26.429  10.264   2.824
87370W        W57970  37.625  26.994   2.163
87371W        W57971  37.484   4.156  13.849
87372W        W57972  22.032  18.010   3.762
87373W        W57973  35.772  18.186  13.029
87374W        W57974  11.765  32.003  12.878
87375W        W57975  17.133  40.984  13.155
87376W        W57976  16.040  42.401  14.418
87377W        W57977  41.229  38.034   1.429
87378W        W57978  38.481  33.537   3.603
87379W        W57979   0.387  17.256  13.407
87380W        W57980  32.737  43.358  11.052
87381W        W57981  13.552  41.410  11.683
87382W        W57982   7.990   7.383  13.458
87383W        W57983   9.807  17.177  12.925
87384W        W57984  35.582  15.733  14.467
87385W        W57985  11.865  44.732   0.785
87386W        W57986   4.161   9.811  11.379
87387W        W57987  32.932   1.001   0.260
87388W        W57988  25.771  34.926   2.847
87389W        W57989  34.697  24.515   3.708
87390W        W57990  43.795  39.302   4.821
87391W        W57991   9.749   4.182   0.279
87392W        W57992   2.278  13.551   2.859
87393W        W57993  16.057  31.465   1.108
87394W        W57994  15.170  34.016  12.003
87395W        W57995  35.501   2.939   3.390
87396W        W57996  25.435  43.303   1.793
87397W        W57997  10.901  31.030   3.685
87398W        W57998   5.367  34.550   2.277
87399W        W57999  18.160   1.761   0.462
87400W        W58000  36.572  19.034  13.923
87401W        W58001  14.848  18.338  11.904
87402W        W58002  27.166  14.663  14.748
87403W        W58003  18.449   2.234   1.174
87404W        W58004  38.311  16.271   2.805
87405W        W58005  30.653  32.093  13.327
87406W        W58006  20.999  24.366   3.351
87407W        W58007   7.802  22.079  14.247
87408W        W58008   3.465  26.437  14.469
87409W        W58009  34.595  33.033  12.180
87410W        W58010   9.976  39.594  13.493
87411W        W58011  44.944  10.065  12.991
87412W        W58012   5.340  20.133   0.288
87413W        W58013  18.265  41.794   0.459
87414W        W58014  38.933   0.066   1.181
87415W        W58015   1.362   2.468  13.326
87416W        W58016  38.435  13.316   0.504
87417W        W58017  36.571  14.689   4.146
87418W        W58018  14.766  33.308   4.577
87419W        W58019   0.448  32.555   1.288
87420W        W58020   3.699  18.495   2.764
87421W        W58021  42.571  40.500  13.482
87422W        W58022  26.056  18.659   4.668
87423W        W58023  12.777   0.955   0.773
87424W        W58024   0.627  39.482   4.847
87425W        W58025  31.039   1.961  13.322
87426W        W58026  33.146   1.725  10.255
87427W        W58027   9.803   7.499  13.024
87428W        W58028  37.572  26.501   4.187
87429W        W58029  38.969  35.545  12.697
87430W        W58030  17.574   4.695  14.423
87431W        W58031  38.844  33.357   0.244
87432W        W58032  18.083  27.118  14.959
87433W        W58033  25.254  36.449   4.411
87434W        W58034  13.761  21.210  14.549
87435W        W58035  18.838   9.694   0.985
87436W        W58036   6.452  34.825  12.631
87437W        W58037  24.466  20.174  14.848
87438W        W58038  26.472  42.277   3.488
87439W        W58039   1.139   2.232   0.866
87440W        W58040  11.438  18.532   2.783
87441W        W58041  23.115  31.323   4.076
87442W        W58042  28.170  17.697  12.871
87443W        W58043  34.924  16.627  14.267
87444W        W58044   3.156  43.211   0.295
87445W        W58045  31.120  22.067   0.751
87446W        W58046   1.194   2.785   3.762
87447W        W58047  29.621  31.547   1.824
87448W        W58048  16.962   3.896   1.263
87449W        W58049  33.582   0.397  12.029
87450W        W58050  21.282  16.937   4.130
87451W        W58051  43.820  34.422  10.875
87452W        W58052  19.536  41.068   1.754
87453W        W58053  39.194  35.605   4.751
87454W        W58054   6.385  21.325   3.253
87455W        W58055  34.494  24.126  14.038
87456W        W58056   2.176  39.293  14.087
87457W        W58057  25.957  13.806  12.543
87458W        W58058  38.749  15.205   2.157
87459W        W58059  16.906  24.596  11.624
87460W        W58060  27.671  36.799  12.012
87461W        W58061  30.578  16.312  13.549
87462W        W58062  27.928  29.737  13.962
87463W        W58063  16.357  19.843   3.522
87464W        W58064  32.593  35.358  10.560
87465W        W58065   0.240  30.098  13.816
87466W        W58066  40.979   7.983  10.618
87467W        W58067  27.770  40.811   0.830
87468W        W58068  42.763  21.447   4.158
87469W        W58069   8.756  39.527  10.572
87470W        W58070  21.196  17.681   2.707
87471W        W58071  18.846   3.052  14.397
87472W        W58072  16.173   3.807  14.823
87473W        W58073   8.842  41.635   0.998
87474W        W58074   6.697  10.382  14.211
87475W        W58075  20.999  13.825  14.495
87476W        W58076  42.488  26.457  10.712
87477W        W58077  40.772  27.525   1.853
87478W        W58078  43.910  22.793  10.635
87479W        W58079   3.574  17.030  10.551
87480W        W58080  12.838   5.284   1.660
87481W        W58081  37.886  28.678   2.222
87482W        W58082   2.777  37.396   0.778
87483W        W58083  30.168  24.590  12.901
87484W        W58084  22.936  44.374  11.631
87485W        W58085  20.495  43.992   0.874
87486W        W58086  13.638  44.303   2.884
87487W        W58087  26.488  19.009   0.432
87488W        W58088   1.671  33.030   3.722
87489W        W58089  30.566   4.207   2.184
87490W        W58090  34.612   1.272   0.987
87491W        W58091  36.850  40.978   3.678
87492W        W58092  33.576   6.436  13.397
87493W        W58093  40.406  26.908   4.515
87494W        W58094  11.592  33.282  10.556
87495W        W58095  33.383   5.924  11.759
87496W        W58096  20.758  21.635   0.517
87497W        W58097   3.664  27.507  11.862
87498W        W58098   4.253  22.703   2.817
87499W        W58099  34.292  16.140  14.753
87500W        W58100  44.327  33.029   0.983
87501W        W58101  20.611  26.724   0.397
87502W        W58102   5.882  12.333   3.335
87503W        W58103  28.263   8.169   1.033
87504W        W58104   8.380   4.920   0.267
87505W        W58105   6.420  39.086  13.497
87506W        W58106  44.256   7.472   0.778
87507W        W58107  19.741  33.719  13.807
87508W        W58108   8.206  36.404  13.891
87509W        W58109  10.620   2.320   2.664
87510W        W58110  30.495   1.277   2.301
87511W        W58111  42.799  32.373  12.166
87512W        W58112  43.412  26.712  13.848
87513W        W58113  18.888  19.778  14.259
87514W        W58114  30.135   7.837   2.684
87515W        W58115   8.214  20.279  10.699
87516W        W58116  44.805  24.972   1.496
87517W        W58117  11.837  23.791   9.510
87518W        W58118  11.086   4.738   0.932
87519W        W58119  24.748  36.668  12.318
87520W        W58120  15.738   9.963  10.072
87521W        W58121  29.974  13.531   0.851
87522W        W58122   0.325  40.400   3.318
87523W        W58123  38.978  33.631   3.693
87524W        W58124   0.809   3.870   2.382
87525W        W58125   7.097  36.104   3.692
87526W        W58126  29.197   9.853  10.727
87527W        W58127   3.535   0.989   3.471
87528W        W58128   1.134  12.131   4.711
87529W        W58129  19.373  18.006  13.849
87530W        W58130  19.041  40.329  11.940
87531W        W58131  30.164  33.651   2.633
87532W        W58132  26.641   3.269   1.409
87533W        W58133  32.696  35.058   3.227
87534W        W58134  39.354  16.641  14.425
87535W        W58135  22.238  26.016  14.189
87536W        W58136   5.985   6.331  11.649
87537W        W58137  22.135  12.075   2.272
87538W        W58138  30.077  27.439   1.786
87539W        W58139  21.612  21.546  11.177
87540W        W58140  35.902   6.680   1.389
87541W        W58141   8.112   4.744   2.696
87542W        W58142  24.736   4.824   1.495
87543W        W58143  35.909  22.922  12.524
87544W        W58144  42.243  34.074   3.731
87545W        W58145  42.314  21.909  12.251
87546W        W58146  34.586  33.140   0.478
87547W        W58147  29.203  30.752   1.877
87548W        W58148  17.647  22.261   2.318
87549W        W58149  24.920  23.104   2.303
87550W        W58150   9.269  37.633   3.266
87551W        W58151   5.332   7.741   1.142
87552W        W58152  17.414  12.681  13.775
87553W        W58153  23.493  14.797   1.413
87554W        W58154  22.341   1.398   1.199
87555W        W58155  41.441  44.112   0.471
87556W        W58156  25.475   5.906  13.332
87557W        W58157  22.546  19.648   1.688
87558W        W58158  26.927  37.191  12.484
87559W        W58159  17.242  32.410  10.574
87560W        W58160  40.996  21.665   1.015
87561W        W58161  18.534  38.769   0.955
87562W        W58162  43.521  39.738  14.988
87563W        W58163  20.283  29.401  10.488
87564W        W58164  13.611   3.236   1.295
87565W        W58165  19.260  22.038  12.863
87566W        W58166  26.182  43.485   0.137
87567W        W58167  19.160   6.172  13.407
87568W        W58168  25.599  13.524   0.253
87569W        W58169  26.876   1.518   1.816
87570W        W58170  15.542  33.185   3.277
87571W        W58171  31.704   7.490  11.604
87572W        W58172  27.137  38.831   1.891
87573W        W58173  13.647  39.155   2.352
87574W        W58174   7.218  43.409   1.947
87575W        W58175   9.246   3.203  14.814
87576W        W58176   8.989  39.020   3.147
87577W        W58177  16.611  20.995  11.674
87578W        W58178  22.839   9.146   0.056
87579W        W58179  33.042   0.361  13.399
87580W        W58180  17.312   4.180  10.897
87581W        W58181   5.403  32.767   2.041
87582W        W58182  42.332  37.633   0.657
87583W        W58183  28.714  44.695   4.244
87584W        W58184  31.982  16.911   1.398
87585W        W58185  41.477  25.786   0.587
87586W        W58186  13.569  20.431  12.905
87587W        W58187   7.156  21.265  11.632
87588W        W58188   1.225   5.257  13.401
87589W        W58189  18.446  30.061   4.627
87590W        W58190  10.906  12.852   0.867
87591W        W58191  32.703  20.593  12.042
87592W        W58192  34.612  26.513  12.549
87593W        W58193  11.419  10.240   0.393
87594W        W58194  36.792   4.629   4.967
87595W        W58195  11.841  44.957  10.724
87596W        W58196  16.025  40.857   9.792
87597W        W58197  42.302  42.412  12.167
87598W        W58198   2.206  10.816   4.685
87599W        W58199  10.909  44.274   0.748
87600W        W58200  35.949   8.657  10.438
87601W        W58201  18.984  36.813  13.603
87602W        W58202   6.826  42.327  12.269
87603W        W58203  40.028  43.188   4.659
87604W        W58204  31.121  36.143  12.014
87605W        W58205  33.150  41.286   2.188
87606W        W58206  20.659  24.903  14.998
87607W        W58207  42.777  28.680   0.718
87608W        W58208   0.472  31.641   4.561
87609W        W58209   8.585  15.293   2.633
87610W        W58210  36.641  27.480  12.368
87611W        W58211   2.974  31.575  12.974
87612W        W58212  14.535   1.359   2.382
87613W        W58213  44.479  20.029   3.563
87614W        W58214   2.824   4.689   1.791
87615W        W58215  34.462  28.099  12.051
87616W        W58216  21.188  27.542   1.341
87617W        W58217  19.872  44.379   4.691
87618W        W58218  11.088  42.682   1.392
87619W        W58219   7.473  40.004   3.988
87620W        W58220  17.118  23.760  10.734
87621W        W58221  15.440  33.020  14.981
87622W        W58222  28.894  43.004  13.059
87623W        W58223  11.311  40.075  11.948
87624W        W58224  24.589  39.575   2.397
87625W        W58225  11.380   7.402   3.712
87626W        W58226   9.750  26.140  12.920
87627W        W58227  19.793  22.259  14.259
87628W        W58228  42.850   8.679   2.775
87629W        W58229  16.996  41.709  11.115
87630W        W58230  12.958  21.159   3.009
87631W        W58231  16.110  41.851   0.758
87632W        W58232  29.720   7.115   0.252
87633W        W58233  35.769   5.861   4.225
87634W        W58234  15.245  12.938  13.516
87635W        W58235  28.498  25.962   0.799
87636W        W58236  26.580   3.024   1.982
87637W        W58237  43.992  39.420   1.933
87638W        W58238   3.314   3.751  14.811
87639W        W58239  43.292  17.513   1.537
87640W        W58240   1.999  11.881  14.405
87641W        W58241  44.320  44.716   0.048
87642W        W58242  44.405  19.600   1.621
87643W        W58243  20.357  15.203  11.545
87644W        W58244   0.891   3.518   1.660
87645W        W58245  25.020  10.022   2.462
87646W        W58246  27.127  28.668   4.522
87647W        W58247  15.685  25.233  12.868
87648W        W58248  26.177   4.276  12.464
87649W        W58249  23.149  15.308   4.165
87650W        W58250  37.171  34.056  14.737
87651W        W58251  22.252  35.611   2.147
87652W        W58252  39.986   7.889   1.791
87653W        W58253  17.030  42.208   1.269
87654W        W58254  12.295  27.683  12.505
87655W        W58255  18.737  22.467   1.321
87656W        W58256  12.869  26.942   4.587
87657W        W58257  24.691  30.542  12.560
87658W        W58258  35.400  20.456   2.692
87659W        W58259   2.472  16.283  13.560
87660W        W58260  14.989  12.486   5.441
87661W        W58261   8.683  39.228  10.988
87662W        W58262  34.781  24.006   2.790
87663W        W58263  43.354  38.489   4.830
87664W        W58264  31.669  38.896   0.932
87665W        W58265   4.398   4.527   3.678
87666W        W58266  32.056  15.574  13.283
87667W        W58267   2.678  32.018  12.914
87668W        W58268  18.879   6.958  13.396
87669W        W58269  37.147  27.397   2.653
87670W        W58270  13.119  35.643  13.631
87671W        W58271  34.262  32.015  13.597
87672W        W58272  41.127  18.989   1.504
87673W        W58273  36.965  34.109  12.012
87674W        W58274  12.048   7.666   1.599
87675W        W58275  44.496  15.791  13.784
87676W        W58276   1.659  32.928   1.063
87677W        W58277  32.021  41.028  12.013
87678W        W58278   9.894   2.367   3.279
87679W        W58279  32.519  32.235  14.931
87680W        W58280  19.599  23.501  12.965
87681W        W58281   1.762  23.504   0.473
87682W        W58282  22.111   2.357   1.821
87683W        W58283  25.926   2.486   1.569
87684W        W58284  37.457  32.681   4.567
87685W        W58285  33.894  32.359   1.876
87686W        W58286  30.985  44.981   2.177
87687W        W58287  32.160  20.322  11.613
87688W        W58288   7.389  40.285  13.955
87689W        W58289  38.927  26.143   2.460
87690W        W58290  24.590  31.933   0.035
87691W        W58291  23.445  19.261  12.518
87692W        W58292   0.377   8.061   4.166
87693W        W58293  32.899  18.523   1.167
87694W        W58294  30.715  21.595   0.936
87695W        W58295   7.701  31.802   0.926
87696W        W58296  40.833  24.258  10.488
87697W        W58297   7.359  37.123   3.183
87698W        W58298  34.877  39.124   1.013
87699W        W58299  30.279  25.019   3.220
87700W        W58300  33.267  23.245   5.183
87701W        W58301  37.149  34.945  12.937
87702W        W58302  32.165  26.598  13.904
87703W        W58303   4.435  24.537  13.937
87704W        W58304  27.756  44.395  10.574
87705W        W58305  28.660  22.313   0.756
87706W        W58306  25.900   3.630  14.932
87707W        W58307  22.306  20.640  11.957
87708W        W58308  39.469   0.026   1.883
87709W        W58309  24.910  13.294  13.463
87710W        W58310  24.933  35.817  12.459
87711W        W58311   2.554  27.707   3.133
87712W        W58312  29.494   8.482   2.735
87713W        W58313  15.838  33.978   1.954
87714W        W58314  41.168  28.377   4.930
87715W        W58315  18.326  44.323  11.093
87716W        W58316  39.992   7.356   4.151
87717W        W58317  24.691  34.097  11.022
87718W        W58318  40.947  41.209  11.040
87719W        W58319   0.351  36.600  12.654
87720W        W58320  19.216  40.261   1.340
87721W        W58321   1.202  39.550   0.902
87722W        W58322   7.682  19.862  13.892
87723W        W58323  31.100  11.652  10.505
87724W        W58324  26.286   2.831   2.442
87725W        W58325  18.301   5.716  13.767
87726W        W58326  41.270  31.400  13.531
87727W        W58327  24.902  14.220   1.765
87728W        W58328  36.518  10.263   4.472
87729W        W58329  28.942   1.700   4.270
87730W        W58330  14.661  42.035   1.341
87731W        W58331  30.110   8.117  11.179
87732W        W58332  11.295  36.346  12.007
87733W        W58333  42.806  13.380   4.621
87734W        W58334   2.994  23.096  10.771
87735W        W58335  27.410  16.211   2.170
87736W        W58336  17.437  36.825   4.237
87737W        W58337  39.116   8.399  10.706
87738W        W58338  36.476   1.501  10.713
87739W        W58339  39.545  24.529  14.481
87740W        W58340  42.321  25.691   0.248
87741W        W58341  38.029  37.841   3.407
87742W        W58342  40.584  32.044   5.079
87743W        W58343  44.961   7.889  14.748
87744W        W58344  31.397  11.093   4.946
87745W        W58345   2.363  13.846   1.412
87746W        W58346  21.984  41.367   0.680
87747W        W58347  16.062   8.174   0.337
87748W        W58348  21.274  28.767  12.537
87749W        W58349  33.165  17.690   1.750
87750W        W58350  43.142  23.110   4.307
87751W        W58351   2.271  41.000  12.384
87752W        W58352   9.705   0.061  13.065
87753W        W58353  37.281  38.914  12.855
87754W        W58354  29.412  41.424  11.320
87755W        W58355  14.124  28.632   2.816
87756W        W58356  34.615  33.073   1.838
87757W        W58357   3.926  39.998  10.619
87758W        W58358  18.099   9.101   3.558
87759W        W58359  19.679   6.179  11.410
87760W        W58360  31.702  43.955   1.259
87761W        W58361  28.727  28.293  13.331
87762W        W58362  28.968  43.439   3.592
87763W        W58363  21.440  15.757  13.014
87764W        W58364   6.718  13.882  14.536
87765W        W58365  29.097   4.214  14.544
87766W        W58366  23.299  17.168  12.438
87767W        W58367  20.591  32.421  14.544
87768W        W58368   8.202  11.868   3.336
87769W        W58369   7.406  31.386   0.859
87770W        W58370  18.564  30.720  11.373
87771W        W58371  15.522   3.262   2.347
87772W        W58372  30.003   7.152  13.043
87773W        W58373   3.799  23.958   4.555
87774W        W58374  31.801  27.032   4.495
87775W        W58375  27.433  43.225   3.198
87776W        W58376   0.348  15.564   0.004
87777W        W58377  16.010   7.665  12.050
87778W        W58378  21.547  29.085   3.579
87779W        W58379  31.135  27.184   3.236
87780W        W58380   0.394   4.619  12.859
87781W        W58381  36.395  21.512   4.704
87782W        W58382  36.868  41.037  12.458
87783W        W58383  13.325  10.322   3.404
87784W        W58384  26.089  12.194  10.960
87785W        W58385  24.461  11.846  13.308
87786W        W58386   1.502  20.058  12.942
87787W        W58387  26.579   7.765  14.552
87788W        W58388  12.789  23.586   4.140
87789W        W58389   8.147   5.951   4.044
87790W        W58390  27.999   4.216  11.511
87791W        W58391  30.546   6.257  14.533
87792W        W58392  29.984  28.889  14.939
87793W        W58393   9.601   3.905  14.274
87794W        W58394  19.289  38.282  13.003
87795W        W58395   7.225   1.279  14.922
87796W        W58396   0.495  13.935   1.344
87797W        W58397  26.472  41.887  14.296
87798W        W58398  35.346  44.179  11.766
87799W        W58399  16.035  15.593   9.960
87800W        W58400   1.695  19.894  12.057
87801W        W58401  42.035  18.989   0.944
87802W        W58402  16.882   5.064   2.901
87803W        W58403  37.251  27.370  10.993
87804W        W58404  26.369  14.634   4.174
87805W        W58405  23.572   2.324   0.932
87806W        W58406  18.846   5.241   4.932
87807W        W58407  12.439   2.278   0.373
87808W        W58408   2.031   5.890  13.547
87809W        W58409  30.136   6.437   4.569
87810W        W58410   3.899  10.317  10.506
87811W        W58411  24.805  42.478   1.081
87812W        W58412  43.854  16.775   4.474
87813W        W58413   6.933   3.271   2.244
87814W        W58414  24.755  40.122   4.063
87815W        W58415  12.886  24.248  14.403
87816W        W58416   3.337  13.595  14.867
87817W        W58417   3.642  14.666   4.744
87818W        W58418  38.850   1.326  14.768
87819W        W58419  43.742  33.974   0.235
87820W        W58420  28.268   4.077   2.536
87821W        W58421  36.657  42.271  11.866
87822W        W58422  20.150  32.150   3.270
87823W        W58423  15.182  42.456   1.617
87824W        W58424  23.501  21.329   9.858
87825W        W58425  13.602  30.229  12.301
87826W        W58426  28.682  41.247   5.141
87827W        W58427  20.602  25.550   4.476
87828W        W58428  31.575  22.171  12.063
87829W        W58429  44.411  30.195   0.899
87830W        W58430  31.046  37.438   3.730
87831W        W58431  42.881  18.753  13.080
87832W        W58432  15.287  26.167   0.248
87833W        W58433  11.017  30.576   0.703
87834W        W58434  17.077  28.196  11.513
87835W        W58435  14.180  11.223  10.699
87836W        W58436  38.757  41.020   1.454
87837W        W58437  10.481  42.286  10.468
87838W        W58438  13.276  26.063   2.303
87839W        W58439  42.378  36.326  14.060
87840W        W58440   5.101  26.959  13.430
87841W        W58441   0.810  12.042   4.313
87842W        W58442  11.212  40.582   4.560
87843W        W58443  39.872   0.827  13.062
87844W        W58444  16.305  39.158   3.030
87845W        W58445  43.259  27.380   0.498
87846W        W58446  33.980  12.631   2.873
87847W        W58447  15.622  39.410  13.427
87848W        W58448  38.926  38.944   2.189
87849W        W58449  18.273  40.754   2.266
87850W        W58450   0.790  29.398   0.279
87851W        W58451  32.638  10.323   1.306
87852W        W58452  18.211  13.773  10.623
87853W        W58453  22.146  32.531  13.424
87854W        W58454  11.147  12.299   4.263
87855W        W58455  21.328   0.348  14.471
87856W        W58456  11.298  40.808   4.096
87857W        W58457  27.618  31.530   3.700
87858W        W58458  19.810  32.354   4.169
87859W        W58459  20.740  40.970   2.827
87860W        W58460  20.332   2.159   2.280
87861W        W58461  13.900  17.746   0.341
87862W        W58462  19.292  15.592   1.304
87863W        W58463  24.948  39.949   0.356
87864W        W58464  18.902  18.813  10.866
87865W        W58465  35.641   6.107  14.458
87866W        W58466  10.761   1.865   1.752
87867W        W58467  10.364  43.003  14.209
87868W        W58468  12.127   7.503  11.990
87869W        W58469   3.340  20.298  10.525
87870W        W58470  30.773  25.657  12.649
87871W        W58471  42.448   6.750  13.875
87872W        W58472  36.911  11.567  13.012
87873W        W58473  11.885   6.303   2.677
87874W        W58474  25.184   1.212   3.985
87875W        W58475  16.637  18.991  10.562
87876W        W58476  21.546  25.161   4.211
87877W        W58477  31.105  43.299   3.666
87878W        W58478  16.918  35.524   0.162
87879W        W58479  12.130  30.167  13.470
87880W        W58480  26.534  44.366   1.859
87881W        W58481  40.323  38.941  13.096
87882W        W58482  34.625  29.377  14.065
87883W        W58483  43.547  20.799   4.016
87884W        W58484  27.503  19.815   1.677
87885W        W58485  36.411   8.216   1.628
87886W        W58486  37.895  14.182  13.917
87887W        W58487  11.840  21.156  13.136
87888W        W58488  20.743   2.193   3.344
87889W        W58489   3.836  14.303   0.074
87890W        W58490  40.790  35.944   4.934
87891W        W58491  40.715  40.280  13.604
87892W        W58492  43.661   7.867  13.595
87893W        W58493  13.804  12.647  11.560
87894W        W58494  15.617   6.712   4.785
87895W        W58495  26.511  18.508   4.467
87896W        W58496  16.316  22.759   4.585
87897W        W58497   4.084   6.039  14.923
87898W        W58498  38.849  12.792   3.264
87899W        W58499  20.524  40.846   3.707
87900W        W58500  36.587  37.216  13.286
87901W        W58501  27.576  37.499  14.601
87902W        W58502  38.611  17.392   3.671
87903W        W58503   6.066   0.318   1.983
87904W        W58504  12.376   5.436   1.021
87905W        W58505  24.234  13.317  11.262
87906W        W58506  25.761  29.505   1.230
87907W        W58507  41.018   4.443  11.483
87908W        W58508  20.589  44.769  13.493
87909W        W58509  35.829  12.635  14.217
87910W        W58510  12.773   9.354  11.369
87911W        W58511  19.298  11.123   2.206
87912W        W58512  17.332  14.355   1.892
87913W        W58513  44.784  27.633   2.446
87914W        W58514  35.763  28.111   1.125
87915W        W58515   3.559  11.276   0.850
87916W        W58516  15.070  42.764  13.105
87917W        W58517  32.586  22.970  14.376
87918W        W58518  39.009  17.029  11.262
87919W        W58519  19.362  37.385  12.012
87920W        W58520  32.279  43.949  12.813
87921W        W58521  21.343  10.647   0.692
87922W        W58522  21.232   7.126  14.281
87923W        W58523  36.337  38.027   4.693
87924W        W58524  25.146   9.720  14.395
87925W        W58525  29.535  28.562  10.679
87926W        W58526  30.133  10.288  14.924
87927W        W58527  41.513  30.126   1.309
87928W        W58528  39.732  38.791   4.569
87929W        W58529  31.095  39.806   3.604
87930W        W58530  13.763  40.514  11.261
87931W        W58531  32.064  29.702  12.382
87932W        W58532   0.293  35.102  14.488
87933W        W58533  38.975  37.040  12.374
87934W        W58534   6.515  37.427   5.176
87935W        W58535  12.464  40.372  12.534
87936W        W58536  18.481  11.760   0.355
87937W        W58537  13.737   5.230   4.675
87938W        W58538  17.243  21.203  13.711
87939W        W58539  27.688  34.808  14.965
87940W        W58540  36.120   0.949   0.713
87941W        W58541  11.174  32.554  12.870
87942W        W58542  22.983   5.493  14.239
87943W        W58543  20.633  14.330   4.899
87944W        W58544  20.830  38.599  10.880
87945W        W58545  27.169   5.121  12.086
87946W        W58546  28.502  33.064   1.696
87947W        W58547  19.901  19.276   4.438
87948W        W58548  20.730  29.696   1.433
87949W        W58549  43.561   7.554   0.569
87950W        W58550   3.421  33.666   4.886
87951W        W58551   9.864  10.892   0.734
87952W        W58552  13.285  26.461   4.571
87953W        W58553   9.437   4.773   1.380
87954W        W58554   8.847   2.992  12.582
87955W        W58555  25.030   6.881   4.542
87956W        W58556  38.362  23.935   3.773
87957W        W58557   8.406  33.503   3.179
87958W        W58558  34.485   2.316   1.776
87959W        W58559   4.900  37.200   1.327
87960W        W58560  27.073  31.058  10.752
87961W        W58561  25.541  37.019   1.850
87962W        W58562  18.994  20.186  11.367
87963W        W58563  32.621  33.299  12.022
87964W        W58564   8.373  30.462  10.596
87965W        W58565  33.240  24.382   0.866
87966W        W58566  19.282   9.246  12.522
87967W        W58567   7.321  31.573  12.021
87968W        W58568  38.836  32.570  13.330
87969W        W58569  19.336  43.266  13.998
87970W        W58570   5.713  23.361   2.750
87971W        W58571  27.204  19.805  12.299
87972W        W58572  11.307  30.579   3.235
87973W        W58573   9.599  18.694  11.081
87974W        W58574  39.353  30.904   1.982
87975W        W58575  28.455  17.958  14.173
87976W        W58576   0.238  35.390   5.125
87977W        W58577  20.863   0.285  14.880
87978W        W58578  22.985  16.233  14.507
87979W        W58579  35.390  39.108   2.615
87980W        W58580  39.965  27.627  11.626
87981W        W58581  26.175  14.865   0.328
87982W        W58582  35.565   3.918  14.504
87983W        W58583  18.090  12.249  11.862
87984W        W58584   3.000  15.763   2.235
87985W        W58585  38.355  18.414  13.923
87986W        W58586   4.139  37.047   0.761
87987W        W58587  41.079  30.387  13.962
87988W        W58588  19.496  17.108  14.306
87989W        W58589  21.186  33.849  12.979
87990W        W58590  30.499  41.419   3.534
87991W        W58591  11.704  10.610  14.517
87992W        W58592  19.463  30.093  12.591
87993W        W58593   9.767   1.310  13.801
87994W        W58594  20.000  13.751  14.386
87995W        W58595   2.169  19.099  11.632
87996W        W58596  39.339   0.203   2.748
87997W        W58597  16.881  14.199  13.654
87998W        W58598   9.198  34.483  11.690
87999W        W58599  11.472  16.763  12.998
88000W        W58600  28.322  40.550   2.393
88001W        W58601  31.564  16.653  11.917
88002W        W58602  28.787  12.157  14.369
88003W        W58603  12.750  15.760   3.858
88004W        W58604   0.880   1.747  14.581
88005W        W58605   3.648  25.236  11.809
88006W        W58606   8.998  43.995   3.701
88007W        W58607  28.677  25.405  12.843
88008W        W58608  28.944  16.350   2.318
88009W        W58609   0.174  30.511   3.566
88010W        W58610  37.087  33.117  13.952
88011W        W58611  25.541  33.513   3.827
88012W        W58612  24.537  35.516  13.768
88013W        W58613  35.350   7.660   2.095
88014W        W58614  40.162  24.230   2.619
88015W        W58615  30.672   9.347  11.106
88016W        W58616  43.198   4.405   1.861
88017W        W58617  27.110  16.695  13.563
88018W        W58618  11.424  16.158  14.466
88019W        W58619  27.549  22.923   2.441
88020W        W58620   4.326  37.062   3.418
88021W        W58621   3.326  40.431   4.988
88022W        W58622  30.958  30.893  13.888
88023W        W58623  38.967  15.682  10.864
88024W        W58624  35.502  20.753  11.977
88025W        W58625  37.030   0.433   0.543
88026W        W58626  40.431  13.347  10.692
88027W        W58627   4.822  22.468  14.791
88028W        W58628  22.219  34.371  14.542
88029W        W58629  30.858  41.305   1.284
88030W        W58630   2.188  22.489  12.569
88031W        W58631  30.970  26.532   1.171
88032W        W58632  40.551  14.336  10.665
88033W        W58633  41.829  41.255  11.421
88034W        W58634  12.104  12.369   4.620
88035W        W58635  25.099   4.156   4.646
88036W        W58636  30.934  33.357  13.246
88037W        W58637   4.577  20.984   0.761
88038W        W58638  28.983  17.804   0.293
88039W        W58639   2.289  16.359  11.694
88040W        W58640  10.307  30.231   0.104
88041W        W58641  15.470  10.880   4.979
88042W        W58642  11.935  20.211  11.662
88043W        W58643  30.576   3.553  13.796
88044W        W58644  25.171  40.714   0.781
88045W        W58645  33.409  32.556  10.550
88046W        W58646   0.850  24.012   3.670
88047W        W58647  42.164  12.287  12.103
88048W        W58648   5.324  29.758   0.925
88049W        W58649  26.966  32.089  13.524
88050W        W58650  28.926   6.933  14.414
88051W        W58651   4.999  44.534  12.549
88052W        W58652  44.339  13.775  11.979
88053W        W58653  32.453  28.119   0.187
88054W        W58654  43.883  16.003  11.632
88055W        W58655   6.463   1.266  13.070
88056W        W58656  36.501  30.053   3.985
88057W        W58657   5.372  26.984  11.207
88058W        W58658  30.945   8.292  10.477
88059W        W58659  33.958  19.611   0.163
88060W        W58660   7.775  32.647  14.978
88061W        W58661  26.755   0.322  13.580
88062W        W58662   1.386  27.156   4.501
88063W        W58663  16.065  13.156   3.708
88064W        W58664  44.268  43.739   1.722
88065W        W58665  18.011  15.903   2.398
88066W        W58666  41.753  38.070   3.737
88067W        W58667  40.307  16.382  13.120
88068W        W58668  17.154   8.997  11.628
88069W        W58669   7.960  37.449   3.619
88070W        W58670   6.386  12.108  10.934
88071W        W58671  26.563  20.568  10.635
88072W        W58672  10.845  29.140  11.993
88073W        W58673  22.995  32.062  12.045
88074W        W58674   2.249  12.737   2.802
88075W        W58675  42.475  12.130   1.506
88076W        W58676  19.355  20.961  11.636
88077W        W58677   1.985   1.312  14.748
88078W        W58678  12.722  36.418   4.380
88079W        W58679  37.026  27.981  13.543
88080W        W58680  13.801  20.673   0.847
88081W        W58681  41.834  43.544   4.752
88082W        W58682  40.880   9.148   1.315
88083W        W58683  11.257  41.031   0.506
88084W        W58684  34.053  35.590  11.550
88085W        W58685  39.967  16.097  14.924
88086W        W58686  13.040   2.850  11.447
88087W        W58687  44.403  36.492   0.408
88088W        W58688   5.213  31.389  12.298
88089W        W58689  36.308  10.701  11.186
88090W        W58690  25.843  34.844  11.047
88091W        W58691  38.439   3.928  13.803
88092W        W58692  20.728  36.670  12.752
88093W        W58693   9.250  38.761   0.982
88094W        W58694   1.774  38.382  14.446
88095W        W58695  42.576   5.736   1.903
88096W        W58696  35.590  39.408  12.568
88097W        W58697  37.857   9.088   1.757
88098W        W58698  29.111  44.240   2.236
88099W        W58699  21.754  19.852  13.908
88100W        W58700  33.383  10.448  10.636
88101W        W58701  29.663  18.018   3.279
88102W        W58702  23.161  21.272   4.165
88103W        W58703   1.344  40.829  14.367
88104W        W58704   7.771  16.560   0.919
88105W        W58705  30.316  26.204  11.316
88106W        W58706  43.786   0.828   0.354
88107W        W58707   2.265  13.161  11.828
88108W        W58708  37.452  24.954  10.673
88109W        W58709  26.504   7.862   1.503
88110W        W58710  33.606  10.626   3.747
88111W        W58711  10.760  20.656   4.118
88112W        W58712  20.595  42.483   2.324
88113W        W58713  28.987  17.299  10.555
88114W        W58714  11.859  17.988  11.660
88115W        W58715  14.266  13.398   3.343
88116W        W58716   0.021  11.547  12.163
88117W        W58717  11.904  28.929  10.377
88118W        W58718  10.801  14.315  11.685
88119W        W58719  42.053  41.087  10.609
88120W        W58720  22.665  40.240   1.788
88121W        W58721  18.763  19.710  10.848
88122W        W58722  13.836   8.411   4.743
88123W        W58723  14.123   6.318  13.526
88124W        W58724   4.360  37.892  11.600
88125W        W58725   1.324  34.572   3.203
88126W        W58726   3.625   9.382  12.015
88127W        W58727  26.349   8.152   2.762
88128W        W58728  36.878  26.049  14.837
88129W        W58729  44.777  39.793  13.835
88130W        W58730  30.173  13.502  14.442
88131W        W58731  35.547  44.927  11.238
88132W        W58732  44.468  34.978   4.162
88133W        W58733  13.763  39.978   3.995
88134W        W58734  23.727  36.289  12.441
88135W        W58735  26.251  24.046  10.648
88136W        W58736   6.646  27.229   2.250
88137W        W58737  28.796  29.631   4.647
88138W        W58738  28.145  19.861  10.556
88139W        W58739   3.997  26.488  14.416
88140W        W58740  21.725  21.994   4.134
88141W        W58741  40.595  32.047  12.639
88142W        W58742  44.296   0.026   4.143
88143W        W58743  21.664   7.646   3.859
88144W        W58744   3.271  35.338   2.800
88145W        W58745  35.912   3.341   2.624
88146W        W58746   4.185  15.619  11.970
88147W        W58747   7.858  28.997  14.152
88148W        W58748  33.944   6.460  10.283
88149W        W58749  39.506  42.276  11.082
88150W        W58750  41.626  31.174   2.661
88151W        W58751  27.993  13.618  11.059
88152W        W58752  14.255  25.956   2.847
88153W        W58753  20.789  39.500  12.997
88154W        W58754  32.106   0.310   2.527
88155W        W58755   0.360  17.087  11.930
88156W        W58756   9.682  24.136  13.277
88157W        W58757  38.860  39.867   0.620
88158W        W58758  33.772   2.660   1.422
88159W        W58759  21.475  42.039   4.542
88160W        W58760  14.697   1.451  13.416
88161W        W58761   0.514  35.885  13.753
88162W        W58762  43.418  12.579   4.716
88163W        W58763  40.824  23.196  12.429
88164W        W58764  36.587  35.003  13.922
88165W        W58765  38.604  16.912   0.736
88166W        W58766  13.263  23.051  14.936
88167W        W58767  37.885  37.421  12.711
88168W        W58768  19.118   4.778  14.891
88169W        W58769  29.048  13.876   4.128
88170W        W58770  23.021   9.796   4.815
88171W        W58771  35.970  14.029   0.877
88172W        W58772   3.705   5.231  11.643
88173W        W58773  20.480   3.229  13.380
88174W        W58774  39.994  42.358  14.158
88175W        W58775  39.406  11.511   3.214
88176W        W58776  17.666  39.881  14.625
88177W        W58777  26.543  31.907   1.438
88178W        W58778   7.839  30.831   0.459
88179W        W58779  32.130  37.567   1.277
88180W        W58780   2.990   6.966   0.498
88181W        W58781  12.715  32.589   2.387
88182W        W58782  27.510  15.821  12.437
88183W        W58783  18.285  28.398   1.652
88184W        W58784  11.095  32.428  11.167
88185W        W58785  19.042  16.091   1.314
88186W        W58786  12.764  26.920   3.354
88187W        W58787  32.896  15.309   3.791
88188W        W58788   4.366   9.119  10.771
88189W        W58789  33.022  28.644   2.609
88190W        W58790  37.713  22.063   1.521
88191W        W58791  29.452  20.747  11.196
88192W        W58792  17.371   4.700   0.788
88193W        W58793  39.731   7.222   3.700
88194W        W58794  13.286  15.633   0.957
88195W        W58795  37.995  11.171  13.686
88196W        W58796  27.106  19.714   3.401
88197W        W58797  31.960   2.158  11.122
88198W        W58798   2.990  18.069   1.825
88199W        W58799  16.119  41.821   0.235
88200W        W58800  13.288  14.319   1.037
88201W        W58801  29.564  31.573  13.930
88202W        W58802  14.645   1.251   0.946
88203W        W58803  36.014  12.266   4.649
88204W        W58804  27.763  24.046  13.314
88205W        W58805   1.719  28.218   4.190
88206W        W58806  43.023  27.149   3.510
88207W        W58807   3.229   9.763  10.956
88208W        W58808   8.119  43.023  11.300
88209W        W58809  37.787  29.017   4.078
88210W        W58810  16.101  36.312   1.719
88211W        W58811  19.679  37.404   4.833
88212W        W58812  41.009  44.606  13.517
88213W        W58813  16.527  15.519   4.961
88214W        W58814  22.438  36.632   1.301
88215W        W58815  27.655  26.934  13.101
88216W        W58816  30.458  18.561   0.004
88217W        W58817   0.774  44.022  14.908
88218W        W58818  14.661  21.171   2.601
88219W        W58819   9.174  32.533   3.381
88220W        W58820   0.534  37.406   3.652
88221W        W58821  32.650  16.380  12.598
88222W        W58822  19.545  44.469   1.845
88223W        W58823   5.745   0.895   3.805
88224W        W58824   3.262  29.617   2.405
88225W        W58825  33.144   8.378  12.068
88226W        W58826  35.433  31.786   2.251
88227W        W58827  31.596  12.105  14.318
88228W        W58828  27.910  39.976  10.652
88229W        W58829  23.107  28.861  14.892
88230W        W58830  44.282  18.569  13.451
88231W        W58831  39.829  22.775   3.583
88232W        W58832   3.782  22.946   2.704
88233W        W58833  19.025  21.057   2.249
88234W        W58834   0.957  14.398  11.534
88235W        W58835  34.192   9.225   2.728
88236W        W58836  12.586  40.185   0.380
88237W        W58837  10.390   7.368  12.220
88238W        W58838  28.908  19.515  13.298
88239W        W58839   3.966  35.322   4.892
88240W        W58840   4.764  16.953  13.841
88241W        W58841  33.825  17.810   0.846
88242W        W58842  24.219  38.456  12.584
88243W        W58843  42.738   0.781   0.100
88244W        W58844  23.599  37.865  11.777
88245W        W58845  42.112  18.643   3.262
88246W        W58846  17.787   2.762   4.210
88247W        W58847  15.319  11.784   2.178
88248W        W58848  15.621  21.255   1.146
88249W        W58849  31.950   4.670  13.341
88250W        W58850   3.956  27.993   0.499
88251W        W58851   6.673  27.915  13.651
88252W        W58852  18.448  20.918  11.643
88253W        W58853  34.906  35.904   0.471
88254W        W58854  44.800  44.963   2.404
88255W        W58855  32.901  12.617   0.367
88256W        W58856  21.092  24.304   2.137
88257W        W58857  19.034  30.911   2.192
88258W        W58858  38.075  32.611  11.109
88259W        W58859  28.089  33.994  12.396
88260W        W58860  23.795   3.671   3.372
88261W        W58861  28.566  29.727  13.453
88262W        W58862   3.969   8.000  13.353
88263W        W58863  12.641   1.723   0.002
88264W        W58864  20.201  22.494  14.820
88265W        W58865   4.411  36.129   0.154
88266W        W58866  21.561  42.801   4.178
88267W        W58867  21.558  39.955   1.418
88268W        W58868   1.310  16.384  12.267
88269W        W58869  42.255  13.651   0.236
88270W        W58870  38.551   4.634   9.928
88271W        W58871  30.393  18.609   1.238
88272W        W58872  12.846  43.702  12.440
88273W        W58873   5.469  20.439   1.017
88274W        W58874  21.461   1.716   4.296
88275W        W58875   0.701  42.836  10.305
88276W        W58876  21.184   0.953   4.915
88277W        W58877  34.259  38.646   4.574
88278W        W58878  16.242  37.597  14.841
88279W        W58879  42.341  30.445   0.392
88280W        W58880   0.888  27.049   4.401
88281W        W58881  19.153  32.843   2.435
88282W        W58882   4.874  39.681   4.882
88283W        W58883  38.123  42.508   3.070
88284W        W58884  37.003  11.904  11.468
88285W        W58885  32.809  22.537  12.056
88286W        W58886  32.265  30.575  11.571
88287W        W58887  23.580  31.010  14.218
88288W        W58888  20.784  38.056  10.780
88289W        W58889  13.558  35.989  14.803
88290W        W58890  15.597   0.358  14.133
88291W        W58891   4.145  33.058   1.239
88292W        W58892  43.409   6.534  11.598
88293W        W58893   0.711  20.034  10.713
88294W        W58894  16.084  29.183   1.299
88295W        W58895  39.450   3.536   2.787
88296W        W58896  27.180  19.512  13.852
88297W        W58897   0.366  34.433  14.845
88298W        W58898  37.488   9.706   4.244
88299W        W58899  21.058  31.863  10.804
88300W        W58900   0.777  30.174   0.086
88301W        W58901  11.531  19.728   3.325
88302W        W58902  23.033  20.922   0.586
88303W        W58903  11.781  39.234  12.901
88304W        W58904   5.795  38.816  12.964
88305W        W58905   5.321  27.100  12.158
88306W        W58906  43.778   3.436  13.945
88307W        W58907  27.705  34.540   2.304
88308W        W58908  31.231   0.479  12.062
88309W        W58909  28.845  36.061   1.457
88310W        W58910  34.149   4.360   3.512
88311W        W58911  23.731   5.821  14.813
88312W        W58912   1.847   2.838  14.804
88313W        W58913  33.524  39.327  10.694
88314W        W58914  30.502  32.613   0.471
88315W        W58915  24.279  38.466   1.817
88316W        W58916  30.183  37.772  12.497
88317W        W58917  31.357  29.720  10.663
88318W        W58918   0.873  30.122  11.478
88319W        W58919  16.757  23.500   2.414
88320W        W58920  28.904  34.323  10.700
88321W        W58921  12.211  24.163  13.530
88322W        W58922  20.950  12.551   2.347
88323W        W58923  18.129   1.916   2.525
88324W        W58924  16.175  19.763   0.569
88325W        W58925  25.942  32.953  10.469
88326W        W58926  16.855   4.875  13.469
88327W        W58927  22.178  43.338  14.242
88328W        W58928  40.398  34.970  13.926
88329W        W58929  44.084   5.453   4.649
88330W        W58930  16.278   1.976   3.229
88331W        W58931  22.579   2.232  13.513
88332W        W58932  18.130  27.566   3.547
88333W        W58933  15.597  13.765   2.849
88334W        W58934  27.979   5.415  12.723
88335W        W58935   6.298  22.190   3.183
88336W        W58936   9.199  24.719  12.124
88337W        W58937  29.032  27.545   4.167
88338W        W58938  33.168  44.269   2.264
88339W        W58939  32.091  16.440   0.551
88340W        W58940  36.577   3.399  14.137
88341W        W58941  42.906  36.673  12.959
88342W        W58942   6.932   8.311   4.536
88343W        W58943  25.204   7.351   0.481
88344W        W58944  27.589  11.348   4.989
88345W        W58945  31.459  29.708   2.864
88346W        W58946   2.036  29.274  10.757
88347W        W58947  35.149   9.126  11.971
88348W        W58948  29.627  25.613   2.630
88349W        W58949  37.572  25.804  13.866
88350W        W58950  33.393  20.650  14.286
88351W        W58951  39.130   6.959   2.851
88352W        W58952   1.268   7.214  13.009
88353W        W58953  17.381  35.888   4.047
88354W        W58954  39.912  12.848  12.947
88355W        W58955  29.424  29.526  11.118
88356W        W58956  27.212  21.161   0.968
88357W        W58957  44.523  21.974  12.319
88358W        W58958  20.949  14.075  13.913
88359W        W58959   3.032  44.512   4.605
88360W        W58960  21.090  30.080  14.850
88361W        W58961  18.533  35.938   3.725
88362W        W58962  31.861  23.087  12.081
88363W        W58963   0.885  18.292  11.219
88364W        W58964  22.226  22.884  14.367
88365W        W58965  14.567  20.998  12.014
88366W        W58966   2.358  26.607   4.594
88367W        W58967  18.592   9.660   1.426
88368W        W58968   6.243  41.396   0.494
88369W        W58969  31.829  22.653  12.401
88370W        W58970   8.330   3.749  13.990
88371W        W58971   0.936  29.211  13.934
88372W        W58972  17.664  40.754  11.093
88373W        W58973  14.576  25.954   1.950
88374W        W58974   3.399  34.036  13.144
88375W        W58975  26.624  19.494   3.497
88376W        W58976  29.415   1.210  12.680
88377W        W58977  36.381   4.311  12.064
88378W        W58978  32.581  40.549  14.907
88379W        W58979  29.152  25.642   3.362
88380W        W58980   7.389  17.787   2.757
88381W        W58981   7.651  38.553  14.424
88382W        W58982   9.242  28.358   0.668
88383W        W58983  17.501  22.034  12.565
88384W        W58984  35.640  20.007   0.461
88385W        W58985  21.613   7.005   0.020
88386W        W58986   4.873  31.171  14.456
88387W        W58987  20.528   9.908  14.551
88388W        W58988  34.030  21.487   3.106
88389W        W58989  31.449  20.058  12.963
88390W        W58990   7.620  38.429   0.289
88391W        W58991  35.564  33.187   1.887
88392W        W58992  35.836  36.914  12.400
88393W        W58993  33.048   2.388   2.876
88394W        W58994  17.028  35.782   1.768
88395W        W58995  34.859  29.391   0.524
88396W        W58996  20.003  24.728  12.875
88397W        W58997  35.366  27.666  14.997
88398W        W58998   5.744  34.138   3.423
88399W        W58999   3.960  16.176  13.390
88400W        W59000  20.324  32.454   0.829
88401W        W59001  22.142  40.255  10.980
88402W        W59002   6.138  33.922   3.139
88403W        W59003  25.144  17.127   0.819
88404W        W59004  22.978  13.540  13.464
88405W        W59005  17.828  32.164   1.536
88406W        W59006  18.114   1.928  11.927
88407W        W59007  25.988   2.183  12.497
88408W        W59008  32.840  26.761   2.738
88409W        W59009  22.412  22.549  12.624
88410W        W59010  16.822  41.446  13.241
88411W        W59011  41.253  23.644  10.863
88412W        W59012   6.739  35.327   3.931
88413W        W59013   5.423  23.949   3.753
88414W        W59014  31.640  21.281  14.768
88415W        W59015  30.035  17.194   2.728
88416W        W59016   2.248   1.712  11.546
88417W        W59017  39.431  30.181  12.692
88418W        W59018  27.560  29.480   0.883
88419W        W59019  26.066  44.535  13.634
88420W        W59020  27.019   3.062   1.696
88421W        W59021  17.733  10.789   0.993
88422W        W59022  11.398   7.718  14.847
88423W        W59023   3.551  12.167  12.445
88424W        W59024  31.667  32.003  12.347
88425W        W59025  44.703  40.479   3.698
88426W        W59026  31.643  26.946  13.146
88427W        W59027  35.105  41.634  13.258
88428W        W59028  32.327   8.868   1.314
88429W        W59029  15.560  20.548   2.715
88430W        W59030  44.852  41.258  12.822
88431W        W59031  31.182  33.864   4.112
88432W        W59032   7.876  44.874  12.909
88433W        W59033  15.674  11.475   5.078
88434W        W59034  25.985  28.979  14.964
88435W        W59035   5.853  38.008  13.541
88436W        W59036  26.459  33.268   4.201
88437W        W59037  35.025  30.951  12.481
88438W        W59038  13.331  16.337   1.716
88439W        W59039  13.873  12.369  13.406
88440W        W59040  20.229  10.108   1.269
88441W        W59041  12.880  37.331   9.665
88442W        W59042  34.510  26.140   2.283
88443W        W59043  30.567   9.727   3.722
88444W        W59044  36.811  21.779   1.896
88445W        W59045  13.833  25.009   0.781
88446W        W59046  37.548  33.239   4.704
88447W        W59047  39.222   2.650  14.896
88448W        W59048  12.831   2.529  13.838
88449W        W59049  24.514  24.214  10.682
88450W        W59050  31.422  27.965   2.371
88451W        W59051  14.346  15.942  13.378
88452W        W59052   7.960   1.240   2.923
88453W        W59053  32.420  44.139   3.709
88454W        W59054   0.484   5.202  11.288
88455W        W59055   0.670  30.177   4.646
88456W        W59056  37.026  40.688  12.015
88457W        W59057  20.622   2.685   3.623
88458W        W59058  20.676  17.581   3.772
88459W        W59059  36.911  32.835  12.114
88460W        W59060  23.043   4.036  14.424
88461W        W59061  22.626  12.895  12.431
88462W        W59062   2.992   4.683   2.742
88463W        W59063  29.056   5.518  11.118
88464W        W59064  24.794  43.803   3.672
88465W        W59065  27.038  29.907   0.268
88466W        W59066  17.554  33.341   3.113
88467W        W59067  19.499  13.133  11.422
88468W        W59068  23.951  42.737  13.516
88469W        W59069  27.350  23.285   3.454
88470W        W59070  18.324  36.482  12.797
88471W        W59071  26.129  42.949  14.356
88472W        W59072  37.477  41.098  12.868
88473W        W59073  44.905  40.716   4.750
88474W        W59074  16.494  44.027  13.293
88475W        W59075   2.944  25.960  13.542
88476W        W59076  29.605  32.558  11.465
88477W        W59077  19.161  31.445   2.228
88478W        W59078  14.775  26.020  11.786
88479W        W59079  20.798   7.205   0.362
88480W        W59080  39.356  22.112  13.902
88481W        W59081  16.587  18.462  10.582
88482W        W59082   5.471   6.347   1.186
88483W        W59083  19.105  27.930   3.265
88484W        W59084   7.108  32.102  10.633
88485W        W59085  10.561   5.240  10.703
88486W        W59086   5.464   8.374   3.720
88487W        W59087  44.506  37.389   3.643
88488W        W59088   6.406  35.661   2.621
88489W        W59089   5.329  15.554  14.338
88490W        W59090   8.168   9.313  10.714
88491W        W59091   6.432  27.095   3.203
88492W        W59092   4.899  11.294  11.995
88493W        W59093  25.304  23.145  14.541
88494W        W59094  23.520   9.675  12.162
88495W        W59095  27.901  31.978   3.676
88496W        W59096  44.980   5.703   1.573
88497W        W59097  25.166  23.668   1.932
88498W        W59098  28.603  21.719  12.118
88499W        W59099  40.642   3.713   2.969
88500W        W59100  25.160   4.495  12.549
88501W        W59101  39.942  42.063   2.259
88502W        W59102   3.103  15.901   4.872
88503W        W59103  11.248  14.473  14.547
88504W        W59104  43.456  27.669  14.018
88505W        W59105  13.738   0.059  11.685
88506W        W59106  44.624   1.152  11.422
88507W        W59107  43.386  35.365  11.591
88508W        W59108  14.754   3.783   1.289
88509W        W59109  18.544  31.168  14.992
88510W        W59110  10.871  18.248   1.951
88511W        W59111  42.353  18.701   0.627
88512W        W59112  12.580  23.091   2.458
88513W        W59113  22.703  10.809  12.956
88514W        W59114  39.579   4.317   9.851
88515W        W59115  38.071  20.757   1.861
88516W        W59116  36.557  24.479  10.527
88517W        W59117   4.736  23.558  11.194
88518W        W59118  36.890  10.995   3.939
88519W        W59119  44.059  42.793  14.772
88520W        W59120   5.801  13.634   1.827
88521W        W59121   0.556  43.947   3.117
88522W        W59122  37.315  32.885   0.288
88523W        W59123   9.169  36.824  14.764
88524W        W59124   8.970  32.080   0.439
88525W        W59125  11.483  31.533   4.178
88526W        W59126  35.425  42.526   2.754
88527W        W59127  11.146  44.310   2.870
88528W        W59128   8.314   1.363  13.518
88529W        W59129   4.508  26.669  13.398
88530W        W59130  30.774  32.866  13.906
88531W        W59131  13.537   3.896   3.630
88532W        W59132  11.441  41.060  12.959
88533W        W59133   7.328   7.875  12.516
88534W        W59134  35.798  39.298  11.193
88535W        W59135  36.682  39.672  11.216
88536W        W59136   5.581   1.454  13.396
88537W        W59137  21.533  42.019  11.188
88538W        W59138  39.338  10.146  14.800
88539W        W59139  30.443  14.482  14.508
88540W        W59140  18.543  17.106  13.013
88541W        W59141  29.562  14.839  12.406
88542W        W59142  40.301  13.803  14.227
88543W        W59143  23.667  39.067   3.278
88544W        W59144  33.073  17.185  14.534
88545W        W59145  43.124  29.707  14.576
88546W        W59146   8.359   6.507  11.560
88547W        W59147  29.843  30.609   4.559
88548W        W59148   8.147  32.131  11.921
88549W        W59149   9.120  24.670   3.936
88550W        W59150  39.892  29.442   1.956
88551W        W59151  33.624  20.239  14.497
88552W        W59152   4.230  35.455  14.902
88553W        W59153  33.249   2.666   1.214
88554W        W59154  15.767  16.046   4.077
88555W        W59155  43.904  27.670  11.537
88556W        W59156  11.302   8.252  14.844
88557W        W59157  33.700   6.396  12.383
88558W        W59158   2.529  16.742  13.924
88559W        W59159  34.098  12.917  13.811
88560W        W59160  41.605   1.636   4.854
88561W        W59161   5.187  10.727   3.281
88562W        W59162   7.857  42.801  13.043
88563W        W59163  26.719  11.311  13.861
88564W        W59164  38.160  36.583   1.233
88565W        W59165   7.596   6.960   3.320
88566W        W59166  40.894  21.358  13.426
88567W        W59167   9.167  20.973   0.462
88568W        W59168   3.814  39.350  11.785
88569W        W59169  37.150  27.208  11.635
88570W        W59170   7.021  17.026   1.755
88571W        W59171  38.799  43.767   1.766
88572W        W59172  27.702  34.313  13.409
88573W        W59173  17.157  42.806  13.738
88574W        W59174  23.953  15.620   0.008
88575W        W59175  29.595  27.406  14.235
88576W        W59176  19.485  40.061  11.939
88577W        W59177  11.328  20.572   4.234
88578W        W59178  22.318  33.982   4.870
88579W        W59179  29.519   5.118   1.545
88580W        W59180  32.023  12.787  12.868
88581W        W59181  25.508  29.502  11.664
88582W        W59182   1.924  20.911  11.881
88583W        W59183  26.085  42.075  12.565
88584W        W59184  29.300  27.087  13.969
88585W        W59185  10.201   8.271  11.622
88586W        W59186   8.213  33.659   2.146
88587W        W59187  38.935  10.803   0.980
88588W        W59188   5.430  15.129  10.569
88589W        W59189  39.921  42.885  10.660
88590W        W59190  42.987  18.901   4.417
88591W        W59191  40.068  15.659   4.177
88592W        W59192   5.299  16.252   0.782
88593W        W59193  28.241  42.040   1.151
88594W        W59194  35.450  31.409  14.771
88595W        W59195  15.263  38.270  13.481
88596W        W59196   2.498  10.147  10.596
88597W        W59197  43.559  10.841  11.221
88598W        W59198  37.652  26.523  13.092
88599W        W59199  21.724  34.512  14.472
88600W        W59200  21.511  10.720  13.383
88601W        W59201  43.532   0.012  13.021
88602W        W59202  30.563  14.213   1.055
88603W        W59203   7.691   2.636  14.532
88604W        W59204  44.950   7.256  10.955
88605W        W59205  43.032  25.544   1.309
88606W        W59206  27.539  16.640  14.837
88607W        W59207  18.002  11.777  13.494
88608W        W59208  43.921  13.713   5.006
88609W        W59209  10.702  36.413  14.591
88610W        W59210  36.454  11.864   1.236
88611W        W59211  27.153   5.754  10.787
88612W        W59212   4.719  31.687   3.689
88613W        W59213  24.075  39.487  14.965
88614W        W59214  44.329  30.156  13.914
88615W        W59215  11.102   8.894  12.000
88616W        W59216  34.343  13.741   2.240
88617W        W59217  28.367  10.368  10.667
88618W        W59218   9.923  35.584   3.637
88619W        W59219  40.272  11.602  14.515
88620W        W59220  31.563  37.032  14.711
88621W        W59221  39.905   5.313  13.362
88622W        W59222   9.018  42.313   4.308
88623W        W59223  19.785  36.521   3.834
88624W        W59224  13.246  37.962   1.762
88625W        W59225  18.668  20.266  12.611
88626W        W59226  43.710  14.986  14.422
88627W        W59227  39.988  31.839   2.135
88628W        W59228   5.465  38.455  11.226
88629W        W59229  39.748  21.578   1.807
88630W        W59230  17.191  36.266  12.605
88631W        W59231  41.257  22.861  11.106
88632W        W59232   0.231  30.211  14.956
88633W        W59233  34.339   0.441   0.369
88634W        W59234  25.008  32.700   3.413
88635W        W59235  31.277  42.696   3.292
88636W        W59236   2.764  12.745  13.444
88637W        W59237  35.449  17.609   0.883
88638W        W59238  30.454  13.393  13.984
88639W        W59239  11.337  17.775  12.846
88640W        W59240  28.954  43.251  13.524
88641W        W59241  37.749  30.576  12.117
88642W        W59242  24.919  27.491   0.335
88643W        W59243   3.165  11.183  13.458
88644W        W59244   7.952  29.995  13.609
88645W        W59245   6.446  34.437   2.242
88646W        W59246  24.889  12.676   2.375
88647W        W59247  31.447  23.593  13.213
88648W        W59248  16.759  21.509   4.124
88649W        W59249  44.293  40.684   3.983
88650W        W59250  34.991  37.948   1.788
88651W        W59251  14.143  17.678  12.462
88652W        W59252  36.424  13.671   0.421
88653W        W59253  28.058  38.257   4.187
88654W        W59254  11.037  21.384   0.929
88655W        W59255   0.599  23.683  12.171
88656W        W59256   6.349  43.194   2.809
88657W        W59257   9.050  15.005  14.262
88658W        W59258  36.942  25.238   2.359
88659W        W59259   7.708  29.522  12.224
88660W        W59260  30.511   3.404   4.178
88661W        W59261  12.239  35.825  10.650
88662W        W59262  18.191  44.192   2.157
88663W        W59263  25.559  23.188   2.812
88664W        W59264  44.489  16.248   1.903
88665W        W59265   0.361   4.790  13.851
88666W        W59266  13.231  22.035  14.860
88667W        W59267  31.966  35.356   1.278
88668W        W59268  22.398  41.022   1.269
88669W        W59269  28.112   5.479   4.501
88670W        W59270  14.669   0.325   0.942
88671W        W59271  43.876  33.043  12.500
88672W        W59272  10.703  17.691   1.193
88673W        W59273  26.013  22.951  13.022
88674W        W59274  36.449   0.245   4.798
88675W        W59275  36.559  12.292  10.791
88676W        W59276  25.131   0.003   3.256
88677W        W59277  15.194   9.622   2.372
88678W        W59278  21.856  27.674  13.856
88679W        W59279   1.160   4.330  10.417
88680W        W59280  12.793  26.269  13.485
88681W        W59281  39.041   5.569   2.856
88682W        W59282  24.792  34.924  11.084
88683W        W59283   2.116   8.320  12.532
88684W        W59284  26.600   2.751   1.412
88685W        W59285  32.716  15.600   1.293
88686W        W59286  16.653   1.600  13.977
88687W        W59287  29.411  44.267   1.792
88688W        W59288  30.441   8.700   1.752
88689W        W59289  12.309  26.387   0.502
88690W        W59290  23.226  32.476  10.697
88691W        W59291  19.140  25.071   4.635
88692W        W59292   5.337  10.694  14.043
88693W        W59293  21.911  15.251  11.494
88694W        W59294  41.459  43.443   4.373
88695W        W59295  21.041  37.053  14.402
88696W        W59296  23.232  33.556  12.329
88697W        W59297   6.787   9.392  14.951
88698W        W59298  36.170   2.414  12.513
88699W        W59299  20.290   0.534  13.545
88700W        W59300  12.121  18.795  14.837
88701W        W59301  30.428   4.674  12.331
88702W        W59302  28.504  17.151   4.445
88703W        W59303  27.419   6.165   2.478
88704W        W59304  22.515  17.759   3.087
88705W        W59305  38.062  22.113  14.539
88706W        W59306   5.153   9.713   0.304
88707W        W59307  39.395  37.314  12.519
88708W        W59308  19.935   5.348   0.876
88709W        W59309  36.662  14.823  11.439
88710W        W59310  19.707  14.217  12.633
88711W        W59311  30.545  28.836  13.415
88712W        W59312   6.346  38.943  10.465
88713W        W59313  39.714  26.481  11.951
88714W        W59314   2.555   1.337   4.676
88715W        W59315  37.898   3.342   3.683
88716W        W59316  27.567  27.965  13.033
88717W        W59317   6.676  43.386   4.554
88718W        W59318  18.808  42.331   4.258
88719W        W59319  33.679  24.478   2.256
88720W        W59320  13.391  16.070  12.421
88721W        W59321  13.354  33.590  12.457
88722W        W59322  42.010  13.120  11.893
88723W        W59323  33.963  39.074   0.280
88724W        W59324  14.765  15.953   4.131
88725W        W59325   7.582   8.866   2.361
88726W        W59326  26.484  33.784   4.075
88727W        W59327   6.059  28.572   1.825
88728W        W59328  43.924  35.591  12.307
88729W        W59329   2.727  30.129  14.997
88730W        W59330  27.490  26.713   1.308
88731W        W59331   0.508  26.034   1.632
88732W        W59332  42.473  17.520   2.560
88733W        W59333  41.919  38.217   2.989
88734W        W59334  15.632  25.670   4.872
88735W        W59335  38.368  44.509  13.068
88736W        W59336   2.729  43.412   1.471
88737W        W59337  19.803  26.616   2.606
88738W        W59338   0.873  22.215  11.110
88739W        W59339   5.670  39.983  13.727
88740W        W59340  23.592   4.721  12.035
88741W        W59341  29.990   0.475   1.498
88742W        W59342  36.197  11.648  14.817
88743W        W59343   3.319  18.129  14.932
88744W        W59344  11.640   1.515  13.037
88745W        W59345  31.882  23.171  12.581
88746W        W59346   0.721  16.256   1.331
88747W        W59347  14.705  16.203   3.147
88748W        W59348  42.836  25.734   3.714
88749W        W59349   0.752   0.062   3.023
88750W        W59350  40.590   0.968  10.961
88751W        W59351  43.052  29.600  11.660
88752W        W59352  31.649  23.177  13.450
88753W        W59353  19.366  39.493   1.961
88754W        W59354   5.594   5.708  11.939
88755W        W59355   4.177  35.357  11.205
88756W        W59356  28.798  44.816  14.421
88757W        W59357   0.500  22.103   0.366
88758W        W59358   0.777   5.968   4.271
88759W        W59359   7.219  38.491  13.343
88760W        W59360   5.394  26.173   2.839
88761W        W59361   6.313   5.379   0.044
88762W        W59362   9.235   8.243  11.269
88763W        W59363  17.285  40.161  14.374
88764W        W59364  13.315  33.530   1.083
88765W        W59365  12.786  31.518  14.513
88766W        W59366  35.944  24.961   0.881
88767W        W59367   7.780   9.350  12.039
88768W        W59368  22.479   6.605   9.928
88769W        W59369  13.567  19.182   2.887
88770W        W59370  13.756  22.610  12.902
88771W        W59371  20.563  31.959   2.048
88772W        W59372  20.294  35.442  12.485
88773W        W59373  30.330  11.108  11.230
88774W        W59374   7.920  36.434   2.753
88775W        W59375  44.983  12.744   3.163
88776W        W59376  23.500  25.696  14.998
88777W        W59377  41.196  25.642  13.307
88778W        W59378  41.570  21.134   1.468
88779W        W59379  41.981  32.781  14.186
88780W        W59380  38.579   0.120  12.989
88781W        W59381   5.441  25.500  14.372
88782W        W59382   0.041   2.273  12.945
88783W        W59383  14.096  44.614   9.427
88784W        W59384  32.564   3.502  13.152
88785W        W59385  41.917  31.461  10.766
88786W        W59386  44.669   6.935   2.199
88787W        W59387  36.202  32.044  10.278
88788W        W59388  18.287  29.892   2.153
88789W        W59389   7.766  20.553   4.160
88790W        W59390  18.853  12.951   3.893
88791W        W59391  27.293  23.791  12.517
88792W        W59392  39.525  20.201   1.596
88793W        W59393   4.576  25.163  11.507
88794W        W59394  29.729   7.653  14.401
88795W        W59395  10.851  25.282   0.925
88796W        W59396  14.074  25.963  11.939
88797W        W59397  36.031  22.569   1.331
88798W        W59398  11.704  18.521  10.761
88799W        W59399  13.409  22.541   2.683
88800W        W59400   8.407  27.165  10.662
88801W        W59401  30.829  31.024   4.121
88802W        W59402   1.311  12.569   1.765
88803W        W59403   8.864   0.006  12.597
88804W        W59404  21.389   1.245   2.374
88805W        W59405  16.648  44.667   1.669
88806W        W59406  31.893  26.353   2.769
88807W        W59407  25.676  44.476   0.987
88808W        W59408  36.460   2.577   3.617
88809W        W59409  20.695  15.061  11.922
88810W        W59410  12.085  33.038   4.241
88811W        W59411   4.327  38.536  11.452
88812W        W59412  38.837  35.449   3.524
88813W        W59413  10.630  31.487   3.616
88814W        W59414  15.673  13.087   2.346
88815W        W59415  19.258  13.643  14.072
88816W        W59416  24.697  40.870  12.098
88817W        W59417  31.608  18.525   0.714
88818W        W59418  10.551  38.790   3.709
88819W        W59419  14.723  40.910   1.874
88820W        W59420  38.963  37.392   1.841
88821W        W59421  16.231  18.210  13.832
88822W        W59422  16.694   3.970  11.153
88823W        W59423   0.843  31.298   2.775
88824W        W59424  14.449   1.500  11.197
88825W        W59425  18.102  27.601  12.091
88826W        W59426  26.675  26.693   4.115
88827W        W59427  31.560  29.133  13.985
88828W        W59428  11.605  30.161  13.407
88829W        W59429  21.607  42.929   3.292
88830W        W59430  43.336  26.417   3.256
88831W        W59431  20.464   1.326   4.355
88832W        W59432  37.561  38.017   3.226
88833W        W59433  32.020  34.005   4.894
88834W        W59434  28.015  24.140  14.866
88835W        W59435  31.157  17.262   1.041
88836W        W59436  25.919  14.237  11.904
88837W        W59437   1.932  22.641  13.759
88838W        W59438  34.431  34.310   2.430
88839W        W59439   2.997  23.283  13.441
88840W        W59440  21.041   2.644  11.213
88841W        W59441   4.805   2.345  11.531
88842W        W59442  16.007  44.202  12.017
88843W        W59443   0.190  27.286   4.120
88844W        W59444  31.427  18.061  12.903
88845W        W59445  15.727  14.537   1.636
88846W        W59446   9.953  11.155   0.276
88847W        W59447  15.907  20.512  11.084
88848W        W59448   7.280   1.252   4.118
88849W        W59449  28.074  14.696   2.387
88850W        W59450  12.146  13.582  14.851
88851W        W59451  20.158  30.559   0.902
88852W        W59452  20.854  34.829   4.132
88853W        W59453  36.666  31.440   4.132
88854W        W59454  44.832   7.640   3.065
88855W        W59455  22.429   7.132   9.889
88856W        W59456  36.643  32.106   2.800
88857W        W59457  20.562  11.675  13.330
88858W        W59458  36.086  21.066  13.950
88859W        W59459  37.957  35.214   0.928
88860W        W59460   5.319   3.324  14.540
88861W        W59461  43.191  14.860  13.613
88862W        W59462   9.925  10.290  11.701
88863W        W59463   5.102  20.208   1.283
88864W        W59464  43.501  24.021   3.182
88865W        W59465  12.858  10.419   3.648
88866W        W59466   6.871  41.465  12.395
88867W        W59467  21.206   4.443   4.223
88868W        W59468  17.568  29.216  14.751
88869W        W59469   9.203  43.928   1.083
88870W        W59470  26.994  22.538   4.038
88871W        W59471   6.316  25.648  13.258
88872W        W59472  19.271  29.346  10.685
88873W        W59473  17.858  20.616  12.537
88874W        W59474  35.860   6.212  14.001
88875W        W59475  31.753  42.187  11.159
88876W        W59476   7.804  36.047  10.024
88877W        W59477  13.044  42.239  14.540
88878W        W59478   6.573  38.970   2.690
88879W        W59479   6.319  19.357   3.267
88880W        W59480   3.298  33.085   4.009
88881W        W59481  16.223   0.299  13.407
88882W        W59482  22.293  28.686   3.717
88883W        W59483  41.108  20.157   0.887
88884W        W59484  11.352  25.121  14.180
88885W        W59485  17.302  25.973   0.817
88886W        W59486  22.249  35.533  13.006
88887W        W59487  10.358  23.685   4.630
88888W        W59488  41.766  11.412   2.225
88889W        W59489  40.027  20.164   2.841
88890W        W59490   6.461  26.542  11.816
88891W        W59491  11.963  11.417  14.336
88892W        W59492  38.067  32.174   4.252
88893W        W59493  20.700  33.282  11.518
88894W        W59494  38.890  42.975  12.465
88895W        W59495  15.530  24.612   4.128
88896W        W59496  27.551  18.629  12.842
88897W        W59497  13.077  14.819  10.622
88898W        W59498  32.635   9.166  12.978
88899W        W59499  23.544  36.831  12.480
88900W        W59500  22.428  11.664  11.567
88901W        W59501  37.821  41.070   1.622
88902W        W59502  43.462  25.714   3.877
88903W        W59503  35.272   3.325   0.770
88904W        W59504  35.080  29.944  12.525
88905W        W59505   2.475  20.603   1.609
88906W        W59506   3.284  44.140  11.620
88907W        W59507  37.945  21.619  13.841
88908W        W59508  31.374  21.453  11.642
88909W        W59509  43.662  33.913  13.019
88910W        W59510  13.126  31.927  12.449
88911W        W59511   9.369  23.543   4.605
88912W        W59512  20.491   4.891   0.219
88913W        W59513  31.970  28.437   0.760
88914W        W59514  28.895  23.198   1.237
88915W        W59515  14.116  17.275   2.674
88916W        W59516  15.135  15.919  12.098
88917W        W59517  39.418  27.160  12.038
88918W        W59518  44.374  13.199  12.649
88919W        W59519  37.004   8.812  12.414
88920W        W59520   4.770   1.802   3.602
88921W        W59521   4.018  16.299   0.853
88922W        W59522  26.408  34.542   3.320
88923W        W59523   6.285  10.422  13.036
88924W        W59524  23.098  21.042   0.062
88925W        W59525  14.648   4.885  11.987
88926W        W59526  19.783  34.774  11.701
88927W        W59527  17.210  34.658   2.247
88928W        W59528  29.879  14.809   1.398
88929W        W59529   0.824   0.719   0.101
88930W        W59530  43.844  31.237  14.862
88931W        W59531  30.264  36.079   3.712
88932W        W59532   2.672  10.176   2.842
88933W        W59533   2.834  26.240  10.944
88934W        W59534  10.713  34.173   2.822
88935W        W59535  20.611  36.445   0.073
88936W        W59536  37.063   9.484  13.873
88937W        W59537  15.161  18.252  13.866
88938W        W59538   1.905  29.765  10.615
88939W        W59539  23.633  40.100  12.568
88940W        W59540   5.318  16.260  14.858
88941W        W59541  13.422  21.349   0.703
88942W        W59542   4.589   4.294   0.908
88943W        W59543  26.412   7.659   5.037
88944W        W59544  11.418  32.898  11.057
88945W        W59545  17.762  31.710  12.929
88946W        W59546  39.829  30.449   1.170
88947W        W59547  23.288  13.159  14.761
88948W        W59548  27.741   8.265   1.715
88949W        W59549  13.494  22.633  11.205
88950W        W59550  24.766   6.329  11.428
88951W        W59551  15.292  23.484  12.497
88952W        W59552  36.079  33.043  13.911
88953W        W59553  25.431  18.628  12.302
88954W        W59554  18.510  38.949   0.477
88955W        W59555  40.799  16.753   4.553
88956W        W59556  36.879  23.109  13.922
88957W        W59557   5.866   3.285  10.681
88958W        W59558  13.172   7.495   0.365
88959W        W59559  13.447  18.744  14.407
88960W        W59560  21.647  22.110   3.226
88961W        W59561  13.750  12.097  11.550
88962W        W59562  13.380  40.976  14.912
88963W        W59563  21.944  17.671  10.617
88964W        W59564  35.951   3.107   3.106
88965W        W59565   2.009   4.197   2.741
88966W        W59566  44.351  38.966  10.358
88967W        W59567  23.487   6.626   0.754
88968W        W59568  30.693  33.638  11.887
88969W        W59569  27.412  29.404  14.871
88970W        W59570  31.952  28.028   4.452
88971W        W59571  36.388   6.738  10.739
88972W        W59572  13.142  12.834   0.839
88973W        W59573  12.897  12.027   4.260
88974W        W59574  36.827   6.759  13.676
88975W        W59575  14.034  30.401   1.433
88976W        W59576  25.453   9.296  14.343
88977W        W59577  21.532   4.139  12.803
88978W        W59578  14.847  30.010   1.451
88979W        W59579  11.065  38.912   3.729
88980W        W59580  33.340   8.810   1.417
88981W        W59581  28.391  11.165   1.321
88982W        W59582  11.435  43.371  13.367
88983W        W59583  24.813  22.488   4.156
88984W        W59584  29.527  28.643  14.945
88985W        W59585  42.972  35.734   3.365
88986W        W59586  29.885   0.933   4.610
88987W        W59587  38.792   2.937   1.905
88988W        W59588  20.139   8.932   3.221
88989W        W59589   8.625   8.810   4.819
88990W        W59590  22.686  42.457  12.469
88991W        W59591  27.956   5.496  12.171
88992W        W59592   8.996  43.689  12.021
88993W        W59593  23.448  14.450   5.088
88994W        W59594  22.554   4.688  11.142
88995W        W59595  22.806  29.119   1.101
88996W        W59596  44.978  10.987  14.835
88997W        W59597  36.595  18.991   3.220
88998W        W59598  18.077  41.418   3.554
88999W        W59599   2.984  11.455  13.002
89000W        W59600  32.861  14.805   3.526
89001W        W59601  30.889   1.194  14.009
89002W        W59602  18.222  42.860   2.192
89003W        W59603  37.955   1.785  11.019
89004W        W59604  44.431  43.903  11.996
89005W        W59605  29.185  26.460  11.360
89006W        W59606   3.552   6.917  12.078
89007W        W59607  12.574   0.019   2.683
89008W        W59608  22.345  39.564  12.905
89009W        W59609  19.735  17.125  10.698
89010W        W59610  26.698   0.382  14.543
89011W        W59611  24.648   8.824   2.794
89012W        W59612  19.094  43.526  11.532
89013W        W59613  13.683  21.692   1.001
89014W        W59614  40.499   8.623  14.742
89015W        W59615  42.832   6.882   4.104
89016W        W59616  38.900  38.786  13.054
89017W        W59617  26.557  27.876  12.088
89018W        W59618   7.545  11.931  14.768
89019W        W59619   5.631   2.830   2.686
89020W        W59620   1.937  32.916   3.294
89021W        W59621   2.501   0.369   4.567
89022W        W59622  13.947   3.148  11.041
89023W        W59623  16.796   9.887   0.181
89024W        W59624  25.249   5.493  13.069
89025W        W59625  19.610  24.991  10.676
89026W        W59626  10.682  21.013   3.743
89027W        W59627  40.060  21.335   0.517
89028W        W59628  43.345  12.188  14.306
89029W        W59629  35.913   4.486   1.946
89030W        W59630  23.709  19.316   0.670
89031W        W59631  11.478  41.761  12.766
89032W        W59632  15.387  43.346   0.285
89033W        W59633  10.572  30.762   4.342
89034W        W59634  23.056  26.109   4.209
89035W        W59635  26.611  16.818  12.497
89036W        W59636   5.003  12.131   3.025
89037W        W59637  44.855  12.254   4.472
89038W        W59638   1.217   6.840   4.002
89039W        W59639   3.875   6.387   4.485
89040W        W59640   5.381   3.423   1.210
89041W        W59641  29.919  13.188   2.632
89042W        W59642  36.647  44.946   3.570
89043W        W59643  13.867   1.822  14.331
89044W        W59644   7.431  38.549   0.774
89045W        W59645   8.985   5.047   1.396
89046W        W59646  23.614  17.191   1.473
89047W        W59647  15.402  29.019   2.808
89048W        W59648  21.013  44.255  11.556
89049W        W59649  39.298  34.431   2.319
89050W        W59650  31.165  37.666   0.295
89051W        W59651  10.291  32.842   0.296
89052W        W59652  38.144  19.992  14.505
89053W        W59653  28.593  14.824   1.753
89054W        W59654  33.148   4.931   0.554
89055W        W59655  39.510  23.180   3.342
89056W        W59656  15.638  11.572  11.489
89057W        W59657  32.525  15.322   1.705
89058W        W59658  10.294  34.660   2.217
89059W        W59659  39.283  22.048   3.419
89060W        W59660   3.936   6.133   0.420
89061W        W59661  24.231  42.290  12.373
89062W        W59662  24.201  22.578  10.194
89063W        W59663  22.583  33.728   9.974
89064W        W59664  23.527  42.762   0.987
89065W        W59665  13.798   4.351  13.832
89066W        W59666  21.574  23.625  12.933
89067W        W59667  16.277  13.346   1.337
89068W        W59668  21.139  33.117  14.321
89069W        W59669  23.591  23.814  14.909
89070W        W59670  44.315   7.462  12.606
89071W        W59671   5.872  27.063   4.053
89072W        W59672  33.297  15.113   0.913
89073W        W59673   5.315  34.787   0.475
89074W        W59674  17.290  39.460   1.002
89075W        W59675  29.650   6.778   2.728
89076W        W59676  35.013  26.009  11.275
89077W        W59677  22.003  14.419   1.829
89078W        W59678  26.555   8.293   3.534
89079W        W59679  30.947  25.915   2.445
89080W        W59680  33.249  37.339  10.217
89081W        W59681  12.383  24.593   0.494
89082W        W59682  11.199  34.800   0.914
89083W        W59683  17.587   8.957   3.080
89084W        W59684  16.006  28.218  13.563
89085W        W59685   7.404  35.864   3.230
89086W        W59686  30.071  22.270   0.950
89087W        W59687   0.014  23.133   0.835
89088W        W59688   4.009  40.760   3.518
89089W        W59689  28.916   6.927  13.533
89090W        W59690   0.045  43.844   0.540
89091W        W59691  39.911  15.724   4.694
89092W        W59692  13.665  13.852   3.231
89093W        W59693  39.537   1.526   1.866
89094W        W59694  32.830  17.316   2.013
89095W        W59695  29.713  24.065   0.368
89096W        W59696   8.176  27.552   0.327
89097W        W59697  26.691  18.106   1.581
89098W        W59698  18.265  33.760   2.997
89099W        W59699  26.965  33.493  13.275
89100W        W59700   1.846  31.158  12.109
89101W        W59701   4.301   7.811   0.967
89102W        W59702  30.683  35.133   5.101
89103W        W59703  35.976   7.826   3.896
89104W        W59704  42.849  20.406   4.041
89105W        W59705  11.261  28.916  11.597
89106W        W59706  21.559  14.646   0.501
89107W        W59707   4.557  13.541  10.974
89108W        W59708  36.123   7.235  12.755
89109W        W59709  33.107  41.286   0.261
89110W        W59710   2.665  22.516   4.701
89111W        W59711  23.272   1.412  13.324
89112W        W59712  13.060   6.488   4.201
89113W        W59713  13.692  40.212   1.330
89114W        W59714  35.223  29.068   4.015
89115W        W59715   5.682   7.489  13.086
89116W        W59716   9.757   1.418  13.290
89117W        W59717  11.309   6.441  11.992
89118W        W59718  11.647  31.979  11.814
89119W        W59719  42.324  38.515  14.443
89120W        W59720  10.080  29.139  14.337
89121W        W59721  14.166  37.430   4.198
89122W        W59722  31.071   8.175  11.209
89123W        W59723  30.040  41.915   3.526
89124W        W59724  22.369   5.703   1.343
89125W        W59725  27.945  27.523   3.412
89126W        W59726   1.493   4.199   2.632
89127W        W59727  32.697  11.326  12.732
89128W        W59728  41.039   3.833   0.398
89129W        W59729   9.838  22.764   2.673
89130W        W59730  21.344  29.471   3.946
89131W        W59731  24.965  38.484   3.745
89132W        W59732  29.880  43.035  12.423
89133W        W59733  14.720   3.502   4.240
89134W        W59734  30.574  36.403   2.320
89135W        W59735  43.415   0.000  14.498
89136W        W59736  11.034  25.492  14.333
89137W        W59737  23.184  11.872   0.843
89138W        W59738  33.560  16.600  14.392
89139W        W59739  34.556  43.369  13.402
89140W        W59740  39.470  44.857  14.567
89141W        W59741  16.651  43.272  12.995
89142W        W59742   6.231  28.132  10.774
89143W        W59743  24.042  28.770  12.567
89144W        W59744  30.094  13.393  12.651
89145W        W59745  24.583  25.064   1.824
89146W        W59746  30.981   9.413   3.647
89147W        W59747  30.907  13.142  13.967
89148W        W59748  37.077  34.086  11.039
89149W        W59749  35.648   4.789  10.654
89150W        W59750  11.728  33.616   3.814
89151W        W59751  15.222  28.735   3.184
89152W        W59752  18.235  11.213  12.596
89153W        W59753   5.134  25.699  14.871
89154W        W59754  29.892  23.781  11.089
89155W        W59755   1.264  26.846  10.496
89156W        W59756  24.505  14.550  11.979
89157W        W59757  36.920   4.471   2.724
89158W        W59758  25.401  25.490   1.743
89159W        W59759  40.936   9.340   4.103
89160W        W59760  14.767   4.258   3.789
89161W        W59761  21.765   9.661  14.867
89162W        W59762  14.811  11.292   0.907
89163W        W59763   9.162  29.471   3.965
89164W        W59764  37.446  18.687  11.190
89165W        W59765  11.262   2.782   3.633
89166W        W59766  43.405  36.388   3.560
89167W        W59767   7.055  10.271   2.128
89168W        W59768  24.100  38.987  14.336
89169W        W59769  35.510  27.478  14.054
89170W        W59770  16.027  35.422   1.193
89171W        W59771  16.886  32.220  14.447
89172W        W59772  13.788  44.724  10.630
89173W        W59773  41.233  41.971  14.450
89174W        W59774  18.637  24.917   4.025
89175W        W59775   1.910   4.061  11.129
89176W        W59776  38.598   8.360  10.587
89177W        W59777  24.604  44.299   3.596
89178W        W59778  12.058   9.478  13.002
89179W        W59779   0.918  15.222   4.559
89180W        W59780  37.179   5.901   4.712
89181W        W59781   0.849  19.100   2.619
89182W        W59782  19.328  37.853  11.200
89183W        W59783   5.635   1.282   1.496
89184W        W59784   5.125   3.171   0.037
89185W        W59785  24.184  34.657   0.133
89186W        W59786   2.788  28.684   3.373
89187W        W59787  13.903  22.253   3.599
89188W        W59788  30.443  31.760   1.979
89189W        W59789  14.630  40.456   3.223
89190W        W59790  43.013  20.168   4.469
89191W        W59791  17.439  29.593  12.817
89192W        W59792  36.343  43.387   1.916
89193W        W59793  31.003   7.846   4.605
89194W        W59794  22.212   4.212   4.130
89195W        W59795  10.732  22.588   0.019
89196W        W59796   6.288  24.566   4.577
89197W        W59797   2.871  28.613   2.864
89198W        W59798  36.304  42.465   0.946
89199W        W59799  19.568  21.258   4.144
89200W        W59800  24.565   8.242  12.527
89201W        W59801  26.091  43.971  10.732
89202W        W59802  38.457  36.039   0.736
89203W        W59803  20.393  18.974   1.317
89204W        W59804  30.482   8.886  10.833
89205W        W59805  18.145   3.685   4.477
89206W        W59806  21.190  27.054  12.316
89207W        W59807  41.944  32.860   2.135
89208W        W59808  41.232  29.919  14.873
89209W        W59809  18.960  41.336  12.568
89210W        W59810  30.102   9.784   1.808
89211W        W59811  27.702  29.930  12.495
89212W        W59812  37.064  42.739   1.860
89213W        W59813   4.293   0.362   4.080
89214W        W59814  28.173  44.024   3.919
89215W        W59815   6.556  43.651  12.026
89216W        W59816  36.686   9.131  13.987
89217W        W59817  33.646  35.127   1.270
89218W        W59818   7.984   1.459  12.804
89219W        W59819   2.321  24.710   3.312
89220W        W59820  11.777  23.968  11.677
89221W        W59821  25.248  36.175  11.180
89222W        W59822  22.375  14.220  10.570
89223W        W59823  26.912  27.156   2.175
89224W        W59824   0.287  14.082   4.893
89225W        W59825  33.731  22.655  14.126
89226W        W59826  26.216   4.706   2.711
89227W        W59827  42.514  40.917   4.483
89228W        W59828   1.721   5.375  11.690
89229W        W59829  24.726   3.856   2.251
89230W        W59830  43.283   9.600   2.691
89231W        W59831  24.597  17.371   3.257
89232W        W59832  35.230  32.111  14.372
89233W        W59833  26.008  34.048  14.622
89234W        W59834  13.043  14.596   3.758
89235W        W59835  12.870  35.383   0.310
89236W        W59836   5.153   1.681  12.972
89237W        W59837  23.527  24.938  13.372
89238W        W59838  34.411  17.126   3.181
89239W        W59839  29.508  11.399   1.557
89240W        W59840  28.489   3.066  11.232
89241W        W59841  27.066  11.416  11.663
89242W        W59842  41.472  40.862   2.327
89243W        W59843  17.061  36.414  10.595
89244W        W59844  16.546   6.723   2.676
89245W        W59845  30.621  29.135  13.855
89246W        W59846   0.162   2.212   4.274
89247W        W59847  32.010   5.434  12.276
89248W        W59848  38.376   3.883   4.166
89249W        W59849  33.364  27.039  12.876
89250W        W59850   8.550  40.850  12.546
89251W        W59851  28.976  15.197  11.140
89252W        W59852  18.198  24.082   3.831
89253W        W59853  42.409  29.131   3.256
89254W        W59854   0.823  23.887   1.609
89255W        W59855  25.534  37.860   2.052
89256W        W59856  40.482   8.672   4.881
89257W        W59857   5.663  12.572  13.807
89258W        W59858   8.844   4.898   0.066
89259W        W59859   8.319  12.473   4.025
89260W        W59860  30.101  10.864   1.836
89261W        W59861   9.581   8.364   1.880
89262W        W59862  37.996  15.917   3.814
89263W        W59863  38.879  30.447   3.684
89264W        W59864   0.770  24.877   0.076
89265W        W59865  19.726  28.987   4.591
89266W        W59866   4.736   2.705   3.604
89267W        W59867  18.051  39.278   3.625
89268W        W59868   9.164  30.997  14.947
89269W        W59869  15.262   6.174   4.186
89270W        W59870  34.365   9.872  10.686
89271W        W59871  34.246  42.378   1.232
89272W        W59872   7.922   3.873   0.045
89273W        W59873  36.745   8.371  14.554
89274W        W59874  10.460  25.610   1.028
89275W        W59875  32.027   0.592   4.974
89276W        W59876  38.344   8.342   3.381
89277W        W59877  16.511  34.201  13.413
89278W        W59878  20.061  17.101  12.032
89279W        W59879  21.800  20.018   4.145
89280W        W59880  20.501  32.937  13.784
89281W        W59881  29.707  31.857  10.687
89282W        W59882  23.161   7.571   2.667
89283W        W59883  43.274  34.871  11.587
89284W        W59884  41.278  42.919   2.012
89285W        W59885  32.728  19.508  13.951
89286W        W59886  13.861  31.645   0.988
89287W        W59887  32.163  15.113  13.031
89288W        W59888   3.189  17.650  12.986
89289W        W59889  13.350  33.455   2.329
89290W        W59890  13.687  27.209   3.687
89291W        W59891  44.163  34.200  10.562
89292W        W59892   0.850  16.969   0.653
89293W        W59893   2.065  34.999   4.056
89294W        W59894  17.778  41.832  11.069
89295W        W59895  29.215  23.287   0.295
89296W        W59896   3.695  38.974  12.137
89297W        W59897  39.429  18.127   3.130
89298W        W59898   2.764  42.018  10.928
89299W        W59899  18.658  30.976   4.637
89300W        W59900  36.371  38.636   1.870
89301W        W59901  33.062   7.372   1.538
89302W        W59902  20.528   5.298  10.989
89303W        W59903  12.283  34.678   0.738
89304W        W59904  12.959  10.582   3.145
89305W        W59905  12.167   8.304   4.866
89306W        W59906  43.944  35.907   4.081
89307W        W59907  21.253  33.566   0.455
89308W        W59908  28.076  12.391   0.901
89309W        W59909   4.299  31.966  11.520
89310W        W59910  21.614  36.334  10.784
89311W        W59911  43.888   8.296   0.830
89312W        W59912   6.702  15.851  11.465
89313W        W59913  41.351  36.480   1.516
89314W        W59914   5.591   7.868   0.686
89315W        W59915   7.166  38.071  12.539
89316W        W59916  22.548  13.182   3.911
89317W        W59917  34.425   6.108  12.847
89318W        W59918  15.742   5.236  11.899
89319W        W59919   1.434   9.447   3.343
89320W        W59920  31.876   4.317  11.993
89321W        W59921  21.669  37.903   2.324
89322W        W59922  37.303   7.189  11.078
89323W        W59923  10.753  25.139  14.927
89324W        W59924  41.528  43.733  12.019
89325W        W59925   3.276   4.999   1.518
89326W        W59926  14.834  21.478  10.487
89327W        W59927  28.018  33.844  13.977
89328W        W59928   1.377   8.897   4.483
89329W        W59929   2.921   1.002  13.607
89330W        W59930  16.471  21.378  11.998
89331W        W59931  24.176   5.935   1.708
89332W        W59932  35.971   3.297   1.704
89333W        W59933  43.490  23.432   0.921
89334W        W59934  25.957  21.061  14.787
89335W        W59935  24.619  37.160  12.410
89336W        W59936   0.390   7.428   2.566
89337W        W59937  30.147  19.553   0.479
89338W        W59938   5.864  31.522  10.519
89339W        W59939  24.087  32.819  10.799
89340W        W59940  36.055  42.660  14.918
89341W        W59941  44.313  40.505  11.164
89342W        W59942  30.850  11.112   1.237
89343W        W59943  24.609  32.157  13.292
89344W        W59944  38.639   7.931   4.089
89345W        W59945  27.078  32.356   3.381
89346W        W59946  35.661  11.850   4.146
89347W        W59947  19.666  15.288  11.216
89348W        W59948  19.216  28.427  11.585
89349W        W59949  30.361  21.069  14.263
89350W        W59950  30.545  12.802   4.466
89351W        W59951  30.152   0.170   4.262
89352W        W59952  39.003   1.192  10.622
89353W        W59953  37.530   8.477  10.529
89354W        W59954   5.628  30.797  13.455
89355W        W59955  30.887  27.094   4.161
89356W        W59956  29.754  26.576   0.283
89357W        W59957  35.919  33.007   2.200
89358W        W59958  34.131   0.760   1.220
89359W        W59959  41.561  22.491  11.890
89360W        W59960  14.598  26.550  13.432
89361W        W59961  19.627  36.331  13.023
89362W        W59962   3.206  26.946   2.038
89363W        W59963   4.018  43.977  11.197
89364W        W59964  31.785   3.509  11.463
89365W        W59965  18.669  27.818   1.378
89366W        W59966  18.194  29.183  13.483
89367W        W59967  35.959   5.640   4.673
89368W        W59968  16.263  40.918   0.704
89369W        W59969  18.483  41.934   1.798
89370W        W59970   7.073   2.533  13.403
89371W        W59971  42.754  29.354  12.838
89372W        W59972  23.281  15.787  12.189
89373W        W59973  38.528  15.981   3.664
89374W        W59974  30.715   5.731   0.307
89375W        W59975   8.611  24.837  14.962
89376W        W59976  12.374  35.810  14.161
89377W        W59977  21.827  32.940  11.997
89378W        W59978  13.810   0.357  13.447
89379W        W59979   1.365  37.038   2.026
89380W        W59980   4.645   7.309  14.785
89381W        W59981   2.693   2.435  10.992
89382W        W59982  30.373  34.119  13.106
89383W        W59983  25.926  19.688   2.715
89384W        W59984   6.217   1.038  11.297
89385W        W59985   1.708  20.087  13.427
89386W        W59986  34.001  21.059  10.608
89387W        W59987  10.250   1.447   4.302
89388W        W59988  34.411   0.060  13.981
89389W        W59989  13.881   4.870   2.292
89390W        W59990  24.822  26.894   3.550
89391W        W59991  14.361   9.702   2.724
89392W        W59992   8.789  39.927  13.286
89393W        W59993  30.521  29.587  12.929
89394W        W59994   8.499  32.188   2.656
89395W        W59995  31.080  15.526  12.612
89396W        W59996   5.631  31.171  13.829
89397W        W59997  39.098  28.476  14.215
89398W        W59998  34.120  32.241   1.411
89399W        W59999  16.076  15.748  12.617
89400W        W60000  39.321  39.611  11.551
89401W        W60001  19.621  42.192  14.317
89402W        W60002  23.025   9.544   0.372
89403W        W60003   0.914  26.978  11.633
89404W        W60004  35.534  23.044  10.787
89405W        W60005  21.107  29.486  14.335
89406W        W60006  22.456  27.268   2.529
89407W        W60007  19.729   0.605   0.260
89408W        W60008   8.918   1.356  14.815
89409W        W60009   5.228  35.513   3.194
89410W        W60010  24.079   4.208  10.682
89411W        W60011   6.391  23.498   1.448
89412W        W60012  19.747  30.471   4.609
89413W        W60013   0.020  14.308   4.501
89414W        W60014  14.928  34.949  14.319
89415W        W60015  24.975  22.082  11.618
89416W        W60016  26.824  21.588  14.823
89417W        W60017  30.606   4.917  11.914
89418W        W60018  21.195  40.417   4.603
89419W        W60019  36.091  15.963  13.815
89420W        W60020  20.130  44.544  13.396
89421W        W60021  31.064  19.654  14.531
89422W        W60022  27.086   6.308   4.896
89423W        W60023  32.156  12.298  13.667
89424W        W60024  12.543  41.832   1.775
89425W        W60025  24.302  16.555  11.042
89426W        W60026   4.511  35.818   2.357
89427W        W60027  11.381   5.818  14.415
89428W        W60028  28.930  29.088   1.798
89429W        W60029   9.784  18.694  13.028
89430W        W60030  40.787  32.137   0.450
89431W        W60031  21.676   5.181   0.341
89432W        W60032  28.433  38.486   5.124
89433W        W60033   4.865  16.734  10.571
89434W        W60034   2.621  43.811   4.267
89435W        W60035  39.493  44.626   4.849
89436W        W60036  10.220  16.412   0.853
89437W        W60037  15.702  19.262  11.296
89438W        W60038  13.996  43.049  11.816
89439W        W60039  44.377  30.538  11.609
89440W        W60040   7.961  17.704   4.790
89441W        W60041  12.300  24.207  14.373
89442W        W60042  36.121  12.062  13.117
89443W        W60043  40.492  22.478   4.990
89444W        W60044  13.190  21.602   3.177
89445W        W60045  20.074  30.293   2.876
89446W        W60046  44.871  28.906   0.466
89447W        W60047  29.821  14.217   4.652
89448W        W60048  28.515  39.693  11.205
89449W        W60049  31.188  31.049   0.307
89450W        W60050   0.960  25.286   1.343
89451W        W60051  42.453  18.353   2.904
89452W        W60052  25.247  20.291   0.944
89453W        W60053  38.024  30.916   0.732
89454W        W60054  32.227  15.621   1.151
89455W        W60055  18.009   0.421   1.095
89456W        W60056   1.289  15.545   2.823
89457W        W60057  40.467  23.586   2.131
89458W        W60058  12.710  16.640  10.661
89459W        W60059   7.241  39.431   1.199
89460W        W60060   3.496  35.579  13.854
89461W        W60061  34.121  34.394  12.387
89462W        W60062  34.940  33.590  10.756
89463W        W60063  18.585  26.704  12.130
89464W        W60064  13.300  35.432   1.557
89465W        W60065  25.691   8.854  11.929
89466W        W60066  23.704  17.991  11.487
89467W        W60067  23.274   6.627  13.917
89468W        W60068   3.380  35.487   4.353
89469W        W60069  33.872  37.329  13.885
89470W        W60070  21.172  30.964  13.844
89471W        W60071  25.524  24.422   2.211
89472W        W60072  40.869  36.071   3.361
89473W        W60073  39.832   0.050   2.785
89474W        W60074  42.816   8.426   4.070
89475W        W60075  21.557  25.375  12.404
89476W        W60076   1.722  43.412  14.568
89477W        W60077  11.113  38.063   1.460
89478W        W60078  26.127  25.612  13.324
89479W        W60079  36.185  34.460   0.463
89480W        W60080  31.458   6.529   2.213
89481W        W60081  17.210  13.895   0.276
89482W        W60082   7.188  28.016  13.603
89483W        W60083  12.265  41.526  13.897
89484W        W60084  20.521  14.254  11.893
89485W        W60085  32.138  34.834   2.275
89486W        W60086  11.732   6.302   0.200
89487W        W60087  33.940  30.775   1.457
89488W        W60088  32.878   0.161   2.191
89489W        W60089   5.457  38.666  14.790
89490W        W60090  29.378  32.204   0.304
89491W        W60091  11.077  33.413   0.536
89492W        W60092  18.335   1.842  12.760
89493W        W60093  20.286  41.436  10.676
89494W        W60094  15.107  29.042  13.972
89495W        W60095   3.101  21.258   3.029
89496W        W60096  33.620  41.518   0.957
89497W        W60097   5.673  10.753  11.962
89498W        W60098   4.228  37.499  12.029
89499W        W60099  30.146  42.453  14.510
89500W        W60100  35.002   6.970   0.884
89501W        W60101   5.113  14.125  12.480
89502W        W60102  24.678   1.939   0.788
89503W        W60103   9.582  31.133  13.655
89504W        W60104  44.888  40.169  11.990
89505W        W60105   4.459   3.313   2.689
89506W        W60106  23.844  22.432  12.936
89507W        W60107  26.961  42.963  10.269
89508W        W60108  42.753  21.703  12.445
89509W        W60109  27.477   0.927   2.336
89510W        W60110  21.243  34.456   0.360
89511W        W60111   0.894   9.341  12.412
89512W        W60112  36.314   3.223   0.912
89513W        W60113  18.032  12.167  13.169
89514W        W60114  12.191  20.364  12.645
89515W        W60115  42.054  39.559  14.226
89516W        W60116   0.968  25.402  10.793
89517W        W60117  36.424  39.024  14.891
89518W        W60118  33.860  31.458   3.659
89519W        W60119  39.930  10.199   1.914
89520W        W60120  36.992  23.631   2.883
89521W        W60121  43.883  37.466  11.895
89522W        W60122  42.181   9.183   1.962
89523W        W60123  16.424  16.806   0.247
89524W        W60124  17.578  37.022  13.501
89525W        W60125  38.655  32.123  11.146
89526W        W60126  37.797  34.527  10.714
89527W        W60127   3.832   5.709   2.833
89528W        W60128   7.737   1.372   4.558
89529W        W60129  12.377  23.572  12.000
89530W        W60130  13.335  25.443   2.320
89531W        W60131  35.773  31.949   0.581
89532W        W60132  16.005  42.888   0.729
89533W        W60133  12.065  42.964  13.817
89534W        W60134  27.740  26.032   3.668
89535W        W60135  10.531  22.455   4.655
89536W        W60136  44.480  42.845  12.816
89537W        W60137   4.511  19.509   1.551
89538W        W60138  24.439   8.154   3.195
89539W        W60139  30.954  25.759   3.393
89540W        W60140  34.637  33.443   0.916
89541W        W60141  31.512  31.432   4.566
89542W        W60142  36.427   3.975  12.727
89543W        W60143  33.817   1.795   3.250
89544W        W60144  38.531  43.542  12.960
89545W        W60145   9.289  18.807   1.206
89546W        W60146  44.951  10.617   2.259
89547W        W60147  15.663  33.399  14.322
89548W        W60148  19.631  15.577   1.721
89549W        W60149   3.000   6.487   3.944
89550W        W60150  26.441  19.155  14.372
89551W        W60151  27.886  19.724   3.367
89552W        W60152  43.292  33.918  12.422
89553W        W60153  15.593   4.473   2.866
89554W        W60154  43.387  24.848   0.793
89555W        W60155  35.875  35.014  11.618
89556W        W60156  25.303   7.320   4.590
89557W        W60157   5.394  29.943   4.082
89558W        W60158  22.250  18.723  12.691
89559W        W60159  34.121  20.268  11.664
89560W        W60160  39.173  44.260  12.118
89561W        W60161  44.724  12.847  12.468
89562W        W60162  40.496  36.857  14.483
89563W        W60163  21.606  10.777   2.810
89564W        W60164  35.910   1.039  11.670
89565W        W60165   3.036  23.068   3.774
89566W        W60166  26.920  44.799  12.400
89567W        W60167  42.350  38.545  14.958
89568W        W60168  31.099   4.232   1.376
89569W        W60169  28.116  12.673   3.217
89570W        W60170  30.175  10.807   0.033
89571W        W60171  13.396  14.309  13.959
89572W        W60172   3.844   3.385   0.314
89573W        W60173   9.147  16.489  14.728
89574W        W60174  15.094  26.124  13.901
89575W        W60175  12.156  12.053  12.027
89576W        W60176  43.199  13.795  11.594
89577W        W60177   9.251  15.779  11.993
89578W        W60178  21.264  43.730   3.732
89579W        W60179  40.828  43.128  10.792
89580W        W60180  36.381  34.114   1.800
89581W        W60181   5.319  22.438   3.593
89582W        W60182   1.207  37.697   4.170
89583W        W60183  24.659  32.163   4.167
89584W        W60184  21.045  15.517  14.452
89585W        W60185  10.801  36.484   0.596
89586W        W60186  30.410   9.677  14.982
89587W        W60187  44.449  27.176  13.076
89588W        W60188  18.975  10.651   2.310
89589W        W60189   2.276   2.325   2.565
89590W        W60190   8.878  30.805  11.317
89591W        W60191  38.268   1.879   3.085
89592W        W60192  34.301  24.499  14.315
89593W        W60193  21.506  44.163  14.975
89594W        W60194   5.752  38.494   0.751
89595W        W60195   1.952   1.013   4.192
89596W        W60196  25.543  14.100  13.419
89597W        W60197   9.137  40.406  10.652
89598W        W60198   6.805   0.491  11.897
89599W        W60199   7.938  12.117   4.446
89600W        W60200   6.899   5.855   2.225
89601W        W60201   8.124  14.602   0.037
89602W        W60202  17.742  14.616  14.980
89603W        W60203  39.864  28.570  13.018
89604W        W60204  39.453  39.890   1.598
89605W        W60205  24.293  32.396  11.503
89606W        W60206  31.800  11.124  13.149
89607W        W60207  17.718  18.252  13.529
89608W        W60208  21.321  15.610   5.101
89609W        W60209  19.804  42.757  13.424
89610W        W60210  39.525   5.783  12.386
89611W        W60211  39.609  37.527   4.431
89612W        W60212  35.421  34.762  11.499
89613W        W60213  22.795  41.946   0.924
89614W        W60214  27.229   0.312  10.681
89615W        W60215  18.667  28.273  10.716
89616W        W60216  10.325   8.380   4.656
89617W        W60217  40.956  18.102   5.350
89618W        W60218  25.146  18.059   3.176
89619W        W60219  10.541   7.289  14.821
89620W        W60220   8.160  29.559  13.381
89621W        W60221  31.937  41.487   4.550
89622W        W60222  11.619  29.956   2.853
89623W        W60223  34.922   7.419   2.868
89624W        W60224  44.839  21.068   0.040
89625W        W60225  19.023  19.305  12.445
89626W        W60226  25.301   3.197  10.374
89627W        W60227  17.362  33.045   2.639
89628W        W60228   3.315  30.430   4.888
89629W        W60229  26.695  29.226   2.684
89630W        W60230  18.790  27.293   1.382
89631W        W60231  16.162  20.734   0.923
89632W        W60232   6.497  32.009  12.846
89633W        W60233  29.986  10.311  10.937
89634W        W60234   4.570  28.252  13.694
89635W        W60235  19.611   9.653   2.231
89636W        W60236   1.736   1.036   5.089
89637W        W60237  35.511  13.617   3.698
89638W        W60238  43.813  18.862   0.537
89639W        W60239   7.620  19.845   3.755
89640W        W60240  13.709  16.659   4.583
89641W        W60241   5.340   8.600   3.268
89642W        W60242   9.227  11.728   1.355
89643W        W60243  20.517   1.700   3.599
89644W        W60244   4.197  22.773  11.604
89645W        W60245  41.963  25.637   3.674
89646W        W60246   3.018  42.994  13.917
89647W        W60247  31.328  23.637  11.128
89648W        W60248  15.856   2.842   1.430
89649W        W60249  28.613   3.805  12.629
89650W        W60250  35.162  32.606  12.459
89651W        W60251   8.905  41.782  11.659
89652W        W60252  21.985  44.859   2.442
89653W        W60253  31.993  12.102   2.699
89654W        W60254   4.700  16.753  13.006
89655W        W60255  44.946  38.276   4.595
89656W        W60256   7.072  41.885  11.903
89657W        W60257  31.989  22.583  10.881
89658W        W60258  35.516   3.469   1.517
89659W        W60259  33.636  19.717   3.640
89660W        W60260  11.695  34.117   3.597
89661W        W60261  29.458   2.694   2.017
89662W        W60262   6.233   7.752  13.978
89663W        W60263  24.437  31.466   0.501
89664W        W60264  15.840  44.767   1.335
89665W        W60265  35.305  23.663   1.371
89666W        W60266   7.581  18.959  13.845
89667W        W60267   0.376  44.819  13.002
89668W        W60268   0.515  11.252   4.212
89669W        W60269  10.917  18.295  12.423
89670W        W60270  16.235  30.462   4.547
89671W        W60271   1.674  20.838   1.347
89672W        W60272  31.972   1.891  14.117
89673W        W60273  12.948  10.363  12.190
89674W        W60274  18.349  20.190   1.254
89675W        W60275  11.239   9.761   3.427
89676W        W60276  42.835  38.794   4.198
89677W        W60277  17.284   3.545  13.345
89678W        W60278  15.330  20.686   4.582
89679W        W60279  21.497  26.658  13.976
89680W        W60280  11.660   7.868   1.312
89681W        W60281   7.699  22.877   5.063
89682W        W60282  30.875  12.074   2.230
89683W        W60283  23.391  32.095   4.576
89684W        W60284  34.634  25.406  10.751
89685W        W60285  15.544  25.648   2.610
89686W        W60286   0.927  27.251  12.140
89687W        W60287  28.788  40.275  12.965
89688W        W60288  44.788  16.757   0.011
89689W        W60289  41.913  31.632  12.517
89690W        W60290  43.703  41.110  11.547
89691W        W60291  28.272  40.794  14.797
89692W        W60292   2.445  16.212  14.591
89693W        W60293   0.839   0.654  11.707
89694W        W60294  33.425   9.718   2.308
89695W        W60295   6.908  35.944   4.182
89696W        W60296  13.336   4.343  14.053
89697W        W60297  33.045  37.456   4.632
89698W        W60298  36.011   5.760  12.889
89699W        W60299  21.189  23.955   3.087
89700W        W60300  15.572  40.274  11.735
89701W        W60301   7.605  14.667  14.981
89702W        W60302  26.980  37.518   3.211
89703W        W60303  15.501   2.850   4.314
89704W        W60304  37.013  22.731  11.872
89705W        W60305  23.666  22.633   3.225
89706W        W60306  38.084  37.722  13.616
89707W        W60307  36.339  11.244   1.053
89708W        W60308  39.223  21.050  13.756
89709W        W60309  14.995  32.548   3.628
89710W        W60310   8.130  21.641  13.394
89711W        W60311   8.245  32.532   4.352
89712W        W60312  17.777   8.936   1.637
89713W        W60313  41.724  31.388  13.158
89714W        W60314  14.458  15.191   4.254
89715W        W60315   7.826  42.978   3.451
89716W        W60316   8.481  39.266  12.544
89717W        W60317   6.911  38.834  14.858
89718W        W60318  21.638  23.240   0.889
89719W        W60319  28.254  15.811   3.644
89720W        W60320  16.886  18.838  11.871
89721W        W60321   2.376  43.464   3.344
89722W        W60322  35.995  25.223   4.845
89723W        W60323  21.743  18.764  12.530
89724W        W60324  35.068   5.858  13.343
89725W        W60325  33.517  26.088   4.485
89726W        W60326  21.024   5.279  13.898
89727W        W60327  21.266  25.761   4.284
89728W        W60328   4.171  38.941   4.581
89729W        W60329  16.322  10.400   4.468
89730W        W60330  36.024  12.215   4.118
89731W        W60331   5.616   4.776   0.417
89732W        W60332   3.742  42.290  14.916
89733W        W60333  13.700  35.024  12.113
89734W        W60334  34.724  11.586  11.097
89735W        W60335  18.751  24.951   4.947
89736W        W60336  37.130   1.725   0.966
89737W        W60337  30.694  44.555  11.124
89738W        W60338  20.288  22.236  12.844
89739W        W60339  25.942  17.098  11.468
89740W        W60340  19.385  34.599   4.192
89741W        W60341  30.923  16.257  14.707
89742W        W60342  17.100  39.916   1.673
89743W        W60343  20.064  30.439  11.467
89744W        W60344  23.529  19.995  12.008
89745W        W60345  26.569  28.671  12.526
89746W        W60346   0.996  25.206   0.421
89747W        W60347  22.602  20.716  10.472
89748W        W60348  27.030   4.780  10.583
89749W        W60349  20.018  15.310   3.401
89750W        W60350   3.272  25.080  10.805
89751W        W60351  34.907  40.537  12.936
89752W        W60352  18.582   5.487   1.151
89753W        W60353  43.544   2.335   3.212
89754W        W60354  37.364  36.348   5.009
89755W        W60355  42.462   7.391   1.488
89756W        W60356  14.219  31.040   4.212
89757W        W60357  23.430  28.399   4.674
89758W        W60358   7.882   8.439   2.378
89759W        W60359  31.587  32.332   2.173
89760W        W60360  32.883  30.857   2.422
89761W        W60361  32.164  13.744   1.966
89762W        W60362   5.715  12.389  12.060
89763W        W60363  13.530   5.975   4.216
89764W        W60364  44.833  19.546  12.649
89765W        W60365   9.159   8.781   2.127
89766W        W60366  19.066  12.179  10.817
89767W        W60367  25.535  32.609  10.921
89768W        W60368  38.286   5.017   4.638
89769W        W60369  25.307  17.632  11.190
89770W        W60370  41.093  40.500   1.403
89771W        W60371   9.304  21.798   0.849
89772W        W60372  12.099  18.312   2.251
89773W        W60373  28.699   1.034   3.658
89774W        W60374  39.611  34.460  11.141
89775W        W60375  32.874  21.062   0.344
89776W        W60376  38.868   1.376  11.081
89777W        W60377   4.239  41.811   4.701
89778W        W60378  37.227  29.924   2.047
89779W        W60379  34.789  24.828  14.598
89780W        W60380  32.213   8.918   3.590
89781W        W60381  38.547   9.099  11.065
89782W        W60382  41.391  15.930   4.439
89783W        W60383  21.758  17.181   2.878
89784W        W60384  25.129   8.283  11.033
89785W        W60385   5.308   5.786   0.474
89786W        W60386  25.184  30.036  10.721
89787W        W60387   0.457  28.652  14.139
89788W        W60388  29.988   5.678  14.565
89789W        W60389  40.890  38.506   3.319
89790W        W60390  12.213  32.708  14.067
89791W        W60391  15.007   0.723   5.058
89792W        W60392  39.362  43.805   0.013
89793W        W60393   5.549  38.375   4.680
89794W        W60394  24.093  30.474   1.350
89795W        W60395  18.097  13.266  12.430
89796W        W60396  38.107  41.352  12.987
89797W        W60397  21.487  32.136   4.671
89798W        W60398   5.970   2.880   0.029
89799W        W60399  14.170  31.177  14.350
89800W        W60400  20.651  27.269  14.243
89801W        W60401   0.352   8.597   0.432
89802W        W60402  16.805   2.298   3.134
89803W        W60403  28.557  28.649  14.171
89804W        W60404   5.669  24.528  14.772
89805W        W60405   7.449   0.520  12.448
89806W        W60406   9.971  13.255   4.499
89807W        W60407  26.285  43.590  13.851
89808W        W60408  15.240  15.341  12.553
89809W        W60409   4.148  16.472  12.993
89810W        W60410   0.164  38.958  14.800
89811W        W60411  10.776  13.640   2.408
89812W        W60412  14.208  12.229   4.533
89813W        W60413  16.277  37.332  12.846
89814W        W60414  30.834  42.000   9.710
89815W        W60415  41.354  19.564   0.846
89816W        W60416  27.635  25.409   0.830
89817W        W60417  35.858  11.799   2.111
89818W        W60418  12.558  29.607   1.428
89819W        W60419  20.624  43.673   4.552
89820W        W60420  28.149  42.085  11.205
89821W        W60421  33.133   3.648   5.109
89822W        W60422  43.788  40.539   1.060
89823W        W60423   5.070   1.336  13.381
89824W        W60424   4.862  31.451   2.708
89825W        W60425  38.845   9.387  11.372
89826W        W60426  25.080  39.315   2.668
89827W        W60427  17.226  23.964   4.192
89828W        W60428  37.870  28.141  10.981
89829W        W60429  33.580  35.405   0.842
89830W        W60430  39.478   7.786   0.898
89831W        W60431  34.458  36.268  11.961
89832W        W60432   5.869  37.080   3.128
89833W        W60433  44.721  18.804  13.111
89834W        W60434  39.270  24.179  12.483
89835W        W60435  37.434  12.962  10.348
89836W        W60436  18.805  29.558  11.946
89837W        W60437  14.278  22.727   0.009
89838W        W60438  22.610  39.411  12.450
89839W        W60439  19.127  27.425   3.247
89840W        W60440  42.759  22.150  12.140
89841W        W60441  33.398  18.993  12.919
89842W        W60442   5.913  39.855   4.091
89843W        W60443  30.060   2.906   3.873
89844W        W60444  28.066  17.221   4.110
89845W        W60445   9.747  30.672   4.259
89846W        W60446  39.042  35.681   0.002
89847W        W60447  27.457   3.736   2.148
89848W        W60448  25.951   9.338   0.819
89849W        W60449   0.793  32.911  10.931
89850W        W60450  18.065  29.730  11.282
89851W        W60451  11.755  41.580   0.899
89852W        W60452   7.445  39.722  11.303
89853W        W60453  29.701  42.983   3.481
89854W        W60454  33.860  22.035   4.541
89855W        W60455  16.327   5.854   4.062
89856W        W60456  29.025   2.787  13.074
89857W        W60457  28.769  41.259  10.262
89858W        W60458  14.935  32.967   1.350
89859W        W60459  31.528  24.481  11.770
89860W        W60460  37.814   5.802  12.274
89861W        W60461  15.986   5.489   0.415
89862W        W60462  42.465  43.259  11.563
89863W        W60463  30.225   6.183   2.638
89864W        W60464   2.899  14.816   2.619
89865W        W60465  25.999  18.243  11.625
89866W        W60466  43.438  31.088   0.866
89867W        W60467   2.525  31.188   4.157
89868W        W60468   2.296  27.184   2.284
89869W        W60469   1.312  10.313   3.863
89870W        W60470   0.282  36.925   3.579
89871W        W60471   1.458  29.960  13.526
89872W        W60472  16.554  31.149   4.210
89873W        W60473   3.268  16.685  11.729
89874W        W60474   9.823   2.191  10.987
89875W        W60475  28.274   8.887   4.574
89876W        W60476   4.865  37.903   0.008
89877W        W60477  20.185   0.047   4.220
89878W        W60478  10.203  26.410  14.061
89879W        W60479  37.106  44.541   0.395
89880W        W60480   1.686  29.246   2.140
89881W        W60481  11.974  38.113  12.428
89882W        W60482   6.890  33.361   1.643
89883W        W60483  10.889  42.932  10.554
89884W        W60484   4.497   9.601   1.792
89885W        W60485  22.690  28.226   9.972
89886W        W60486  38.893  16.205   2.269
89887W        W60487  32.306  40.827   2.185
89888W        W60488  19.203  33.337  14.387
89889W        W60489  13.286  40.253   4.047
89890W        W60490  15.255   8.625  11.574
89891W        W60491  43.483  11.804  13.990
89892W        W60492  21.572  27.751  12.517
89893W        W60493  17.511  22.696  13.791
89894W        W60494   9.648   1.689  14.878
89895W        W60495  20.481  17.341  12.997
89896W        W60496  16.723   3.699   2.995
89897W        W60497  28.159  40.919  13.866
89898W        W60498  25.458  23.995   4.413
89899W        W60499  37.041  11.804  14.597
89900W        W60500   5.198  42.059  10.722
89901W        W60501  19.883  38.042  13.802
89902W        W60502  35.498  40.368  11.260
89903W        W60503  43.734  41.364   4.188
89904W        W60504  23.986   4.654  13.861
89905W        W60505   0.458  28.576   2.148
89906W        W60506  31.464  17.604  10.770
89907W        W60507  43.390  25.145  12.066
89908W        W60508  36.670  24.796  13.010
89909W        W60509  22.760  14.303   9.813
89910W        W60510  10.613  13.167  12.907
89911W        W60511  22.012  43.761   0.791
89912W        W60512   0.191  25.421   0.793
89913W        W60513  16.314  29.517  12.455
89914W        W60514  28.032  14.032   4.457
89915W        W60515   0.986  44.281   4.662
89916W        W60516   3.851  26.725   0.673
89917W        W60517  18.765  25.568  10.197
89918W        W60518   5.229  20.628   0.125
89919W        W60519   9.294   3.998  12.019
89920W        W60520   1.908  38.511   3.501
89921W        W60521   0.758   9.961   1.012
89922W        W60522  18.616  37.964  13.038
89923W        W60523  25.053  34.274  10.692
89924W        W60524  22.418  24.707  14.448
89925W        W60525  12.290  27.824   3.210
89926W        W60526  30.972  26.658   5.072
89927W        W60527  38.638  19.256  11.509
89928W        W60528   9.798  26.271   4.349
89929W        W60529  35.534  21.210  11.729
89930W        W60530  23.696  10.886   0.976
89931W        W60531  21.817   6.652  11.607
89932W        W60532  30.136  24.928  13.503
89933W        W60533   0.212  27.933   1.572
89934W        W60534  25.313   9.887  14.866
89935W        W60535   9.208  15.586   3.721
89936W        W60536   9.198  35.730   1.671
89937W        W60537  12.539  14.260   4.247
89938W        W60538  33.801  43.766  11.620
89939W        W60539  30.953  42.711  11.025
89940W        W60540   8.684  12.279  12.447
89941W        W60541   3.440  38.141   3.295
89942W        W60542   5.536  14.496   0.200
89943W        W60543   0.283  24.062  13.356
89944W        W60544   6.656  39.427  13.878
89945W        W60545   5.388  39.923   3.187
89946W        W60546   4.463  43.030   0.706
89947W        W60547  10.370  28.399   0.375
89948W        W60548  14.649   6.035   2.717
89949W        W60549  30.044  12.145  11.945
89950W        W60550   6.125  11.233   4.550
89951W        W60551  32.640  36.309   4.882
89952W        W60552  32.130  20.042  12.516
89953W        W60553  44.259  19.375  11.452
89954W        W60554  24.525  40.028   2.659
89955W        W60555  23.659   2.901   2.272
89956W        W60556   1.937  10.679  11.008
89957W        W60557  37.961  40.358  14.409
89958W        W60558  33.040  42.951  10.984
89959W        W60559  21.805   8.273  14.774
89960W        W60560   8.695  11.853   1.228
89961W        W60561  21.714  43.062   2.772
89962W        W60562  42.494  11.262   2.722
89963W        W60563  17.078  36.615   2.761
89964W        W60564  17.712  14.768  10.983
89965W        W60565  26.975  44.806   2.661
89966W        W60566  32.852  23.430  13.591
89967W        W60567  43.952  38.926  14.298
89968W        W60568  12.690  36.067  12.996
89969W        W60569  11.598   3.079   2.050
89970W        W60570  37.160  32.581  12.526
89971W        W60571  22.516  16.785  13.896
89972W        W60572  18.191  17.076  14.247
89973W        W60573  34.008  38.613  12.188
89974W        W60574   4.288  12.327   2.511
89975W        W60575   8.252   3.141   0.784
89976W        W60576   3.158   1.323   2.574
89977W        W60577  30.243  11.647   0.910
89978W        W60578  43.558   8.401   2.278
89979W        W60579  21.124  21.457   4.050
89980W        W60580  31.916  38.016   2.398
89981W        W60581   5.317   7.587   3.105
89982W        W60582  30.989  24.814  13.880
89983W        W60583   6.043  10.316   1.336
89984W        W60584  40.041  22.017   2.710
89985W        W60585   0.571  30.022  14.217
89986W        W60586   4.278   2.394  11.590
89987W        W60587  25.266   9.202   0.273
89988W        W60588  43.213  30.690  10.698
89989W        W60589  33.413  12.330  11.662
89990W        W60590  23.624  35.040  13.928
89991W        W60591  12.899  12.081  12.403
89992W        W60592  39.939   3.519   2.943
89993W        W60593   0.988  15.596   3.235
89994W        W60594  16.131  16.388   3.148
89995W        W60595  41.863  34.721   3.803
89996W        W60596  33.480   8.952  13.821
89997W        W60597  39.605  42.909  11.594
89998W        W60598   1.801  25.477  14.903
89999W        W60599   4.234  35.194   3.237
90000W        W60600  24.961  26.067  11.493
90001W        W60601  19.486   9.204  11.589
90002W        W60602  39.433  26.491  11.236
90003W        W60603  39.096  37.814  12.693
90004W        W60604   7.413  25.614   0.684
90005W        W60605  18.757   7.329  12.151
90006W        W60606  40.042  37.287   2.428
90007W        W60607   4.103  13.212  10.749
90008W        W60608   7.846  11.620   4.637
90009W        W60609  28.835  31.636  10.731
90010W        W60610  11.549  35.862   2.203
90011W        W60611  26.518  41.837  12.394
90012W        W60612  32.066  24.570  12.703
90013W        W60613  10.644  31.624   1.673
90014W        W60614  34.213  41.770  13.959
90015W        W60615  22.044  13.382   0.303
90016W        W60616  31.014   1.222   4.410
90017W        W60617  26.918   5.055   3.157
90018W        W60618   3.877  11.805  11.601
90019W        W60619  27.255   4.351  10.392
90020W        W60620   4.911  42.518  13.444
90021W        W60621   3.849  29.954  14.145
90022W        W60622   2.295   2.278  12.073
90023W        W60623   7.629  34.574   3.566
90024W        W60624  10.327   0.170  11.579
90025W        W60625  44.416   3.181   3.187
90026W        W60626  35.044  20.602  11.220
90027W        W60627  30.941   9.660  12.917
90028W        W60628  10.625  21.576  13.445
90029W        W60629   0.847  12.710  11.185
90030W        W60630  44.541  11.145  11.346
90031W        W60631   1.336  28.633   3.300
90032W        W60632  29.364  21.242   3.408
90033W        W60633  40.603  23.658  12.479
90034W        W60634   3.689  20.466  12.494
90035W        W60635  38.265   8.322  14.370
90036W        W60636  42.828   0.086   0.734
90037W        W60637  37.200  39.679   3.269
90038W        W60638  10.678  38.109  13.411
90039W        W60639  12.457  10.889   0.815
90040W        W60640  13.748   8.639  13.493
90041W        W60641  19.211  39.245  12.463
90042W        W60642  33.442  36.302   2.304
90043W        W60643  37.928  39.005   4.384
90044W        W60644   2.690  18.225   4.622
90045W        W60645  22.468  35.615   1.420
90046W        W60646   1.934  12.873  13.053
90047W        W60647  31.478   1.431  12.886
90048W        W60648  36.596  21.548  11.194
90049W        W60649  16.755  21.225   0.272
90050W        W60650   0.878  20.557   3.214
90051W        W60651   2.548  33.605   3.172
90052W        W60652  36.584  44.308   3.801
90053W        W60653  10.606  19.148   0.973
90054W        W60654   9.869   5.714  12.090
90055W        W60655  42.365  42.072   3.178
90056W        W60656  43.919   1.155   4.544
90057W        W60657   4.279  11.852  10.835
90058W        W60658  39.968  24.617   2.314
90059W        W60659  11.248   8.168   4.939
90060W        W60660   9.509  21.285  10.316
90061W        W60661  36.899  40.030  12.582
90062W        W60662  21.491  30.145  11.072
90063W        W60663  35.465   2.303   0.370
90064W        W60664  20.823  11.688   1.763
90065W        W60665  11.405  44.289  13.510
90066W        W60666   4.489  14.996  12.649
90067W        W60667  16.588  33.531   3.140
90068W        W60668  21.811  34.499   1.247
90069W        W60669  34.188  35.212   3.202
90070W        W60670  36.577  21.288  13.053
90071W        W60671  40.953  14.120   0.919
90072W        W60672  18.286  17.471  13.348
90073W        W60673  14.620  27.100   3.791
90074W        W60674  21.546   8.783   0.060
90075W        W60675  30.078  37.490   2.776
90076W        W60676  43.299  17.661  13.775
90077W        W60677  32.011  44.934   4.456
90078W        W60678  15.097  17.830   4.963
90079W        W60679  31.499  10.271  13.501
90080W        W60680  13.818  11.038  13.179
90081W        W60681   0.947  12.602  13.950
90082W        W60682  13.846  25.040  14.012
90083W        W60683  13.617  22.318  12.492
90084W        W60684  24.066  19.163  13.947
90085W        W60685  10.379  23.971   2.197
90086W        W60686  29.698  25.198  13.562
90087W        W60687  26.658  41.850  10.720
90088W        W60688  14.255  28.817  13.313
90089W        W60689   6.718  40.482   4.519
90090W        W60690  33.041   1.569  14.425
90091W        W60691  20.573   5.903   0.887
90092W        W60692   8.565  44.689  14.237
90093W        W60693  37.970   2.739  13.507
90094W        W60694  41.499  20.239   0.033
90095W        W60695  36.372   7.899   5.101
90096W        W60696  44.032   0.749   0.818
90097W        W60697  23.525  39.482   2.408
90098W        W60698  39.184  16.033  13.507
90099W        W60699  35.103  19.768  10.780
90100W        W60700  15.514  26.746   2.228
90101W        W60701  44.780  38.724   0.800
90102W        W60702  18.808  38.876   1.367
90103W        W60703  11.434  12.473   1.829
90104W        W60704  42.497   6.928  12.895
90105W        W60705  40.344   1.851  10.684
90106W        W60706   8.882  27.995   2.320
90107W        W60707   3.163   9.380   2.827
90108W        W60708   7.541  37.717  12.571
90109W        W60709  24.062  29.673   0.894
90110W        W60710  36.848  12.687  11.155
90111W        W60711  15.440  19.268  14.878
90112W        W60712  38.576  10.605  13.793
90113W        W60713  29.405  16.670   1.756
90114W        W60714   4.012  43.600   4.165
90115W        W60715  26.957  31.363  12.247
90116W        W60716  30.755  35.400   3.022
90117W        W60717  19.663  42.044   4.028
90118W        W60718  27.034   8.691   1.598
90119W        W60719   0.735  29.145  14.394
90120W        W60720   8.633  22.102   2.641
90121W        W60721  16.242  40.549  14.987
90122W        W60722  17.826   4.388  10.960
90123W        W60723  22.231   0.482   2.823
90124W        W60724   8.792  24.766   5.041
90125W        W60725  16.371  27.495  12.507
90126W        W60726  30.309   3.377  12.910
90127W        W60727   6.250  18.531   2.259
90128W        W60728  35.590  25.158  12.495
90129W        W60729  13.579  33.903   3.860
90130W        W60730  44.551  33.990   0.747
90131W        W60731   7.389  41.938  14.808
90132W        W60732  20.823  13.589  14.063
90133W        W60733  29.424  26.970  12.475
90134W        W60734   4.263  13.658   2.798
90135W        W60735   1.409  33.411  11.358
90136W        W60736   3.202  20.254  14.450
90137W        W60737  42.399  26.987  14.944
90138W        W60738  27.532   0.534   0.232
90139W        W60739  27.155  26.647   4.763
90140W        W60740   0.782  33.430   1.460
90141W        W60741   8.362  28.241  12.345
90142W        W60742  16.305  13.605  12.033
90143W        W60743  27.512  42.661  10.968
90144W        W60744  37.776  35.296   1.962
90145W        W60745  17.426  17.343   3.726
90146W        W60746  25.491  38.474  13.475
90147W        W60747  37.400  13.615   4.104
90148W        W60748  39.068  37.655   1.346
90149W        W60749  23.777  40.154  11.448
90150W        W60750  12.335   8.399  10.678
90151W        W60751   9.976  28.938   2.862
90152W        W60752  31.700  43.364  11.126
90153W        W60753  21.038   7.500  12.432
90154W        W60754  43.915  19.457   1.752
90155W        W60755  11.213  10.176   0.881
90156W        W60756   6.732  38.172   3.978
90157W        W60757  15.692  24.662  12.866
90158W        W60758  43.366   5.693  13.290
90159W        W60759  33.928  34.777   3.208
90160W        W60760  32.889   0.755  12.472
90161W        W60761   1.737  21.058   1.811
90162W        W60762  39.206   3.887  11.031
90163W        W60763  41.404  10.268  11.571
90164W        W60764   2.843  30.238  11.909
90165W        W60765  19.775  25.704   4.020
90166W        W60766  37.648  40.427   4.817
90167W        W60767  21.361  19.493  13.922
90168W        W60768  30.941   1.952   0.263
90169W        W60769  11.760   5.754  14.821
90170W        W60770   5.418   3.478   2.898
90171W        W60771  25.775  19.921  13.215
90172W        W60772  28.401  41.462   2.855
90173W        W60773  38.067  29.201   0.480
90174W        W60774   1.544  20.045   0.007
90175W        W60775  12.703  35.198  13.607
90176W        W60776   1.342  36.861   0.755
90177W        W60777   7.154  21.073   1.397
90178W        W60778   5.715  35.313  12.121
90179W        W60779  34.930   4.439  14.886
90180W        W60780  43.385  41.508   5.206
90181W        W60781   0.855  11.129   4.611
90182W        W60782  28.279  26.602  14.785
90183W        W60783  18.278  14.240  13.454
90184W        W60784  22.743  33.220   0.934
90185W        W60785   2.852  14.044  11.485
90186W        W60786   7.364  13.563   1.859
90187W        W60787  39.324  32.918   4.272
90188W        W60788  36.640  35.672  11.594
90189W        W60789  30.413  44.935   2.835
90190W        W60790  42.307  17.146  13.565
90191W        W60791  10.265   4.559  13.969
90192W        W60792  40.750  43.864   4.658
90193W        W60793  36.419  28.776   4.762
90194W        W60794  35.661  36.588  13.495
90195W        W60795  12.804  22.045   1.939
90196W        W60796   2.708   2.528  10.493
90197W        W60797   0.031   5.216   2.293
90198W        W60798  34.583  18.404   3.411
90199W        W60799  36.632  21.336  10.164
90200W        W60800  36.425  15.738  10.758
90201W        W60801  30.725  17.371   4.217
90202W        W60802  25.121  43.334   1.353
90203W        W60803  43.553  32.633  10.585
90204W        W60804   6.886  13.385   0.002
90205W        W60805  37.972   4.714  11.631
90206W        W60806   7.368   3.270   0.646
90207W        W60807   0.972  17.925   5.059
90208W        W60808  30.448   6.516   2.303
90209W        W60809  24.684  24.782  12.481
90210W        W60810  19.384  17.819   3.448
90211W        W60811  36.918  28.882   3.930
90212W        W60812  25.190  16.729   4.309
90213W        W60813   5.965  16.849  13.473
90214W        W60814  28.147  15.005   4.670
90215W        W60815  44.317  22.289   1.823
90216W        W60816  10.321  23.979  11.564
90217W        W60817   5.146  18.088   1.322
90218W        W60818  38.835   7.925  10.731
90219W        W60819   8.893  20.636   1.663
90220W        W60820  33.484  16.304   2.844
90221W        W60821  29.428   7.231   2.883
90222W        W60822  44.171  21.027   4.181
90223W        W60823  31.288   0.741  11.576
90224W        W60824  41.318  44.939   0.208
90225W        W60825  34.844  19.144   1.434
90226W        W60826  26.889  37.809  10.727
90227W        W60827   2.244  41.130   2.690
90228W        W60828   9.731  17.732   1.350
90229W        W60829  38.795   2.258   0.901
90230W        W60830  25.665  27.623  10.551
90231W        W60831  20.285  16.204   3.800
90232W        W60832  33.135  44.456  14.470
90233W        W60833  33.798  21.199   4.265
90234W        W60834  21.111  28.094   3.804
90235W        W60835  14.590  24.172   2.264
90236W        W60836  14.824  13.910   2.596
90237W        W60837  42.241  41.228   1.346
90238W        W60838  21.875   4.899   3.983
90239W        W60839  14.447   4.383  10.698
90240W        W60840  19.816  13.152  12.282
90241W        W60841  25.737  25.159  12.000
90242W        W60842   9.399  30.849  10.584
90243W        W60843  15.344   4.676  10.838
90244W        W60844   4.943  13.304  11.897
90245W        W60845  20.796  29.092   0.270
90246W        W60846   5.146   6.183  14.078
90247W        W60847   4.530  23.992   3.429
90248W        W60848  33.423   8.664  14.872
90249W        W60849  19.466  18.573  12.536
90250W        W60850  34.945  12.901   3.166
90251W        W60851  30.710  38.341  14.087
90252W        W60852  27.536  32.985   4.344
90253W        W60853  19.508   7.806  13.540
90254W        W60854  20.908   4.897   1.767
90255W        W60855   2.964  32.160   0.244
90256W        W60856  12.202  17.680  11.141
90257W        W60857   2.940   4.662   0.460
90258W        W60858  26.046  25.139  12.952
90259W        W60859   5.402  19.867   4.192
90260W        W60860  31.715  12.076  13.810
90261W        W60861  37.446   3.487   3.962
90262W        W60862  23.379  37.347   2.793
90263W        W60863   9.137  11.101   3.261
90264W        W60864  15.144  24.002   4.591
90265W        W60865  37.230   8.222   1.259
90266W        W60866  44.300  19.713   2.602
90267W        W60867  22.950  23.604   2.884
90268W        W60868  39.211  26.040  13.564
90269W        W60869   1.836  17.794  12.467
90270W        W60870  39.437  43.457  12.970
90271W        W60871  21.532  29.449  13.495
90272W        W60872  40.817  21.245   4.530
90273W        W60873  38.952  42.369   4.610
90274W        W60874  39.401   0.924  12.372
90275W        W60875  31.280   2.080   9.998
90276W        W60876  23.736  21.205  14.990
90277W        W60877  17.309   4.364   1.853
90278W        W60878  42.030  37.574  14.817
90279W        W60879  37.553  31.004  11.909
90280W        W60880  32.477   4.503  11.089
90281W        W60881   6.445  30.447   4.644
90282W        W60882  31.472  43.492   1.194
90283W        W60883  38.532   7.394  13.019
90284W        W60884  30.940   1.488  13.579
90285W        W60885  34.059  29.176  12.595
90286W        W60886  43.498  23.534  13.022
90287W        W60887  20.184  14.327  12.920
90288W        W60888  40.080   2.825   2.455
90289W        W60889  38.063  25.042  13.401
90290W        W60890  16.335  30.494  12.418
90291W        W60891  23.322  21.788  14.022
90292W        W60892  43.017  25.244   3.793
90293W        W60893  35.343   4.170  11.983
90294W        W60894  24.435   5.225   3.299
90295W        W60895  31.282  29.088  13.084
90296W        W60896  25.579  40.472  12.760
90297W        W60897  34.328   1.792  12.911
90298W        W60898  28.202   0.868  14.306
90299W        W60899  23.483   8.418   3.338
90300W        W60900  17.100   6.251   1.216
90301W        W60901  17.568  38.559   3.964
90302W        W60902  13.375  30.662   3.801
90303W        W60903   6.754   3.864  13.954
90304W        W60904  34.430  39.963   0.515
90305W        W60905  31.988  29.249  12.595
90306W        W60906  32.717  10.742  11.654
90307W        W60907  12.197  21.675  10.633
90308W        W60908  14.969  16.268   4.615
90309W        W60909  37.789  20.792   2.892
90310W        W60910  36.135  14.773   1.152
90311W        W60911  37.466  41.875  13.485
90312W        W60912  31.637   3.244  13.327
90313W        W60913   6.696   1.819  11.790
90314W        W60914  13.656  15.746   4.348
90315W        W60915   0.453  19.771   3.115
90316W        W60916   2.799  30.636  12.455
90317W        W60917   6.911   3.218   1.329
90318W        W60918  25.454  30.556   4.184
90319W        W60919  40.002  18.072  11.467
90320W        W60920  42.415  31.799  10.290
90321W        W60921  25.654  19.984   4.553
90322W        W60922   6.716  27.506  12.879
90323W        W60923  33.922  42.850  13.392
90324W        W60924  21.048  30.579  12.365
90325W        W60925  19.603   6.635   4.300
90326W        W60926  38.454  38.400  12.031
90327W        W60927  19.427  13.117  11.931
90328W        W60928   7.376  13.338  11.353
90329W        W60929  42.792  31.875  14.933
90330W        W60930  44.600   5.256   3.596
90331W        W60931  21.257   9.398   2.216
90332W        W60932  26.151  23.448   4.526
90333W        W60933  24.622  40.448  13.325
90334W        W60934  38.326  29.367  10.735
90335W        W60935  28.941  15.833   4.377
90336W        W60936   6.855   7.642   2.019
90337W        W60937  25.543  33.412  14.005
90338W        W60938  19.354  29.897  13.065
90339W        W60939   6.808  28.684  11.941
90340W        W60940  24.725  29.597   1.177
90341W        W60941  14.499  38.488  11.528
90342W        W60942  19.255   9.394   0.929
90343W        W60943  18.629  36.356  11.646
90344W        W60944  32.861  41.018  14.862
90345W        W60945   0.738  40.971   1.790
90346W        W60946  25.396   5.956   0.919
90347W        W60947   4.533   3.486   4.562
90348W        W60948  29.605  29.838   1.843
90349W        W60949  11.031  13.939   2.764
90350W        W60950  28.716   6.637  14.034
90351W        W60951  38.369  13.022   3.350
90352W        W60952  15.611  41.329  12.480
90353W        W60953   6.463   4.871  14.974
90354W        W60954  13.432   1.751   3.900
90355W        W60955  21.012  14.257   1.804
90356W        W60956  43.042  16.606   4.067
90357W        W60957  39.362  19.832  14.330
90358W        W60958  18.735  33.947   1.895
90359W        W60959   7.820  22.853  11.395
90360W        W60960  37.388  12.231  11.493
90361W        W60961   9.114  16.814   2.258
90362W        W60962  10.588  40.432  14.169
90363W        W60963  30.923  24.121  10.730
90364W        W60964  27.689  38.055  12.924
90365W        W60965  32.791  42.142   1.234
90366W        W60966  21.991  18.730  14.875
90367W        W60967  40.298  26.865  14.319
90368W        W60968  30.068   6.934   2.379
90369W        W60969  38.065  13.149  12.067
90370W        W60970   9.269  18.088  11.424
90371W        W60971  11.675  32.767  10.616
90372W        W60972  19.533  21.254   0.339
90373W        W60973  11.576  21.356   5.072
90374W        W60974  12.734  19.678   0.733
90375W        W60975   7.424  26.078  14.797
90376W        W60976  15.147  42.833  11.682
90377W        W60977  20.836  36.378   0.552
90378W        W60978  16.451   9.706   0.528
90379W        W60979  14.711  32.132  11.162
90380W        W60980  12.107   4.882   3.609
90381W        W60981  37.815  17.777  12.860
90382W        W60982  29.380   2.093   2.703
90383W        W60983  16.616  34.482  14.610
90384W        W60984  21.203  33.222  10.374
90385W        W60985  37.407  32.431  10.782
90386W        W60986   6.462  36.907   3.995
90387W        W60987  39.932  16.804   4.538
90388W        W60988  39.189   9.031  11.598
90389W        W60989   9.901  15.273   4.209
90390W        W60990  14.406  13.838  13.392
90391W        W60991   7.430  16.708   1.679
90392W        W60992  32.519   9.299   4.369
90393W        W60993  26.994  19.063   1.369
90394W        W60994  40.036  37.572  10.246
90395W        W60995  18.623  10.148  13.090
90396W        W60996  29.440  31.658  12.565
90397W        W60997  39.804   0.461  10.633
90398W        W60998  19.661   9.323  13.933
90399W        W60999   8.906   9.182   2.348
90400W        W61000  10.338  43.004  11.543
90401W        W61001   1.809  38.399   4.542
90402W        W61002  14.735  11.559   4.984
90403W        W61003  28.838  30.592  13.824
90404W        W61004  12.186  11.895   2.326
90405W        W61005  39.059  10.162   4.520
90406W        W61006  26.060  37.500   5.092
90407W        W61007  40.440   5.784   0.310
90408W        W61008  13.719   7.507   4.051
90409W        W61009  16.235  18.006  14.331
90410W        W61010  10.886  32.162   0.412
90411W        W61011   4.935  44.514  13.469
90412W        W61012  16.993  11.820  13.915
90413W        W61013  13.242   4.776   0.351
90414W        W61014  10.410   2.953  11.504
90415W        W61015  24.784  39.085   4.170
90416W        W61016  38.895  13.086   0.926
90417W        W61017  31.065  24.604   1.988
90418W        W61018  13.833   2.221   1.352
90419W        W61019  10.850  23.836  14.486
90420W        W61020   2.959  10.796  11.861
90421W        W61021   5.716  39.068  12.528
90422W        W61022  26.158  28.252  12.053
90423W        W61023  15.576   1.030   3.118
90424W        W61024   5.953   2.050   4.045
90425W        W61025  16.137   9.316  13.357
90426W        W61026   7.158   4.469   0.871
90427W        W61027   7.480  18.321   4.097
90428W        W61028   0.524   9.554  12.109
90429W        W61029   2.446  11.042   0.759
90430W        W61030  18.857  36.589  14.489
90431W        W61031  36.180  40.284   0.912
90432W        W61032  38.352  11.197   3.918
90433W        W61033  44.209  42.395  13.004
90434W        W61034  40.809  28.509   2.193
90435W        W61035  35.104  36.906   2.999
90436W        W61036   2.831  10.176   0.843
90437W        W61037  42.730  43.970  12.506
90438W        W61038  37.807  20.074  14.078
90439W        W61039  12.660  20.095   1.439
90440W        W61040  15.053  20.268  11.162
90441W        W61041   5.251   5.347   1.160
90442W        W61042  19.997  11.219  13.484
90443W        W61043   8.962  21.873  12.153
90444W        W61044  32.618  38.277   1.547
90445W        W61045   5.824  41.885  10.510
90446W        W61046  19.018  23.252  14.809
90447W        W61047  24.288  43.853   4.547
90448W        W61048  25.700  43.530  10.781
90449W        W61049  13.023  30.362   9.970
90450W        W61050  37.005   2.695  14.812
90451W        W61051  21.445   5.832   3.182
90452W        W61052  35.800  25.601   2.150
90453W        W61053  26.931  42.796  14.809
90454W        W61054  28.647  12.687   4.409
90455W        W61055  22.941  42.635   4.144
90456W        W61056  42.365  27.963   2.732
90457W        W61057   0.564  13.558   4.115
90458W        W61058  41.365  26.972  13.569
90459W        W61059  25.833   6.077  10.125
90460W        W61060   0.185  12.350   4.850
90461W        W61061   9.217  31.322  13.350
90462W        W61062  31.941  15.685  14.870
90463W        W61063  34.882  39.826  13.495
90464W        W61064   8.862  42.819   1.685
90465W        W61065  31.160  29.214   3.269
90466W        W61066  11.394  20.879  13.097
90467W        W61067  42.073   5.741   0.236
90468W        W61068   5.030  17.279   4.650
90469W        W61069   2.401  29.523  13.794
90470W        W61070   4.661  31.822   1.816
90471W        W61071  23.490  16.715   2.178
90472W        W61072   2.256  39.059  10.185
90473W        W61073  24.738  25.049   3.634
90474W        W61074  15.540  10.938   2.134
90475W        W61075  19.844  27.108  10.763
90476W        W61076  25.152   0.877  11.230
90477W        W61077   3.956  16.141   0.143
90478W        W61078  10.993   6.065   4.356
90479W        W61079  33.906  36.547  10.748
90480W        W61080  37.515  27.871   1.803
90481W        W61081   3.700  39.225   0.300
90482W        W61082  25.597   6.425  11.965
90483W        W61083  10.705  30.185  13.821
90484W        W61084  32.502  25.388   4.499
90485W        W61085  17.133  22.082   2.447
90486W        W61086  14.216  34.593  14.700
90487W        W61087  42.838  36.289  14.313
90488W        W61088  10.930  12.709  11.152
90489W        W61089  20.878   3.079  12.571
90490W        W61090   1.380  26.750  11.597
90491W        W61091  28.512  29.805  10.749
90492W        W61092  42.422   2.831   1.680
90493W        W61093   3.197   5.340   4.135
90494W        W61094   0.333   9.606   2.956
90495W        W61095  21.047  41.639  10.394
90496W        W61096  44.985  16.049   4.669
90497W        W61097   6.243  26.201   3.118
90498W        W61098   1.558  31.169  12.886
90499W        W61099  29.550  35.982  14.574
90500W        W61100  15.679   7.684   5.179
90501W        W61101  26.057   7.791   3.362
90502W        W61102  41.020   8.809  11.844
90503W        W61103   5.881  40.993   3.662
90504W        W61104  39.919  41.279   1.488
90505W        W61105   4.249  30.625  13.584
90506W        W61106  18.741  30.528   1.965
90507W        W61107  34.437  29.310   2.692
90508W        W61108  40.587  42.742  12.525
90509W        W61109   1.754  37.397   3.254
90510W        W61110  41.044  24.258   2.686
90511W        W61111  24.715   9.816   3.711
90512W        W61112  43.913  14.732  13.837
90513W        W61113  27.104  33.955  11.309
90514W        W61114   0.906  10.550  11.125
90515W        W61115  39.366  32.616  13.508
90516W        W61116   9.803  31.045  13.128
90517W        W61117  39.613  33.840   4.163
90518W        W61118  28.573  39.443  10.325
90519W        W61119  31.612   3.442  14.752
90520W        W61120  38.144  12.846   3.800
90521W        W61121  28.958  24.804  12.059
90522W        W61122  12.622  19.599  11.845
90523W        W61123  21.578  41.536  11.446
90524W        W61124  44.059  12.759  11.105
90525W        W61125  40.321   3.258  11.585
90526W        W61126  31.355  40.561   3.688
90527W        W61127   5.271  15.051   1.626
90528W        W61128  28.047  20.253   4.052
90529W        W61129  24.213   4.686   4.107
90530W        W61130  43.945   7.892   0.511
90531W        W61131  31.131  19.167   2.354
90532W        W61132  20.500   9.993   3.995
90533W        W61133   5.921   2.054  12.034
90534W        W61134   2.920  18.320  10.768
90535W        W61135  16.316  31.009  11.138
90536W        W61136  36.343  25.952  12.522
90537W        W61137  23.173   8.595   3.728
90538W        W61138  28.490  10.863  10.596
90539W        W61139  43.098  40.787  12.201
90540W        W61140   9.769   5.384   3.168
90541W        W61141  10.464  27.065   0.423
90542W        W61142  36.431  26.041  10.709
90543W        W61143   5.781  24.987   1.153
90544W        W61144  44.974   7.750  12.037
90545W        W61145  34.441  33.524  12.423
90546W        W61146  13.659   4.487   2.646
90547W        W61147  39.451  37.132   3.072
90548W        W61148   5.941   7.074   0.430
90549W        W61149   4.639  18.001  12.483
90550W        W61150  39.573  23.419  14.563
90551W        W61151  15.487   4.980  14.459
90552W        W61152   9.257  39.992  12.013
90553W        W61153  18.360  21.657   2.228
90554W        W61154  35.381  40.974   3.224
90555W        W61155  14.449  43.182  12.046
90556W        W61156  25.152   4.749  14.761
90557W        W61157  14.866  22.529  10.800
90558W        W61158  24.784   5.666   3.306
90559W        W61159  39.908  25.145   3.337
90560W        W61160  26.969  44.461  11.073
90561W        W61161  38.904  15.165  10.673
90562W        W61162   2.882  32.875   0.801
90563W        W61163   1.942  30.763  13.718
90564W        W61164  29.653  13.512  14.383
90565W        W61165   0.166  36.581  14.964
90566W        W61166  33.560  16.715   2.018
90567W        W61167  15.691  12.448   1.229
90568W        W61168  10.723  36.596  14.074
90569W        W61169   2.340   2.199  13.101
90570W        W61170  43.963   7.857  12.596
90571W        W61171  26.509  34.574  14.546
90572W        W61172  15.566  43.504   3.521
90573W        W61173  38.592   0.476   4.285
90574W        W61174  25.278   1.204   2.795
90575W        W61175  36.758  41.888   3.661
90576W        W61176  26.081  10.512  13.975
90577W        W61177  34.074  17.522   3.253
90578W        W61178  18.186  28.594   4.608
90579W        W61179   1.870   3.865   0.236
90580W        W61180   6.228   4.385   3.801
90581W        W61181   7.393   0.991   2.830
90582W        W61182  43.275  44.887   3.532
90583W        W61183  21.538   9.769  12.853
90584W        W61184   2.431  30.506   1.814
90585W        W61185  16.503  42.786  13.005
90586W        W61186  21.237  41.778  10.846
90587W        W61187  28.815  36.524  11.668
90588W        W61188   4.832  24.502  11.082
90589W        W61189  15.026  20.603  13.879
90590W        W61190  27.301   3.478   1.737
90591W        W61191   8.243  10.229  12.136
90592W        W61192  13.982  37.011   5.156
90593W        W61193  28.973  43.538  11.566
90594W        W61194  31.151  15.374   2.683
90595W        W61195   3.968  34.505  13.655
90596W        W61196  22.745  32.364  14.062
90597W        W61197  14.998  42.933  10.564
90598W        W61198   0.445   6.878  10.679
90599W        W61199  26.271   7.613  14.006
90600W        W61200   0.310  13.768  14.808
90601W        W61201  16.547  28.339   4.635
90602W        W61202  10.226   1.406   4.840
90603W        W61203  29.215  16.955   1.269
90604W        W61204  28.115  20.301   1.285
90605W        W61205  18.557  41.485  14.952
90606W        W61206  43.914  43.724  12.798
90607W        W61207   8.236  26.516  11.787
90608W        W61208  15.040  43.281  13.516
90609W        W61209  18.452  19.920   3.581
90610W        W61210   8.447   9.736  14.466
90611W        W61211   2.964   7.258   4.443
90612W        W61212  22.060   2.178  13.344
90613W        W61213  43.526   2.441   4.721
90614W        W61214  40.405  27.982  11.619
90615W        W61215  28.088  18.262   3.281
90616W        W61216   3.054  35.593   1.171
90617W        W61217  19.812  25.961   1.918
90618W        W61218  17.962  31.148  14.272
90619W        W61219  22.789   8.316  13.331
90620W        W61220  43.755  21.334   4.062
90621W        W61221  21.844  15.921   1.633
90622W        W61222   0.655  38.599  13.431
90623W        W61223  39.052  13.290   3.201
90624W        W61224  10.253  31.726  11.201
90625W        W61225  32.896  39.541  14.000
90626W        W61226  10.862  28.135   1.744
90627W        W61227  28.177  34.571  13.403
90628W        W61228  41.330  44.382  13.834
90629W        W61229  32.431  27.615   2.798
90630W        W61230  20.764   3.791  10.622
90631W        W61231  12.460  18.505   4.243
90632W        W61232  14.275  13.762  12.027
90633W        W61233  31.419  43.490  10.729
90634W        W61234  23.780   2.369  14.847
90635W        W61235  40.977  40.449   2.258
90636W        W61236  10.944   6.744  13.009
90637W        W61237  14.140  41.230  10.195
90638W        W61238  40.555  22.190   4.164
90639W        W61239   4.837   8.993   5.000
90640W        W61240  14.734  41.104  10.998
90641W        W61241  34.606   2.390  11.193
90642W        W61242  23.129   9.468   0.887
90643W        W61243  23.008  30.762   2.390
90644W        W61244   7.717  11.170  10.366
90645W        W61245  43.304  42.024  11.637
90646W        W61246  28.932   0.304   0.241
90647W        W61247  41.622  25.313   4.209
90648W        W61248  43.515   7.447   4.603
90649W        W61249   4.804  38.154   2.187
90650W        W61250  39.405  41.773  13.963
90651W        W61251  35.758  27.649   1.372
90652W        W61252  34.799  27.817  14.382
90653W        W61253  20.405  34.417  14.872
90654W        W61254   8.710   4.117   3.848
90655W        W61255  34.134  25.193   4.137
90656W        W61256  16.003  44.939   0.015
90657W        W61257  10.205  26.591   4.251
90658W        W61258  24.293   3.336   1.517
90659W        W61259  27.895  14.083   2.794
90660W        W61260  28.688  38.864  13.929
90661W        W61261  27.668  41.423   1.138
90662W        W61262  27.870   6.271   3.230
90663W        W61263   2.508  13.436  10.639
90664W        W61264  11.681  13.518   4.070
90665W        W61265  23.655  41.460   0.113
90666W        W61266   6.153  44.580   0.853
90667W        W61267  32.602  13.593  12.914
90668W        W61268  40.318   5.024  13.598
90669W        W61269  42.394   5.816  11.646
90670W        W61270  42.666   1.029   3.854
90671W        W61271   6.604  36.977   2.298
90672W        W61272  40.521  13.656   1.779
90673W        W61273  41.936  35.357   0.286
90674W        W61274   9.638  17.280  13.934
90675W        W61275  36.842  21.636  14.044
90676W        W61276  20.359   5.829  12.290
90677W        W61277  13.791   5.796  14.724
90678W        W61278  24.176  20.083   2.998
90679W        W61279  17.389   9.352   1.750
90680W        W61280  23.150   6.193  12.602
90681W        W61281  33.533  11.286  13.331
90682W        W61282  42.827  11.275   1.329
90683W        W61283  36.404  14.567   3.581
90684W        W61284   5.418  12.639  11.410
90685W        W61285   3.759  39.887   1.477
90686W        W61286  18.134  38.251  13.856
90687W        W61287  37.698  34.394   0.374
90688W        W61288   4.343  13.138  11.218
90689W        W61289  31.986  14.284  11.945
90690W        W61290  21.465  27.720   0.940
90691W        W61291  21.056  35.296   3.168
90692W        W61292  32.187  36.522  13.493
90693W        W61293   6.741   5.031  14.513
90694W        W61294  23.695  30.530  14.446
90695W        W61295  27.100  15.418   1.653
90696W        W61296  38.974  41.965  13.756
90697W        W61297  41.372  14.784   1.683
90698W        W61298  25.258  27.430   4.522
90699W        W61299  35.608   9.730   3.759
90700W        W61300  39.564   5.700   1.266
90701W        W61301  13.877  30.713  11.560
90702W        W61302  21.207  43.026  13.885
90703W        W61303   8.905  30.878   0.638
90704W        W61304  22.281   5.947  11.979
90705W        W61305  33.075  42.502  11.222
90706W        W61306  40.909   7.266  14.897
90707W        W61307  39.961  21.034  12.531
90708W        W61308  36.868  17.949   1.311
90709W        W61309   1.698  16.133   2.146
90710W        W61310  25.779  18.056   2.356
90711W        W61311  16.136  34.293  14.403
90712W        W61312  44.742   6.434  11.457
90713W        W61313  34.356   1.809  14.370
90714W        W61314   8.351  10.575   2.864
90715W        W61315   4.748  21.577   4.429
90716W        W61316  37.025  24.571   3.112
90717W        W61317  15.127  25.102   1.481
90718W        W61318  14.083  26.629  14.494
90719W        W61319  44.474   9.313  12.402
90720W        W61320   5.266  35.182   4.053
90721W        W61321   4.030  40.356  14.787
90722W        W61322  18.215   0.878   1.261
90723W        W61323  17.576   6.437   1.074
90724W        W61324  20.551  23.302  13.791
90725W        W61325  18.255  25.543  14.336
90726W        W61326  34.497  38.025   2.382
90727W        W61327   6.223  38.542  10.788
90728W        W61328  18.785  35.122  12.041
90729W        W61329  38.320  17.221   1.776
90730W        W61330  37.632  33.056   2.224
90731W        W61331   7.556   2.765   1.832
90732W        W61332  23.697  15.252   4.915
90733W        W61333  17.062  43.107   3.799
90734W        W61334  36.951  26.640   0.925
90735W        W61335  23.849  30.848   4.299
90736W        W61336   9.214  36.266   1.705
90737W        W61337  15.297  35.782   3.225
90738W        W61338  14.618  26.181  14.907
90739W        W61339   2.252  28.188   4.529
90740W        W61340   1.345   2.714  11.952
90741W        W61341   2.804   2.871   2.380
90742W        W61342  16.827  44.646   0.470
90743W        W61343  14.193   5.958  14.382
90744W        W61344  20.976  43.298  11.545
90745W        W61345  28.647  28.165   0.854
90746W        W61346  38.433  21.346   3.552
90747W        W61347  35.913  17.363   3.631
90748W        W61348  22.981   8.588  11.862
90749W        W61349  28.939  22.656  12.643
90750W        W61350  22.627  13.324  14.312
90751W        W61351  25.484  29.123  14.875
90752W        W61352  27.236  19.475   0.481
90753W        W61353   0.690  28.852  11.226
90754W        W61354  43.038   8.422   2.316
90755W        W61355   3.377   5.965  12.283
90756W        W61356  23.950   6.969  11.820
90757W        W61357  42.939  27.460  12.369
90758W        W61358  41.020  13.074  11.535
90759W        W61359  35.226  19.068  10.583
90760W        W61360  12.853  30.108  13.842
90761W        W61361  29.813   1.104  11.104
90762W        W61362   1.927  26.882  12.428
90763W        W61363  44.215  12.278   2.120
90764W        W61364  39.062  33.407   2.811
90765W        W61365  27.312   5.861  14.889
90766W        W61366   3.574   4.417  13.639
90767W        W61367   3.615  23.955   0.249
90768W        W61368   5.573  25.481  12.492
90769W        W61369   1.468   8.333   1.361
90770W        W61370  37.509   0.265   3.637
90771W        W61371  20.220  44.342   3.785
90772W        W61372  41.728  24.694  11.609
90773W        W61373   6.201   4.891  11.847
90774W        W61374  10.454  15.903  12.988
90775W        W61375  23.587  34.293  10.708
90776W        W61376  42.020   6.300   5.541
90777W        W61377   1.076   6.813  14.794
90778W        W61378  43.796  36.542  13.881
90779W        W61379   2.599  44.426  12.079
90780W        W61380   8.274  33.641   3.699
90781W        W61381  17.244  39.027  11.723
90782W        W61382  23.963  34.090   2.390
90783W        W61383  13.290  36.826  14.347
90784W        W61384  20.170  18.111  13.510
90785W        W61385   7.548  40.373   0.894
90786W        W61386  27.955   5.387  14.963
90787W        W61387  15.140  26.514  10.535
90788W        W61388  25.155   0.004   2.029
90789W        W61389   2.247  26.711   3.175
90790W        W61390   3.191  36.384   4.307
90791W        W61391  36.144  27.337  12.445
90792W        W61392  25.452  37.390   4.611
90793W        W61393  20.982  30.474  13.859
90794W        W61394  19.103  38.144   0.964
90795W        W61395  27.139  14.515  14.240
90796W        W61396  39.079   9.412  14.060
90797W        W61397  31.113  43.099  11.823
90798W        W61398   9.582  18.242   1.354
90799W        W61399  15.322   1.714  11.158
90800W        W61400   3.553  37.577  10.224
90801W        W61401   2.868  36.630  14.108
90802W        W61402  24.983  10.153  12.149
90803W        W61403  22.634  43.016   0.353
90804W        W61404   9.554  13.096   2.685
90805W        W61405   4.120  39.818  13.926
90806W        W61406   3.412  42.329   0.335
90807W        W61407  27.457  22.618  12.128
90808W        W61408   2.883  28.939   1.469
90809W        W61409  44.838   6.138   1.841
90810W        W61410  21.779  10.686  11.904
90811W        W61411  18.146  14.887   2.358
90812W        W61412  44.411   4.177  10.735
90813W        W61413  13.583  17.957   5.033
90814W        W61414   7.467  36.788  14.030
90815W        W61415   9.586  26.986  10.965
90816W        W61416  36.001   7.797   4.416
90817W        W61417  41.520  21.332  12.863
90818W        W61418  22.376  27.803  13.999
90819W        W61419  32.516  19.376  11.525
90820W        W61420   6.567  40.404  12.214
90821W        W61421  31.534  36.179  11.088
90822W        W61422  20.295   8.822  13.699
90823W        W61423   9.643  33.416   0.575
90824W        W61424   9.632  21.929  12.474
90825W        W61425   4.426  21.567  12.917
90826W        W61426  41.306  34.508   3.706
90827W        W61427  40.627  30.852   3.740
90828W        W61428  11.126   0.895   1.752
90829W        W61429  20.325  25.466   4.909
90830W        W61430  36.641   5.375   0.361
90831W        W61431  20.336  36.363  10.720
90832W        W61432  27.969  26.918  14.511
90833W        W61433  10.233  28.595   2.187
90834W        W61434  13.622   4.868   1.822
90835W        W61435  19.723  11.759  14.850
90836W        W61436  28.085  12.644  13.048
90837W        W61437  24.458  10.014   4.110
90838W        W61438  29.947  15.320   1.430
90839W        W61439   6.816  16.996  11.207
90840W        W61440   1.235  42.102  10.769
90841W        W61441  33.088  40.208  12.974
90842W        W61442   8.933  36.792  14.312
90843W        W61443  36.118  27.365  11.616
90844W        W61444   8.116  13.689  11.597
90845W        W61445  44.193   0.319  11.061
90846W        W61446  23.526  31.448  14.571
90847W        W61447  15.056   2.857  12.146
90848W        W61448  19.021   6.266   0.934
90849W        W61449  26.594  17.187   3.669
90850W        W61450  41.763   3.540  12.300
90851W        W61451  21.201  44.580   0.868
90852W        W61452  26.269  40.887   3.693
90853W        W61453  28.160  25.652  13.980
90854W        W61454  13.681   3.206   2.386
90855W        W61455   3.478  19.042  14.758
90856W        W61456  32.375  12.311   2.970
90857W        W61457  42.252  30.270  14.502
90858W        W61458  15.277  16.793  10.199
90859W        W61459   5.722   7.241  11.712
90860W        W61460  34.756  21.171  10.604
90861W        W61461  13.615  30.087  14.291
90862W        W61462  27.772  35.458   4.126
90863W        W61463  26.986  12.310  14.890
90864W        W61464   5.803  25.449   0.489
90865W        W61465  23.499  36.309   0.461
90866W        W61466  18.727  26.938  13.525
90867W        W61467   5.484  17.729  12.607
90868W        W61468  25.201   6.241   4.517
90869W        W61469  26.642  42.892   1.327
90870W        W61470   3.807  29.675  10.727
90871W        W61471  19.738  28.896   2.697
90872W        W61472   3.898  25.707   1.918
90873W        W61473   0.399  16.031   3.622
90874W        W61474  21.689  24.219   1.882
90875W        W61475  42.828  42.579  12.140
90876W        W61476  43.969  12.017   3.569
90877W        W61477  15.045   1.672   2.698
90878W        W61478   0.243  14.186   2.583
90879W        W61479  19.967   7.713  12.846
90880W        W61480   5.678  36.819  12.870
90881W        W61481  26.712  11.578  12.077
90882W        W61482  32.032  33.448   2.482
90883W        W61483  37.351  44.234  14.501
90884W        W61484  31.642  30.375  12.380
90885W        W61485  38.994  13.145   4.741
90886W        W61486  21.383  14.760   1.387
90887W        W61487  20.129  24.105  14.081
90888W        W61488  28.711  17.539   4.158
90889W        W61489   9.779  38.865   4.399
90890W        W61490  11.443  16.574   4.439
90891W        W61491  28.520   8.582  11.945
90892W        W61492  20.633  45.000  12.979
90893W        W61493   9.418  19.555   2.657
90894W        W61494  19.176  38.718  11.787
90895W        W61495  40.912  30.208  12.944
90896W        W61496  23.895   1.937  12.717
90897W        W61497  28.130  10.521  11.953
90898W        W61498   7.623  23.431  12.825
90899W        W61499  30.483  23.222  12.391
90900W        W61500  42.754   4.879  11.754
90901W        W61501  11.729  21.132  11.613
90902W        W61502  42.287  22.885   0.002
90903W        W61503  40.777  39.394  12.499
90904W        W61504   3.065  35.269  13.846
90905W        W61505  39.952  39.733   4.566
90906W        W61506  10.344  38.402  14.900
90907W        W61507  42.036  31.367  14.483
90908W        W61508   2.228   9.673   0.331
90909W        W61509  28.604   0.501   3.845
90910W        W61510  39.650  43.788   3.681
90911W        W61511   1.490   3.747  14.894
90912W        W61512  42.419  35.953   1.665
90913W        W61513   1.322  10.752  10.850
90914W        W61514  38.850  24.510   1.415
90915W        W61515  37.389  22.062   2.565
90916W        W61516  38.380  43.815   4.154
90917W        W61517  27.018  39.100   1.440
90918W        W61518  33.476  13.409  12.452
90919W        W61519   8.775   4.463  14.791
90920W        W61520  25.721  43.824  12.037
90921W        W61521  28.431  17.495   2.180
90922W        W61522  42.734  14.198   3.716
90923W        W61523  43.230  33.454   2.873
90924W        W61524  17.812   6.848   3.197
90925W        W61525   5.272  26.499   2.422
90926W        W61526  35.998  12.364   0.418
90927W        W61527  18.717   9.640  14.978
90928W        W61528  42.413  37.151   0.464
90929W        W61529  16.115  40.047  14.893
90930W        W61530  38.425  18.453  11.070
90931W        W61531  38.126  21.125   0.033
90932W        W61532   9.461  11.162   0.408
90933W        W61533   6.882  17.649  11.038
90934W        W61534  18.665  31.892  13.017
90935W        W61535  14.886  16.143   0.842
90936W        W61536  31.993   3.949   1.855
90937W        W61537   5.178  12.084   4.651
90938W        W61538  13.072  37.986  11.733
90939W        W61539  17.804  29.297   3.706
90940W        W61540  37.768   4.260   2.337
90941W        W61541  18.972  18.625   3.707
90942W        W61542   1.217   4.029  12.907
90943W        W61543  38.476  14.536  12.484
90944W        W61544   2.502  12.824  13.012
90945W        W61545  37.091   8.720   4.030
90946W        W61546   7.240  33.089  13.506
90947W        W61547  31.361  31.530   3.542
90948W        W61548   7.000  36.981  14.054
90949W        W61549  29.049  10.169   4.876
90950W        W61550  21.415  12.950  13.567
90951W        W61551  14.336   0.223   3.292
90952W        W61552  31.171  35.601  10.705
90953W        W61553  31.879  31.507  11.018
90954W        W61554  28.139  19.815   0.092
90955W        W61555   7.894  21.234  14.031
90956W        W61556  23.259   9.847  14.583
90957W        W61557   8.900   0.294  13.759
90958W        W61558  41.029  41.230  14.250
90959W        W61559   4.992   5.872  12.954
90960W        W61560   4.101  28.031  14.259
90961W        W61561  18.142   6.277  12.539
90962W        W61562  14.757   3.791   2.317
90963W        W61563   9.764   2.310  13.990
90964W        W61564   4.315   5.875   0.889
90965W        W61565   8.228   6.743   1.487
90966W        W61566  22.011  26.913   0.469
90967W        W61567   9.143  17.133   2.650
90968W        W61568  29.850  25.439   1.722
90969W        W61569  16.756  34.859   4.019
90970W        W61570  23.331  42.873  13.717
90971W        W61571  37.607  19.702  11.560
90972W        W61572  28.230   4.446   4.290
90973W        W61573  38.485   7.274  12.504
90974W        W61574  25.390  30.023   2.773
90975W        W61575   9.874  21.509   3.818
90976W        W61576  41.482  18.303  12.627
90977W        W61577  30.964  14.700   0.475
90978W        W61578  36.031  23.162   3.888
90979W        W61579  38.125  31.805   1.894
90980W        W61580  39.755  32.390  10.613
90981W        W61581  21.094  16.865   2.247
90982W        W61582  16.342  17.131  11.749
90983W        W61583  36.585  22.983  14.641
90984W        W61584  17.607  22.524   2.761
90985W        W61585   0.941  21.182   1.973
90986W        W61586  27.431  24.342   2.896
90987W        W61587  29.090  22.152   3.593
90988W        W61588  16.093  43.589   5.118
90989W        W61589   9.251  28.655   0.235
90990W        W61590  42.356  19.979  12.606
90991W        W61591  41.250  15.206   1.361
90992W        W61592  19.174  31.496  13.982
90993W        W61593  35.942  20.541   0.348
90994W        W61594  39.683  14.371   1.437
90995W        W61595  38.017  32.579   4.574
90996W        W61596  14.304  28.926  12.428
90997W        W61597  41.493  33.311   4.045
90998W        W61598  10.899  19.849   4.479
90999W        W61599   1.843  36.393   4.168
91000W        W61600  43.518  23.298   1.747
91001W        W61601  32.226  18.877  12.363
91002W        W61602   9.975  22.755  12.764
91003W        W61603  26.563  15.310   0.895
91004W        W61604   1.850  11.727   0.758
91005W        W61605   9.052  20.636   0.084
91006W        W61606  29.699  30.078   2.298
91007W        W61607  34.529   9.109   1.428
91008W        W61608  28.077  15.027   4.139
91009W        W61609  25.521  40.306   1.504
91010W        W61610  12.052   4.386  12.002
91011W        W61611  35.060   4.910   1.819
91012W        W61612  27.728  19.321  11.558
91013W        W61613   4.929   8.911   3.126
91014W        W61614  40.036  13.323  11.054
91015W        W61615  19.719   1.802  12.774
91016W        W61616   1.255  33.406  14.829
91017W        W61617  22.287  25.555   2.251
91018W        W61618  10.099  41.825  10.945
91019W        W61619   2.695  23.553   4.553
91020W        W61620  34.586  25.185   0.836
91021W        W61621  12.146   7.616  11.479
91022W        W61622  35.575  27.601  10.813
91023W        W61623  43.906  12.107  14.002
91024W        W61624  29.415  14.766   0.772
91025W        W61625   7.912  44.098   1.333
91026W        W61626  37.549  24.616  13.913
91027W        W61627   4.077  41.925  11.713
91028W        W61628  33.214   7.312   1.044
91029W        W61629   0.289   8.146  14.429
91030W        W61630  35.292   5.234   3.555
91031W        W61631  30.981  41.356   0.342
91032W        W61632  12.431  10.414   4.027
91033W        W61633  10.724  27.009   3.753
91034W        W61634  21.682   9.921   4.520
91035W        W61635  25.503  29.609   5.072
91036W        W61636  15.258  20.152  12.504
91037W        W61637  39.608  12.725  10.666
91038W        W61638  44.526  37.662  13.564
91039W        W61639  15.247   5.149  12.065
91040W        W61640  44.836   8.918   1.665
91041W        W61641  18.111  30.169   3.771
91042W        W61642  44.161  25.160  11.462
91043W        W61643   0.334  11.189   2.169
91044W        W61644  19.105  28.007  12.914
91045W        W61645  44.336   0.257  12.563
91046W        W61646  10.598  40.527   2.927
91047W        W61647  29.111  20.658   0.743
91048W        W61648  12.388  44.174  10.626
91049W        W61649   8.096  14.760  11.232
91050W        W61650  25.228   5.989  11.058
91051W        W61651  11.271   1.390  11.158
91052W        W61652  27.197   4.740   2.779
91053W        W61653   6.302  37.529   1.513
91054W        W61654  31.153  21.580   3.403
91055W        W61655  21.954   1.254   0.218
91056W        W61656  41.412  17.129  13.469
91057W        W61657  11.255  39.892   1.712
91058W        W61658  42.364  28.541  14.945
91059W        W61659  23.704  19.837  14.374
91060W        W61660  35.384  14.599  10.737
91061W        W61661  41.228  34.880  12.504
91062W        W61662  33.508   2.991  12.934
91063W        W61663  39.424  28.907  11.589
91064W        W61664   4.741  44.501   1.963
91065W        W61665  42.014  44.910  10.689
91066W        W61666  37.115  32.131  11.308
91067W        W61667  39.143  21.123  14.258
91068W        W61668   1.179  32.158   1.575
91069W        W61669  35.432  26.924   1.647
91070W        W61670  16.002  26.430   2.251
91071W        W61671  32.627  33.639  11.617
91072W        W61672  30.541  41.434   3.015
91073W        W61673  28.064  26.405  10.285
91074W        W61674  28.573  27.153   1.777
91075W        W61675  42.922  25.400  10.675
91076W        W61676  30.123  19.705  14.180
91077W        W61677  43.424  11.245   4.562
91078W        W61678  39.426  28.216  11.989
91079W        W61679  11.625  39.819  14.368
91080W        W61680  14.244  44.485  10.667
91081W        W61681  28.393   6.813  14.414
91082W        W61682  41.277  25.131  12.064
91083W        W61683  32.400  25.179   3.781
91084W        W61684  42.844  30.219   1.515
91085W        W61685  26.109  19.297   2.377
91086W        W61686   5.422  20.266   1.698
91087W        W61687  33.554  33.444   4.635
91088W        W61688   2.213  15.060   1.832
91089W        W61689   0.948  19.136  13.052
91090W        W61690  27.012  36.391   2.393
91091W        W61691  16.222   5.751  12.395
91092W        W61692  15.078  25.364   2.745
91093W        W61693  32.549   7.385   3.274
91094W        W61694  31.341  20.530  11.256
91095W        W61695  39.460  36.487   3.080
91096W        W61696  33.432  29.660  12.105
91097W        W61697  19.790  37.110   0.462
91098W        W61698   4.472  24.395   1.986
91099W        W61699  39.480  21.784  12.465
91100W        W61700  18.513   3.799  14.876
91101W        W61701   0.400  36.358  11.527
91102W        W61702  38.037   0.423   2.372
91103W        W61703  44.256  27.896   2.618
91104W        W61704  42.062  13.766   3.177
91105W        W61705  16.825  37.574  11.499
91106W        W61706  22.054  35.116  12.775
91107W        W61707  21.290   6.384   3.017
91108W        W61708  39.517   9.652  14.689
91109W        W61709  25.202   7.874   3.988
91110W        W61710  42.229   6.417   3.262
91111W        W61711  14.811   6.466  14.833
91112W        W61712  32.930  38.766   3.067
91113W        W61713  26.750  19.673   0.429
91114W        W61714  37.443  19.580   1.992
91115W        W61715  19.579  36.117  12.509
91116W        W61716   1.700  28.157   1.273
91117W        W61717  27.361  34.170   1.899
91118W        W61718  24.346  41.850   2.711
91119W        W61719  42.613  16.547  12.499
91120W        W61720  17.234  25.114  13.017
91121W        W61721  36.112  38.051  11.382
91122W        W61722  40.574  35.006   2.305
91123W        W61723  19.694  42.344   0.719
91124W        W61724  22.638   1.963  10.348
91125W        W61725  35.000  41.452  12.429
91126W        W61726  32.146   1.030   3.631
91127W        W61727   8.648  23.825  11.528
91128W        W61728  19.558  10.113  12.080
91129W        W61729  34.416   4.295   4.819
91130W        W61730  31.923  10.721  13.956
91131W        W61731   8.945  37.978   2.867
91132W        W61732  27.698  44.964  12.808
91133W        W61733  35.910   7.807  10.780
91134W        W61734  32.856   8.229   2.163
91135W        W61735  22.124  35.597   3.569
91136W        W61736  34.488  43.224   4.964
91137W        W61737  44.753  39.447   1.321
91138W        W61738  39.578  30.842   3.065
91139W        W61739  26.819  24.061  14.280
91140W        W61740  12.799  18.830  13.420
91141W        W61741  29.524   0.527  13.893
91142W        W61742   4.868   0.853   1.706
91143W        W61743  24.596   0.326   2.318
91144W        W61744  23.200  20.049   0.482
91145W        W61745   1.457  27.002   2.676
91146W        W61746   1.222   6.785   1.834
91147W        W61747  12.184  36.140  13.825
91148W        W61748  41.482   9.374  14.459
91149W        W61749  28.350  24.281  10.991
91150W        W61750  18.214  44.542   0.872
91151W        W61751  14.350  40.648   3.623
91152W        W61752  31.682   7.048  13.307
91153W        W61753  17.903  19.095  13.950
91154W        W61754  42.457  36.661   1.384
91155W        W61755  28.689   3.797   1.826
91156W        W61756  37.414   4.722  10.638
91157W        W61757   6.780  32.350  14.404
91158W        W61758  21.829  22.439   0.472
91159W        W61759  14.613  15.317   4.745
91160W        W61760  32.132   1.316  10.676
91161W        W61761   8.086  30.418   2.691
91162W        W61762  30.192  41.806   2.884
91163W        W61763  42.975  18.350   1.369
91164W        W61764  26.454  10.252   0.809
91165W        W61765  26.313  30.496  10.342
91166W        W61766  17.288  10.851  14.146
91167W        W61767  13.152  13.123  14.508
91168W        W61768  23.717  10.778   1.499
91169W        W61769   0.546  37.225   1.449
91170W        W61770  37.343  24.702  10.177
91171W        W61771  39.038   6.641   0.901
91172W        W61772  12.495   0.884  14.336
91173W        W61773   2.124  42.757  11.500
91174W        W61774  16.616  18.504  14.828
91175W        W61775   1.786  35.022   4.479
91176W        W61776  32.139  21.264  11.123
91177W        W61777  11.118  18.220  11.959
91178W        W61778  36.934  26.751  11.600
91179W        W61779   3.955  35.043  11.529
91180W        W61780  16.026  17.740  13.892
91181W        W61781  12.601  10.853   2.200
91182W        W61782  16.360  12.324  11.552
91183W        W61783  35.171  33.156  11.643
91184W        W61784   2.498  39.359   2.581
91185W        W61785   5.839   8.633  14.417
91186W        W61786  25.001  43.607   0.249
91187W        W61787  25.036  24.986  13.018
91188W        W61788  15.527   4.189   0.690
91189W        W61789  12.096  24.549   1.962
91190W        W61790  35.429  34.841   2.327
91191W        W61791  35.921  38.519  12.629
91192W        W61792  32.983   2.368   0.477
91193W        W61793  43.488  40.886   4.205
91194W        W61794  37.017  42.258  12.225
91195W        W61795  32.178  39.971  13.877
91196W        W61796  26.632  38.726   0.679
91197W        W61797  25.393  40.942  13.453
91198W        W61798  26.148  19.553   3.710
91199W        W61799   4.018  15.709   2.206
91200W        W61800   2.629  20.925   1.233
91201W        W61801   4.731  17.896   1.072
91202W        W61802  30.121  26.930   1.889
91203W        W61803   4.352   6.765   1.438
91204W        W61804   1.657  43.488   2.888
91205W        W61805  17.863  23.873  12.136
91206W        W61806  43.072  30.608   2.826
91207W        W61807  26.880  27.434  12.158
91208W        W61808  22.059  36.586  14.017
91209W        W61809   2.899  11.281   2.341
91210W        W61810  25.709  40.014  10.736
91211W        W61811  12.192  10.524  11.175
91212W        W61812   7.448  26.658  13.912
91213W        W61813  25.736  38.572   2.791
91214W        W61814   1.441  38.379   0.335
91215W        W61815  44.776  34.869  11.547
91216W        W61816  14.091   7.121   2.748
91217W        W61817  39.870  19.988   3.311
91218W        W61818  27.201  12.889  12.027
91219W        W61819  44.662  33.947  11.982
91220W        W61820  26.664   9.629  13.332
91221W        W61821  16.787   8.890  12.979
91222W        W61822  34.451  44.986   3.984
91223W        W61823  31.166  19.891   0.453
91224W        W61824  13.810  28.854  12.201
91225W        W61825   9.196  10.315  14.395
91226W        W61826   7.988   9.824  11.918
91227W        W61827  23.651  24.648  11.968
91228W        W61828  35.646  14.740   2.612
91229W        W61829   0.464  10.844  12.033
91230W        W61830  37.810  37.265   2.382
91231W        W61831  38.028  33.305  13.934
91232W        W61832  21.728  43.136  14.976
91233W        W61833  29.468  31.708  11.294
91234W        W61834  42.508  33.056  14.896
91235W        W61835   1.510  42.715   2.373
91236W        W61836  42.888   9.895   2.915
91237W        W61837  38.935  11.304   4.582
91238W        W61838   2.173   0.591  13.803
91239W        W61839   0.274  37.873  11.547
91240W        W61840   0.722   0.244  11.388
91241W        W61841  32.592  13.623   3.293
91242W        W61842  25.498  16.391   4.063
91243W        W61843  32.470   2.373   1.612
91244W        W61844  41.894  10.072  12.996
91245W        W61845  33.628  21.666  11.398
91246W        W61846  39.215  11.332   5.013
91247W        W61847  42.837  24.638   4.580
91248W        W61848  43.424   3.523   2.583
91249W        W61849   8.654  17.333   2.757
91250W        W61850  16.194  26.450   0.957
91251W        W61851  43.016  41.862   2.359
91252W        W61852  32.996  19.670  10.901
91253W        W61853  18.592  40.404   2.617
91254W        W61854  33.498  32.962   1.555
91255W        W61855  30.492  41.536   4.604
91256W        W61856  31.732   6.320   4.231
91257W        W61857  16.063   6.776  14.865
91258W        W61858  42.815  20.347   1.414
91259W        W61859  44.647   1.434  12.439
91260W        W61860  26.063  42.294  11.636
91261W        W61861  42.814  38.502  14.626
91262W        W61862  30.111   6.951   0.544
91263W        W61863  20.513  43.461   2.435
91264W        W61864  39.304  20.108  11.927
91265W        W61865  37.984  34.537   3.186
91266W        W61866  34.984  35.136   4.262
91267W        W61867  16.082  25.170   1.417
91268W        W61868   3.183  41.818   0.511
91269W        W61869  11.046  14.012   3.799
91270W        W61870  29.516  36.605  14.904
91271W        W61871  34.149  16.795   2.387
91272W        W61872  26.679  12.966  11.926
91273W        W61873  23.780  28.039   1.194
91274W        W61874   9.305  24.699   3.096
91275W        W61875  21.735  39.590   3.190
91276W        W61876  30.432  27.717   2.844
91277W        W61877   8.193  28.055   3.122
91278W        W61878  33.509  25.626  11.429
91279W        W61879  19.749  41.043  12.665
91280W        W61880  17.976   3.308  11.620
91281W        W61881  31.098  43.537   3.184
91282W        W61882  38.473  20.724   2.822
91283W        W61883  36.612  15.560  10.275
91284W        W61884  27.506  24.783   4.442
91285W        W61885  10.740   5.694  12.110
91286W        W61886  25.099  26.636   5.169
91287W        W61887  29.565   2.523  14.927
91288W        W61888  39.525  20.188  11.461
91289W        W61889  24.759   8.723  10.353
91290W        W61890  24.708   6.296  12.838
91291W        W61891   0.435   3.430   1.931
91292W        W61892   3.599  10.370   0.395
91293W        W61893   2.274  27.026   9.864
91294W        W61894  24.678  25.038  14.222
91295W        W61895   5.055  15.154  13.558
91296W        W61896   4.974  27.845   3.353
91297W        W61897  21.119  41.394  12.247
91298W        W61898  19.236  17.629   2.216
91299W        W61899  21.787  28.557  12.739
91300W        W61900  34.944  14.264   4.605
91301W        W61901   8.339  39.058   4.743
91302W        W61902  28.164  24.693  12.615
91303W        W61903  23.904  22.995   0.930
91304W        W61904  20.715  23.398  10.215
91305W        W61905  10.731  44.456   2.589
91306W        W61906  27.397  24.467  12.099
91307W        W61907  37.512  10.372  10.771
91308W        W61908  30.606   6.890   0.739
91309W        W61909  10.819  25.674  12.455
91310W        W61910   0.534  14.296   4.499
91311W        W61911  17.311  10.663   0.197
91312W        W61912  44.418  30.965   2.728
91313W        W61913  33.027   9.812   1.029
91314W        W61914   9.892  16.810  11.568
91315W        W61915  24.080  12.712  11.724
91316W        W61916  43.357   8.728   1.057
91317W        W61917  22.300  15.784   1.837
91318W        W61918  37.068  44.009   3.680
91319W        W61919  16.743  43.354   1.008
91320W        W61920  29.310  20.786  13.892
91321W        W61921  24.597  35.405  12.377
91322W        W61922  20.881  22.895   3.769
91323W        W61923  37.074  27.694  14.965
91324W        W61924   2.882  24.889  11.257
91325W        W61925   0.057  15.110  14.237
91326W        W61926  13.780   4.333   3.577
91327W        W61927  42.964  40.094   2.700
91328W        W61928   6.410  15.095   2.461
91329W        W61929  35.344  30.388   3.388
91330W        W61930  22.794  26.716  10.414
91331W        W61931  11.881  12.245  12.524
91332W        W61932  31.944  39.481  13.777
91333W        W61933   2.982  37.919   0.767
91334W        W61934  40.360  40.532  13.311
91335W        W61935  16.933  33.944   2.791
91336W        W61936  38.049  32.503  14.944
91337W        W61937   1.714  44.846  12.359
91338W        W61938  36.452  43.520   0.755
91339W        W61939  11.404   2.251  10.738
91340W        W61940  37.361  32.225   2.340
91341W        W61941  33.076  28.371  11.898
91342W        W61942  41.526   5.507   4.973
91343W        W61943  17.065  14.091   3.287
91344W        W61944  11.150  38.362  12.956
91345W        W61945   2.875  19.152  14.219
91346W        W61946   2.253  20.302  10.754
91347W        W61947  15.208  23.005   2.803
91348W        W61948  39.184  14.674   0.884
91349W        W61949   9.608   9.328   1.576
91350W        W61950  35.339   5.143  14.931
91351W        W61951  21.248  41.914   2.713
91352W        W61952   2.671  43.270   2.843
91353W        W61953  39.144   5.323  12.582
91354W        W61954   0.469  11.353  11.983
91355W        W61955  10.991  21.457  12.063
91356W        W61956   6.593   9.008   1.290
91357W        W61957  25.220  28.065  11.898
91358W        W61958  36.654  17.075   4.330
91359W        W61959  41.493  34.815  14.564
91360W        W61960  18.155  36.145   4.628
91361W        W61961   1.232  26.222  13.812
91362W        W61962  14.195  23.736   1.434
91363W        W61963   4.738  16.168   3.985
91364W        W61964  16.169  20.271   4.127
91365W        W61965  31.513  12.787  11.939
91366W        W61966   3.976  40.864  14.786
91367W        W61967  10.189  12.727  10.621
91368W        W61968  32.535  32.633  13.946
91369W        W61969  28.372  16.295   4.339
91370W        W61970  18.054  32.568   1.782
91371W        W61971  23.169  31.581   1.393
91372W        W61972  16.098  13.812   2.669
91373W        W61973  21.788  36.450   0.763
91374W        W61974  11.594   1.136   2.297
91375W        W61975  39.830  21.550   0.938
91376W        W61976   2.846   5.493  11.591
91377W        W61977   0.757  39.813   0.809
91378W        W61978  31.110  18.606   0.769
91379W        W61979  22.828  27.676   2.720
91380W        W61980  17.790  32.318  10.523
91381W        W61981   1.876  31.361   0.990
91382W        W61982  39.597  29.483   3.259
91383W        W61983   2.593  32.461   2.190
91384W        W61984  30.113  24.788   0.197
91385W        W61985  18.526  36.499  14.877
91386W        W61986  38.415  23.988  11.171
91387W        W61987  35.413   2.212  13.100
91388W        W61988  13.559  44.842  13.450
91389W        W61989  21.893   8.215   2.286
91390W        W61990  21.290  38.946  13.455
91391W        W61991  11.577   0.508   0.206
91392W        W61992   2.261  35.975  10.708
91393W        W61993   4.974  12.165   0.378
91394W        W61994   9.914  13.186  11.638
91395W        W61995  39.317  19.781  14.847
91396W        W61996  23.179  11.147   4.195
91397W        W61997  29.415  27.096  11.097
91398W        W61998  22.037  30.461  13.016
91399W        W61999   2.832  23.756   4.101
91400W        W62000  23.016  23.170   2.612
91401W        W62001  25.044  10.453   1.177
91402W        W62002  23.786  23.243  13.803
91403W        W62003  44.489  42.306   3.175
91404W        W62004   7.272  38.001  13.973
91405W        W62005   2.490  27.694   1.382
91406W        W62006  39.099  15.324  11.642
91407W        W62007  41.419  21.522  13.464
91408W        W62008  18.654  28.850  13.464
91409W        W62009  18.123  18.356   2.879
91410W        W62010  43.779  13.063  10.794
91411W        W62011  10.803  23.584  12.579
91412W        W62012  43.355  14.432   1.127
91413W        W62013  33.841  18.102  11.141
91414W        W62014   0.944  30.063  13.539
91415W        W62015  17.735  25.022   2.799
91416W        W62016   0.469  26.099   1.111
91417W        W62017   5.370   1.290  12.069
91418W        W62018   8.314  19.662  14.257
91419W        W62019  31.641   4.825   3.852
91420W        W62020  32.428   7.157   1.809
91421W        W62021  34.321  18.260  11.105
91422W        W62022  34.881   0.336  14.749
91423W        W62023  36.025  30.820   3.747
91424W        W62024   8.656  22.416   3.852
91425W        W62025   7.826   8.896  10.728
91426W        W62026  15.488  40.710  11.949
91427W        W62027  29.728   2.280   0.768
91428W        W62028  20.176  38.659   2.705
91429W        W62029   4.682  30.433   1.852
91430W        W62030  28.688  29.176  14.880
91431W        W62031  13.624  11.593   3.624
91432W        W62032  33.343  15.782  10.608
91433W        W62033  28.727  38.501   3.673
91434W        W62034  35.130  17.113  13.503
91435W        W62035  13.734   4.737   1.304
91436W        W62036  18.620  11.511   1.920
91437W        W62037  27.243  43.352  11.663
91438W        W62038  12.823  37.735   4.680
91439W        W62039  39.839   2.563  13.409
91440W        W62040   2.670  41.072  13.063
91441W        W62041  24.573  25.161  12.805
91442W        W62042  23.579   7.830   2.450
91443W        W62043  33.658   1.223  12.507
91444W        W62044  29.997   7.673  13.916
91445W        W62045   5.163   6.369   3.875
91446W        W62046  27.720  37.325  11.784
91447W        W62047   8.695  11.883   3.164
91448W        W62048  30.689  10.231   3.631
91449W        W62049  14.117  44.052   2.845
91450W        W62050  37.558  44.801   0.761
91451W        W62051  22.119   0.927   1.042
91452W        W62052  30.102  23.585  12.474
91453W        W62053  17.219  27.353   0.783
91454W        W62054   4.943  39.458  14.887
91455W        W62055  21.139  38.301  12.939
91456W        W62056  35.381   6.781   1.567
91457W        W62057  38.074  17.470  12.004
91458W        W62058  31.204  17.754   2.917
91459W        W62059  24.604  27.186  12.897
91460W        W62060  25.925   8.438   2.712
91461W        W62061  17.174   9.825   1.650
91462W        W62062  38.955  18.525  10.291
91463W        W62063  38.389  38.889   4.172
91464W        W62064  42.285   1.801   0.832
91465W        W62065  43.008  37.922  10.423
91466W        W62066  39.937  34.920  11.893
91467W        W62067  44.303  38.705  11.380
91468W        W62068   4.162   3.384  12.591
91469W        W62069  37.195  10.167  14.314
91470W        W62070  35.052  14.718   2.720
91471W        W62071   1.840  13.089   1.358
91472W        W62072   3.696   0.344   1.381
91473W        W62073  32.076  15.177  10.736
91474W        W62074  40.963  17.874  13.534
91475W        W62075  34.073   7.613  11.657
91476W        W62076   6.222  40.090   4.488
91477W        W62077   1.289  16.287  12.754
91478W        W62078   3.768  14.862  11.101
91479W        W62079  16.520  13.144   3.419
91480W        W62080   9.256  30.556  11.585
91481W        W62081  23.323   0.555   5.500
91482W        W62082   8.899   0.508  12.625
91483W        W62083   8.381  10.656   3.725
91484W        W62084  23.044  18.551  12.014
91485W        W62085  25.559  28.176   0.207
91486W        W62086   3.218  37.256  11.474
91487W        W62087  23.898  25.993  14.506
91488W        W62088  39.917  25.544   1.305
91489W        W62089  21.655  16.458  12.000
91490W        W62090   2.379  43.744   1.215
91491W        W62091  11.149  31.709   0.339
91492W        W62092  43.327   3.230  11.221
91493W        W62093  33.265  25.237   4.303
91494W        W62094   1.108  11.923   1.323
91495W        W62095   4.837  10.716  10.643
91496W        W62096  30.976   9.072  10.759
91497W        W62097  34.461  40.605   0.662
91498W        W62098  28.260  11.129   2.436
91499W        W62099  10.570   1.468   0.783
91500W        W62100  36.472  40.978   3.114
91501W        W62101   6.706  37.449   2.527
91502W        W62102  13.264  34.925  12.383
91503W        W62103   8.292  28.962  11.175
91504W        W62104  14.571  22.094  14.371
91505W        W62105  37.741  37.571  11.087
91506W        W62106  31.335  10.107   2.771
91507W        W62107  10.309  18.793   4.073
91508W        W62108   7.306  41.822   2.876
91509W        W62109  21.936   0.883   2.920
91510W        W62110  18.278  19.552  13.050
91511W        W62111  11.409  18.737  11.120
91512W        W62112  19.537   6.007  10.583
91513W        W62113   9.840  16.770   4.864
91514W        W62114  36.320  34.109  10.782
91515W        W62115   5.156   6.494  10.801
91516W        W62116  17.793  26.472   0.930
91517W        W62117  20.536  14.229  12.423
91518W        W62118  13.384  29.058   4.607
91519W        W62119  17.076  34.380   3.166
91520W        W62120  22.688  16.072  11.270
91521W        W62121  41.513  16.617   1.383
91522W        W62122  31.616   0.531   4.182
91523W        W62123  34.021  31.071  12.489
91524W        W62124  26.597   8.815   3.426
91525W        W62125  33.298  28.656  10.946
91526W        W62126  20.625   8.131   0.448
91527W        W62127  44.802   6.603  14.239
91528W        W62128  42.459  12.391   3.811
91529W        W62129  19.786  26.655  12.123
91530W        W62130  44.456  31.193  13.821
91531W        W62131  22.055  21.230   4.634
91532W        W62132  33.285  27.625   2.270
91533W        W62133  22.671   3.246  12.139
91534W        W62134  36.398  33.353  11.069
91535W        W62135  25.265  25.687   4.136
91536W        W62136  28.216  30.692   0.416
91537W        W62137  35.166   3.897  13.336
91538W        W62138  38.568  40.877  14.212
91539W        W62139  32.587  22.629   4.595
91540W        W62140   2.934  25.696   2.810
91541W        W62141  21.156  16.102  11.185
91542W        W62142   7.197  14.594   2.654
91543W        W62143  44.220  42.978  10.619
91544W        W62144  32.556  33.043   0.371
91545W        W62145  17.795  43.124   2.247
91546W        W62146  28.706   2.707   3.927
91547W        W62147   5.579   1.191  11.593
91548W        W62148   7.742  18.240  14.551
91549W        W62149  32.510   0.703   0.314
91550W        W62150  42.282  23.465  11.100
91551W        W62151  13.129  11.970   0.407
91552W        W62152  22.904  15.692  12.550
91553W        W62153  21.110   9.210  14.108
91554W        W62154  42.307  34.827   2.612
91555W        W62155  25.523  38.629   3.711
91556W        W62156  44.006  37.553   3.509
91557W        W62157  42.545  38.702  11.422
91558W        W62158  22.680  25.545  13.322
91559W        W62159  23.230  39.435   0.991
91560W        W62160   0.343  12.245   4.329
91561W        W62161   0.598  15.154  14.803
91562W        W62162  38.401  27.272   4.988
91563W        W62163  19.185  23.290  10.606
91564W        W62164  22.588  39.411   1.406
91565W        W62165  44.521  18.323  13.055
91566W        W62166  19.026  17.220  12.055
91567W        W62167   0.288  38.897   1.805
91568W        W62168  13.249  36.444  12.023
91569W        W62169  26.023  16.189  13.339
91570W        W62170  15.217  24.972  14.605
91571W        W62171   7.102  12.626   0.360
91572W        W62172  26.178  32.614  11.632
91573W        W62173  22.575   5.598   5.193
91574W        W62174  12.799  37.538  10.576
91575W        W62175  14.331   5.621  10.423
91576W        W62176  15.604  25.668  13.145
91577W        W62177  10.662  44.339  10.315
91578W        W62178  10.385   6.707  12.861
91579W        W62179  35.950  20.942   1.402
91580W        W62180  40.326  37.529  11.509
91581W        W62181   0.326  33.443  10.352
91582W        W62182   9.738  31.220  11.050
91583W        W62183  13.758  28.644  13.299
91584W        W62184  15.678  24.054  12.092
91585W        W62185   6.124  34.163   1.928
91586W        W62186  16.097  11.867   0.478
91587W        W62187   3.964  12.949  14.967
91588W        W62188  41.937  18.055  12.610
91589W        W62189  13.517  31.121   3.602
91590W        W62190  29.923  22.782  14.854
91591W        W62191  14.082  34.822   1.332
91592W        W62192  41.923  39.435   4.506
91593W        W62193  15.159   9.445  14.941
91594W        W62194   0.363   9.361   2.295
91595W        W62195  38.565  29.283   2.124
91596W        W62196  27.524  36.387   3.376
91597W        W62197  17.548  36.372   3.066
91598W        W62198  29.896  23.707   0.710
91599W        W62199  26.414  20.464  11.511
91600W        W62200  26.372  34.000   2.092
91601W        W62201  28.592  10.707   2.360
91602W        W62202  23.029  28.295   0.576
91603W        W62203   7.621   8.012   2.738
91604W        W62204  13.378  18.373  11.576
91605W        W62205  14.845  25.560   4.414
91606W        W62206  25.053  36.121  14.690
91607W        W62207   0.913   5.470  11.283
91608W        W62208  43.542  25.479   1.348
91609W        W62209  34.093  15.105  11.564
91610W        W62210  37.037  19.631  10.618
91611W        W62211  24.650  37.218  11.025
91612W        W62212   5.192   0.740  12.862
91613W        W62213  25.696  27.855   2.694
91614W        W62214  19.242  30.391   4.308
91615W        W62215  31.422  23.538  13.737
91616W        W62216  18.372  22.791   0.321
91617W        W62217  24.064  12.150  13.174
91618W        W62218  28.974  35.564  14.400
91619W        W62219  30.051  20.681   2.629
91620W        W62220  10.742   7.354   3.236
91621W        W62221  41.905  14.601   0.277
91622W        W62222  42.429  27.504  14.887
91623W        W62223  17.113  38.956  13.114
91624W        W62224  31.106  35.610   2.236
91625W        W62225  29.130  10.389   3.229
91626W        W62226  20.751  39.919   4.088
91627W        W62227  31.948  44.863   1.680
91628W        W62228   5.621  28.952   3.686
91629W        W62229   3.244   0.255  10.755
91630W        W62230   6.679   9.663  14.002
91631W        W62231  41.640  23.562  12.341
91632W        W62232   9.675   1.837   0.847
91633W        W62233   7.479  32.988  14.580
91634W        W62234  15.755  10.484  12.345
91635W        W62235  35.618   5.836  10.614
91636W        W62236  19.024  15.481  13.332
91637W        W62237   9.460  29.627  14.855
91638W        W62238  27.407  31.337  12.491
91639W        W62239  37.062   5.286  11.587
91640W        W62240   1.477   8.740   4.956
91641W        W62241  41.260  30.171  12.549
91642W        W62242  12.939  25.964   4.738
91643W        W62243  14.243  13.318  14.532
91644W        W62244  42.786  22.767   1.278
91645W        W62245  16.494  33.890   0.303
91646W        W62246  23.314  31.179   2.289
91647W        W62247  25.439  19.150   1.363
91648W        W62248  28.046  18.930  10.690
91649W        W62249  29.051   4.852  10.653
91650W        W62250   9.713   5.126   3.597
91651W        W62251   9.660  13.585  13.253
91652W        W62252  17.654   5.564  10.447
91653W        W62253  41.546  37.533  14.988
91654W        W62254  42.328  36.903   2.848
91655W        W62255  10.140  17.630  12.455
91656W        W62256  16.213  11.305  13.908
91657W        W62257  17.183  32.876  14.859
91658W        W62258  18.686  41.965   0.165
91659W        W62259  23.821  12.820   3.565
91660W        W62260  26.456  41.994  11.507
91661W        W62261  13.870  29.652  12.925
91662W        W62262  24.621   6.489  13.861
91663W        W62263  27.560  31.909  11.686
91664W        W62264   8.558  38.012   2.282
91665W        W62265   9.498  19.122  12.836
91666W        W62266  30.950   7.097  13.924
91667W        W62267  35.320   4.837  10.192
91668W        W62268  36.477  35.908  11.155
91669W        W62269   2.181  33.587   2.327
91670W        W62270  12.014  27.416  11.152
91671W        W62271   8.801  27.518   4.621
91672W        W62272  43.529  28.614  12.024
91673W        W62273  20.352  33.141   4.161
91674W        W62274  38.078  12.039  12.787
91675W        W62275  34.511   1.746  10.412
91676W        W62276  39.585  15.058   0.087
91677W        W62277  34.115   5.936   1.694
91678W        W62278  10.948  35.774   3.683
91679W        W62279  22.393   5.409  13.859
91680W        W62280   9.997  24.062   0.830
91681W        W62281   3.241   9.969  11.408
91682W        W62282  20.146   9.682  12.432
91683W        W62283  37.652  22.498   4.674
91684W        W62284  42.248  14.996   2.111
91685W        W62285   0.895  32.543   0.714
91686W        W62286   6.150  18.365   4.592
91687W        W62287  20.187  11.921  12.721
91688W        W62288   3.070  29.921  13.400
91689W        W62289   5.186  27.021   4.667
91690W        W62290  29.360  16.307  13.933
91691W        W62291  13.747   1.545  10.200
91692W        W62292  18.643  14.536  12.733
91693W        W62293  28.975  20.661   4.272
91694W        W62294  12.713  38.781   2.501
91695W        W62295  11.203  26.987  11.595
91696W        W62296  15.845  23.633  11.255
91697W        W62297  23.054  13.099   3.948
91698W        W62298  26.093   7.325  10.837
91699W        W62299  41.292  20.418   0.474
91700W        W62300   5.462  35.441   3.666
91701W        W62301   1.866  24.405   2.301
91702W        W62302  26.943  28.540   2.350
91703W        W62303  25.049  23.646   3.221
91704W        W62304  37.571  35.510   2.410
91705W        W62305  10.277  27.031  13.512
91706W        W62306  33.905   7.783  10.634
91707W        W62307  43.555   9.778  14.046
91708W        W62308   1.714  21.656   2.213
91709W        W62309  36.928   7.245   0.180
91710W        W62310  21.036  34.979  12.827
91711W        W62311   1.939  42.236  12.827
91712W        W62312   6.644  27.190   4.529
91713W        W62313   3.452   1.218  10.615
91714W        W62314   0.960  37.403   2.242
91715W        W62315  25.599  10.373   3.554
91716W        W62316  33.023  41.792  13.510
91717W        W62317  18.683  19.543   3.271
91718W        W62318  14.673  35.074   0.278
91719W        W62319   2.287  13.361   1.184
91720W        W62320  14.218   0.973   2.196
91721W        W62321  18.800  16.048   0.267
91722W        W62322  13.331  39.261  12.182
91723W        W62323  27.145   9.142   0.243
91724W        W62324  25.152  21.611  11.493
91725W        W62325  30.987  41.684   4.715
91726W        W62326  41.391  12.631  13.001
91727W        W62327  32.444  40.678   2.738
91728W        W62328  26.169  28.982   1.794
91729W        W62329   8.188   5.631  14.518
91730W        W62330  38.538  17.082  12.466
91731W        W62331  25.294  20.564   1.385
91732W        W62332   8.712  34.103  11.036
91733W        W62333  15.045  11.791   1.242
91734W        W62334  32.007  34.919   3.564
91735W        W62335  33.402  33.282   2.699
91736W        W62336   3.230  25.576  11.972
91737W        W62337  43.343  35.752  13.027
91738W        W62338  32.587  30.264  13.979
91739W        W62339  29.578   4.341  14.741
91740W        W62340  27.561   1.531  10.763
91741W        W62341  17.982  10.876   2.280
91742W        W62342  24.237  35.081   0.540
91743W        W62343  31.179  38.820   0.804
91744W        W62344   4.614  29.350   4.814
91745W        W62345  33.014  39.838  14.425
91746W        W62346  26.522   4.694  13.898
91747W        W62347  43.738  14.600  10.705
91748W        W62348  23.663   1.188  11.860
91749W        W62349  11.277  22.603   0.057
91750W        W62350  18.244  27.671  11.614
91751W        W62351  21.209  12.683   1.843
91752W        W62352  28.614  17.124  13.502
91753W        W62353  14.275  20.055   3.338
91754W        W62354  38.477   0.446   3.774
91755W        W62355  23.694  44.864  13.153
91756W        W62356  36.568  14.872   2.573
91757W        W62357   6.298  31.164   4.284
91758W        W62358  25.033  11.937  13.942
91759W        W62359  24.178   1.170   4.146
91760W        W62360   3.438  27.383  14.173
91761W        W62361   6.479  31.633  11.646
91762W        W62362   5.819   3.203  14.432
91763W        W62363  29.413  21.978  13.465
91764W        W62364  34.113  44.030  12.851
91765W        W62365  20.279  25.566  11.612
91766W        W62366  28.666  42.807   4.201
91767W        W62367  40.841   3.733   3.771
91768W        W62368  30.124  20.345   1.258
91769W        W62369   6.906  32.465  11.196
91770W        W62370   5.894  43.054   1.937
91771W        W62371   5.010   8.629  11.354
91772W        W62372  36.076  12.157  14.893
91773W        W62373  17.813  11.869  14.739
91774W        W62374  17.812  21.718   2.278
91775W        W62375  36.039  23.868   3.681
91776W        W62376  19.034   1.799  10.912
91777W        W62377  27.475   2.025  13.099
91778W        W62378  29.180  17.638  12.828
91779W        W62379  21.071  19.068  13.891
91780W        W62380  23.080   4.270  13.499
91781W        W62381   2.554  13.760  11.141
91782W        W62382  30.165  10.273   3.725
91783W        W62383  11.124  22.510   3.221
91784W        W62384  11.190  30.501  10.952
91785W        W62385  24.636  20.766   3.546
91786W        W62386  21.208   2.795   0.784
91787W        W62387   7.469  20.946  13.832
91788W        W62388  20.508  39.413  12.553
91789W        W62389  42.729   5.332   1.621
91790W        W62390  20.035   7.713  10.698
91791W        W62391  25.679  29.987  13.353
91792W        W62392  31.407   2.801  10.616
91793W        W62393  34.193  36.361   0.033
91794W        W62394  16.099  38.985   4.834
91795W        W62395  17.280  27.724  14.744
91796W        W62396  25.074  22.302   4.930
91797W        W62397   3.336  33.154   3.502
91798W        W62398  36.222  42.418   4.328
91799W        W62399  18.738  29.145   2.594
91800W        W62400  28.856  34.212  13.114
91801W        W62401  28.216   8.421   1.498
91802W        W62402  15.597  17.758   0.657
91803W        W62403   8.766  41.298  12.007
91804W        W62404   8.270  13.402  10.922
91805W        W62405  40.951  20.074  12.996
91806W        W62406  37.888  40.317   4.061
91807W        W62407   9.350  23.611   1.212
91808W        W62408  29.401   7.243   1.942
91809W        W62409  35.155  30.870  10.509
91810W        W62410  43.280  32.355  12.401
91811W        W62411  31.705  39.311  14.217
91812W        W62412  44.697  25.183  11.411
91813W        W62413  18.752  25.182   9.838
91814W        W62414   3.271  31.409   4.630
91815W        W62415  42.448  17.931  14.655
91816W        W62416  12.056  30.039   2.004
91817W        W62417  21.717  35.932  13.974
91818W        W62418  35.376  32.248  12.929
91819W        W62419  39.088  34.665   0.738
91820W        W62420  25.190  31.139  12.486
91821W        W62421  16.799  17.807  11.943
91822W        W62422   2.828   8.557  14.084
91823W        W62423   6.737  14.373  13.291
91824W        W62424  41.525  30.953   1.201
91825W        W62425  14.844  27.040   4.269
91826W        W62426  44.187  26.106   3.156
91827W        W62427  40.494  32.213  14.905
91828W        W62428  36.528  26.700  11.297
91829W        W62429  25.635  28.512   3.556
91830W        W62430  24.963  16.525  14.001
91831W        W62431  19.925   2.089   1.300
91832W        W62432  29.860  34.963  13.468
91833W        W62433  42.707  25.686  12.854
91834W        W62434  10.173  34.042   9.965
91835W        W62435  21.273   0.384   3.553
91836W        W62436  33.479  26.339   2.224
91837W        W62437  16.582  16.699  12.614
91838W        W62438  26.278   0.200   4.116
91839W        W62439  16.060  15.706  14.547
91840W        W62440  32.570   1.615  12.374
91841W        W62441  24.478   0.504   1.180
91842W        W62442   5.915  20.787  11.582
91843W        W62443  15.014  28.082  13.396
91844W        W62444  34.877  28.927  13.923
91845W        W62445   3.885  29.208  10.527
91846W        W62446  15.371  42.382  12.619
91847W        W62447  30.421  22.229   1.355
91848W        W62448  37.592   7.219  12.946
91849W        W62449  25.398  23.687   1.251
91850W        W62450  19.329  18.146   4.573
91851W        W62451  29.000  32.495  14.308
91852W        W62452  29.973   8.333   2.789
91853W        W62453  36.272  19.002  13.065
91854W        W62454  43.474  28.162   3.261
91855W        W62455  24.582   1.184  13.100
91856W        W62456  44.908  39.760  12.825
91857W        W62457  24.458  16.607  13.851
91858W        W62458  34.444  43.831  14.478
91859W        W62459  33.963  39.102  12.052
91860W        W62460  38.187  23.011   1.496
91861W        W62461   9.179  27.619   4.135
91862W        W62462  41.761  13.682  13.321
91863W        W62463  19.277  14.624   2.724
91864W        W62464  10.283  44.888   1.297
91865W        W62465  17.451   0.231   3.840
91866W        W62466  12.863   0.240   2.302
91867W        W62467   2.963  12.579   4.779
91868W        W62468  21.418  14.819   3.203
91869W        W62469  21.121  25.818  13.842
91870W        W62470  44.149   9.959   1.706
91871W        W62471  36.989  37.445  11.536
91872W        W62472  25.972  30.921   2.663
91873W        W62473  21.955  36.313  11.170
91874W        W62474  27.965  43.530   4.325
91875W        W62475  29.466   6.200  14.561
91876W        W62476  13.247   9.080   4.618
91877W        W62477  31.834  23.664   3.294
91878W        W62478  18.785   7.678  12.537
91879W        W62479   3.242   7.174   3.324
91880W        W62480  32.143  41.822   4.887
91881W        W62481   5.269   9.243   4.740
91882W        W62482  39.306   0.860  11.518
91883W        W62483   2.505  38.293   1.191
91884W        W62484   7.382   2.016  12.437
91885W        W62485   0.817  18.089  14.299
91886W        W62486  30.521   0.905  10.823
91887W        W62487  33.972  29.433  14.642
91888W        W62488  11.163  34.351  14.428
91889W        W62489  19.963  30.999  13.664
91890W        W62490  10.280  37.316   0.436
91891W        W62491  16.305   7.849   1.691
91892W        W62492  13.854  24.657   1.438
91893W        W62493  43.477   6.206  13.316
91894W        W62494   1.552  27.067   0.754
91895W        W62495  16.582  18.954   2.579
91896W        W62496  21.746  43.975   0.391
91897W        W62497   9.646   6.933   3.126
91898W        W62498  18.146  25.748  11.485
91899W        W62499  43.397   5.693   3.558
91900W        W62500  41.516  37.306   1.845
91901W        W62501  38.474  40.864   1.016
91902W        W62502  29.549  37.744   0.819
91903W        W62503  34.366   3.208   4.570
91904W        W62504  17.245   0.659   3.659
91905W        W62505   3.405   0.555  13.144
91906W        W62506  43.890  23.475  13.381
91907W        W62507  21.951  32.491  12.954
91908W        W62508  22.116   5.588   4.932
91909W        W62509   8.770  14.312  13.631
91910W        W62510  30.460   3.396   2.698
91911W        W62511  39.960  36.419   1.910
91912W        W62512  43.660   5.928   1.167
91913W        W62513  20.208  27.886  14.457
91914W        W62514  26.084   5.800   3.672
91915W        W62515  13.743   1.446   1.753
91916W        W62516  35.397  18.514  12.055
91917W        W62517  18.289  34.207  12.145
91918W        W62518   5.953  34.405  10.121
91919W        W62519  35.936   6.620  13.344
91920W        W62520  20.317  33.652  14.442
91921W        W62521  30.930  19.156  14.431
91922W        W62522  40.363   0.556  10.683
91923W        W62523  32.492  20.647   2.362
91924W        W62524  10.174  12.921  14.435
91925W        W62525  15.860   4.853  13.411
91926W        W62526  11.108  38.028  11.094
91927W        W62527  26.154  21.717   2.389
91928W        W62528  12.207   5.658  12.789
91929W        W62529  21.994  15.730   4.088
91930W        W62530  20.281  18.572   4.514
91931W        W62531  16.079  25.920   4.940
91932W        W62532  35.752  42.957  14.572
91933W        W62533  19.656  40.717  13.531
91934W        W62534  31.527   1.921  12.034
91935W        W62535  16.184  32.423  11.601
91936W        W62536  17.574  20.769  12.957
91937W        W62537  15.715  20.318  13.455
91938W        W62538   2.746  15.602   1.776
91939W        W62539   6.614  38.917  12.488
91940W        W62540  37.850   3.473  12.435
91941W        W62541  42.510  18.920  13.691
91942W        W62542   3.392  21.677  12.628
91943W        W62543  15.507  29.107   4.303
91944W        W62544  23.486  33.409  14.845
91945W        W62545  25.598  10.175   5.044
91946W        W62546  35.562  30.538   0.804
91947W        W62547  32.149  26.743  11.919
91948W        W62548  26.101  34.942   0.296
91949W        W62549  10.377  24.573   4.140
91950W        W62550  41.543  41.330   3.547
91951W        W62551  11.339  30.772  10.559
91952W        W62552  35.033  36.963  13.600
91953W        W62553  37.116  17.356   0.453
91954W        W62554  33.197  36.949   2.885
91955W        W62555   7.229   6.684   2.637
91956W        W62556  28.506   7.819  10.518
91957W        W62557   0.268   9.231  10.665
91958W        W62558  33.366   4.395   2.776
91959W        W62559   8.290   5.656  11.078
91960W        W62560  23.752  17.560  11.756
91961W        W62561   5.508  37.024   0.462
91962W        W62562  24.613  37.286  13.443
91963W        W62563   0.234  18.655   0.750
91964W        W62564  32.323   1.501   0.028
91965W        W62565   5.133  22.618   1.869
91966W        W62566  42.096   5.451   2.681
91967W        W62567   1.233  12.077   3.381
91968W        W62568   2.428  40.050   4.202
91969W        W62569  13.725  41.376  14.797
91970W        W62570  19.261  15.008  12.125
91971W        W62571  10.312   6.210  14.064
91972W        W62572  23.088  29.060   3.852
91973W        W62573   2.333  32.393   2.676
91974W        W62574   5.399  37.504   0.678
91975W        W62575  10.156  37.381  13.747
91976W        W62576  17.765  27.418  11.708
91977W        W62577   9.205  23.188  11.485
91978W        W62578  27.117  20.243   2.342
91979W        W62579  24.307  42.422  13.747
91980W        W62580  41.952  26.197  14.833
91981W        W62581  40.635  40.773  11.948
91982W        W62582  33.034  15.863   2.575
91983W        W62583  11.771  32.116   3.757
91984W        W62584  16.287  13.102  13.320
91985W        W62585  17.812  27.749  10.459
91986W        W62586  39.104  21.099   0.299
91987W        W62587  37.816  17.246  12.906
91988W        W62588  34.691  31.411  11.195
91989W        W62589  44.763   5.895  11.118
91990W        W62590  44.776   6.263   3.776
91991W        W62591  43.268  20.529   1.215
91992W        W62592  36.392  13.172   1.324
91993W        W62593  24.952  19.529   1.824
91994W        W62594   4.969  24.224   3.632
91995W        W62595  21.994  24.994  12.441
91996W        W62596  31.905  33.964  12.658
91997W        W62597  15.124  36.335   4.503
91998W        W62598  44.406  14.230  13.498
91999W        W62599  10.820  27.468  10.730
92000W        W62600  37.107  16.564  10.690
92001W        W62601   3.521  28.950  13.455
92002W        W62602  15.940   5.790  14.300
92003W        W62603  34.974  42.294   0.904
92004W        W62604   5.611  21.236  11.684
92005W        W62605  34.051  13.615  14.964
92006W        W62606   4.710  44.934   0.700
92007W        W62607  43.660  15.857   2.778
92008W        W62608  15.067   3.358   2.155
92009W        W62609  36.138  34.161  14.649
92010W        W62610  14.095  41.968  12.493
92011W        W62611   1.377  12.848   2.203
92012W        W62612  41.243  42.875  10.970
92013W        W62613   1.900   4.887   2.225
92014W        W62614  31.387   6.068  11.725
92015W        W62615   7.832  41.516  11.943
92016W        W62616   3.608   3.648  13.021
92017W        W62617  40.026   4.796  11.926
92018W        W62618  25.370  19.635  13.382
92019W        W62619  37.127  41.795   1.386
92020W        W62620  21.731  37.642   3.310
92021W        W62621  32.974  19.857  14.249
92022W        W62622  37.847  35.776   4.586
92023W        W62623   3.313  32.748   5.039
92024W        W62624   7.058  20.810   3.626
92025W        W62625   8.335  21.795   0.856
92026W        W62626  33.974  20.227   0.066
92027W        W62627  25.652  10.295   0.360
92028W        W62628  11.369  44.662  14.902
92029W        W62629   8.556   9.960  11.803
92030W        W62630  25.232   8.649  11.798
92031W        W62631  12.331  38.314  13.264
92032W        W62632  15.099   2.187   1.928
92033W        W62633  44.782  16.172  12.887
92034W        W62634  44.444  15.680  14.531
92035W        W62635  12.330  21.509   2.257
92036W        W62636  19.485  10.835  10.927
92037W        W62637  15.541  20.131  11.084
92038W        W62638  31.154  38.906   4.442
92039W        W62639   8.670  26.298  13.600
92040W        W62640  13.045  37.519  13.951
92041W        W62641  11.825  40.327   0.202
92042W        W62642  38.493  41.970   4.198
92043W        W62643  24.943  10.638  12.536
92044W        W62644  27.160   9.755  10.668
92045W        W62645  25.187   3.754  14.851
92046W        W62646  31.514  37.385   0.875
92047W        W62647  31.386  27.024  14.047
92048W        W62648  21.655  11.298   3.356
92049W        W62649  16.536  14.002   3.257
92050W        W62650  18.811  26.997  14.481
92051W        W62651  27.175  43.001  14.298
92052W        W62652  25.763  18.614  10.921
92053W        W62653   7.792   6.012   3.196
92054W        W62654  26.263  38.039   3.273
92055W        W62655  16.047   0.499  11.673
92056W        W62656  22.522  37.022   0.929
92057W        W62657  19.175  31.389  11.497
92058W        W62658   6.954  39.375  11.964
92059W        W62659  29.556  10.191   0.288
92060W        W62660  32.333  32.328   1.699
92061W        W62661  43.056   9.721  14.491
92062W        W62662   1.641  27.529   0.521
92063W        W62663  22.215  41.761   1.840
92064W        W62664  18.451  28.534  11.124
92065W        W62665  38.399  17.369   0.686
92066W        W62666  16.416  32.890  11.546
92067W        W62667  32.987  39.090  11.608
92068W        W62668   6.456  40.489   2.611
92069W        W62669  38.864  17.490  12.561
92070W        W62670  14.252  17.972   1.842
92071W        W62671  24.055   4.360   3.706
92072W        W62672  39.321   5.293  11.641
92073W        W62673  27.595  34.608  13.838
92074W        W62674  15.686  34.829   0.939
92075W        W62675   3.463  37.376   0.279
92076W        W62676  11.656  14.646   1.809
92077W        W62677  23.470  27.694  13.511
92078W        W62678  18.721  30.674   5.158
92079W        W62679  30.040   7.914  13.441
92080W        W62680   7.453  16.104  14.842
92081W        W62681  21.648  39.355   0.677
92082W        W62682  16.301   7.321   3.359
92083W        W62683  41.345  40.316   2.643
92084W        W62684  43.751  32.343   4.001
92085W        W62685  11.918  35.028  12.417
92086W        W62686  11.302   7.908   3.557
92087W        W62687  16.990  34.435  12.367
92088W        W62688   1.123   8.105  12.433
92089W        W62689   9.779  10.928  13.899
92090W        W62690  21.198  29.676   3.468
92091W        W62691  10.378  23.026  12.907
92092W        W62692   2.763  24.656  13.279
92093W        W62693  27.895  42.404   1.359
92094W        W62694  30.936  40.952   0.691
92095W        W62695  30.900  16.839   2.145
92096W        W62696  26.906  30.601  10.501
92097W        W62697  42.725   4.975   0.371
92098W        W62698  31.601  14.672  11.965
92099W        W62699  14.005  35.100   5.064
92100W        W62700   2.293   5.735  14.015
92101W        W62701  43.321  35.931  10.710
92102W        W62702  14.351  24.669  14.890
92103W        W62703   9.877  10.889  14.833
92104W        W62704   3.964  12.073  11.164
92105W        W62705  18.569   1.793   3.492
92106W        W62706  36.309   6.852   2.918
92107W        W62707  30.580  22.614  10.968
92108W        W62708  38.378  29.151  13.612
92109W        W62709  12.629  31.186   2.195
92110W        W62710  41.536  43.026   3.300
92111W        W62711  25.878  21.588   4.404
92112W        W62712  36.513  21.025   4.452
92113W        W62713  24.287   9.811  12.608
92114W        W62714   1.885  37.044  11.944
92115W        W62715  41.082  16.628   4.117
92116W        W62716   1.485  12.129  13.526
92117W        W62717  38.414   9.336   2.862
92118W        W62718  21.769  16.936  12.135
92119W        W62719  32.830  43.154   4.374
92120W        W62720  32.865  38.611   3.567
92121W        W62721  31.605  18.555  12.891
92122W        W62722  12.136  18.800  13.052
92123W        W62723  42.264  30.909   1.630
92124W        W62724   6.313  31.382  11.126
92125W        W62725  22.129  16.508   2.254
92126W        W62726  42.050   6.472   0.450
92127W        W62727  38.052  33.768   1.926
92128W        W62728  32.162  39.319   2.604
92129W        W62729  44.777  17.745   4.878
92130W        W62730  41.313  30.662  14.347
92131W        W62731   8.818  18.067  11.801
92132W        W62732   7.339  42.901  13.300
92133W        W62733  15.074   3.786   3.641
92134W        W62734  38.817  11.908   1.303
92135W        W62735  11.343  31.261  10.662
92136W        W62736  17.531  32.414  11.005
92137W        W62737  26.599   5.763  13.775
92138W        W62738  37.853  33.896  12.466
92139W        W62739  13.478  16.122   3.546
92140W        W62740  10.706  24.920   2.328
92141W        W62741  29.668  24.606   2.737
92142W        W62742  38.602  13.879   2.017
92143W        W62743   6.746  37.022   1.319
92144W        W62744  16.297  39.959  11.449
92145W        W62745  38.079   2.991   2.647
92146W        W62746   0.506  39.592   2.910
92147W        W62747  28.436  41.888   4.668
92148W        W62748  11.593  12.695  11.819
92149W        W62749  13.226   2.782  10.424
92150W        W62750  12.058  14.279  10.430
92151W        W62751  27.627   6.233  14.609
92152W        W62752  30.905   5.413   2.819
92153W        W62753  27.234  24.496   4.130
92154W        W62754  23.691  14.580  13.930
92155W        W62755  20.064  12.229  14.371
92156W        W62756  18.235   8.249   3.181
92157W        W62757   1.458  26.614  12.907
92158W        W62758  39.556   4.869   2.653
92159W        W62759   4.980  35.980  12.623
92160W        W62760  16.608  22.708  13.983
92161W        W62761  11.111  33.449  14.393
92162W        W62762  35.045  21.177   1.829
92163W        W62763   4.852  41.423  12.563
92164W        W62764  27.706  12.361  13.553
92165W        W62765  29.941  18.479  13.538
92166W        W62766   9.739   1.774   1.752
92167W        W62767  15.238  24.498   0.035
92168W        W62768  17.890   7.481   4.163
92169W        W62769  37.824  28.465  12.410
92170W        W62770   9.590  33.090   0.030
92171W        W62771  20.625   9.110   3.143
92172W        W62772   0.373  11.785  14.903
92173W        W62773  37.877   5.732   4.244
92174W        W62774  42.427  41.538  10.783
92175W        W62775  24.180  36.550  12.517
92176W        W62776   4.716  31.960   2.706
92177W        W62777  23.428  25.516  10.824
92178W        W62778   5.434  15.503   1.812
92179W        W62779  23.057   2.991  12.717
92180W        W62780  29.436   2.390   4.428
92181W        W62781  32.532  32.860   0.838
92182W        W62782  37.557   1.729   3.846
92183W        W62783  40.438  17.488   4.355
92184W        W62784  32.094  38.895   2.909
92185W        W62785   8.760  35.956  10.651
92186W        W62786  13.193  10.710  12.562
92187W        W62787   4.490   0.387  12.264
92188W        W62788   5.358  19.893   2.065
92189W        W62789  12.580  19.111  12.991
92190W        W62790  16.783   8.255  10.625
92191W        W62791   0.984  44.312  11.199
92192W        W62792  44.432   9.872  10.762
92193W        W62793  24.411  15.252  13.920
92194W        W62794  22.549  42.526   0.297
92195W        W62795  20.438  12.167   1.931
92196W        W62796   6.176  12.651  12.049
92197W        W62797  12.459   3.219   4.022
92198W        W62798  34.514  15.525  13.954
92199W        W62799  17.280  33.453   0.799
92200W        W62800  12.593  27.128   4.187
92201W        W62801  14.547  38.779  11.076
92202W        W62802  18.014   6.888  11.776
92203W        W62803  42.516  10.086   3.239
92204W        W62804  21.602  35.608  12.730
92205W        W62805  10.350  25.503  11.617
92206W        W62806  12.946  11.141  12.434
92207W        W62807  44.876  18.501   4.182
92208W        W62808  34.039  37.323  14.821
92209W        W62809  34.912  28.577   3.199
92210W        W62810   6.331   2.534   0.390
92211W        W62811   4.637  21.098   1.295
92212W        W62812  14.822  28.915   3.493
92213W        W62813  40.311  25.519  13.595
92214W        W62814  17.512  14.128   2.327
92215W        W62815  28.140  31.409   1.654
92216W        W62816  27.036  10.335   3.561
92217W        W62817  34.821  36.382   2.307
92218W        W62818  16.078   8.388  13.732
92219W        W62819   3.740  11.666  14.134
92220W        W62820  30.963  15.576  13.586
92221W        W62821  18.997  17.870  13.042
92222W        W62822  36.870  26.213  11.508
92223W        W62823  23.493  17.644  10.845
92224W        W62824  44.852  38.686  11.613
92225W        W62825  35.428  21.580   0.895
92226W        W62826  32.028   0.855   3.149
92227W        W62827  23.526   0.326  11.810
92228W        W62828  17.805  35.191   0.773
92229W        W62829  20.959  40.155  14.209
92230W        W62830  38.062   5.484  13.626
92231W        W62831  16.355  41.236   3.204
92232W        W62832   6.204  36.763  10.272
92233W        W62833  22.977  38.813  10.942
92234W        W62834   5.590  42.513  14.777
92235W        W62835  16.478  28.477  14.713
92236W        W62836   6.928   7.210   3.833
92237W        W62837  31.928  34.638   1.813
92238W        W62838  38.898  36.411  13.170
92239W        W62839  35.056  42.816   0.904
92240W        W62840  16.231  18.572   0.861
92241W        W62841  15.107   2.582  12.597
92242W        W62842  44.092   1.237  11.068
92243W        W62843  15.260  21.516  12.483
92244W        W62844  21.551  24.996  12.732
92245W        W62845  22.271  28.139   0.682
92246W        W62846  42.850  24.513  13.593
92247W        W62847  24.492  40.029   0.639
92248W        W62848  40.350   0.955  13.840
92249W        W62849  35.474  29.143   2.764
92250W        W62850   0.755  19.533  12.764
92251W        W62851  37.332  20.651   1.383
92252W        W62852   8.767  13.657   1.446
92253W        W62853  33.098  42.789  14.369
92254W        W62854  32.540   8.843  11.390
92255W        W62855  36.076  42.991   0.415
92256W        W62856  31.001  17.958   1.423
92257W        W62857  18.845   0.418   0.502
92258W        W62858  40.255  33.896   4.808
92259W        W62859   3.493  13.167   0.826
92260W        W62860  11.200   0.882   0.293
92261W        W62861   3.890  25.017   4.973
92262W        W62862  39.655  38.734  10.673
92263W        W62863  41.343  15.045   2.261
92264W        W62864  38.353   4.253  10.247
92265W        W62865   8.852  13.292   4.143
92266W        W62866  44.851  31.008   4.289
92267W        W62867   7.907  12.818   4.160
92268W        W62868  42.289  37.137  14.950
92269W        W62869  26.496  23.471  11.506
92270W        W62870  10.261  38.002   3.135
92271W        W62871  19.172   7.711   2.861
92272W        W62872  34.937  30.224   2.266
92273W        W62873  39.185   0.687   0.105
92274W        W62874   0.832   2.339   3.242
92275W        W62875  20.308  22.655   3.308
92276W        W62876  14.306  15.675  11.171
92277W        W62877   4.734  13.727   1.724
92278W        W62878  37.465  35.823  11.108
92279W        W62879   7.844  37.369   1.868
92280W        W62880  38.832  44.773   0.329
92281W        W62881  29.131  20.535  12.327
92282W        W62882  15.835  26.185   1.831
92283W        W62883  43.598  40.826  12.024
92284W        W62884  35.966   4.444   2.479
92285W        W62885  30.336  23.979   1.741
92286W        W62886  30.702  15.105   0.274
92287W        W62887  15.247  23.602  14.840
92288W        W62888  27.692  31.697   1.824
92289W        W62889  19.555  39.139  10.679
92290W        W62890  35.299  26.235  13.456
92291W        W62891  40.841   1.336  13.065
92292W        W62892  15.814  28.137   4.195
92293W        W62893   8.365  42.769  10.956
92294W        W62894  20.757  30.215   1.304
92295W        W62895  37.422  28.479   1.183
92296W        W62896  18.124  13.698   3.353
92297W        W62897  28.618  11.780  12.163
92298W        W62898  42.301  26.195  14.265
92299W        W62899   0.548  30.604   3.918
92300W        W62900   8.607  18.059   3.331
92301W        W62901  29.424  29.406  12.669
92302W        W62902  19.836  44.512  11.034
92303W        W62903  13.859  16.409   3.292
92304W        W62904  22.685  43.544   0.243
92305W        W62905  19.977  19.631   2.247
92306W        W62906   3.513   4.155  11.729
92307W        W62907  22.717  31.028   0.753
92308W        W62908  24.765  19.262   0.729
92309W        W62909  33.399  28.900   0.823
92310W        W62910   3.440  16.310   3.601
92311W        W62911   8.120  40.713  11.656
92312W        W62912  20.672  33.929  12.989
92313W        W62913  16.148  18.282  12.803
92314W        W62914  38.950  35.498   0.720
92315W        W62915  43.961  20.642   2.885
92316W        W62916  22.270  23.084  13.555
92317W        W62917  17.387  15.022  14.262
92318W        W62918   3.357  31.965  11.895
92319W        W62919  27.431   5.706   1.845
92320W        W62920  10.382  23.004   0.720
92321W        W62921  29.368  29.482  10.605
92322W        W62922  26.105  21.219   0.259
92323W        W62923   4.844   4.725   0.768
92324W        W62924  22.655  32.139  12.485
92325W        W62925  43.224  27.312  14.994
92326W        W62926  15.370  27.798   3.193
92327W        W62927  26.073   5.211   2.620
92328W        W62928  15.102  25.231   4.019
92329W        W62929   9.345   6.674  11.164
92330W        W62930  33.519  20.251  10.992
92331W        W62931  21.014   5.302  11.159
92332W        W62932   9.215   4.044   0.833
92333W        W62933  10.747  20.080  11.616
92334W        W62934   4.455  42.285   4.561
92335W        W62935  11.637  28.653   4.063
92336W        W62936   4.643  34.473   0.925
92337W        W62937   4.378  11.351   1.243
92338W        W62938  24.622  31.452  11.608
92339W        W62939  25.680  43.971   0.054
92340W        W62940  29.659  17.638  12.074
92341W        W62941  27.178  31.948  10.211
92342W        W62942  25.515  25.990  13.079
92343W        W62943  34.572  38.923  11.110
92344W        W62944  18.347  16.845   1.263
92345W        W62945  12.332  14.358  13.423
92346W        W62946   1.185   5.210   0.779
92347W        W62947   9.170  20.359   4.112
92348W        W62948  40.211  32.528  11.423
92349W        W62949  12.658  28.167   0.484
92350W        W62950  40.614  42.917  11.623
92351W        W62951  42.320  18.609   1.669
92352W        W62952  31.738  10.154   1.111
92353W        W62953  36.360  27.438  11.178
92354W        W62954   3.216  26.123   3.695
92355W        W62955   8.429   7.431   0.985
92356W        W62956  43.423  14.736  14.050
92357W        W62957   5.141  20.010   0.780
92358W        W62958  14.152  25.962  10.620
92359W        W62959  17.107  39.022  12.592
92360W        W62960  32.422  42.313  14.575
92361W        W62961   4.967  20.245   3.653
92362W        W62962  43.897   9.622  14.760
92363W        W62963  27.667  24.421   0.971
92364W        W62964  39.613  15.226  14.578
92365W        W62965  14.932  43.959  11.343
92366W        W62966  21.426  34.461   2.249
92367W        W62967  17.780  21.194  12.061
92368W        W62968   2.675  30.075   3.027
92369W        W62969  23.056  33.029  10.660
92370W        W62970  38.591  31.437  12.921
92371W        W62971  38.881  12.588   1.868
92372W        W62972  28.057  43.084   0.464
92373W        W62973  12.661  32.121   4.752
92374W        W62974  29.216  14.579  14.983
92375W        W62975  10.939  10.861  14.832
92376W        W62976  43.744   6.321   2.265
92377W        W62977   2.331   5.190  14.214
92378W        W62978   2.385  40.094   2.842
92379W        W62979   7.103   4.121  11.254
92380W        W62980  26.579  35.097   1.479
92381W        W62981   0.001  25.748   2.296
92382W        W62982  40.620  12.829  13.431
92383W        W62983  10.149  38.931  14.958
92384W        W62984  12.646  15.312   2.805
92385W        W62985  13.550  11.618   3.122
92386W        W62986  39.312  28.727  12.066
92387W        W62987  19.673  42.715  12.408
92388W        W62988  21.203  23.445  11.983
92389W        W62989   9.710  25.754  10.591
92390W        W62990  29.229   5.268  12.077
92391W        W62991  36.330  30.748  13.917
92392W        W62992  23.713  37.938   2.330
92393W        W62993  34.592   3.866   0.206
92394W        W62994  32.484  23.916   0.320
92395W        W62995  25.107  41.192   1.003
92396W        W62996  18.689   1.161  14.042
92397W        W62997   1.689   5.078   0.836
92398W        W62998  30.702  38.668   4.567
92399W        W62999   3.805   7.148   1.962
92400W        W63000  37.564  31.123   4.855
92401W        W63001  23.598  14.321   4.610
92402W        W63002  21.173  13.638   3.653
92403W        W63003  42.382  32.511   4.668
92404W        W63004  32.946  27.180  12.026
92405W        W63005  40.012   4.699  12.472
92406W        W63006  44.885  42.967   0.277
92407W        W63007  36.439  13.549   3.652
92408W        W63008  25.888  25.445  11.595
92409W        W63009   8.641  19.068  11.701
92410W        W63010  10.019  13.526  13.596
92411W        W63011  11.770  37.169  10.783
92412W        W63012   6.139  40.902  10.727
92413W        W63013  17.594  44.366  10.515
92414W        W63014   5.402  32.128  14.288
92415W        W63015  36.953  16.062  12.183
92416W        W63016  40.067   5.415  13.847
92417W        W63017  37.339  24.010  11.973
92418W        W63018  13.592  28.657   3.768
92419W        W63019  27.056  16.503  10.814
92420W        W63020  23.568   7.070  12.543
92421W        W63021   3.485  40.413  14.785
92422W        W63022  26.214  29.244  11.091
92423W        W63023  35.466  22.130   0.051
92424W        W63024  23.180   9.716  12.545
92425W        W63025  32.967  12.641   1.914
92426W        W63026  13.699  40.433  10.291
92427W        W63027   4.332  34.906   0.863
92428W        W63028  14.173  43.568  10.313
92429W        W63029   8.940  36.070  12.984
92430W        W63030  20.458   1.451  14.480
92431W        W63031  37.973   2.366  11.500
92432W        W63032   6.100  35.383   0.740
92433W        W63033   7.943  14.702   4.491
92434W        W63034  18.279  16.547   1.673
92435W        W63035  22.260  43.931  13.974
92436W        W63036  26.239  43.850  14.323
92437W        W63037  20.714  10.721  12.374
92438W        W63038   9.652  29.108  14.830
92439W        W63039  13.274  40.957  11.599
92440W        W63040  34.910  35.988   1.516
92441W        W63041   7.322   6.915  10.547
92442W        W63042  37.179  40.245  12.200
92443W        W63043   9.722   1.395  12.270
92444W        W63044  14.181  18.672   2.358
92445W        W63045  37.209  22.504   4.973
92446W        W63046   2.320   3.914   0.953
92447W        W63047  44.318  29.438   2.237
92448W        W63048  30.771   4.301   4.197
92449W        W63049  33.210  31.555   4.070
92450W        W63050   8.298  30.418  13.084
92451W        W63051  31.653  38.894   4.581
92452W        W63052  27.516   0.829  13.150
92453W        W63053  34.632   5.916  11.470
92454W        W63054  39.845  14.382   0.455
92455W        W63055  43.885  28.124   4.482
92456W        W63056  10.276   4.137   3.314
92457W        W63057  11.627  22.446  10.717
92458W        W63058  16.929  13.201   3.769
92459W        W63059  23.136   4.831  13.662
92460W        W63060  39.807  25.027  13.077
92461W        W63061   1.449  25.449   1.548
92462W        W63062   6.004   9.190  10.611
92463W        W63063  22.684   9.344   2.156
92464W        W63064  18.491  11.944  11.152
92465W        W63065  32.494  17.038  14.904
92466W        W63066  42.843   5.132   3.497
92467W        W63067   9.692   9.798  10.888
92468W        W63068  18.260   5.320  11.990
92469W        W63069  29.551  36.297   3.159
92470W        W63070  27.295   3.247   4.626
92471W        W63071  10.602  42.303   4.888
92472W        W63072  20.990  43.405  12.421
92473W        W63073  11.655  36.202  13.764
92474W        W63074  35.922  31.619  14.981
92475W        W63075  33.559  22.668  11.733
92476W        W63076  10.120  44.530   2.604
92477W        W63077  17.024  28.810  10.912
92478W        W63078  25.490  22.762  10.293
92479W        W63079  27.630  20.373   2.858
92480W        W63080  13.174  23.265   3.084
92481W        W63081  41.122  10.675  14.897
92482W        W63082  29.037   2.225   1.383
92483W        W63083  21.612  19.503  12.955
92484W        W63084  38.396  16.774  10.729
92485W        W63085   1.505  22.229   1.330
92486W        W63086   6.219   6.487  11.119
92487W        W63087   8.387  37.388   3.902
92488W        W63088  31.069  29.639   4.564
92489W        W63089  44.899  17.138  13.159
92490W        W63090  23.553  40.057   3.759
92491W        W63091  23.207  28.376  13.018
92492W        W63092  18.258  35.081  12.136
92493W        W63093  29.647   8.716  14.445
92494W        W63094   4.787   8.887   4.044
92495W        W63095  23.182  28.229  12.386
92496W        W63096  38.917  12.187  11.623
92497W        W63097  20.663  15.931   4.473
92498W        W63098  28.034  16.469   1.271
92499W        W63099  20.582  44.163   1.439
92500W        W63100  20.708  16.625  11.412
92501W        W63101  17.246  24.224  11.604
92502W        W63102  25.907  32.615  13.548
92503W        W63103  34.450  17.676  11.972
92504W        W63104  16.300  33.445   4.570
92505W        W63105   1.253   7.820   1.876
92506W        W63106  31.843   2.024   0.856
92507W        W63107  13.733  34.645   0.974
92508W        W63108  34.514  39.530   2.879
92509W        W63109  25.215  26.709  12.168
92510W        W63110   7.582   0.685  10.259
92511W        W63111  36.583  17.273  11.789
92512W        W63112  11.822  24.462  11.641
92513W        W63113  41.331  14.145  12.911
92514W        W63114  24.070  16.691  12.317
92515W        W63115  28.890  23.967  11.111
92516W        W63116  26.716  16.160   1.919
92517W        W63117  14.227  16.896  13.268
92518W        W63118  17.305   2.157   9.765
92519W        W63119  28.980  24.165   0.850
92520W        W63120  20.999   3.366   4.100
92521W        W63121   2.055  31.577   3.310
92522W        W63122  13.094  24.687   1.730
92523W        W63123  27.507  13.807  14.464
92524W        W63124  31.252  36.604  12.491
92525W        W63125  29.243   4.958   1.131
92526W        W63126  40.150  33.292  12.789
92527W        W63127  14.800  30.497   0.054
92528W        W63128   1.801   2.739  13.472
92529W        W63129  31.040   2.719   3.766
92530W        W63130   7.756   0.002   0.665
92531W        W63131  29.481  19.352  13.456
92532W        W63132   1.316  27.415   1.700
92533W        W63133  22.477  34.899  12.276
92534W        W63134  39.590  44.222   2.829
92535W        W63135   2.892  42.906   1.424
92536W        W63136  15.131  39.197   4.238
92537W        W63137  39.624  34.957   4.209
92538W        W63138  39.334  26.908   4.552
92539W        W63139  39.866  13.868   0.492
92540W        W63140   5.373  25.284   2.632
92541W        W63141  38.350  23.938  14.835
92542W        W63142   3.399  36.850   4.295
92543W        W63143  27.964  34.012   3.723
92544W        W63144  28.368  14.555  11.180
92545W        W63145  27.558   9.731   4.589
92546W        W63146  28.011  37.569  10.820
92547W        W63147  21.646  22.037  11.299
92548W        W63148  18.357  22.665   1.630
92549W        W63149  27.635  43.045  13.050
92550W        W63150  28.051  18.431  10.773
92551W        W63151  29.953   1.673  10.424
92552W        W63152  32.319  27.984  13.726
92553W        W63153  40.942  43.433   0.610
92554W        W63154  25.824  28.857   3.205
92555W        W63155  36.924   8.909  11.028
92556W        W63156  33.739  24.434   4.198
92557W        W63157  21.401  27.684  11.177
92558W        W63158   3.930  33.067  12.005
92559W        W63159  13.891  19.167   3.811
92560W        W63160  23.057   5.233   3.939
92561W        W63161  32.609  38.386  11.076
92562W        W63162  30.911   7.708   1.179
92563W        W63163  14.272  11.104   1.297
92564W        W63164  27.576   0.170   3.321
92565W        W63165  16.745  42.963   2.273
92566W        W63166   5.842  31.372   1.742
92567W        W63167   9.789  18.749  14.032
92568W        W63168   1.511  12.188  12.153
92569W        W63169   9.032  32.617  14.284
92570W        W63170   5.252   7.232   4.448
92571W        W63171  23.969  34.646   4.556
92572W        W63172   1.521  27.855   3.089
92573W        W63173  15.199  20.233  13.494
92574W        W63174  15.725  29.405   2.853
92575W        W63175  14.368  38.292   1.871
92576W        W63176  39.950  36.769   1.285
92577W        W63177  23.104  13.267  13.045
92578W        W63178  30.644  14.214   2.071
92579W        W63179  25.431   3.366  12.695
92580W        W63180  28.472  44.217   3.498
92581W        W63181  10.781  24.797  13.021
92582W        W63182  13.030   7.309   4.759
92583W        W63183   5.788  37.326  12.988
92584W        W63184   0.032  34.972  11.993
92585W        W63185  40.891  35.771   0.400
92586W        W63186  10.317  41.605  14.390
92587W        W63187  44.055  42.417  14.415
92588W        W63188  41.431  43.698  12.888
92589W        W63189   1.040  43.961   2.239
92590W        W63190  30.534   2.045  14.037
92591W        W63191  17.618  40.950  11.598
92592W        W63192  31.209  32.043  12.055
92593W        W63193   6.185   4.286   2.335
92594W        W63194  36.630  40.870   2.075
92595W        W63195   3.955  25.990   1.221
92596W        W63196  38.349  34.089  14.134
92597W        W63197  35.885   3.541   2.143
92598W        W63198  25.086  18.253  11.605
92599W        W63199  13.672  16.003  10.741
92600W        W63200  41.275  17.637   3.158
92601W        W63201   6.461  15.147  11.154
92602W        W63202  29.110  18.050  13.557
92603W        W63203  30.157  40.219  12.964
92604W        W63204  13.336  24.668   0.131
92605W        W63205  22.502   7.249   3.730
92606W        W63206  31.242   8.107   4.195
92607W        W63207  23.137  38.015  14.748
92608W        W63208  14.338  28.423   2.358
92609W        W63209   0.217  13.697   4.496
92610W        W63210  27.175  14.649   4.659
92611W        W63211  44.268  21.724   3.217
92612W        W63212  36.848  27.585   4.131
92613W        W63213   5.132   1.406  12.512
92614W        W63214  14.817  26.586   4.568
92615W        W63215  28.916   7.403   1.912
92616W        W63216   4.208  11.662  13.883
92617W        W63217  28.576  35.565   2.052
92618W        W63218  43.507  37.120  12.002
92619W        W63219   6.357  14.649  11.158
92620W        W63220  42.466  18.124   3.874
92621W        W63221   6.183  22.420  11.037
92622W        W63222  43.099  17.852  13.221
92623W        W63223   3.730   7.136  10.611
92624W        W63224  10.154  40.290   2.795
92625W        W63225  25.603   7.387  13.478
92626W        W63226  26.551   6.235  11.981
92627W        W63227   6.399  42.617   0.810
92628W        W63228   6.907  42.775  12.989
92629W        W63229  38.768  34.087   2.330
92630W        W63230  33.090  44.435   0.367
92631W        W63231  30.247  20.187  14.390
92632W        W63232  15.413  16.253   0.923
92633W        W63233  42.010   3.265  12.652
92634W        W63234  35.129  20.730  14.988
92635W        W63235  26.043  36.420  13.040
92636W        W63236   5.206  34.927  12.956
92637W        W63237  30.890  39.749  13.739
92638W        W63238  38.000  27.220  12.895
92639W        W63239  38.748  20.314  11.670
92640W        W63240  22.778  25.480  12.378
92641W        W63241   7.948  22.254  13.240
92642W        W63242  11.513  36.319   3.133
92643W        W63243  27.528  27.999   1.976
92644W        W63244  33.007  10.406  12.984
92645W        W63245   2.675   2.378  14.819
92646W        W63246  27.257  33.365   4.587
92647W        W63247  11.040  23.101   2.369
92648W        W63248  39.328  15.366   0.445
92649W        W63249  37.532  30.527  14.049
92650W        W63250   1.281  35.912   4.586
92651W        W63251  34.421  24.886   0.392
92652W        W63252   0.859  25.126  11.225
92653W        W63253  22.593  30.188  14.812
92654W        W63254  25.233  36.662  12.157
92655W        W63255  27.001  19.133  14.365
92656W        W63256   8.678  27.774   4.211
92657W        W63257  35.945  44.619  13.500
92658W        W63258  25.266  26.378  11.180
92659W        W63259   4.224   5.432  12.287
92660W        W63260  20.784  18.737   0.477
92661W        W63261  30.318  20.074   0.314
92662W        W63262   8.165   6.349  10.450
92663W        W63263   2.475  43.930   0.708
92664W        W63264  23.234   5.180  13.271
92665W        W63265  25.153  17.749  12.138
92666W        W63266  14.842  26.086  13.436
92667W        W63267   2.721  15.644   0.839
92668W        W63268  18.699  43.234   1.265
92669W        W63269   0.514   0.708   2.826
92670W        W63270  34.965  27.845   1.815
92671W        W63271   7.196  17.530   2.338
92672W        W63272   4.343  43.709   1.770
92673W        W63273  14.323   5.198   3.836
92674W        W63274   9.672  17.848  13.569
92675W        W63275  15.151  23.467  14.358
92676W        W63276   3.438  33.429   2.859
92677W        W63277   2.358   0.354   3.683
92678W        W63278  33.822  39.519   4.172
92679W        W63279   6.490  36.809  12.932
92680W        W63280  14.758  35.607  12.926
92681W        W63281  25.668  10.148  10.780
92682W        W63282   5.726  40.484  14.465
92683W        W63283   3.071  28.968  10.669
92684W        W63284  35.270  19.301   1.199
92685W        W63285  39.009  41.534   2.212
92686W        W63286  43.740  37.633   0.772
92687W        W63287  11.098  44.496   0.307
92688W        W63288   0.866   3.443  12.492
92689W        W63289  42.927  31.327  13.856
92690W        W63290   6.435   9.686   0.932
92691W        W63291   0.655   7.632   4.082
92692W        W63292   3.675  22.615   4.667
92693W        W63293   6.908  29.053  12.341
92694W        W63294  34.553  28.120  13.378
92695W        W63295  22.756  16.237  12.629
92696W        W63296   1.101  13.579  13.314
92697W        W63297   7.392  17.115  13.329
92698W        W63298  43.423  16.581  14.408
92699W        W63299  14.308  30.183   3.688
92700W        W63300  35.420  40.255  12.162
92701W        W63301  41.755  41.775  11.302
92702W        W63302  14.497  39.064  14.926
92703W        W63303  41.261  14.055  14.355
92704W        W63304   5.271   5.663  11.246
92705W        W63305  34.651   0.798   1.280
92706W        W63306  28.677  18.620   2.673
92707W        W63307   3.437  36.982   3.408
92708W        W63308  43.747   1.224   0.725
92709W        W63309   7.096   5.403   4.147
92710W        W63310  11.331   1.240  12.154
92711W        W63311  40.418   8.363  14.262
92712W        W63312   3.279  16.553  14.920
92713W        W63313  44.811  17.742   2.795
92714W        W63314   8.291  34.687  14.632
92715W        W63315   4.454  38.830   0.458
92716W        W63316  17.622  12.951  11.681
92717W        W63317  21.606  18.987  12.092
92718W        W63318   0.819  38.629  11.542
92719W        W63319  39.337  36.097   0.693
92720W        W63320  25.743  38.699   4.932
92721W        W63321  35.639  29.013   3.602
92722W        W63322  24.187  23.284   4.518
92723W        W63323   1.849  36.415  13.505
92724W        W63324  19.810  29.387  13.763
92725W        W63325  12.593  44.431   3.777
92726W        W63326  31.480   6.264  14.841
92727W        W63327  32.437  32.342  12.920
92728W        W63328  25.057  41.131   1.580
92729W        W63329  41.386   7.214   9.827
92730W        W63330  29.446  26.036  11.472
92731W        W63331  16.702  25.474  10.720
92732W        W63332  14.101  17.882   3.185
92733W        W63333  24.160   2.609  10.717
92734W        W63334  15.535  44.873   0.265
92735W        W63335   0.423   0.437   4.651
92736W        W63336  28.641   6.286  12.792
92737W        W63337   5.702  31.702   3.696
92738W        W63338   8.610  34.728  11.703
92739W        W63339  29.362  32.923  14.064
92740W        W63340  34.183  23.008  11.897
92741W        W63341  31.415  27.442   2.340
92742W        W63342  35.294  16.159   2.409
92743W        W63343  34.400  33.135  13.172
92744W        W63344  31.781  15.072   3.309
92745W        W63345  40.497   9.765  11.545
92746W        W63346  14.469  12.909  13.459
92747W        W63347   1.218  32.006   1.035
92748W        W63348  38.132   5.649  14.283
92749W        W63349  42.313   2.200   4.227
92750W        W63350   5.228  16.789  12.919
92751W        W63351  44.407  21.840  10.041
92752W        W63352  29.592  40.580   0.843
92753W        W63353  26.158  41.599   2.694
92754W        W63354  13.923  22.506   2.773
92755W        W63355   7.443  17.712  14.128
92756W        W63356   5.254  23.108   3.992
92757W        W63357  30.885  37.891   0.740
92758W        W63358   1.774  22.435  14.210
92759W        W63359   4.758   9.613  12.854
92760W        W63360  28.459  17.643  14.595
92761W        W63361  38.846  34.465  11.585
92762W        W63362  19.117  39.925   2.111
92763W        W63363  31.550  22.184   0.426
92764W        W63364  13.265  21.187   4.965
92765W        W63365  11.004  37.764  14.843
92766W        W63366  43.524  41.411  13.488
92767W        W63367  34.940  11.206  11.355
92768W        W63368  44.582  11.500   4.892
92769W        W63369  29.455  31.031  11.884
92770W        W63370   9.280  44.932  11.773
92771W        W63371  42.506  13.201   4.242
92772W        W63372  16.420  18.036  14.903
92773W        W63373  14.069  32.448   2.745
92774W        W63374   5.340  18.010   2.239
92775W        W63375  22.493  30.904  13.841
92776W        W63376   2.400  37.076  12.016
92777W        W63377  20.122  39.099  13.863
92778W        W63378  20.469  38.514  13.381
92779W        W63379  18.256  13.053   5.084
92780W        W63380  33.532  31.866   4.510
92781W        W63381  38.867  32.818   1.696
92782W        W63382  29.400   1.840   1.437
92783W        W63383  41.527  14.811   1.192
92784W        W63384  42.855  16.878   4.471
92785W        W63385  35.146  25.248  14.432
92786W        W63386  28.576   0.349   4.974
92787W        W63387  13.084   0.282   1.007
92788W        W63388  18.775  35.036   2.713
92789W        W63389  44.492   6.477   0.884
92790W        W63390  23.866  22.046   3.566
92791W        W63391  42.939  10.384   3.222
92792W        W63392  17.794  32.054  12.129
92793W        W63393  12.017  36.478   1.766
92794W        W63394  28.851  43.052  12.125
92795W        W63395  33.951  28.603  11.511
92796W        W63396  34.665  12.773  12.372
92797W        W63397  29.644   3.854   4.642
92798W        W63398  17.579  28.113   0.482
92799W        W63399   9.596  18.790   3.303
92800W        W63400  36.672  17.576  13.919
92801W        W63401  30.161  13.448  11.441
92802W        W63402  24.058  27.324   4.601
92803W        W63403  15.894  18.739   4.609
92804W        W63404   6.835  15.830  13.304
92805W        W63405   8.744  41.656  10.184
92806W        W63406  27.281  41.557   5.117
92807W        W63407  14.262  20.455   0.827
92808W        W63408  13.063   7.483   1.857
92809W        W63409   1.838  19.695  14.773
92810W        W63410  40.470  33.217   0.004
92811W        W63411  31.079  28.703   1.237
92812W        W63412  29.093  35.306  14.864
92813W        W63413  27.087  35.897  14.010
92814W        W63414   4.865  15.679  11.087
92815W        W63415  26.551  33.367  12.985
92816W        W63416  20.534  11.177  14.934
92817W        W63417  20.099  39.764  14.467
92818W        W63418   0.418  29.631   2.234
92819W        W63419  21.997   9.344   0.298
92820W        W63420  21.548   2.336   2.848
92821W        W63421  18.565  38.902   3.572
92822W        W63422  28.555  22.785  13.867
92823W        W63423  32.063  21.201   0.736
92824W        W63424  43.816   4.506   1.474
92825W        W63425  28.658  30.681  12.542
92826W        W63426   2.058  20.785   3.854
92827W        W63427  14.548  44.318   2.695
92828W        W63428  23.815  28.166   3.004
92829W        W63429   0.731  25.455   0.822
92830W        W63430   9.760   4.842   3.170
92831W        W63431  30.623  24.205   2.700
92832W        W63432  26.000   8.140   2.266
92833W        W63433   1.876  39.487   4.772
92834W        W63434  12.645   8.183   4.605
92835W        W63435  44.078  28.043  13.500
92836W        W63436   4.030  23.757   4.105
92837W        W63437  10.841   6.436   4.709
92838W        W63438  29.666  42.236   1.858
92839W        W63439  43.000  36.166  12.975
92840W        W63440  34.150  10.176   4.207
92841W        W63441  44.107  10.920  12.112
92842W        W63442  19.782  14.615  14.370
92843W        W63443  26.991  34.914   2.111
92844W        W63444  29.423  34.282   2.691
92845W        W63445  28.663  37.940  11.060
92846W        W63446  18.993   7.350   0.190
92847W        W63447  29.917  16.672  11.889
92848W        W63448  36.353  34.782   2.438
92849W        W63449   4.039  31.752   2.295
92850W        W63450  13.582   5.681   0.182
92851W        W63451  36.308  28.621  11.612
92852W        W63452  20.760  13.611  11.268
92853W        W63453   5.333  18.092  10.545
92854W        W63454  22.255  22.396  14.217
92855W        W63455  42.536  13.850  14.842
92856W        W63456  20.982  42.267  14.051
92857W        W63457   0.722   5.355  11.750
92858W        W63458   2.831  38.408   2.487
92859W        W63459  13.373  33.169  14.827
92860W        W63460   1.957   6.777  13.763
92861W        W63461  26.106  16.878   1.427
92862W        W63462   0.911  38.484   1.410
92863W        W63463  23.615  39.758   1.094
92864W        W63464   7.221  22.041   2.673
92865W        W63465  38.813  41.556   4.162
92866W        W63466  15.338  16.660   2.080
92867W        W63467  39.390  34.655  11.593
92868W        W63468  26.594   7.255  10.989
92869W        W63469  22.625  14.420   2.160
92870W        W63470  25.988   2.728   4.639
92871W        W63471  12.719   9.306   1.498
92872W        W63472  10.202  25.514   2.278
92873W        W63473  37.043  27.653   1.682
92874W        W63474  44.531  34.212   2.668
92875W        W63475  27.135  15.130  13.321
92876W        W63476  20.063  32.717   3.264
92877W        W63477  41.276  20.533  13.118
92878W        W63478  27.649   6.189   0.113
92879W        W63479  29.577  29.472   5.012
92880W        W63480  36.586   9.942   0.225
92881W        W63481  13.806  42.462  11.776
92882W        W63482  40.831  21.596  14.906
92883W        W63483   1.471  36.464   1.424
92884W        W63484  10.323  14.677  13.938
92885W        W63485   3.788  31.569  11.235
92886W        W63486  23.197  23.199   3.103
92887W        W63487  30.019   1.950   1.243
92888W        W63488  27.116  38.508  13.516
92889W        W63489  42.112   0.341  12.663
92890W        W63490  43.305  41.933   0.813
92891W        W63491   5.691  22.930  14.734
92892W        W63492  23.851  28.603   3.706
92893W        W63493  35.285  25.546   2.085
92894W        W63494  42.398   8.497  13.817
92895W        W63495   4.776  26.997   0.361
92896W        W63496  38.702   8.379  11.891
92897W        W63497  31.574  43.523   3.622
92898W        W63498  25.518   2.439  11.984
92899W        W63499  10.619   8.758  13.282
92900W        W63500  23.275  43.307   0.940
92901W        W63501   5.943  25.943   2.231
92902W        W63502   2.789  32.202   5.510
92903W        W63503   4.306   0.864  12.880
92904W        W63504  27.522  44.322  11.640
92905W        W63505   9.489  25.908  11.854
92906W        W63506  16.121  32.473  14.330
92907W        W63507   2.226  28.918  11.118
92908W        W63508   9.331  29.639   4.424
92909W        W63509  36.417   1.490  13.280
92910W        W63510  36.170  27.088   2.432
92911W        W63511  17.338  24.623  11.927
92912W        W63512  19.808  40.918   2.184
92913W        W63513  33.878  11.672  13.051
92914W        W63514  10.207  34.098  11.308
92915W        W63515  10.819   1.299   2.555
92916W        W63516  42.503  29.004  12.190
92917W        W63517   2.800   1.471  13.863
92918W        W63518   2.233  35.873   2.773
92919W        W63519  33.978   7.252  14.842
92920W        W63520  14.112  13.715  13.015
92921W        W63521  36.899  24.153   4.583
92922W        W63522   7.654  15.555   3.153
92923W        W63523   7.703  29.511   1.997
92924W        W63524  29.427   8.641  12.453
92925W        W63525  41.814  11.249  10.694
92926W        W63526  38.484   6.821  11.587
92927W        W63527  33.543  27.972   0.446
92928W        W63528  23.245  36.592   0.829
92929W        W63529  10.231   1.750   1.994
92930W        W63530   0.319  10.301   3.221
92931W        W63531  29.838   0.710  14.734
92932W        W63532  28.556   3.030   1.276
92933W        W63533  22.971   9.354  13.474
92934W        W63534  43.100  35.797  11.998
92935W        W63535  31.415  16.385  14.914
92936W        W63536  17.241  27.527  13.304
92937W        W63537  22.001  29.687  14.305
92938W        W63538   2.808  17.765   3.417
92939W        W63539   7.031  39.479  12.866
92940W        W63540  30.522  40.465  11.738
92941W        W63541  16.377   6.064  14.255
92942W        W63542  26.044  15.753  11.418
92943W        W63543  42.471  36.392  13.566
92944W        W63544  18.525  10.362  14.776
92945W        W63545  28.699   3.098   4.765
92946W        W63546   9.375  44.780   3.528
92947W        W63547  21.577   4.755   3.601
92948W        W63548  22.371  38.985   4.568
92949W        W63549   3.860  16.696  11.642
92950W        W63550  10.357  31.946  12.123
92951W        W63551  42.521  25.294  12.539
92952W        W63552  14.241  18.321  14.797
92953W        W63553  13.062  15.814   0.512
92954W        W63554   5.886  15.457   3.087
92955W        W63555  15.839   1.818  14.214
92956W        W63556  14.618   2.349  13.485
92957W        W63557  18.759  40.386  13.060
92958W        W63558  20.981  29.219  14.791
92959W        W63559  14.735  43.280   0.761
92960W        W63560  34.582   6.766  12.342
92961W        W63561  27.503  39.031  13.432
92962W        W63562  42.356  32.411   1.949
92963W        W63563  44.638  27.027   4.735
92964W        W63564  31.460  30.211  10.794
92965W        W63565  38.555   7.928  14.159
92966W        W63566  24.609   5.317   1.340
92967W        W63567  33.427  39.573  13.008
92968W        W63568  30.598  34.983  14.691
92969W        W63569   0.870   9.806  10.659
92970W        W63570  28.069   1.588  13.340
92971W        W63571  14.180   8.423   3.805
92972W        W63572  30.929  39.288   0.928
92973W        W63573  18.343  15.860   0.054
92974W        W63574   7.402   9.909   1.256
92975W        W63575  33.813  30.856  10.500
92976W        W63576  33.679  24.694   3.713
92977W        W63577  26.200  10.303  12.109
92978W        W63578  43.564  41.111   4.663
92979W        W63579  43.027  37.924   2.305
92980W        W63580  42.414  12.959   0.328
92981W        W63581  10.657  24.755  11.035
92982W        W63582  12.181  30.161  11.674
92983W        W63583  16.309   0.897  11.991
92984W        W63584   6.519  26.611   0.385
92985W        W63585  36.573  18.660   1.900
92986W        W63586  18.848  38.880  14.137
92987W        W63587  41.218  28.685   3.022
92988W        W63588  27.663   2.868  14.448
92989W        W63589   2.801  40.484   3.055
92990W        W63590  15.840  30.441  13.329
92991W        W63591  26.596  22.156  13.073
92992W        W63592   9.951  18.106  12.445
92993W        W63593  22.589  23.743  12.033
92994W        W63594   0.961  40.809   2.700
92995W        W63595  44.089  14.374   4.996
92996W        W63596  30.618  18.821   1.662
92997W        W63597  22.578   1.044   2.021
92998W        W63598  35.183  33.938  14.696
92999W        W63599  42.285  25.165   0.311
93000W        W63600   3.245  32.445   4.634
93001W        W63601  35.582  38.831  11.096
93002W        W63602  13.538   4.847  14.867
93003W        W63603  28.341  37.638   5.060
93004W        W63604  22.667   5.271   0.171
93005W        W63605  12.523  23.553   4.601
93006W        W63606   5.038   3.960   0.430
93007W        W63607   4.914   0.010   2.231
93008W        W63608  13.276   0.483   4.013
93009W        W63609  40.048  28.574   2.098
93010W        W63610  18.212  28.970   2.706
93011W        W63611  36.532  15.051  12.627
93012W        W63612  44.194   9.536  14.313
93013W        W63613  23.481   7.127  10.627
93014W        W63614  27.608  34.122  11.125
93015W        W63615  26.952  28.669   0.945
93016W        W63616  33.230  27.120  11.600
93017W        W63617   9.867   0.627  14.905
93018W        W63618  44.966  27.154  13.564
93019W        W63619  12.509  37.882   4.274
93020W        W63620   8.288  29.901  10.607
93021W        W63621  43.720  25.601   3.442
93022W        W63622  32.826  31.489   2.692
93023W        W63623  38.185  38.233  13.895
93024W        W63624  43.337  35.441   4.346
93025W        W63625  42.858  32.090   1.241
93026W        W63626  40.560  21.340   0.944
93027W        W63627  39.639  30.503   2.222
93028W        W63628  26.083   3.922   0.314
93029W        W63629  13.059  17.620  11.955
93030W        W63630  27.729   0.957  12.218
93031W        W63631  27.119  32.406   2.147
93032W        W63632  24.220   8.440   1.838
93033W        W63633  12.801   4.493   3.311
93034W        W63634  32.991  12.708  14.827
93035W        W63635   5.346  11.576   1.299
93036W        W63636  10.049  32.679   3.321
93037W        W63637  23.300  35.064  14.911
93038W        W63638  33.789  41.435  12.881
93039W        W63639  22.269  29.124   0.952
93040W        W63640   8.364  14.146   0.048
93041W        W63641  11.706   7.408  13.901
93042W        W63642   9.171  18.389   5.202
93043W        W63643  37.979  25.108   4.992
93044W        W63644  23.672  32.591   4.697
93045W        W63645   6.680  28.935  11.418
93046W        W63646  29.402   2.105  12.633
93047W        W63647  27.596   6.396   3.659
93048W        W63648  29.436  43.470  12.640
93049W        W63649   1.406  17.088   0.836
93050W        W63650  42.904  22.471  14.435
93051W        W63651  15.225  25.898   4.595
93052W        W63652  22.257  35.072  14.955
93053W        W63653  25.577  28.110  14.696
93054W        W63654   9.260  42.425   1.992
93055W        W63655  33.405  31.563  14.559
93056W        W63656  12.721  43.987  13.398
93057W        W63657  44.375   9.920  14.601
93058W        W63658  26.272  27.448  11.078
93059W        W63659  37.402  39.447  11.366
93060W        W63660   3.169  33.847  12.194
93061W        W63661  43.241  27.392  14.443
93062W        W63662  41.487  41.280   3.044
93063W        W63663  17.595  28.626   0.690
93064W        W63664  25.387  19.257   0.055
93065W        W63665  27.541  33.797  12.465
93066W        W63666  27.058  22.421   4.585
93067W        W63667  29.765  27.720   1.374
93068W        W63668  23.025  36.009  13.026
93069W        W63669  16.532  21.116   0.733
93070W        W63670  38.522  22.070   3.968
93071W        W63671  34.047  41.346   1.194
93072W        W63672   8.473  30.074   0.377
93073W        W63673  34.792   5.433  14.836
93074W        W63674  31.676  44.288   1.908
93075W        W63675  19.619   8.905  14.296
93076W        W63676  27.748   6.674  10.362
93077W        W63677  17.147  36.071   1.366
93078W        W63678  36.599  30.694  13.017
93079W        W63679  43.612  25.176   0.075
93080W        W63680   3.620  11.113  10.971
93081W        W63681   8.740  35.583   0.667
93082W        W63682  23.211  27.701  12.438
93083W        W63683  25.713  40.931   2.225
93084W        W63684  28.200  16.041  14.278
93085W        W63685   3.815   3.834  14.923
93086W        W63686  28.239   4.815   3.227
93087W        W63687  24.071   2.563   2.250
93088W        W63688  37.872  42.004   0.341
93089W        W63689  37.007  28.956   3.410
93090W        W63690  44.213   5.154  10.747
93091W        W63691  11.670   8.890   1.202
93092W        W63692  43.568  12.643  11.108
93093W        W63693  13.914  20.257   1.178
93094W        W63694   9.045  16.653  13.809
93095W        W63695   7.665  22.658  13.169
93096W        W63696  28.934  34.085   3.820
93097W        W63697  17.239  37.692   3.173
93098W        W63698   3.144  12.267  11.486
93099W        W63699  23.987   7.773  12.983
93100W        W63700  13.125  13.371   1.907
93101W        W63701  33.620  31.997  12.381
93102W        W63702  42.287   5.967   1.048
93103W        W63703   4.612   6.230  12.883
93104W        W63704  15.085   2.354   2.430
93105W        W63705   6.899  10.580   3.502
93106W        W63706   2.806  27.007   4.378
93107W        W63707  13.638  22.997  13.724
93108W        W63708  10.419  33.207  11.057
93109W        W63709  25.438   6.207   2.483
93110W        W63710  30.838  24.008   3.219
93111W        W63711  11.246  23.198  12.830
93112W        W63712  44.929  19.093  14.975
93113W        W63713  33.345  39.885  10.576
93114W        W63714  24.206  40.286  13.609
93115W        W63715  29.028  40.534   1.389
93116W        W63716  38.683   0.364   3.277
93117W        W63717   9.333  15.323   3.312
93118W        W63718  24.067  34.408  13.456
93119W        W63719  44.002  34.822  11.150
93120W        W63720  29.591  22.391   1.859
93121W        W63721  16.136  25.151   3.548
93122W        W63722  28.168   1.210  12.418
93123W        W63723  36.531  30.988   1.995
93124W        W63724  26.669  35.363  13.433
93125W        W63725   7.929  36.236   4.954
93126W        W63726  13.568  42.143  13.334
93127W        W63727  18.234  42.562  14.015
93128W        W63728  43.499  34.065  14.781
93129W        W63729  29.836  10.977   0.426
93130W        W63730   7.335  25.534  10.713
93131W        W63731   7.511  29.978  12.062
93132W        W63732  41.866  15.137   0.334
93133W        W63733  26.949  41.317  14.805
93134W        W63734  14.086  37.834   3.137
93135W        W63735  13.744  10.739   4.112
93136W        W63736   7.360   5.696  10.655
93137W        W63737  38.683  17.678   4.115
93138W        W63738  31.586  40.833   2.210
93139W        W63739  40.435  41.479   1.520
93140W        W63740  36.592  10.678   3.226
93141W        W63741  27.871  16.852   1.622
93142W        W63742  19.734   9.261   3.300
93143W        W63743   7.593  20.250  14.249
93144W        W63744  13.771   2.899   0.315
93145W        W63745  38.029  15.636  12.156
93146W        W63746  35.676   5.069   3.951
93147W        W63747  18.334  29.406  12.161
93148W        W63748  27.067  38.547   0.451
93149W        W63749   1.093  23.660  12.253
93150W        W63750  33.641  23.777   3.415
93151W        W63751  36.827  12.442   4.112
93152W        W63752  41.372   8.247   2.776
93153W        W63753  43.760  15.589   4.559
93154W        W63754   4.337  23.592  11.902
93155W        W63755  17.195  40.331   1.962
93156W        W63756  25.181  31.899  13.839
93157W        W63757  43.405  38.297   3.168
93158W        W63758   5.638  24.405   3.829
93159W        W63759  40.870   9.838   4.735
93160W        W63760  10.270  37.441  12.344
93161W        W63761  22.017  25.094   5.005
93162W        W63762  39.254  29.718  12.556
93163W        W63763  22.608  35.449   3.690
93164W        W63764  40.345  34.397   4.694
93165W        W63765  17.722  23.925   3.702
93166W        W63766   3.954  13.517   3.200
93167W        W63767  16.851  25.808  12.075
93168W        W63768  11.350  25.258   4.432
93169W        W63769  40.374  31.350  13.979
93170W        W63770  36.912  25.721  13.300
93171W        W63771   7.324  31.653  10.870
93172W        W63772  12.173  26.653   4.615
93173W        W63773  12.645  11.874  14.242
93174W        W63774  17.497  18.612  10.428
93175W        W63775  43.341   3.149  12.802
93176W        W63776  20.574   1.449   0.418
93177W        W63777  35.028  24.611   4.492
93178W        W63778  18.269  30.412   4.263
93179W        W63779  43.724  42.997  10.674
93180W        W63780  43.719  43.824   0.966
93181W        W63781  34.058   5.871   3.862
93182W        W63782  26.155  31.108  12.444
93183W        W63783  38.332  27.576  12.635
93184W        W63784  19.711  34.370   4.642
93185W        W63785  31.441  16.673  13.045
93186W        W63786  17.122   6.561   1.617
93187W        W63787  28.993  11.265   0.211
93188W        W63788  34.788  43.923   1.892
93189W        W63789  23.064   9.867   2.778
93190W        W63790  18.317  13.279   2.104
93191W        W63791  21.500  41.254   1.863
93192W        W63792   0.245  32.259  13.961
93193W        W63793  39.943  17.150   0.741
93194W        W63794  26.543  42.991   4.196
93195W        W63795  11.583  12.770   3.213
93196W        W63796  38.760  43.798  14.273
93197W        W63797   2.190  12.889   3.320
93198W        W63798  11.712  40.764  11.231
93199W        W63799  43.586   6.022  11.540
93200W        W63800  22.736  27.867   3.213
93201W        W63801  43.673  43.444   2.669
93202W        W63802  17.360  18.970   3.229
93203W        W63803  15.374  27.637   0.499
93204W        W63804  26.361  37.559  13.986
93205W        W63805  33.984  36.226   1.331
93206W        W63806   6.693  27.503   2.681
93207W        W63807  11.089   9.165  13.849
93208W        W63808  26.993  31.470   2.308
93209W        W63809   8.638   6.540  12.468
93210W        W63810  16.086  30.815  13.653
93211W        W63811  20.086  15.837  10.646
93212W        W63812   7.910  18.157  13.511
93213W        W63813  38.522  37.881   3.232
93214W        W63814  36.702  24.477  11.402
93215W        W63815  13.764  17.935   4.132
93216W        W63816  40.036  15.114   3.300
93217W        W63817  16.336  34.963  12.652
93218W        W63818  16.061  14.779  11.270
93219W        W63819  17.763   2.138  13.848
93220W        W63820  32.560  19.504   0.789
93221W        W63821  29.594  25.716  13.521
93222W        W63822  42.426  30.883  10.383
93223W        W63823  22.125  18.850  13.172
93224W        W63824  19.569  37.422   2.813
93225W        W63825  39.150  23.100   1.150
93226W        W63826  43.752  29.681   0.463
93227W        W63827  38.805  35.296   4.527
93228W        W63828   2.370  33.423   1.568
93229W        W63829   6.402   5.686   2.238
93230W        W63830  20.138  43.941  14.055
93231W        W63831  30.725  10.625  11.848
93232W        W63832  42.884  21.516  10.880
93233W        W63833   5.473  11.324  11.147
93234W        W63834   3.340  12.903   4.614
93235W        W63835  35.043  41.517   1.244
93236W        W63836  28.958  30.095  13.791
93237W        W63837  39.835   9.398   4.064
93238W        W63838   3.683  32.956   0.150
93239W        W63839  19.993   1.836   3.665
93240W        W63840  16.604   9.706  11.268
93241W        W63841  34.270  17.973   3.423
93242W        W63842  10.944  14.224   0.430
93243W        W63843  31.240  40.077   4.022
93244W        W63844  40.890  34.155   2.108
93245W        W63845  24.949  23.898  12.854
93246W        W63846   9.940  20.499  11.447
93247W        W63847  34.342  24.981  10.740
93248W        W63848  22.265  36.104  11.570
93249W        W63849  24.756  25.137   4.681
93250W        W63850   5.786  22.618   0.585
93251W        W63851  12.823  40.058   4.121
93252W        W63852  20.750  32.533   2.684
93253W        W63853  28.507  33.388   0.712
93254W        W63854  38.274   8.617  14.962
93255W        W63855  20.055  19.785  11.648
93256W        W63856  38.510  11.893  13.313
93257W        W63857  37.812  32.995  14.339
93258W        W63858  24.946  15.404   2.307
93259W        W63859   4.819  21.787   0.830
93260W        W63860   1.873   2.349   2.078
93261W        W63861  24.228  20.824   1.442
93262W        W63862  41.947  12.104  14.100
93263W        W63863   3.317  20.996   3.774
93264W        W63864  30.689  33.119   3.316
93265W        W63865  11.941  38.988   0.334
93266W        W63866  16.300  28.480   2.118
93267W        W63867   2.670  24.102  10.805
93268W        W63868  20.128  10.373   0.781
93269W        W63869  39.094  32.592   2.615
93270W        W63870  33.422  21.973  14.199
93271W        W63871  15.100  21.294   1.416
93272W        W63872  34.164   6.675  13.812
93273W        W63873  44.373  28.698   3.246
93274W        W63874  23.089   2.673   3.733
93275W        W63875  22.633  21.045   2.141
93276W        W63876  37.131  28.121   4.871
93277W        W63877   4.262  26.419  12.428
93278W        W63878  32.321   7.386   0.759
93279W        W63879  28.513  23.263  14.002
93280W        W63880   3.732  17.659   2.915
93281W        W63881  29.847  44.360  14.458
93282W        W63882  29.140  21.529  12.090
93283W        W63883  31.023  39.217   3.573
93284W        W63884   7.637  20.128   1.304
93285W        W63885  17.261  42.323  10.103
93286W        W63886  35.641  31.510   4.538
93287W        W63887  14.142   9.432  11.657
93288W        W63888  25.988  24.180  12.658
93289W        W63889  44.763  26.044   4.015
93290W        W63890  39.134  23.633  14.273
93291W        W63891  17.186  18.538   2.318
93292W        W63892   8.839   4.893  11.897
93293W        W63893  11.393  26.499  12.456
93294W        W63894   5.836  32.540   1.306
93295W        W63895  26.557  33.852  13.146
93296W        W63896  16.949   9.848   4.137
93297W        W63897  22.584  36.987   2.353
93298W        W63898  17.868  15.356   4.652
93299W        W63899  39.924  16.843  11.137
93300W        W63900  27.036  18.728  12.661
93301W        W63901  32.138   2.444   2.913
93302W        W63902  19.932  11.753  11.226
93303W        W63903  14.799  44.276   0.820
93304W        W63904  38.135  13.263  11.065
93305W        W63905  18.978  39.801  11.918
93306W        W63906  35.597  19.476  10.582
93307W        W63907  15.635  21.629   2.810
93308W        W63908  21.366  36.030  14.324
93309W        W63909  15.061  11.088   3.725
93310W        W63910   5.916  18.272   2.830
93311W        W63911   3.802   6.607  10.625
93312W        W63912   1.268   2.501   0.387
93313W        W63913  36.864  12.881  13.830
93314W        W63914   1.184  36.926   3.899
93315W        W63915  39.958  16.507   1.848
93316W        W63916  42.429  18.030   2.474
93317W        W63917   3.427  13.058  12.058
93318W        W63918  20.198  21.795   1.419
93319W        W63919   0.846  28.814   2.386
93320W        W63920   7.180  20.325   3.714
93321W        W63921   6.670  43.921  12.419
93322W        W63922   6.502  26.849   3.673
93323W        W63923   3.922   3.227  13.074
93324W        W63924  44.692  16.269   1.377
93325W        W63925  10.506  34.834   0.458
93326W        W63926  38.988  41.942   1.297
93327W        W63927   3.224  27.477   4.707
93328W        W63928   8.664  13.659  10.684
93329W        W63929  44.304  42.128  10.112
93330W        W63930  13.822  43.646   2.217
93331W        W63931  28.423  39.401   0.190
93332W        W63932  16.714  31.892   3.681
93333W        W63933  23.749  26.066  10.642
93334W        W63934  23.758  10.254  12.867
93335W        W63935  20.613  21.034  14.470
93336W        W63936   0.399  20.817   4.059
93337W        W63937  26.055  29.182   0.901
93338W        W63938  10.559  33.849  10.423
93339W        W63939   0.339  17.801  10.691
93340W        W63940  15.197  44.588   0.981
93341W        W63941  38.157   1.901  11.497
93342W        W63942   6.263  19.040  12.103
93343W        W63943  44.860   9.762   0.527
93344W        W63944   4.824  40.979   0.086
93345W        W63945  12.851  20.693  13.315
93346W        W63946   6.238  28.128   3.620
93347W        W63947  29.625  13.888   2.452
93348W        W63948  24.021  29.257  12.430
93349W        W63949  41.982  27.058   1.153
93350W        W63950  18.372  14.006   4.626
93351W        W63951   7.816  22.939  14.403
93352W        W63952   1.838   9.458   3.775
93353W        W63953  26.601  35.103   0.238
93354W        W63954  34.570  21.003   1.064
93355W        W63955   3.148   4.216   0.260
93356W        W63956  26.867  44.773   1.864
93357W        W63957  33.220  15.470   2.921
93358W        W63958  14.153   9.577  13.896
93359W        W63959   2.671  31.419  12.088
93360W        W63960   5.646  32.053   0.469
93361W        W63961   6.220   0.321  10.535
93362W        W63962  30.199   8.711   2.469
93363W        W63963  38.884  18.339   1.460
93364W        W63964   7.130  30.213   3.682
93365W        W63965  19.303  35.618  12.632
93366W        W63966  16.334  43.290   0.277
93367W        W63967  28.592  13.941  13.818
93368W        W63968  21.054  22.751   4.235
93369W        W63969  38.377  21.606   4.133
93370W        W63970  11.240  30.193   0.312
93371W        W63971  40.460   4.047  12.182
93372W        W63972  34.114  17.319   1.714
93373W        W63973  15.758  36.121   0.569
93374W        W63974  32.325  37.405  10.699
93375W        W63975  34.393  32.570   2.774
93376W        W63976   8.303   8.137  14.834
93377W        W63977  41.371  16.686   0.866
93378W        W63978  39.118  22.102  11.232
93379W        W63979  43.514   9.729   3.193
93380W        W63980   3.709  12.186   3.448
93381W        W63981  33.960  33.172   1.694
93382W        W63982   8.045  27.285  11.559
93383W        W63983  14.499  14.635  14.301
93384W        W63984  26.096  41.996  13.531
93385W        W63985  19.069  34.396  11.206
93386W        W63986   0.360  20.675   1.260
93387W        W63987  38.053  10.343  12.065
93388W        W63988  33.595  42.010   0.308
93389W        W63989  32.469   7.801   0.364
93390W        W63990  26.967   9.234  13.527
93391W        W63991  20.933  33.616   3.670
93392W        W63992   4.328  17.035  14.422
93393W        W63993  11.099  17.318   4.908
93394W        W63994  16.267   1.928  13.878
93395W        W63995  37.376  39.359   1.218
93396W        W63996  25.306   2.466  13.843
93397W        W63997  29.148  32.947  13.121
93398W        W63998  23.947  40.233  10.556
93399W        W63999   2.444  30.629   3.195
93400W        W64000  21.551  26.183  13.749
93401W        W64001  39.839  10.209   1.395
93402W        W64002  42.319   4.631   0.475
93403W        W64003  33.488  29.147  10.803
93404W        W64004  29.163  44.299   4.189
93405W        W64005  18.312  24.003   4.313
93406W        W64006  17.169  26.717   3.587
93407W        W64007  15.940  37.998   3.138
93408W        W64008   2.961   6.086   1.818
93409W        W64009  27.522  12.132  12.502
93410W        W64010  27.638  43.905  12.559
93411W        W64011  22.361  28.280  10.380
93412W        W64012   9.602  13.729   3.351
93413W        W64013   2.722  24.139  12.050
93414W        W64014   2.984   6.424   1.364
93415W        W64015  29.025  42.054   1.017
93416W        W64016   5.892  37.840  13.025
93417W        W64017   8.900  14.888   0.398
93418W        W64018  41.437  41.031  14.524
93419W        W64019  14.218  19.107   0.376
93420W        W64020  35.152  13.306  10.863
93421W        W64021  19.275  16.498  13.180
93422W        W64022  41.367   1.907   2.401
93423W        W64023  20.671  15.429   2.217
93424W        W64024  32.131  32.857  11.125
93425W        W64025  42.899  11.241  14.430
93426W        W64026   5.120  34.362  12.999
93427W        W64027  20.670  32.425   4.897
93428W        W64028   2.276  19.512  14.551
93429W        W64029   6.475  10.961  13.215
93430W        W64030   4.409   9.731   2.674
93431W        W64031  16.089   0.233   3.361
93432W        W64032  17.180  11.862  12.181
93433W        W64033  35.871  44.691   4.182
93434W        W64034  25.725  42.433   4.708
93435W        W64035  25.448  23.083   3.851
93436W        W64036  14.348  38.965  14.087
93437W        W64037  32.387   5.892   4.661
93438W        W64038   4.328   3.446  11.576
93439W        W64039  28.651  19.767   4.502
93440W        W64040   6.982   6.356   2.305
93441W        W64041  38.445  24.331   1.860
93442W        W64042  17.189   8.680  11.218
93443W        W64043   8.731  14.487  11.778
93444W        W64044  28.954  11.736  11.582
93445W        W64045   2.661  18.393   0.839
93446W        W64046  28.532  14.718  10.675
93447W        W64047  31.015  37.973   1.306
93448W        W64048   7.917  27.019   0.480
93449W        W64049   9.802  22.256  12.045
93450W        W64050   0.908   0.823   5.333
93451W        W64051  24.458   0.022  11.972
93452W        W64052  29.197  23.777   0.069
93453W        W64053  41.372  17.379  13.918
93454W        W64054   1.310  16.947   2.320
93455W        W64055  15.294  41.231   4.155
93456W        W64056   5.973   5.608  13.917
93457W        W64057  22.644  42.528  11.565
93458W        W64058  11.634  28.722  12.881
93459W        W64059  16.845  41.896  12.968
93460W        W64060  13.062   3.235  13.449
93461W        W64061  15.233  17.638   1.879
93462W        W64062  39.887  17.830   4.714
93463W        W64063  21.266  40.942  11.933
93464W        W64064  39.550  41.278  11.223
93465W        W64065  25.987  32.552  12.527
93466W        W64066  16.591  35.833  12.859
93467W        W64067  20.847   7.087   2.261
93468W        W64068  25.157  27.654   2.137
93469W        W64069  27.494  13.554   1.975
93470W        W64070   0.184  16.724  11.629
93471W        W64071  16.011  26.211  12.082
93472W        W64072   2.014  35.440  13.861
93473W        W64073   0.926   7.713  14.329
93474W        W64074  13.231  25.919  12.680
93475W        W64075  15.837  19.187   4.134
93476W        W64076   5.534  26.479  14.303
93477W        W64077  15.775  41.835  10.703
93478W        W64078  34.737   4.925   1.407
93479W        W64079  20.247   5.397   3.378
93480W        W64080  27.241  27.399   1.789
93481W        W64081  16.758  31.199  14.322
93482W        W64082  34.544  44.270   2.775
93483W        W64083  29.118  32.472  11.293
93484W        W64084  23.230   7.272  12.925
93485W        W64085   0.321  14.398  12.932
93486W        W64086   3.279   8.917   0.860
93487W        W64087  33.541  17.054  11.047
93488W        W64088  16.974  25.213  13.504
93489W        W64089  28.212  40.423  10.678
93490W        W64090  15.990   6.365   4.896
93491W        W64091  31.457  10.727   4.538
93492W        W64092   7.276   0.459  14.412
93493W        W64093  31.310  42.498   2.187
93494W        W64094  41.963  12.730   1.755
93495W        W64095  31.609  15.043   0.275
93496W        W64096  29.418  37.926   1.302
93497W        W64097   6.615  27.942  13.134
93498W        W64098   0.602   3.490  14.180
93499W        W64099  24.087  23.267  10.575
93500W        W64100  44.269  11.752   3.904
93501W        W64101   4.208  28.064   1.916
93502W        W64102  43.663  24.430   2.248
93503W        W64103   9.801  42.238   2.747
93504W        W64104   7.745  43.636  14.796
93505W        W64105  29.101  36.328  14.814
93506W        W64106   7.186  30.129  12.933
93507W        W64107  14.591  29.231   3.143
93508W        W64108  42.790  19.552  14.786
93509W        W64109   2.454  10.077  11.929
93510W        W64110   7.419  25.167   1.413
93511W        W64111  13.916  22.768   3.728
93512W        W64112  31.595  30.418   2.405
93513W        W64113  23.264  38.012  10.403
93514W        W64114  22.978  16.786   2.235
93515W        W64115   8.085  40.555   3.390
93516W        W64116   1.414   4.188   0.900
93517W        W64117  28.982  12.305  11.092
93518W        W64118  30.418  37.439  10.089
93519W        W64119   8.846  19.327   3.248
93520W        W64120  42.402  25.579   4.452
93521W        W64121  23.001  37.635  11.935
93522W        W64122   8.159  39.564   1.084
93523W        W64123   1.957  19.552  12.395
93524W        W64124   9.760  35.015   1.418
93525W        W64125  35.353  42.201  11.289
93526W        W64126  42.942   6.868   3.101
93527W        W64127  23.402  30.741  12.136
93528W        W64128   0.170  33.636   1.519
93529W        W64129  16.567   6.962  13.968
93530W        W64130  16.297   5.895   3.160
93531W        W64131  36.101  33.056  10.774
93532W        W64132   2.905  34.351  12.065
93533W        W64133  43.879  29.157  12.512
93534W        W64134   1.017   2.853  10.544
93535W        W64135   2.430  43.792  12.969
93536W        W64136  35.569  16.010  14.923
93537W        W64137  23.665  11.465  14.874
93538W        W64138  38.809   6.664   3.142
93539W        W64139  40.419  41.790   2.265
93540W        W64140  35.985  33.233   3.705
93541W        W64141  36.067  38.072   0.877
93542W        W64142   7.479  22.497  11.095
93543W        W64143  40.370  29.196  10.656
93544W        W64144  32.560   2.715   3.392
93545W        W64145  33.427  34.117   1.378
93546W        W64146  43.040  31.640   4.150
93547W        W64147  25.535  36.269   1.356
93548W        W64148  23.199   0.906  13.405
93549W        W64149   4.819   6.529   0.515
93550W        W64150  19.747   1.106   0.406
93551W        W64151  14.086  35.637   4.973
93552W        W64152  25.734  14.030   0.224
93553W        W64153  34.083  24.272   4.608
93554W        W64154  37.106  23.743  11.576
93555W        W64155  14.415  12.872   3.252
93556W        W64156  23.731  35.912   1.057
93557W        W64157   2.821  12.898   1.773
93558W        W64158  28.719  16.885  12.843
93559W        W64159  12.364   3.194  12.940
93560W        W64160  32.717  37.498  13.487
93561W        W64161  14.606   3.203  12.955
93562W        W64162   1.645  24.531   1.360
93563W        W64163  14.388  24.126  10.461
93564W        W64164  42.272  28.518  12.440
93565W        W64165  17.093   2.804   2.613
93566W        W64166  14.711   5.386   4.274
93567W        W64167  34.123  13.531   1.800
93568W        W64168   5.436  29.481   3.836
93569W        W64169  32.085  11.692   1.927
93570W        W64170  42.059   3.240  10.721
93571W        W64171  18.760   2.473   0.824
93572W        W64172  40.780  34.895   4.906
93573W        W64173  26.424  35.185  11.140
93574W        W64174  43.298  38.468   0.295
93575W        W64175  27.391  31.415  13.475
93576W        W64176  18.686  44.493   3.215
93577W        W64177   3.216   5.852   3.407
93578W        W64178  16.331   3.941   0.316
93579W        W64179  18.076   5.765   2.215
93580W        W64180  22.109   4.010  14.035
93581W        W64181   9.634   4.516  14.895
93582W        W64182  27.716  13.378   3.378
93583W        W64183   9.624   2.420  13.469
93584W        W64184  18.736   0.884  11.110
93585W        W64185   5.326  43.752   3.186
93586W        W64186   5.842  38.792   4.850
93587W        W64187  30.091   1.591   2.383
93588W        W64188  42.608  11.719   1.194
93589W        W64189   9.612  28.594  13.076
93590W        W64190   4.668  27.797  10.771
93591W        W64191  32.758   2.745  11.114
93592W        W64192   1.545   3.410   2.304
93593W        W64193   4.394  26.233   3.150
93594W        W64194  43.839  37.051  11.122
93595W        W64195  41.521  32.113   2.252
93596W        W64196  24.499  39.661   0.241
93597W        W64197  26.600  20.777   4.393
93598W        W64198  12.632  16.223   2.639
93599W        W64199  20.126  30.608  13.357
93600W        W64200  14.091  12.062   1.640
93601W        W64201  15.398  11.125   3.333
93602W        W64202  12.275  38.115   4.678
93603W        W64203  11.098  28.666  12.922
93604W        W64204   6.692  18.335   4.522
93605W        W64205  26.373  39.563   2.023
93606W        W64206  33.637  27.252   2.374
93607W        W64207  20.711  22.094  13.143
93608W        W64208  43.913  30.386   0.849
93609W        W64209   2.996  16.586   3.156
93610W        W64210  26.927  25.969  14.551
93611W        W64211   8.737  15.393  10.315
93612W        W64212   8.695   5.448   2.702
93613W        W64213  24.007  10.279   3.995
93614W        W64214  26.570  39.030  14.558
93615W        W64215  43.325  16.238   2.879
93616W        W64216  13.625  11.796  11.120
93617W        W64217  28.008  23.820   4.844
93618W        W64218  34.544  24.058   4.505
93619W        W64219  10.181  24.976  12.500
93620W        W64220  36.761  18.326   0.365
93621W        W64221  33.025  21.542  11.261
93622W        W64222  25.153  42.125  12.617
93623W        W64223  38.048  39.813   0.089
93624W        W64224   4.537   2.356   0.765
93625W        W64225  37.396   3.010  14.926
93626W        W64226  43.731   1.425  14.325
93627W        W64227   2.288  27.125   4.504
93628W        W64228  37.037  11.149  14.789
93629W        W64229  26.346  44.987  13.619
93630W        W64230  17.455  10.501  13.790
93631W        W64231   1.148  40.013  13.353
93632W        W64232  29.439  24.409   3.757
93633W        W64233  39.360   8.135   3.301
93634W        W64234   7.863  41.394  14.297
93635W        W64235  19.111  37.445   0.455
93636W        W64236  38.307  19.533  13.351
93637W        W64237  38.828  11.219   3.163
93638W        W64238  36.914  32.611   3.375
93639W        W64239  43.373  22.064   0.399
93640W        W64240  26.983   5.988   2.669
93641W        W64241  44.938  35.097  14.131
93642W        W64242   5.713   2.395   0.011
93643W        W64243   7.900   4.327   2.163
93644W        W64244   5.358   4.463   1.284
93645W        W64245   1.710   9.681   0.283
93646W        W64246  23.844  17.646   4.649
93647W        W64247   9.344  39.772   0.033
93648W        W64248  27.457  30.437  14.996
93649W        W64249  11.666  42.911  13.458
93650W        W64250  16.759  16.227   4.097
93651W        W64251  29.717   5.093   2.025
93652W        W64252  32.940  43.689   0.814
93653W        W64253   6.512  38.865  13.992
93654W        W64254   4.319   9.454   2.249
93655W        W64255   7.733  30.587   2.263
93656W        W64256   4.955  14.296  13.841
93657W        W64257  19.845  12.281   2.924
93658W        W64258  35.812  10.845   4.824
93659W        W64259  19.024   0.428   3.135
93660W        W64260  15.327   6.348  10.963
93661W        W64261  42.398   1.766   3.368
93662W        W64262  44.182   7.801  13.556
93663W        W64263   7.693   3.028  11.341
93664W        W64264  23.927   3.004   1.336
93665W        W64265  33.049  38.723  12.885
93666W        W64266  37.959  14.688   1.865
93667W        W64267  28.353  44.069  14.289
93668W        W64268  20.059  11.467   2.407
93669W        W64269  26.629  31.207  12.598
93670W        W64270  34.431  30.161   2.350
93671W        W64271  13.172  19.567   3.302
93672W        W64272  10.334  26.204  12.173
93673W        W64273  19.068  24.080   5.005
93674W        W64274  30.756  20.516  10.618
93675W        W64275  12.860  12.839   0.004
93676W        W64276   8.402  20.303  14.897
93677W        W64277  18.554   6.921  10.978
93678W        W64278  29.272  17.729  14.473
93679W        W64279  35.064   1.831  13.295
93680W        W64280  36.287  44.827   4.481
93681W        W64281  28.866   4.727  11.354
93682W        W64282  29.008  10.844  10.678
93683W        W64283  31.188  32.049   2.340
93684W        W64284   2.966  39.738  14.578
93685W        W64285  34.806  22.133   3.425
93686W        W64286  23.426  13.386   4.190
93687W        W64287   9.065  35.312  13.397
93688W        W64288   3.147  37.244  10.681
93689W        W64289   4.228  26.970   2.506
93690W        W64290  21.150  11.339   2.294
93691W        W64291  14.341  10.305   1.815
93692W        W64292  36.043  26.075  14.018
93693W        W64293  22.118  10.277  13.332
93694W        W64294  33.784  22.953   1.348
93695W        W64295  10.007  44.725   0.889
93696W        W64296  24.852   5.979   0.979
93697W        W64297  22.109   0.031   9.497
93698W        W64298  35.822  10.597   1.137
93699W        W64299  16.792  32.409   3.665
93700W        W64300   5.408   2.994  10.628
93701W        W64301  31.010  44.566  14.904
93702W        W64302  17.623  43.334  10.382
93703W        W64303  20.792   5.288  14.925
93704W        W64304  11.199  39.933  12.866
93705W        W64305  22.035  31.394   0.530
93706W        W64306  36.950  11.791  12.318
93707W        W64307   4.963   1.851  11.292
93708W        W64308   2.460  34.927   0.470
93709W        W64309  12.805  36.520   2.825
93710W        W64310  22.055  33.526   0.036
93711W        W64311  39.592  40.368  12.489
93712W        W64312  26.198  28.558   3.711
93713W        W64313  10.369  14.715   3.597
93714W        W64314  15.622  32.129   1.226
93715W        W64315  41.223  37.660  10.975
93716W        W64316  11.855  44.475  14.791
93717W        W64317  44.910   0.910  11.009
93718W        W64318   8.181   4.137  12.148
93719W        W64319  31.561   8.574   1.755
93720W        W64320   0.860  22.058  11.606
93721W        W64321  15.464  32.340   3.583
93722W        W64322   1.536  42.008   4.139
93723W        W64323  35.248  37.600   4.025
93724W        W64324  31.372  41.133  14.404
93725W        W64325  39.042  27.096  11.682
93726W        W64326  24.043  33.985  12.505
93727W        W64327  13.510  39.021  10.214
93728W        W64328  41.963  28.911   5.025
93729W        W64329  28.083  30.664   1.229
93730W        W64330  27.404  26.030  14.836
93731W        W64331  28.437  41.954   3.771
93732W        W64332  26.782  33.108  14.935
93733W        W64333  43.719   0.467  13.879
93734W        W64334  10.876  18.720   0.374
93735W        W64335  29.368  40.681   3.487
93736W        W64336  26.133   7.270   3.297
93737W        W64337  43.606  31.535  13.900
93738W        W64338   2.485   9.431  11.134
93739W        W64339  13.386  33.169  12.115
93740W        W64340  29.064   8.315  11.152
93741W        W64341   0.820  13.373   0.488
93742W        W64342  44.554  12.381   0.814
93743W        W64343  25.120  14.273  10.704
93744W        W64344   0.332  31.718  14.012
93745W        W64345  42.783  14.058   2.171
93746W        W64346  23.565  13.782   2.915
93747W        W64347  41.930  27.164  13.881
93748W        W64348  17.787  39.865   4.218
93749W        W64349  36.454  18.727  14.810
93750W        W64350   0.884  28.969  13.488
93751W        W64351   3.357  23.764  10.711
93752W        W64352  15.639   0.316   0.013
93753W        W64353  35.887  17.868  10.722
93754W        W64354  26.701  17.245  10.431
93755W        W64355  36.458   6.895  11.655
93756W        W64356   8.686  34.559   3.715
93757W        W64357   3.884  35.405   1.683
93758W        W64358  21.178  21.014   3.181
93759W        W64359  23.664  30.413   0.345
93760W        W64360  23.241  38.269   4.569
93761W        W64361  42.624  35.969  13.280
93762W        W64362  33.622  39.972   0.648
93763W        W64363  40.574  21.152  14.912
93764W        W64364  10.749   1.308  11.866
93765W        W64365  32.094  21.495   0.302
93766W        W64366  42.040  30.017   0.373
93767W        W64367  13.233  16.301  12.867
93768W        W64368  20.482  14.330  13.895
93769W        W64369  42.483   3.705  14.312
93770W        W64370  24.062  44.887  11.266
93771W        W64371  31.830  29.207   1.218
93772W        W64372  30.070  17.574   3.542
93773W        W64373  35.080  28.712  12.080
93774W        W64374  12.470   7.356   2.784
93775W        W64375  42.567  23.724   2.380
93776W        W64376   0.394  43.607   4.687
93777W        W64377  42.848  32.125   2.652
93778W        W64378  26.125   3.080   3.286
93779W        W64379   2.948  44.321  13.343
93780W        W64380  16.164  35.505   3.162
93781W        W64381  24.092  24.621   4.774
93782W        W64382   7.404   6.760   0.421
93783W        W64383   8.530  23.570   4.070
93784W        W64384  29.390  14.846  13.575
93785W        W64385  13.284  19.271  10.993
93786W        W64386  32.078  13.158   2.768
93787W        W64387  30.408  28.150   2.264
93788W        W64388  16.672  12.182   4.630
93789W        W64389  23.680  39.766   2.882
93790W        W64390   3.361  34.581  10.122
93791W        W64391  38.381  26.424  11.532
93792W        W64392  40.124   2.174   3.612
93793W        W64393  44.273   5.191  14.123
93794W        W64394  30.887   7.624  13.930
93795W        W64395  42.950   4.713   2.614
93796W        W64396  22.965  35.543  13.589
93797W        W64397  41.743  33.885  11.003
93798W        W64398   8.397  25.570   3.534
93799W        W64399  26.034  21.328  11.576
93800W        W64400   8.765  11.783  12.588
93801W        W64401  32.037  15.629  11.900
93802W        W64402  16.117  11.772  11.631
93803W        W64403  21.001   5.821   4.740
93804W        W64404  29.652   5.913   4.669
93805W        W64405   4.426  14.797  11.422
93806W        W64406  30.175   2.820  14.431
93807W        W64407  10.555  12.239  12.166
93808W        W64408  13.592   7.330   4.549
93809W        W64409  11.491  29.526   3.526
93810W        W64410  36.581  41.404   2.842
93811W        W64411  34.063  27.414  12.480
93812W        W64412  14.644   6.888   0.955
93813W        W64413  30.613  31.271   1.970
93814W        W64414  19.159  33.190   2.853
93815W        W64415  28.765  44.866   1.247
93816W        W64416  10.652  29.128   3.420
93817W        W64417   9.079   9.747  11.959
93818W        W64418  43.429  41.115  13.026
93819W        W64419  20.756   8.856  14.229
93820W        W64420   4.406  16.621  12.562
93821W        W64421  28.526  24.150   1.127
93822W        W64422  36.939  41.212   4.640
93823W        W64423  44.415  12.165  12.873
93824W        W64424  11.218   0.105   3.781
93825W        W64425  28.591  35.407  13.386
93826W        W64426  40.944  30.883  13.982
93827W        W64427   1.344  42.532  12.154
93828W        W64428  23.718  34.088  11.155
93829W        W64429  16.084   1.211  11.113
93830W        W64430  24.384  35.015  12.057
93831W        W64431  16.364  22.967  11.942
93832W        W64432  33.920  34.903  10.403
93833W        W64433  13.403  21.646   0.187
93834W        W64434   3.102  33.978   1.470
93835W        W64435  22.116  21.454   1.077
93836W        W64436  40.499  20.937   4.288
93837W        W64437  14.251  19.012   4.721
93838W        W64438   7.508  15.836  14.375
93839W        W64439  20.006  36.063  12.755
93840W        W64440  40.469  24.487   2.286
93841W        W64441  21.850  16.133   0.438
93842W        W64442   3.998   2.736   4.250
93843W        W64443   3.836  27.066  14.304
93844W        W64444  28.042  18.301  12.087
93845W        W64445  34.102  25.159   1.756
93846W        W64446  42.358  36.603   3.358
93847W        W64447  43.772  43.479  11.490
93848W        W64448   4.725  38.105   2.681
93849W        W64449  23.261  18.718   2.614
93850W        W64450  20.143  43.749   1.221
93851W        W64451  24.288  26.081  10.693
93852W        W64452  42.772  44.438   1.112
93853W        W64453  22.491  35.565   0.781
93854W        W64454  30.746   7.327  11.839
93855W        W64455  30.225   0.873   3.761
93856W        W64456  27.161  30.645  14.652
93857W        W64457  12.602  25.510   1.241
93858W        W64458  43.407  31.984   4.280
93859W        W64459  31.069   3.440   3.629
93860W        W64460  28.850  29.598   2.236
93861W        W64461  37.568  40.508   0.053
93862W        W64462   5.446   0.269  14.258
93863W        W64463  27.714  11.173   4.176
93864W        W64464  25.581   6.306  13.817
93865W        W64465  29.379  41.920  14.726
93866W        W64466  42.982  24.023   3.118
93867W        W64467   8.669  23.252  14.847
93868W        W64468  39.256  42.045  13.302
93869W        W64469   7.762  31.965  14.374
93870W        W64470  42.777  44.045   1.910
93871W        W64471  18.404  36.933  10.741
93872W        W64472  30.776  30.013  13.170
93873W        W64473   9.789  28.274   4.095
93874W        W64474  14.337  24.829  11.214
93875W        W64475  43.316  36.548   4.034
93876W        W64476  33.415   0.949   4.565
93877W        W64477  30.073   7.084  14.819
93878W        W64478  31.860   8.398  13.456
93879W        W64479  15.230   8.360   3.627
93880W        W64480  39.267   5.800  12.837
93881W        W64481   1.472  20.613   1.843
93882W        W64482   2.780  10.942   3.892
93883W        W64483  23.283  32.474   1.373
93884W        W64484   2.474   9.678  11.574
93885W        W64485  36.590  35.375   3.275
93886W        W64486  34.854   2.316   2.808
93887W        W64487   9.952   3.734   2.018
93888W        W64488  39.867  28.916   1.738
93889W        W64489  14.683  36.838  13.454
93890W        W64490  40.999  22.355   2.902
93891W        W64491   8.188  38.401   4.102
93892W        W64492   1.927  13.597  13.796
93893W        W64493  29.872  42.559  11.589
93894W        W64494  36.167  39.052  12.074
93895W        W64495  36.507  27.249  14.897
93896W        W64496  19.646  22.230  13.757
93897W        W64497  19.784  36.459   4.732
93898W        W64498   5.782   7.310   3.091
93899W        W64499  33.378  22.522  12.694
93900W        W64500  20.562  32.872  12.385
93901W        W64501   0.692   5.289  13.398
93902W        W64502  29.431  35.521  11.885
93903W        W64503  19.628  39.724  13.202
93904W        W64504  24.699  27.516  12.522
93905W        W64505  23.020   5.235  11.560
93906W        W64506   4.117  25.025   2.105
93907W        W64507  19.616  16.431   1.106
93908W        W64508  21.552   0.956   0.203
93909W        W64509  38.081  18.186   0.711
93910W        W64510  35.009  37.651  11.986
93911W        W64511   1.044   0.444   4.679
93912W        W64512  14.188  20.375  14.940
93913W        W64513   0.435  31.219   3.092
93914W        W64514  31.005   0.969  10.662
93915W        W64515  34.788   9.561  10.719
93916W        W64516   5.738  12.585  10.614
93917W        W64517  21.566   7.121  13.015
93918W        W64518  36.352  32.246   2.374
93919W        W64519  33.002   2.531  13.390
93920W        W64520   9.371  25.972   4.205
93921W        W64521   0.975  35.997  11.976
93922W        W64522  28.077   6.852   2.715
93923W        W64523  24.460  30.487  11.672
93924W        W64524   5.713  14.719   3.743
93925W        W64525   5.970  11.244  11.206
93926W        W64526  40.211  30.000   3.616
93927W        W64527   5.235   2.786  13.801
93928W        W64528  10.748   7.939   4.846
93929W        W64529   3.868  43.997  13.061
93930W        W64530  30.495  22.980  11.904
93931W        W64531   0.361  29.570   4.147
93932W        W64532   7.615  14.798  12.579
93933W        W64533  11.749  17.332  12.429
93934W        W64534  23.678  42.992   4.587
93935W        W64535  41.240  27.038  10.618
93936W        W64536  39.005  36.354   1.478
93937W        W64537  44.777  20.775   0.850
93938W        W64538  12.848  10.288  11.659
93939W        W64539  10.272   8.244  12.144
93940W        W64540  36.332   4.873  11.692
93941W        W64541  11.372   4.223  13.177
93942W        W64542  31.458  38.305  12.699
93943W        W64543  26.677  36.119  10.150
93944W        W64544   4.419  28.738  14.953
93945W        W64545  31.655  10.652   3.612
93946W        W64546  34.353   7.273   0.426
93947W        W64547  20.625  39.069   1.694
93948W        W64548   0.316  32.860  11.201
93949W        W64549   1.327  43.976   4.090
93950W        W64550  44.265  21.030  11.519
93951W        W64551  18.302  26.960  14.519
93952W        W64552  22.719   4.737   1.342
93953W        W64553   5.451  26.641  11.897
93954W        W64554  26.712  11.762   5.236
93955W        W64555  35.401  26.523  12.709
93956W        W64556  13.155  13.326   0.530
93957W        W64557  29.489  11.669  10.767
93958W        W64558  21.843  26.514   4.525
93959W        W64559  32.532  29.942  12.540
93960W        W64560  18.115  26.051  12.540
93961W        W64561  41.906  39.715   3.214
93962W        W64562  21.515  36.858  12.336
93963W        W64563  25.697  43.289  11.798
93964W        W64564  17.780  39.385  12.464
93965W        W64565  28.123   5.472   2.423
93966W        W64566  36.811   4.410  11.140
93967W        W64567   4.944  40.491   0.042
93968W        W64568  15.309  12.410   5.061
93969W        W64569  14.190  33.063  13.464
93970W        W64570  12.249   5.338   0.554
93971W        W64571  18.364  36.103   1.862
93972W        W64572  40.368   1.721   1.365
93973W        W64573  30.546  39.343  10.726
93974W        W64574   0.991  27.141   3.904
93975W        W64575   1.416  32.597  12.548
93976W        W64576  42.964   3.635  10.342
93977W        W64577  11.200  30.675  14.856
93978W        W64578  11.210  37.645   1.157
93979W        W64579  32.709   6.470   0.777
93980W        W64580  21.104   2.950  13.009
93981W        W64581  23.211   7.968  12.520
93982W        W64582   4.898   0.925   0.111
93983W        W64583  30.560  17.649  13.854
93984W        W64584  25.579   3.994   0.078
93985W        W64585  14.215  32.490  11.997
93986W        W64586  26.769  35.755   0.740
93987W        W64587  17.281  43.666  14.730
93988W        W64588  39.328   8.705  12.937
93989W        W64589  25.272  35.409   1.204
93990W        W64590   6.379  33.525  13.554
93991W        W64591   9.128  23.686  11.636
93992W        W64592  21.524  44.221  11.609
93993W        W64593  12.740  44.361   0.307
93994W        W64594   5.206  14.812   3.336
93995W        W64595  12.090  35.973   0.091
93996W        W64596   5.634   9.354   0.929
93997W        W64597  20.048  40.437   3.190
93998W        W64598  17.717  18.529   1.744
93999W        W64599  12.689   1.885  12.900
94000W        W64600   5.712  43.962  10.556
94001W        W64601  24.599  12.454   1.484
94002W        W64602  37.424  34.458  14.104
94003W        W64603   5.847  41.572   2.322
94004W        W64604  29.797  18.243   4.643
94005W        W64605  44.835  32.285   3.904
94006W        W64606  39.039  29.505   1.971
94007W        W64607  21.290   9.237   0.890
94008W        W64608  18.062  37.680  14.573
94009W        W64609  32.939   0.486   4.132
94010W        W64610  39.535  16.925  14.829
94011W        W64611  14.488   1.736  11.645
94012W        W64612  36.077  25.921   0.922
94013W        W64613  11.116  10.000   2.957
94014W        W64614  12.439   9.679  11.173
94015W        W64615  40.612  20.580   4.619
94016W        W64616  17.154  43.695  11.640
94017W        W64617  21.810  22.953  14.715
94018W        W64618  24.237  14.468   2.754
94019W        W64619  29.605   8.291   2.261
94020W        W64620   1.308  33.178   1.380
94021W        W64621  17.286   9.887   2.776
94022W        W64622   6.598  26.036   0.927
94023W        W64623  31.642   0.281   2.779
94024W        W64624  43.824  11.137   1.246
94025W        W64625  10.112  39.617   3.850
94026W        W64626  38.903  37.096  10.869
94027W        W64627  35.336  15.270  14.427
94028W        W64628  39.564  22.029   3.864
94029W        W64629  22.441  26.963   3.387
94030W        W64630  20.255  25.930  12.186
94031W        W64631  40.719   7.914  11.433
94032W        W64632   1.352   8.874  11.786
94033W        W64633  34.852  11.273   3.035
94034W        W64634   7.872  43.223   2.719
94035W        W64635  10.383  43.898  14.183
94036W        W64636   6.165   0.027  14.928
94037W        W64637  34.688   9.071  10.623
94038W        W64638  33.733  31.542   1.747
94039W        W64639  39.013  40.882   2.428
94040W        W64640  17.650  35.594  14.366
94041W        W64641  35.168  19.539  10.306
94042W        W64642  10.766  24.926   4.799
94043W        W64643  26.639   4.186   4.885
94044W        W64644  19.214  38.424   0.541
94045W        W64645  32.373  32.625  11.537
94046W        W64646  30.467  25.575  14.066
94047W        W64647   3.417  29.266  11.543
94048W        W64648  37.443  43.795   1.763
94049W        W64649  43.460  24.654  14.297
94050W        W64650  18.218   8.072   3.681
94051W        W64651  32.140   4.858  11.267
94052W        W64652  36.455  12.880   0.020
94053W        W64653  35.394  21.461   4.480
94054W        W64654  40.065  38.551   2.676
94055W        W64655   6.766  41.473   2.701
94056W        W64656  35.294  14.531  12.456
94057W        W64657  14.822  34.149   0.820
94058W        W64658  18.057  41.282   4.070
94059W        W64659   5.673   0.620   2.135
94060W        W64660  30.015   7.386   4.690
94061W        W64661  13.646  23.126   4.325
94062W        W64662  41.444  31.346   0.870
94063W        W64663  43.629  31.648   0.106
94064W        W64664   2.342  41.566   1.847
94065W        W64665  20.799   2.011  13.886
94066W        W64666  35.311  34.976  11.973
94067W        W64667  23.074  20.925  12.970
94068W        W64668  18.630  15.576   0.393
94069W        W64669   5.399  31.669   4.093
94070W        W64670  35.555   4.148   2.801
94071W        W64671  18.076  32.599  13.015
94072W        W64672  15.689  32.674  10.678
94073W        W64673  12.711  17.769   2.897
94074W        W64674  20.125  27.028   0.937
94075W        W64675  12.438  41.428  12.002
94076W        W64676  12.191  32.884  10.663
94077W        W64677  37.384  23.155  13.856
94078W        W64678   3.482   7.147   0.441
94079W        W64679  13.137  25.275   1.369
94080W        W64680  25.929   8.457   1.371
94081W        W64681  38.635  37.129  13.926
94082W        W64682  40.850  17.654   3.590
94083W        W64683   1.363  17.062  12.977
94084W        W64684  15.031  39.063  10.683
94085W        W64685  39.355  10.347   4.125
94086W        W64686  16.248  25.148   0.431
94087W        W64687   0.059  28.918  14.920
94088W        W64688  26.921   1.403   3.732
94089W        W64689  42.316   6.445   5.146
94090W        W64690  10.579  22.626  12.123
94091W        W64691  34.440  33.607  12.935
94092W        W64692  10.106  11.422   4.206
94093W        W64693  18.662  30.165   5.067
94094W        W64694  36.415  26.197  11.208
94095W        W64695  11.070  11.138   2.690
94096W        W64696   0.490  24.741  13.078
94097W        W64697  40.655   4.752  14.372
94098W        W64698   6.341  14.389  10.726
94099W        W64699  30.769  18.173   4.993
94100W        W64700  10.045  27.096   4.328
94101W        W64701  40.597   2.231  13.011
94102W        W64702   1.311  42.376   2.866
94103W        W64703  14.190  39.350  10.670
94104W        W64704  41.421   6.213   1.690
94105W        W64705  31.021  10.975   1.802
94106W        W64706  31.548   3.238  13.839
94107W        W64707  31.553  42.857   2.471
94108W        W64708  42.854  21.459  13.318
94109W        W64709  34.263  35.852  11.180
94110W        W64710  36.015  27.668   3.279
94111W        W64711  14.067  43.569   2.669
94112W        W64712  15.750  15.579   3.205
94113W        W64713  31.983   0.616  10.238
94114W        W64714  33.904  30.113   2.227
94115W        W64715  11.763  11.593   4.603
94116W        W64716  19.697  35.361  11.193
94117W        W64717   3.854   6.090  11.525
94118W        W64718  16.602  18.056   3.577
94119W        W64719   8.810  34.763   4.991
94120W        W64720  28.072  23.299   1.165
94121W        W64721  31.360   6.903  12.890
94122W        W64722  17.871  16.758  13.100
94123W        W64723  42.626   7.434   4.035
94124W        W64724  13.259  44.389   0.485
94125W        W64725  30.971  40.692   4.600
94126W        W64726  24.125  37.777  14.460
94127W        W64727  23.179   1.519   2.227
94128W        W64728  12.784   5.744  10.823
94129W        W64729   7.841   3.974   0.939
94130W        W64730  32.557  42.591   1.008
94131W        W64731   4.794  22.226   3.655
94132W        W64732  25.543  24.587   3.561
94133W        W64733   4.799  23.435  14.594
94134W        W64734  23.693   8.703   2.129
94135W        W64735   0.153   5.356  13.113
94136W        W64736  38.840  38.134   4.362
94137W        W64737   6.641  24.867  13.353
94138W        W64738  31.910  38.322  11.971
94139W        W64739  35.168  36.613  14.925
94140W        W64740  41.361   6.416  11.445
94141W        W64741  40.936  25.931   4.242
94142W        W64742  10.166  31.938   3.824
94143W        W64743   4.262  19.549  11.443
94144W        W64744   8.608  29.355  10.983
94145W        W64745  37.606  18.202  14.806
94146W        W64746  34.050  36.872  12.890
94147W        W64747   3.249  18.138  13.805
94148W        W64748  19.991  39.005  12.938
94149W        W64749  29.678  43.463  11.263
94150W        W64750  32.968  38.028   2.379
94151W        W64751  33.311  10.725  14.382
94152W        W64752  35.432  43.586   1.455
94153W        W64753   4.932  43.590  11.475
94154W        W64754  42.327  21.526  13.400
94155W        W64755  12.541  32.367  13.865
94156W        W64756   3.394   5.512  11.986
94157W        W64757  44.523  10.004  13.574
94158W        W64758  19.731  15.526   4.630
94159W        W64759  43.868   0.190   0.768
94160W        W64760  30.623   2.137  14.837
94161W        W64761  31.330  13.704   0.280
94162W        W64762  31.927  14.767  11.190
94163W        W64763  26.755  31.124  14.822
94164W        W64764  29.650   0.427   2.922
94165W        W64765   9.855  37.537   1.365
94166W        W64766   6.476  22.589   3.700
94167W        W64767  32.005   7.405  12.460
94168W        W64768  22.022  34.522  10.626
94169W        W64769  43.041  18.942  12.543
94170W        W64770   5.246  22.861  10.981
94171W        W64771  38.886  44.050  12.535
94172W        W64772  40.565  31.662   0.358
94173W        W64773  14.738   5.041   1.945
94174W        W64774  18.757  17.472   4.209
94175W        W64775  20.605  18.427   0.849
94176W        W64776  13.419  11.331  11.387
94177W        W64777  19.502  12.714   2.896
94178W        W64778  17.180  34.156   2.306
94179W        W64779   0.875  26.279   1.371
94180W        W64780  12.868   7.275  13.322
94181W        W64781   0.962   4.983   1.607
94182W        W64782   1.739   4.997   4.000
94183W        W64783  26.917   3.468  10.584
94184W        W64784  26.323  19.587  12.362
94185W        W64785  43.359  20.495  11.568
94186W        W64786   8.152  35.597  14.407
94187W        W64787   7.239  10.150  12.969
94188W        W64788  22.258  28.669  13.014
94189W        W64789  26.990  22.622   0.304
94190W        W64790  14.108  22.739   4.217
94191W        W64791  10.239  28.012   0.034
94192W        W64792  27.469  18.037   4.207
94193W        W64793  39.874   5.611   4.067
94194W        W64794   2.523  20.123  13.132
94195W        W64795  32.312  22.792   9.974
94196W        W64796   0.015  40.651  13.600
94197W        W64797  20.198  14.793  12.336
94198W        W64798  12.747   0.985  12.809
94199W        W64799  34.930   4.388  13.395
94200W        W64800  25.232  28.503  12.543
94201W        W64801  42.113  24.971   3.771
94202W        W64802  11.636  34.970  12.859
94203W        W64803  22.014  20.933   2.889
94204W        W64804   2.366  17.925  11.942
94205W        W64805  25.539   0.780  10.367
94206W        W64806   6.255  18.561   1.361
94207W        W64807  23.730  10.593  13.595
94208W        W64808  19.195   2.250   5.048
94209W        W64809  16.137   4.127   2.368
94210W        W64810  31.228  26.614  12.232
94211W        W64811  29.467   5.668   1.629
94212W        W64812   7.184   5.984   4.118
94213W        W64813  31.532  18.007   4.318
94214W        W64814  26.981  15.259   3.771
94215W        W64815   6.152  40.097  12.040
94216W        W64816   2.987   5.646   0.334
94217W        W64817  42.431  13.829   0.717
94218W        W64818  12.280   1.813  11.161
94219W        W64819  24.593   3.050  14.385
94220W        W64820   9.179  29.788   4.882
94221W        W64821   0.240  25.318   2.745
94222W        W64822  37.940  35.846  10.926
94223W        W64823   6.114   6.849   0.909
94224W        W64824  22.212  32.576  14.827
94225W        W64825   2.445  13.603   1.847
94226W        W64826   7.476   5.793  13.042
94227W        W64827  32.642  11.989   4.393
94228W        W64828  28.871   2.041   1.916
94229W        W64829   7.492  32.484  13.881
94230W        W64830  23.059   3.056   0.561
94231W        W64831  31.398  36.626  11.406
94232W        W64832  25.576  34.625   0.760
94233W        W64833  11.725  23.540  13.846
94234W        W64834  19.079   2.469  13.870
94235W        W64835  35.001  18.759   1.109
94236W        W64836  30.871  41.842   1.713
94237W        W64837  22.188  16.074  14.822
94238W        W64838  22.532  23.125   0.314
94239W        W64839  21.230   5.432  12.157
94240W        W64840  22.448  41.408  11.016
94241W        W64841  25.584  11.577  11.214
94242W        W64842  40.625   0.065   3.748
94243W        W64843  23.605  24.624  10.703
94244W        W64844  10.773  38.973   4.167
94245W        W64845   9.218   3.075   0.967
94246W        W64846   4.405   1.238   2.135
94247W        W64847   5.619  29.539  12.864
94248W        W64848  34.917  26.416  11.580
94249W        W64849  42.984  38.546  13.936
94250W        W64850  30.900   0.345   0.508
94251W        W64851  28.491  18.329   4.964
94252W        W64852  25.029   1.407  11.904
94253W        W64853  20.789  16.684  13.365
94254W        W64854   8.269  42.291  12.435
94255W        W64855  12.656  40.529  14.887
94256W        W64856   8.156  35.674  12.121
94257W        W64857  18.713  28.733  14.555
94258W        W64858  37.871  25.485   4.647
94259W        W64859  15.080   7.179  10.550
94260W        W64860  37.007  22.703  10.409
94261W        W64861   6.802   0.699  14.329
94262W        W64862  40.606  41.288  11.991
94263W        W64863  14.878  40.646   5.015
94264W        W64864  37.486  15.190  12.621
94265W        W64865  40.896  20.037   2.411
94266W        W64866   4.739   7.878   3.749
94267W        W64867  16.338  43.769   0.496
94268W        W64868   7.209   3.392   3.807
94269W        W64869  11.336  20.553   2.810
94270W        W64870  43.267  17.010   1.446
94271W        W64871  34.110  19.325  14.733
94272W        W64872   0.312  14.591   2.902
94273W        W64873  39.572  20.008  12.942
94274W        W64874  31.173  15.258  13.940
94275W        W64875   2.848   3.664  14.521
94276W        W64876  16.066  30.553  11.003
94277W        W64877  39.291   0.491   0.970
94278W        W64878   9.393  15.608  11.531
94279W        W64879  35.638   2.427  12.426
94280W        W64880   6.157  40.796   4.074
94281W        W64881  35.875   3.727  12.112
94282W        W64882  43.297  27.774   1.429
94283W        W64883  31.865   9.866   0.002
94284W        W64884  35.577   5.949  13.519
94285W        W64885  10.537  21.877   4.091
94286W        W64886  23.668   7.350   1.316
94287W        W64887   5.729   8.094  11.802
94288W        W64888  20.022  14.413   3.894
94289W        W64889  41.056  18.685   2.821
94290W        W64890  16.618  27.165   0.030
94291W        W64891  29.037  14.295   4.808
94292W        W64892  10.258  30.970   1.300
94293W        W64893   9.352  17.650  14.220
94294W        W64894  26.673  35.109  12.982
94295W        W64895  41.815  22.588   2.366
94296W        W64896  26.616  39.938   2.354
94297W        W64897  33.489  18.983   1.864
94298W        W64898  34.969  19.293   4.209
94299W        W64899   1.436  32.074   4.600
94300W        W64900   6.706  14.596   0.962
94301W        W64901   6.848  11.080   3.340
94302W        W64902  28.343  43.544   1.876
94303W        W64903  27.130   2.812   2.206
94304W        W64904  14.276  20.630   4.553
94305W        W64905   5.885  25.810  13.028
94306W        W64906  44.914  24.011  13.719
94307W        W64907  34.739  16.055  11.588
94308W        W64908  31.446   8.081  13.414
94309W        W64909  35.994  26.337  12.577
94310W        W64910  24.932  32.118  14.681
94311W        W64911  23.669   3.886  10.702
94312W        W64912  14.624  31.830   1.355
94313W        W64913  22.659  16.917   3.094
94314W        W64914   8.511  27.944   0.415
94315W        W64915  44.305  26.696  14.842
94316W        W64916  10.395  11.092   3.183
94317W        W64917  19.534  43.684  14.413
94318W        W64918  42.471  30.321  11.637
94319W        W64919  28.052  21.060  13.126
94320W        W64920  27.768  30.635  10.307
94321W        W64921  40.410  11.417   1.322
94322W        W64922   1.955  18.172   4.181
94323W        W64923  42.702  11.307  13.811
94324W        W64924  14.610  25.308  13.342
94325W        W64925   7.673  21.336  11.629
94326W        W64926   9.072  20.654  14.287
94327W        W64927  14.684  31.561   3.420
94328W        W64928   1.880  41.572   4.867
94329W        W64929  10.772   2.678   1.454
94330W        W64930  21.436   7.673  12.106
94331W        W64931  30.939  12.143  12.983
94332W        W64932  23.796  21.687  14.119
94333W        W64933   0.782  21.920   2.833
94334W        W64934   3.800  15.009  11.632
94335W        W64935  32.623  15.041  14.815
94336W        W64936  38.012  18.159  10.202
94337W        W64937  38.896  22.729   3.543
94338W        W64938  33.331  42.980   4.563
94339W        W64939  21.616  16.877   4.646
94340W        W64940  12.641  16.805  12.437
94341W        W64941  29.434  35.958  11.595
94342W        W64942   7.761  14.611   3.245
94343W        W64943   9.054  11.936   0.871
94344W        W64944  11.234  20.146  11.389
94345W        W64945  24.024  20.366   3.389
94346W        W64946  26.893  39.324   2.043
94347W        W64947  26.367  39.851  13.418
94348W        W64948   1.275  21.478   3.453
94349W        W64949  13.483  44.830   3.515
94350W        W64950  20.500  33.586  10.563
94351W        W64951  24.614  37.390   4.182
94352W        W64952  19.791  22.738   5.053
94353W        W64953  12.373  19.729   1.996
94354W        W64954  21.306  22.812  12.544
94355W        W64955  37.407  44.854   2.890
94356W        W64956  14.138  19.829  14.010
94357W        W64957  20.595  17.641  11.529
94358W        W64958  25.078  39.061  13.237
94359W        W64959  17.531   2.444  11.171
94360W        W64960  21.030  21.142   0.571
94361W        W64961  29.966  33.370  11.204
94362W        W64962  25.303  16.631  13.011
94363W        W64963   5.837   8.220   4.056
94364W        W64964   3.961   4.756  13.823
94365W        W64965  28.535  28.626   1.318
94366W        W64966  36.626  16.712   1.034
94367W        W64967   7.943  27.622  12.045
94368W        W64968  21.218  21.587   0.774
94369W        W64969   5.603  41.451   4.665
94370W        W64970  24.215   1.217  13.469
94371W        W64971  44.688   8.347  14.730
94372W        W64972  21.531  34.504  10.824
94373W        W64973  18.732  22.691  13.358
94374W        W64974  28.510  22.557   2.367
94375W        W64975   9.919   2.938  11.670
94376W        W64976  25.319  24.530   0.834
94377W        W64977  26.689  39.053  10.843
94378W        W64978  22.436  23.115   4.082
94379W        W64979   7.409  30.559   1.840
94380W        W64980  20.598  13.719   3.942
94381W        W64981  13.605   6.317   0.008
94382W        W64982   4.406  43.881  12.339
94383W        W64983  33.466   2.400   0.757
94384W        W64984   2.335  40.561   3.282
94385W        W64985   9.741  44.496  14.250
94386W        W64986   0.408  22.705   0.930
94387W        W64987  13.798  28.982  14.918
94388W        W64988  32.063  23.991   4.591
94389W        W64989   8.301  39.520  11.189
94390W        W64990  28.646  22.531   3.196
94391W        W64991  14.703  34.403  13.394
94392W        W64992  42.517  10.780  13.858
94393W        W64993  24.285  31.988  12.444
94394W        W64994  17.031  24.533  14.020
94395W        W64995  21.816  31.928  11.281
94396W        W64996  32.965  37.051  13.546
94397W        W64997   0.583   4.412   2.142
94398W        W64998  41.296  17.278   2.788
94399W        W64999  25.774  37.490   1.795
94400W        W65000   6.908  36.069   1.455
94401W        W65001  16.164  27.967   4.558
94402W        W65002   0.531  44.277  10.952
94403W        W65003   7.430  29.073  12.122
94404W        W65004   1.845  42.494  14.358
94405W        W65005   3.615  35.867  12.979
94406W        W65006  12.447  28.248   1.050
94407W        W65007  16.351   1.071   2.924
94408W        W65008  43.881  22.225  13.047
94409W        W65009   0.848  20.351  13.080
94410W        W65010  16.277   3.669   2.631
94411W        W65011  24.167   9.682   1.213
94412W        W65012  11.142  28.460  12.459
94413W        W65013  35.780  33.539   4.083
94414W        W65014   1.471  27.049  13.394
94415W        W65015  12.252  19.747   0.970
94416W        W65016  43.724  36.785  13.026
94417W        W65017   0.080  10.887   4.083
94418W        W65018  35.057   3.616   1.326
94419W        W65019  27.024  37.969   1.617
94420W        W65020  10.706   3.852  13.820
94421W        W65021  39.567  39.915  14.862
94422W        W65022   8.313  22.078  13.549
94423W        W65023  21.264   2.717  13.463
94424W        W65024   7.324  21.787  12.637
94425W        W65025  39.934  26.954  11.994
94426W        W65026   2.728  17.217   1.439
94427W        W65027  19.300  37.632   1.763
94428W        W65028  38.073  36.117  12.823
94429W        W65029  16.730  33.951   4.523
94430W        W65030   0.295  23.555  13.446
94431W        W65031  38.125  34.322   1.325
94432W        W65032  44.473  14.908   0.722
94433W        W65033  12.408   7.136   4.518
94434W        W65034  22.113  25.642  14.601
94435W        W65035  29.173  33.620  13.507
94436W        W65036   6.432  44.392   0.361
94437W        W65037  41.580  10.896   1.827
94438W        W65038  16.820  17.006  14.517
94439W        W65039  21.623  14.272  10.317
94440W        W65040  38.303  33.557   1.199
94441W        W65041   3.045  24.904   1.375
94442W        W65042  29.174   3.325  13.808
94443W        W65043   6.055  17.262   3.767
94444W        W65044  33.475  43.948  12.064
94445W        W65045  31.999   5.188  10.903
94446W        W65046  10.661   2.262   0.291
94447W        W65047  16.681   7.277  14.474
94448W        W65048  21.136  12.828   3.572
94449W        W65049  15.924  42.519  14.902
94450W        W65050  33.568  21.956   2.856
94451W        W65051  35.042  15.539   3.556
94452W        W65052  10.716  17.896  13.567
94453W        W65053  10.236  34.865   1.259
94454W        W65054  29.234  31.541   0.856
94455W        W65055   0.328  44.926  12.511
94456W        W65056   2.251  21.131  10.501
94457W        W65057  34.885  38.895  10.695
94458W        W65058   5.482  25.323  14.888
94459W        W65059  34.386  42.840   1.370
94460W        W65060  38.301   4.465  13.818
94461W        W65061   8.086  33.922   3.305
94462W        W65062  31.396  42.966  10.871
94463W        W65063  19.176  21.304  13.602
94464W        W65064  39.292  37.850  14.949
94465W        W65065   8.954  32.411   2.395
94466W        W65066  18.955   4.958   1.737
94467W        W65067  28.151  22.304  13.184
94468W        W65068   7.849   8.120   3.326
94469W        W65069  18.822  40.292  11.093
94470W        W65070   9.112  31.858  12.030
94471W        W65071  27.436   5.553  11.201
94472W        W65072  41.693  39.045   2.832
94473W        W65073   1.968  44.342   4.525
94474W        W65074  14.756  44.921   3.090
94475W        W65075  41.371  28.305  11.411
94476W        W65076  42.890  26.656  12.778
94477W        W65077   9.440  24.192   4.556
94478W        W65078  12.630  39.265   4.344
94479W        W65079  14.711  11.258  14.084
94480W        W65080  43.635  37.131   2.408
94481W        W65081  39.480  17.215   3.391
94482W        W65082   3.963   7.060   0.283
94483W        W65083  13.688  24.015  13.881
94484W        W65084  21.795  29.983  12.968
94485W        W65085  26.494  17.744   3.305
94486W        W65086  30.828  23.168   2.599
94487W        W65087  19.637  22.140  10.917
94488W        W65088   5.352  16.686  14.475
94489W        W65089  17.557  17.606  14.072
94490W        W65090   1.279  36.948   1.497
94491W        W65091  16.976  44.041  13.440
94492W        W65092   4.338  36.864   2.230
94493W        W65093   8.692  29.595  12.839
94494W        W65094  37.457   3.764  13.490
94495W        W65095   9.158  41.333  11.415
94496W        W65096  11.457  10.214   5.095
94497W        W65097   3.436  12.957  13.806
94498W        W65098  39.283  25.995  11.082
94499W        W65099   2.497  32.037  11.060
94500W        W65100   2.403  34.963   1.899
94501W        W65101  17.575  17.105   4.230
94502W        W65102  27.925  22.130   1.937
94503W        W65103   0.540   9.065  11.101
94504W        W65104  44.846  33.749   2.830
94505W        W65105  16.822  22.926  13.361
94506W        W65106   6.181   0.295  13.542
94507W        W65107  36.982  25.519   1.925
94508W        W65108  22.350   4.773   2.309
94509W        W65109  30.204   3.938  13.842
94510W        W65110  36.073  24.610  11.955
94511W        W65111  26.858  30.635   1.802
94512W        W65112   6.253  12.784   0.470
94513W        W65113  37.149  38.021   3.540
94514W        W65114   2.450  22.617   4.229
94515W        W65115   8.740  23.160   2.211
94516W        W65116   4.352  36.139   4.031
94517W        W65117  11.984  36.800   4.697
94518W        W65118  33.998  33.895  12.859
94519W        W65119  23.237   6.129   2.388
94520W        W65120  12.193  12.160   1.486
94521W        W65121   1.373  34.392   4.271
94522W        W65122  38.116   2.998   1.743
94523W        W65123   8.098  12.034  14.689
94524W        W65124   4.902  22.464  10.438
94525W        W65125  29.805  30.887  12.831
94526W        W65126  14.853  35.403  10.270
94527W        W65127  17.214  12.230   4.757
94528W        W65128  16.649  21.949  10.656
94529W        W65129   9.888  35.890  12.622
94530W        W65130  44.573   2.300  14.621
94531W        W65131  44.280  32.981   1.935
94532W        W65132  36.115  17.849  12.434
94533W        W65133  29.728   0.526   4.257
94534W        W65134  35.602  12.737   0.464
94535W        W65135  23.209  11.710   2.557
94536W        W65136  20.667  32.741   1.297
94537W        W65137  28.948  21.958   0.429
94538W        W65138  37.874  24.730   2.229
94539W        W65139  37.085  19.229  12.842
94540W        W65140   2.396  39.073  12.446
94541W        W65141   3.912  23.644   4.980
94542W        W65142  16.304  33.222   3.696
94543W        W65143  30.675  28.729   0.464
94544W        W65144   3.003  38.339  11.062
94545W        W65145  11.070   5.980  13.449
94546W        W65146  33.128  15.132  14.908
94547W        W65147  12.283   5.323   4.070
94548W        W65148  42.864  17.581  14.018
94549W        W65149  17.238  40.073   2.927
94550W        W65150  11.114  33.838  13.065
94551W        W65151   5.730  26.394  13.816
94552W        W65152  13.635  38.467   0.893
94553W        W65153  13.779  26.643  12.629
94554W        W65154  37.441  27.090  12.195
94555W        W65155  44.291   3.891   1.344
94556W        W65156  39.448  26.021  14.518
94557W        W65157  43.777  15.212   1.292
94558W        W65158   7.378  27.551  11.230
94559W        W65159  16.763  26.618  12.378
94560W        W65160  19.608  33.016   4.650
94561W        W65161  22.520  42.693   5.077
94562W        W65162  27.131  42.604   0.811
94563W        W65163  30.370  14.785   4.082
94564W        W65164  31.748   1.459   4.557
94565W        W65165   7.649  27.473  14.969
94566W        W65166  24.804  27.431  11.156
94567W        W65167   2.383  14.008   2.638
94568W        W65168  44.042   7.955  14.031
94569W        W65169   7.292  38.805  10.790
94570W        W65170   4.636  23.089  12.505
94571W        W65171  19.106   6.341  14.958
94572W        W65172  26.641  39.934   3.359
94573W        W65173  28.904  20.272  13.166
94574W        W65174  11.370  21.181   1.730
94575W        W65175   0.552   9.079   0.160
94576W        W65176   1.355   4.175  14.405
94577W        W65177  36.293  31.377   3.248
94578W        W65178  42.722  38.165  11.445
94579W        W65179  20.038  32.421   2.366
94580W        W65180  10.779  38.975   2.312
94581W        W65181   6.916  27.890   1.799
94582W        W65182  34.531  13.326   0.009
94583W        W65183  28.052  36.922   3.584
94584W        W65184  13.639   9.153   1.008
94585W        W65185  43.254  43.589  13.038
94586W        W65186   0.256   6.554  11.566
94587W        W65187   4.627  24.012   4.623
94588W        W65188  22.331   6.828   4.240
94589W        W65189  22.155  44.350   2.313
94590W        W65190   5.909   9.878   1.817
94591W        W65191  31.689  32.141   3.825
94592W        W65192  40.594  25.304   3.596
94593W        W65193   7.385  13.890   3.166
94594W        W65194   6.389   7.322  10.451
94595W        W65195  15.541  32.920  14.111
94596W        W65196   6.913  32.685  13.317
94597W        W65197  27.892  28.962   3.241
94598W        W65198  24.575  43.871  13.520
94599W        W65199  44.938   5.775   1.075
94600W        W65200  39.927  25.407  10.754
94601W        W65201  12.803   9.703   0.347
94602W        W65202  12.280   4.007   2.173
94603W        W65203  37.915  34.861  14.475
94604W        W65204   2.359  21.200  12.025
94605W        W65205  43.280  43.930  12.588
94606W        W65206  27.426   7.979   0.521
94607W        W65207  33.972  37.325   2.682
94608W        W65208   7.770  26.279  10.598
94609W        W65209  38.401  22.225  11.644
94610W        W65210  43.583  34.633  13.545
94611W        W65211  23.108   5.294   1.966
94612W        W65212  22.492  16.756   3.566
94613W        W65213  35.490   1.352   2.322
94614W        W65214   8.273  31.125  11.971
94615W        W65215  30.478  30.363   0.959
94616W        W65216   2.935  31.949   2.141
94617W        W65217  36.702   4.146   0.851
94618W        W65218   4.637   4.848   0.077
94619W        W65219  11.557  30.157  14.251
94620W        W65220   3.730  18.971  11.841
94621W        W65221  40.222   7.088  13.882
94622W        W65222   6.741  32.058  11.488
94623W        W65223  43.473  15.467   2.455
94624W        W65224  15.721   2.073   3.945
94625W        W65225   3.543  35.412  10.771
94626W        W65226  23.203  10.642  11.209
94627W        W65227  22.891   3.374   3.268
94628W        W65228  29.729  33.540   0.321
94629W        W65229  44.316  19.314   2.965
94630W        W65230   4.229  39.276   2.800
94631W        W65231  44.049  12.663   2.813
94632W        W65232   9.808   1.578   1.246
94633W        W65233   2.934   5.876  14.455
94634W        W65234  23.095  11.117   1.229
94635W        W65235   3.426  20.720  10.821
94636W        W65236  44.502  43.123  11.026
94637W        W65237  10.146  23.650  14.451
94638W        W65238   3.291  31.627   3.635
94639W        W65239   0.264  39.969  12.524
94640W        W65240  41.350   7.726   0.413
94641W        W65241  12.792  11.560   1.441
94642W        W65242  12.950  12.564   2.814
94643W        W65243  22.626  19.198   1.923
94644W        W65244  30.371  16.186   1.871
94645W        W65245   0.620  36.312  14.905
94646W        W65246   9.862   6.330  13.766
94647W        W65247  13.774  21.207  12.646
94648W        W65248  36.955  33.970  12.941
94649W        W65249  24.017  42.981   3.279
94650W        W65250  32.588   4.082   0.980
94651W        W65251  39.189  22.782  13.399
94652W        W65252  19.226  24.976   5.150
94653W        W65253  25.426   3.028   4.084
94654W        W65254  27.982   1.806   4.584
94655W        W65255  17.270   8.875   1.577
94656W        W65256  40.466  22.511  11.923
94657W        W65257  25.687  43.089   1.259
94658W        W65258   9.119  43.729  14.109
94659W        W65259  12.240  19.788   3.329
94660W        W65260  29.168  28.394   2.796
94661W        W65261   6.628  13.462   0.437
94662W        W65262   0.810  33.661   4.083
94663W        W65263  23.973  38.098  13.471
94664W        W65264  38.375  17.728   1.940
94665W        W65265  10.390  21.509  12.997
94666W        W65266  25.499   8.278  12.031
94667W        W65267  35.510   5.498   3.125
94668W        W65268  26.342  22.093  14.398
94669W        W65269  41.093  42.464  10.318
94670W        W65270  34.067  21.078   4.692
94671W        W65271  18.135  34.973   2.365
94672W        W65272  12.240  15.906   1.885
94673W        W65273  15.340  13.738  13.637
94674W        W65274  17.699  38.028   3.272
94675W        W65275  30.316  15.344  10.072
94676W        W65276  12.112  43.227   2.642
94677W        W65277   8.143   5.128   4.414
94678W        W65278   3.163  20.282   4.556
94679W        W65279  42.317  17.628  13.359
94680W        W65280  41.807  12.668  14.856
94681W        W65281  32.688  12.584   4.136
94682W        W65282   5.377  15.515   0.312
94683W        W65283  22.998   4.477   3.758
94684W        W65284  30.439  12.889  13.916
94685W        W65285  27.721  43.087   4.206
94686W        W65286  24.581  39.457  11.176
94687W        W65287   7.921  26.901   4.632
94688W        W65288  24.194   4.484   3.205
94689W        W65289  27.888  21.072   3.606
94690W        W65290  27.083  29.287  13.501
94691W        W65291  34.001  12.746  14.312
94692W        W65292  27.240  43.224  14.787
94693W        W65293  40.749  43.502   3.515
94694W        W65294  37.814  16.159   4.559
94695W        W65295   3.005  13.749   4.086
94696W        W65296  42.706   2.072   4.572
94697W        W65297  25.611  12.004   0.577
94698W        W65298  20.801  39.008   0.268
94699W        W65299   4.477  13.371  12.736
94700W        W65300  38.299  26.817  14.393
94701W        W65301  31.064  24.742  11.912
94702W        W65302  37.394  11.728  12.069
94703W        W65303  16.013  27.761   1.521
94704W        W65304  18.919  23.553   0.306
94705W        W65305  22.236   4.722   4.315
94706W        W65306  12.630  32.010   2.787
94707W        W65307  14.721  23.151  12.178
94708W        W65308  26.630  37.159   0.149
94709W        W65309  32.060  30.700   4.467
94710W        W65310  25.922  14.300   1.816
94711W        W65311   6.636  44.825   1.642
94712W        W65312  40.863  42.989   0.862
94713W        W65313  41.960  42.676   1.302
94714W        W65314  40.821  31.125  13.499
94715W        W65315  27.105  11.553  10.275
94716W        W65316   6.092  34.155  14.281
94717W        W65317   6.522  13.620  11.076
94718W        W65318  24.781  19.183   4.263
94719W        W65319  21.120  16.470   1.029
94720W        W65320  20.999  37.544  11.693
94721W        W65321  29.152  31.084   2.261
94722W        W65322   2.389  24.212   2.351
94723W        W65323  29.567  20.598   2.415
94724W        W65324  11.627  36.851   1.373
94725W        W65325  30.499  35.456   0.917
94726W        W65326  25.337  24.075  11.549
94727W        W65327  17.197  18.807  14.491
94728W        W65328   4.446   3.776   1.874
94729W        W65329  13.931  40.418  13.823
94730W        W65330  19.394  26.399  12.376
94731W        W65331  16.075  29.906   0.569
94732W        W65332  15.791  22.075  12.812
94733W        W65333   3.973  25.857   0.391
94734W        W65334   2.746  19.800   2.155
94735W        W65335  33.401  18.732  14.261
94736W        W65336   0.567   5.343   4.584
94737W        W65337  37.025  34.591   1.986
94738W        W65338  39.815   9.139   3.605
94739W        W65339  31.550   0.383  14.563
94740W        W65340  30.072  37.294   0.431
94741W        W65341  14.824  25.916   0.310
94742W        W65342  22.088  18.745   0.383
94743W        W65343   5.370  13.326  12.222
94744W        W65344  15.612  21.190   2.201
94745W        W65345   5.843  40.483   3.767
94746W        W65346  38.133  31.708  14.310
94747W        W65347  29.255   1.701   1.913
94748W        W65348   8.265  27.470   4.070
94749W        W65349  40.821  16.150  13.025
94750W        W65350  22.182   6.148  14.374
94751W        W65351   8.627  26.474  14.611
94752W        W65352  20.145  13.120   0.941
94753W        W65353  15.809  23.937  13.464
94754W        W65354  38.520   9.109   1.342
94755W        W65355  25.802  13.858   3.364
94756W        W65356  14.910  29.498  12.618
94757W        W65357  40.103   6.853   0.010
94758W        W65358  22.258  26.566   5.099
94759W        W65359  40.271   3.881   0.810
94760W        W65360  27.649  37.077   4.469
94761W        W65361  25.800   4.726  11.664
94762W        W65362   8.605  21.586   1.289
94763W        W65363  24.581  20.659  13.889
94764W        W65364  32.097   0.004   3.520
94765W        W65365  39.353  36.119  13.404
94766W        W65366   4.688  19.527  11.145
94767W        W65367   6.370  36.574  11.985
94768W        W65368  35.010   3.396  11.727
94769W        W65369  37.749  19.342  12.829
94770W        W65370  30.316  38.973  10.256
94771W        W65371   5.425   8.122   1.509
94772W        W65372   2.303  28.075  11.422
94773W        W65373  25.550   8.635  10.577
94774W        W65374  27.047  30.586  13.707
94775W        W65375   3.409  16.829  14.480
94776W        W65376  11.634   1.722  11.016
94777W        W65377   6.435  20.846  14.427
94778W        W65378   9.870  24.067   2.195
94779W        W65379  35.847   9.746  12.642
94780W        W65380   9.120  10.768   1.960
94781W        W65381  42.268  26.487   3.647
94782W        W65382   2.812   4.409  12.472
94783W        W65383  14.798  32.179   0.807
94784W        W65384  27.986  19.852   2.397
94785W        W65385  12.440  12.228   1.943
94786W        W65386  36.003   5.738  12.357
94787W        W65387  40.974  38.733   1.595
94788W        W65388  43.594  20.138   1.336
94789W        W65389  31.186   9.731   2.409
94790W        W65390  25.067  13.490   4.375
94791W        W65391  29.726  44.442   2.220
94792W        W65392  37.898   0.854  14.358
94793W        W65393  10.714  41.746  12.733
94794W        W65394  15.905  22.487   5.201
94795W        W65395  10.930  43.633   1.394
94796W        W65396   6.334   4.003  11.981
94797W        W65397  38.551  40.140   1.608
94798W        W65398   8.175  32.063   1.854
94799W        W65399   9.674  29.954   4.841
94800W        W65400  16.789  33.297  11.453
94801W        W65401  28.852  18.877  14.345
94802W        W65402  17.635   1.239  14.043
94803W        W65403  23.687  24.425   1.848
94804W        W65404  30.744   6.099   1.741
94805W        W65405  32.114  18.173   1.090
94806W        W65406  10.243  42.429   1.889
94807W        W65407  41.997  40.813   2.325
94808W        W65408   5.907  22.470   4.293
94809W        W65409   2.054  42.070   2.484
94810W        W65410  36.243  24.806   4.104
94811W        W65411  25.794   7.319   2.859
94812W        W65412  39.438  11.257   0.349
94813W        W65413  23.134  28.425   1.660
94814W        W65414  41.821  10.585  11.584
94815W        W65415  23.824   5.556   1.732
94816W        W65416  32.550  21.096   0.904
94817W        W65417   8.194  28.217  10.611
94818W        W65418  19.534   9.405   3.796
94819W        W65419  41.120  26.156  10.492
94820W        W65420  17.092  37.868   0.922
94821W        W65421  31.784  18.290  12.506
94822W        W65422  42.123  26.095  10.574
94823W        W65423  22.525   4.301  10.815
94824W        W65424  44.338  30.180  12.902
94825W        W65425  44.959  32.616  11.501
94826W        W65426  36.901   6.203   3.551
94827W        W65427  22.984  34.958  12.531
94828W        W65428   8.281  17.161  11.639
94829W        W65429  30.444   5.922  13.023
94830W        W65430  40.013   7.809  12.835
94831W        W65431  41.773  34.227  11.410
94832W        W65432  11.273  12.656   3.588
94833W        W65433  27.902   4.035  13.539
94834W        W65434   2.630  22.129  12.100
94835W        W65435  20.643  42.381   0.876
94836W        W65436  35.476   6.934   0.588
94837W        W65437   3.411  23.011   0.470
94838W        W65438  39.593   9.190  12.941
94839W        W65439  38.267  11.801  12.374
94840W        W65440   5.680  14.660   1.455
94841W        W65441  15.517  31.459  10.993
94842W        W65442   2.665  22.522   0.529
94843W        W65443  27.976  43.031  12.649
94844W        W65444  19.662  10.628   3.265
94845W        W65445  42.397  32.128   2.381
94846W        W65446  44.159  39.332   5.236
94847W        W65447  35.874  25.118   2.387
94848W        W65448  28.233   4.900  10.257
94849W        W65449  41.637  31.907  11.589
94850W        W65450   6.399  27.463  11.977
94851W        W65451  33.367  29.691   0.144
94852W        W65452  17.444  34.156  12.274
94853W        W65453  16.136  29.977  13.515
94854W        W65454  40.304  39.095  14.508
94855W        W65455   2.273   0.921   3.359
94856W        W65456   2.370   0.263   2.689
94857W        W65457  24.040  40.633   0.558
94858W        W65458  40.005  17.250  13.777
94859W        W65459  37.516   6.888  11.623
94860W        W65460  43.477  29.252   3.243
94861W        W65461   3.916   3.676   4.589
94862W        W65462  10.377  25.301  12.082
94863W        W65463  44.107  36.459   4.537
94864W        W65464   7.165   6.317   3.735
94865W        W65465  18.176  26.145   3.693
94866W        W65466  17.727   9.754  10.725
94867W        W65467  33.012  19.898   1.537
94868W        W65468  29.015   0.496  11.338
94869W        W65469  17.209  32.100   3.595
94870W        W65470  21.740  26.443   1.798
94871W        W65471  24.462  11.857  11.906
94872W        W65472  41.439  35.005   3.699
94873W        W65473  40.209  28.635  13.417
94874W        W65474  38.650  40.788  13.682
94875W        W65475  19.498  15.568  14.561
94876W        W65476  19.647   4.709   3.524
94877W        W65477  28.225  38.016   1.012
94878W        W65478   4.306   0.817   4.320
94879W        W65479  10.137  41.285  12.145
94880W        W65480  37.295   5.550  10.925
94881W        W65481  15.113  27.396  12.911
94882W        W65482  14.987  21.042  13.625
94883W        W65483  44.954  23.757  11.504
94884W        W65484   0.281   4.357  11.074
94885W        W65485  34.366  38.297  10.422
94886W        W65486  30.523  17.061  14.384
94887W        W65487  44.508  28.261  12.050
94888W        W65488  43.194  23.808  12.274
94889W        W65489  18.905  40.474  14.861
94890W        W65490  24.672  10.807   0.941
94891W        W65491   1.870  26.173  10.700
94892W        W65492  26.592  42.923   4.689
94893W        W65493   4.605  26.317  12.067
94894W        W65494  20.053  42.941   3.175
94895W        W65495  16.196  10.172   2.715
94896W        W65496  36.764  44.986   0.473
94897W        W65497  20.751  35.463   3.601
94898W        W65498  12.131  10.310  12.445
94899W        W65499   0.058  10.582  13.004
94900W        W65500  11.891   6.443   4.430
94901W        W65501  11.898   4.653   0.024
94902W        W65502  11.858  26.784  12.454
94903W        W65503  18.873  43.041  12.990
94904W        W65504   7.094   7.762  14.116
94905W        W65505  37.002  42.567   3.572
94906W        W65506   6.827   6.662   3.929
94907W        W65507  12.356  24.094   1.883
94908W        W65508   0.466  43.444   2.335
94909W        W65509  38.738   9.274   4.760
94910W        W65510  39.737  41.009  11.685
94911W        W65511  25.913  16.874   2.403
94912W        W65512  18.387  31.019  13.029
94913W        W65513  37.840  29.018   0.008
94914W        W65514  35.155  36.073  10.903
94915W        W65515  20.257  12.603   0.986
94916W        W65516  33.549  30.448   1.399
94917W        W65517   3.740   1.029   1.697
94918W        W65518   4.445  10.693   4.459
94919W        W65519  39.549  28.349  14.994
94920W        W65520  23.793   2.965  12.845
94921W        W65521   7.267  15.169   0.488
94922W        W65522   2.611   1.874   1.358
94923W        W65523  32.609  10.617  12.139
94924W        W65524  44.231  18.767   2.933
94925W        W65525  38.389  15.247   2.557
94926W        W65526   9.650   5.874  10.798
94927W        W65527   5.455  33.578   1.384
94928W        W65528  34.087  22.231   1.823
94929W        W65529  19.225  11.330  13.120
94930W        W65530  10.780  17.123  14.772
94931W        W65531  15.675  30.459   3.726
94932W        W65532  29.289  38.040   2.272
94933W        W65533  21.381  22.788   3.827
94934W        W65534  37.413  17.718  14.899
94935W        W65535  23.490  37.040   0.833
94936W        W65536  26.449  27.955   3.711
94937W        W65537  14.296  14.767   0.871
94938W        W65538   3.653  14.266  10.463
94939W        W65539  30.951   2.229   3.444
94940W        W65540   0.397  34.087  14.413
94941W        W65541   3.164  36.896   0.363
94942W        W65542  32.018  22.683   3.213
94943W        W65543  42.311  42.779   0.922
94944W        W65544   0.409   2.756  11.679
94945W        W65545  16.051   0.731   1.717
94946W        W65546   2.930  14.056  13.469
94947W        W65547   4.299  29.878  12.807
94948W        W65548  27.941  29.433   1.994
94949W        W65549  34.826  26.578   3.328
94950W        W65550  11.202  18.616   2.274
94951W        W65551   6.284  14.133   2.792
94952W        W65552  22.361  38.295  12.906
94953W        W65553  25.246  15.159   3.817
94954W        W65554  12.570  24.172  13.928
94955W        W65555  41.822   7.924   4.506
94956W        W65556  10.240  40.032  13.454
94957W        W65557  22.690   4.865   4.572
94958W        W65558  42.008  43.071  12.644
94959W        W65559  42.182  29.483   3.640
94960W        W65560  19.108  36.159   3.382
94961W        W65561  39.551  39.295  11.895
94962W        W65562   6.277   5.205  10.581
94963W        W65563   8.814  13.768   4.410
94964W        W65564  37.873   3.197   3.141
94965W        W65565  28.055  11.495   0.539
94966W        W65566  15.822  33.549  12.973
94967W        W65567   7.853  18.460   2.753
94968W        W65568  40.726   1.471  11.557
94969W        W65569  26.259   5.683   1.681
94970W        W65570  12.757  39.148  13.852
94971W        W65571  28.839  18.614   2.189
94972W        W65572   2.631   2.456   0.682
94973W        W65573  36.546   2.173  11.290
94974W        W65574   2.320  29.906   2.691
94975W        W65575  42.486  33.649   4.686
94976W        W65576   8.732  37.316   1.431
94977W        W65577  42.942  27.830   4.786
94978W        W65578  40.137  21.110  14.532
94979W        W65579  34.996  27.618   1.315
94980W        W65580  43.708  42.226  12.991
94981W        W65581  25.214   4.808   1.272
94982W        W65582  42.766  32.927  13.062
94983W        W65583  11.169  38.970  11.291
94984W        W65584  38.512  29.361   2.634
94985W        W65585   5.998  10.108   0.377
94986W        W65586  34.584  44.859  11.470
94987W        W65587   1.385  33.648  14.386
94988W        W65588  30.549  36.835   1.910
94989W        W65589  14.627  10.846   3.253
94990W        W65590  39.547  39.123  14.077
94991W        W65591  36.520   4.827  11.202
94992W        W65592   7.242  28.521  14.250
94993W        W65593  13.598  29.595   2.418
94994W        W65594  31.131  44.755  14.056
94995W        W65595  38.590  13.493   3.303
94996W        W65596  41.950  32.106   3.612
94997W        W65597  18.287  34.574  12.939
94998W        W65598  34.124  33.973   0.698
94999W        W65599  36.013   0.813  11.209
95000W        W65600   7.846  31.290  13.752
95001W        W65601  28.335   7.682  10.972
95002W        W65602  14.371  10.610   1.381
95003W        W65603  22.547   8.750   0.287
95004W        W65604  14.889   6.581  14.249
95005W        W65605  28.105  31.423  11.149
95006W        W65606  32.404  26.662  14.829
95007W        W65607  21.049  35.407   0.924
95008W        W65608   5.481  33.588   2.264
95009W        W65609   3.799  26.710  10.624
95010W        W65610  44.326   8.118   4.026
95011W        W65611   5.115   2.911   4.960
95012W        W65612  33.525   4.874  10.467
95013W        W65613  21.160  37.914   2.304
95014W        W65614  29.531  23.598  14.718
95015W        W65615  18.296  28.911   0.895
95016W        W65616  41.863   8.682  12.884
95017W        W65617   8.421  17.306   3.992
95018W        W65618  13.740  11.149   0.065
95019W        W65619  32.032   0.452   4.475
95020W        W65620   8.856  44.249   4.119
95021W        W65621   6.842  21.553  13.812
95022W        W65622  22.780   9.375   5.008
95023W        W65623  37.772  37.026   2.858
95024W        W65624  37.822   3.851   1.383
95025W        W65625   0.688  16.791  11.622
95026W        W65626  42.123  32.585  13.294
95027W        W65627  38.605  34.497  13.893
95028W        W65628  43.561  44.977   1.348
95029W        W65629  21.156  41.487  13.603
95030W        W65630   5.004  31.509  11.858
95031W        W65631  20.619  27.657   2.754
95032W        W65632  15.837  27.315  10.825
95033W        W65633  15.735   9.822   3.645
95034W        W65634  32.919  41.910   1.685
95035W        W65635  21.117  35.421   1.888
95036W        W65636  42.697   6.391  12.515
95037W        W65637  30.287  43.305   2.278
95038W        W65638  11.268  37.089  11.460
95039W        W65639  26.368  32.135  14.269
95040W        W65640  24.458  11.591   1.333
95041W        W65641  12.593  40.803   3.782
95042W        W65642  43.477  33.530   0.340
95043W        W65643  22.480  23.738   5.169
95044W        W65644  22.453  17.685  14.102
95045W        W65645  28.732  36.406   2.656
95046W        W65646   6.413  44.181  12.052
95047W        W65647  25.066  11.820   5.082
95048W        W65648  21.044   5.407  14.428
95049W        W65649  18.625  19.671   9.723
95050W        W65650   2.726   0.052  13.868
95051W        W65651   4.303  41.836  13.924
95052W        W65652  11.835  19.931   0.366
95053W        W65653   2.434   2.991  10.505
95054W        W65654   4.675  36.989   1.766
95055W        W65655  13.300  18.130   3.304
95056W        W65656  14.347  10.678   2.853
95057W        W65657   1.918  40.991   0.007
95058W        W65658   2.871  29.562   2.780
95059W        W65659  21.311  24.958   3.663
95060W        W65660   6.851  43.022   2.777
95061W        W65661  33.438  31.645   1.327
95062W        W65662  33.434  38.295  11.944
95063W        W65663   9.880   9.855  14.624
95064W        W65664  44.827  10.980   1.223
95065W        W65665  42.333  30.626  14.899
95066W        W65666   3.658   3.327  14.796
95067W        W65667  39.349  35.596  13.467
95068W        W65668   7.363  27.541   4.117
95069W        W65669  36.342  14.391   0.772
95070W        W65670  37.964  12.575   2.868
95071W        W65671  34.652  42.505   3.318
95072W        W65672  39.773  23.818   3.893
95073W        W65673  34.530   6.558   2.523
95074W        W65674  30.681  31.093   0.177
95075W        W65675   8.320   6.786  12.041
95076W        W65676  10.635   7.400  14.308
95077W        W65677  26.518  39.053  12.014
95078W        W65678   0.100  14.389  14.010
95079W        W65679  20.488  10.088   2.329
95080W        W65680  32.767  30.016  13.553
95081W        W65681  29.131  37.068   4.822
95082W        W65682  10.085  28.220  11.328
95083W        W65683  28.640  20.573   0.390
95084W        W65684  36.162  23.499   0.692
95085W        W65685  31.950  27.496   0.885
95086W        W65686  11.579  16.810   0.893
95087W        W65687  35.563  42.980  11.071
95088W        W65688  24.401   2.754  11.150
95089W        W65689  21.427   4.340  13.843
95090W        W65690   3.349   1.276  13.057
95091W        W65691  28.246  33.441   4.594
95092W        W65692  16.693  12.913  13.575
95093W        W65693  35.133  30.056  12.023
95094W        W65694  15.371  11.250   4.283
95095W        W65695  24.707  39.527   4.624
95096W        W65696  38.112   2.372  13.930
95097W        W65697  44.549  23.467  14.949
95098W        W65698  38.578   4.710  13.447
95099W        W65699  23.032  34.969  11.562
95100W        W65700  25.964  21.842  10.591
95101W        W65701  17.372  27.687   4.340
95102W        W65702   0.804  36.241  13.400
95103W        W65703  27.096   0.915  14.873
95104W        W65704  32.594  37.289  11.160
95105W        W65705  10.690  44.914   1.709
95106W        W65706  33.499  11.576  12.168
95107W        W65707   0.816  38.357  14.730
95108W        W65708   3.172  20.738  12.643
95109W        W65709  16.409  11.112   4.066
95110W        W65710  32.078  21.734   0.781
95111W        W65711   1.699  29.930  12.547
95112W        W65712  30.647   0.671  10.376
95113W        W65713   5.324  33.371  11.383
95114W        W65714   4.721   7.678  11.567
95115W        W65715  27.732  37.841   3.231
95116W        W65716  13.272  16.812   1.954
95117W        W65717  10.794  16.577   2.269
95118W        W65718   1.822  43.935  14.434
95119W        W65719  22.125  11.129   4.111
95120W        W65720   3.404   9.398  14.071
95121W        W65721  43.369   0.175   0.910
95122W        W65722  35.160  23.533   4.579
95123W        W65723  30.458  17.169   4.614
95124W        W65724  24.745  11.434  13.200
95125W        W65725  36.608  34.872   4.195
95126W        W65726  25.060  19.621  10.634
95127W        W65727  34.887  32.152  13.971
95128W        W65728   7.738  21.208   0.482
95129W        W65729   3.423   8.277   3.701
95130W        W65730  29.483  21.408   9.877
95131W        W65731  16.059  39.159  13.341
95132W        W65732   7.696  43.342   4.352
95133W        W65733   1.188   8.737   1.608
95134W        W65734  12.719  37.960   1.616
95135W        W65735  17.193  34.550   3.639
95136W        W65736  23.052  40.083  14.347
95137W        W65737   0.344  17.011  14.900
95138W        W65738  14.382  17.846  12.879
95139W        W65739   0.441  18.039  11.141
95140W        W65740   2.438   9.415  14.877
95141W        W65741  13.268  41.650   3.167
95142W        W65742   5.923  29.339   1.420
95143W        W65743  15.284  14.936   2.961
95144W        W65744  14.563  16.538  11.611
95145W        W65745   3.687  22.788   1.952
95146W        W65746  17.554  11.618   0.487
95147W        W65747  41.870  39.455   3.718
95148W        W65748  38.974  44.920   3.118
95149W        W65749   1.867  36.950   2.300
95150W        W65750  17.084  33.171  11.881
95151W        W65751  23.746  17.596  14.471
95152W        W65752  10.601  31.548  14.225
95153W        W65753  44.724  17.877  14.317
95154W        W65754  43.429  17.703   2.921
95155W        W65755  39.860  20.720  10.749
95156W        W65756  19.805  21.781   2.349
95157W        W65757  41.379  19.322   3.652
95158W        W65758  43.202   9.090   2.790
95159W        W65759   9.055  38.658  13.734
95160W        W65760  10.794  30.164  11.210
95161W        W65761  10.159  30.548   3.616
95162W        W65762   1.026  31.424   3.279
95163W        W65763   7.121  40.311   2.327
95164W        W65764   5.384  36.535  11.197
95165W        W65765   5.342  37.534   1.204
95166W        W65766   9.122  40.916  13.442
95167W        W65767  43.783  22.781  11.769
95168W        W65768  20.345   8.206  14.727
95169W        W65769  13.579   0.158  14.379
95170W        W65770   4.313  37.539   0.001
95171W        W65771  43.854   0.258  14.324
95172W        W65772  15.306   8.110   0.717
95173W        W65773   2.632  33.828   2.337
95174W        W65774  23.680   7.341  11.094
95175W        W65775  34.880  16.085  10.796
95176W        W65776  44.731  16.723   0.766
95177W        W65777  10.870  30.882   0.308
95178W        W65778  15.291   5.329  13.885
95179W        W65779  41.573  21.304  13.952
95180W        W65780   1.538   5.822   4.781
95181W        W65781  27.939  44.704   0.854
95182W        W65782  42.796  11.734   3.539
95183W        W65783  13.029  35.953  10.898
95184W        W65784  32.366   5.752  13.911
95185W        W65785  10.223  16.880  12.000
95186W        W65786  33.983  40.562   1.648
95187W        W65787  12.692  38.696  12.072
95188W        W65788   3.837  29.359  11.158
95189W        W65789  30.431  16.718   2.735
95190W        W65790  27.637   7.445  13.996
95191W        W65791  44.008  17.230  11.180
95192W        W65792  18.045  21.133  12.493
95193W        W65793  17.956  33.427   5.530
95194W        W65794  22.630  23.252  14.419
95195W        W65795   2.400  12.691   4.680
95196W        W65796  44.213  29.103   3.645
95197W        W65797  33.103  15.600  11.904
95198W        W65798  14.286  24.456  10.840
95199W        W65799   5.907   0.147   3.354
95200W        W65800  43.328  24.104  14.170
95201W        W65801  38.719  29.743   2.914
95202W        W65802  28.081   3.204   0.783
95203W        W65803  38.363  30.341  14.423
95204W        W65804  19.205   9.621  13.980
95205W        W65805  13.775  38.061   1.823
95206W        W65806   6.395  12.523  11.612
95207W        W65807  22.843  31.922   3.264
95208W        W65808   3.437  39.961  14.534
95209W        W65809  19.172  14.372   3.437
95210W        W65810  35.638   5.150  14.466
95211W        W65811   6.770  31.400   4.169
95212W        W65812  20.350  27.093   4.800
95213W        W65813   4.422   3.502   3.888
95214W        W65814  35.913  16.101  12.071
95215W        W65815   6.286  42.314  12.146
95216W        W65816  28.903  16.120  13.032
95217W        W65817  19.310  20.761  13.363
95218W        W65818   8.162   9.837  10.638
95219W        W65819  32.997  26.400  10.750
95220W        W65820  29.673  32.567   0.539
95221W        W65821  41.462  29.711   1.612
95222W        W65822  22.544   9.913  12.585
95223W        W65823  12.655  35.836  11.985
95224W        W65824  25.195   4.084   2.305
95225W        W65825   0.913  14.293  14.493
95226W        W65826  16.603  30.161  13.344
95227W        W65827  24.694  13.749  13.335
95228W        W65828  34.587  27.483  12.564
95229W        W65829  16.238  24.252  13.503
95230W        W65830   8.845  10.443   2.724
95231W        W65831  32.282  12.195   4.733
95232W        W65832   8.304   2.428   2.148
95233W        W65833  15.543  21.240  12.869
95234W        W65834  18.268   8.164   2.655
95235W        W65835  16.856   0.001   1.326
95236W        W65836   7.376  39.953  13.147
95237W        W65837  32.355  16.401   1.586
95238W        W65838  33.306  10.865   0.253
95239W        W65839  15.363  22.013  12.523
95240W        W65840  10.606  37.931  11.555
95241W        W65841  21.095  15.278   1.965
95242W        W65842  29.540  41.151   3.637
95243W        W65843  23.853  27.633  10.815
95244W        W65844  40.543  19.098  11.663
95245W        W65845  39.605  37.955   4.058
95246W        W65846  35.929  25.655   3.556
95247W        W65847   7.716  12.292  11.244
95248W        W65848  10.430  37.842   2.149
95249W        W65849  40.764  27.882  11.223
95250W        W65850  24.589  43.449   4.614
95251W        W65851  25.470  33.668   0.260
95252W        W65852  43.707  26.654  11.633
95253W        W65853  14.631  43.065   3.160
95254W        W65854  22.756  34.492  12.526
95255W        W65855   9.783  27.916  12.487
95256W        W65856  20.551  13.224   4.635
95257W        W65857  22.933  38.531  12.151
95258W        W65858  15.858  36.009  13.455
95259W        W65859  38.852  18.904   4.062
95260W        W65860  18.056  31.544   1.134
95261W        W65861  43.802   6.085   5.618
95262W        W65862   4.417  41.104  14.692
95263W        W65863  11.906  17.455  10.790
95264W        W65864  34.852  20.535   2.697
95265W        W65865   1.214  41.809  11.681
95266W        W65866  27.094  23.595   4.058
95267W        W65867  20.592  22.933  10.449
95268W        W65868   1.829  33.112   2.805
95269W        W65869  17.685  25.922  11.671
95270W        W65870  11.265  12.741   0.503
95271W        W65871   8.404  13.177  14.938
95272W        W65872  25.624  22.560   3.651
95273W        W65873  39.958  31.047  13.119
95274W        W65874   0.388  37.040  12.110
95275W        W65875  35.344  37.848  13.092
95276W        W65876  42.182  43.181   4.947
95277W        W65877  41.823  44.087   0.828
95278W        W65878  23.039  17.166   3.670
95279W        W65879  19.694  29.143   3.612
95280W        W65880  31.003  41.600   2.186
95281W        W65881  13.914   4.438   1.704
95282W        W65882   8.768  19.774   2.449
95283W        W65883  42.512  17.391   0.738
95284W        W65884   5.634  22.600   4.698
95285W        W65885  18.682  42.340   0.546
95286W        W65886   2.734  13.620   2.621
95287W        W65887  37.356   1.449  11.492
95288W        W65888  27.789   9.192  13.893
95289W        W65889  21.794  38.347  13.860
95290W        W65890  28.372  25.825  12.803
95291W        W65891  33.483  38.094  13.736
95292W        W65892  18.272  12.643   2.821
95293W        W65893  29.930  14.219  11.502
95294W        W65894  24.092  17.860   4.260
95295W        W65895  40.800  41.193   4.216
95296W        W65896  44.836  36.310  10.490
95297W        W65897  23.213  36.940  12.949
95298W        W65898   6.897  36.101  14.133
95299W        W65899  31.405  11.241  11.928
95300W        W65900  31.660  41.975   0.331
95301W        W65901  13.100  41.825   2.161
95302W        W65902  43.201  21.195   4.019
95303W        W65903  35.581   1.546  14.994
95304W        W65904   4.484   8.911  11.556
95305W        W65905   7.734  13.210   1.870
95306W        W65906  42.054  14.418   2.543
95307W        W65907  28.078  23.871   0.321
95308W        W65908  28.840  34.424   1.869
95309W        W65909  11.123  33.693   2.391
95310W        W65910   2.520  22.464   3.372
95311W        W65911  16.055   1.615   1.956
95312W        W65912  37.873  22.150   2.410
95313W        W65913  35.637  42.275   4.131
95314W        W65914  23.253   8.525  13.451
95315W        W65915   5.650  32.107  12.490
95316W        W65916  29.408  28.736  11.555
95317W        W65917  12.578   1.995   1.018
95318W        W65918  36.944  15.560   2.347
95319W        W65919   2.277   9.729   4.602
95320W        W65920  33.969  32.727   1.270
95321W        W65921  15.650  37.875   0.452
95322W        W65922  14.138  10.410  14.386
95323W        W65923  32.041  13.369   2.276
95324W        W65924  15.529  14.179  10.702
95325W        W65925   6.495  42.986   4.814
95326W        W65926   9.079  29.638   1.413
95327W        W65927  37.172   4.394   0.948
95328W        W65928   1.346  26.689   2.166
95329W        W65929  19.384  25.807   2.525
95330W        W65930  36.863   4.826   9.928
95331W        W65931  43.243  14.067  13.041
95332W        W65932  41.899  21.798   4.365
95333W        W65933   8.737  32.448  12.463
95334W        W65934  44.366  42.029  14.300
95335W        W65935  19.425  29.707   2.913
95336W        W65936  11.820  42.486   3.177
95337W        W65937  10.653  42.015  13.316
95338W        W65938  21.600  37.963   2.827
95339W        W65939  10.118  30.097   1.840
95340W        W65940  39.917  36.973  13.362
95341W        W65941  13.713  13.069  12.907
95342W        W65942   5.824  43.689  11.494
95343W        W65943  36.355  38.904   1.007
95344W        W65944  38.168   9.851   0.024
95345W        W65945  18.393  21.135  10.694
95346W        W65946  33.469  28.007  11.859
95347W        W65947  10.051  11.135   9.667
95348W        W65948  44.299  31.387  14.520
95349W        W65949   8.296   2.213  11.008
95350W        W65950   0.520  44.868  14.436
95351W        W65951  41.893  26.302   4.938
95352W        W65952  33.891  24.325  11.564
95353W        W65953  27.299  30.918   1.682
95354W        W65954  42.154  19.758   1.829
95355W        W65955  41.915  44.587   1.698
95356W        W65956  40.207  24.088  13.298
95357W        W65957  43.898  32.173   1.789
95358W        W65958  29.981  15.476   0.831
95359W        W65959  25.280  28.091   2.862
95360W        W65960  36.019  10.406  13.022
95361W        W65961  22.061  24.661   2.283
95362W        W65962  28.274  21.264  12.125
95363W        W65963   5.204   3.751  14.256
95364W        W65964   5.447  29.075   2.741
95365W        W65965  42.509  23.545   1.860
95366W        W65966   4.307   4.984   2.797
95367W        W65967  23.265  16.846  13.056
95368W        W65968  11.342  13.279   2.374
95369W        W65969  37.328  29.660  10.482
95370W        W65970   0.964  17.578   3.256
95371W        W65971  43.416  43.438  10.650
95372W        W65972  25.230  27.962  10.630
95373W        W65973  29.473   1.564  10.217
95374W        W65974  26.262  25.806  11.663
95375W        W65975  13.698  11.519  12.888
95376W        W65976  44.501  20.180  10.096
95377W        W65977  27.596   0.943   1.040
95378W        W65978  27.019  32.102  14.869
95379W        W65979  35.132   6.201  14.476
95380W        W65980  24.012  42.845  12.510
95381W        W65981  44.909  16.389  10.917
95382W        W65982   6.659  41.952  10.847
95383W        W65983   2.118  16.042   3.761
95384W        W65984  42.943  26.654   1.473
95385W        W65985   0.985  22.838  14.207
95386W        W65986  21.969  19.807   3.724
95387W        W65987  39.608  24.316   4.026
95388W        W65988   9.453  23.629   0.260
95389W        W65989  32.508   9.366   1.388
95390W        W65990  36.560  11.695   4.122
95391W        W65991  21.123  27.260  11.361
95392W        W65992  16.175  22.392  13.955
95393W        W65993  44.497  15.156  10.828
95394W        W65994  27.182  12.799   3.806
95395W        W65995  27.658  26.624  13.534
95396W        W65996  41.059   7.660   3.870
95397W        W65997  13.456  12.135  14.438
95398W        W65998  28.157  42.718   2.399
95399W        W65999  20.242  26.884  12.516
95400W        W66000  22.534  43.403  11.444
95401W        W66001  20.955  40.524  12.103
95402W        W66002  33.657  33.867  14.785
95403W        W66003  11.081  37.047   4.734
95404W        W66004  15.665  11.376   1.296
95405W        W66005  39.322  34.598   3.210
95406W        W66006  13.173   1.829  10.737
95407W        W66007  24.797  42.902   3.847
95408W        W66008  12.226  39.818  10.893
95409W        W66009  24.786  42.455  13.584
95410W        W66010  44.507  31.674   3.191
95411W        W66011  27.929  24.223   2.807
95412W        W66012  12.410  20.257   0.948
95413W        W66013  31.956  39.903  14.880
95414W        W66014  16.698   2.260   3.651
95415W        W66015   7.692  20.261  10.709
95416W        W66016   1.254  43.887  11.022
95417W        W66017  34.443  24.591  13.827
95418W        W66018  19.153  32.309   4.656
95419W        W66019  15.703  19.714  14.730
95420W        W66020  30.139  16.760   4.463
95421W        W66021  35.132  22.821  10.989
95422W        W66022  21.944  42.826   2.370
95423W        W66023  22.481   5.698   3.169
95424W        W66024  12.648  37.263   1.304
95425W        W66025  12.976   9.105  12.253
95426W        W66026  26.938  22.925  11.154
95427W        W66027   6.464  22.047   3.661
95428W        W66028   8.194  30.610   4.438
95429W        W66029   9.333  40.305   0.825
95430W        W66030  32.184  27.533  13.093
95431W        W66031  36.516  12.676  12.379
95432W        W66032  43.963  13.086   4.252
95433W        W66033  40.101   4.066  11.209
95434W        W66034  33.778   6.366   2.243
95435W        W66035   3.872  18.103  14.874
95436W        W66036  16.331   1.466   3.325
95437W        W66037  43.125  44.703   1.378
95438W        W66038  22.137  34.486   4.527
95439W        W66039  24.706  40.886   1.920
95440W        W66040  37.017  39.446  14.391
95441W        W66041  28.444  30.125   2.923
95442W        W66042  31.329   4.674   0.039
95443W        W66043  43.337  43.321  13.473
95444W        W66044  28.086   8.850  11.823
95445W        W66045  30.151  13.832  12.978
95446W        W66046  22.157  18.554   3.013
95447W        W66047   5.186   3.676  14.902
95448W        W66048  23.708  44.219   1.237
95449W        W66049  38.334  20.139  14.031
95450W        W66050  13.350  33.224  14.304
95451W        W66051  37.559  31.403  11.151
95452W        W66052   1.309  24.167  13.942
95453W        W66053  41.510  30.127  13.938
95454W        W66054  31.018  24.619   0.406
95455W        W66055  11.774  11.146  12.085
95456W        W66056  16.604   7.893  12.937
95457W        W66057  15.089  13.592  11.692
95458W        W66058  42.280  34.393   2.896
95459W        W66059   4.486  19.639  13.818
95460W        W66060  42.753  30.075  14.572
95461W        W66061  12.232  24.107   0.522
95462W        W66062  14.788  31.160  13.738
95463W        W66063  21.713  10.313   2.578
95464W        W66064  30.838   4.766  12.629
95465W        W66065  42.452  18.732  12.816
95466W        W66066   1.434   1.200  11.029
95467W        W66067  43.233  40.508   0.846
95468W        W66068  10.293  30.183  10.047
95469W        W66069  15.571  28.251   4.634
95470W        W66070  28.940  14.515   1.445
95471W        W66071  38.503  22.720  10.700
95472W        W66072  17.212  23.462  11.163
95473W        W66073  28.089   8.824   3.843
95474W        W66074  15.894  33.869   2.821
95475W        W66075  25.474  38.100   3.896
95476W        W66076  31.489  27.685   1.867
95477W        W66077  37.745  41.021   0.262
95478W        W66078  23.704  22.830  14.278
95479W        W66079  16.080  12.049   3.166
95480W        W66080  31.174  22.760   1.180
95481W        W66081   5.979  28.115  11.638
95482W        W66082  36.509  14.593  11.018
95483W        W66083  28.050   4.988   2.226
95484W        W66084  24.591   2.828   4.944
95485W        W66085  32.333   6.630  14.338
95486W        W66086  39.556  15.368   4.509
95487W        W66087  11.810  44.278   4.566
95488W        W66088  30.943   3.879  12.438
95489W        W66089   4.447  32.545   2.450
95490W        W66090  38.938   5.417  13.064
95491W        W66091  42.594  20.779  11.162
95492W        W66092  35.944   9.895  13.132
95493W        W66093  36.285  43.790   3.950
95494W        W66094  25.564  31.422   4.581
95495W        W66095  33.245  30.214   3.825
95496W        W66096  43.851   1.406  12.970
95497W        W66097  15.625  23.131   4.183
95498W        W66098  36.119  17.543  12.044
95499W        W66099  30.310  31.706   2.879
95500W        W66100  13.137   8.220  11.915
95501W        W66101  22.100  25.562   0.097
95502W        W66102  18.269  17.540   3.958
95503W        W66103  42.110   7.696  14.983
95504W        W66104  41.092  28.554  13.844
95505W        W66105  23.993  21.480   0.966
95506W        W66106   6.190  34.004   3.671
95507W        W66107   1.431  29.143   0.954
95508W        W66108   5.717  19.318   0.231
95509W        W66109   4.191  11.335   4.879
95510W        W66110   4.731  37.124   2.463
95511W        W66111   9.389  15.625   0.525
95512W        W66112  43.245  40.914  11.663
95513W        W66113  22.265  40.712  10.756
95514W        W66114  36.348  33.769   2.195
95515W        W66115  38.360  42.102   2.807
95516W        W66116   4.005  41.478  10.463
95517W        W66117  43.326  23.012   4.785
95518W        W66118  19.661   3.262  11.079
95519W        W66119   5.299  30.083   2.839
95520W        W66120  37.435  13.129  14.500
95521W        W66121  35.848  37.689   3.319
95522W        W66122   7.372   9.181  13.907
95523W        W66123   4.913  26.960  10.989
95524W        W66124   0.567  29.413   2.827
95525W        W66125  13.297   8.895  14.394
95526W        W66126  25.628  44.482   0.028
95527W        W66127  28.551  36.676   3.301
95528W        W66128  20.483  16.697   3.807
95529W        W66129  12.059   2.428  13.399
95530W        W66130  37.465  44.580   2.444
95531W        W66131  28.556  40.863  11.986
95532W        W66132  40.397  17.311   3.660
95533W        W66133  24.973  24.596  14.386
95534W        W66134  10.594  11.490   4.763
95535W        W66135  27.960  39.159   0.284
95536W        W66136   2.118  29.076  12.948
95537W        W66137  41.520   8.782  13.321
95538W        W66138   4.021  22.765   3.305
95539W        W66139   1.459   2.136   2.373
95540W        W66140  23.213  36.738  11.593
95541W        W66141  44.803  20.128  10.511
95542W        W66142  18.034  18.557  12.804
95543W        W66143  38.991  15.807   1.349
95544W        W66144  29.140  24.414  11.135
95545W        W66145   5.592  34.299   5.074
95546W        W66146  18.561  17.226   2.653
95547W        W66147   2.215  33.057   3.788
95548W        W66148  23.687   8.320   1.778
95549W        W66149  14.255  36.351   0.411
95550W        W66150  17.960  31.328   2.355
95551W        W66151   9.673  13.235   3.523
95552W        W66152  41.073  27.632   2.387
95553W        W66153  29.174  13.631  14.018
95554W        W66154  29.145   5.262  11.572
95555W        W66155  21.912  20.687  13.494
95556W        W66156  33.703  27.472  12.878
95557W        W66157   7.294  20.118  13.360
95558W        W66158   1.046  25.450   3.276
95559W        W66159  21.545  24.561   0.441
95560W        W66160  32.546  19.923   1.752
95561W        W66161   6.719  11.745  10.435
95562W        W66162  30.110   2.313  10.521
95563W        W66163  24.337  42.040   1.722
95564W        W66164   3.330  39.456   1.355
95565W        W66165  17.277   6.473  14.806
95566W        W66166  13.407  23.242  12.660
95567W        W66167  24.432  17.226   5.171
95568W        W66168  30.415  31.991   4.297
95569W        W66169   5.254  15.588  13.816
95570W        W66170   6.327   9.149   0.015
95571W        W66171   7.261  14.286   0.749
95572W        W66172  36.629   6.382  13.400
95573W        W66173  43.350  14.276  10.909
95574W        W66174   6.181   6.221  12.944
95575W        W66175  31.478  39.176   4.133
95576W        W66176   4.982   8.876   4.519
95577W        W66177   6.829  22.975  12.883
95578W        W66178   7.801  35.340   2.931
95579W        W66179  24.424  42.857  14.992
95580W        W66180  34.990  15.099   3.079
95581W        W66181  34.414  37.994   0.068
95582W        W66182   4.178   8.283  14.230
95583W        W66183  12.905  22.837   0.331
95584W        W66184  14.248   2.416  12.608
95585W        W66185  17.252   6.173   2.003
95586W        W66186  16.552  28.919   1.359
95587W        W66187  31.967  44.337  12.563
95588W        W66188  17.251  38.375  13.268
95589W        W66189  36.883  34.502  12.964
95590W        W66190   5.414  30.432   0.386
95591W        W66191  34.096  30.549   0.489
95592W        W66192   8.366   8.202   1.467
95593W        W66193  22.694   2.402  10.617
95594W        W66194  12.637  25.909  13.860
95595W        W66195  19.688   7.973   0.397
95596W        W66196  38.897  40.815   3.778
95597W        W66197  29.980  41.890  10.795
95598W        W66198  44.531  44.319   4.699
95599W        W66199   1.694  41.895  12.530
95600W        W66200  13.171   7.683  11.529
95601W        W66201  33.349  41.429  12.619
95602W        W66202  40.001  26.712   0.497
95603W        W66203   1.999  19.279   4.990
95604W        W66204  24.232   2.937   3.149
95605W        W66205  33.047  38.297   1.273
95606W        W66206   1.615  31.009   2.300
95607W        W66207  26.959   7.913   2.273
95608W        W66208   9.701  21.010  13.586
95609W        W66209  40.510  33.380  11.632
95610W        W66210  40.739  10.879  10.760
95611W        W66211   7.847   5.967  10.695
95612W        W66212  29.933  16.688  14.771
95613W        W66213   5.932   7.022   4.690
95614W        W66214  39.875  24.637   3.289
95615W        W66215  34.425  19.460  12.066
95616W        W66216  36.678  42.787  12.903
95617W        W66217  31.106  18.196   4.137
95618W        W66218   8.228   2.300  12.563
95619W        W66219   0.767  20.834   3.679
95620W        W66220  44.727   0.005  12.075
95621W        W66221  31.451  39.996   0.603
95622W        W66222  21.584   1.923  11.080
95623W        W66223  28.090  18.519  11.616
95624W        W66224   5.501  39.796  12.849
95625W        W66225  15.015  38.996  11.955
95626W        W66226  28.001  20.074   0.835
95627W        W66227  40.332  23.822   3.785
95628W        W66228  18.304  12.608  10.561
95629W        W66229  44.352  16.778  14.671
95630W        W66230  29.617  34.333   4.710
95631W        W66231  30.926  17.497  13.246
95632W        W66232   0.764  24.542  11.173
95633W        W66233  15.096  27.038  10.737
95634W        W66234  21.014  41.905   0.214
95635W        W66235  42.972  16.629  13.866
95636W        W66236  33.959  23.647  14.543
95637W        W66237   1.191  19.280  12.573
95638W        W66238   6.870  20.602   1.300
95639W        W66239   6.994  35.944   2.899
95640W        W66240  15.218  19.794  14.898
95641W        W66241   8.701  36.805   0.455
95642W        W66242  18.690  27.442   2.242
95643W        W66243   7.422  17.701   1.909
95644W        W66244  34.862  17.106  11.583
95645W        W66245  23.556   1.615   4.990
95646W        W66246  10.439  23.646   0.338
95647W        W66247  17.693   1.368  10.841
95648W        W66248   6.234  32.666   0.299
95649W        W66249  24.089  22.997   3.878
95650W        W66250   8.176   1.519   0.415
95651W        W66251  14.939  16.261   3.696
95652W        W66252  11.581  21.927   4.175
95653W        W66253  16.387   4.819  12.314
95654W        W66254  12.076   9.911  14.391
95655W        W66255  17.381   3.302  10.719
95656W        W66256  16.413   1.320  14.501
95657W        W66257  40.404  21.600  11.035
95658W        W66258  34.893  25.539  14.809
95659W        W66259  31.181  42.056   4.456
95660W        W66260  10.888  33.540  13.464
95661W        W66261   0.471  27.003  14.499
95662W        W66262  24.977  43.575  14.368
95663W        W66263  20.537  17.117   2.335
95664W        W66264   3.389  26.562  12.996
95665W        W66265  10.164  21.986   3.746
95666W        W66266   4.277   2.989  13.416
95667W        W66267  23.588   3.694  11.162
95668W        W66268   4.312   7.894   3.446
95669W        W66269   2.003   0.751   1.460
95670W        W66270  11.286  44.283   4.640
95671W        W66271  42.231  26.677  12.043
95672W        W66272  26.926  12.735  11.547
95673W        W66273  15.783  44.951  13.401
95674W        W66274  16.562  15.585  12.534
95675W        W66275  37.538   0.707  11.082
95676W        W66276  24.495   3.740  12.564
95677W        W66277   3.821  27.274   4.117
95678W        W66278  21.409  40.065   2.298
95679W        W66279  12.877  17.632  10.564
95680W        W66280  22.884   9.916   0.752
95681W        W66281  41.539  20.616  13.566
95682W        W66282  27.574  26.289  13.945
95683W        W66283  31.723  39.369   0.703
95684W        W66284  11.653   0.822  10.239
95685W        W66285  44.923   2.806  12.924
95686W        W66286  26.435   4.376   0.017
95687W        W66287  39.775  41.578   0.020
95688W        W66288  23.973  10.843  11.603
95689W        W66289  12.393   7.962   1.259
95690W        W66290   5.334  15.281   4.826
95691W        W66291  39.576  12.143  12.076
95692W        W66292   1.822   2.526  10.848
95693W        W66293  24.287  40.313  14.120
95694W        W66294  27.226  37.562  12.326
95695W        W66295  27.245  37.066  12.053
95696W        W66296  23.676   9.422  13.459
95697W        W66297  31.899   5.998  13.969
95698W        W66298   9.642  32.982  12.544
95699W        W66299  26.644  15.185  13.995
95700W        W66300  41.440  24.449   1.926
95701W        W66301  34.907  10.064  10.748
95702W        W66302   0.751  28.516  11.616
95703W        W66303   1.381   4.963   1.279
95704W        W66304  28.407   1.800  10.768
95705W        W66305  22.604  21.210   4.589
95706W        W66306   5.177   5.919  11.687
95707W        W66307  40.882  26.238   2.341
95708W        W66308  31.113  10.455  14.835
95709W        W66309   5.989  15.574   0.399
95710W        W66310  23.725  22.717  14.782
95711W        W66311  34.080  36.120  14.415
95712W        W66312  11.555  39.001   3.599
95713W        W66313  31.805   6.957   4.171
95714W        W66314   7.793  43.199  11.640
95715W        W66315   9.071  38.921  14.953
95716W        W66316  22.320  22.605   1.658
95717W        W66317   0.499  28.498  10.913
95718W        W66318  27.395   4.310   3.006
95719W        W66319   9.041  31.942  11.170
95720W        W66320  33.881  32.545  12.083
95721W        W66321  37.488  31.473   1.231
95722W        W66322  24.414  19.571   0.962
95723W        W66323   2.411  41.202  11.934
95724W        W66324   1.041   5.340   4.820
95725W        W66325  27.718   9.081   2.206
95726W        W66326  21.493  28.953  12.987
95727W        W66327  18.821   3.968  13.493
95728W        W66328  14.462  41.539  13.676
95729W        W66329  14.699  23.771   1.384
95730W        W66330  44.967  14.758  12.944
95731W        W66331  19.570  27.104  13.939
95732W        W66332  17.511  23.600  13.232
95733W        W66333  28.997  22.529  14.016
95734W        W66334  19.376  42.991  13.232
95735W        W66335  20.164  26.684  13.367
95736W        W66336  32.389   8.481   3.801
95737W        W66337   9.117  34.578   0.669
95738W        W66338  14.657  37.481  13.148
95739W        W66339  33.147   7.292  14.825
95740W        W66340  39.797  24.692  14.922
95741W        W66341  32.116  12.231  10.614
95742W        W66342  31.666  38.624  11.083
95743W        W66343  28.218  20.692   3.790
95744W        W66344   3.771  39.046   2.690
95745W        W66345  37.140  44.984   0.089
95746W        W66346  12.524  20.589  12.020
95747W        W66347  35.062  39.175  10.281
95748W        W66348   1.420  35.154   0.065
95749W        W66349  32.642  35.835   5.131
95750W        W66350  43.011   8.161   3.662
95751W        W66351  29.532   0.227  10.625
95752W        W66352  31.908  33.067   4.809
95753W        W66353  13.268  15.204   1.980
95754W        W66354   9.692  37.578  14.001
95755W        W66355  17.696  17.715   1.252
95756W        W66356  44.513  31.658  13.149
95757W        W66357  29.699  32.242   3.630
95758W        W66358  40.361   6.307  11.862
95759W        W66359  24.207  17.509  11.994
95760W        W66360  37.136  24.001  10.755
95761W        W66361  10.156  33.820   1.267
95762W        W66362  42.443  39.288   2.448
95763W        W66363  32.143  20.942   1.193
95764W        W66364  23.982  26.809  12.418
95765W        W66365  34.551  39.582   2.345
95766W        W66366   1.035  23.947   4.157
95767W        W66367   9.670  13.126   1.736
95768W        W66368  33.462  38.026   2.299
95769W        W66369  17.803  31.443  11.559
95770W        W66370  28.597  14.301   5.077
95771W        W66371  42.567  35.503  12.456
95772W        W66372  10.280   8.798   4.057
95773W        W66373  14.853  41.165   4.971
95774W        W66374  16.604   2.354   1.233
95775W        W66375  10.703  14.820  10.409
95776W        W66376  18.975   9.154  11.721
95777W        W66377  16.532  15.056  12.490
95778W        W66378   9.875   4.197   3.631
95779W        W66379  28.922   0.340   2.651
95780W        W66380  33.370  37.121   3.721
95781W        W66381  12.319  12.577  12.801
95782W        W66382  27.602   0.408   2.339
95783W        W66383   7.125   5.356  14.295
95784W        W66384  10.795  44.951  11.922
95785W        W66385  41.853   9.639   3.695
95786W        W66386  31.214  36.454   4.711
95787W        W66387  42.771  28.502   0.226
95788W        W66388   5.921  29.849  14.847
95789W        W66389   8.324  19.651   4.175
95790W        W66390  10.776   6.191   3.815
95791W        W66391  27.117  29.052  13.956
95792W        W66392  38.102  35.054  13.721
95793W        W66393  36.788   0.853   2.299
95794W        W66394  39.643  40.152   1.192
95795W        W66395  39.071  43.422   1.154
95796W        W66396  42.890   2.883   0.395
95797W        W66397  19.323   9.162  10.692
95798W        W66398  42.287  44.245   4.215
95799W        W66399  11.253  32.569   4.127
95800W        W66400  15.129  41.951  12.820
95801W        W66401   9.367  34.888  12.067
95802W        W66402   9.323  31.188  12.452
95803W        W66403  10.301  23.053  11.521
95804W        W66404  24.195  36.193   2.308
95805W        W66405  35.933  12.594   0.893
95806W        W66406   5.905  18.971   0.626
95807W        W66407  38.995  21.879   2.098
95808W        W66408  22.946  33.341   3.662
95809W        W66409   2.900   9.890  11.770
95810W        W66410   1.334  26.479  13.379
95811W        W66411  16.551  16.098  14.848
95812W        W66412  31.542  27.153  10.667
95813W        W66413  15.769  33.966  14.961
95814W        W66414   9.237   6.868   1.903
95815W        W66415   2.892  44.380   0.998
95816W        W66416  10.366  23.409  14.881
95817W        W66417  19.664  39.606   2.360
95818W        W66418  34.624  31.938   3.161
95819W        W66419  39.694  27.560  12.615
95820W        W66420   5.751   3.800  10.740
95821W        W66421   5.451   4.864  13.909
95822W        W66422  32.395  10.051  13.918
95823W        W66423   4.686  28.575  12.841
95824W        W66424  33.037  10.607  14.850
95825W        W66425  22.126  20.643  12.485
95826W        W66426  15.618  12.696  13.802
95827W        W66427  36.543  41.834  14.762
95828W        W66428   1.882  41.922  13.409
95829W        W66429  36.956  21.219   4.210
95830W        W66430  16.836  21.110  10.426
95831W        W66431  35.478  29.125   0.061
95832W        W66432  27.155  25.610   4.665
95833W        W66433  27.097  26.332  14.208
95834W        W66434   7.864   5.388   1.332
95835W        W66435  31.586  43.204   9.503
95836W        W66436  44.976  15.811   1.427
95837W        W66437  18.478  18.826  13.475
95838W        W66438   6.419  21.546   1.288
95839W        W66439  13.730  34.589  12.918
95840W        W66440   6.294  28.349  11.995
95841W        W66441   2.135  11.585  14.852
95842W        W66442  40.967   0.298   1.209
95843W        W66443  15.245   8.909  14.947
95844W        W66444  22.058  38.481  14.392
95845W        W66445   2.614  19.028  12.958
95846W        W66446  37.145  16.575   2.513
95847W        W66447   6.707   2.796   2.326
95848W        W66448  10.724  16.624   1.336
95849W        W66449  34.772  33.609   0.316
95850W        W66450  35.461  18.133  14.529
95851W        W66451  20.176  37.110  10.778
95852W        W66452  41.404  12.446  12.517
95853W        W66453  27.759  25.632   2.915
95854W        W66454  40.101  40.382   1.238
95855W        W66455  37.319  32.471  11.641
95856W        W66456   4.958  14.900  10.547
95857W        W66457  15.665  14.389  11.166
95858W        W66458  33.375   0.296   3.825
95859W        W66459  10.383  10.829   0.915
95860W        W66460  42.327  44.255  11.777
95861W        W66461  23.739  33.887  14.923
95862W        W66462  17.503  35.084   1.405
95863W        W66463  11.949  41.322   2.437
95864W        W66464  27.820  17.502  11.773
95865W        W66465  18.329  16.770   2.760
95866W        W66466  44.001  17.571   1.743
95867W        W66467   3.572   3.260   3.782
95868W        W66468  41.471   2.457   0.847
95869W        W66469  30.685   9.139   1.716
95870W        W66470  13.583  15.885   0.412
95871W        W66471   4.324  22.288  14.796
95872W        W66472  40.368  32.111   1.333
95873W        W66473  29.384  23.988   2.155
95874W        W66474  13.259   9.488   0.232
95875W        W66475  30.641  24.930   1.853
95876W        W66476   1.448   6.893   1.398
95877W        W66477  29.292  25.864   2.320
95878W        W66478  12.258  33.564   2.022
95879W        W66479  44.733  33.609   1.788
95880W        W66480  37.915  39.572  13.591
95881W        W66481  12.526  44.067   3.406
95882W        W66482  27.002  16.041  12.409
95883W        W66483  21.193  32.433   4.339
95884W        W66484   7.094   2.221   4.002
95885W        W66485   2.508   4.868   2.782
95886W        W66486  39.594  22.208   5.017
95887W        W66487   2.863   7.142  13.040
95888W        W66488  31.976   3.755  14.375
95889W        W66489  21.446   8.191   3.198
95890W        W66490   4.872   9.837   2.125
95891W        W66491  44.439  26.565   0.611
95892W        W66492  42.534  24.669   1.234
95893W        W66493  35.405  27.707  13.598
95894W        W66494  18.489  16.455  10.704
95895W        W66495  10.235  42.520   2.784
95896W        W66496  28.615  38.373  10.780
95897W        W66497  37.987  19.839   2.780
95898W        W66498  11.835   1.357   0.335
95899W        W66499  44.740   4.379  14.382
95900W        W66500  27.280  42.880  13.395
95901W        W66501  31.689  30.441   4.749
95902W        W66502   7.054  24.865   1.224
95903W        W66503  19.802  24.056   0.334
95904W        W66504  40.903  28.662   0.314
95905W        W66505  28.620  22.076  12.834
95906W        W66506   1.403  20.324  12.443
95907W        W66507  42.274  34.566  10.764
95908W        W66508  29.153  11.177  11.902
95909W        W66509   8.043  11.370   0.206
95910W        W66510  20.220  37.342   1.409
95911W        W66511  21.006   0.838  11.172
95912W        W66512  40.118  10.150  12.957
95913W        W66513  16.297  20.945   2.773
95914W        W66514  36.699  34.367   0.513
95915W        W66515  24.896  18.473  12.968
95916W        W66516  20.251  12.689  12.002
95917W        W66517   9.297  44.386   3.861
95918W        W66518  11.564  10.304  10.255
95919W        W66519  44.040  18.281   2.764
95920W        W66520  15.146  42.023   2.431
95921W        W66521  36.974  21.735   4.161
95922W        W66522  30.563   2.740   2.006
95923W        W66523  27.227   2.678   1.383
95924W        W66524  22.703  41.059   0.394
95925W        W66525  33.496  33.942  12.146
95926W        W66526  33.315  20.579   2.798
95927W        W66527  13.595  40.021  11.098
95928W        W66528  30.457  28.982   2.851
95929W        W66529  18.045  33.127  10.399
95930W        W66530   8.871  14.640  14.574
95931W        W66531  35.561  22.125  10.691
95932W        W66532  39.918  14.791   3.766
95933W        W66533  43.411  31.077  13.840
95934W        W66534  17.712  26.705   3.642
95935W        W66535  14.086   9.658  12.993
95936W        W66536  17.377   8.189   4.857
95937W        W66537   9.915  25.033   1.646
95938W        W66538  44.747  26.981   2.831
95939W        W66539   2.862  43.363  10.699
95940W        W66540  36.788  42.173  11.391
95941W        W66541  16.002  21.537  14.553
95942W        W66542   5.479  36.029  11.238
95943W        W66543  43.238  41.248   2.780
95944W        W66544   5.971  40.017   1.863
95945W        W66545  39.849   4.929  14.822
95946W        W66546  21.697  41.443   1.425
95947W        W66547  33.358   3.483   0.878
95948W        W66548  35.005  39.091  14.177
95949W        W66549  27.604  32.594   0.270
95950W        W66550  23.266  13.759   1.196
95951W        W66551  20.640  13.043   1.457
95952W        W66552   1.228  44.979   1.804
95953W        W66553  17.626  18.772  11.891
95954W        W66554  27.127  23.607  12.962
95955W        W66555  27.085  40.836   3.182
95956W        W66556  13.558  20.168   2.630
95957W        W66557   1.326  13.829   4.547
95958W        W66558  33.150   7.965   1.678
95959W        W66559  29.457  30.189  13.825
95960W        W66560   3.934   6.249  12.534
95961W        W66561  44.567   2.431  13.833
95962W        W66562   1.334  29.972  12.178
95963W        W66563  16.180   8.304  12.566
95964W        W66564  38.474  44.744  14.449
95965W        W66565  36.053  19.982  13.004
95966W        W66566  22.859  13.500   4.204
95967W        W66567  18.128  30.121   5.039
95968W        W66568  10.275  26.014  11.689
95969W        W66569   7.254  44.879   0.780
95970W        W66570  20.274  11.314  14.059
95971W        W66571  42.420  11.333  14.833
95972W        W66572  24.266   6.690  11.530
95973W        W66573  41.198   4.880   1.346
95974W        W66574  12.108   3.865  11.994
95975W        W66575  40.020  20.763  12.038
95976W        W66576  17.257  37.725  11.989
95977W        W66577  42.214  31.979   5.001
95978W        W66578  36.185  26.102  12.049
95979W        W66579  22.366  17.544  11.452
95980W        W66580  24.494  19.201   1.580
95981W        W66581  44.858  14.230  14.449
95982W        W66582  28.968   3.730  13.583
95983W        W66583   8.314  19.543   2.382
95984W        W66584  38.949  38.428  11.127
95985W        W66585  43.323  21.646  11.119
95986W        W66586   4.958  42.377   0.392
95987W        W66587  20.091  34.639  12.989
95988W        W66588   4.830  38.967  12.785
95989W        W66589   5.687   8.968   1.288
95990W        W66590  10.397  37.829   2.670
95991W        W66591  12.193   4.949  14.747
95992W        W66592  13.274  42.313   2.273
95993W        W66593  15.210  19.271   4.421
95994W        W66594  15.796   1.863   2.314
95995W        W66595  32.951  40.544   2.775
95996W        W66596  32.988  13.350   4.964
95997W        W66597  39.318  14.248  10.893
95998W        W66598   0.974   6.778  10.654
95999W        W66599  35.990  28.499  14.776
96000W        W66600  18.820  15.278  12.052
96001W        W66601  39.269  11.654   1.411
96002W        W66602  15.298  13.115  12.378
96003W        W66603  27.360   4.843  12.600
96004W        W66604  39.483   8.667   3.343
96005W        W66605  34.218   2.891   2.337
96006W        W66606  41.793  23.714  11.078
96007W        W66607  42.550  44.903   1.182
96008W        W66608  39.184   6.087  13.523
96009W        W66609  33.994  43.852  13.304
96010W        W66610  37.191  18.306   1.119
96011W        W66611  39.989   6.587  12.550
96012W        W66612  15.374  44.959   1.336
96013W        W66613   4.831   4.891  13.368
96014W        W66614  35.993  44.990  11.495
96015W        W66615   2.413  28.000  14.809
96016W        W66616  16.203  21.093   0.150
96017W        W66617  13.585  38.255  12.914
96018W        W66618  21.731  12.824   3.444
96019W        W66619  18.601  29.555   3.481
96020W        W66620  22.228  13.816  11.847
96021W        W66621  21.538  22.108   0.181
96022W        W66622   3.739  21.608   1.456
96023W        W66623  29.070  11.333  12.837
96024W        W66624  36.060  10.549   2.845
96025W        W66625  21.646  31.136  13.723
96026W        W66626  17.613  38.440   2.414
96027W        W66627   4.367   9.658  12.113
96028W        W66628  43.936  20.964  14.001
96029W        W66629  32.998  25.513   3.124
96030W        W66630   0.884   9.749   3.862
96031W        W66631  22.526  36.141   1.393
96032W        W66632  23.416   0.462  13.569
96033W        W66633   6.626  36.610  13.949
96034W        W66634   5.654   5.926  11.478
96035W        W66635  16.830  17.994   1.249
96036W        W66636  37.288  33.634   4.994
96037W        W66637  34.449   1.648   3.803
96038W        W66638  13.904  35.715  13.423
96039W        W66639  19.492  18.611   3.625
96040W        W66640  11.816   8.073  11.447
96041W        W66641  43.966  25.041  10.943
96042W        W66642  18.122   2.770   2.917
96043W        W66643  24.907  39.746   1.157
96044W        W66644  12.627  42.525  14.530
96045W        W66645  14.320   4.802  13.508
96046W        W66646  16.623  33.527   2.627
96047W        W66647   0.936  33.576  11.442
96048W        W66648  38.932   8.618  10.252
96049W        W66649  38.063  11.628   3.930
96050W        W66650   8.235  35.396  11.124
96051W        W66651  12.187  14.678   4.246
96052W        W66652  41.552  37.927  10.663
96053W        W66653  30.484   5.971  12.068
96054W        W66654  32.342  17.138   1.955
96055W        W66655  44.507  13.796  11.462
96056W        W66656  32.652   9.165  14.007
96057W        W66657  24.910  22.087  12.938
96058W        W66658  15.691   5.293   4.084
96059W        W66659  43.517  24.765   1.687
96060W        W66660   7.498   2.326  11.423
96061W        W66661  16.297  39.103   2.502
96062W        W66662  21.576   0.493   3.092
96063W        W66663  15.825  21.679  14.072
96064W        W66664  10.786   3.787   4.276
96065W        W66665  34.990  17.775  11.088
96066W        W66666  16.999  32.845  10.694
96067W        W66667  10.467  16.597   4.055
96068W        W66668  17.750  22.424  11.671
96069W        W66669  43.696  22.708  13.109
96070W        W66670  42.128   3.756   2.128
96071W        W66671  18.588  39.227  14.971
96072W        W66672   8.373  34.006   0.854
96073W        W66673  39.111  19.537   9.892
96074W        W66674   7.849  30.626   4.072
96075W        W66675  25.816  39.075   2.710
96076W        W66676  39.300  38.866   0.900
96077W        W66677  23.716  29.920   3.265
96078W        W66678  17.161   3.880  12.387
96079W        W66679   0.022  27.006  11.987
96080W        W66680   9.721  17.932  11.671
96081W        W66681  39.864  30.961   1.910
96082W        W66682  31.274  37.809  10.209
96083W        W66683   9.126  43.482   0.318
96084W        W66684  22.930   6.941  14.983
96085W        W66685  42.478   9.125   4.374
96086W        W66686  19.831  30.066  13.141
96087W        W66687  40.190  26.369   5.473
96088W        W66688   5.891  42.785  13.496
96089W        W66689  25.347  31.123  13.011
96090W        W66690  26.310   6.162   9.908
96091W        W66691  39.369  14.777   1.348
96092W        W66692   5.773  34.524   3.808
96093W        W66693  28.700  21.208   4.013
96094W        W66694  12.250  10.913   2.636
96095W        W66695  34.400  28.576   3.257
96096W        W66696  16.168  38.115   1.656
96097W        W66697   9.418   0.311  12.111
96098W        W66698  37.131  19.039  11.446
96099W        W66699  24.809  18.279   4.187
96100W        W66700  17.458  37.866   0.447
96101W        W66701  36.481   7.870   4.601
96102W        W66702   5.669  27.598   4.817
96103W        W66703  39.559   9.276  10.822
96104W        W66704  34.814  21.685  10.641
96105W        W66705  26.286  42.500  13.455
96106W        W66706  27.156  32.350   0.292
96107W        W66707  30.865  36.498  14.011
96108W        W66708   5.444  15.329  12.011
96109W        W66709   8.184  26.038   1.866
96110W        W66710  32.263  23.199   0.758
96111W        W66711  44.737  27.528   3.445
96112W        W66712  42.737  15.847  13.434
96113W        W66713   0.333  44.973   2.315
96114W        W66714  14.153  24.645   1.878
96115W        W66715  37.495  13.345   4.536
96116W        W66716  13.057  20.124   4.090
96117W        W66717   3.072  15.083   3.837
96118W        W66718  28.909  34.061   2.283
96119W        W66719  27.055   2.150  12.528
96120W        W66720   5.107  32.435   3.263
96121W        W66721  32.290   1.855   5.130
96122W        W66722  14.528   2.960  14.888
96123W        W66723  36.583  27.792   4.623
96124W        W66724  11.890  12.462  11.032
96125W        W66725  42.558  10.131   4.184
96126W        W66726  39.613  25.747   4.289
96127W        W66727  44.014  42.739   1.677
96128W        W66728   5.378  21.258  13.034
96129W        W66729   7.368  30.418  10.705
96130W        W66730  36.319  35.174  10.699
96131W        W66731   9.194  27.943   1.308
96132W        W66732   1.814   9.919  13.028
96133W        W66733   3.394  16.814   3.429
96134W        W66734  38.446  30.545   4.369
96135W        W66735  33.492  12.101  12.128
96136W        W66736  42.793  22.738   4.431
96137W        W66737  35.030   6.128   0.409
96138W        W66738  13.142  19.122   2.212
96139W        W66739   5.342   5.153  14.327
96140W        W66740   9.085   9.010   4.618
96141W        W66741  11.575  42.805   1.252
96142W        W66742  18.898   4.040   4.545
96143W        W66743   1.436  17.679  12.126
96144W        W66744  40.019  21.128   2.604
96145W        W66745  18.219  24.512   3.217
96146W        W66746  31.648   2.350  10.732
96147W        W66747  43.452   4.892  11.560
96148W        W66748  28.412   9.371  14.954
96149W        W66749  36.848  36.408  12.577
96150W        W66750  36.551   8.373  11.139
96151W        W66751  34.074   2.377   2.374
96152W        W66752  29.961  19.221  14.071
96153W        W66753  44.784  20.803  14.149
96154W        W66754  18.535  33.697   1.205
96155W        W66755  13.528  15.320   4.046
96156W        W66756  22.923  25.487  10.739
96157W        W66757  30.631   6.509  14.107
96158W        W66758  11.757  39.271  12.358
96159W        W66759  27.069  13.208   1.968
96160W        W66760  16.241   9.847   3.669
96161W        W66761  16.044  11.730  12.972
96162W        W66762  35.826   1.894   3.203
96163W        W66763  11.206  12.671  13.773
96164W        W66764  30.896  20.451   2.716
96165W        W66765  12.342  28.530  12.072
96166W        W66766  10.359  10.115   2.305
96167W        W66767  44.342  36.965  11.049
96168W        W66768   2.479   3.238   3.616
96169W        W66769  25.236  35.747  11.460
96170W        W66770   9.334  20.179   0.109
96171W        W66771  22.124  44.536  12.915
96172W        W66772   1.136  30.843   2.210
96173W        W66773   3.978   2.451  11.182
96174W        W66774  33.824   3.372  11.617
96175W        W66775  42.096  17.101   0.205
96176W        W66776  23.446  32.389   1.883
96177W        W66777  14.224  37.587   2.692
96178W        W66778  43.244   8.589  13.963
96179W        W66779  27.664  10.617  12.182
96180W        W66780  38.591  17.146   4.112
96181W        W66781  42.837  23.244  12.652
96182W        W66782  38.561  32.629  12.405
96183W        W66783  22.449  22.987   4.602
96184W        W66784  41.365  18.800   3.704
96185W        W66785  33.884  15.796  10.680
96186W        W66786   2.853  28.510  10.749
96187W        W66787  35.765  42.523  11.708
96188W        W66788   4.188  29.622   1.456
96189W        W66789   9.542  19.160  11.277
96190W        W66790  32.596   6.880   1.392
96191W        W66791  11.164   4.453   1.900
96192W        W66792  27.106   3.684   3.861
96193W        W66793  19.061   7.701  10.722
96194W        W66794  33.894  36.598  14.361
96195W        W66795  38.343   4.192  11.113
96196W        W66796  31.115  29.406  13.917
96197W        W66797   1.049  29.212  10.328
96198W        W66798  37.377  21.036  13.527
96199W        W66799   0.790  37.612  12.649
96200W        W66800  28.963  32.446   4.175
96201W        W66801   3.317  32.404  14.049
96202W        W66802  38.006  42.986  11.642
96203W        W66803   4.416   0.827  10.672
96204W        W66804  13.183  14.687  12.050
96205W        W66805  37.493  43.005   4.585
96206W        W66806  13.054  35.351   3.008
96207W        W66807  16.207  43.824  14.115
96208W        W66808  33.156  28.101   4.234
96209W        W66809  20.854  28.538   3.134
96210W        W66810  25.470  33.184   1.233
96211W        W66811  36.272  38.546  11.703
96212W        W66812  21.018  26.275   5.540
96213W        W66813   2.194  36.980   1.453
96214W        W66814  25.352  21.235  11.180
96215W        W66815  28.676  10.656   3.238
96216W        W66816  26.704  26.094  11.661
96217W        W66817   4.967  24.283  13.058
96218W        W66818  26.203  31.544   3.691
96219W        W66819  15.908  27.456   5.156
96220W        W66820  36.648  24.258  13.072
96221W        W66821  28.506  15.844  13.914
96222W        W66822  11.985  34.573   2.522
96223W        W66823  38.701  37.679   4.153
96224W        W66824  34.436   0.817   0.777
96225W        W66825  26.487  15.879   0.061
96226W        W66826  15.177  33.024   4.083
96227W        W66827   5.469   5.186  11.086
96228W        W66828  39.428  22.293  12.548
96229W        W66829  35.947  34.610   3.227
96230W        W66830  19.242  28.163   3.756
96231W        W66831   2.774  30.618   4.842
96232W        W66832  22.039  28.084   4.856
96233W        W66833  40.609   9.859   2.843
96234W        W66834  36.233  38.962  14.405
96235W        W66835   6.310  17.098   0.439
96236W        W66836  26.715  19.829  12.067
96237W        W66837  44.831  13.302  13.359
96238W        W66838  44.584  43.343  13.898
96239W        W66839   6.908  33.554   2.547
96240W        W66840  14.823  37.129   2.213
96241W        W66841  16.515  36.036   3.781
96242W        W66842  28.627  23.417   0.756
96243W        W66843   0.289  18.156   2.171
96244W        W66844  29.870   4.894   2.469
96245W        W66845  27.658  32.092  11.156
96246W        W66846  30.790   6.202   5.059
96247W        W66847  42.102   5.748  12.964
96248W        W66848  30.708  14.791  14.849
96249W        W66849   7.487  30.538  12.820
96250W        W66850  10.117  15.676  12.430
96251W        W66851  14.107  14.316   0.553
96252W        W66852  35.080  33.484  14.319
96253W        W66853  27.469  42.354  10.489
96254W        W66854   5.602  32.430  14.671
96255W        W66855  44.692  25.249   0.934
96256W        W66856  23.846  23.731  12.551
96257W        W66857  10.784  40.283  11.537
96258W        W66858  22.599  28.741   4.567
96259W        W66859   3.072   1.768   3.287
96260W        W66860  14.152   9.230  14.852
96261W        W66861   4.790   3.817   1.515
96262W        W66862  28.997  19.515   1.765
96263W        W66863   7.898  30.455   0.876
96264W        W66864  38.327  36.983   1.541
96265W        W66865  11.079  36.775   1.680
96266W        W66866  33.668  24.086   0.869
96267W        W66867  27.542  13.694  11.902
96268W        W66868  13.277  23.489   5.042
96269W        W66869  10.279   3.726  13.559
96270W        W66870  22.125  19.206   4.530
96271W        W66871  12.710  41.506   2.752
96272W        W66872  16.819  38.461   2.978
96273W        W66873  28.023  34.338  13.832
96274W        W66874  42.174  44.842   3.606
96275W        W66875   3.360  42.927   3.761
96276W        W66876  25.822  43.318   0.510
96277W        W66877  15.827  28.061   3.306
96278W        W66878  11.462  18.802   3.686
96279W        W66879  36.459   1.549   3.715
96280W        W66880  40.598   7.679   4.121
96281W        W66881   4.364  19.560   2.104
96282W        W66882  41.920   6.729  14.239
96283W        W66883  40.610  44.516  13.864
96284W        W66884  37.592   4.403  14.432
96285W        W66885  19.892  25.032  14.542
96286W        W66886  27.572  12.179   0.732
96287W        W66887  27.487  35.943  14.392
96288W        W66888   3.178   2.419  12.509
96289W        W66889  37.805  10.212   4.228
96290W        W66890  32.123  29.648  14.607
96291W        W66891   9.228  33.440   2.242
96292W        W66892  32.058  10.338  11.028
96293W        W66893  20.534  39.533  14.972
96294W        W66894  24.143  40.250   4.797
96295W        W66895   3.725  28.880  11.956
96296W        W66896  33.533  24.193   3.122
96297W        W66897  35.927   2.882  12.471
96298W        W66898   4.174   4.281   3.310
96299W        W66899  43.330   7.113   0.048
96300W        W66900  11.737   3.400  10.140
96301W        W66901  18.502  41.228  11.307
96302W        W66902  35.158  37.733   2.753
96303W        W66903  15.628  42.878  11.929
96304W        W66904  39.295   5.288   1.496
96305W        W66905  37.050  28.927  12.057
96306W        W66906  32.388   0.248  14.402
96307W        W66907  34.936   6.682   0.436
96308W        W66908  12.645  11.011   4.871
96309W        W66909  33.151  34.707  12.564
96310W        W66910  43.405  35.878  11.606
96311W        W66911   7.161  27.960  12.215
96312W        W66912  35.848  35.178   0.920
96313W        W66913  18.374  37.503  13.129
96314W        W66914  28.201  32.399   4.776
96315W        W66915  23.643   9.120  10.810
96316W        W66916  31.211  36.045   3.536
96317W        W66917  13.066  42.767  13.932
96318W        W66918   6.518  14.100  10.309
96319W        W66919  30.440  43.298   2.877
96320W        W66920  13.125  30.969  13.132
96321W        W66921  28.024  10.969   0.631
96322W        W66922  26.738  14.768   2.827
96323W        W66923  30.197  25.220   0.463
96324W        W66924  29.744  32.072   1.304
96325W        W66925  34.025  30.346  14.488
96326W        W66926  17.556  11.223   4.623
96327W        W66927  15.161   4.289   3.471
96328W        W66928  30.201  11.313   0.490
96329W        W66929  23.239  42.438  10.220
96330W        W66930  15.547   9.642   3.201
96331W        W66931  24.600  26.485   3.250
96332W        W66932  17.510  33.432  13.997
96333W        W66933  22.430   8.652   1.304
96334W        W66934  37.829  16.092   2.753
96335W        W66935  36.965  36.924   1.383
96336W        W66936  18.605  10.285  10.568
96337W        W66937  20.421  16.750   1.859
96338W        W66938  20.836  22.639   0.688
96339W        W66939  42.796  17.591   3.278
96340W        W66940  12.147  38.216  10.909
96341W        W66941  12.397  29.189  11.561
96342W        W66942  32.662  14.098   4.105
96343W        W66943  39.606   3.386  14.132
96344W        W66944  23.635  41.979   3.464
96345W        W66945  35.020  10.824  12.388
96346W        W66946  25.672  16.349   0.802
96347W        W66947   4.916  27.035  10.467
96348W        W66948  22.130  22.500  10.752
96349W        W66949  14.397  33.526  14.367
96350W        W66950   9.636   5.747  14.461
96351W        W66951  21.868   9.310   3.115
96352W        W66952  30.550  44.461   2.891
96353W        W66953   8.499  44.362   1.024
96354W        W66954   4.589  32.954  12.546
96355W        W66955  42.943  31.137  14.504
96356W        W66956   3.174  19.094   1.997
96357W        W66957  10.952  24.928   4.320
96358W        W66958  17.050  44.289  13.921
96359W        W66959  27.940  36.952   3.083
96360W        W66960  30.537  15.299  13.452
96361W        W66961  39.244  10.007  10.292
96362W        W66962  44.838  23.971  12.777
96363W        W66963  44.922  34.078   4.549
96364W        W66964  27.042  41.255   4.100
96365W        W66965  15.963  15.501  11.951
96366W        W66966  15.286  42.809  13.566
96367W        W66967   5.385   1.224  12.937
96368W        W66968  40.299  15.150  12.459
96369W        W66969  22.632  12.095  10.772
96370W        W66970  33.508   4.034  13.559
96371W        W66971  38.345  10.913  14.818
96372W        W66972  35.652  15.035  10.703
96373W        W66973  39.338  35.797  12.430
96374W        W66974  17.571   3.676  11.649
96375W        W66975  17.312  19.042   4.150
96376W        W66976  24.174  28.682  11.609
96377W        W66977  22.216   1.739   2.948
96378W        W66978  23.848  25.189   3.109
96379W        W66979  20.249  44.244  11.969
96380W        W66980  34.343   4.792  14.962
96381W        W66981  10.155  23.507   2.161
96382W        W66982  14.550  31.496  14.983
96383W        W66983   1.421  34.965  10.753
96384W        W66984  40.841  10.712   1.392
96385W        W66985   9.423  43.427  14.891
96386W        W66986   3.659   0.546  10.591
96387W        W66987   7.260  18.847  11.514
96388W        W66988  20.569  34.299  11.268
96389W        W66989   8.095  32.817   3.364
96390W        W66990  11.579  36.963  12.910
96391W        W66991  23.796  15.687  12.360
96392W        W66992  22.537  35.821   3.277
96393W        W66993  32.634  17.563   3.242
96394W        W66994  16.229   3.198  12.566
96395W        W66995  14.864  34.067   2.705
96396W        W66996  37.515  37.125   4.076
96397W        W66997  32.828  35.409  14.620
96398W        W66998  13.563   6.212  11.228
96399W        W66999  28.967  43.780   0.203
96400W        W67000  12.678  37.142  11.985
96401W        W67001  16.490  24.459   4.237
96402W        W67002  15.761  11.093   1.709
96403W        W67003   7.662  39.616   0.935
96404W        W67004  31.186  41.907   2.571
96405W        W67005   8.794  44.094  14.258
96406W        W67006  24.894   3.340   0.787
96407W        W67007  42.913  24.134   4.507
96408W        W67008  38.055  13.246  13.978
96409W        W67009  29.197  26.020   0.322
96410W        W67010  20.052   1.598   1.311
96411W        W67011  37.871  21.062  13.770
96412W        W67012  29.378   1.823  12.068
96413W        W67013  25.423  21.024   2.324
96414W        W67014   6.746  10.790   0.021
96415W        W67015   9.806  42.782   2.691
96416W        W67016  29.408  41.773  13.871
96417W        W67017  11.267  21.172   0.487
96418W        W67018  12.407  40.600   1.885
96419W        W67019  13.354   6.358  13.119
96420W        W67020   6.638  19.295   2.251
96421W        W67021   0.969  10.171   4.691
96422W        W67022  27.781  41.322   9.935
96423W        W67023  32.434   2.952   0.893
96424W        W67024  20.703  31.832   4.224
96425W        W67025  14.345  42.789   2.382
96426W        W67026  21.550  29.635   0.431
96427W        W67027  32.186   1.895   4.613
96428W        W67028   3.460  39.773  10.669
96429W        W67029  40.886  31.396  13.937
96430W        W67030  42.891   9.261  13.336
96431W        W67031  32.585  32.806  11.964
96432W        W67032   6.247  39.251   0.141
96433W        W67033  44.603   4.350   1.246
96434W        W67034  18.695  26.129  14.033
96435W        W67035  18.025  18.147  11.456
96436W        W67036  43.791   3.449  14.515
96437W        W67037  10.793  11.158  12.061
96438W        W67038  10.185  17.105   5.030
96439W        W67039  31.378  43.801   1.632
96440W        W67040  18.532   6.133  13.984
96441W        W67041  29.165  41.966   3.142
96442W        W67042  36.597  12.183  11.288
96443W        W67043  36.640  19.433   1.471
96444W        W67044   0.031  39.701   2.633
96445W        W67045  19.594   8.318   4.588
96446W        W67046  30.632  38.468   2.402
96447W        W67047   3.204  31.460   5.139
96448W        W67048  16.124  44.790   1.786
96449W        W67049  13.981  41.407  13.449
96450W        W67050  31.408  33.853  11.252
96451W        W67051  37.856  25.222   4.002
96452W        W67052   7.434   8.726  14.425
96453W        W67053  27.136   8.058  10.651
96454W        W67054  18.039  36.286   0.813
96455W        W67055  18.149  15.598  14.649
96456W        W67056  35.598  43.524  13.879
96457W        W67057   0.266  13.381  12.922
96458W        W67058   6.820  19.983   3.879
96459W        W67059   4.698  25.235  10.555
96460W        W67060  17.582  36.808   1.647
96461W        W67061  24.933   6.181   3.249
96462W        W67062   8.601  39.922   2.283
96463W        W67063   5.153   4.825   4.237
96464W        W67064  39.550   6.647   1.899
96465W        W67065  25.551  18.003  11.558
96466W        W67066  24.255   3.746   2.435
96467W        W67067  21.895  35.250   2.197
96468W        W67068   9.671  30.496   4.805
96469W        W67069  40.483   4.968   3.528
96470W        W67070   6.172  19.530  10.922
96471W        W67071  37.049  19.655   1.183
96472W        W67072  14.849  44.970  10.314
96473W        W67073  22.618   7.833  14.310
96474W        W67074  23.725  24.940   4.612
96475W        W67075  40.841  24.465  13.829
96476W        W67076  42.040  33.116   3.868
96477W        W67077  40.871  18.076  11.677
96478W        W67078  30.529  36.516  12.655
96479W        W67079  26.197  32.551  14.554
96480W        W67080  36.269  16.031  14.328
96481W        W67081  10.968  18.587   3.628
96482W        W67082  20.641  36.188   4.635
96483W        W67083  10.459   3.673   3.269
96484W        W67084  23.524   4.631   0.943
96485W        W67085  12.183  32.938   4.776
96486W        W67086  21.125  20.020  12.455
96487W        W67087  39.508  44.502   1.765
96488W        W67088   5.436  38.844  13.391
96489W        W67089  23.732  13.798   1.405
96490W        W67090  17.465  42.061   1.941
96491W        W67091  19.672  10.132   0.781
96492W        W67092  38.633   5.626  14.374
96493W        W67093  35.393  33.951  12.569
96494W        W67094  17.915  24.316  14.997
96495W        W67095  17.206  25.628  10.245
96496W        W67096  14.139  20.664  14.472
96497W        W67097   2.848  23.747  13.572
96498W        W67098  27.517  13.094   1.707
96499W        W67099   1.296  34.621   2.274
96500W        W67100   5.995  32.930  13.958
96501W        W67101  27.665  43.570  13.876
96502W        W67102   6.612   0.739  11.205
96503W        W67103   9.354  19.932  11.139
96504W        W67104  40.979  13.235  11.027
96505W        W67105  33.030   8.376  14.260
96506W        W67106  23.955  19.409  12.747
96507W        W67107  21.544  18.629   1.204
96508W        W67108   8.568   8.671   1.646
96509W        W67109   4.274  27.535  13.055
96510W        W67110  14.687  14.250   1.829
96511W        W67111   7.281  24.777   1.717
96512W        W67112  41.578  40.837   3.298
96513W        W67113  30.079  32.841  14.835
96514W        W67114  40.814  29.941   2.279
96515W        W67115  41.262   5.888  13.067
96516W        W67116  38.701   3.162  11.669
96517W        W67117  35.009  37.405   3.143
96518W        W67118  37.856  34.586  13.327
96519W        W67119  36.391   1.335  14.291
96520W        W67120  29.659  15.677  14.793
96521W        W67121  31.906   8.228  11.610
96522W        W67122   8.441  36.054   4.211
96523W        W67123   1.273   8.773   1.103
96524W        W67124  10.214  26.933  14.004
96525W        W67125   4.232  21.721  11.534
96526W        W67126  28.076  27.380   1.652
96527W        W67127   0.406  35.844  13.234
96528W        W67128  44.862  21.317   3.618
96529W        W67129  40.078  23.335  12.017
96530W        W67130  23.265  35.797   3.751
96531W        W67131  41.940  14.744   2.922
96532W        W67132  26.516  28.645  10.456
96533W        W67133  37.667  17.459  13.337
96534W        W67134   2.126  26.917   4.985
96535W        W67135  31.162  41.581  13.115
96536W        W67136   9.286  29.399   0.987
96537W        W67137  25.926   5.301   0.245
96538W        W67138  14.802  35.992   4.048
96539W        W67139  17.483  36.034   4.950
96540W        W67140  40.978  20.332  11.145
96541W        W67141  24.483  41.065  12.555
96542W        W67142  36.492  41.804   3.168
96543W        W67143  18.718  10.921   3.294
96544W        W67144  31.867  18.629   1.156
96545W        W67145  25.076  39.728   4.021
96546W        W67146  22.068   2.218   2.836
96547W        W67147   0.901  16.598   2.240
96548W        W67148  34.884   9.390   4.134
96549W        W67149   9.683  24.052  13.795
96550W        W67150  22.837  39.873  10.795
96551W        W67151  38.373  35.316   4.208
96552W        W67152  40.220  23.769   1.729
96553W        W67153  40.824  40.931  12.563
96554W        W67154  39.397  20.834  12.602
96555W        W67155  41.397  41.681   2.165
96556W        W67156  16.539  41.992  13.931
96557W        W67157  31.620  26.706  11.895
96558W        W67158   2.178  25.080   1.914
96559W        W67159  10.658  20.924   2.424
96560W        W67160   8.860   5.357  12.164
96561W        W67161  13.123   8.289   3.676
96562W        W67162  33.439   5.980   3.140
96563W        W67163   5.993  44.383   3.623
96564W        W67164  17.954  40.876  10.676
96565W        W67165   2.843   6.467  12.687
96566W        W67166  17.271  36.758  13.913
96567W        W67167  30.011  19.588   4.651
96568W        W67168   2.508  25.757   2.454
96569W        W67169  21.528  31.410  12.376
96570W        W67170  40.828  23.167  14.194
96571W        W67171  10.317  28.709  14.463
96572W        W67172  21.001  42.074  14.535
96573W        W67173  35.094   2.682   0.223
96574W        W67174  33.678  10.174   1.227
96575W        W67175  38.108   3.185  11.029
96576W        W67176  10.541   5.864   0.849
96577W        W67177  30.888  19.655   2.280
96578W        W67178  42.200  43.266   0.784
96579W        W67179  12.738   4.571   0.371
96580W        W67180  26.687  40.828  14.691
96581W        W67181  17.004  42.934   0.780
96582W        W67182  32.420   9.615  14.292
96583W        W67183  16.213  17.972  11.029
96584W        W67184  19.148  29.158  13.453
96585W        W67185  34.117  19.683   3.458
96586W        W67186   9.782  38.805   0.890
96587W        W67187   3.739  14.312  12.331
96588W        W67188  11.082  11.806  12.577
96589W        W67189  34.547  40.778   4.025
96590W        W67190  38.786  11.799   2.282
96591W        W67191  15.768  38.061  12.950
96592W        W67192   3.443  13.927  13.486
96593W        W67193  32.022  25.555   1.258
96594W        W67194  27.531  42.309   0.340
96595W        W67195  34.188  18.875   0.714
96596W        W67196   6.997  40.390  14.843
96597W        W67197   1.737  32.621  13.904
96598W        W67198  40.109  14.992   1.864
96599W        W67199  30.559  14.734  13.562
96600W        W67200  23.002  24.523  10.647
96601W        W67201  40.079   5.216   3.748
96602W        W67202  33.375   2.684  12.523
96603W        W67203  44.194  35.806  14.304
96604W        W67204  18.043   3.204  14.384
96605W        W67205  39.307  31.063  14.394
96606W        W67206  23.190  44.038   2.777
96607W        W67207  44.482  30.901   1.459
96608W        W67208   5.437  10.870  11.406
96609W        W67209  32.411  30.704  12.070
96610W        W67210  35.138  44.591  11.985
96611W        W67211  29.566  25.488  13.977
96612W        W67212   0.492  25.963   2.147
96613W        W67213  41.973  12.175   3.865
96614W        W67214  11.029  18.154  13.257
96615W        W67215  18.552  42.370  13.365
96616W        W67216  43.868  38.557   3.212
96617W        W67217  10.867  34.501   0.281
96618W        W67218  27.118  31.472   1.227
96619W        W67219  43.552   9.133   0.776
96620W        W67220  30.998  27.012  11.948
96621W        W67221   5.946  39.506  13.488
96622W        W67222  13.280  32.716  14.473
96623W        W67223  28.967  38.608   0.327
96624W        W67224  29.434  40.985   2.781
96625W        W67225   1.757  12.377   4.119
96626W        W67226  32.887   2.480   1.935
96627W        W67227  15.560  38.999  11.974
96628W        W67228  14.605  15.510   3.876
96629W        W67229  36.886  40.670  11.510
96630W        W67230  39.515   4.876  11.911
96631W        W67231  34.332  15.328  12.007
96632W        W67232  12.910  40.588   4.199
96633W        W67233  40.389  10.184  12.319
96634W        W67234  10.471   6.074   2.899
96635W        W67235  18.412  14.566   0.125
96636W        W67236  22.090  40.088   4.266
96637W        W67237  42.802  22.572   2.822
96638W        W67238  17.594  23.998  10.712
96639W        W67239  33.987  34.604   4.569
96640W        W67240  35.447  44.474  13.822
96641W        W67241  19.292  31.030   4.245
96642W        W67242  30.926  23.315  11.839
96643W        W67243  44.385  22.782   1.676
96644W        W67244  27.905  21.708   4.540
96645W        W67245  36.107  35.496  12.187
96646W        W67246  35.898  36.480  14.936
96647W        W67247  41.979  15.781   2.260
96648W        W67248   7.194  25.622   1.505
96649W        W67249  44.870   0.501  12.838
96650W        W67250  22.774  22.499   3.312
96651W        W67251  17.611  40.988   2.186
96652W        W67252   7.110  30.279  13.464
96653W        W67253  41.335  41.810  11.614
96654W        W67254  15.180  34.575   1.873
96655W        W67255  24.082  33.389  11.589
96656W        W67256  36.020   5.399   4.166
96657W        W67257  17.139  40.174   0.294
96658W        W67258  43.519  24.881  11.173
96659W        W67259  36.567  13.685  14.263
96660W        W67260  18.121   1.427  11.114
96661W        W67261  23.326  33.154  11.995
96662W        W67262  36.084  33.375  11.456
96663W        W67263  29.652  17.049   1.988
96664W        W67264  38.272  20.758   4.690
96665W        W67265   8.628  12.846   2.894
96666W        W67266  44.472  21.185   0.763
96667W        W67267  12.892  37.517  12.859
96668W        W67268  26.670  41.749  14.771
96669W        W67269  24.778  30.573   2.113
96670W        W67270   7.833  34.346   4.544
96671W        W67271  33.548  41.842  11.001
96672W        W67272  11.048  32.136  10.760
96673W        W67273   9.440  13.739  11.063
96674W        W67274   3.190  30.681   1.177
96675W        W67275  30.990   4.922   3.180
96676W        W67276  34.068  44.232   4.123
96677W        W67277   2.214  22.520   1.935
96678W        W67278  38.432  43.295   4.075
96679W        W67279   6.084  34.509   0.779
96680W        W67280  27.002  44.303   1.537
96681W        W67281  17.132  33.705   1.459
96682W        W67282  37.830  17.339   1.855
96683W        W67283   2.441  13.406   3.872
96684W        W67284  35.617  29.904  11.923
96685W        W67285   1.272  41.952   3.685
96686W        W67286  27.964  11.383   4.636
96687W        W67287   8.279  41.776  12.544
96688W        W67288  25.416   8.563   1.338
96689W        W67289  42.740  29.934   2.967
96690W        W67290   3.512  31.010  12.372
96691W        W67291  31.653  42.761   2.955
96692W        W67292  31.198  21.600  13.062
96693W        W67293  13.682  20.276   4.521
96694W        W67294  27.045  13.782  13.101
96695W        W67295  12.355  22.353   4.246
96696W        W67296  44.851  18.535  13.528
96697W        W67297   8.316  43.274  13.407
96698W        W67298   6.749  23.542  13.784
96699W        W67299  37.549  24.230  12.961
96700W        W67300  20.011  41.873  12.627
96701W        W67301  21.574  36.419   2.872
96702W        W67302  22.385  19.174  12.475
96703W        W67303  28.333  18.263   2.825
96704W        W67304  10.412  24.487  11.769
96705W        W67305  24.589  29.414  11.860
96706W        W67306  44.442  15.407   0.869
96707W        W67307  19.108  34.539   3.577
96708W        W67308  20.677  18.555   1.394
96709W        W67309  14.369  43.578   1.278
96710W        W67310  41.728  19.717  12.645
96711W        W67311  29.423  32.613   3.325
96712W        W67312   6.865  18.814   4.480
96713W        W67313  22.627  30.974  14.321
96714W        W67314  24.359  27.611   1.778
96715W        W67315   0.008  14.761   1.929
96716W        W67316  14.746  38.831   4.101
96717W        W67317  37.817  41.024  13.265
96718W        W67318  15.651  13.873  11.111
96719W        W67319   4.005  19.912  12.176
96720W        W67320  23.702  25.126  10.575
96721W        W67321  43.894   2.400   4.388
96722W        W67322  16.126  31.015   2.257
96723W        W67323   5.369  41.609  10.477
96724W        W67324  42.382   6.789   1.229
96725W        W67325  23.781   4.864   2.483
96726W        W67326  10.428   9.657   1.525
96727W        W67327  19.692  13.246   2.797
96728W        W67328   4.726  44.572  11.122
96729W        W67329  31.595   8.747   0.874
96730W        W67330   9.070  21.487  14.335
96731W        W67331   7.433  29.514  10.391
96732W        W67332  42.987  37.681   1.868
96733W        W67333  31.583   8.885  12.345
96734W        W67334  21.363  40.397   3.577
96735W        W67335   4.244  22.545   3.740
96736W        W67336  43.902  15.646   0.239
96737W        W67337  43.469  30.519  12.589
96738W        W67338  27.056  10.475  12.001
96739W        W67339  33.689  15.597   4.527
96740W        W67340  33.979  16.609   3.800
96741W        W67341  39.474   4.969   0.706
96742W        W67342  17.549  32.515   1.895
96743W        W67343  44.086  27.982  11.907
96744W        W67344  14.004  42.811   1.313
96745W        W67345  40.824  11.903  12.342
96746W        W67346  33.366  12.609   2.248
96747W        W67347  30.949   9.658   4.096
96748W        W67348  39.790  37.970   1.783
96749W        W67349   6.880   1.942  13.946
96750W        W67350  40.045  34.927  10.915
96751W        W67351  31.615   2.684   1.834
96752W        W67352  30.930  12.821   0.663
96753W        W67353  35.717  18.126  12.196
96754W        W67354  10.681  41.822   0.325
96755W        W67355  41.977  32.964  12.136
96756W        W67356  20.650  18.343  14.313
96757W        W67357  11.738  41.036   4.216
96758W        W67358  12.922  18.493   0.350
96759W        W67359  16.051  23.180  12.288
96760W        W67360  33.087  40.521  14.876
96761W        W67361  30.199  35.862   1.903
96762W        W67362  18.112   2.770   0.426
96763W        W67363   2.810  38.413  14.778
96764W        W67364  27.750  43.900   2.716
96765W        W67365  42.424  31.565   4.489
96766W        W67366  15.182  10.388   2.745
96767W        W67367  34.488  14.907  11.132
96768W        W67368  30.013  26.025   4.245
96769W        W67369   8.394  24.716  13.331
96770W        W67370   0.681   9.686  14.522
96771W        W67371   9.256  15.777   1.008
96772W        W67372   6.736  36.440   0.522
96773W        W67373  13.792  36.935  12.687
96774W        W67374   5.215  35.454  12.128
96775W        W67375  11.346  22.756  13.114
96776W        W67376  40.650   5.510   2.876
96777W        W67377   1.909  33.907   1.376
96778W        W67378  19.567  28.518   4.302
96779W        W67379  21.763  11.481   3.842
96780W        W67380  44.831  19.246   4.648
96781W        W67381  42.802  14.322  11.656
96782W        W67382  25.471  16.839  14.739
96783W        W67383  14.204  21.438   2.561
96784W        W67384  24.704   9.000  11.552
96785W        W67385  22.271   4.921   3.662
96786W        W67386  44.999  41.103   4.415
96787W        W67387  17.498   4.442  11.342
96788W        W67388  18.529   8.899   3.817
96789W        W67389  12.089  33.088   1.893
96790W        W67390   0.749  42.309   3.702
96791W        W67391  39.090  16.631  14.903
96792W        W67392  14.276  28.163  12.038
96793W        W67393  27.174  28.192   3.640
96794W        W67394  16.878   7.357  13.869
96795W        W67395   1.949  41.225   4.076
96796W        W67396  38.976  15.701   0.278
96797W        W67397  33.628  43.283   2.802
96798W        W67398  22.073  20.223  12.892
96799W        W67399  32.365  31.809   4.405
96800W        W67400   7.661  34.953   4.906
96801W        W67401  11.623  17.207  10.453
96802W        W67402  14.677  43.852  14.956
96803W        W67403  23.216   2.113  14.848
96804W        W67404  28.128  10.884  12.344
96805W        W67405  43.031  41.378   1.747
96806W        W67406  23.335  17.251   4.322
96807W        W67407   8.793  37.780  11.423
96808W        W67408   1.464   3.559   3.339
96809W        W67409  27.226   4.721   1.229
96810W        W67410  29.957  26.048  11.652
96811W        W67411  24.771  23.254  10.833
96812W        W67412   8.460  38.444   1.972
96813W        W67413  26.611   0.030   3.737
96814W        W67414  25.000  20.052  11.533
96815W        W67415   0.799  24.428   3.284
96816W        W67416  43.747  36.029   4.569
96817W        W67417  44.459  18.217   4.015
96818W        W67418  39.740  36.883   1.769
96819W        W67419  23.302   9.014   0.246
96820W        W67420  11.714   6.689  10.762
96821W        W67421  10.961  31.334  13.323
96822W        W67422  17.155   3.470  14.918
96823W        W67423  14.741   4.357  11.927
96824W        W67424  11.273   4.260  10.706
96825W        W67425  15.378  20.240  13.994
96826W        W67426  21.176  36.028   3.665
96827W        W67427  41.583   3.528   2.786
96828W        W67428   3.984  17.366   1.725
96829W        W67429   8.825  44.588   1.445
96830W        W67430   2.601   5.016   5.214
96831W        W67431  43.293   3.157   0.556
96832W        W67432  15.690  17.240   2.253
96833W        W67433  38.042  10.197  12.869
96834W        W67434  11.582  42.709   2.184
96835W        W67435  16.639  24.852   2.693
96836W        W67436  18.491  14.498   2.345
96837W        W67437  22.062   9.576   0.988
96838W        W67438  27.419   2.834  12.327
96839W        W67439  24.705  20.234   4.158
96840W        W67440  38.951  27.282   1.727
96841W        W67441  13.543  33.558  10.712
96842W        W67442   5.389  16.615  10.479
96843W        W67443  12.698   4.396  10.658
96844W        W67444  41.752  30.658  13.340
96845W        W67445  27.702  28.689  10.992
96846W        W67446  17.295   2.386  13.851
96847W        W67447  11.273  30.184  14.720
96848W        W67448  20.243  29.920  10.585
96849W        W67449  32.242  35.450  12.880
96850W        W67450  41.855   6.514   4.148
96851W        W67451   6.301  29.935   0.431
96852W        W67452  30.757  42.337   3.717
96853W        W67453  16.516  43.838   1.844
96854W        W67454   9.929   1.020   5.000
96855W        W67455   7.640  30.380   3.654
96856W        W67456  25.620  23.525   4.542
96857W        W67457  23.138  16.413   2.947
96858W        W67458   6.801  27.241   0.365
96859W        W67459  44.236  40.082   0.163
96860W        W67460  42.577  14.092  12.658
96861W        W67461  38.022  24.577  14.122
96862W        W67462  14.417   6.324  13.092
96863W        W67463   7.384   1.963   1.376
96864W        W67464  26.782  20.096  11.593
96865W        W67465  31.070   4.700  13.082
96866W        W67466  44.727  12.975   4.193
96867W        W67467  36.147   2.243   3.390
96868W        W67468  29.523  44.717   3.188
96869W        W67469   3.142   4.171   3.608
96870W        W67470  33.941  23.951   4.225
96871W        W67471  19.776  20.395  10.959
96872W        W67472   7.310  32.668   3.870
96873W        W67473  18.811  38.967   3.108
96874W        W67474  24.487   2.465  10.353
96875W        W67475  38.668  24.074   9.887
96876W        W67476  17.282  15.111  10.278
96877W        W67477   3.113   9.202   4.069
96878W        W67478  37.807  42.452  14.322
96879W        W67479  42.896  42.728  12.642
96880W        W67480  10.651   1.321  14.873
96881W        W67481  11.062  26.213  13.115
96882W        W67482  40.530   8.064  13.858
96883W        W67483  20.935  20.103  11.558
96884W        W67484  13.381  15.344  12.219
96885W        W67485  14.247  23.077   0.840
96886W        W67486  27.092  14.484  12.425
96887W        W67487  37.118  43.945  12.902
96888W        W67488  41.988   8.321  12.498
96889W        W67489  40.204   8.162   3.583
96890W        W67490   4.529  15.059  13.620
96891W        W67491  33.090  30.050   1.835
96892W        W67492  11.674  15.332   4.583
96893W        W67493  44.254   2.087   2.671
96894W        W67494  35.537  18.661   0.923
96895W        W67495  21.184  24.857   4.547
96896W        W67496   0.182  39.507   1.016
96897W        W67497  20.806  22.558  13.369
96898W        W67498   8.216   9.806  11.457
96899W        W67499  38.138   7.723  14.481
96900W        W67500  33.079  25.301   2.630
96901W        W67501   5.717  34.890  13.917
96902W        W67502   6.923  37.003   2.705
96903W        W67503   8.605   3.078   3.684
96904W        W67504  42.007  12.662  10.642
96905W        W67505  39.449  28.680  14.560
96906W        W67506  29.202  43.017   3.328
96907W        W67507  11.283   8.742  12.460
96908W        W67508  30.127   2.010   3.811
96909W        W67509   7.694  28.001  11.167
96910W        W67510  21.682   3.689   4.644
96911W        W67511  10.244  30.067  10.991
96912W        W67512   8.183  21.443  11.589
96913W        W67513   0.424  18.696  13.453
96914W        W67514  36.506  21.085  10.935
96915W        W67515  13.572  26.793  14.428
96916W        W67516  38.418   0.970   4.461
96917W        W67517  21.454  31.223   2.650
96918W        W67518  35.438   1.188  14.632
96919W        W67519   7.636  25.054  11.150
96920W        W67520  39.351   2.344   4.001
96921W        W67521  40.106  26.003  14.756
96922W        W67522   3.823  18.564   4.362
96923W        W67523  13.418   6.228   1.230
96924W        W67524  11.194  34.602   1.914
96925W        W67525   9.581   8.568  11.080
96926W        W67526  28.326  39.050   2.360
96927W        W67527   0.886   7.862  13.294
96928W        W67528  17.380  10.035  12.125
96929W        W67529  40.930  43.084  14.817
96930W        W67530  40.748  33.406   0.419
96931W        W67531  11.323  39.847   3.233
96932W        W67532   8.860   2.010   0.448
96933W        W67533  40.344  43.048   5.063
96934W        W67534  22.250  38.128   3.295
96935W        W67535  27.355  18.574  13.629
96936W        W67536  41.880  13.261   2.862
96937W        W67537  39.354  11.344  10.418
96938W        W67538  41.959  32.368   2.257
96939W        W67539   8.739  22.016  10.347
96940W        W67540  28.108  10.723   2.164
96941W        W67541   1.327  14.563  11.201
96942W        W67542  14.174  18.336  12.942
96943W        W67543  44.122   3.199  11.686
96944W        W67544  34.059  16.056   0.952
96945W        W67545  22.306  12.221   1.396
96946W        W67546  34.988  19.814   3.258
96947W        W67547  21.726   2.247  14.685
96948W        W67548   8.422  24.061  11.922
96949W        W67549  44.522  10.188  10.370
96950W        W67550   3.384   4.414  10.785
96951W        W67551  33.470  34.765  14.276
96952W        W67552  43.542  23.189  10.567
96953W        W67553  13.572  37.808   3.278
96954W        W67554  35.014  26.060  13.854
96955W        W67555  15.312  15.261   0.260
96956W        W67556   4.413  41.799   1.794
96957W        W67557  38.558  38.417  10.760
96958W        W67558  17.074   6.882  13.935
96959W        W67559   8.656  33.920  12.461
96960W        W67560  44.897  17.209   0.928
96961W        W67561   4.449  24.487   0.455
96962W        W67562   3.450  42.566  10.636
96963W        W67563   8.742  13.438   0.407
96964W        W67564  41.031   3.372   0.113
96965W        W67565  28.856  37.475   5.035
96966W        W67566   1.314  17.170  12.119
96967W        W67567   7.955  20.106  11.126
96968W        W67568   0.964  10.133  12.919
96969W        W67569   8.843  14.107  12.120
96970W        W67570  33.237   0.208   4.969
96971W        W67571  28.135  13.956  14.097
96972W        W67572  30.083  34.322  12.332
96973W        W67573  36.328  37.801   4.243
96974W        W67574  12.706  14.281   2.256
96975W        W67575  31.742  33.456  11.272
96976W        W67576  21.039   2.940  11.631
96977W        W67577  19.372  21.437   2.360
96978W        W67578   1.380  21.987  14.137
96979W        W67579  27.289  30.147  14.461
96980W        W67580  42.542  10.535  13.391
96981W        W67581  42.861  13.605  10.661
96982W        W67582   6.155  15.743  14.372
96983W        W67583  20.045  12.231  11.050
96984W        W67584  13.100  34.058   3.754
96985W        W67585  18.262  31.387   3.167
96986W        W67586  34.160   4.445   0.852
96987W        W67587  44.346  25.599  12.017
96988W        W67588  27.273  29.189   4.440
96989W        W67589   7.012  35.763  11.211
96990W        W67590  16.123  19.689   0.063
96991W        W67591  36.754  13.255   1.834
96992W        W67592  39.441  30.011  12.193
96993W        W67593  29.388  10.717   0.447
96994W        W67594   7.449  18.006   0.866
96995W        W67595  36.545  21.967   3.995
96996W        W67596  27.514  27.171  14.520
96997W        W67597  36.285  13.208   3.151
96998W        W67598  31.942  21.233   2.598
96999W        W67599   7.347   4.581  14.847
97000W        W67600  23.394   3.401   3.224
97001W        W67601  27.513  12.576  14.013
97002W        W67602  17.133  33.366  11.070
97003W        W67603  18.798   9.164  12.775
97004W        W67604   9.589  16.216  14.648
97005W        W67605  35.460  41.839   2.160
97006W        W67606   5.791  17.306   0.384
97007W        W67607  33.573   5.248  12.987
97008W        W67608  15.126  33.349   1.735
97009W        W67609  19.327   2.360   2.259
97010W        W67610  30.683  12.441  13.798
97011W        W67611  42.995  30.889  12.001
97012W        W67612  12.369  32.999   3.730
97013W        W67613  13.460  23.713   0.492
97014W        W67614  16.293  30.487   0.163
97015W        W67615  26.105  20.241  12.971
97016W        W67616   4.737  38.247   1.466
97017W        W67617  19.220  32.522   1.262
97018W        W67618  40.903  43.630  10.931
97019W        W67619  43.685  25.144   5.011
97020W        W67620  41.026  17.541  13.100
97021W        W67621  25.955   5.437  12.015
97022W        W67622   2.053  39.951   3.846
97023W        W67623  18.006  12.758  11.955
97024W        W67624   3.440   5.707  12.725
97025W        W67625  37.442  39.056  14.810
97026W        W67626  39.318   2.291   2.555
97027W        W67627  28.073   0.424   1.307
97028W        W67628  44.406  43.763   2.942
97029W        W67629  36.852   3.012  10.365
97030W        W67630   4.827  44.863   4.148
97031W        W67631   0.615  11.461   3.729
97032W        W67632   7.791  26.616   4.199
97033W        W67633   1.488  22.866  14.471
97034W        W67634  37.512  36.606   3.264
97035W        W67635  16.684  23.184  12.936
97036W        W67636  11.390  15.046  11.153
97037W        W67637  21.035  13.191   3.232
97038W        W67638   0.360  36.145   1.301
97039W        W67639   9.202  19.951   4.425
97040W        W67640  33.392  25.755   3.387
97041W        W67641  23.071   0.439  11.590
97042W        W67642  25.044  33.992   0.309
97043W        W67643  25.590  31.460  12.482
97044W        W67644  41.276  34.906  11.590
97045W        W67645  15.089  24.089   2.315
97046W        W67646  41.686  18.163  13.083
97047W        W67647  13.407  13.778   2.212
97048W        W67648  34.576  10.467  13.485
97049W        W67649  41.924  13.041  11.391
97050W        W67650   7.527  38.102  12.127
97051W        W67651  13.287   1.213  12.851
97052W        W67652  34.575   4.696  11.544
97053W        W67653   9.585  15.181   2.902
97054W        W67654  24.544  34.951   3.240
97055W        W67655  30.049  10.393   3.230
97056W        W67656  41.332  22.077  12.092
97057W        W67657   4.441  44.850  13.054
97058W        W67658  38.933  28.115  14.571
97059W        W67659  43.886   3.920   4.754
97060W        W67660  18.779  40.468   1.084
97061W        W67661   6.481   0.917   1.287
97062W        W67662  17.311   1.929   2.273
97063W        W67663  37.868  18.066  10.687
97064W        W67664  41.838   1.906   2.161
97065W        W67665   8.797  36.524   1.849
97066W        W67666  15.070  28.470   0.194
97067W        W67667   2.022  23.723   1.414
97068W        W67668   7.310   6.996   4.117
97069W        W67669  40.059   2.279  10.805
97070W        W67670   8.974  44.762   3.187
97071W        W67671  42.902   2.663  13.810
97072W        W67672  20.763  39.731   5.063
97073W        W67673  10.042  13.518  14.829
97074W        W67674  37.993   4.726   3.786
97075W        W67675   4.177  28.279  11.489
97076W        W67676  44.474  19.519  13.307
97077W        W67677  23.019  14.974   3.323
97078W        W67678  42.566  30.506  10.731
97079W        W67679  36.714  34.903   0.730
97080W        W67680   0.034  37.389   3.637
97081W        W67681  10.160  37.095   3.672
97082W        W67682  15.149   9.935   1.408
97083W        W67683   4.276  11.432   2.245
97084W        W67684  18.818   5.226   9.994
97085W        W67685  12.146  43.894   0.896
97086W        W67686  12.721  37.404   4.276
97087W        W67687   7.224  44.499  14.038
97088W        W67688   2.932  41.728  13.668
97089W        W67689  18.567  35.635  14.507
97090W        W67690  38.929  40.112  10.789
97091W        W67691  26.905   3.473  12.892
97092W        W67692  17.044  35.590   3.731
97093W        W67693   1.556   6.296   3.338
97094W        W67694  26.522   2.152  12.507
97095W        W67695   8.703   4.782   1.063
97096W        W67696  38.589  29.303   0.319
97097W        W67697  29.253  29.289  14.017
97098W        W67698  33.522   6.873   0.971
97099W        W67699  12.270  17.574  14.825
97100W        W67700   3.443  32.244   3.288
97101W        W67701  21.162  15.709   3.093
97102W        W67702  41.277   3.190  14.691
97103W        W67703  23.219  34.440   3.075
97104W        W67704  19.281   4.893   2.631
97105W        W67705  43.760  10.818   1.667
97106W        W67706   1.647   4.893  14.482
97107W        W67707  38.881  22.250   0.219
97108W        W67708  22.889  35.158  12.074
97109W        W67709  32.256  11.441  12.435
97110W        W67710  19.386  25.022  14.532
97111W        W67711   4.892  36.538  11.363
97112W        W67712  27.990  41.274   0.696
97113W        W67713  20.108  17.835  12.423
97114W        W67714   7.717  18.973  10.767
97115W        W67715  21.947  33.619  10.806
97116W        W67716  19.186   7.811   4.440
97117W        W67717  28.564  33.740   3.722
97118W        W67718  17.164   6.648  12.897
97119W        W67719  35.451   7.784   2.576
97120W        W67720  17.558  21.242   0.916
97121W        W67721   4.790  39.257  11.516
97122W        W67722   9.203  17.440   3.576
97123W        W67723   4.333  14.427   3.151
97124W        W67724  43.492  25.525  14.042
97125W        W67725   7.699  15.266   3.638
97126W        W67726  17.972   7.530  12.389
97127W        W67727  43.855  43.122  13.466
97128W        W67728  14.566  21.607   3.400
97129W        W67729  17.862  27.101   3.359
97130W        W67730  20.689  27.894  11.969
97131W        W67731  30.751  28.946  14.326
97132W        W67732  24.202   6.108  13.909
97133W        W67733  20.187   9.675   3.749
97134W        W67734  17.867  14.247  12.284
97135W        W67735  13.171  30.428   1.325
97136W        W67736  12.717  31.363  10.539
97137W        W67737  29.542  42.481   4.256
97138W        W67738  27.569  31.093  10.997
97139W        W67739  41.470   7.774   4.169
97140W        W67740  30.481  12.265  13.334
97141W        W67741  30.206  27.194   3.173
97142W        W67742  38.334  17.688  14.649
97143W        W67743  39.236   5.751  11.926
97144W        W67744  20.200   4.929  13.092
97145W        W67745  35.882  14.044  14.844
97146W        W67746   2.700  41.933  12.375
97147W        W67747   6.196  35.840  13.957
97148W        W67748  40.721  34.990  12.396
97149W        W67749  16.062  30.104  14.546
97150W        W67750  41.485   1.999   3.825
97151W        W67751   5.623   7.120   1.678
97152W        W67752  16.795  27.894   3.333
97153W        W67753  28.727  24.022  14.314
97154W        W67754  18.696  38.667  13.496
97155W        W67755   2.098   6.424  14.835
97156W        W67756  28.397  27.545  10.283
97157W        W67757   2.217  42.218   4.800
97158W        W67758   4.296   1.810   3.779
97159W        W67759   5.754  41.445   0.326
97160W        W67760  10.621   9.347  11.545
97161W        W67761  17.209  35.803  14.514
97162W        W67762  36.572  31.496   1.796
97163W        W67763  30.981   2.582   4.813
97164W        W67764  20.516   9.911  14.034
97165W        W67765  31.037  40.262   2.363
97166W        W67766  15.291   4.348  14.193
97167W        W67767  31.335  38.864  11.471
97168W        W67768   9.675  26.532   1.763
97169W        W67769  11.701  41.567  14.509
97170W        W67770  22.582  17.064   4.982
97171W        W67771   1.210  13.510   2.837
97172W        W67772   1.632  26.122  12.904
97173W        W67773   3.195   0.560  13.621
97174W        W67774  42.707  12.163   0.218
97175W        W67775  19.640  28.422   2.406
97176W        W67776  38.963  41.423   1.191
97177W        W67777  11.373   5.299  14.308
97178W        W67778   4.711   3.441  14.796
97179W        W67779   1.610   0.361  13.348
97180W        W67780   4.622   9.512  11.135
97181W        W67781  31.372   8.766  14.790
97182W        W67782  29.704  16.782   4.736
97183W        W67783  18.667   8.452   3.388
97184W        W67784  20.208  10.908   4.109
97185W        W67785  24.191  30.933   3.539
97186W        W67786  39.516   4.335   2.803
97187W        W67787  34.715   2.955   2.481
97188W        W67788   6.381  28.922  13.406
97189W        W67789  23.453   3.197  11.170
97190W        W67790  42.423  44.631  12.090
97191W        W67791  19.465   7.293   1.792
97192W        W67792  28.913  41.527   1.699
97193W        W67793  41.866   1.555  12.843
97194W        W67794   1.392  10.338   3.317
97195W        W67795  33.460   1.340  11.187
97196W        W67796   6.520  32.813  13.822
97197W        W67797  34.074   4.530  11.556
97198W        W67798  12.075  19.308   1.241
97199W        W67799  22.639  34.996  10.841
97200W        W67800  19.106   1.004   2.218
97201W        W67801  31.506   0.036   4.156
97202W        W67802  35.441  36.134   1.733
97203W        W67803  34.337  44.666  14.819
97204W        W67804   4.848  12.725   3.788
97205W        W67805  21.848  22.612   3.916
97206W        W67806   1.204   5.680  13.081
97207W        W67807  31.714  17.169   4.424
97208W        W67808  25.937   9.560   1.777
97209W        W67809  16.252  14.422  11.579
97210W        W67810  31.113  27.568   4.150
97211W        W67811  29.213  33.399   2.883
97212W        W67812  24.035  29.975  12.376
97213W        W67813  20.215  39.808  12.410
97214W        W67814   3.332  30.508   2.635
97215W        W67815  38.012  33.018  11.953
97216W        W67816  14.129  39.361  13.473
97217W        W67817  39.851  41.572   2.328
97218W        W67818  34.357  33.509   1.881
97219W        W67819  42.486   9.763   1.359
97220W        W67820  33.322  25.639   0.868
97221W        W67821  39.961  34.934   1.224
97222W        W67822  29.928  10.789  11.166
97223W        W67823  35.327  19.107  12.293
97224W        W67824  12.639  41.667   4.971
97225W        W67825  21.103  37.354   3.195
97226W        W67826  36.738  33.126   4.298
97227W        W67827   0.534  19.514  13.874
97228W        W67828   5.913  33.944  10.976
97229W        W67829   5.243  24.751   3.122
97230W        W67830  44.750   9.900   0.015
97231W        W67831  15.521  13.341  11.970
97232W        W67832  12.125   0.341   1.369
97233W        W67833  43.260  17.216   2.837
97234W        W67834  22.152  34.060   2.456
97235W        W67835  26.295  25.974   2.677
97236W        W67836  44.422  44.320  13.139
97237W        W67837  31.573  44.786   0.373
97238W        W67838   4.255  14.617  13.442
97239W        W67839   7.236  23.965  11.537
97240W        W67840  24.949  22.281  14.307
97241W        W67841  32.727  39.053   1.941
97242W        W67842  10.594  12.695  14.667
97243W        W67843   1.939  19.732  13.765
97244W        W67844  35.501  16.546   4.623
97245W        W67845  28.758  33.227  12.939
97246W        W67846   8.908  34.117  12.933
97247W        W67847  18.205   0.168  10.744
97248W        W67848  33.911  34.137   0.260
97249W        W67849  12.899  40.962  14.713
97250W        W67850  14.666  20.184  13.435
97251W        W67851  13.985  32.078  12.297
97252W        W67852  32.794  25.351  10.427
97253W        W67853   6.485  43.385   0.269
97254W        W67854   3.290  15.572   3.137
97255W        W67855  10.322  29.112  12.925
97256W        W67856  10.723  37.819   3.328
97257W        W67857   7.275  25.573  12.442
97258W        W67858  36.216  11.756   4.499
97259W        W67859   4.299  30.974   3.826
97260W        W67860  38.317  38.297   3.441
97261W        W67861   8.252  33.469   0.166
97262W        W67862  10.426   0.164  11.066
97263W        W67863  31.676  27.635  10.439
97264W        W67864  36.967  20.822  12.884
97265W        W67865  22.115  43.093   5.559
97266W        W67866   9.718   6.886   4.377
97267W        W67867  25.132   6.414   0.260
97268W        W67868  24.627  12.087  12.361
97269W        W67869  10.806  42.488  13.059
97270W        W67870   2.160  37.167  14.404
97271W        W67871  18.652  11.639  11.532
97272W        W67872   1.409  10.431  14.928
97273W        W67873  17.534  11.401   3.646
97274W        W67874  27.073  13.759  11.668
97275W        W67875  44.754  19.153  11.610
97276W        W67876  39.983  21.150  11.681
97277W        W67877  11.912  32.685  11.073
97278W        W67878   1.936  15.315  11.437
97279W        W67879  16.563  43.100  14.806
97280W        W67880  39.633   4.875  13.408
97281W        W67881  13.854  22.006  13.904
97282W        W67882   4.525  34.611  14.346
97283W        W67883  28.808  16.844   3.221
97284W        W67884  12.335  36.876  10.724
97285W        W67885  42.432   6.924   3.331
97286W        W67886  10.044  43.936  13.782
97287W        W67887  16.728  27.128  14.527
97288W        W67888   6.489  16.162  14.461
97289W        W67889  10.006   6.526  14.945
97290W        W67890  17.441   4.300   3.743
97291W        W67891  26.159  28.924   0.438
97292W        W67892  40.318   5.329   2.518
97293W        W67893  10.301  14.356  10.700
97294W        W67894  39.655  29.647  11.667
97295W        W67895  24.010   3.724   1.941
97296W        W67896   1.708  35.115   1.372
97297W        W67897  41.417  17.201  10.750
97298W        W67898  40.377  14.113  13.337
97299W        W67899  26.551  40.946   3.260
97300W        W67900  26.624  27.414  13.010
97301W        W67901  20.667   0.521   0.295
97302W        W67902  28.493  22.569  12.895
97303W        W67903  27.334  37.057   0.389
97304W        W67904   1.013  27.643   3.103
97305W        W67905  30.276  39.991  12.065
97306W        W67906  42.013  32.166  10.272
97307W        W67907  14.372  39.237   4.070
97308W        W67908  21.205  39.554   2.890
97309W        W67909  33.358  29.975   1.276
97310W        W67910  33.526  38.782  11.419
97311W        W67911  10.807  43.084   2.616
97312W        W67912   3.697  37.501  11.978
97313W        W67913  20.578  32.657  13.358
97314W        W67914  22.194  29.504  12.860
97315W        W67915  32.134  35.508  11.603
97316W        W67916  29.062  29.846   4.194
97317W        W67917   8.723  21.630   0.199
97318W        W67918  26.850   8.764  12.823
97319W        W67919  27.858  37.864   2.333
97320W        W67920  29.243  36.414   2.764
97321W        W67921   4.809  42.060   2.637
97322W        W67922  43.150  21.636   2.232
97323W        W67923   1.692  10.221   0.328
97324W        W67924  37.326  26.194  12.453
97325W        W67925  12.226  26.642   2.698
97326W        W67926  39.319  37.625   3.136
97327W        W67927   5.456  22.104   0.315
97328W        W67928   9.675  33.028   4.285
97329W        W67929  40.256  28.947  14.761
97330W        W67930  33.920  22.089  11.477
97331W        W67931   8.428  18.299  13.471
97332W        W67932  24.012  28.936  14.482
97333W        W67933  19.512  39.466   1.454
97334W        W67934   0.554  13.725   1.814
97335W        W67935  22.724  39.728   1.811
97336W        W67936  37.358   6.794   2.319
97337W        W67937  33.901   5.858   2.195
97338W        W67938  20.305  42.848  14.134
97339W        W67939  38.722  16.256  14.793
97340W        W67940  31.290  17.071   3.528
97341W        W67941  39.807  22.716  10.785
97342W        W67942   9.180  33.668   0.382
97343W        W67943  10.559  32.447   0.117
97344W        W67944  27.024  24.100  11.800
97345W        W67945  20.301   0.838   1.006
97346W        W67946  34.905   7.043  12.636
97347W        W67947  43.464  44.915   3.998
97348W        W67948  15.803  25.491  14.106
97349W        W67949  19.171  14.392   0.832
97350W        W67950  10.799  12.653  14.119
97351W        W67951   6.502  31.443   1.183
97352W        W67952  14.907  36.824   0.795
97353W        W67953  41.345  29.786  13.514
97354W        W67954  42.851  31.636  10.553
97355W        W67955  29.411  35.116   0.394
97356W        W67956  20.734  42.337   3.319
97357W        W67957  42.772  37.652   3.165
97358W        W67958  44.355  35.192  12.346
97359W        W67959   7.807  37.018   0.226
97360W        W67960  14.625  35.082  11.414
97361W        W67961  30.011   9.910  12.594
97362W        W67962  14.677  11.981   2.735
97363W        W67963  34.532  22.264   2.200
97364W        W67964  21.193  39.626   0.793
97365W        W67965  16.677  40.043   1.971
97366W        W67966  10.632  10.313  12.334
97367W        W67967  27.477  22.448   0.318
97368W        W67968  26.403  24.182   3.181
97369W        W67969  43.506   6.744  12.064
97370W        W67970   7.302  23.991  10.656
97371W        W67971   7.677  44.937   2.690
97372W        W67972  31.684   7.826   0.757
97373W        W67973  28.337  11.713   3.604
97374W        W67974  38.826  11.210   4.097
97375W        W67975   9.534   4.254  12.517
97376W        W67976  31.883  42.448  13.906
97377W        W67977  15.775  32.284  13.511
97378W        W67978  44.838  10.788   4.537
97379W        W67979  13.816  35.524  12.460
97380W        W67980  35.248  29.816   2.270
97381W        W67981  18.161  33.661  11.775
97382W        W67982  11.744  26.356   3.794
97383W        W67983  10.185   0.710  12.309
97384W        W67984  31.938  14.647   3.042
97385W        W67985   9.287  44.215   2.344
97386W        W67986  29.170  39.790  14.760
97387W        W67987  14.377  21.352  11.063
97388W        W67988  31.491  25.675   4.712
97389W        W67989  32.879  43.458   3.394
97390W        W67990  10.166   4.797  14.433
97391W        W67991  17.537  25.540   0.678
97392W        W67992  29.970  39.866   0.206
97393W        W67993  36.627  32.001  11.525
97394W        W67994  41.120  41.603  10.716
97395W        W67995  35.015   4.364   4.109
97396W        W67996   2.983  44.659  14.392
97397W        W67997   8.985  43.480   2.870
97398W        W67998   0.056  37.028   4.254
97399W        W67999   1.797  43.983   2.726
97400W        W68000   7.924  33.149  11.529
97401W        W68001   6.342   8.043   2.904
97402W        W68002  32.905   9.010   0.487
97403W        W68003  18.637  16.061  13.030
97404W        W68004  22.673  20.191   1.206
97405W        W68005   2.932  28.065   0.327
97406W        W68006  32.176  21.682   3.282
97407W        W68007  43.805  12.930   3.766
97408W        W68008  10.525   7.002  11.857
97409W        W68009  35.002   7.098  11.150
97410W        W68010   0.066  33.695  12.194
97411W        W68011   7.835  38.923   3.605
97412W        W68012  11.076  37.887  13.197
97413W        W68013  22.580  25.699  11.059
97414W        W68014  31.454  11.746   1.467
97415W        W68015  31.030   8.961  14.370
97416W        W68016  11.088  43.596   0.408
97417W        W68017  17.436   2.161   1.413
97418W        W68018  25.049  29.030   2.870
97419W        W68019  28.103  37.868   3.600
97420W        W68020  37.110   3.791   4.561
97421W        W68021  13.767  22.217   1.625
97422W        W68022  19.678   0.738  10.602
97423W        W68023   9.207  15.086  10.595
97424W        W68024  32.102   7.126   3.781
97425W        W68025   4.287   1.376  12.966
97426W        W68026  37.037  31.123   2.699
97427W        W68027  26.459  17.827  13.523
97428W        W68028  44.283  35.650  11.502
97429W        W68029  26.047  31.038   1.143
97430W        W68030  18.583  19.492   4.382
97431W        W68031   7.425  35.848   4.117
97432W        W68032  41.271   9.279   2.642
97433W        W68033  21.774  42.662  14.641
97434W        W68034  26.534  23.290  12.416
97435W        W68035  34.985  18.236  14.799
97436W        W68036  29.946  17.123   3.770
97437W        W68037  29.468  19.821  13.956
97438W        W68038  13.367  37.570  11.681
97439W        W68039   4.803  32.172   3.579
97440W        W68040  27.643   2.239   2.165
97441W        W68041  28.049  24.679  14.000
97442W        W68042   6.263   8.363  12.402
97443W        W68043  15.796  26.071   0.945
97444W        W68044   2.366  35.459  10.673
97445W        W68045  24.752  42.067   1.427
97446W        W68046  19.702   8.288   2.361
97447W        W68047  15.125  16.421  11.961
97448W        W68048  22.453  34.031  12.431
97449W        W68049  36.294   1.926  10.911
97450W        W68050  16.548  20.056  13.338
97451W        W68051  31.109  20.938   2.775
97452W        W68052  17.611  17.345  12.024
97453W        W68053  32.151  39.512  13.302
97454W        W68054  30.139  15.371   2.446
97455W        W68055  14.042  41.252  14.421
97456W        W68056  20.226  28.003   1.474
97457W        W68057  40.583   5.378   0.013
97458W        W68058   5.371  25.049  10.762
97459W        W68059  34.263  29.733  13.965
97460W        W68060  19.216  33.703   2.720
97461W        W68061   1.466  31.119   4.090
97462W        W68062  37.896   7.870  10.824
97463W        W68063  19.090   7.349   0.897
97464W        W68064  41.527  33.931   1.330
97465W        W68065  16.204  39.986   1.751
97466W        W68066   9.788  27.882   2.747
97467W        W68067  44.896  23.016   3.369
97468W        W68068  36.341  27.993  10.592
97469W        W68069   9.775  18.571  14.508
97470W        W68070  23.356  16.623   0.834
97471W        W68071  11.872   1.933  13.262
97472W        W68072  24.992  26.033  14.419
97473W        W68073  41.493  11.332  12.720
97474W        W68074   3.256  25.036   4.506
97475W        W68075  11.806  28.691  14.497
97476W        W68076  40.299   5.020   1.499
97477W        W68077   5.338  23.635  13.386
97478W        W68078  16.694  26.241   2.782
97479W        W68079  23.209  22.516  12.488
97480W        W68080  30.248  32.994   3.620
97481W        W68081  25.015  14.185  13.512
97482W        W68082   5.375  35.084  10.349
97483W        W68083   9.373  34.510   2.328
97484W        W68084  32.804   6.295  13.019
97485W        W68085  32.582  23.259   3.884
97486W        W68086   2.671  14.345  10.520
97487W        W68087  30.786  37.680  10.362
97488W        W68088  22.076   6.706  13.510
97489W        W68089   0.440  17.524  11.106
97490W        W68090  12.098  22.203  11.517
97491W        W68091   6.843  25.741  10.696
97492W        W68092  44.313  12.994   3.877
97493W        W68093  12.583   1.575   1.326
97494W        W68094  24.153  14.143   1.319
97495W        W68095  15.596   9.673  13.927
97496W        W68096  31.098  32.435  14.799
97497W        W68097  31.434   3.520   2.969
97498W        W68098  42.787  35.014  11.574
97499W        W68099  44.208  38.188  14.828
97500W        W68100  41.753   2.466  10.913
97501W        W68101  27.441  12.785  14.897
97502W        W68102  44.720   4.262  12.445
97503W        W68103   0.456  38.538   3.298
97504W        W68104  12.205  13.344  14.405
97505W        W68105  20.700  29.104  14.362
97506W        W68106   4.641  38.214  14.204
97507W        W68107   0.895   5.828   2.491
97508W        W68108  34.668  20.280  13.463
97509W        W68109  42.004  38.756  10.758
97510W        W68110  12.606  30.691   2.049
97511W        W68111  15.379  41.447   2.112
97512W        W68112  11.813  16.366  12.078
97513W        W68113  31.764  38.003  12.401
97514W        W68114  44.742  41.782  11.028
97515W        W68115  25.956   1.689   3.310
97516W        W68116  21.103  41.414  11.723
97517W        W68117  33.623  28.429   3.741
97518W        W68118  22.485   9.908   4.177
97519W        W68119  41.420   2.831   0.470
97520W        W68120   6.836  13.619   2.391
97521W        W68121  43.985  31.014   1.309
97522W        W68122  27.707  29.474   4.623
97523W        W68123  16.331  15.290  14.298
97524W        W68124   0.285  34.303  10.672
97525W        W68125  38.075  30.105   1.741
97526W        W68126  23.371  21.220   0.904
97527W        W68127  32.511  34.865   3.681
97528W        W68128  12.431  30.218   3.704
97529W        W68129  12.779  44.509  10.458
97530W        W68130  39.837  42.565   3.346
97531W        W68131  41.247  37.922  14.776
97532W        W68132  14.289   0.667  13.914
97533W        W68133  30.980  37.402  12.416
97534W        W68134   1.228  35.100  14.077
97535W        W68135   2.881  13.396   1.648
97536W        W68136  28.048  15.658  14.575
97537W        W68137   3.765  41.488  10.946
97538W        W68138  43.906  41.854  11.019
97539W        W68139   7.717   9.174  11.564
97540W        W68140  33.927  41.347   4.180
97541W        W68141  35.957  17.906   4.499
97542W        W68142  27.981  42.121  12.582
97543W        W68143   4.125  11.307  11.490
97544W        W68144  19.484  39.050  12.026
97545W        W68145  11.336  10.456  11.661
97546W        W68146  26.479  44.867  10.345
97547W        W68147  23.563  23.766   4.161
97548W        W68148   2.366   1.439  11.110
97549W        W68149  40.930  24.518   4.862
97550W        W68150  23.129  23.911   0.165
97551W        W68151  37.291  19.604  12.524
97552W        W68152  31.644  30.076  13.020
97553W        W68153   4.688   5.760   1.251
97554W        W68154  10.787  44.824  14.064
97555W        W68155   7.440  43.822   2.211
97556W        W68156   5.734  25.115   1.692
97557W        W68157  22.707  29.041   2.119
97558W        W68158  10.642  36.012   4.021
97559W        W68159  40.883   1.398   2.824
97560W        W68160  21.568  31.935   0.760
97561W        W68161  21.431  12.883  10.340
97562W        W68162  35.529  19.257  14.784
97563W        W68163  14.550  29.820   2.280
97564W        W68164  40.902  38.126  12.188
97565W        W68165   4.688   6.126  10.684
97566W        W68166  10.405   0.333   1.580
97567W        W68167   1.540  41.379  11.673
97568W        W68168   8.361   8.828  14.492
97569W        W68169  24.912  41.321  12.030
97570W        W68170   6.997  19.726  13.103
97571W        W68171  33.450   0.693  13.369
97572W        W68172  19.924  17.719  14.675
97573W        W68173  28.732  21.261  12.339
97574W        W68174  34.103   8.699   4.151
97575W        W68175  34.461  13.211   0.534
97576W        W68176  12.106  41.077  11.069
97577W        W68177  36.791  42.423   0.794
97578W        W68178  26.969   4.970  12.944
97579W        W68179  22.859  16.342   0.366
97580W        W68180  19.710  30.338   4.090
97581W        W68181   3.259  36.362  12.454
97582W        W68182  23.799   6.750   4.187
97583W        W68183  23.070  15.659  13.389
97584W        W68184  10.382  31.884   1.293
97585W        W68185  32.376  16.503   4.158
97586W        W68186  28.115  31.969  14.399
97587W        W68187   6.470  37.868   2.213
97588W        W68188   2.443   5.198  13.307
97589W        W68189  15.484   3.764   0.027
97590W        W68190  10.142   3.417  11.621
97591W        W68191  41.459  26.683   0.983
97592W        W68192  44.844  44.302   1.225
97593W        W68193  26.515  42.683  13.880
97594W        W68194   2.569  13.321  14.290
97595W        W68195  33.416   8.393  11.599
97596W        W68196  24.261   5.796   1.176
97597W        W68197  17.572  27.136   0.422
97598W        W68198  34.045  26.668   4.064
97599W        W68199   9.444   9.438   4.661
97600W        W68200  41.891   1.183   2.767
97601W        W68201  25.708  11.495   2.355
97602W        W68202  43.025  37.659  12.888
97603W        W68203  34.425  28.089  10.765
97604W        W68204  43.443   1.709   4.054
97605W        W68205  33.902  23.596   0.538
97606W        W68206   9.743  24.668  14.925
97607W        W68207   3.831  25.901  11.641
97608W        W68208  24.847  34.223   4.174
97609W        W68209   5.848  31.165   4.554
97610W        W68210   9.212   0.939   1.934
97611W        W68211  18.281   9.758  13.193
97612W        W68212  40.820  34.382   0.375
97613W        W68213   7.442   4.640   3.223
97614W        W68214  41.367  38.459   0.836
97615W        W68215  30.099  27.318  11.693
97616W        W68216  30.507  39.598  14.530
97617W        W68217  11.262  39.117   0.754
97618W        W68218  11.306  14.322  14.049
97619W        W68219  13.654  27.026  14.883
97620W        W68220  28.218  14.653   3.794
97621W        W68221   3.741  33.971   3.598
97622W        W68222  23.643  31.316   4.169
97623W        W68223  10.859   0.314  14.784
97624W        W68224  41.880  27.992   1.603
97625W        W68225  38.907   2.956  12.899
97626W        W68226  31.936   9.892   1.778
97627W        W68227  28.111  37.064  12.064
97628W        W68228  28.442  14.264   0.337
97629W        W68229  31.529   9.508   0.304
97630W        W68230   3.230  21.563   1.348
97631W        W68231  29.049  34.804   1.610
97632W        W68232  30.495  38.837  10.703
97633W        W68233   0.296  11.325   2.878
97634W        W68234  38.059  30.369  12.459
97635W        W68235  25.257  35.783  11.982
97636W        W68236  36.600   9.919   1.943
97637W        W68237  44.512  43.552   4.227
97638W        W68238   2.317   6.842   4.345
97639W        W68239  37.327  43.972   1.269
97640W        W68240  20.974  18.072   0.958
97641W        W68241  25.497  10.989   3.115
97642W        W68242  21.988  43.343  13.355
97643W        W68243  43.501  26.673   4.181
97644W        W68244  26.252  36.539   1.013
97645W        W68245  31.454  38.500   2.799
97646W        W68246  33.882   9.049   0.693
97647W        W68247  34.508  35.949  10.745
97648W        W68248  28.420   3.262  14.306
97649W        W68249   0.718  13.771  12.080
97650W        W68250   3.931  22.970   0.521
97651W        W68251  37.115  11.416   3.767
97652W        W68252   4.462  36.536  11.647
97653W        W68253  43.497  16.182   3.899
97654W        W68254  41.903  11.238  11.999
97655W        W68255  18.357  11.803  13.973
97656W        W68256  18.985  22.831   2.787
97657W        W68257   7.387  42.309  14.369
97658W        W68258  12.706   4.545   1.206
97659W        W68259  24.206  43.625  13.095
97660W        W68260  17.264  10.449  10.737
97661W        W68261  10.307  35.110   4.539
97662W        W68262   3.822  35.916   4.041
97663W        W68263  44.378  14.397   1.652
97664W        W68264   1.165  35.558  12.177
97665W        W68265  26.145  14.237   3.249
97666W        W68266  26.504  28.011   4.648
97667W        W68267  25.667  37.294   0.571
97668W        W68268  22.069   4.628   0.630
97669W        W68269  35.119  27.896  12.904
97670W        W68270  10.807  34.570  11.637
97671W        W68271  26.424  34.609  12.233
97672W        W68272  44.402   0.769  14.992
97673W        W68273  21.726   0.628   4.110
97674W        W68274   4.853  37.420  11.209
97675W        W68275  10.267  32.448   3.749
97676W        W68276  14.344  41.417   1.028
97677W        W68277  34.904  10.297  11.580
97678W        W68278  27.611  43.964  10.846
97679W        W68279   3.328  24.216  12.800
97680W        W68280   6.763   6.285   4.316
97681W        W68281  36.036  21.454   2.888
97682W        W68282  32.245  34.097   3.089
97683W        W68283  39.731  27.640  13.127
97684W        W68284  33.640   0.478   4.802
97685W        W68285  27.104  13.204   2.497
97686W        W68286  16.317  30.913   3.782
97687W        W68287  11.139   0.362   2.350
97688W        W68288   2.384  15.807  14.911
97689W        W68289  11.664  12.842   1.396
97690W        W68290  24.656  16.682  14.817
97691W        W68291  16.083  39.603  12.530
97692W        W68292  24.373   4.072  12.193
97693W        W68293  35.393  11.777   4.592
97694W        W68294  31.457  31.021   3.221
97695W        W68295  16.244  14.542  10.267
97696W        W68296  24.028  18.522   3.741
97697W        W68297  37.543  35.289   4.869
97698W        W68298  43.984  14.926   3.634
97699W        W68299   8.263  29.510   4.668
97700W        W68300  31.372  27.475  14.339
97701W        W68301  18.214  43.333   2.001
97702W        W68302   0.764   1.962  13.624
97703W        W68303  26.928  16.204  14.284
97704W        W68304  22.772   1.101  10.624
97705W        W68305  28.550  22.566  13.406
97706W        W68306  24.212   2.965   1.881
97707W        W68307   0.218  27.597   3.683
97708W        W68308  20.349  42.429   4.360
97709W        W68309  20.067  19.585   4.872
97710W        W68310  18.884  27.589   4.109
97711W        W68311  40.436  22.419  13.002
97712W        W68312  17.657  41.769  12.415
97713W        W68313  43.458  14.542   2.161
97714W        W68314   6.792  42.356   4.195
97715W        W68315  12.170   2.783  10.568
97716W        W68316  13.232  27.499   4.389
97717W        W68317  17.117   8.907   2.869
97718W        W68318  40.570  41.769   4.178
97719W        W68319  35.965  13.712   2.399
97720W        W68320  44.935   8.990   1.144
97721W        W68321  42.828  24.255  14.024
97722W        W68322  39.445  32.044   3.659
97723W        W68323  17.766  23.802  12.784
97724W        W68324  38.952  32.197   4.030
97725W        W68325  12.143  26.707  10.718
97726W        W68326   6.747  23.161   4.499
97727W        W68327  21.845  43.270   0.861
97728W        W68328  40.973  13.034   3.967
97729W        W68329  15.262  44.065   0.872
97730W        W68330  42.198  28.098  11.186
97731W        W68331  25.786  35.767  12.002
97732W        W68332  40.173  38.849   4.287
97733W        W68333  44.842   9.841  11.671
97734W        W68334  14.206  27.105  13.906
97735W        W68335  28.926  31.697  12.472
97736W        W68336  18.819  31.693  13.481
97737W        W68337  22.379  22.601   3.870
97738W        W68338  11.665  38.523   1.754
97739W        W68339   9.291   2.779  11.260
97740W        W68340   2.264   6.863   1.050
97741W        W68341  22.013  19.876   2.859
97742W        W68342   5.981  30.163  13.972
97743W        W68343  42.520  35.448  10.347
97744W        W68344  24.506   6.512  12.396
97745W        W68345  10.886   9.790   1.720
97746W        W68346   0.287  14.238   1.781
97747W        W68347  21.039  41.597   1.040
97748W        W68348  37.296  31.659  13.398
97749W        W68349   6.423   9.703  12.499
97750W        W68350  28.602  19.221  13.624
97751W        W68351   5.031  36.425   3.035
97752W        W68352  27.470  10.274   0.770
97753W        W68353  27.606  12.054   1.680
97754W        W68354   7.368  11.980   1.976
97755W        W68355   0.267   1.744   4.460
97756W        W68356  25.814  35.427   4.057
97757W        W68357  27.365  29.012   3.252
97758W        W68358  38.033   2.545  12.513
97759W        W68359  34.685  14.434   1.712
97760W        W68360  18.893  37.911   0.533
97761W        W68361  30.299  28.389   0.398
97762W        W68362   3.029  21.370  12.342
97763W        W68363   1.457  19.529   4.208
97764W        W68364  11.761   1.665   1.540
97765W        W68365  30.988  38.229  11.589
97766W        W68366  32.431  15.899  13.943
97767W        W68367  10.190  30.906   0.791
97768W        W68368  35.055   6.326  13.633
97769W        W68369   9.106  38.425   0.153
97770W        W68370  23.315  35.417  12.253
97771W        W68371  28.537  26.020  13.980
97772W        W68372  13.871  10.486   1.068
97773W        W68373  17.543  14.218   1.143
97774W        W68374  12.840  33.140   3.574
97775W        W68375  17.107  11.337  12.124
97776W        W68376  13.160  12.305  12.810
97777W        W68377  30.107  42.073   4.712
97778W        W68378   3.781  38.312  14.286
97779W        W68379  44.735  11.260  10.824
97780W        W68380  31.632  30.885  13.502
97781W        W68381   0.410  34.459   2.945
97782W        W68382  26.551  29.902   4.574
97783W        W68383  28.699  36.017  13.003
97784W        W68384  41.937  12.161   4.925
97785W        W68385  27.083  17.750   1.427
97786W        W68386   4.649  27.638  12.531
97787W        W68387   6.012  11.878   0.719
97788W        W68388  25.232  16.840   1.249
97789W        W68389  23.081  25.478  14.317
97790W        W68390  22.350  40.764   3.339
97791W        W68391  13.752   9.156  14.442
97792W        W68392  31.618   4.739  10.139
97793W        W68393  36.040   9.217   2.216
97794W        W68394  13.675  24.918  11.580
97795W        W68395  13.034  32.961   4.644
97796W        W68396   1.592   4.477   1.398
97797W        W68397  16.251  16.617   2.663
97798W        W68398  29.094  26.657   1.001
97799W        W68399  14.229  33.392   4.580
97800W        W68400  42.356  22.752   3.541
97801W        W68401  36.047  17.568   1.686
97802W        W68402  34.896  41.847   4.819
97803W        W68403  30.295  22.230  13.282
97804W        W68404  40.049  33.443   0.795
97805W        W68405  16.058  35.799   3.881
97806W        W68406  18.906  30.955  11.060
97807W        W68407  30.410   8.008   0.218
97808W        W68408   4.060  35.248   0.362
97809W        W68409  42.611  19.097  12.084
97810W        W68410   9.834   6.262  14.294
97811W        W68411  24.033  39.035   3.646
97812W        W68412  38.430  20.557  11.100
97813W        W68413  20.117  17.990   5.083
97814W        W68414  29.059  13.069  12.158
97815W        W68415  22.429   9.314  11.299
97816W        W68416  23.428  36.382   1.293
97817W        W68417   0.295  32.914  12.602
97818W        W68418  35.438  27.001  12.493
97819W        W68419  26.014  33.514  10.705
97820W        W68420  29.476  15.272   0.731
97821W        W68421   3.133  29.271  14.759
97822W        W68422  15.244  23.188  12.078
97823W        W68423  24.638  13.552   2.939
97824W        W68424   7.549   5.340  12.411
97825W        W68425  20.548   6.282  12.459
97826W        W68426  38.442  12.066   4.433
97827W        W68427  22.670   5.475   4.164
97828W        W68428  22.089  23.986   0.636
97829W        W68429  17.765  35.109  11.342
97830W        W68430  27.570  31.587  11.180
97831W        W68431  39.577  18.176   2.236
97832W        W68432  42.860  35.221   3.263
97833W        W68433  41.744   9.428   3.246
97834W        W68434  11.412  22.056   3.161
97835W        W68435  20.159  27.863   2.815
97836W        W68436  43.896  42.477   2.508
97837W        W68437   4.233  16.990  12.945
97838W        W68438  19.259  40.484   3.850
97839W        W68439  14.073  44.898  13.463
97840W        W68440  32.880  19.568   3.110
97841W        W68441   5.085  44.742  11.993
97842W        W68442  23.115  13.180   2.314
97843W        W68443  23.167   0.011  13.571
97844W        W68444  36.476   5.861  13.129
97845W        W68445  18.586  11.787  14.437
97846W        W68446   1.855  32.147   2.696
97847W        W68447  22.663  43.465  14.172
97848W        W68448  17.296  30.203  13.911
97849W        W68449  25.577  39.579   3.881
97850W        W68450  35.746  36.883   3.818
97851W        W68451  41.303  40.513   0.267
97852W        W68452  17.774  30.367  14.044
97853W        W68453  41.815  16.689   4.614
97854W        W68454  14.101  39.569  12.553
97855W        W68455  22.710  26.943   0.888
97856W        W68456  42.985   0.203  10.636
97857W        W68457  19.702  21.254  11.843
97858W        W68458  26.568  17.685   0.806
97859W        W68459  25.810  34.851  13.785
97860W        W68460  15.723  24.453  13.430
97861W        W68461  30.564  19.111   1.166
97862W        W68462  41.535  16.911   4.171
97863W        W68463   4.879  41.143  13.502
97864W        W68464  11.433   2.277   1.940
97865W        W68465  12.620  37.048  12.965
97866W        W68466  42.436  34.398   3.380
97867W        W68467   2.336  28.092  11.922
97868W        W68468  14.222   5.265   0.723
97869W        W68469  29.648  17.596  14.086
97870W        W68470  24.246  20.588  12.024
97871W        W68471  27.993   2.738  11.618
97872W        W68472   1.144  42.820   2.706
97873W        W68473  33.921  28.942   4.541
97874W        W68474   3.182  33.420   0.770
97875W        W68475  11.794  21.614  11.410
97876W        W68476  16.636  15.104  13.393
97877W        W68477   6.970  40.227   4.132
97878W        W68478  16.336   2.406  14.769
97879W        W68479  44.920  42.914   4.749
97880W        W68480   0.050  16.744   4.028
97881W        W68481  35.912  32.501   2.180
97882W        W68482  43.926  44.727   1.864
97883W        W68483  12.028  14.149   4.167
97884W        W68484  26.688  40.651  13.729
97885W        W68485   0.806  14.606   0.842
97886W        W68486  30.628  11.323   2.763
97887W        W68487  29.087   8.832   4.143
97888W        W68488  32.998  28.422  14.956
97889W        W68489  29.520   4.702  10.435
97890W        W68490   7.718  14.825  10.442
97891W        W68491   3.279   1.149  12.282
97892W        W68492  21.488   0.504  12.990
97893W        W68493  24.658  16.136   3.839
97894W        W68494   5.224   1.964  14.300
97895W        W68495  43.055   5.773   1.750
97896W        W68496  44.449  32.029   2.824
97897W        W68497  42.031  14.165  10.948
97898W        W68498  19.050  25.194  14.878
97899W        W68499   9.831  22.744   0.409
97900W        W68500  28.950   8.342   3.425
97901W        W68501  20.983  34.395  13.985
97902W        W68502   0.363  22.280  13.869
97903W        W68503  13.797   8.344  12.944
97904W        W68504   1.725   4.991  10.907
97905W        W68505  30.925   9.138   1.250
97906W        W68506  10.688  11.440   1.426
97907W        W68507  25.470  11.168  14.193
97908W        W68508  27.732   4.455  12.480
97909W        W68509  24.662  20.775  12.840
97910W        W68510   0.868  23.202  12.358
97911W        W68511  23.935  28.352   4.657
97912W        W68512  18.298  18.782   0.347
97913W        W68513   6.280  42.175   4.649
97914W        W68514  35.479  16.573   3.658
97915W        W68515   2.203   2.705   4.836
97916W        W68516  20.163  24.963  14.113
97917W        W68517  25.178  28.763   0.100
97918W        W68518  39.455  33.913  13.777
97919W        W68519   5.916   9.177  13.853
97920W        W68520  19.188  12.669  11.998
97921W        W68521  15.581  36.273   2.720
97922W        W68522   9.068   8.470   1.630
97923W        W68523   8.620  13.650  11.521
97924W        W68524   4.886  12.115  14.437
97925W        W68525  23.234   5.720   1.109
97926W        W68526   5.810   8.345   3.132
97927W        W68527  23.446  11.597  11.710
97928W        W68528  28.071  16.502  12.312
97929W        W68529  37.024  11.826   0.958
97930W        W68530  15.581  31.825   2.066
97931W        W68531  31.637  43.287  13.939
97932W        W68532   6.831   2.547   3.705
97933W        W68533  33.396  24.469  14.773
97934W        W68534   1.829  26.897   3.744
97935W        W68535  27.876  33.399  10.943
97936W        W68536  28.374  39.879  13.818
97937W        W68537  43.044  25.708   2.201
97938W        W68538  16.466  18.592   1.740
97939W        W68539   8.185  29.044  13.503
97940W        W68540  37.222  23.272   3.188
97941W        W68541   4.536  44.461  10.625
97942W        W68542  43.780  41.906   3.351
97943W        W68543  16.242  37.101   0.072
97944W        W68544  14.752  31.931   4.689
97945W        W68545  18.133  42.011   2.767
97946W        W68546   2.912   5.292   0.696
97947W        W68547  29.169   1.230   2.186
97948W        W68548  19.147  41.981   4.716
97949W        W68549  24.025  20.991  13.010
97950W        W68550  22.042   4.982   1.905
97951W        W68551  17.766  20.175   4.723
97952W        W68552  23.223  26.008  10.784
97953W        W68553  24.695  44.028   2.825
97954W        W68554  42.989  26.767   4.213
97955W        W68555  20.338  13.161   4.081
97956W        W68556   9.601   8.088  10.930
97957W        W68557  10.950  44.830   0.848
97958W        W68558  14.551  28.126   3.644
97959W        W68559  37.020  18.653  13.474
97960W        W68560  19.527  18.517  11.600
97961W        W68561  32.855  40.921   0.928
97962W        W68562   4.327   5.259   3.257
97963W        W68563  44.858   3.959  14.975
97964W        W68564   5.520  13.906   2.182
97965W        W68565   5.301  40.807   0.280
97966W        W68566   6.991  33.258  11.633
97967W        W68567  36.019  20.711  10.747
97968W        W68568  43.256  18.469   2.568
97969W        W68569   4.890  28.987  14.994
97970W        W68570  29.698  13.020   5.000
97971W        W68571  10.316  22.604  10.838
97972W        W68572   2.680  33.080   2.712
97973W        W68573  24.533  41.882   3.889
97974W        W68574  21.515  11.417  14.853
97975W        W68575  25.236  44.737   3.697
97976W        W68576  13.172  35.327  10.624
97977W        W68577  23.067  36.613   0.029
97978W        W68578  13.743  28.676   2.389
97979W        W68579   0.339  39.035  13.323
97980W        W68580  35.328  37.168   3.765
97981W        W68581  29.287   5.802   0.324
97982W        W68582  41.251  27.990  11.015
97983W        W68583   3.537  20.485   0.050
97984W        W68584   3.438   3.600   1.922
97985W        W68585   2.922   3.802  14.035
97986W        W68586  20.584  30.129  10.907
97987W        W68587   1.822  43.498  13.528
97988W        W68588  15.179  27.561   3.597
97989W        W68589  11.483  20.765   0.137
97990W        W68590  13.873  31.423   4.090
97991W        W68591   6.615   8.710   4.599
97992W        W68592  14.173  40.292   4.109
97993W        W68593   5.973  18.546   0.930
97994W        W68594  16.106  44.061  14.559
97995W        W68595   9.843   8.609   3.761
97996W        W68596  32.025   8.848   4.055
97997W        W68597   3.771  39.492   3.062
97998W        W68598  24.002  11.834  13.563
97999W        W68599  33.013   7.276  14.345
98000W        W68600  24.911   3.805  13.379
98001W        W68601   6.766  29.605   0.544
98002W        W68602   8.609  11.598   5.110
98003W        W68603  35.035  40.760   3.841
98004W        W68604   2.652  28.223   3.109
98005W        W68605   1.017  30.909  11.122
98006W        W68606   1.976  37.427   1.209
98007W        W68607  33.107  37.768  10.764
98008W        W68608  33.945  42.990  11.465
98009W        W68609  20.513  17.332   0.806
98010W        W68610  40.308  29.446   4.630
98011W        W68611  29.138  36.085  12.305
98012W        W68612  19.112  25.103   4.119
98013W        W68613  29.127  29.439  14.936
98014W        W68614   8.757  37.059   4.616
98015W        W68615   4.303  43.388  12.465
98016W        W68616  28.439  42.240  13.904
98017W        W68617   9.856   3.256  12.075
98018W        W68618  32.326  33.428   1.772
98019W        W68619  13.145  30.737   1.792
98020W        W68620  30.243  31.075  11.025
98021W        W68621   5.374  31.708  12.644
98022W        W68622  29.899  13.375   0.039
98023W        W68623  11.726   5.153   4.574
98024W        W68624   4.209  20.072  14.026
98025W        W68625  16.590  20.686  14.442
98026W        W68626  25.842  37.581  14.119
98027W        W68627  23.080  43.178  14.072
98028W        W68628  14.177  12.138  14.735
98029W        W68629   3.198  33.582  13.028
98030W        W68630  41.009  16.877  10.939
98031W        W68631   1.210  12.172  13.099
98032W        W68632  41.128  12.254  12.130
98033W        W68633  40.704   3.270   0.910
98034W        W68634  44.321  35.949   0.667
98035W        W68635   7.472  37.437   3.774
98036W        W68636  35.430   1.400   2.846
98037W        W68637  23.545  43.201  10.924
98038W        W68638   3.194  20.611  13.140
98039W        W68639  20.209  12.900   3.592
98040W        W68640  27.264  24.957  13.422
98041W        W68641  13.906  24.086  14.345
98042W        W68642  20.135  22.476  13.900
98043W        W68643  15.059  17.651   2.857
98044W        W68644  25.204  41.784  10.968
98045W        W68645  14.197  43.271   0.876
98046W        W68646  11.745  31.486  11.051
98047W        W68647  24.221  33.040   1.705
98048W        W68648  16.702  33.547   3.663
98049W        W68649  27.713  11.711   0.852
98050W        W68650  23.927  15.402  13.894
98051W        W68651   3.262   4.935   4.585
98052W        W68652   9.839  21.377  11.206
98053W        W68653  16.731  25.070  11.602
98054W        W68654  32.152  33.029   3.368
98055W        W68655  38.737  42.831   3.713
98056W        W68656  20.732   5.152  11.928
98057W        W68657   7.139  29.196  14.944
98058W        W68658  17.062  44.995   0.788
98059W        W68659  32.089  44.066  12.003
98060W        W68660  38.989  18.554   0.499
98061W        W68661  32.209   6.508  10.468
98062W        W68662  16.902  18.645   4.811
98063W        W68663  29.647   4.919  13.426
98064W        W68664   7.495   3.819   4.619
98065W        W68665  44.186  37.686   1.728
98066W        W68666  26.901  12.477  11.997
98067W        W68667  32.545  12.919   0.027
98068W        W68668   7.623  24.097   1.227
98069W        W68669  11.963  20.740   4.826
98070W        W68670  13.192  34.839  10.357
98071W        W68671  11.931  21.803  13.884
98072W        W68672  17.909  30.753   0.962
98073W        W68673  24.783  21.298  13.510
98074W        W68674  40.471   9.161  10.961
98075W        W68675  42.262   4.055   3.534
98076W        W68676  36.748  10.178  12.379
98077W        W68677  11.281  20.184  10.882
98078W        W68678  25.994   4.135  14.790
98079W        W68679   9.280   0.859   1.439
98080W        W68680  23.019  18.249   2.728
98081W        W68681   8.514   7.798   2.806
98082W        W68682  24.047  39.439   2.330
98083W        W68683  12.354  39.099  12.112
98084W        W68684  29.859  26.999   4.087
98085W        W68685  12.544  34.978   3.161
98086W        W68686  44.426  17.182  14.367
98087W        W68687   7.891   3.623   1.832
98088W        W68688   7.440  21.257   0.953
98089W        W68689  12.840  13.664  12.184
98090W        W68690  18.144   5.282   0.052
98091W        W68691   7.668  41.252  11.555
98092W        W68692  23.963  23.624  14.584
98093W        W68693  38.003  27.572   4.706
98094W        W68694   5.144  29.853   3.634
98095W        W68695  12.352   2.370  10.801
98096W        W68696  28.347  35.231   1.699
98097W        W68697  22.599   5.692  14.867
98098W        W68698  21.140  14.117  14.909
98099W        W68699  39.889  10.017   3.312
98100W        W68700  16.697  15.291  12.930
98101W        W68701  14.686  24.528   2.761
98102W        W68702   5.782  42.868  14.406
98103W        W68703  20.282   3.943  14.601
98104W        W68704   0.730  43.082   2.565
98105W        W68705  25.129  39.279   1.182
98106W        W68706  10.263   1.046   0.486
98107W        W68707  26.647   6.721   2.761
98108W        W68708   9.686  36.806   3.373
98109W        W68709  11.734  21.815   2.797
98110W        W68710  23.668  28.605  13.452
98111W        W68711  43.480  31.884  11.579
98112W        W68712   6.708  38.858   1.785
98113W        W68713  43.920  32.415  12.489
98114W        W68714   9.388  34.377  12.185
98115W        W68715   5.938  41.072   2.261
98116W        W68716  17.664  43.828   4.623
98117W        W68717  26.074   0.814   1.971
98118W        W68718  20.632  25.114  11.511
98119W        W68719   7.164  33.570  13.063
98120W        W68720  30.813  39.627  11.989
98121W        W68721  18.068  31.992   0.794
98122W        W68722  29.477   0.273   4.628
98123W        W68723  32.028   9.819   0.849
98124W        W68724  35.003  31.972  13.497
98125W        W68725  16.596  37.244  12.434
98126W        W68726  33.026   3.617  11.896
98127W        W68727  11.723  26.687   2.813
98128W        W68728   9.879  36.398   4.206
98129W        W68729   3.517  16.126   0.917
98130W        W68730  11.521  27.496   0.897
98131W        W68731   5.871  13.079  13.841
98132W        W68732  28.865   2.361  13.439
98133W        W68733  22.698  27.143   1.375
98134W        W68734  40.865  12.466  12.520
98135W        W68735  14.011  27.681   0.311
98136W        W68736   2.273   4.762  11.720
98137W        W68737  27.587   4.176  11.184
98138W        W68738  20.576   7.253   3.115
98139W        W68739  28.518  42.275  12.604
98140W        W68740   1.814   5.379  12.553
98141W        W68741  39.360  20.610  10.648
98142W        W68742  41.847  34.834  13.889
98143W        W68743  30.275  38.049  14.366
98144W        W68744   4.192  17.496   2.702
98145W        W68745  30.210  16.014  10.761
98146W        W68746  24.574  17.546  14.928
98147W        W68747  30.609  35.796   1.342
98148W        W68748  26.245   6.437   2.941
98149W        W68749  22.492   3.501   5.119
98150W        W68750   0.929  43.758  13.521
98151W        W68751  44.725  14.704  14.289
98152W        W68752  20.834   6.282   2.812
98153W        W68753  25.558  10.790   1.787
98154W        W68754  13.298  22.051  12.077
98155W        W68755  33.968  17.700  10.397
98156W        W68756  34.962  13.190   0.382
98157W        W68757  11.723   4.294   2.818
98158W        W68758  32.844  33.932  11.001
98159W        W68759  11.771   8.877   0.319
98160W        W68760  37.601  38.883  10.188
98161W        W68761  29.071  38.503  11.678
98162W        W68762  14.761   7.873  10.542
98163W        W68763   8.789  23.409   3.607
98164W        W68764  41.568  38.466  13.937
98165W        W68765  39.112  34.487  14.041
98166W        W68766  32.935   2.775   0.790
98167W        W68767  39.373   1.501  13.980
98168W        W68768   5.892  25.307  12.950
98169W        W68769  43.527  20.033  12.917
98170W        W68770  29.452  14.270   3.997
98171W        W68771  31.629  20.843   2.777
98172W        W68772  42.559   8.246   2.236
98173W        W68773  35.356  40.415   3.284
98174W        W68774  40.176  16.241   0.399
98175W        W68775   7.861  36.555  14.289
98176W        W68776  34.629   0.478  14.325
98177W        W68777  37.122  38.257   3.052
98178W        W68778  32.314  29.240  11.377
98179W        W68779  34.101  34.053   4.593
98180W        W68780  14.362  15.185   2.760
98181W        W68781   0.033  40.976   2.543
98182W        W68782  31.688  22.273  13.862
98183W        W68783  31.448  38.118   4.163
98184W        W68784  17.684  20.162   3.184
98185W        W68785  29.692  12.032  10.443
98186W        W68786  29.400  33.075   1.434
98187W        W68787  11.672  23.750  11.231
98188W        W68788  35.314  12.339  12.258
98189W        W68789  36.596  39.960  12.989
98190W        W68790  24.094  10.090   2.132
98191W        W68791  20.523   0.896  11.024
98192W        W68792  19.692  31.057   1.296
98193W        W68793  10.840   1.717  10.461
98194W        W68794  39.913  14.278  12.669
98195W        W68795  12.093  29.581   4.211
98196W        W68796  38.246  10.983  11.158
98197W        W68797  33.998  41.376  14.786
98198W        W68798   2.291   7.691  11.209
98199W        W68799  11.189  22.997  12.352
98200W        W68800  24.968  16.621   3.303
98201W        W68801  40.775  20.087  13.855
98202W        W68802  27.972  41.071   4.649
98203W        W68803  24.234   7.821  14.889
98204W        W68804   5.343  10.611  10.658
98205W        W68805   4.896   5.407  14.388
98206W        W68806  29.116  38.523  10.681
98207W        W68807  12.715  36.088  10.514
98208W        W68808  34.881  10.256   3.645
98209W        W68809  23.459   5.247  13.748
98210W        W68810  10.127   7.903   1.918
98211W        W68811  30.901  35.387  14.879
98212W        W68812  28.055   1.100   3.215
98213W        W68813  19.723  27.707   0.379
98214W        W68814  10.492   2.358  14.331
98215W        W68815  12.352   3.754  14.492
98216W        W68816  27.980  34.303  11.606
98217W        W68817  39.632  39.289  10.967
98218W        W68818  16.510  42.972   0.684
98219W        W68819  40.515  32.995  12.528
98220W        W68820  10.073   5.025  13.982
98221W        W68821  29.040  37.892  13.003
98222W        W68822  41.931  42.555  14.417
98223W        W68823  18.591   4.505  13.394
98224W        W68824  30.602  12.882  10.824
98225W        W68825   4.478  32.050   2.244
98226W        W68826  43.335  22.236   1.769
98227W        W68827   3.920  35.881  12.524
98228W        W68828  21.297  12.062   3.894
98229W        W68829  23.471  34.789  10.691
98230W        W68830  22.014  33.489   4.753
98231W        W68831   2.778   7.890   2.408
98232W        W68832  41.062  31.107   3.735
98233W        W68833  25.562  33.400  10.497
98234W        W68834  21.257  23.739   1.323
98235W        W68835  36.477  33.377   0.809
98236W        W68836  28.554  14.283   1.701
98237W        W68837  37.266  30.020   0.810
98238W        W68838  12.748  31.086   1.701
98239W        W68839   1.229  43.262   1.269
98240W        W68840  21.162  22.194   2.429
98241W        W68841  20.512   7.671   3.419
98242W        W68842  26.564  36.142   0.429
98243W        W68843  32.872  28.614  11.483
98244W        W68844   3.154  26.451   2.206
98245W        W68845  19.775  35.291  11.691
98246W        W68846  13.587   2.007  11.021
98247W        W68847  25.063  10.164   2.935
98248W        W68848  31.200  16.223   3.237
98249W        W68849  26.554  11.725   4.018
98250W        W68850  11.780  28.738   0.453
98251W        W68851   9.900  41.104  10.430
98252W        W68852  42.742  26.120   2.291
98253W        W68853   9.403   7.426  12.176
98254W        W68854   7.413  29.599  14.751
98255W        W68855  34.521  29.089   0.282
98256W        W68856   9.282   5.254  13.090
98257W        W68857  22.494   7.852   2.293
98258W        W68858   3.017   4.682  12.008
98259W        W68859  25.040  24.137  13.362
98260W        W68860  12.389  29.163   2.664
98261W        W68861  42.236  12.788   4.052
98262W        W68862  44.581   2.895   1.873
98263W        W68863  17.274   3.702   3.709
98264W        W68864   2.115   4.865  11.260
98265W        W68865  37.012  25.258  14.368
98266W        W68866  34.591  39.366  14.298
98267W        W68867  37.483  28.334   4.344
98268W        W68868  43.649  33.941  11.470
98269W        W68869  39.799   3.809  12.565
98270W        W68870  31.411  42.694  11.725
98271W        W68871  40.123  12.582  10.589
98272W        W68872  44.700  27.419   3.948
98273W        W68873   2.334   9.668   3.619
98274W        W68874  34.577  29.889  12.469
98275W        W68875  43.786  37.980  11.130
98276W        W68876  39.493   4.105   3.711
98277W        W68877  34.928  43.084  11.734
98278W        W68878  13.495  22.626  12.082
98279W        W68879  44.382  44.256   2.727
98280W        W68880  24.948  23.988  14.505
98281W        W68881  19.972  31.955   2.134
98282W        W68882   4.494  11.789   0.951
98283W        W68883  14.362  22.137   3.348
98284W        W68884   4.299  21.193   0.202
98285W        W68885  19.555   1.590   3.525
98286W        W68886  29.017  43.761  12.672
98287W        W68887  35.102  28.228   3.775
98288W        W68888  24.134  19.877   3.496
98289W        W68889  11.267  34.126   4.238
98290W        W68890  39.465   2.038  14.026
98291W        W68891  38.001   6.258  10.514
98292W        W68892   3.185  43.985   4.301
98293W        W68893  25.453  40.230   4.652
98294W        W68894   4.929   5.430   5.046
98295W        W68895   2.490   3.839   0.452
98296W        W68896  29.319  26.102  10.423
98297W        W68897   9.382  43.559  12.423
98298W        W68898  33.825  17.268  10.144
98299W        W68899  19.829  13.186   5.076
98300W        W68900   6.702  37.497  11.511
98301W        W68901   1.275   6.406  10.439
98302W        W68902   0.729   6.838  11.112
98303W        W68903   5.150  19.288  13.726
98304W        W68904  34.927  26.218  14.366
98305W        W68905  40.572   4.308   0.829
98306W        W68906   1.825  12.677   0.449
98307W        W68907  30.952   5.646  14.193
98308W        W68908  18.679   0.926  10.598
98309W        W68909  19.752   7.556  10.271
98310W        W68910  33.225   7.428  11.518
98311W        W68911  36.444  36.340   2.270
98312W        W68912  44.815  34.810   1.464
98313W        W68913   1.552  34.823   4.030
98314W        W68914  30.137   2.557  13.042
98315W        W68915  36.062  13.066  11.182
98316W        W68916  19.495  34.470   2.234
98317W        W68917  18.515  16.629   4.386
98318W        W68918  11.728  18.529  11.725
98319W        W68919  33.960  36.635   3.199
98320W        W68920  43.400   0.721   3.209
98321W        W68921  34.641  26.972  14.078
98322W        W68922   8.868  16.767  12.946
98323W        W68923  14.346  23.126  14.238
98324W        W68924   0.688  21.589   0.480
98325W        W68925  26.921  30.651  12.036
98326W        W68926  19.315  41.282  12.932
98327W        W68927  18.608  14.868  11.395
98328W        W68928  22.480   1.345   4.117
98329W        W68929  16.671   0.146  14.326
98330W        W68930  42.309   3.289  11.195
98331W        W68931  33.883  42.201  14.016
98332W        W68932  18.532  11.621  13.508
98333W        W68933  28.003  14.407  13.893
98334W        W68934  31.597  28.527  14.998
98335W        W68935  11.182   6.288   1.306
98336W        W68936  42.981  23.402   3.904
98337W        W68937  24.464  44.194  11.727
98338W        W68938  37.307  22.038   1.174
98339W        W68939  10.717  34.825   1.933
98340W        W68940  25.550  33.354   2.841
98341W        W68941  19.801  23.785  14.887
98342W        W68942  19.099  41.792  10.798
98343W        W68943  24.764  42.903  11.480
98344W        W68944  37.922  31.002   1.888
98345W        W68945  40.694  33.865   0.212
98346W        W68946  36.039  20.041  14.547
98347W        W68947  35.900  29.503   2.726
98348W        W68948  36.578  24.542  13.537
98349W        W68949  34.670  30.696  10.603
98350W        W68950  33.871  26.237  10.678
98351W        W68951  21.816  14.757  14.274
98352W        W68952  41.157  15.797   2.794
98353W        W68953  29.107  44.002  13.135
98354W        W68954  39.484   7.834  14.591
98355W        W68955  18.596  40.296   3.660
98356W        W68956  28.784   5.209   0.155
98357W        W68957  22.198  21.754   2.389
98358W        W68958  40.972  10.278   0.650
98359W        W68959  40.414  32.303  13.068
98360W        W68960  20.239   3.873  14.081
98361W        W68961  26.177  19.791   2.259
98362W        W68962  36.403   3.067   1.859
98363W        W68963   1.377  44.012  14.723
98364W        W68964   9.885  21.013  11.596
98365W        W68965  30.460  16.698  12.106
98366W        W68966  35.124  10.388  12.031
98367W        W68967  36.110  44.475   3.006
98368W        W68968   3.276  25.076  13.149
98369W        W68969  19.311  41.448   0.387
98370W        W68970   7.680  27.491   0.489
98371W        W68971   0.395   7.670   4.532
98372W        W68972   6.854   9.697   4.571
98373W        W68973  23.069  20.339  13.944
98374W        W68974  25.138  36.153   2.361
98375W        W68975  25.696  11.452   3.153
98376W        W68976  28.320  40.879   4.985
98377W        W68977  12.256  38.269   0.969
98378W        W68978  36.907   4.385  12.056
98379W        W68979  21.627  29.218  12.008
98380W        W68980   8.972   3.784   4.150
98381W        W68981  27.085  38.427   4.461
98382W        W68982  13.856  15.253  14.427
98383W        W68983   5.700  28.574   4.790
98384W        W68984  12.700   4.745  11.949
98385W        W68985   1.159  20.565  13.887
98386W        W68986   7.121  30.255  11.134
98387W        W68987  30.161  16.908   4.956
98388W        W68988  38.979   3.468   0.383
98389W        W68989  33.788   9.854  13.230
98390W        W68990   4.868  35.979   0.420
98391W        W68991  18.350  33.646   2.115
98392W        W68992   7.806   4.125   3.440
98393W        W68993  20.557  12.750   4.856
98394W        W68994   7.471  17.490   1.027
98395W        W68995  33.639   9.130  11.150
98396W        W68996  15.023  37.236  13.431
98397W        W68997   6.109  42.728  13.977
98398W        W68998   3.212  19.129   2.899
98399W        W68999  42.088  17.520   2.905
98400W        W69000  29.159  37.159  11.415
98401W        W69001  30.933   0.278  12.452
98402W        W69002  43.324  13.633   2.637
98403W        W69003  18.310   4.015   3.062
98404W        W69004  34.138   2.001   2.874
98405W        W69005  44.994   1.431  13.294
98406W        W69006   5.004  36.702   1.364
98407W        W69007  27.216  31.839   3.514
98408W        W69008  24.825  19.111   4.789
98409W        W69009  36.861  19.490  13.852
98410W        W69010  38.868  27.907  11.175
98411W        W69011  20.153  35.600   2.761
98412W        W69012  18.308   9.174  10.643
98413W        W69013  39.369  39.992   2.690
98414W        W69014   5.625  24.991  12.614
98415W        W69015  18.047  32.879  13.453
98416W        W69016   0.026  36.490   4.221
98417W        W69017  42.035   0.338   0.403
98418W        W69018  20.111   7.311   3.331
98419W        W69019   8.411  16.651   1.339
98420W        W69020   2.205  21.738  13.857
98421W        W69021  40.768  40.863   1.913
98422W        W69022  38.787   9.233  14.463
98423W        W69023  36.653   0.405   3.830
98424W        W69024   0.813  28.515   3.245
98425W        W69025  10.104  28.801  13.845
98426W        W69026  43.851  41.890   0.816
98427W        W69027   8.226  41.616  10.374
98428W        W69028  32.025   3.436  13.854
98429W        W69029  24.007  40.337   3.830
98430W        W69030  21.823  32.121  13.466
98431W        W69031  25.860   7.677  13.114
98432W        W69032  40.829  24.241  14.313
98433W        W69033  41.134  12.284  11.272
98434W        W69034  40.901  32.954  14.042
98435W        W69035  14.757  10.203  11.008
98436W        W69036  29.634  37.435  12.987
98437W        W69037  10.424  20.271  12.362
98438W        W69038   0.199   7.613  13.380
98439W        W69039  30.494  31.900  14.341
98440W        W69040   7.910  31.408   4.925
98441W        W69041  20.875   4.157   0.493
98442W        W69042  38.532  42.447   2.293
98443W        W69043  40.744   4.890  14.867
98444W        W69044   0.486  35.958   3.170
98445W        W69045   3.654  32.719  12.795
98446W        W69046  13.591  40.777  12.918
98447W        W69047  25.355  23.700  12.367
98448W        W69048  12.682  26.232   3.892
98449W        W69049  39.491  42.189  14.255
98450W        W69050  21.717   4.445   4.139
98451W        W69051  29.551  39.878   3.098
98452W        W69052  18.308  22.549  14.855
98453W        W69053   8.887  34.168  10.552
98454W        W69054  44.530  26.172  10.650
98455W        W69055   6.588  38.576  14.452
98456W        W69056   6.445   6.410   2.672
98457W        W69057  26.925  33.879   1.733
98458W        W69058  37.296   2.642  14.069
98459W        W69059  12.260   4.386   3.647
98460W        W69060  16.409  20.646   2.349
98461W        W69061  33.971  22.842   4.874
98462W        W69062  15.618   9.543  11.522
98463W        W69063   8.662   0.896   3.307
98464W        W69064  19.594  20.617   0.941
98465W        W69065  42.894   1.902   2.241
98466W        W69066  21.153  44.644   2.111
98467W        W69067  20.128  16.766   1.229
98468W        W69068   3.999  44.631   3.743
98469W        W69069  35.467  26.726   4.032
98470W        W69070  38.580  27.450   0.866
98471W        W69071   3.854  33.147   2.280
98472W        W69072  33.627  20.887   9.772
98473W        W69073  15.233  33.167  14.467
98474W        W69074   3.283  33.500   1.290
98475W        W69075  38.893  44.967  13.405
98476W        W69076  24.574  21.928  14.344
98477W        W69077  18.639  43.203   2.249
98478W        W69078  41.035  25.918   3.308
98479W        W69079   3.421  12.538  12.097
98480W        W69080  27.607  35.038   1.471
98481W        W69081  18.049  36.407  11.900
98482W        W69082  42.639  15.273  13.109
98483W        W69083  11.885  29.216   1.799
98484W        W69084  20.637  44.479  13.056
98485W        W69085  19.309   4.216   0.045
98486W        W69086  13.809  12.188   4.870
98487W        W69087   0.764  41.710   0.378
98488W        W69088  19.681  32.346  11.972
98489W        W69089  43.220  42.559  11.192
98490W        W69090  37.502  12.821   3.167
98491W        W69091  26.933  27.778  14.133
98492W        W69092   7.230  12.816  12.338
98493W        W69093  22.673  32.019   2.403
98494W        W69094  16.803   4.446   4.129
98495W        W69095  12.852  14.124   0.816
98496W        W69096   1.014  31.675   1.715
98497W        W69097  41.750  26.263   0.742
98498W        W69098  37.891   5.155   0.888
98499W        W69099  42.889  33.156  12.608
98500W        W69100  29.530  10.327   1.392
98501W        W69101  10.464   7.464   3.663
98502W        W69102  44.718  37.917  12.520
98503W        W69103   1.845  33.141   0.315
98504W        W69104  22.198  19.503   4.096
98505W        W69105  17.734   8.469   0.025
98506W        W69106   6.754  25.023  12.026
98507W        W69107  31.340   1.717  11.589
98508W        W69108  31.190   6.621   0.440
98509W        W69109  44.808   3.657   0.402
98510W        W69110  22.557  39.964  10.310
98511W        W69111   5.059   2.169   0.873
98512W        W69112  32.088  43.107  13.091
98513W        W69113  39.318   6.176  10.810
98514W        W69114   8.752  43.014   0.267
98515W        W69115  29.482  12.237   1.763
98516W        W69116  38.823  36.377   0.597
98517W        W69117  31.566   5.991  13.516
98518W        W69118  11.425  21.971  11.467
98519W        W69119  39.012  31.493   0.368
98520W        W69120  34.983  18.703   0.059
98521W        W69121   3.778  20.128   1.784
98522W        W69122  33.471  36.626  12.682
98523W        W69123  20.949  44.836   1.304
98524W        W69124   9.305   4.408   0.466
98525W        W69125  40.825  27.494   3.310
98526W        W69126  31.484   2.467   4.821
98527W        W69127   2.828  43.979   2.339
98528W        W69128  23.225  21.149  13.444
98529W        W69129  30.013  28.673  13.033
98530W        W69130  12.088  24.255   4.175
98531W        W69131  18.679   2.056  12.408
98532W        W69132   0.887  44.202  11.686
98533W        W69133  34.653  24.049  14.942
98534W        W69134   8.830   2.683  14.564
98535W        W69135  25.272  18.131   1.741
98536W        W69136  19.521  10.972  10.437
98537W        W69137  41.029  27.524   1.397
98538W        W69138  22.538   3.765  14.261
98539W        W69139   1.008   4.519  12.182
98540W        W69140  33.131  36.907  13.086
98541W        W69141  43.477  31.504  13.370
98542W        W69142  19.519  37.936  12.009
98543W        W69143  27.618  33.132   3.860
98544W        W69144   4.709  10.622  11.835
98545W        W69145  40.936  29.388   4.333
98546W        W69146   5.952  30.644   4.598
98547W        W69147  21.932  36.975   4.099
98548W        W69148  16.288  34.621  13.618
98549W        W69149  36.972   6.859   3.883
98550W        W69150  28.986  41.492  13.819
98551W        W69151  22.111  40.382  12.467
98552W        W69152  43.954  30.966  14.410
98553W        W69153   8.575  35.293  13.490
98554W        W69154   5.757  29.098  11.871
98555W        W69155  43.930   4.759   2.879
98556W        W69156  17.323  25.251   1.827
98557W        W69157  32.435   9.873  12.599
98558W        W69158  40.403  38.297   3.470
98559W        W69159  27.269  33.686   2.683
98560W        W69160  34.407   5.770   4.286
98561W        W69161   2.751  25.537  14.686
98562W        W69162  12.912   2.243   2.632
98563W        W69163  14.623   3.472   2.802
98564W        W69164  31.079  25.144  14.305
98565W        W69165  43.350  25.160   2.663
98566W        W69166  22.300  26.013  12.346
98567W        W69167  37.675  21.445  13.437
98568W        W69168  22.277  30.043   2.610
98569W        W69169  29.661  12.195  14.705
98570W        W69170   5.627  24.098   0.690
98571W        W69171  34.356  25.108  13.112
98572W        W69172   9.257  43.693  11.508
98573W        W69173  43.562  29.548  11.650
98574W        W69174  14.927  29.077   0.809
98575W        W69175  14.349  27.634   0.727
98576W        W69176  19.850   0.923   2.854
98577W        W69177  34.612  31.412   0.780
98578W        W69178  38.113   3.416  10.579
98579W        W69179  41.697  11.675  14.445
98580W        W69180   5.359  13.279  13.205
98581W        W69181  36.478   1.122   4.701
98582W        W69182  27.017  31.831   0.301
98583W        W69183  14.237  12.383  10.823
98584W        W69184  38.077  33.186  12.884
98585W        W69185  16.678  34.527   4.439
98586W        W69186  11.705  33.407   0.132
98587W        W69187  15.056  43.440  14.335
98588W        W69188  44.369  22.133  13.314
98589W        W69189  30.682  27.453   4.479
98590W        W69190  40.782  17.092   0.348
98591W        W69191  33.969   0.081   3.780
98592W        W69192  33.163  31.135  14.356
98593W        W69193  14.908   0.085  12.932
98594W        W69194  11.806  19.759   1.266
98595W        W69195   4.127  36.603   3.217
98596W        W69196  10.698  16.385  13.417
98597W        W69197  33.510  19.329   4.599
98598W        W69198  24.726  22.669  12.516
98599W        W69199   8.457  39.420  12.034
98600W        W69200  42.710  33.408  11.264
98601W        W69201  24.662   4.840  11.616
98602W        W69202   7.390  26.433   0.529
98603W        W69203   0.456  23.638   1.960
98604W        W69204   8.176  19.256  12.470
98605W        W69205  42.795  16.906  13.472
98606W        W69206  36.147  44.192  12.781
98607W        W69207  42.277  18.222  12.186
98608W        W69208  31.128  19.612  12.731
98609W        W69209  17.199  44.284   0.374
98610W        W69210   8.765  39.847   4.078
98611W        W69211  11.161  31.764  11.756
98612W        W69212  37.974  20.138   3.731
98613W        W69213  19.803  14.082  13.542
98614W        W69214  15.013  34.304   3.644
98615W        W69215  25.285  15.831   3.160
98616W        W69216  31.204  12.539  11.591
98617W        W69217   8.745  25.895   0.323
98618W        W69218  31.933  12.273   3.236
98619W        W69219  44.241  12.352   1.218
98620W        W69220  36.882  27.038  11.118
98621W        W69221  11.297  26.653   4.472
98622W        W69222  43.373  43.832  13.511
98623W        W69223  22.412  30.961  10.739
98624W        W69224   5.727  20.214  11.558
98625W        W69225  44.532  18.159   2.695
98626W        W69226  11.384   5.594  12.421
98627W        W69227   0.693  19.044   4.032
98628W        W69228  21.400   3.231   3.178
98629W        W69229  33.488  29.347   3.704
98630W        W69230   5.685  12.539   2.862
98631W        W69231  28.916   5.967  10.956
98632W        W69232   9.590  18.565   0.810
98633W        W69233  22.738  38.621  12.623
98634W        W69234  13.835  38.965   3.660
98635W        W69235   8.136  29.158   1.814
98636W        W69236  30.371  42.520   4.605
98637W        W69237   6.887   9.927  14.436
98638W        W69238  41.329  27.980  12.866
98639W        W69239  32.722  33.540   0.500
98640W        W69240  36.168  35.478  11.686
98641W        W69241   2.956  40.306  12.045
98642W        W69242   1.291  30.432  10.476
98643W        W69243  31.722   1.454  14.298
98644W        W69244  11.540  38.602  13.677
98645W        W69245   3.892  40.745  12.607
98646W        W69246  15.413  12.883  10.647
98647W        W69247  20.500  27.260   3.334
98648W        W69248  34.025  22.694  14.541
98649W        W69249  11.296  25.477  12.455
98650W        W69250  20.383  43.827   2.765
98651W        W69251   3.229  29.055  11.981
98652W        W69252  24.700   2.786  11.573
98653W        W69253  27.691   8.339  13.784
98654W        W69254  22.101   5.204   2.379
98655W        W69255   6.964  37.762   0.833
98656W        W69256   5.865  34.079   0.498
98657W        W69257  29.690  28.288  13.296
98658W        W69258  29.521   2.216   4.902
98659W        W69259  34.492  19.262   4.672
98660W        W69260  22.715   7.801  13.391
98661W        W69261  12.673  41.193   4.732
98662W        W69262  19.462  19.524   2.247
98663W        W69263  17.072  11.151   1.428
98664W        W69264  13.787  12.810   4.037
98665W        W69265  43.852  17.853  14.421
98666W        W69266  38.860  28.019  14.075
98667W        W69267  15.356  40.424   2.889
98668W        W69268  40.037  31.544  10.645
98669W        W69269  10.534   8.133  13.191
98670W        W69270  42.268  17.326   3.913
98671W        W69271  13.165   4.254   0.445
98672W        W69272  11.985  29.631   3.707
98673W        W69273  36.039  37.931   1.412
98674W        W69274  43.143  29.905  13.353
98675W        W69275   7.204  15.608  12.553
98676W        W69276  43.501  29.372  14.387
98677W        W69277  22.935  43.189   1.729
98678W        W69278  43.752  40.456  14.786
98679W        W69279  27.558   5.295  12.398
98680W        W69280   2.540   4.528   3.224
98681W        W69281  20.040   2.335  14.077
98682W        W69282  16.320  43.792  11.902
98683W        W69283  30.836  15.045   1.340
98684W        W69284  17.221  39.474  13.140
98685W        W69285  20.598  27.289   3.843
98686W        W69286  32.941   8.263  13.404
98687W        W69287  39.571  17.097  14.330
98688W        W69288  42.922  22.661  11.572
98689W        W69289  31.909  30.608  11.217
98690W        W69290  24.285   8.649   3.267
98691W        W69291  44.425  24.437  11.095
98692W        W69292  24.412  11.125  13.942
98693W        W69293  21.110  41.303   3.256
98694W        W69294  33.331  37.725   1.835
98695W        W69295  14.483   1.553  14.960
98696W        W69296  33.523  23.576   1.846
98697W        W69297  34.478  20.796   2.392
98698W        W69298  23.140  16.244   3.464
98699W        W69299  42.014  18.523  12.963
98700W        W69300   1.314  22.173  12.726
98701W        W69301   6.625  23.808  12.424
98702W        W69302  16.221  26.747   1.413
98703W        W69303  18.763  14.121   3.194
98704W        W69304  27.368  41.961  10.118
98705W        W69305  20.610  11.145  11.615
98706W        W69306  29.308   3.996   0.434
98707W        W69307  34.963   6.549  12.032
98708W        W69308  16.529   5.367   0.466
98709W        W69309  28.633  25.481   4.253
98710W        W69310  16.927  12.639   4.573
98711W        W69311   8.206  26.313  13.873
98712W        W69312   1.672  36.018  10.730
98713W        W69313  39.723  12.557  11.597
98714W        W69314  27.763  10.842  11.595
98715W        W69315  37.283  35.021  11.977
98716W        W69316   8.352  37.291   1.795
98717W        W69317   7.422   2.793  14.958
98718W        W69318  40.958  25.085   4.542
98719W        W69319  40.600  11.284   4.850
98720W        W69320  32.813  40.825   2.353
98721W        W69321  21.772  12.861  14.896
98722W        W69322  13.872  42.316  14.877
98723W        W69323  22.057   1.438  13.028
98724W        W69324  38.792  44.941  14.838
98725W        W69325  44.935   3.247   1.980
98726W        W69326  23.643   3.755  13.922
98727W        W69327  17.322   2.903  13.709
98728W        W69328   4.371  34.095   1.184
98729W        W69329  28.217  11.821  10.243
98730W        W69330  36.642  20.552  14.692
98731W        W69331  12.870  43.289  12.823
98732W        W69332  21.479  12.520   3.781
98733W        W69333  34.826  38.542   1.234
98734W        W69334  22.827  42.536  14.456
98735W        W69335  41.664  37.200  12.892
98736W        W69336  34.567  37.429   4.267
98737W        W69337  39.676  11.417  14.127
98738W        W69338  27.219  38.388  14.028
98739W        W69339  26.498  39.519  10.721
98740W        W69340  10.080  19.210  14.408
98741W        W69341  30.157  44.750   1.347
98742W        W69342  24.428  41.429  10.841
98743W        W69343   2.864  20.717   4.558
98744W        W69344  30.557  23.056   2.171
98745W        W69345  10.795  32.120  11.930
98746W        W69346  38.534  41.991  14.080
98747W        W69347   0.218  44.276  10.540
98748W        W69348  44.245  26.893  11.543
98749W        W69349  12.923  41.244  10.692
98750W        W69350  26.769  38.028   3.939
98751W        W69351  33.866  12.485   3.686
98752W        W69352  27.011  24.164  12.315
98753W        W69353   9.387   4.774   2.760
98754W        W69354  21.917  44.538  11.470
98755W        W69355  14.711  36.803   2.651
98756W        W69356  13.213  37.612   4.341
98757W        W69357  43.865  34.286  14.364
98758W        W69358  40.547  17.973   0.872
98759W        W69359  34.421  15.975  13.760
98760W        W69360  11.440  20.220   3.182
98761W        W69361  15.283  41.521  10.989
98762W        W69362  34.853  44.820   4.692
98763W        W69363   7.315  31.378  14.451
98764W        W69364  30.539  19.702  12.021
98765W        W69365  27.899  22.144   4.161
98766W        W69366  34.064  38.333  11.242
98767W        W69367   2.204  16.304   4.176
98768W        W69368  34.331  44.849  10.603
98769W        W69369   6.820  23.557   4.144
98770W        W69370  32.628  24.766  11.924
98771W        W69371  16.594   1.290  11.332
98772W        W69372  33.953  26.627   0.930
98773W        W69373   0.802  19.103  10.709
98774W        W69374   8.389  11.679  14.919
98775W        W69375   1.396  19.825  14.468
98776W        W69376   6.803  22.318  13.332
98777W        W69377   2.787  24.294   4.064
98778W        W69378  35.370  42.039  14.005
98779W        W69379  19.300   2.240  10.821
98780W        W69380  35.613  42.327   2.310
98781W        W69381  36.011   4.110   0.323
98782W        W69382  27.244  43.895   2.788
98783W        W69383   7.736  15.925  13.117
98784W        W69384  43.948  14.466   3.862
98785W        W69385  27.667  44.120  13.022
98786W        W69386  37.829  29.633  10.638
98787W        W69387   7.487   9.025   3.055
98788W        W69388  28.766  26.524   2.541
98789W        W69389  39.977   2.051   1.419
98790W        W69390  16.704   4.159   3.238
98791W        W69391  15.059  20.015  14.394
98792W        W69392   4.256  11.640  14.935
98793W        W69393  28.629  19.840  11.574
98794W        W69394  15.502  33.495   4.087
98795W        W69395  36.006  35.369   0.466
98796W        W69396  26.485  12.733  12.889
98797W        W69397   1.995  18.260  14.074
98798W        W69398  37.966  26.127  13.917
98799W        W69399  35.264  24.567   4.023
98800W        W69400  34.994   4.471  10.406
98801W        W69401   7.305  38.166  14.475
98802W        W69402   5.592   5.524   2.308
98803W        W69403  10.132  38.315  11.939
98804W        W69404   3.664   2.166   0.833
98805W        W69405  36.958  34.564   4.468
98806W        W69406  40.815  35.059   2.912
98807W        W69407  20.622  38.395   2.766
98808W        W69408  30.431  17.637   1.279
98809W        W69409  19.312  26.022   0.357
98810W        W69410  18.920  30.181  14.304
98811W        W69411  23.239  11.571  13.903
98812W        W69412  21.145   0.747  13.817
98813W        W69413  14.569  31.632  11.243
98814W        W69414  28.060  41.531   1.451
98815W        W69415  41.797  31.070  11.592
98816W        W69416  42.975  43.862   0.251
98817W        W69417  33.155  23.865   0.898
98818W        W69418  32.620  34.559  12.601
98819W        W69419  23.977  27.574  13.539
98820W        W69420   9.789  15.157   1.886
98821W        W69421  40.746  40.024  12.930
98822W        W69422   3.715  42.053   0.664
98823W        W69423  23.236  38.306   1.776
98824W        W69424  34.623   5.238  12.195
98825W        W69425  37.428  21.608   0.924
98826W        W69426  31.389  19.094   2.805
98827W        W69427   0.681  12.670  12.484
98828W        W69428  22.028  29.260  13.307
98829W        W69429  42.982  25.173   0.914
98830W        W69430   2.637  12.218   4.586
98831W        W69431  13.249  39.550  14.558
98832W        W69432  15.103  22.343   1.224
98833W        W69433  14.083  33.671   2.780
98834W        W69434  38.363  34.661   1.961
98835W        W69435   0.030  21.060   4.356
98836W        W69436  44.800   6.815   3.115
98837W        W69437  19.203  25.463  14.338
98838W        W69438  13.787  21.538   3.894
98839W        W69439  42.354  20.620   1.387
98840W        W69440   0.811  18.034  10.780
98841W        W69441   6.667  30.808   2.500
98842W        W69442  14.517  21.746  14.969
98843W        W69443  23.394  38.586   2.218
98844W        W69444   0.255  22.248   4.935
98845W        W69445  40.898   3.796   1.770
98846W        W69446  28.531  14.539   2.178
98847W        W69447  42.833   0.000   1.685
98848W        W69448  29.548  19.481   3.996
98849W        W69449  38.961  23.592   3.418
98850W        W69450  36.315   5.270  11.280
98851W        W69451  15.363  33.945   2.906
98852W        W69452  15.602   1.588  14.933
98853W        W69453  24.050   0.527  14.858
98854W        W69454  20.977  10.260   2.310
98855W        W69455  33.573  23.580   0.941
98856W        W69456  28.470  26.794   2.210
98857W        W69457  39.486  39.489  13.277
98858W        W69458  27.335  21.547  14.709
98859W        W69459  18.356  24.458   4.574
98860W        W69460   9.791  41.094   1.918
98861W        W69461  43.826  19.556  14.984
98862W        W69462   4.627  28.540  11.488
98863W        W69463  31.595   8.305   0.604
98864W        W69464  42.977   2.920  12.461
98865W        W69465  14.396  15.832   2.297
98866W        W69466  12.184  25.658  14.049
98867W        W69467  34.171   3.782  12.346
98868W        W69468  20.805  25.665  10.737
98869W        W69469   0.589  16.595  13.828
98870W        W69470   9.164  35.353  14.760
98871W        W69471  21.210  39.936  11.616
98872W        W69472   1.231  24.071   3.312
98873W        W69473  44.959  29.351   2.328
98874W        W69474  13.537  35.983  10.783
98875W        W69475  28.089   8.711   3.340
98876W        W69476  20.333  43.371   3.163
98877W        W69477  20.318  10.721  14.823
98878W        W69478  44.312  41.022  11.082
98879W        W69479  26.806   1.292   0.062
98880W        W69480  17.913  40.821  12.022
98881W        W69481   1.740  34.326   0.028
98882W        W69482  33.515  42.453   4.806
98883W        W69483  25.658  17.514  11.545
98884W        W69484  30.456  31.085   1.409
98885W        W69485   3.180  22.759   1.900
98886W        W69486  37.795  10.822   4.833
98887W        W69487  26.284  31.897  11.964
98888W        W69488  12.815  43.450  13.340
98889W        W69489  33.854  41.917  13.040
98890W        W69490  37.555  29.290  13.310
98891W        W69491  31.351  43.787   0.361
98892W        W69492  18.157  21.820   4.057
98893W        W69493  28.239   7.259   4.214
98894W        W69494  13.309  42.784   3.873
98895W        W69495  30.394  38.405  11.641
98896W        W69496   2.800  36.300   0.005
98897W        W69497  44.956  12.592  11.103
98898W        W69498  32.187  12.787  14.024
98899W        W69499  10.921  17.672   2.178
98900W        W69500  31.980  44.413   3.608
98901W        W69501  17.401  39.831   4.602
98902W        W69502  37.599  34.641   2.847
98903W        W69503  12.913  15.360   4.725
98904W        W69504  41.602   8.234  12.981
98905W        W69505  23.195  24.695  14.970
98906W        W69506  33.418  20.778   1.303
98907W        W69507  24.993   7.373   3.767
98908W        W69508  41.085  31.487  10.430
98909W        W69509  11.588  31.054   4.393
98910W        W69510  21.796  43.467   0.394
98911W        W69511   9.789  18.494  10.660
98912W        W69512  13.301  15.942  13.333
98913W        W69513   5.322  40.859  11.422
98914W        W69514   8.591  19.185   4.104
98915W        W69515   4.418  14.976   4.014
98916W        W69516  31.113   5.173  14.361
98917W        W69517  24.867  10.158   1.554
98918W        W69518  20.161  31.579   4.521
98919W        W69519  34.579  17.499  13.827
98920W        W69520  18.071  20.032  13.055
98921W        W69521  38.364  23.540   1.441
98922W        W69522   3.709  14.116   1.363
98923W        W69523   4.349  14.171   0.270
98924W        W69524  39.119  10.664  12.873
98925W        W69525  11.662  31.984  14.987
98926W        W69526  42.444  43.170  13.946
98927W        W69527  10.860  17.779  12.551
98928W        W69528   9.830  39.362   4.218
98929W        W69529  13.099  25.233  11.583
98930W        W69530   0.230  26.022  13.766
98931W        W69531  42.504  31.090   0.267
98932W        W69532  15.185  13.634  11.184
98933W        W69533  32.710  18.523  14.748
98934W        W69534  26.378   0.703  14.248
98935W        W69535  13.860  22.116  12.920
98936W        W69536  15.337   3.205   5.171
98937W        W69537  33.450  31.135  13.804
98938W        W69538   1.872  23.092   0.814
98939W        W69539  31.018   8.932  13.490
98940W        W69540  14.751  22.990  12.980
98941W        W69541  27.309   7.196   0.380
98942W        W69542  35.073  29.985  14.815
98943W        W69543  20.674  37.338   2.899
98944W        W69544   2.285   2.744  10.940
98945W        W69545  40.525  44.451   2.044
98946W        W69546   9.307   8.922   1.651
98947W        W69547  21.006  17.316   1.429
98948W        W69548  11.836  12.718  12.343
98949W        W69549   5.971  31.589  11.550
98950W        W69550  26.496  15.788  11.662
98951W        W69551  33.147  37.882   2.828
98952W        W69552  10.651  25.632   2.038
98953W        W69553  38.400   7.606  12.126
98954W        W69554  44.058  20.158   2.758
98955W        W69555  11.200   5.942  12.059
98956W        W69556  23.802  42.317  13.814
98957W        W69557  17.669  40.068   3.223
98958W        W69558  17.865  17.534   1.714
98959W        W69559   2.052  18.797   4.808
98960W        W69560  28.252  10.779  14.654
98961W        W69561  21.907  38.071   0.211
98962W        W69562  22.067  19.867  10.638
98963W        W69563  28.240  25.297   0.236
98964W        W69564  28.927  14.832  13.293
98965W        W69565  18.117  30.107  11.659
98966W        W69566   8.427  27.664   4.963
98967W        W69567  13.913  40.964  13.976
98968W        W69568  10.767  44.039   2.317
98969W        W69569  17.273  20.477   3.369
98970W        W69570  41.298  26.994  11.141
98971W        W69571   2.464  30.684  13.738
98972W        W69572  27.054   3.689   1.304
98973W        W69573  11.778  13.348   2.682
98974W        W69574  15.747   8.829   0.954
98975W        W69575   2.720   5.884  14.951
98976W        W69576  24.788  26.151  11.000
98977W        W69577  11.285  32.854   4.578
98978W        W69578  15.487  25.702  12.615
98979W        W69579  32.891  43.274   3.876
98980W        W69580  17.055  18.673  10.712
98981W        W69581  15.324   9.705  14.495
98982W        W69582   0.836  24.783   1.482
98983W        W69583  20.097  17.462  13.361
98984W        W69584   7.688  11.584  10.698
98985W        W69585  11.329  17.329  11.051
98986W        W69586  34.202  25.727   2.400
98987W        W69587  18.770  11.121   2.270
98988W        W69588  20.948   0.387  12.115
98989W        W69589  25.672  26.620  14.362
98990W        W69590  27.913  14.012  12.089
98991W        W69591  28.019  41.578  11.395
98992W        W69592   6.140  15.785  10.475
98993W        W69593   7.652  21.673  10.725
98994W        W69594  30.984  19.079   0.860
98995W        W69595   2.930  33.618  13.582
98996W        W69596  27.416  30.627  10.713
98997W        W69597   8.275  22.921  14.143
98998W        W69598   9.187  44.928  13.474
98999W        W69599   0.927  33.469   1.951
99000W        W69600  41.030   1.292   0.253
99001W        W69601  21.831  29.511  14.887
99002W        W69602   9.813  27.529   4.489
99003W        W69603  32.343  34.825   0.815
99004W        W69604   4.872  33.087  12.119
99005W        W69605  22.057  37.943  11.420
99006W        W69606   2.598   9.305  13.562
99007W        W69607  17.281   5.137  14.371
99008W        W69608  22.588  21.050  13.903
99009W        W69609  33.034  35.827  13.856
99010W        W69610  38.033   3.698  11.598
99011W        W69611  10.913  40.601   1.806
99012W        W69612  35.045   8.175   0.284
99013W        W69613  21.532  38.995   1.697
99014W        W69614  17.071  13.859   2.469
99015W        W69615  20.847  26.160  10.861
99016W        W69616   6.815  33.525  12.614
99017W        W69617  30.164   4.170   0.701
99018W        W69618  29.204   2.740   4.721
99019W        W69619   2.409  20.087   2.428
99020W        W69620  25.229  33.016  12.668
99021W        W69621  10.415  43.362  13.360
99022W        W69622  26.618  38.827   1.234
99023W        W69623  32.582  42.825   2.715
99024W        W69624  20.076   6.794   2.516
99025W        W69625  42.094  33.386  10.657
99026W        W69626  39.168  42.747  12.863
99027W        W69627  28.232  27.378  14.460
99028W        W69628  34.138  43.384  14.935
99029W        W69629  12.289  14.359   1.448
99030W        W69630   6.014  28.778  13.943
99031W        W69631  18.471  15.896  11.541
99032W        W69632  43.069  39.509   3.118
99033W        W69633  32.165  40.537   3.151
99034W        W69634  13.318  34.509   3.837
99035W        W69635   8.093  16.498  13.960
99036W        W69636  29.080   1.257  14.831
99037W        W69637  25.774  36.296  11.162
99038W        W69638  20.221  36.942  12.812
99039W        W69639  40.676   1.845  10.270
99040W        W69640  22.041  31.069  14.046
99041W        W69641  27.393  37.448  11.376
99042W        W69642  29.047  44.278   2.729
99043W        W69643  19.812   2.172   2.236
99044W        W69644   3.320  23.685  13.345
99045W        W69645  22.156  38.837  10.946
99046W        W69646   0.773   9.144  12.896
99047W        W69647   1.484  31.401  10.656
99048W        W69648  32.080  20.846  13.834
99049W        W69649  14.077  40.840   4.019
99050W        W69650  33.336  30.271  14.582
99051W        W69651  34.898   8.210  12.558
99052W        W69652  17.313  38.105  14.864
99053W        W69653  13.382   3.642  14.339
99054W        W69654  40.311   3.492   4.563
99055W        W69655  37.414   8.559   2.904
99056W        W69656  15.360  22.309   3.728
99057W        W69657  13.496   4.725   0.821
99058W        W69658  17.735  43.544  14.490
99059W        W69659   6.768   6.135   1.805
99060W        W69660  25.256  25.423  12.829
99061W        W69661  32.112   7.182  11.598
99062W        W69662  28.687  11.679   0.427
99063W        W69663  26.577  39.951  10.164
99064W        W69664  43.277   9.460   0.467
99065W        W69665  13.113  28.119  11.140
99066W        W69666  33.096  13.335  11.732
99067W        W69667  31.859  44.046  14.529
99068W        W69668  38.966  32.129  14.792
99069W        W69669  19.496  17.995  11.604
99070W        W69670  29.457  37.806  14.265
99071W        W69671  27.776  21.635   1.778
99072W        W69672  38.682  11.248   0.851
99073W        W69673   4.815  21.388  12.423
99074W        W69674  12.380  30.438  13.904
99075W        W69675   6.803  32.382   3.300
99076W        W69676  43.251  11.314  11.051
99077W        W69677  42.571   9.215  10.741
99078W        W69678   9.148  30.423  13.686
99079W        W69679  36.683   0.935  13.419
99080W        W69680   0.662  37.088  11.050
99081W        W69681  37.811  29.942  12.584
99082W        W69682  34.078  43.703   4.093
99083W        W69683   0.052  13.315   0.620
99084W        W69684  29.535  41.086  14.919
99085W        W69685  18.235  29.892   4.204
99086W        W69686  14.798  39.978  14.487
99087W        W69687  39.370  17.595   3.064
99088W        W69688  44.920  43.277   1.154
99089W        W69689   6.806   8.505   1.230
99090W        W69690  42.407   1.894  13.882
99091W        W69691   7.601  43.091   3.898
99092W        W69692   6.520  13.810   4.642
99093W        W69693   6.268  31.960  13.979
99094W        W69694  25.587   9.295  11.092
99095W        W69695   9.287  33.010   3.925
99096W        W69696  36.791  28.441   0.480
99097W        W69697  23.553  43.224   2.891
99098W        W69698  17.136  38.339   2.583
99099W        W69699  25.431   7.319   0.980
99100W        W69700   5.070  36.014  14.661
99101W        W69701  27.287   9.060   1.929
99102W        W69702   7.637  29.959   4.893
99103W        W69703  20.358   9.525   2.352
99104W        W69704  32.230  42.899   0.751
99105W        W69705   5.122  26.556   4.394
99106W        W69706   1.947   7.400   3.705
99107W        W69707  12.689  34.133   1.391
99108W        W69708  19.063   6.971  14.359
99109W        W69709  38.538  30.566  13.976
99110W        W69710  38.627   0.807   2.640
99111W        W69711   4.929  39.889  12.641
99112W        W69712  18.228  39.404   0.674
99113W        W69713   6.269  39.311  11.541
99114W        W69714  22.151  20.927  10.660
99115W        W69715  43.738  16.274   1.453
99116W        W69716   6.146   5.935   0.799
99117W        W69717  41.540  41.034  12.045
99118W        W69718  38.086   2.226  13.404
99119W        W69719  15.715  26.638   2.705
99120W        W69720  44.691  39.976   1.668
99121W        W69721  28.182   4.604   0.323
99122W        W69722   7.768  20.562  14.722
99123W        W69723  23.505  13.305   1.614
99124W        W69724  22.148  15.232   4.093
99125W        W69725  21.137  36.012   4.566
99126W        W69726   3.001   6.727  14.019
99127W        W69727  16.722   2.948   0.366
99128W        W69728  12.046  35.835  11.127
99129W        W69729   8.238  17.081   4.875
99130W        W69730   6.256   5.289  12.904
99131W        W69731  16.148  32.388   1.619
99132W        W69732  15.564   2.448  12.433
99133W        W69733   4.813  30.655   3.581
99134W        W69734  18.834   9.199   1.213
99135W        W69735   5.209  17.299   0.844
99136W        W69736  35.218  21.199  10.362
99137W        W69737  26.498   3.368   4.990
99138W        W69738   1.275   4.398  13.273
99139W        W69739  24.505  19.179   3.090
99140W        W69740  30.446  25.469  10.687
99141W        W69741  38.122  28.038  11.500
99142W        W69742   0.937  41.175  14.250
99143W        W69743  19.126   6.672  10.394
99144W        W69744  27.952  30.029   4.653
99145W        W69745  37.604  44.813  13.002
99146W        W69746  26.036  25.422   0.071
99147W        W69747  29.910   6.359  11.389
99148W        W69748  43.831  26.038   0.386
99149W        W69749  19.607  22.632   0.991
99150W        W69750  34.211  20.143   3.200
99151W        W69751  37.110   1.823   1.728
99152W        W69752  11.592  18.542  13.960
99153W        W69753  22.158   9.840   0.347
99154W        W69754  36.880  39.441   1.968
99155W        W69755  34.016  14.659  11.858
99156W        W69756   6.298   1.427  14.587
99157W        W69757  22.207   8.315   4.013
99158W        W69758  23.753  36.779   1.240
99159W        W69759  24.525   5.400  14.867
99160W        W69760  15.829  36.064   2.307
99161W        W69761  38.011  35.987  11.949
99162W        W69762  11.431  36.842   3.940
99163W        W69763  36.288  24.306   3.852
99164W        W69764  19.261   4.859   0.767
99165W        W69765  22.601  39.461   4.584
99166W        W69766  27.182  12.704  13.617
99167W        W69767  15.525  14.077   3.233
99168W        W69768  27.444  21.105   1.446
99169W        W69769   1.013  18.769  11.050
99170W        W69770  38.700  26.702  12.574
99171W        W69771  41.468  25.247   3.713
99172W        W69772  11.746  37.610   4.916
99173W        W69773  35.524  12.262  13.957
99174W        W69774  20.559   6.411   3.256
99175W        W69775  41.554  19.417  14.785
99176W        W69776  23.032  44.235   0.878
99177W        W69777  44.738  44.752   3.938
99178W        W69778   6.272  29.493  12.186
99179W        W69779   4.415  31.792  13.077
99180W        W69780   1.791  23.650   3.426
99181W        W69781  39.907  42.776   4.944
99182W        W69782  29.516  33.303  13.307
99183W        W69783  41.256  43.904  12.428
99184W        W69784  17.137  38.971   9.923
99185W        W69785  28.088   9.867  12.616
99186W        W69786  30.848  14.734  14.314
99187W        W69787  13.615  15.076   0.775
99188W        W69788  26.943  15.560  10.767
99189W        W69789  16.633  40.261   1.140
99190W        W69790   0.042  43.323   0.656
99191W        W69791  34.435  34.005   0.260
99192W        W69792  15.167   5.659  11.987
99193W        W69793  21.245  42.344  14.959
99194W        W69794   7.866  31.382   3.959
99195W        W69795  22.067  43.797   3.192
99196W        W69796  17.307  32.449  11.493
99197W        W69797  10.902  44.176  13.544
99198W        W69798   7.858  22.218  13.746
99199W        W69799  16.554  31.636   1.213
99200W        W69800  29.503  32.420  14.068
99201W        W69801  20.272   5.957   3.254
99202W        W69802   8.787   7.452   4.558
99203W        W69803   8.816   5.492  13.053
99204W        W69804  40.553   1.251   4.208
99205W        W69805  31.645   2.856  12.018
99206W        W69806   8.885  17.314  11.596
99207W        W69807  26.744   1.680  12.496
99208W        W69808   4.121   9.400  12.524
99209W        W69809  39.063  34.940  13.778
99210W        W69810  10.677  31.188   4.627
99211W        W69811   3.021  28.512  11.257
99212W        W69812  32.853  27.874  13.623
99213W        W69813  28.553   2.902  12.887
99214W        W69814  30.957  10.260   0.282
99215W        W69815  12.671  27.389   0.023
99216W        W69816  39.076   6.478   2.668
99217W        W69817  44.515  39.499   1.813
99218W        W69818  19.249  35.446   2.544
99219W        W69819  15.482  27.057  13.126
99220W        W69820  37.535  14.530  11.977
99221W        W69821   7.679  32.480  14.465
99222W        W69822  17.133  33.354   4.231
99223W        W69823   8.735   3.947   3.378
99224W        W69824  12.605  24.921   4.172
99225W        W69825  24.895  22.206   0.696
99226W        W69826   2.665   7.998   5.105
99227W        W69827  14.185   4.923   4.617
99228W        W69828  32.301  41.691  10.179
99229W        W69829  10.680  27.169  13.809
99230W        W69830  41.765  38.973  11.146
99231W        W69831  19.967  41.445   5.247
99232W        W69832  10.397   9.753  14.783
99233W        W69833  30.092  32.444   0.235
99234W        W69834  39.335  33.687   3.162
99235W        W69835  29.435  25.035   0.841
99236W        W69836  39.581  35.984  11.992
99237W        W69837  43.513  13.344   0.901
99238W        W69838  23.876  41.979   0.403
99239W        W69839  12.378  39.800   0.736
99240W        W69840  22.928  28.524   1.179
99241W        W69841  14.019  26.015  13.088
99242W        W69842  44.889  17.432  14.537
99243W        W69843  37.048  35.443   4.787
99244W        W69844   7.924  39.173  11.182
99245W        W69845  36.807   2.260  14.569
99246W        W69846   8.466  41.086   1.701
99247W        W69847  32.515  36.159   2.175
99248W        W69848  44.031  10.289  12.846
99249W        W69849  36.167  40.098   4.150
99250W        W69850  32.435   4.235   0.491
99251W        W69851  36.521  29.168   4.128
99252W        W69852  42.537  24.444  12.843
99253W        W69853   2.724  29.459  11.873
99254W        W69854  29.940  43.726   1.348
99255W        W69855  38.935  11.324  12.078
99256W        W69856  17.462  16.160  10.749
99257W        W69857  40.949  21.629  10.457
99258W        W69858  22.971  25.547  13.792
99259W        W69859  41.452   4.409  14.469
99260W        W69860   2.418  26.372  14.310
99261W        W69861  26.057  24.124  11.110
99262W        W69862  42.544  24.586  14.330
99263W        W69863  38.984  42.054   2.320
99264W        W69864  21.544  15.930   4.271
99265W        W69865  31.796   7.333   0.010
99266W        W69866  37.995  33.689  14.851
99267W        W69867   4.708  25.408   2.625
99268W        W69868  37.009  32.313  12.113
99269W        W69869  13.992  41.820  14.756
99270W        W69870  36.998  37.351   1.713
99271W        W69871  26.373  24.615  11.946
99272W        W69872  43.966  30.957  12.936
99273W        W69873  38.007  43.783  14.902
99274W        W69874  27.870   7.670  11.177
99275W        W69875  43.692   6.432   1.287
99276W        W69876  37.941  18.178   3.681
99277W        W69877  40.796   6.293   2.140
99278W        W69878   5.005   3.871   3.226
99279W        W69879   6.375  30.586   2.127
99280W        W69880   2.878  31.691  12.486
99281W        W69881  22.115  22.419  11.671
99282W        W69882  33.368  37.465   3.042
99283W        W69883  27.980  43.392   3.147
99284W        W69884  39.808  15.632  12.419
99285W        W69885  11.490  11.732  10.616
99286W        W69886   5.749  33.498   2.695
99287W        W69887   7.596  17.389  14.594
99288W        W69888  42.751  28.089  11.902
99289W        W69889  20.784   1.673   4.585
99290W        W69890  33.501  41.501   4.465
99291W        W69891  20.051  33.666   3.016
99292W        W69892   5.944  35.594   3.555
99293W        W69893  36.505   8.924  12.544
99294W        W69894  38.115   9.220   4.879
99295W        W69895  37.425  44.317   2.881
99296W        W69896  34.784  14.326   0.714
99297W        W69897  44.766  33.802   1.205
99298W        W69898  18.834  16.582   4.807
99299W        W69899  19.705  40.037   2.738
99300W        W69900  29.376  14.787  11.079
99301W        W69901  22.593  25.336  14.075
99302W        W69902   6.478  43.430  10.830
99303W        W69903  11.835  40.675  11.727
99304W        W69904  25.008   5.450   4.075
99305W        W69905  33.244  44.856  14.145
99306W        W69906  43.723  16.200  11.126
99307W        W69907   7.767  25.431   5.015
99308W        W69908  12.638  24.676  10.590
99309W        W69909  44.038  23.507  14.905
99310W        W69910  10.766   6.715   1.745
99311W        W69911   5.425  22.948   2.147
99312W        W69912  40.986  35.628  12.010
99313W        W69913  26.384   5.705  11.936
99314W        W69914  27.506   5.348   1.175
99315W        W69915  23.648  32.729  11.574
99316W        W69916  43.631  37.478  14.461
99317W        W69917   0.439  32.380  10.280
99318W        W69918  34.388  23.590  14.898
99319W        W69919  43.295  33.861   0.709
99320W        W69920  12.816   3.598   4.201
99321W        W69921  28.989  40.443  12.484
99322W        W69922   4.367  40.480   3.732
99323W        W69923  18.942   8.209   2.002
99324W        W69924  42.907   0.056   2.681
99325W        W69925  43.002  39.801   1.336
99326W        W69926  24.185   8.258  14.284
99327W        W69927  16.603  39.875  14.965
99328W        W69928  38.764  25.696  13.466
99329W        W69929   5.889   7.902   2.142
99330W        W69930  14.896  33.905  13.328
99331W        W69931  23.811  36.952  11.046
99332W        W69932  43.353   7.374  11.208
99333W        W69933   8.207  40.250  13.427
99334W        W69934   4.503   1.785  14.907
99335W        W69935  34.164   5.260   4.268
99336W        W69936  17.068  10.252   0.433
99337W        W69937  38.436  25.579  10.405
99338W        W69938  18.915  28.181  11.164
99339W        W69939  13.566  22.668   1.770
99340W        W69940  12.690  27.017  12.548
99341W        W69941  42.934  18.144   4.147
99342W        W69942  11.668  33.423   9.983
99343W        W69943   4.214  13.132   2.122
99344W        W69944  18.114  32.231   5.046
99345W        W69945  16.723  24.031  10.974
99346W        W69946   9.824  40.069   1.749
99347W        W69947   2.385   7.075  10.402
99348W        W69948   9.343  17.671   0.941
99349W        W69949  27.515  15.901   4.044
99350W        W69950  37.027  26.909   2.763
99351W        W69951  15.836  43.446  12.602
99352W        W69952  18.559  25.216  12.602
99353W        W69953   7.225   9.137   3.490
99354W        W69954  37.488  20.613  14.474
99355W        W69955  21.047  37.032  11.620
99356W        W69956  41.097   4.262   0.812
99357W        W69957  20.946  40.728   1.302
99358W        W69958  22.729  28.166  12.113
99359W        W69959   3.807  35.580   0.665
99360W        W69960  11.797   0.639   3.584
99361W        W69961  15.843  39.414  12.092
99362W        W69962  25.772   2.648  12.425
99363W        W69963  37.094  15.407  13.454
99364W        W69964   5.792  27.920   1.381
99365W        W69965  24.665   3.008  14.911
99366W        W69966  23.938  10.446   0.768
99367W        W69967  30.053  19.974   0.776
99368W        W69968  39.705  44.074  11.251
99369W        W69969  41.853  11.578  12.972
99370W        W69970  36.333  24.877   1.637
99371W        W69971   8.139  26.968  11.058
99372W        W69972   9.457  33.446   3.248
99373W        W69973  15.808  15.265   0.398
99374W        W69974  13.001  32.660   3.495
99375W        W69975  28.006  38.437  10.113
99376W        W69976  28.624  43.948   2.145
99377W        W69977  28.408  11.482  13.078
99378W        W69978   0.696  14.842   1.316
99379W        W69979  25.202  15.920   5.055
99380W        W69980  34.031   2.239   3.339
99381W        W69981  25.189  39.579  13.401
99382W        W69982  19.211  33.623  10.507
99383W        W69983  43.312  16.565   4.497
99384W        W69984  16.506  17.127   2.832
99385W        W69985  10.173  31.144   4.938
99386W        W69986  23.223  31.025  12.535
99387W        W69987  22.646   7.323   0.175
99388W        W69988   8.858   0.840   0.818
99389W        W69989  10.591  18.198  11.933
99390W        W69990  40.009  18.850  12.263
99391W        W69991  13.198  33.944  12.909
99392W        W69992  34.151   7.874   3.647
99393W        W69993  14.158  10.342   0.433
99394W        W69994   7.676   6.503  11.197
99395W        W69995  31.582  27.189   0.172
99396W        W69996  19.582  17.234   1.724
99397W        W69997  11.002  24.529   0.260
99398W        W69998  34.779  41.008   2.226
99399W        W69999   0.076  13.263  10.357
99400W        W70000  26.051  33.104   4.513
99401W        W70001  36.106  13.798   1.911
99402W        W70002  38.790   8.329  14.409
99403W        W70003   2.730   4.347   2.199
99404W        W70004   9.606  20.142   1.448
99405W        W70005  17.606  20.612  12.087
99406W        W70006  37.144   1.838  14.486
99407W        W70007  17.401  10.399  11.745
99408W        W70008  44.942  36.794   0.833
99409W        W70009   3.503   6.293   0.635
99410W        W70010  28.615  24.913   1.733
99411W        W70011  32.083  28.052  12.037
99412W        W70012  26.597  15.372   4.839
99413W        W70013  26.177  25.927  13.829
99414W        W70014   0.743  29.057  12.075
99415W        W70015   2.162  17.699  13.309
99416W        W70016  13.099  12.100   2.541
99417W        W70017   0.269  10.511   0.304
99418W        W70018   9.681  34.318  11.710
99419W        W70019  40.423  28.474   0.225
99420W        W70020  32.658  37.612  14.449
99421W        W70021  36.213   1.553   5.002
99422W        W70022  26.987  32.893  10.201
99423W        W70023  12.337   6.576  11.225
99424W        W70024  33.851  12.019   1.428
99425W        W70025   8.243  11.122  12.898
99426W        W70026   6.643  34.732   3.376
99427W        W70027  29.901  16.824  10.501
99428W        W70028  28.652  10.477   0.018
99429W        W70029  10.163  13.170  11.195
99430W        W70030   7.931   4.840   0.570
99431W        W70031  42.526  27.895   3.722
99432W        W70032  40.828   6.697   0.463
99433W        W70033   2.195  15.720   0.807
99434W        W70034  11.917  29.047   0.907
99435W        W70035   5.895  40.804  11.177
99436W        W70036  43.036  39.453   0.801
99437W        W70037   3.265  34.066  10.324
99438W        W70038   2.374  32.213  14.605
99439W        W70039  15.315  32.068   0.797
99440W        W70040  35.687  13.160   0.804
99441W        W70041  43.284  41.815   1.900
99442W        W70042   9.514  11.282  12.640
99443W        W70043  12.305  27.110  13.313
99444W        W70044   3.451  41.902   2.175
99445W        W70045  12.130  11.799  12.512
99446W        W70046  11.718  17.489  11.625
99447W        W70047  23.766  10.969   0.018
99448W        W70048   5.595  34.348   1.847
99449W        W70049   4.810  16.127   2.158
99450W        W70050  38.414  27.093   2.798
99451W        W70051  18.356  11.238  11.594
99452W        W70052  20.125   2.760   1.195
99453W        W70053  44.902  35.806  12.641
99454W        W70054  24.699  31.130   0.825
99455W        W70055  22.509  41.383   1.621
99456W        W70056  19.566  33.664  12.113
99457W        W70057  43.375  40.321   4.227
99458W        W70058  20.087  13.938   4.646
99459W        W70059   7.784  20.694   0.627
99460W        W70060  39.473  38.080   2.221
99461W        W70061  30.011  28.370  10.843
99462W        W70062  26.169   2.765  12.853
99463W        W70063  38.536  39.588   3.193
99464W        W70064  10.055   3.668   4.778
99465W        W70065  33.540  43.383  12.507
99466W        W70066  31.429   2.998  11.080
99467W        W70067  22.131  21.148  13.338
99468W        W70068  39.560  41.544   4.736
99469W        W70069  41.319  29.945   2.073
99470W        W70070  15.547  11.875   0.479
99471W        W70071   5.213  38.043   1.309
99472W        W70072  15.965   1.973   2.801
99473W        W70073  12.921  29.203  13.854
99474W        W70074  15.735  18.700   1.044
99475W        W70075  34.601   3.355   1.283
99476W        W70076  20.526  15.642  14.367
99477W        W70077  12.604  25.936  11.866
99478W        W70078  29.585  26.665  14.788
99479W        W70079  29.545  43.963   2.199
99480W        W70080   0.509   2.742   0.606
99481W        W70081   6.566  19.213  13.881
99482W        W70082  14.376  35.839   1.305
99483W        W70083  15.762  15.097  11.697
99484W        W70084   9.557  24.228  14.711
99485W        W70085  40.440  19.017   2.164
99486W        W70086   1.414   3.653   1.758
99487W        W70087  33.952  18.598  10.984
99488W        W70088  28.086   9.442   2.859
99489W        W70089  18.598  44.296  11.588
99490W        W70090  36.890  43.077  13.791
99491W        W70091  11.809  44.913  13.146
99492W        W70092   1.549   0.268   2.088
99493W        W70093   0.522  39.869  14.341
99494W        W70094  16.240  14.885  11.839
99495W        W70095   8.077  43.495  12.947
99496W        W70096  32.451  32.604  10.786
99497W        W70097  40.052  30.985  14.134
99498W        W70098  31.392  42.827  12.209
99499W        W70099  43.354   6.406   2.610
99500W        W70100  37.765  17.812   0.880
99501W        W70101  17.994   9.841   2.267
99502W        W70102  15.768  38.909  12.445
99503W        W70103  13.475  24.157  10.008
99504W        W70104   4.321  42.067   3.286
99505W        W70105  15.894  27.634   4.256
99506W        W70106  37.443  26.219  13.463
99507W        W70107  25.663  28.730  10.778
99508W        W70108   8.114  43.399  12.067
99509W        W70109  38.870  36.066   9.872
99510W        W70110  36.678  10.755  14.780
99511W        W70111  25.703  16.592   1.265
99512W        W70112  44.347  31.094  11.912
99513W        W70113  42.318  15.027  14.466
99514W        W70114   6.289  25.210   0.546
99515W        W70115  35.077  44.042   2.321
99516W        W70116  12.347   4.391  12.471
99517W        W70117  25.033   6.336   2.147
99518W        W70118   1.418   9.258   2.866
99519W        W70119   0.245  15.812   2.768
99520W        W70120  17.361  19.659   2.723
99521W        W70121  24.036  39.894   0.306
99522W        W70122  26.359  33.383   1.261
99523W        W70123  43.327  35.326   0.300
99524W        W70124  24.048  13.359  12.186
99525W        W70125   4.396   7.454   2.691
99526W        W70126   2.385   4.282  11.069
99527W        W70127  34.419  38.971   0.032
99528W        W70128  20.536  40.395  13.447
99529W        W70129   9.069   5.531  13.515
99530W        W70130  38.505  20.342   3.780
99531W        W70131  44.307  19.524  14.732
99532W        W70132  24.182   1.395   2.770
99533W        W70133  16.715  26.183  13.086
99534W        W70134  38.784  19.768   1.290
99535W        W70135  38.939  11.256  13.567
99536W        W70136  19.649  22.998   0.459
99537W        W70137   5.029  38.348   4.488
99538W        W70138   4.828  25.497  11.115
99539W        W70139  37.322  27.179   3.108
99540W        W70140  11.051  31.554   3.274
99541W        W70141  17.788  26.661   0.445
99542W        W70142  12.118   4.729   2.653
99543W        W70143  13.279  33.372  11.129
99544W        W70144  23.491   3.637   1.887
99545W        W70145  24.148  28.070   1.603
99546W        W70146  15.306   6.482  14.643
99547W        W70147  12.589  39.422  12.870
99548W        W70148  18.780  16.976  12.528
99549W        W70149   0.954  16.149  13.116
99550W        W70150  28.492   0.191   3.430
99551W        W70151   6.760  18.251  10.723
99552W        W70152  34.100   6.594  11.589
99553W        W70153  21.994  31.081   1.778
99554W        W70154  30.179  30.529   4.169
99555W        W70155  28.199  27.195   4.881
99556W        W70156  37.889  11.647  13.498
99557W        W70157  43.948  44.334  14.973
99558W        W70158   7.173  25.473  13.801
99559W        W70159  31.187   1.457  10.629
99560W        W70160  21.498  33.579  12.615
99561W        W70161  42.701  37.048  14.663
99562W        W70162  23.043  29.207  11.466
99563W        W70163   6.331   6.284  14.832
99564W        W70164  40.971  25.970   0.282
99565W        W70165  40.577   9.835   0.941
99566W        W70166  32.966  34.858   3.910
99567W        W70167   3.302  27.277  12.361
99568W        W70168  33.797  40.837   5.046
99569W        W70169  20.075  33.293  10.561
99570W        W70170   5.422  22.567  14.409
99571W        W70171   4.350   3.145   1.241
99572W        W70172  11.399  36.726  10.677
99573W        W70173   3.778  21.748   3.705
99574W        W70174  29.192  21.965  13.939
99575W        W70175  44.086  19.221   0.288
99576W        W70176  21.277  20.022  13.872
99577W        W70177   2.423  22.779   2.950
99578W        W70178  23.894   1.197   4.989
99579W        W70179  31.881  15.130  13.506
99580W        W70180  39.987  27.252   3.347
99581W        W70181   7.801  26.620  10.093
99582W        W70182  10.621  36.836   1.938
99583W        W70183  41.197  17.488   0.318
99584W        W70184  30.133  22.439  11.824
99585W        W70185   3.041  17.593   0.311
99586W        W70186   3.883  13.638  11.654
99587W        W70187  29.125  24.277   4.412
99588W        W70188  40.885  18.357   0.964
99589W        W70189  10.782   3.474   1.881
99590W        W70190  15.554   3.228   0.931
99591W        W70191   4.467  32.899   0.735
99592W        W70192  23.063  15.933  13.829
99593W        W70193  40.422  17.958  14.772
99594W        W70194  35.129  39.835   1.734
99595W        W70195  21.250  31.529   0.788
99596W        W70196  24.082  15.272   4.213
99597W        W70197  35.299  37.792  11.134
99598W        W70198   1.300  25.490   0.078
99599W        W70199  38.883  12.141  12.453
99600W        W70200  28.178  22.123  11.678
99601W        W70201  17.461  26.017  14.462
99602W        W70202  26.897  27.935  14.792
99603W        W70203   6.947   0.266   3.371
99604W        W70204  18.339   4.857   4.082
99605W        W70205   1.803   7.846  13.296
99606W        W70206   8.900  12.176  14.386
99607W        W70207  32.681  21.607  11.653
99608W        W70208  42.038  31.668   4.132
99609W        W70209  40.871  39.355   3.649
99610W        W70210  33.372  17.018  10.226
99611W        W70211  33.635  12.281   0.685
99612W        W70212  16.269  18.531  14.460
99613W        W70213  10.639  10.809   1.775
99614W        W70214  20.210  13.941  14.859
99615W        W70215  37.837  40.224  13.903
99616W        W70216   9.623  10.921   3.219
99617W        W70217  12.723   3.347  11.650
99618W        W70218   9.602   8.364  10.496
99619W        W70219  15.600   3.370   4.317
99620W        W70220   6.346  27.525  12.488
99621W        W70221  43.142  30.498   4.266
99622W        W70222  26.120  14.603   0.788
99623W        W70223  30.556  35.432   1.950
99624W        W70224  14.332   7.171   2.287
99625W        W70225   6.693  25.507  11.133
99626W        W70226  25.446   7.384  10.257
99627W        W70227   4.490  24.518   2.825
99628W        W70228  22.979  35.426   4.070
99629W        W70229  27.383   4.837   3.237
99630W        W70230  33.846  14.814  12.851
99631W        W70231  26.571  22.596  11.022
99632W        W70232  35.980  38.084   2.533
99633W        W70233  24.730  35.892  11.240
99634W        W70234   7.157  17.212  10.906
99635W        W70235  32.840  21.690  13.002
99636W        W70236  24.712  32.862   1.726
99637W        W70237  34.867  33.090  10.818
99638W        W70238  13.435  26.956  10.326
99639W        W70239   7.980  13.122  12.095
99640W        W70240   0.705  12.282  13.135
99641W        W70241  30.894  19.491  11.381
99642W        W70242  20.042  32.952   1.360
99643W        W70243  26.249   0.912   2.951
99644W        W70244  28.000   0.584   3.135
99645W        W70245  40.797   9.218  14.572
99646W        W70246  28.397  26.929  14.218
99647W        W70247  30.256  33.618   0.383
99648W        W70248  34.645  20.712   3.252
99649W        W70249  37.073   6.812   4.871
99650W        W70250  17.016   7.298   4.383
99651W        W70251  12.488   8.338   0.409
99652W        W70252  10.791  10.941   1.274
99653W        W70253   4.246  31.040  13.946
99654W        W70254  11.704  13.169  14.236
99655W        W70255  41.085  24.698  12.443
99656W        W70256  29.589  37.249   0.683
99657W        W70257   0.759  36.390   3.228
99658W        W70258  37.102  12.134  11.949
99659W        W70259  32.326  21.162  10.325
99660W        W70260  14.000  10.826  10.996
99661W        W70261  29.049  13.288   0.005
99662W        W70262  30.515  27.588  12.442
99663W        W70263  23.694   4.939   0.030
99664W        W70264  24.010  21.972   4.064
99665W        W70265  22.103   3.467  14.977
99666W        W70266  16.812   2.176  14.783
99667W        W70267  15.606  44.875   0.787
99668W        W70268  11.257   2.986   0.361
99669W        W70269  37.968   2.445   4.710
99670W        W70270  21.504  21.227   2.794
99671W        W70271  36.620  40.398   3.873
99672W        W70272  41.429   3.572   9.900
99673W        W70273   8.823  41.887   0.251
99674W        W70274  17.276  44.180  11.520
99675W        W70275  32.779   9.940  10.761
99676W        W70276   7.686   8.454  13.431
99677W        W70277  18.585   1.777  10.633
99678W        W70278  13.108  27.528   2.360
99679W        W70279   0.035   5.562   4.266
99680W        W70280   5.473  16.712  11.400
99681W        W70281  44.558  27.756  12.006
99682W        W70282  19.508  42.786  11.558
99683W        W70283   1.930  11.185  13.925
99684W        W70284  19.259  21.031   3.779
99685W        W70285  31.525  42.017   1.486
99686W        W70286  27.690  20.931   3.150
99687W        W70287  25.108  38.299   4.213
99688W        W70288   5.369  20.963  12.094
99689W        W70289  38.401  17.683  12.701
99690W        W70290  32.071  27.206   4.054
99691W        W70291  20.068   1.697   2.256
99692W        W70292   7.358  26.487  10.366
99693W        W70293  37.717  42.175   0.879
99694W        W70294  36.060  30.011   2.771
99695W        W70295  37.198  28.931  13.553
99696W        W70296   9.736   5.907   3.216
99697W        W70297   0.231   9.480   0.280
99698W        W70298  26.677  14.633   1.531
99699W        W70299   6.631  16.634   3.341
99700W        W70300  19.651  44.310  10.582
99701W        W70301  20.764  22.140   2.768
99702W        W70302  13.603  25.570   0.921
99703W        W70303  27.856  41.920  14.056
99704W        W70304  27.335   3.426   3.031
99705W        W70305  31.069  36.453   3.170
99706W        W70306  12.257  11.563   3.377
99707W        W70307  30.923   4.286  13.357
99708W        W70308  17.874  24.360  11.957
99709W        W70309  23.258  44.149  11.278
99710W        W70310   6.118  16.366  13.339
99711W        W70311  31.404  32.921  14.409
99712W        W70312  12.868  14.121   4.678
99713W        W70313   5.694  38.975   2.482
99714W        W70314  33.490  15.621   2.189
99715W        W70315  24.731  24.225   2.620
99716W        W70316  20.722  20.399  12.390
99717W        W70317  11.349  32.958  13.166
99718W        W70318  35.856   0.135  13.431
99719W        W70319   2.840   4.696   4.853
99720W        W70320   4.812  14.556   0.046
99721W        W70321   1.688  10.693   1.770
99722W        W70322   3.202  31.123   3.745
99723W        W70323  20.210  39.246  14.361
99724W        W70324  19.028   5.523  11.062
99725W        W70325   0.679  14.154   3.294
99726W        W70326  43.888  24.722  12.896
99727W        W70327  28.308   3.454   4.087
99728W        W70328  43.176   5.001   2.222
99729W        W70329  43.071   5.253  11.585
99730W        W70330  29.249  34.782  10.143
99731W        W70331  26.112  32.811   1.743
99732W        W70332  25.940  44.234  13.229
99733W        W70333  24.092   5.320   2.632
99734W        W70334  14.536  35.191  11.913
99735W        W70335  32.449  36.970  13.419
99736W        W70336  40.307  25.587  11.428
99737W        W70337  21.248  44.787   3.583
99738W        W70338  14.220  23.960  10.965
99739W        W70339  26.472  18.354  13.511
99740W        W70340  35.822  21.018   3.787
99741W        W70341  13.594  15.569   2.726
99742W        W70342  37.861  22.029   4.767
99743W        W70343  28.607  36.490   2.153
99744W        W70344  21.113   0.574   0.871
99745W        W70345  14.715  21.254   0.795
99746W        W70346  15.764  10.313  14.879
99747W        W70347  13.792   2.163   2.291
99748W        W70348  26.390  41.427  12.112
99749W        W70349  44.445  19.672   3.947
99750W        W70350  21.983  29.240  11.054
99751W        W70351  37.536  41.544   0.248
99752W        W70352  12.143  41.080   0.293
99753W        W70353   1.892  16.659  14.791
99754W        W70354   3.974  19.281   2.331
99755W        W70355  28.316  19.222   3.667
99756W        W70356  20.638   9.867   4.469
99757W        W70357  17.139  35.459   4.779
99758W        W70358   2.500  40.341  11.778
99759W        W70359  19.038  39.581   0.737
99760W        W70360   7.311  34.836   4.056
99761W        W70361  25.714  14.654  12.173
99762W        W70362   0.506  20.253  11.602
99763W        W70363  43.080   7.761   1.767
99764W        W70364  41.883   4.933  12.441
99765W        W70365  25.063   7.781  10.890
99766W        W70366  19.373  40.430  11.098
99767W        W70367   1.820  10.440  14.354
99768W        W70368  17.648   6.655  11.473
99769W        W70369   8.171  14.502   2.565
99770W        W70370   3.774  10.378  12.110
99771W        W70371  39.407  17.415   2.600
99772W        W70372   5.760  37.842   4.814
99773W        W70373  44.304   6.730  14.384
99774W        W70374  26.140  21.478  13.890
99775W        W70375  35.651  27.965   2.357
99776W        W70376   5.916  24.339   4.271
99777W        W70377  18.921   2.713   3.511
99778W        W70378  39.271  42.507  11.466
99779W        W70379  33.595   5.701  14.488
99780W        W70380  38.188  34.523   0.408
99781W        W70381   0.691   2.846   4.686
99782W        W70382   5.183  43.343  11.089
99783W        W70383  37.116  21.258  13.098
99784W        W70384  15.793  14.161  12.945
99785W        W70385   7.196  34.101   2.768
99786W        W70386  11.626   0.622   2.260
99787W        W70387   7.775   3.571  10.276
99788W        W70388  12.172  19.337  11.156
99789W        W70389  34.298  28.977   1.837
99790W        W70390  28.090  42.616  11.093
99791W        W70391  35.621  32.874  10.734
99792W        W70392  19.313  26.620   2.279
99793W        W70393  42.459  25.126  14.459
99794W        W70394  31.459  11.490   0.582
99795W        W70395   2.976  12.647  14.848
99796W        W70396  17.691  42.045  13.441
99797W        W70397   7.278  27.450  12.109
99798W        W70398   3.043  27.726  14.118
99799W        W70399   6.069  30.521  11.904
99800W        W70400  35.189  28.579  10.560
99801W        W70401  15.733  23.512  14.997
99802W        W70402   8.675  19.823   3.313
99803W        W70403  14.743   9.826   3.560
99804W        W70404   8.051  33.348   1.464
99805W        W70405  23.471   1.595  14.323
99806W        W70406   8.690   5.323   0.400
99807W        W70407  29.498  14.886  11.906
99808W        W70408   2.774  16.568  11.625
99809W        W70409  39.869  36.102  14.238
99810W        W70410  42.895  12.248  13.333
99811W        W70411   1.369  10.773   3.617
99812W        W70412  14.622  37.469  13.660
99813W        W70413  22.221   9.202  11.758
99814W        W70414  25.082  35.671   2.196
99815W        W70415  39.779  43.913  14.757
99816W        W70416  28.664   0.778  14.571
99817W        W70417   0.170   5.046   0.704
99818W        W70418  28.081  36.919  10.162
99819W        W70419   7.592  41.833  14.330
99820W        W70420   8.478  34.076   1.894
99821W        W70421  17.204  22.590   0.201
99822W        W70422  38.149   9.262  10.788
99823W        W70423  18.537   2.469   0.364
99824W        W70424  26.660  12.144   1.594
99825W        W70425  10.132   7.932   2.790
99826W        W70426  26.347  11.706  10.823
99827W        W70427  17.801   5.144  12.137
99828W        W70428  40.520   7.617   5.026
99829W        W70429  44.375  41.956  12.297
99830W        W70430  36.637  24.917  14.457
99831W        W70431  43.381  30.678   3.237
99832W        W70432  33.792  25.267  13.379
99833W        W70433   2.726  38.691   4.875
99834W        W70434  37.948   4.194   3.216
99835W        W70435  36.998  30.677  11.096
99836W        W70436   6.144  43.347  12.063
99837W        W70437  19.072   2.805   1.296
99838W        W70438  26.247  39.582   3.296
99839W        W70439  20.753  31.448  10.694
99840W        W70440  28.618  26.377   3.043
99841W        W70441   3.783  32.873   3.435
99842W        W70442  37.101  11.640   1.818
99843W        W70443   8.442  30.034   3.746
99844W        W70444  28.161  31.500   3.675
99845W        W70445  10.153  20.313   4.173
99846W        W70446  11.431   0.912  10.695
99847W        W70447  40.866   6.632   3.323
99848W        W70448  39.849   8.463   0.644
99849W        W70449  34.933  36.854   0.363
99850W        W70450  22.582  25.955   1.271
99851W        W70451   8.416  21.674  11.125
99852W        W70452  31.625  13.259   0.418
99853W        W70453  24.739  31.718  11.183
99854W        W70454   4.174  20.263  12.502
99855W        W70455  35.323  43.718  14.254
99856W        W70456  32.138  23.027   4.637
99857W        W70457  19.592   8.110   0.901
99858W        W70458  21.218  38.354   3.232
99859W        W70459  29.395  15.603  10.658
99860W        W70460  38.861  15.462   2.621
99861W        W70461  11.855  27.654   1.244
99862W        W70462  41.945  23.978   1.348
99863W        W70463   5.784  17.281   2.226
99864W        W70464  28.847  39.507   3.675
99865W        W70465  19.137  19.255  10.733
99866W        W70466   6.935  44.413   2.854
99867W        W70467  30.198  41.339  14.885
99868W        W70468  32.637  21.259  12.827
99869W        W70469   6.914   6.354   2.869
99870W        W70470  28.621  29.088   0.962
99871W        W70471  11.112  32.840  11.473
99872W        W70472   1.154  37.969  11.052
99873W        W70473  30.007  20.182  10.766
99874W        W70474  13.678  17.464  12.565
99875W        W70475  43.233  17.790  14.805
99876W        W70476  37.011   4.002  13.380
99877W        W70477  32.091  12.463  12.397
99878W        W70478   8.220  13.180  14.022
99879W        W70479  12.567  15.930   0.545
99880W        W70480   7.600  23.201   0.216
99881W        W70481  44.790  38.917  10.609
99882W        W70482  44.701  31.915   4.333
99883W        W70483  25.695  30.869  13.895
99884W        W70484  20.796  23.247   2.689
99885W        W70485   8.213  26.780   3.279
99886W        W70486  21.700   1.763  12.116
99887W        W70487  37.353  40.893  11.634
99888W        W70488   3.457  42.256  12.824
99889W        W70489  38.832  24.553   0.037
99890W        W70490   5.076  30.532   3.063
99891W        W70491  40.864  14.384  14.431
99892W        W70492  32.484  38.103  14.312
99893W        W70493   3.368   4.140   3.136
99894W        W70494  32.473  17.541   2.333
99895W        W70495   8.034  38.053  11.971
99896W        W70496  26.761  16.259   3.835
99897W        W70497   6.698  24.742  12.514
99898W        W70498  10.615  29.955  13.341
99899W        W70499  18.862   4.981   4.103
99900W        W70500  12.296  34.555   3.587
99901W        W70501   6.717  32.931  12.582
99902W        W70502  16.111  16.164   2.254
99903W        W70503  18.852  27.950  12.439
99904W        W70504  13.850   5.276  14.747
99905W        W70505  14.564  13.223   0.742
99906W        W70506  36.610  16.385  14.462
99907W        W70507  13.231  14.053  13.495
99908W        W70508  15.345  10.352   4.646
99909W        W70509  11.260  36.852  13.365
99910W        W70510  22.298  34.779  13.711
99911W        W70511   8.822  23.899  10.667
99912W        W70512  27.963  36.204  11.629
99913W        W70513  42.638  37.636  13.238
99914W        W70514  27.526  33.430   2.302
99915W        W70515  43.385  36.139  11.172
99916W        W70516  40.005  38.235   2.203
99917W        W70517  32.789  43.132  14.884
99918W        W70518   0.040  12.551  14.427
99919W        W70519  43.227  39.987   3.173
99920W        W70520  43.801   5.774   0.697
99921W        W70521  23.580  26.360  13.602
99922W        W70522   2.179  11.679  12.569
99923W        W70523   4.278  40.627  10.554
99924W        W70524   7.581  15.099  11.732
99925W        W70525  44.851  27.953   3.740
99926W        W70526  14.115  14.331   2.376
99927W        W70527  21.105  22.717   2.314
99928W        W70528  18.520  11.859  12.066
99929W        W70529  42.720  39.190  13.523
99930W        W70530  27.201  20.199  13.569
99931W        W70531  22.822  12.131   1.349
99932W        W70532  43.746   8.723   3.368
99933W        W70533  32.975  38.407  13.712
99934W        W70534  23.188  29.048  13.852
99935W        W70535  38.723   5.179   4.103
99936W        W70536  38.747  19.187   9.747
99937W        W70537  36.358  43.485  14.410
99938W        W70538  38.344  24.625  11.499
99939W        W70539  24.530  22.074   1.854
99940W        W70540  35.633  31.421  13.847
99941W        W70541  10.922  22.001  11.231
99942W        W70542  30.104  41.790   1.224
99943W        W70543  19.045  16.261  12.801
99944W        W70544  31.614  41.308  13.065
99945W        W70545  18.430  44.066   0.870
99946W        W70546  17.951  25.046  10.256
99947W        W70547  33.085  12.295  10.890
99948W        W70548  17.029  37.273  12.124
99949W        W70549   1.800  37.749   0.649
99950W        W70550  33.076  34.392   2.278
99951W        W70551  16.874   7.619  12.554
99952W        W70552  43.485  33.301   4.653
99953W        W70553  21.775  11.279  12.990
99954W        W70554  25.895  16.683   2.897
99955W        W70555  23.583  16.153   1.089
99956W        W70556   0.887  24.881  11.667
99957W        W70557   2.493   0.818   0.331
99958W        W70558   9.462   3.282   3.228
99959W        W70559  23.873  31.361  12.036
99960W        W70560   9.132  43.365   1.790
99961W        W70561  28.520   0.388  13.682
99962W        W70562  14.139   4.404   4.700
99963W        W70563  29.853   8.846   2.822
99964W        W70564  19.308  29.085  11.191
99965W        W70565  19.298  44.021   1.756
99966W        W70566  37.082  37.383   4.004
99967W        W70567  42.714  32.153  10.550
99968W        W70568  16.927  27.088   2.995
99969W        W70569  25.259   2.738  12.354
99970W        W70570  44.391  12.903  13.060
99971W        W70571  35.339   1.989   3.154
99972W        W70572  18.929  24.197  14.878
99973W        W70573  13.573  40.692   3.147
99974W        W70574  13.354  37.056   3.872
99975W        W70575  16.813  29.610  10.895
99976W        W70576  25.704  26.005   4.612
99977W        W70577   6.610  30.445  11.985
99978W        W70578   4.820  12.381  12.944
99979W        W70579  27.475  22.478   1.203
99980W        W70580  26.917   9.673   2.411
99981W        W70581  29.470  39.364   9.918
99982W        W70582  27.608  10.654   2.903
99983W        W70583  25.671  22.987  12.000
99984W        W70584  43.892  36.248   3.647
99985W        W70585  38.115  25.937  12.575
99986W        W70586   8.226  27.615   2.830
99987W        W70587  33.681  23.117  11.952
99988W        W70588  40.438  24.263  11.865
99989W        W70589  16.814  39.241  11.999
99990W        W70590  44.917   0.903  14.994
99991W        W70591  38.831   2.313  14.996
99992W        W70592   0.443  12.355   2.184
99993W        W70593  18.328  31.572  10.462
99994W        W70594  33.192  19.260   2.227
99995W        W70595  29.991  38.535  12.070
99996W        W70596   3.301   1.803  10.763
99997W        W70597  18.751  25.628  13.419
99998W        W70598  39.596  36.848  13.811
99999W        W70599   1.164   0.196   1.299
    0W        W70600   2.773  31.873   5.073
    1W        W70601  26.034  38.560   2.384
    2W        W70602  29.506  14.718   2.780
    3W        W70603  44.619  36.044   0.247
    4W        W70604   6.242  17.700  14.609
    5W        W70605   6.744  23.617   3.126
    6W        W70606  37.797  31.476   2.104
    7W        W70607   2.409   6.148   3.669
    8W        W70608  33.938  19.511  13.312
    9W        W70609  17.551  19.056  10.719
   10W        W70610   9.825  25.154  11.563
   11W        W70611  44.342  33.968  12.435
   12W        W70612  30.603  20.646  13.310
   13W        W70613  42.998   2.948  14.514
   14W        W70614   0.871  22.300  14.054
   15W        W70615  35.587   0.201  14.288
   16W        W70616  30.636  44.431   0.620
   17W        W70617  20.169  25.989   0.388
   18W        W70618  13.929  13.842   2.358
   19W        W70619  13.259   9.222  12.984
   20W        W70620  30.386  39.052   0.275
   21W        W70621  44.998  37.836  13.599
   22W        W70622  42.939   3.665  14.026
   23W        W70623   3.888  19.814   0.763
   24W        W70624   6.451  15.865   3.587
   25W        W70625   1.900  21.654   2.711
   26W        W70626  13.730  33.407   1.359
   27W        W70627  42.154   6.248  13.385
   28W        W70628  39.916  35.068  13.142
   29W        W70629  16.148   6.845   4.721
   30W        W70630   7.799  13.063   3.273
   31W        W70631  32.427  40.985   1.683
   32W        W70632  32.444  36.497   2.801
   33W        W70633   3.003  32.040  13.841
   34W        W70634  40.754  19.547  14.726
   35W        W70635  13.023  43.173   2.124
   36W        W70636  40.508  14.626  11.127
   37W        W70637   1.988  30.099  12.094
   38W        W70638  15.103   9.982  13.990
   39W        W70639  32.089   2.802  14.270
   40W        W70640   4.148  37.007   1.767
   41W        W70641   5.869  28.230  12.467
   42W        W70642  22.221   1.028  14.834
   43W        W70643   3.243  37.758  10.624
   44W        W70644  25.535   3.656   3.268
   45W        W70645  36.089   4.913  10.916
   46W        W70646  21.891   4.499  13.999
   47W        W70647  19.490  42.362   0.202
   48W        W70648   4.610   6.680   0.969
   49W        W70649  29.705  17.239   5.061
   50W        W70650  29.039  22.470  14.531
   51W        W70651   6.749  38.779   0.903
   52W        W70652  15.237  22.200   4.226
   53W        W70653  39.055  10.117   9.766
   54W        W70654  37.883   2.744  11.171
   55W        W70655   5.265  20.714   2.778
   56W        W70656  41.756  36.457   1.203
   57W        W70657  42.489  15.649   4.190
   58W        W70658  17.563  36.655   2.622
   59W        W70659  35.287  15.224  13.303
   60W        W70660  37.920  43.044  13.463
   61W        W70661   5.199  39.770   0.352
   62W        W70662  38.423  36.524   2.137
   63W        W70663  27.704   1.940   1.520
   64W        W70664  23.154  20.293   4.651
   65W        W70665  41.626  36.411   1.944
   66W        W70666  16.777   5.412  12.914
   67W        W70667  33.419   6.320  13.892
   68W        W70668  25.629  27.183   0.259
   69W        W70669  42.806  17.532  12.313
   70W        W70670  39.298  30.551  14.245
   71W        W70671   4.850   9.806  13.525
   72W        W70672  14.980  36.335  12.312
   73W        W70673  32.834  35.691  13.408
   74W        W70674   2.040  23.075   4.188
   75W        W70675  22.020  16.644   0.451
   76W        W70676  28.230  16.870  13.825
   77W        W70677   9.401  10.124   4.164
   78W        W70678  33.385  31.637   3.593
   79W        W70679  20.664   6.691   0.380
   80W        W70680  17.676  36.157  11.248
   81W        W70681   7.954  28.784   4.154
   82W        W70682  21.187  28.131   4.853
   83W        W70683   5.167  27.468   0.903
   84W        W70684   2.258  43.209  11.328
   85W        W70685  26.567  16.445   4.646
   86W        W70686  14.164  25.228   3.226
   87W        W70687  24.161  25.449  12.003
   88W        W70688  25.616  36.327   2.230
   89W        W70689   6.120  12.121   2.735
   90W        W70690  20.305  44.573   0.220
   91W        W70691  31.568   7.226  14.572
   92W        W70692   8.363   9.721  12.239
   93W        W70693  41.863  14.607   3.783
   94W        W70694  27.235   5.000   1.961
   95W        W70695  14.064   1.728  13.077
   96W        W70696  22.648  44.846  14.735
   97W        W70697   8.692   2.293   0.019
   98W        W70698  15.113   4.856   4.547
   99W        W70699  38.453  32.868  10.710
  100W        W70700  23.247  43.508   1.421
  101W        W70701  20.520  22.501   1.478
  102W        W70702  35.901  36.633  11.922
  103W        W70703  25.633  22.004   4.651
  104W        W70704  33.941  22.604  13.584
  105W        W70705  33.914  12.467   4.502
  106W        W70706  16.693  10.799  12.005
  107W        W70707   4.774  27.691  13.031
  108W        W70708  17.295  31.679   2.738
  109W        W70709  10.308  25.183  10.298
  110W        W70710  17.860  21.909  13.915
  111W        W70711  40.988  36.623  12.956
  112W        W70712  26.351  44.140  13.894
  113W        W70713  41.942  31.601   4.666
  114W        W70714   4.300  22.787   0.032
  115W        W70715  40.981  15.097   0.279
  116W        W70716   7.223  13.130   0.422
  117W        W70717  35.552  15.356  12.452
  118W        W70718  41.484  32.550  11.115
  119W        W70719  43.390  42.425   2.694
  120W        W70720  17.965  23.085  12.073
  121W        W70721   3.021  13.170   2.735
  122W        W70722  23.003  24.186   1.246
  123W        W70723  18.835  29.207   1.219
  124W        W70724  13.582  38.633  11.140
  125W        W70725  15.193   7.391   1.992
  126W        W70726  32.897  25.567   1.187
  127W        W70727   1.011  38.694   0.405
  128W        W70728  19.739   5.928  13.792
  129W        W70729  39.524  38.973   2.114
  130W        W70730  25.575   0.418  13.371
  131W        W70731   5.269  34.044   3.169
  132W        W70732  42.920  23.086   2.940
  133W        W70733   5.100  25.250   4.332
  134W        W70734  35.503  28.498  10.971
  135W        W70735  41.884   3.155  13.134
  136W        W70736  38.596  21.811   0.242
  137W        W70737   4.874  13.709   0.870
  138W        W70738  13.368   0.822   2.885
  139W        W70739  29.901  21.714  12.561
  140W        W70740  21.759  33.628   2.665
  141W        W70741   0.907  17.127  10.400
  142W        W70742  17.286  17.693  14.976
  143W        W70743  38.484  36.970   1.044
  144W        W70744   1.902  12.479  13.459
  145W        W70745  43.477  21.496   1.246
  146W        W70746  33.801  25.772   3.731
  147W        W70747   7.180  31.203  10.660
  148W        W70748   1.309  44.855   0.890
  149W        W70749  10.321  44.278   2.146
  150W        W70750  40.373  15.147  11.133
  151W        W70751  14.443  32.829   1.319
  152W        W70752  39.483  24.113   1.968
  153W        W70753  11.244  25.750   4.228
  154W        W70754  12.108  37.897   3.723
  155W        W70755  25.476  19.038  14.058
  156W        W70756  17.244   9.839   4.571
  157W        W70757  26.699   5.807   2.252
  158W        W70758  11.893  18.708  14.394
  159W        W70759   8.927  35.089   0.784
  160W        W70760  44.827   8.820   4.166
  161W        W70761  11.729  36.769   3.206
  162W        W70762  16.041   6.486  12.197
  163W        W70763   9.277   5.174  11.264
  164W        W70764  10.334  35.867  13.833
  165W        W70765   9.355   3.803  11.085
  166W        W70766   5.794  15.132   1.651
  167W        W70767   5.306  11.094   4.142
  168W        W70768  27.763  13.574   4.217
  169W        W70769  24.005  16.745  14.059
  170W        W70770   3.848  17.137   2.206
  171W        W70771  24.688  23.771   2.848
  172W        W70772  21.265   0.977  12.974
  173W        W70773  34.075   3.884  14.853
  174W        W70774  32.614  21.577   4.075
  175W        W70775  16.616   5.364  13.604
  176W        W70776  38.766  38.952  10.372
  177W        W70777  29.431  39.651   2.665
  178W        W70778  29.016  32.813   3.800
  179W        W70779  21.076  30.086  10.667
  180W        W70780  31.547  13.544  14.353
  181W        W70781   7.356  38.553   4.303
  182W        W70782   9.149  36.081   3.611
  183W        W70783  22.167  39.319  11.223
  184W        W70784  17.031  41.333   1.719
  185W        W70785  41.578  44.377  11.233
  186W        W70786  18.433  44.269  14.373
  187W        W70787  24.114  43.445   1.440
  188W        W70788   6.892  15.631   3.499
  189W        W70789   1.389  10.424  14.055
  190W        W70790  28.891  30.942   1.531
  191W        W70791  13.233  17.327   1.867
  192W        W70792  35.076   2.717   1.605
  193W        W70793  42.753  29.537  11.246
  194W        W70794  40.510  36.023   4.067
  195W        W70795   3.695   7.921  11.053
  196W        W70796  36.023  34.460  13.577
  197W        W70797  43.411  30.862  11.612
  198W        W70798  41.517  33.064  11.968
  199W        W70799  19.064  19.643   0.623
  200W        W70800  25.118  11.445   2.309
  201W        W70801  11.241  25.649   4.755
  202W        W70802  16.703   2.299   0.736
  203W        W70803  41.434  20.148  12.815
  204W        W70804  20.191  44.275  12.939
  205W        W70805  34.688   6.950   3.737
  206W        W70806  11.234  43.391   2.733
  207W        W70807  28.506  29.736   4.230
  208W        W70808  43.212  14.221   9.907
  209W        W70809   5.443  30.847   4.602
  210W        W70810  27.936  37.381   3.382
  211W        W70811  31.940  32.573  10.722
  212W        W70812  42.483  25.805  13.482
  213W        W70813  11.722  39.034   1.913
  214W        W70814  20.521  44.920   0.924
  215W        W70815  35.575  34.837  13.862
  216W        W70816  28.885   0.967  11.170
  217W        W70817   1.361  19.489  12.095
  218W        W70818   5.731  14.094   2.848
  219W        W70819  17.967  27.082  12.053
  220W        W70820  43.159  23.183  14.809
  221W        W70821   6.799  25.472  14.462
  222W        W70822  16.622  14.122  12.656
  223W        W70823   7.656  19.978   2.883
  224W        W70824  21.149  15.972   1.013
  225W        W70825  19.951  26.149  13.201
  226W        W70826   9.381  41.808  11.471
  227W        W70827  38.174  24.729   4.072
  228W        W70828  23.029   8.917   2.076
  229W        W70829  16.148  16.656  11.286
  230W        W70830   3.999   3.766  10.711
  231W        W70831  43.589  30.468   1.939
  232W        W70832  27.704  35.739  12.188
  233W        W70833  29.764  23.398   3.770
  234W        W70834  37.358  14.045  12.020
  235W        W70835   7.842  33.371   0.974
  236W        W70836  41.943  40.028   2.798
  237W        W70837  36.432  25.185  11.153
  238W        W70838  32.923  27.921   0.004
  239W        W70839  12.354   1.233  13.049
  240W        W70840  11.268  41.899  13.996
  241W        W70841  26.732  30.506   1.323
  242W        W70842  24.299  12.889  12.152
  243W        W70843  27.659   2.549  13.148
  244W        W70844  34.362  32.959  10.696
  245W        W70845   8.289  42.526   1.748
  246W        W70846  40.250  37.396  14.279
  247W        W70847  30.213   2.810  12.591
  248W        W70848  25.493  17.546   3.180
  249W        W70849  35.904  33.790   1.225
  250W        W70850   4.037  34.281   0.013
  251W        W70851   3.686  36.612   2.912
  252W        W70852  39.106   7.706   0.538
  253W        W70853   3.778   5.244  14.499
  254W        W70854   0.390  11.128  13.641
  255W        W70855  34.389   9.577   3.259
  256W        W70856   7.313  33.636   1.834
  257W        W70857  27.056  27.161  12.986
  258W        W70858  15.798  12.063  10.735
  259W        W70859  22.810  18.995  13.893
  260W        W70860   5.462  29.613  14.767
  261W        W70861  33.168  33.084  14.399
  262W        W70862  39.379  18.265   0.342
  263W        W70863   3.280  31.644   1.890
  264W        W70864  12.993  20.263   3.262
  265W        W70865  37.327  10.613   1.818
  266W        W70866   5.007  38.043   4.051
  267W        W70867  44.109  28.468   0.632
  268W        W70868   0.188   7.072  13.456
  269W        W70869  14.786   7.702   4.260
  270W        W70870  38.894  35.882  13.392
  271W        W70871   5.687  14.879  12.156
  272W        W70872  29.165  18.204   3.224
  273W        W70873  30.653  34.609  11.239
  274W        W70874   0.699  22.015   0.956
  275W        W70875  15.994  27.981  11.241
  276W        W70876  35.383   7.380  12.037
  277W        W70877  39.989   9.520  14.852
  278W        W70878  25.648   0.905   2.232
  279W        W70879  39.808   5.770   3.123
  280W        W70880  26.111  22.286  10.838
  281W        W70881  22.954  29.494   3.174
  282W        W70882  40.896  15.015   1.698
  283W        W70883  26.976  36.483   1.759
  284W        W70884   5.857   9.851  13.415
  285W        W70885  31.983   1.222   1.327
  286W        W70886  13.332   5.915  13.383
  287W        W70887   2.880   6.165   4.344
  288W        W70888   3.356  22.057  10.643
  289W        W70889  25.678   8.271  14.060
  290W        W70890  42.027  23.631   0.914
  291W        W70891   8.751   8.413  14.885
  292W        W70892  37.400   3.927  12.420
  293W        W70893  30.087  31.101  12.431
  294W        W70894   4.690  14.369  11.649
  295W        W70895  22.397  16.809  14.827
  296W        W70896  39.423  42.249  13.745
  297W        W70897  10.147  38.815  13.619
  298W        W70898  35.967  29.556  13.326
  299W        W70899  39.522  14.716  11.143
  300W        W70900  10.398  18.242  13.315
  301W        W70901  29.728  28.147  12.020
  302W        W70902  15.598   1.922  10.771
  303W        W70903   5.986  16.560   2.773
  304W        W70904  21.206  14.668   4.929
  305W        W70905   7.713   1.296  14.272
  306W        W70906  33.029  36.323   3.484
  307W        W70907  35.904   7.236   4.633
  308W        W70908  24.778  25.087   1.335
  309W        W70909  18.289   6.679   1.208
  310W        W70910   0.243  18.262  12.481
  311W        W70911  13.022  25.063   0.418
  312W        W70912   1.445  33.455   5.365
  313W        W70913   9.344  17.321   1.317
  314W        W70914   3.987  29.076   0.033
  315W        W70915  33.292  10.176  12.493
  316W        W70916  20.530  16.070  12.100
  317W        W70917  35.907  39.510   3.185
  318W        W70918  38.768   3.397  12.588
  319W        W70919  43.309  40.803  13.997
  320W        W70920  41.675  37.559   3.661
  321W        W70921  24.793   2.323  14.812
  322W        W70922  15.069  30.010   1.932
  323W        W70923  35.846   7.742  13.136
  324W        W70924  32.982  21.368   0.813
  325W        W70925  43.012  44.495   4.514
  326W        W70926  17.084  12.367  11.034
  327W        W70927  36.341  30.828   3.324
  328W        W70928  26.605  21.226   0.407
  329W        W70929  39.954   9.241  12.564
  330W        W70930   2.498  39.750  12.484
  331W        W70931  10.904  38.349  11.443
  332W        W70932  42.335  17.195   1.191
  333W        W70933  19.017  33.512   1.332
  334W        W70934   4.831   4.183  11.187
  335W        W70935  11.314  13.407  13.349
  336W        W70936  19.582   2.876  11.934
  337W        W70937   4.473  39.676  14.807
  338W        W70938  31.601  32.241   5.059
  339W        W70939  41.474   2.874   5.000
  340W        W70940   7.947  30.573   1.792
  341W        W70941  38.457  15.177   3.764
  342W        W70942  39.361  36.573   4.113
  343W        W70943  24.614  22.575   1.693
  344W        W70944   2.686  26.538  13.854
  345W        W70945  30.118  42.843   3.180
  346W        W70946  40.138  12.079   4.852
  347W        W70947  42.011  27.525   1.381
  348W        W70948  13.564   9.910   3.193
  349W        W70949   3.027  25.281   4.095
  350W        W70950   0.879   3.757   3.400
  351W        W70951  12.014   0.065   4.063
  352W        W70952  29.580  30.146   0.332
  353W        W70953  18.181  18.036  11.970
  354W        W70954  44.811   2.381  12.490
  355W        W70955  17.133  15.036   0.550
  356W        W70956  40.494  22.485  10.499
  357W        W70957  16.120  24.448  13.977
  358W        W70958  34.375  19.791  13.056
  359W        W70959  36.029  44.584  12.434
  360W        W70960  28.489  28.448  10.703
  361W        W70961  30.288  32.720   1.820
  362W        W70962  32.406  35.611  14.850
  363W        W70963  27.594  11.608  12.455
  364W        W70964  38.502  39.851   3.682
  365W        W70965  31.565  35.857  13.281
  366W        W70966  18.733  42.211  14.259
  367W        W70967   2.721   2.812   4.803
  368W        W70968   3.497  20.058  11.373
  369W        W70969   3.675   1.201  11.939
  370W        W70970  26.498  31.120   3.716
  371W        W70971  30.008  29.660  14.246
  372W        W70972  21.789   6.907   3.367
  373W        W70973  32.149  36.961  13.842
  374W        W70974   5.851   7.323  12.217
  375W        W70975   7.883  33.928  10.158
  376W        W70976  42.978   9.674  11.570
  377W        W70977  21.044  32.259  12.154
  378W        W70978  38.031  20.946   3.376
  379W        W70979   8.923  24.914  14.553
  380W        W70980  43.193   8.015  13.356
  381W        W70981   8.700  44.334   3.206
  382W        W70982  26.767  19.962   2.631
  383W        W70983   3.746  23.037  11.527
  384W        W70984  13.828  43.328  12.322
  385W        W70985  29.062  30.672   3.557
  386W        W70986   3.027   3.288   0.656
  387W        W70987  11.863  43.269   3.420
  388W        W70988  18.152  26.224   2.635
  389W        W70989   3.925  29.666  14.595
  390W        W70990  22.804  16.091  11.763
  391W        W70991  23.653  23.238  12.512
  392W        W70992  14.546  22.703   1.972
  393W        W70993   2.972  43.709  11.608
  394W        W70994  20.548  20.260   4.715
  395W        W70995   2.505   8.910  12.594
  396W        W70996  14.560  43.519  14.418
  397W        W70997  14.551  23.041  14.685
  398W        W70998  27.128  17.883  11.997
  399W        W70999  33.548  13.437  14.935
  400W        W71000  13.416  16.618   2.404
  401W        W71001  28.621  29.903  12.030
  402W        W71002  16.654  31.700  12.473
  403W        W71003  29.935  11.118   2.274
  404W        W71004  39.341  14.359   0.179
  405W        W71005  39.445  41.836   2.206
  406W        W71006   4.782  34.377   1.418
  407W        W71007  37.430   5.724  13.058
  408W        W71008   0.847   4.914  13.766
  409W        W71009   0.823  22.927   1.487
  410W        W71010  21.511  34.458  14.008
  411W        W71011   5.838   6.742  14.095
  412W        W71012  22.125   4.259  14.490
  413W        W71013  34.041  38.816  13.862
  414W        W71014  42.509   1.317  14.994
  415W        W71015  40.492  40.963   2.793
  416W        W71016   2.408  33.117   3.298
  417W        W71017   4.417  38.248   1.882
  418W        W71018   7.450   4.059   2.171
  419W        W71019  32.437  33.674  13.982
  420W        W71020  38.799  12.293   4.102
  421W        W71021  23.952  17.773  13.419
  422W        W71022  36.415   5.726  12.052
  423W        W71023   3.316   6.450  12.108
  424W        W71024  42.866  40.530  14.077
  425W        W71025  23.045  30.293   2.167
  426W        W71026  30.072  17.563  13.695
  427W        W71027  11.832  31.573   2.795
  428W        W71028   4.057  15.677   0.444
  429W        W71029  38.977  30.880  13.987
  430W        W71030  12.619  20.613   1.296
  431W        W71031   7.327  12.020  11.036
  432W        W71032  23.950   9.166   2.001
  433W        W71033  30.430  31.635  13.366
  434W        W71034  35.106   1.358  12.870
  435W        W71035  42.796  41.411   2.216
  436W        W71036  35.135  40.991  13.104
  437W        W71037  44.340   2.795  10.647
  438W        W71038  38.746  38.561   3.311
  439W        W71039   0.439  18.023   4.868
  440W        W71040   6.307  16.036  13.950
  441W        W71041   7.700   4.920  14.108
  442W        W71042   9.331   1.198  12.581
  443W        W71043  25.680  41.757   2.895
  444W        W71044  17.183  15.347  12.847
  445W        W71045  13.245  11.347  10.421
  446W        W71046   2.255  38.481  14.869
  447W        W71047  39.795  33.350  11.874
  448W        W71048   4.294   1.251  13.992
  449W        W71049  11.354  43.835   4.123
  450W        W71050  16.302  31.446  11.413
  451W        W71051   0.773  21.611  12.936
  452W        W71052  39.318  38.926   4.867
  453W        W71053  28.003  25.097  11.142
  454W        W71054  42.442  40.568   2.138
  455W        W71055  40.259   6.323   1.257
  456W        W71056  25.936  41.832  11.458
  457W        W71057  19.309  27.191   1.581
  458W        W71058  19.814  41.336   3.637
  459W        W71059  26.053  40.471   0.729
  460W        W71060  19.061   7.762  14.826
  461W        W71061  36.047  44.478  11.890
  462W        W71062  36.873  38.105   2.187
  463W        W71063  18.877   6.978   5.000
  464W        W71064   3.026  19.746  13.555
  465W        W71065  41.828  14.730  10.978
  466W        W71066  27.072  27.681   3.604
  467W        W71067  14.074  28.053   4.422
  468W        W71068  28.201   8.163  13.516
  469W        W71069  38.869   4.909  13.889
  470W        W71070  30.794  18.480  13.413
  471W        W71071  38.784  26.054   4.428
  472W        W71072  30.060  34.905  13.008
  473W        W71073  32.647  26.022   4.049
  474W        W71074  13.835  37.851  13.868
  475W        W71075   9.629   6.119   2.754
  476W        W71076   4.681  10.418   4.071
  477W        W71077   7.224  37.650  12.989
  478W        W71078  43.025   3.844   2.722
  479W        W71079  38.807  29.433   3.905
  480W        W71080  35.626   9.767   2.904
  481W        W71081   4.828  15.923  13.901
  482W        W71082  20.532  43.448   3.672
  483W        W71083  42.743   8.141   2.746
  484W        W71084  23.962   9.243  14.328
  485W        W71085  38.456  19.655   0.902
  486W        W71086  26.156   6.414  10.893
  487W        W71087  22.212  37.522  13.470
  488W        W71088  38.433  12.773  12.767
  489W        W71089  21.645  13.304   0.941
  490W        W71090  18.886  41.376  11.022
  491W        W71091   9.252  19.826   1.707
  492W        W71092   6.527  19.220   4.277
  493W        W71093   6.619   4.617   4.176
  494W        W71094   5.340  30.947   3.320
  495W        W71095   6.740  12.651   4.125
  496W        W71096  17.170  38.638   4.297
  497W        W71097  23.944  26.169   0.320
  498W        W71098  13.634  35.431   2.407
  499W        W71099  44.804   6.759   3.619
  500W        W71100   9.225  24.059  13.511
  501W        W71101  16.557  16.764  13.518
  502W        W71102  13.576  20.325  12.384
  503W        W71103  35.021  10.687   2.702
  504W        W71104  19.097  39.517  12.906
  505W        W71105  37.411   4.788  13.388
  506W        W71106  33.316  36.283   1.803
  507W        W71107  20.213  39.376  12.103
  508W        W71108   1.193  42.379   0.994
  509W        W71109  32.769  29.117  11.609
  510W        W71110  20.201  32.040   4.225
  511W        W71111  32.422  36.472   1.781
  512W        W71112  23.181  37.633   3.942
  513W        W71113  40.925  18.177  10.723
  514W        W71114  43.455  19.478  12.985
  515W        W71115  16.048  18.750   3.195
  516W        W71116  33.551  20.024  12.113
  517W        W71117  44.263   4.186   0.128
  518W        W71118  28.897  39.014  10.678
  519W        W71119  18.815  24.362  14.049
  520W        W71120  24.472  39.080  10.397
  521W        W71121  15.116  44.309   1.425
  522W        W71122  23.599  11.908   3.671
  523W        W71123  31.543  23.813   0.357
  524W        W71124  25.291   1.541  14.894
  525W        W71125  10.515  42.696   4.569
  526W        W71126  43.497   7.128   4.216
  527W        W71127  16.358  37.650   1.879
  528W        W71128  37.358   5.664  14.854
  529W        W71129   4.794  31.081  12.082
  530W        W71130  19.272  26.633  12.825
  531W        W71131   3.774  21.278  12.111
  532W        W71132  43.817  26.424  13.152
  533W        W71133  16.685  23.702  13.796
  534W        W71134   2.883  16.816   0.150
  535W        W71135  10.038   8.952  11.132
  536W        W71136  36.217   0.671   4.566
  537W        W71137  37.869   8.401   3.162
  538W        W71138  13.163  27.230   3.170
  539W        W71139  41.985  32.642   2.688
  540W        W71140  22.161  13.298  10.580
  541W        W71141  30.110  43.532   4.547
  542W        W71142  12.278  17.552   2.760
  543W        W71143  10.880  22.292   1.388
  544W        W71144  13.710   9.740   0.316
  545W        W71145  14.530  37.817  11.160
  546W        W71146  27.084  11.755  12.561
  547W        W71147  16.691  23.286   3.712
  548W        W71148  12.289  27.174   4.621
  549W        W71149  30.601  20.615  14.452
  550W        W71150  39.395   4.113   4.598
  551W        W71151  10.843  29.689  13.727
  552W        W71152  34.020  10.941   4.406
  553W        W71153  21.735  19.509  10.427
  554W        W71154  20.224  41.652  14.964
  555W        W71155  13.292  16.810  12.045
  556W        W71156  25.813  21.429  13.172
  557W        W71157  39.822   1.164  11.501
  558W        W71158  32.615  17.180  13.421
  559W        W71159  21.786  32.991  13.064
  560W        W71160  15.326  16.811   2.561
  561W        W71161   4.910  31.473   4.128
  562W        W71162  19.659  40.764   0.925
  563W        W71163  24.609  20.007   3.284
  564W        W71164  41.430  12.270  11.718
  565W        W71165  23.765   1.458  13.439
  566W        W71166  24.074  41.493  10.429
  567W        W71167   5.550  33.404   0.571
  568W        W71168   0.874   4.681  14.973
  569W        W71169   8.808  10.154   0.756
  570W        W71170  27.004  13.229   4.826
  571W        W71171   3.837  41.669   4.989
  572W        W71172  33.082  35.158   0.473
  573W        W71173  13.340   2.489  13.912
  574W        W71174   1.834  12.387  12.938
  575W        W71175  43.739  15.155   0.347
  576W        W71176  37.210  18.228   1.643
  577W        W71177  35.017  44.886  10.643
  578W        W71178  44.905  16.771  11.217
  579W        W71179  35.396   6.778   2.590
  580W        W71180  15.372  16.590   0.279
  581W        W71181   1.541  11.699   3.180
  582W        W71182  18.757   1.509   0.311
  583W        W71183  26.507   2.855   2.916
  584W        W71184   0.293   0.259   2.766
  585W        W71185  42.937  32.134   0.363
  586W        W71186  31.532  42.924   1.944
  587W        W71187  37.329   1.741   3.371
  588W        W71188   0.259  43.875  14.220
  589W        W71189  31.348  37.801   3.231
  590W        W71190  41.005  42.923   4.757
  591W        W71191  13.611  15.480   1.715
  592W        W71192  43.224  26.708   3.720
  593W        W71193  35.758   8.248  14.319
  594W        W71194  24.186  15.126   4.704
  595W        W71195   6.868  24.691  10.743
  596W        W71196   4.525   1.622   4.329
  597W        W71197  25.699  21.452   2.437
  598W        W71198   5.421  36.636  12.054
  599W        W71199  11.331  27.232  14.945
  600W        W71200  16.518  23.113  14.792
  601W        W71201  24.717  44.486  12.418
  602W        W71202  20.276  27.553   0.178
  603W        W71203  29.083  32.261   1.942
  604W        W71204  25.947  32.025  10.676
  605W        W71205  20.315  17.211   3.751
  606W        W71206  14.880  34.561   2.304
  607W        W71207  43.154   8.071  13.908
  608W        W71208   6.363  37.011   4.501
  609W        W71209  22.511  27.436   1.771
  610W        W71210  18.597  14.050   0.409
  611W        W71211  31.947   3.555   5.308
  612W        W71212  30.515   0.273   1.984
  613W        W71213  27.964   9.535   2.305
  614W        W71214  13.337   5.013  13.402
  615W        W71215  38.408  27.246   0.423
  616W        W71216  43.748  14.243  11.249
  617W        W71217  18.120   1.829  11.434
  618W        W71218  32.593  38.414   4.491
  619W        W71219  26.183  13.778   0.302
  620W        W71220  40.301  30.686   0.438
  621W        W71221  25.715  26.091  10.533
  622W        W71222  12.862   6.729   1.422
  623W        W71223  13.688  16.269   2.157
  624W        W71224   3.471  24.344   2.815
  625W        W71225  18.747  28.350  13.626
  626W        W71226  40.320   3.310   5.049
  627W        W71227   3.334  17.749  11.948
  628W        W71228  28.166  13.157   1.556
  629W        W71229  17.747  18.606   3.170
  630W        W71230  20.584  33.451  13.861
  631W        W71231  16.893   3.919  14.409
  632W        W71232  21.709  42.665   1.937
  633W        W71233  27.031  42.887   4.099
  634W        W71234  37.510  32.587   1.333
  635W        W71235  44.910   7.847   4.500
  636W        W71236  19.576  37.369   0.879
  637W        W71237  38.380  41.870  10.338
  638W        W71238  44.386  17.670   2.091
  639W        W71239  21.622  18.692   2.247
  640W        W71240  31.014  24.646   1.470
  641W        W71241  12.126  43.729   3.537
  642W        W71242  26.984  34.200  11.746
  643W        W71243  42.313  44.452  10.603
  644W        W71244  34.919   0.404  10.826
  645W        W71245   0.688  30.195   1.343
  646W        W71246  27.945  42.947  14.943
  647W        W71247  10.814  10.449  11.533
  648W        W71248   5.848   9.429  14.798
  649W        W71249  34.068   9.420  11.143
  650W        W71250  32.247  13.054   3.711
  651W        W71251  30.194  25.542   4.203
  652W        W71252  18.812  21.033   1.600
  653W        W71253  12.148  43.410  14.546
  654W        W71254  20.037  35.933  10.685
  655W        W71255  36.681  23.668  12.897
  656W        W71256  10.143  17.291   2.744
  657W        W71257  22.574  14.183   3.665
  658W        W71258  36.591   5.127  10.290
  659W        W71259  34.927  23.468  12.831
  660W        W71260  36.522   6.477   3.229
  661W        W71261  21.248  35.574   2.771
  662W        W71262  12.165  19.569  10.686
  663W        W71263   6.349  38.710   4.695
  664W        W71264  25.970  23.699   1.300
  665W        W71265  14.770  40.395   9.957
  666W        W71266   0.586  25.607  14.473
  667W        W71267  39.036   4.297   2.261
  668W        W71268  25.235  16.350  12.267
  669W        W71269  19.743  28.537   0.970
  670W        W71270  10.946  27.476   3.703
  671W        W71271  11.889   6.770   1.400
  672W        W71272  28.097  13.158  14.511
  673W        W71273   7.329  23.083  13.099
  674W        W71274  38.000  14.824  14.912
  675W        W71275  40.192  20.314  12.237
  676W        W71276  15.914  22.483  13.528
  677W        W71277  36.327   1.777   3.245
  678W        W71278  44.288   0.657   3.397
  679W        W71279   6.850  38.093  12.988
  680W        W71280  11.239   7.789  12.874
  681W        W71281  27.003  36.840   4.666
  682W        W71282  27.314  22.001  14.426
  683W        W71283  28.422  27.881   0.469
  684W        W71284  28.743  26.470  11.105
  685W        W71285  16.781  28.244  13.073
  686W        W71286  19.607   1.309  12.612
  687W        W71287  43.090  30.364   1.979
  688W        W71288  25.976  13.124   1.989
  689W        W71289   9.954  29.365  11.610
  690W        W71290  44.189   9.225   0.515
  691W        W71291   6.158  15.545   4.361
  692W        W71292  35.934  44.927   2.725
  693W        W71293  33.172  23.826   3.600
  694W        W71294   0.046  11.152   1.669
  695W        W71295   8.260   7.151  14.956
  696W        W71296  35.174  28.406  12.984
  697W        W71297  25.731   1.034  13.591
  698W        W71298  20.216  38.126  11.438
  699W        W71299   5.507  20.094  12.910
  700W        W71300  41.315   5.187   0.715
  701W        W71301   6.891  15.497   0.477
  702W        W71302  34.885  14.333  14.423
  703W        W71303  35.551  17.648  12.012
  704W        W71304  27.005  31.048   3.597
  705W        W71305  33.503  15.865  13.872
  706W        W71306  32.052  22.007   0.337
  707W        W71307  35.582  33.415  11.463
  708W        W71308  42.540  36.393   2.927
  709W        W71309  36.257   3.855   3.536
  710W        W71310  16.186  14.131  12.019
  711W        W71311  13.271  21.428   2.690
  712W        W71312  13.506   4.222  12.047
  713W        W71313  37.629  26.288   3.363
  714W        W71314  25.814  12.103  14.429
  715W        W71315  29.201   5.887   1.241
  716W        W71316  42.007  16.751  14.282
  717W        W71317  33.989  22.504   3.156
  718W        W71318   0.299  43.209   2.841
  719W        W71319   1.265  39.338   4.081
  720W        W71320   1.902  14.819  11.677
  721W        W71321  22.130  18.292   1.624
  722W        W71322  11.660  21.175   3.642
  723W        W71323  13.283   6.445   2.132
  724W        W71324   1.325  23.596   0.202
  725W        W71325  37.408   9.855  10.739
  726W        W71326   9.199  13.352   1.725
  727W        W71327  32.197  22.393  13.846
  728W        W71328   4.725  23.369  11.660
  729W        W71329  39.866  29.159  11.549
  730W        W71330  44.434  28.763  12.104
  731W        W71331   6.383  17.397   4.577
  732W        W71332  25.463  30.388  11.621
  733W        W71333  20.227  28.910   0.931
  734W        W71334  21.743  34.920  13.986
  735W        W71335   7.858   1.969  12.634
  736W        W71336  26.206  43.265  11.608
  737W        W71337  25.436   9.274   0.831
  738W        W71338   7.163  44.391   0.968
  739W        W71339  25.950  19.059   0.435
  740W        W71340  20.588   5.647   2.287
  741W        W71341   0.383  23.379  11.176
  742W        W71342  27.424  31.073  12.017
  743W        W71343  16.045   4.367   3.675
  744W        W71344  41.983  13.064   4.404
  745W        W71345  44.529  17.102   0.479
  746W        W71346  14.919  16.578   2.811
  747W        W71347  38.354  18.705   2.302
  748W        W71348  39.493   2.396   0.317
  749W        W71349  16.636  12.972   4.268
  750W        W71350  29.514   2.857  11.434
  751W        W71351  12.067  38.877   3.743
  752W        W71352  32.112   5.681  14.352
  753W        W71353   6.665   3.543  11.966
  754W        W71354   8.824  10.699  10.517
  755W        W71355  42.066  35.657  11.170
  756W        W71356   7.228   7.805   3.856
  757W        W71357   4.619  28.185  14.938
  758W        W71358  22.739   2.066  13.011
  759W        W71359   2.417  40.906  11.527
  760W        W71360  44.695   7.718  13.475
  761W        W71361  40.454   3.971  10.854
  762W        W71362   3.458  17.206  11.750
  763W        W71363   1.753   2.680  11.588
  764W        W71364  34.411  14.290  13.490
  765W        W71365  10.952   7.007  12.530
  766W        W71366   7.750  10.905  12.899
  767W        W71367   9.247  37.346  13.916
  768W        W71368  37.488  31.607  12.050
  769W        W71369   0.469  24.725  13.745
  770W        W71370  15.099  25.404   1.039
  771W        W71371  31.395  29.048   3.737
  772W        W71372  25.646   1.974  10.431
  773W        W71373   8.614  23.620   2.464
  774W        W71374  19.861  38.120   0.492
  775W        W71375  39.128  30.570  11.546
  776W        W71376  10.245  32.674  12.440
  777W        W71377  32.374  39.376  12.835
  778W        W71378   6.683  30.197  12.943
  779W        W71379  14.077   3.281  13.290
  780W        W71380  35.709  39.820  11.159
  781W        W71381  19.733   2.320  11.149
  782W        W71382  27.360  40.386  11.034
  783W        W71383  30.637  27.071   0.611
  784W        W71384  33.943  26.389   3.633
  785W        W71385  40.873   4.180  11.898
  786W        W71386   1.223  12.704   4.186
  787W        W71387  31.825  13.201  12.031
  788W        W71388  29.479   2.357  12.192
  789W        W71389  11.093   3.485   4.619
  790W        W71390  38.732  20.974  13.958
  791W        W71391  21.834  41.550   3.704
  792W        W71392  39.835   1.306  11.019
  793W        W71393   2.818  18.705   3.152
  794W        W71394  15.324  34.044   0.901
  795W        W71395  11.646  26.113   4.261
  796W        W71396  33.473   4.411   1.165
  797W        W71397  17.600  37.342   3.359
  798W        W71398  26.079   9.108  14.936
  799W        W71399  44.894  13.071  12.045
  800W        W71400   4.268  14.558  10.970
  801W        W71401  43.660  34.064  10.537
  802W        W71402  42.454  42.844  11.907
  803W        W71403  28.577  14.343   3.041
  804W        W71404  24.070  34.304   3.618
  805W        W71405  29.199  42.517   0.841
  806W        W71406   0.846  27.515  14.958
  807W        W71407  13.451  19.959  12.726
  808W        W71408   8.306  35.746   1.838
  809W        W71409  37.250   8.724  11.503
  810W        W71410   5.870  30.367  14.838
  811W        W71411   5.836  40.068  12.493
  812W        W71412   8.432   1.832  10.637
  813W        W71413  20.116  29.235  13.004
  814W        W71414  14.986  11.446  12.071
  815W        W71415  26.189  14.285  12.349
  816W        W71416  30.939  43.912   2.315
  817W        W71417   4.747  22.738   3.798
  818W        W71418  40.802  34.066  13.477
  819W        W71419   0.681  37.015  13.116
  820W        W71420   2.672   5.690  11.123
  821W        W71421  22.039  34.493  14.059
  822W        W71422  42.349   1.815   3.870
  823W        W71423  12.772  43.516  14.764
  824W        W71424   7.720  35.329   1.490
  825W        W71425  38.842  30.760   4.085
  826W        W71426  35.156  42.362   3.238
  827W        W71427  43.849  10.847  11.684
  828W        W71428  28.990  26.153   0.838
  829W        W71429  29.001  12.306   0.387
  830W        W71430  17.963  24.041  13.927
  831W        W71431  13.190   5.097  10.700
  832W        W71432  13.000   5.448   3.338
  833W        W71433   8.110  20.206   2.790
  834W        W71434  16.557  32.425   2.775
  835W        W71435  11.211  43.170   1.287
  836W        W71436   5.365   1.494   3.294
  837W        W71437   5.173  17.667   4.214
  838W        W71438  20.714  26.933   1.944
  839W        W71439   0.997  35.751   0.809
  840W        W71440  40.489  27.987  13.199
  841W        W71441  23.102  38.027   2.747
  842W        W71442  30.927   8.356   3.808
  843W        W71443  41.449  43.263  14.820
  844W        W71444  35.366  36.385   2.231
  845W        W71445   3.979  18.223   0.806
  846W        W71446  10.430   9.990   3.901
  847W        W71447  39.745  11.126   0.765
  848W        W71448  18.834  30.709   4.216
  849W        W71449  27.097   6.494  12.819
  850W        W71450  35.485  20.540   0.756
  851W        W71451  31.696  15.588   1.234
  852W        W71452  15.414   9.370   1.423
  853W        W71453  21.028   9.211   1.783
  854W        W71454  39.930  11.690  11.014
  855W        W71455  17.400   2.415   2.441
  856W        W71456  16.851   5.855   0.278
  857W        W71457  22.610  11.245   1.368
  858W        W71458  28.580  19.464   4.074
  859W        W71459   4.187  33.324  14.469
  860W        W71460  16.938  43.224   1.476
  861W        W71461  12.725   9.074  11.799
  862W        W71462  18.770   3.502   4.590
  863W        W71463  21.356  37.273   4.084
  864W        W71464   3.383  27.588  13.179
  865W        W71465  29.181   4.961   4.601
  866W        W71466  44.095   4.390   4.721
  867W        W71467  38.416  25.039   1.124
  868W        W71468  13.585   1.216  12.419
  869W        W71469  33.327  14.068  14.339
  870W        W71470  33.152  17.566  11.924
  871W        W71471  34.109  36.111  11.611
  872W        W71472  29.113  32.553   2.393
  873W        W71473   9.235   3.905  13.440
  874W        W71474  40.028  11.355   2.232
  875W        W71475  33.146  24.460   2.245
  876W        W71476  12.889  17.098  13.044
  877W        W71477  22.172  21.607  13.597
  878W        W71478  18.994  37.818  10.825
  879W        W71479  15.869  26.144   5.367
  880W        W71480  33.377  43.953   0.950
  881W        W71481  30.831  17.241  14.031
  882W        W71482  31.186   9.217   1.707
  883W        W71483   9.612  21.824   1.306
  884W        W71484  20.135   4.930   3.627
  885W        W71485  35.852  10.634   2.353
  886W        W71486   5.206  14.299   2.300
  887W        W71487  34.878  11.627   4.503
  888W        W71488  37.839  44.035  14.494
  889W        W71489  29.393   1.319  14.283
  890W        W71490  31.533  11.356   3.947
  891W        W71491  27.675  32.641   3.681
  892W        W71492  26.834  14.413   5.069
  893W        W71493  25.936  22.090  14.871
  894W        W71494  11.740   9.231   3.118
  895W        W71495  20.710  38.199  11.260
  896W        W71496   9.054  18.672   0.747
  897W        W71497  42.955  17.660   0.866
  898W        W71498  17.084  10.901   2.392
  899W        W71499  39.803  31.977  14.302
  900W        W71500   1.954  17.133   2.125
  901W        W71501  39.358  27.912  14.227
  902W        W71502  17.125  21.538  10.627
  903W        W71503  22.644  11.573  14.306
  904W        W71504  17.473  34.044  13.303
  905W        W71505  34.824  37.446   1.786
  906W        W71506  15.714  34.497   1.914
  907W        W71507  33.752  16.299  10.677
  908W        W71508  43.827   3.140  12.107
  909W        W71509  13.583  23.669  14.304
  910W        W71510  42.879  32.651   1.244
  911W        W71511  22.154  20.723  13.019
  912W        W71512  12.371  14.886   2.641
  913W        W71513  26.915   2.257  14.554
  914W        W71514  32.724   4.337  10.620
  915W        W71515  23.847  42.513   4.671
  916W        W71516  11.776  41.949  10.274
  917W        W71517  42.407  16.005   1.363
  918W        W71518  27.202  37.876  14.112
  919W        W71519  38.286  36.042   2.347
  920W        W71520  42.220   2.739  14.315
  921W        W71521  27.550  26.616   3.173
  922W        W71522  28.734   3.275  10.834
  923W        W71523  13.241  20.733   3.270
  924W        W71524   1.394  22.281  11.222
  925W        W71525  13.652  18.284   1.383
  926W        W71526  13.924  43.068   2.647
  927W        W71527  11.942  10.919   0.754
  928W        W71528   4.802  35.453   1.267
  929W        W71529  21.890  35.098   3.271
  930W        W71530  21.903   4.243  11.548
  931W        W71531  22.202  18.140  10.630
  932W        W71532  22.511  15.314  12.455
  933W        W71533  26.156  10.144   9.899
  934W        W71534   8.939  43.444  11.109
  935W        W71535  30.673  37.908   1.793
  936W        W71536  40.826  43.913   2.611
  937W        W71537  42.001  12.613   0.331
  938W        W71538  20.187  30.521  14.470
  939W        W71539  24.044  26.280  13.358
  940W        W71540  21.768  39.768  12.567
  941W        W71541  23.997  33.622  12.861
  942W        W71542  14.069  15.490  13.392
  943W        W71543  22.005   4.148   2.802
  944W        W71544  10.344  41.365  13.936
  945W        W71545  22.650   6.172   0.182
  946W        W71546   8.386  23.223   0.847
  947W        W71547  32.597   3.782  11.450
  948W        W71548  29.560  24.534   3.262
  949W        W71549  25.668  35.176  14.162
  950W        W71550   1.204  28.826   2.805
  951W        W71551  28.277  10.456  13.725
  952W        W71552  36.272  24.178   3.332
  953W        W71553   5.389  44.919  10.868
  954W        W71554  32.876  18.581   4.095
  955W        W71555  44.276  34.110  11.639
  956W        W71556  17.280  37.058   1.269
  957W        W71557   4.759  23.610  12.591
  958W        W71558  29.053  40.738  13.316
  959W        W71559   6.640  23.821  13.354
  960W        W71560   5.540   1.541   2.353
  961W        W71561  22.751  20.590   0.263
  962W        W71562  25.127   9.733   0.717
  963W        W71563   4.832  34.478  13.507
  964W        W71564  18.332  43.005  12.953
  965W        W71565  44.739  44.455   0.337
  966W        W71566  30.703  35.350   2.449
  967W        W71567  13.746  32.475   0.305
  968W        W71568  17.657  29.127  12.645
  969W        W71569  44.161  25.248   0.852
  970W        W71570  26.514  37.558   2.196
  971W        W71571   9.938  29.210  13.420
  972W        W71572  25.712   1.861  14.027
  973W        W71573  24.062   5.125   4.367
  974W        W71574  31.501   5.844   4.226
  975W        W71575  20.839  19.492  11.440
  976W        W71576   2.222  44.845   0.905
  977W        W71577   9.550  17.505   2.621
  978W        W71578   4.500  24.273  11.415
  979W        W71579  10.217  42.045  12.610
  980W        W71580  18.100  29.470  13.050
  981W        W71581  12.679  25.715   3.762
  982W        W71582  23.956  25.100   4.198
  983W        W71583  28.659  40.074   3.026
  984W        W71584  25.845  12.620  11.126
  985W        W71585  35.032   1.581   2.287
  986W        W71586  26.626  10.726   0.657
  987W        W71587   7.123  35.463   0.810
  988W        W71588  39.843  33.386   1.278
  989W        W71589  38.579  32.640  11.152
  990W        W71590  42.866  36.075   2.462
  991W        W71591  40.408  34.382  11.595
  992W        W71592  11.015  13.351  11.471
  993W        W71593  39.173  17.844   4.047
  994W        W71594   5.531  13.065  14.541
  995W        W71595  19.683   6.164  12.785
  996W        W71596  16.169   6.351   0.691
  997W        W71597  22.428   6.997  11.168
  998W        W71598   7.172   1.470   1.329
  999W        W71599  14.573  38.747   1.726
 1000W        W71600   6.167   9.879  14.941
 1001W        W71601   1.834  14.709  12.604
 1002W        W71602  12.275  34.803   0.168
 1003W        W71603  11.206  17.401  11.554
 1004W        W71604  16.640  20.794   3.616
 1005W        W71605  31.620  25.223   4.458
 1006W        W71606  41.082  39.895  13.362
 1007W        W71607  31.909  33.820   0.519
 1008W        W71608  37.351  20.203   2.252
 1009W        W71609  21.069  36.292  14.894
 1010W        W71610   3.504  23.171   3.572
 1011W        W71611   0.836  35.972   4.149
 1012W        W71612  36.375  25.475   4.612
 1013W        W71613  30.058  18.053  12.458
 1014W        W71614  32.455  24.795   1.466
 1015W        W71615  11.807  39.496   1.700
 1016W        W71616  26.839  31.469  11.452
 1017W        W71617  37.548  27.449   4.919
 1018W        W71618  16.715  27.669   2.208
 1019W        W71619  12.605  20.618   3.813
 1020W        W71620  42.945   6.727   0.883
 1021W        W71621  21.083  31.154  14.932
 1022W        W71622  41.893   0.066  11.677
 1023W        W71623  22.491  12.331  11.198
 1024W        W71624  24.487  13.407   2.287
 1025W        W71625  26.977  31.510   4.360
 1026W        W71626   2.682  34.358   2.310
 1027W        W71627  30.680  20.846  13.784
 1028W        W71628   5.604   7.543   3.528
 1029W        W71629  34.678  14.960   4.057
 1030W        W71630  22.287  33.091  12.921
 1031W        W71631  14.622  16.584   0.840
 1032W        W71632   4.697  38.957  12.294
 1033W        W71633  38.287  21.558  11.184
 1034W        W71634  43.167  11.994   3.775
 1035W        W71635  26.307  12.835   2.303
 1036W        W71636   6.255  23.582  14.146
 1037W        W71637  20.206  42.706   2.704
 1038W        W71638  32.510  36.176  10.784
 1039W        W71639  37.417  34.104   1.305
 1040W        W71640   2.831  19.302   2.328
 1041W        W71641  39.007  11.287   2.286
 1042W        W71642   8.852  17.777  11.362
 1043W        W71643  29.033  39.257   4.094
 1044W        W71644  36.419  22.900   2.811
 1045W        W71645  36.024  30.729   0.928
 1046W        W71646  23.490  11.986   2.906
 1047W        W71647  41.431  23.288  13.047
 1048W        W71648  34.041  20.103   4.956
 1049W        W71649  15.989   0.694   2.918
 1050W        W71650  23.178  14.569  14.389
 1051W        W71651  28.620  15.892   0.267
 1052W        W71652  12.157  39.539  13.152
 1053W        W71653  34.875  16.741  12.445
 1054W        W71654  12.393  28.435  12.871
 1055W        W71655  20.322  19.043   0.456
 1056W        W71656   6.966   9.200  12.969
 1057W        W71657   1.236  44.772   4.604
 1058W        W71658  24.221  30.272   0.458
 1059W        W71659  24.658   6.231  11.920
 1060W        W71660  39.046  41.384   4.725
 1061W        W71661  39.587  19.415   1.435
 1062W        W71662  32.968  25.014  10.788
 1063W        W71663  13.103  41.065   0.330
 1064W        W71664  40.426  31.582  11.019
 1065W        W71665   0.980  34.706   4.097
 1066W        W71666  28.420   6.326   3.257
 1067W        W71667  10.851  27.960  11.590
 1068W        W71668  15.712   8.274  10.928
 1069W        W71669   7.153  44.234   2.399
 1070W        W71670  34.185  27.510   2.001
 1071W        W71671   0.389   9.321  14.744
 1072W        W71672  11.835   2.939   2.614
 1073W        W71673   4.200  38.504   0.892
 1074W        W71674   1.788  30.872  12.534
 1075W        W71675   8.632   9.636   3.951
 1076W        W71676  40.919  27.585   0.878
 1077W        W71677  29.548  36.880  11.651
 1078W        W71678   7.218   2.353   0.757
 1079W        W71679  16.693  35.598   1.429
 1080W        W71680  17.118  21.679   2.841
 1081W        W71681  33.170  14.732  11.516
 1082W        W71682  26.768  17.636   1.811
 1083W        W71683  27.024  17.316  12.850
 1084W        W71684  44.756  33.420   5.029
 1085W        W71685   0.762  43.999  14.013
 1086W        W71686  33.870  23.997   2.353
 1087W        W71687  22.169   3.049  14.648
 1088W        W71688  34.311  31.101  12.082
 1089W        W71689   3.378  24.220   4.742
 1090W        W71690  23.333  40.901   2.167
 1091W        W71691  21.937  23.672  14.962
 1092W        W71692  21.070  28.574   3.601
 1093W        W71693  36.091  29.527   2.223
 1094W        W71694  44.283  27.771   3.209
 1095W        W71695  12.597  33.432   1.645
 1096W        W71696  17.595  40.715  13.046
 1097W        W71697  10.690  20.114  14.739
 1098W        W71698   7.089  25.142  13.370
 1099W        W71699   5.450   9.852   2.793
 1100W        W71700  23.508  29.536   2.307
 1101W        W71701   4.519  28.937   4.548
 1102W        W71702   8.468  43.775   2.387
 1103W        W71703  43.170  19.006   0.932
 1104W        W71704  24.180   9.178   1.093
 1105W        W71705   6.377   7.271   0.730
 1106W        W71706  44.344  23.161  12.572
 1107W        W71707  34.426  11.364   2.751
 1108W        W71708   6.706  20.383  12.522
 1109W        W71709  34.988  24.857   0.894
 1110W        W71710  28.612  34.868  13.448
 1111W        W71711  20.978  40.834  12.905
 1112W        W71712  15.567  25.217   1.790
 1113W        W71713  26.971  23.040   1.799
 1114W        W71714   9.906  13.282   1.294
 1115W        W71715  15.835  32.582   4.275
 1116W        W71716  44.157  31.453  11.152
 1117W        W71717  25.567  38.413   1.237
 1118W        W71718   0.842   8.676   0.255
 1119W        W71719  23.352  15.525  14.984
 1120W        W71720  41.524  24.973  12.509
 1121W        W71721  13.174  35.856   2.929
 1122W        W71722  32.574  29.212   4.706
 1123W        W71723  11.778  34.919   0.026
 1124W        W71724  18.574   5.836  12.879
 1125W        W71725   8.194  29.428  12.879
 1126W        W71726  13.270  21.035   9.899
 1127W        W71727  38.115  35.471  10.606
 1128W        W71728  33.471  19.739   1.314
 1129W        W71729  13.288  35.085   0.334
 1130W        W71730  38.907   0.556   1.427
 1131W        W71731  32.756  36.259  12.034
 1132W        W71732  14.728  38.499  12.017
 1133W        W71733  44.019  29.020   2.343
 1134W        W71734  12.877  44.897   3.082
 1135W        W71735  44.997  25.906  13.324
 1136W        W71736  22.702   1.804   5.277
 1137W        W71737  39.107   2.967   0.437
 1138W        W71738  29.101  37.273   0.919
 1139W        W71739  16.685  17.048   3.321
 1140W        W71740  37.015  29.860  13.570
 1141W        W71741   9.678  42.870  11.966
 1142W        W71742  20.188   2.511   3.388
 1143W        W71743  19.702   6.641  13.073
 1144W        W71744  30.250   7.223   4.224
 1145W        W71745   8.715  18.580  12.603
 1146W        W71746  24.908  21.222   3.519
 1147W        W71747  10.719  15.960  11.983
 1148W        W71748  38.867  26.340  11.388
 1149W        W71749   3.422  17.094  14.945
 1150W        W71750  42.429  43.846  13.144
 1151W        W71751  17.156   5.158   2.367
 1152W        W71752   3.404  42.020   3.627
 1153W        W71753   1.511  22.734   1.903
 1154W        W71754  22.265  20.831   3.889
 1155W        W71755  30.037  28.479   0.834
 1156W        W71756  27.626  39.061   3.305
 1157W        W71757  18.538   0.912   0.854
 1158W        W71758  23.250  26.596   4.121
 1159W        W71759  26.554   3.852   2.666
 1160W        W71760  14.365  13.226   2.876
 1161W        W71761  36.083  28.012  13.355
 1162W        W71762  10.352  28.655  11.084
 1163W        W71763   3.185   9.353   4.557
 1164W        W71764  28.410   0.974  10.999
 1165W        W71765  23.235  21.189  12.582
 1166W        W71766  40.620  25.331   2.194
 1167W        W71767   5.506  32.698   4.194
 1168W        W71768  28.601   0.727   0.435
 1169W        W71769  39.315  20.453  12.973
 1170W        W71770  34.498  40.325  12.693
 1171W        W71771   3.734  31.627  13.511
 1172W        W71772  36.518   1.191  11.128
 1173W        W71773  17.134  34.249  11.868
 1174W        W71774  10.644  31.989  14.930
 1175W        W71775  18.214  24.385   5.079
 1176W        W71776  31.512  24.784  12.177
 1177W        W71777  43.101  23.173   3.459
 1178W        W71778  29.954  23.832  14.923
 1179W        W71779  16.783  38.043  14.882
 1180W        W71780  43.361  36.202   2.649
 1181W        W71781   2.666  34.914   1.429
 1182W        W71782  25.319   0.046  11.416
 1183W        W71783  24.569  19.762   3.784
 1184W        W71784  42.000  16.510   1.841
 1185W        W71785  26.579   8.270  14.421
 1186W        W71786  14.827  32.508   2.183
 1187W        W71787  28.519  15.388  10.215
 1188W        W71788  38.077  36.572   4.473
 1189W        W71789  35.179  42.449  12.495
 1190W        W71790  20.565  38.403  11.717
 1191W        W71791   9.833  32.474  12.654
 1192W        W71792  30.617  15.634   1.879
 1193W        W71793   1.933  31.135  14.084
 1194W        W71794  42.968   8.897  10.708
 1195W        W71795  14.831  37.517   0.387
 1196W        W71796  32.850  30.764  10.861
 1197W        W71797  10.896   3.849   0.921
 1198W        W71798   2.352  35.855  13.859
 1199W        W71799  33.084   1.440   3.715
 1200W        W71800   7.531  15.636   1.756
 1201W        W71801  19.075  11.972   0.862
 1202W        W71802  38.442   4.509   4.636
 1203W        W71803  21.182  13.063   0.891
 1204W        W71804  12.676  26.406  12.074
 1205W        W71805  18.358  29.998  13.058
 1206W        W71806   3.360  31.059  11.394
 1207W        W71807   7.054   3.715   4.352
 1208W        W71808  25.700   4.815   2.744
 1209W        W71809  33.879  17.076  12.155
 1210W        W71810  12.914  22.199   1.448
 1211W        W71811   0.363  17.254  14.405
 1212W        W71812  21.247  11.602  14.458
 1213W        W71813   9.841  42.543  12.884
 1214W        W71814   8.876  31.899   2.368
 1215W        W71815  18.848  39.493   1.986
 1216W        W71816  19.176  21.736   1.954
 1217W        W71817  26.993  30.389  12.528
 1218W        W71818  33.107   6.828   1.261
 1219W        W71819  21.045  10.004   1.320
 1220W        W71820  19.756  33.801  13.098
 1221W        W71821  14.346  25.544   1.417
 1222W        W71822  44.674  43.797   4.650
 1223W        W71823  16.569  41.901   0.515
 1224W        W71824  41.480   2.376  11.750
 1225W        W71825  14.120  43.799   0.831
 1226W        W71826  29.386  17.057  13.070
 1227W        W71827   4.070  32.859  12.482
 1228W        W71828  21.971  18.255   0.505
 1229W        W71829  17.058  36.838  13.455
 1230W        W71830  23.213  17.258   0.259
 1231W        W71831  25.906  27.654  14.235
 1232W        W71832  21.475   0.807  11.359
 1233W        W71833  44.148  36.841   1.231
 1234W        W71834  23.518  19.369   1.969
 1235W        W71835  29.102  19.139  11.800
 1236W        W71836  31.932   3.960  12.664
 1237W        W71837   1.838  25.674   0.795
 1238W        W71838  43.719  28.454   4.093
 1239W        W71839  28.281  28.009  11.033
 1240W        W71840   6.823  15.173  12.938
 1241W        W71841   6.202  10.145   0.879
 1242W        W71842  14.798   6.356  12.403
 1243W        W71843  12.272  27.211  13.817
 1244W        W71844   0.953   6.441  12.779
 1245W        W71845   3.839  19.300   3.754
 1246W        W71846  28.965  23.124   3.088
 1247W        W71847  11.758  20.495   3.872
 1248W        W71848  21.673  10.020   0.235
 1249W        W71849  39.424   7.218  11.607
 1250W        W71850  28.444   1.886   4.264
 1251W        W71851  34.620   2.782   1.993
 1252W        W71852   4.907  22.861   4.265
 1253W        W71853  31.668  16.116  11.038
 1254W        W71854   9.336  12.216   4.912
 1255W        W71855   0.891  29.931  14.636
 1256W        W71856  40.362  22.940  10.777
 1257W        W71857  19.214  35.271   1.592
 1258W        W71858  40.996  12.176  13.767
 1259W        W71859  18.548  16.254  12.155
 1260W        W71860  40.446  37.026  13.982
 1261W        W71861  26.743  38.959  11.355
 1262W        W71862  12.161  38.745   0.766
 1263W        W71863  42.487  27.472   2.644
 1264W        W71864   4.389   0.227   0.202
 1265W        W71865  40.875  23.213   1.869
 1266W        W71866  16.144   2.241   3.689
 1267W        W71867  44.286   2.369   1.228
 1268W        W71868  24.701  28.799   1.811
 1269W        W71869  44.637   3.185  11.628
 1270W        W71870  43.519  34.594  14.574
 1271W        W71871  18.519  11.016  12.184
 1272W        W71872   7.415  43.586  11.221
 1273W        W71873  10.235  27.169   1.003
 1274W        W71874  23.963  35.167  14.319
 1275W        W71875  34.064  32.732  11.087
 1276W        W71876  30.055   2.085   2.263
 1277W        W71877  44.222  20.731   4.608
 1278W        W71878  11.973  13.611  12.464
 1279W        W71879   1.893  43.279   0.029
 1280W        W71880  23.977  36.112   4.499
 1281W        W71881   5.603  43.441  13.014
 1282W        W71882  28.746   4.090  13.874
 1283W        W71883   2.390  19.643  14.056
 1284W        W71884   3.724  20.764  14.251
 1285W        W71885  18.286   2.400   2.228
 1286W        W71886   3.663  34.404   0.578
 1287W        W71887  44.465   7.779  12.160
 1288W        W71888  28.498  41.329  11.635
 1289W        W71889  20.567  34.372   1.677
 1290W        W71890  14.111  12.278  12.931
 1291W        W71891  22.811  28.619  14.202
 1292W        W71892  13.139  16.876  10.810
 1293W        W71893   2.390   6.339   4.566
 1294W        W71894  44.622  24.697  13.315
 1295W        W71895  42.726  10.363  12.085
 1296W        W71896  25.637  37.436  13.301
 1297W        W71897   0.955  27.759  12.125
 1298W        W71898   5.480  43.489   1.269
 1299W        W71899  42.322   5.043   3.616
 1300W        W71900   4.206  39.991  11.066
 1301W        W71901   9.317   7.176   2.312
 1302W        W71902  44.833  35.420  12.298
 1303W        W71903  30.904   6.624  11.031
 1304W        W71904  18.149   7.567   0.957
 1305W        W71905  20.054  28.419   0.195
 1306W        W71906   0.273   5.118  12.663
 1307W        W71907  30.963  25.108   1.268
 1308W        W71908  17.102  35.538  11.658
 1309W        W71909  36.155  30.898   2.834
 1310W        W71910  22.177  40.040  13.385
 1311W        W71911  28.543  39.010   3.868
 1312W        W71912  41.949  26.548  11.599
 1313W        W71913  34.300  43.996   0.903
 1314W        W71914  27.931  41.574   4.521
 1315W        W71915  26.229  35.873  13.782
 1316W        W71916  43.083  16.378  12.609
 1317W        W71917  27.488  16.308   4.389
 1318W        W71918  17.540  44.346   1.918
 1319W        W71919  40.593  11.285   3.749
 1320W        W71920  22.321  44.590   2.763
 1321W        W71921   4.771  19.589  14.899
 1322W        W71922   2.423   0.251  12.929
 1323W        W71923   6.010  32.688  11.180
 1324W        W71924  36.263  42.972   2.261
 1325W        W71925   2.415   6.159  10.925
 1326W        W71926   4.450   0.716   0.352
 1327W        W71927   8.372  42.146   0.346
 1328W        W71928   7.732   7.214   5.062
 1329W        W71929  43.278  22.618  10.760
 1330W        W71930  21.659  12.415  12.912
 1331W        W71931   5.202  23.070   1.153
 1332W        W71932   2.799  13.699   3.609
 1333W        W71933  23.861  11.636   9.950
 1334W        W71934  30.851  16.066   1.707
 1335W        W71935  13.332  17.235   3.008
 1336W        W71936  21.939  37.236   0.361
 1337W        W71937  37.935   9.705  10.968
 1338W        W71938  37.906  23.111  13.046
 1339W        W71939  37.716  42.815   2.721
 1340W        W71940   0.777  18.181  13.344
 1341W        W71941  34.413  32.660  12.950
 1342W        W71942  24.209  21.983   0.067
 1343W        W71943   2.472  44.411   4.584
 1344W        W71944  14.825   3.468  13.929
 1345W        W71945  12.059   4.904   0.806
 1346W        W71946   7.308  41.490  10.625
 1347W        W71947   3.358   8.426  13.759
 1348W        W71948  32.855  20.610   4.215
 1349W        W71949  32.951  10.807  13.326
 1350W        W71950  42.630  20.163   4.829
 1351W        W71951  25.525  12.227  14.835
 1352W        W71952  12.452  12.666   4.141
 1353W        W71953  38.060  16.741  14.938
 1354W        W71954  30.852  29.631  10.790
 1355W        W71955  18.786  29.126   5.058
 1356W        W71956  42.868  30.616   3.305
 1357W        W71957  21.642  23.514   2.394
 1358W        W71958  21.549  38.084  10.706
 1359W        W71959  16.532  15.705   0.442
 1360W        W71960  37.018  10.221  10.658
 1361W        W71961  27.058  35.745   3.810
 1362W        W71962   5.501  38.959   4.454
 1363W        W71963  39.407   9.408   4.879
 1364W        W71964  35.049  37.489  12.477
 1365W        W71965  19.177  17.676  13.499
 1366W        W71966   5.779  19.848   2.405
 1367W        W71967  20.595  25.926  14.915
 1368W        W71968  36.777  44.860  12.142
 1369W        W71969   4.576   1.171   4.565
 1370W        W71970  42.688  18.118   0.918
 1371W        W71971  25.729  32.700  14.373
 1372W        W71972   0.387  30.240  11.539
 1373W        W71973   6.699   7.811  11.101
 1374W        W71974  35.891   8.110  13.695
 1375W        W71975  25.548  12.723   2.749
 1376W        W71976  17.614   3.693  14.814
 1377W        W71977  25.658   2.321   4.639
 1378W        W71978   4.970  38.548  12.075
 1379W        W71979  13.095  23.219  13.084
 1380W        W71980   1.522  14.948  12.094
 1381W        W71981  22.949  27.984  12.792
 1382W        W71982  26.054  15.949  11.905
 1383W        W71983  39.771  27.071   2.333
 1384W        W71984   8.754  19.643  14.544
 1385W        W71985  12.410  14.408   0.933
 1386W        W71986  22.780  33.335   4.181
 1387W        W71987  29.069  19.694  12.460
 1388W        W71988   1.001  23.126  10.443
 1389W        W71989   4.230  43.247  14.554
 1390W        W71990   7.325  28.405  11.899
 1391W        W71991  38.111  17.162   1.294
 1392W        W71992  27.429  40.754   2.714
 1393W        W71993  41.067  31.877   2.220
 1394W        W71994  37.790  37.893  14.600
 1395W        W71995  40.019   0.692   0.346
 1396W        W71996   6.089  35.967   2.905
 1397W        W71997  31.977  16.018   1.372
 1398W        W71998  21.781  33.594   0.483
 1399W        W71999  12.929  32.408  12.434
 1400W        W72000  40.108  33.671   4.169
 1401W        W72001  28.962   0.051  11.085
 1402W        W72002  43.815  23.675   4.747
 1403W        W72003  30.978  41.276  11.346
 1404W        W72004   7.995  17.174  10.655
 1405W        W72005   3.749  18.069   4.647
 1406W        W72006  20.050   1.564  12.420
 1407W        W72007   0.907   7.269  12.623
 1408W        W72008   2.744  15.248   4.187
 1409W        W72009  12.310  31.912  13.009
 1410W        W72010  30.211  35.018  13.835
 1411W        W72011   6.712  42.265  13.262
 1412W        W72012  19.581  24.009   0.799
 1413W        W72013  24.608  35.007  11.584
 1414W        W72014  44.070  16.378   1.077
 1415W        W72015  16.408  34.452   2.559
 1416W        W72016  37.211  16.583  12.944
 1417W        W72017  27.918   7.474  10.711
 1418W        W72018  38.381  24.835   1.955
 1419W        W72019  11.709   3.982  10.839
 1420W        W72020  31.990  37.438  13.994
 1421W        W72021  43.034  43.278   2.357
 1422W        W72022  42.383   6.518   2.441
 1423W        W72023  21.134  33.269  11.191
 1424W        W72024  29.616   3.331   4.617
 1425W        W72025  30.189  17.680   2.657
 1426W        W72026  32.052   0.280  10.668
 1427W        W72027  25.135   1.289   3.279
 1428W        W72028  33.163  35.994   2.627
 1429W        W72029   1.982  16.636   1.268
 1430W        W72030  12.341   8.405  11.567
 1431W        W72031  10.981  31.584   4.109
 1432W        W72032  40.520  29.711   2.670
 1433W        W72033  10.216   0.518   9.927
 1434W        W72034  14.896   8.848   0.355
 1435W        W72035  18.118  42.081   4.737
 1436W        W72036  24.724  15.559  12.053
 1437W        W72037  42.485  16.116  11.647
 1438W        W72038  17.087  13.770  13.398
 1439W        W72039  15.685  39.920  13.581
 1440W        W72040  35.611  31.557   0.957
 1441W        W72041  12.805  22.487   0.702
 1442W        W72042  13.341  21.450   4.171
 1443W        W72043  42.018  11.356  12.502
 1444W        W72044  21.596  16.115  13.349
 1445W        W72045  25.738  17.367   3.871
 1446W        W72046   9.719  29.144   0.778
 1447W        W72047  16.171   1.444  14.955
 1448W        W72048  26.804   0.278   0.967
 1449W        W72049  26.983   5.606  12.147
 1450W        W72050  11.119  24.350   1.715
 1451W        W72051  43.071  12.629  12.006
 1452W        W72052  15.877   5.512   2.236
 1453W        W72053  26.850   5.357   4.325
 1454W        W72054  12.351  38.495  11.295
 1455W        W72055   2.756   9.237   0.767
 1456W        W72056  30.480   1.393  13.264
 1457W        W72057  33.665   4.726  14.681
 1458W        W72058  31.426  26.053   4.365
 1459W        W72059  15.081  17.617   0.872
 1460W        W72060   9.771  28.893   0.300
 1461W        W72061  16.707  13.720  12.954
 1462W        W72062   1.037  42.742  12.550
 1463W        W72063  12.809   9.365  12.672
 1464W        W72064   9.057   4.383   2.792
 1465W        W72065   0.228   4.020   0.339
 1466W        W72066  32.922   5.894  11.984
 1467W        W72067   1.855  32.897  10.575
 1468W        W72068  33.129   9.125  14.950
 1469W        W72069  19.959  33.006   0.395
 1470W        W72070  43.965   0.716  11.937
 1471W        W72071   0.241  15.983  14.670
 1472W        W72072  25.936  41.475  14.811
 1473W        W72073  32.765  33.858  13.369
 1474W        W72074  19.162  31.224   1.313
 1475W        W72075  14.777   3.944  13.351
 1476W        W72076  30.345  29.624  10.970
 1477W        W72077  16.400   8.711   3.566
 1478W        W72078  24.586  31.790  12.088
 1479W        W72079  37.835  32.203  13.041
 1480W        W72080   0.491  33.288   4.986
 1481W        W72081  21.085  15.214   2.963
 1482W        W72082  22.483  25.800   1.746
 1483W        W72083   1.452  12.579  13.738
 1484W        W72084  41.897  12.586   2.284
 1485W        W72085  16.624   0.676   0.066
 1486W        W72086  15.406   2.465  13.999
 1487W        W72087  18.833  19.162  13.646
 1488W        W72088   8.800  13.774   2.462
 1489W        W72089  35.101  20.854   3.063
 1490W        W72090  40.868   9.579   3.664
 1491W        W72091  15.995  15.320   1.197
 1492W        W72092   6.343  18.777  11.626
 1493W        W72093  13.872  36.871  10.294
 1494W        W72094  38.332  38.906   4.718
 1495W        W72095  29.867  43.943  13.526
 1496W        W72096  27.498   2.250  13.595
 1497W        W72097  14.703  18.823  13.529
 1498W        W72098  11.673  21.325  13.999
 1499W        W72099  34.486  26.138  11.477
 1500W        W72100  39.837   3.683   3.953
 1501W        W72101  11.743   1.214   1.272
 1502W        W72102  17.305  29.208  10.705
 1503W        W72103  39.378  18.150  13.802
 1504W        W72104  34.938  41.789   2.819
 1505W        W72105   1.298  23.980  11.558
 1506W        W72106  14.597  11.305   3.736
 1507W        W72107  30.290  35.355   3.250
 1508W        W72108  27.538  22.642  12.653
 1509W        W72109  14.747  41.108  13.620
 1510W        W72110  44.136  19.979  11.191
 1511W        W72111   9.804  27.452   9.923
 1512W        W72112   9.199  39.085   4.754
 1513W        W72113  28.671  15.025  12.378
 1514W        W72114  38.396  35.896  10.692
 1515W        W72115  10.365  40.004   3.188
 1516W        W72116  21.669  19.661  10.916
 1517W        W72117  36.948  23.222   1.861
 1518W        W72118  27.508  21.163   0.007
 1519W        W72119  34.422  42.132   0.791
 1520W        W72120  38.114  33.863   3.725
 1521W        W72121  25.224  15.169  10.180
 1522W        W72122  13.308  18.010  14.137
 1523W        W72123  22.147  30.037   4.033
 1524W        W72124  24.740  15.150   4.839
 1525W        W72125   7.171   0.279  12.899
 1526W        W72126  38.315  21.033  11.171
 1527W        W72127  35.567  39.765  14.332
 1528W        W72128   5.977  37.455   1.891
 1529W        W72129  42.451  21.807  10.757
 1530W        W72130   6.649  15.694  14.265
 1531W        W72131  24.076  35.215   4.671
 1532W        W72132  23.699  29.084   2.114
 1533W        W72133  16.345  43.414  12.624
 1534W        W72134   8.854  20.331  13.923
 1535W        W72135   7.047  39.864   2.712
 1536W        W72136  34.529  22.264   1.234
 1537W        W72137  15.231  21.095   1.877
 1538W        W72138  25.615  14.085  12.842
 1539W        W72139  11.398  18.627   0.362
 1540W        W72140  30.468  18.071  14.151
 1541W        W72141   6.391   0.005   1.196
 1542W        W72142  14.803  23.203   4.507
 1543W        W72143  12.282  26.799   3.221
 1544W        W72144  14.572  18.797   3.263
 1545W        W72145  11.961  25.533   1.982
 1546W        W72146  20.938   7.812  12.020
 1547W        W72147   6.486   5.421  10.168
 1548W        W72148  26.041  36.078   2.385
 1549W        W72149   2.528  18.286   3.232
 1550W        W72150  15.785  10.618  13.297
 1551W        W72151  25.961   4.689   4.653
 1552W        W72152  41.563  37.938   3.269
 1553W        W72153  19.008  42.529   4.688
 1554W        W72154  31.373  31.372   2.202
 1555W        W72155  10.288   2.843  10.577
 1556W        W72156  33.856  12.668   0.399
 1557W        W72157  29.168  21.719   3.252
 1558W        W72158  35.565  15.523   0.890
 1559W        W72159  27.590   6.307  11.972
 1560W        W72160  34.821  31.136  12.947
 1561W        W72161  30.153  42.776   1.201
 1562W        W72162  33.581  20.749  12.439
 1563W        W72163   7.744  19.474   2.834
 1564W        W72164  17.902   2.395   2.646
 1565W        W72165  14.369  24.728   1.396
 1566W        W72166  24.166   6.667  14.012
 1567W        W72167   8.738  28.589  12.508
 1568W        W72168  19.667  10.377   0.321
 1569W        W72169   5.438  14.763   2.410
 1570W        W72170  17.286  13.572   3.954
 1571W        W72171   3.285  31.642   2.735
 1572W        W72172  38.032  24.021   1.695
 1573W        W72173   3.419  14.228   4.280
 1574W        W72174   1.994  30.586  14.190
 1575W        W72175   0.129   0.899   4.818
 1576W        W72176  15.272  29.180  14.820
 1577W        W72177  41.885  16.208  11.977
 1578W        W72178  26.588   9.164   5.253
 1579W        W72179  27.989  35.938   3.248
 1580W        W72180   9.740   8.729   0.393
 1581W        W72181   2.808  19.804   4.501
 1582W        W72182   8.448  10.332   2.018
 1583W        W72183   5.448   6.487  13.785
 1584W        W72184  42.439  16.572   2.436
 1585W        W72185  19.472  41.860   2.773
 1586W        W72186  26.561  29.900  13.804
 1587W        W72187   9.625  27.584  13.790
 1588W        W72188  42.261  31.412  11.137
 1589W        W72189  13.128  31.630  10.330
 1590W        W72190   8.110  44.406  11.057
 1591W        W72191  25.469  18.195  14.326
 1592W        W72192   8.712  36.994  14.960
 1593W        W72193  13.584  27.532   0.027
 1594W        W72194  36.690  28.555   3.271
 1595W        W72195  10.609  30.823   2.831
 1596W        W72196  42.855  34.904   0.127
 1597W        W72197  40.395  37.948   4.324
 1598W        W72198  28.021  30.931   4.640
 1599W        W72199  28.820  20.833  12.601
 1600W        W72200   0.065   0.844   3.651
 1601W        W72201  33.949  14.630   1.227
 1602W        W72202  23.600  12.962   2.575
 1603W        W72203  33.041   2.231   0.978
 1604W        W72204  39.951  19.135   1.698
 1605W        W72205  29.210  22.472  11.894
 1606W        W72206  13.641  10.239  12.422
 1607W        W72207  21.446   7.228   3.631
 1608W        W72208   9.459  14.093   0.392
 1609W        W72209  13.081  31.642   2.338
 1610W        W72210   2.957  11.906  11.169
 1611W        W72211  18.666  43.472   1.756
 1612W        W72212   5.008  13.580   3.369
 1613W        W72213  38.863   9.380   4.191
 1614W        W72214  42.891  37.843   0.791
 1615W        W72215  29.892   8.315  10.717
 1616W        W72216   7.802  30.300  12.375
 1617W        W72217   8.876   1.789  12.867
 1618W        W72218  14.691  37.247   3.583
 1619W        W72219  24.637  19.796  12.014
 1620W        W72220  11.342  44.947   0.383
 1621W        W72221  35.481  25.074   3.905
 1622W        W72222   5.263   9.629   1.175
 1623W        W72223  29.636  42.809   0.084
 1624W        W72224  16.691   9.335   3.653
 1625W        W72225  43.734  43.576  13.257
 1626W        W72226  29.531  24.413   5.141
 1627W        W72227   3.123   3.133   1.987
 1628W        W72228  22.558  20.123  12.696
 1629W        W72229  32.083  10.862   0.846
 1630W        W72230   2.199  10.724   0.413
 1631W        W72231   5.327  30.268   1.078
 1632W        W72232  17.397  10.054   0.793
 1633W        W72233   2.183  28.942  11.934
 1634W        W72234  34.242   4.695  13.072
 1635W        W72235   6.121  12.674   1.356
 1636W        W72236  44.855  13.336  12.494
 1637W        W72237  38.928   0.398  11.153
 1638W        W72238  23.558   3.676  12.106
 1639W        W72239  23.265  39.229  14.588
 1640W        W72240  27.473  41.320  14.774
 1641W        W72241   9.720  12.212   1.927
 1642W        W72242  38.574   9.646  14.228
 1643W        W72243  26.676  10.893   1.137
 1644W        W72244  32.412   5.950  12.961
 1645W        W72245  17.881  14.243  11.770
 1646W        W72246  27.425  27.588   3.246
 1647W        W72247  28.502  11.709   3.130
 1648W        W72248   3.584  35.386   0.225
 1649W        W72249  32.891   0.555  11.596
 1650W        W72250   2.830  38.717   0.370
 1651W        W72251  26.676  25.903   0.843
 1652W        W72252  43.213   5.020  12.012
 1653W        W72253  37.426   3.250  13.410
 1654W        W72254  27.200  16.258  12.816
 1655W        W72255  42.396   8.969   2.667
 1656W        W72256  33.372  12.609   3.808
 1657W        W72257  33.720  11.080   2.223
 1658W        W72258  42.392  34.175   4.588
 1659W        W72259   3.075  35.132  11.510
 1660W        W72260   7.272  13.017   1.941
 1661W        W72261  16.714  15.787  13.975
 1662W        W72262  15.325  31.170   3.227
 1663W        W72263  29.728  42.724   1.514
 1664W        W72264  39.755  43.707   0.656
 1665W        W72265   4.509   8.844  12.469
 1666W        W72266  23.203  22.583   1.944
 1667W        W72267  31.999  30.942   0.042
 1668W        W72268  22.688  43.545   4.936
 1669W        W72269  10.425  42.017   3.613
 1670W        W72270  32.486   4.237  14.067
 1671W        W72271  30.376  10.669  10.952
 1672W        W72272   6.881  44.671  14.420
 1673W        W72273   0.566   9.225  13.845
 1674W        W72274  19.521  20.810  10.732
 1675W        W72275  36.905  16.213  12.747
 1676W        W72276   2.842  33.500  11.960
 1677W        W72277  23.336  39.986   4.474
 1678W        W72278  28.014  38.571  11.981
 1679W        W72279  14.330   5.210   2.701
 1680W        W72280  24.959  31.129  13.406
 1681W        W72281  22.533   1.756  14.355
 1682W        W72282  36.895  32.914   4.754
 1683W        W72283  16.856   8.509   0.725
 1684W        W72284  28.376   9.654  11.150
 1685W        W72285  14.054  39.361  11.656
 1686W        W72286   1.171   1.735  14.082
 1687W        W72287  31.858  11.107  12.581
 1688W        W72288  40.382  22.580   0.167
 1689W        W72289  11.129   0.878   2.272
 1690W        W72290   4.842  24.253   4.176
 1691W        W72291  14.066  38.965  11.958
 1692W        W72292  20.698  29.691   2.793
 1693W        W72293  23.659   1.882   2.283
 1694W        W72294  41.926   7.414   1.747
 1695W        W72295  34.945  44.994   3.802
 1696W        W72296  26.442  44.799   0.508
 1697W        W72297  13.375   2.170  12.496
 1698W        W72298  33.560  33.042   4.297
 1699W        W72299  18.839   6.909   0.426
 1700W        W72300  32.351  32.559   0.364
 1701W        W72301   3.875  22.902  10.587
 1702W        W72302  27.539  40.486  10.103
 1703W        W72303  27.190  22.924   1.341
 1704W        W72304   9.219  21.581  12.500
 1705W        W72305  41.572  26.221  11.421
 1706W        W72306  12.267  40.441  12.028
 1707W        W72307   7.518  24.246  12.409
 1708W        W72308   9.997   6.646  12.482
 1709W        W72309   8.647  23.230  13.259
 1710W        W72310   8.137  14.898   3.522
 1711W        W72311  42.750  14.732  11.398
 1712W        W72312  32.506  15.929   2.637
 1713W        W72313  41.358   6.460   4.001
 1714W        W72314  40.951   1.774   3.546
 1715W        W72315  24.299  36.082   0.934
 1716W        W72316  29.455  19.636  10.789
 1717W        W72317   4.379  12.645  14.904
 1718W        W72318  27.129  13.883  11.176
 1719W        W72319  32.154  15.753   2.287
 1720W        W72320  12.149   6.119  13.974
 1721W        W72321  32.478  14.574  11.900
 1722W        W72322   3.886  23.321   3.891
 1723W        W72323  42.788  12.712  11.595
 1724W        W72324  28.916   2.254  14.296
 1725W        W72325  20.067   2.861  13.900
 1726W        W72326  39.862   4.362  13.960
 1727W        W72327  15.688  43.581   2.170
 1728W        W72328  29.032  32.400  13.249
 1729W        W72329   4.859  40.874  13.076
 1730W        W72330  11.866  39.072   2.921
 1731W        W72331  19.537  38.437   1.034
 1732W        W72332  26.101  40.841  11.045
 1733W        W72333   2.222   0.422  12.222
 1734W        W72334   1.466  30.516   3.390
 1735W        W72335  19.240  36.409  11.620
 1736W        W72336  29.992  35.270  14.939
 1737W        W72337  29.426  12.680   4.722
 1738W        W72338  10.438  43.494  14.969
 1739W        W72339  25.628  12.512   0.393
 1740W        W72340  12.922  29.926  11.062
 1741W        W72341  11.332   6.627   0.011
 1742W        W72342  43.684  11.697   4.795
 1743W        W72343   9.212  44.377  14.939
 1744W        W72344  42.563  29.245  14.449
 1745W        W72345  20.719   6.102   3.775
 1746W        W72346  21.562  28.054  12.950
 1747W        W72347  34.124  26.172   0.174
 1748W        W72348  32.022  23.712   1.899
 1749W        W72349  34.128  23.527  12.582
 1750W        W72350   6.290  40.957  13.567
 1751W        W72351  18.235  32.970  10.851
 1752W        W72352   6.408  36.734  14.404
 1753W        W72353  36.347  20.185  14.930
 1754W        W72354  14.634   5.683  14.423
 1755W        W72355  29.642  18.306   2.253
 1756W        W72356   8.612   1.785   1.790
 1757W        W72357  42.014  16.861   1.472
 1758W        W72358   9.175  28.034  11.393
 1759W        W72359  41.752  16.788  10.782
 1760W        W72360   0.380  28.952  13.300
 1761W        W72361  13.025  23.129   2.185
 1762W        W72362  18.548   8.294   1.673
 1763W        W72363  26.739   1.475  12.977
 1764W        W72364   6.775  13.884   2.835
 1765W        W72365  24.781  15.612  13.908
 1766W        W72366   1.555  20.213   0.849
 1767W        W72367  34.070  13.937   3.600
 1768W        W72368  44.499   3.730   2.264
 1769W        W72369  34.025   4.712   0.402
 1770W        W72370   3.398  44.049  13.381
 1771W        W72371  19.168  17.591   2.728
 1772W        W72372  14.088  44.565   2.850
 1773W        W72373  33.316  44.477  12.956
 1774W        W72374  16.569   5.157   1.569
 1775W        W72375  17.021  11.780   4.538
 1776W        W72376   4.430  16.235  11.797
 1777W        W72377  11.805  40.465  10.507
 1778W        W72378  37.114  41.384  10.791
 1779W        W72379  29.574  29.686   0.044
 1780W        W72380  33.372  30.363   4.541
 1781W        W72381  33.761  26.764   2.227
 1782W        W72382  11.410  30.919   1.369
 1783W        W72383   8.555   6.296  14.934
 1784W        W72384  12.189  20.617   2.113
 1785W        W72385  41.298   0.884  14.093
 1786W        W72386  14.790  20.052   1.289
 1787W        W72387  21.127  44.460  13.259
 1788W        W72388   2.883  38.869  14.512
 1789W        W72389  44.400  41.755  10.505
 1790W        W72390  18.867  42.561   1.007
 1791W        W72391  31.634   4.380  14.737
 1792W        W72392  20.315  16.711   4.361
 1793W        W72393  33.522  40.840  10.957
 1794W        W72394  25.705  43.833   2.540
 1795W        W72395  29.484  29.981   4.541
 1796W        W72396  14.677  20.547  14.341
 1797W        W72397   4.267  22.967  13.841
 1798W        W72398  39.576  30.825  11.720
 1799W        W72399  14.153  14.958  12.030
 1800W        W72400  34.137  15.698   1.399
 1801W        W72401  14.199  42.021   1.567
 1802W        W72402  24.234   3.966   3.352
 1803W        W72403  22.145  32.385  14.343
 1804W        W72404   2.191  21.263   2.878
 1805W        W72405  20.300  34.907  12.390
 1806W        W72406  10.906  18.836  11.152
 1807W        W72407  23.551  12.044  11.917
 1808W        W72408  33.021  23.653   1.662
 1809W        W72409   7.638  13.583  12.530
 1810W        W72410  34.476  32.320   4.408
 1811W        W72411  29.615  27.421  13.126
 1812W        W72412  41.704   0.267  14.985
 1813W        W72413  30.095  25.554   1.270
 1814W        W72414  19.563  32.488  11.481
 1815W        W72415   7.282   3.996  13.391
 1816W        W72416  24.664  18.221  11.122
 1817W        W72417  37.142   9.403  10.750
 1818W        W72418  28.420   4.482  14.005
 1819W        W72419   9.788  12.338   2.982
 1820W        W72420  13.267  39.867   4.897
 1821W        W72421  16.361  35.989   4.262
 1822W        W72422  20.713  44.585   2.853
 1823W        W72423  33.969  11.424  10.880
 1824W        W72424  30.433   9.257  11.595
 1825W        W72425   9.127  15.539  12.448
 1826W        W72426   0.373  20.153   1.189
 1827W        W72427   4.321  25.884  12.231
 1828W        W72428  14.730  24.824  13.398
 1829W        W72429   8.232  20.942   0.533
 1830W        W72430  17.725  31.580  14.414
 1831W        W72431   2.427  16.655  14.898
 1832W        W72432   7.831  18.197   4.940
 1833W        W72433  41.301  31.733  13.085
 1834W        W72434   2.555  12.407   3.679
 1835W        W72435  34.183   5.397   0.940
 1836W        W72436   7.423  34.066  13.035
 1837W        W72437  36.121   7.268  14.539
 1838W        W72438  19.926  35.021  14.498
 1839W        W72439  24.740  34.058   4.675
 1840W        W72440  34.180  10.837   2.429
 1841W        W72441  36.241   3.312  10.643
 1842W        W72442   4.003  41.265   2.214
 1843W        W72443  20.116  19.636   3.835
 1844W        W72444  10.830   0.050  11.415
 1845W        W72445  40.575   8.882   3.242
 1846W        W72446  30.914  21.356   0.505
 1847W        W72447  38.916  10.337  14.081
 1848W        W72448   2.025  35.524   1.436
 1849W        W72449  31.438   4.713  12.564
 1850W        W72450  26.018  35.439   0.450
 1851W        W72451  14.695  10.600  10.426
 1852W        W72452  31.140  42.284  11.593
 1853W        W72453  40.820  22.245  11.614
 1854W        W72454  41.239  33.913  10.720
 1855W        W72455  25.273  26.957  14.445
 1856W        W72456  28.991   1.239  12.366
 1857W        W72457  21.604  27.998   4.583
 1858W        W72458  29.538  20.071  10.526
 1859W        W72459  22.677   3.484   2.814
 1860W        W72460  24.677   6.530   3.684
 1861W        W72461  43.421  16.157  11.531
 1862W        W72462  24.272   5.723   3.352
 1863W        W72463  26.508  44.003  10.416
 1864W        W72464   3.488  41.881   1.675
 1865W        W72465  24.177  41.550   1.850
 1866W        W72466  18.782  24.727   4.485
 1867W        W72467  32.960   7.943   2.640
 1868W        W72468   2.365  18.532   1.455
 1869W        W72469  13.625   5.703   3.758
 1870W        W72470  29.047  35.117  13.289
 1871W        W72471  44.741  14.092  12.156
 1872W        W72472  16.693  13.597  12.384
 1873W        W72473  11.917  20.754  12.411
 1874W        W72474  12.097  16.597  14.925
 1875W        W72475  32.168  35.048   4.037
 1876W        W72476   8.425  39.078  13.033
 1877W        W72477  42.909   4.646  13.081
 1878W        W72478  35.812   2.498  11.554
 1879W        W72479  10.672  11.058  12.928
 1880W        W72480   3.446   2.211  12.903
 1881W        W72481  39.093  41.901   5.023
 1882W        W72482  31.881   9.662   4.142
 1883W        W72483  39.461  16.434  13.961
 1884W        W72484  27.352  16.333  14.022
 1885W        W72485  31.149  27.919  12.016
 1886W        W72486  37.398   7.917   3.747
 1887W        W72487  12.627   7.428  13.757
 1888W        W72488  43.961  37.947  14.422
 1889W        W72489  25.734  25.542  12.974
 1890W        W72490   8.376  19.814  10.567
 1891W        W72491  11.311  24.385  13.377
 1892W        W72492   3.492  19.501   0.897
 1893W        W72493  28.713  11.326  10.526
 1894W        W72494  19.114  25.733  14.916
 1895W        W72495  29.395  21.802  11.085
 1896W        W72496  30.061  25.366  13.862
 1897W        W72497  19.596  42.941   4.097
 1898W        W72498  17.435   1.343   4.475
 1899W        W72499   0.977  32.607  11.558
 1900W        W72500   5.316  28.500  10.697
 1901W        W72501  42.916  14.833   2.731
 1902W        W72502   6.975  19.608   4.822
 1903W        W72503  12.415   5.125  11.046
 1904W        W72504  19.698  28.450  13.334
 1905W        W72505  33.110  30.838  11.554
 1906W        W72506  28.886   6.319   1.404
 1907W        W72507  22.160  37.972   4.157
 1908W        W72508  33.003  36.029   2.146
 1909W        W72509  12.605   7.935  13.749
 1910W        W72510  18.790  21.093  13.340
 1911W        W72511  16.513  37.752  12.463
 1912W        W72512   3.884  15.679  10.766
 1913W        W72513  26.658  29.624   1.321
 1914W        W72514  22.195  16.104   2.878
 1915W        W72515  30.872   2.607   4.288
 1916W        W72516  24.492  13.087   0.363
 1917W        W72517   5.655  27.510  13.036
 1918W        W72518  39.278  36.375  10.749
 1919W        W72519  18.814  11.774  14.930
 1920W        W72520  13.211  15.623   3.695
 1921W        W72521   9.772  30.164   0.961
 1922W        W72522   3.478  43.355  10.851
 1923W        W72523  37.873  38.483   3.640
 1924W        W72524  30.532  28.614  13.937
 1925W        W72525   4.351  14.151   2.732
 1926W        W72526  43.322   1.913  11.080
 1927W        W72527  40.396  43.232   3.219
 1928W        W72528  12.580  16.217   1.262
 1929W        W72529  43.421  38.813   3.167
 1930W        W72530  36.032  19.941  12.034
 1931W        W72531  41.902  43.542   1.719
 1932W        W72532  32.930   3.432   4.103
 1933W        W72533  29.193   9.318   4.368
 1934W        W72534  27.756  28.071  14.543
 1935W        W72535  10.437  11.727   0.042
 1936W        W72536  44.681  11.262  13.871
 1937W        W72537  36.081  38.931   3.925
 1938W        W72538   3.428  11.930   0.226
 1939W        W72539  42.375  15.545  14.479
 1940W        W72540  41.819   6.914  13.326
 1941W        W72541  18.766  14.397  12.257
 1942W        W72542  28.914  21.653  10.380
 1943W        W72543   3.393  14.151   1.776
 1944W        W72544   3.802   8.478  13.427
 1945W        W72545  20.249  26.733   1.768
 1946W        W72546  17.730  34.731   1.000
 1947W        W72547  30.463  26.199   4.109
 1948W        W72548   5.817  13.621  10.651
 1949W        W72549  32.019  14.578   4.668
 1950W        W72550   8.942  10.225   2.245
 1951W        W72551  16.737   4.282  11.549
 1952W        W72552  26.552  13.693  12.911
 1953W        W72553   0.048  29.658  12.606
 1954W        W72554  15.586  24.696   1.804
 1955W        W72555  30.637  31.548   1.538
 1956W        W72556   5.696  30.472   1.726
 1957W        W72557   7.945  23.571  11.110
 1958W        W72558  36.261  10.264   3.248
 1959W        W72559   6.823  33.182  12.139
 1960W        W72560  29.206  30.214  12.416
 1961W        W72561  25.880  34.836   1.956
 1962W        W72562  41.086  30.861   2.271
 1963W        W72563  43.966  43.184  11.098
 1964W        W72564   1.707  34.586   1.399
 1965W        W72565   6.789  34.955   1.972
 1966W        W72566  27.460  11.207   3.716
 1967W        W72567  27.001   7.356   0.788
 1968W        W72568  10.688  27.523   1.804
 1969W        W72569  35.842  20.433   1.250
 1970W        W72570  34.052  44.364  10.657
 1971W        W72571   7.693  12.807   9.649
 1972W        W72572   3.194   2.644  13.023
 1973W        W72573   7.638  21.789   4.196
 1974W        W72574  27.257  11.310  13.924
 1975W        W72575   3.360  36.622  12.887
 1976W        W72576   3.385  26.610   3.573
 1977W        W72577  11.495  36.928   4.456
 1978W        W72578  22.191  29.104   4.674
 1979W        W72579  16.348  25.708  11.952
 1980W        W72580  42.985  26.492   5.042
 1981W        W72581  20.988  13.107   4.887
 1982W        W72582  13.465  24.500  11.880
 1983W        W72583  17.222  39.325   4.707
 1984W        W72584  31.083  40.819   0.214
 1985W        W72585  44.461   8.353   2.251
 1986W        W72586   0.475  26.441   3.248
 1987W        W72587   8.655   3.817   2.414
 1988W        W72588  33.594  44.422  14.039
 1989W        W72589  34.864  17.152  12.115
 1990W        W72590  23.428  39.785  13.423
 1991W        W72591  17.300   6.834   3.212
 1992W        W72592   0.524   6.599   2.229
 1993W        W72593  21.149  12.546   0.923
 1994W        W72594  31.408  43.312   0.198
 1995W        W72595  35.309  43.012  14.867
 1996W        W72596   1.268  28.191  11.185
 1997W        W72597  13.816  22.173   1.122
 1998W        W72598  39.562  17.027   1.504
 1999W        W72599   7.011  17.618  13.871
 2000W        W72600  22.213  22.023  12.827
 2001W        W72601   4.667  39.841   2.442
 2002W        W72602   1.317  36.423   2.855
 2003W        W72603  10.822  11.937  10.535
 2004W        W72604   0.512  13.587  14.366
 2005W        W72605   6.959   1.032   1.149
 2006W        W72606  23.483  33.240  14.330
 2007W        W72607  30.012  31.044   3.599
 2008W        W72608  37.830  14.808   2.420
 2009W        W72609  30.884  33.619   3.387
 2010W        W72610   1.853  26.174   2.836
 2011W        W72611   3.857  27.486  13.370
 2012W        W72612   7.352  34.407   1.386
 2013W        W72613  31.452  39.808   0.099
 2014W        W72614   0.418  23.464  14.363
 2015W        W72615  11.176  36.315  12.490
 2016W        W72616   4.758  42.475   1.319
 2017W        W72617  17.891  44.148   0.908
 2018W        W72618  29.026   8.753   1.836
 2019W        W72619   8.397  28.465  11.002
 2020W        W72620  13.689  26.227  12.176
 2021W        W72621  13.819  16.620  11.154
 2022W        W72622  19.956  19.835   0.485
 2023W        W72623  12.804  42.507  11.503
 2024W        W72624   6.711   3.882  10.999
 2025W        W72625   5.126   8.223   0.013
 2026W        W72626  29.385   4.637   1.789
 2027W        W72627  35.905   0.886  12.169
 2028W        W72628  43.812  42.383   2.016
 2029W        W72629  28.297  40.268  14.482
 2030W        W72630  12.707  24.969   1.411
 2031W        W72631   8.120   1.014   0.335
 2032W        W72632  27.538   1.018   4.530
 2033W        W72633  11.742  34.382   2.118
 2034W        W72634  30.915  42.998   5.110
 2035W        W72635  40.856  33.095   3.373
 2036W        W72636  12.703  41.431  14.505
 2037W        W72637  11.432  28.793  13.345
 2038W        W72638  17.355   7.077  13.117
 2039W        W72639  37.391  41.947   0.546
 2040W        W72640  33.007   9.384   4.556
 2041W        W72641  32.545  29.618  11.603
 2042W        W72642  10.742  42.616   1.823
 2043W        W72643  19.014  13.133  11.617
 2044W        W72644   3.966  33.480  11.681
 2045W        W72645  36.964  37.948   2.665
 2046W        W72646  11.107  32.344   1.951
 2047W        W72647  23.972  22.590  12.115
 2048W        W72648   6.014  37.336  12.533
 2049W        W72649  37.587   7.370  13.441
 2050W        W72650  33.591   7.158   1.403
 2051W        W72651  23.127   6.742  10.586
 2052W        W72652  27.120   1.753   2.770
 2053W        W72653  35.587   1.118   0.807
 2054W        W72654  15.618  37.058   4.643
 2055W        W72655  29.465  19.392  12.609
 2056W        W72656  29.952   6.418  10.399
 2057W        W72657  23.808  42.768   2.861
 2058W        W72658   8.341  35.093  14.324
 2059W        W72659   1.840  27.450   2.316
 2060W        W72660   8.826   8.973  13.226
 2061W        W72661  23.263  35.897  12.466
 2062W        W72662  14.608  32.327  11.630
 2063W        W72663  17.627  25.238  12.359
 2064W        W72664  12.328   5.634  11.097
 2065W        W72665  44.562   9.088   0.166
 2066W        W72666  39.478  31.860  11.314
 2067W        W72667   9.855   4.971  14.969
 2068W        W72668  12.557  35.777   1.615
 2069W        W72669   2.971   0.031   2.437
 2070W        W72670  23.052  32.937   3.335
 2071W        W72671   8.744  12.345   0.898
 2072W        W72672   5.271  29.668  11.984
 2073W        W72673  27.793  41.933  13.058
 2074W        W72674  19.488  19.191   4.745
 2075W        W72675  25.648   5.862   2.162
 2076W        W72676   1.471  45.000   3.314
 2077W        W72677   9.449  29.972   1.305
 2078W        W72678  40.386  35.767  12.794
 2079W        W72679  15.742  22.555  13.028
 2080W        W72680   3.512  40.591   1.365
 2081W        W72681  15.311  30.481  13.378
 2082W        W72682  26.180  26.721  14.499
 2083W        W72683   7.179  25.632   3.767
 2084W        W72684  17.641  29.054  13.640
 2085W        W72685   1.734   6.799   4.106
 2086W        W72686  25.900  29.662   4.715
 2087W        W72687  26.234  34.718   0.785
 2088W        W72688   7.219  41.332   1.442
 2089W        W72689   4.654  38.981   2.161
 2090W        W72690  23.288  17.410   2.694
 2091W        W72691  26.639   9.811  14.327
 2092W        W72692  18.133  10.317  11.231
 2093W        W72693   7.878  35.941  12.518
 2094W        W72694  37.375  23.014   2.411
 2095W        W72695  35.452  31.468   2.646
 2096W        W72696  15.520  42.826   2.863
 2097W        W72697  10.191  42.093   1.489
 2098W        W72698  30.190  38.742   5.445
 2099W        W72699  28.173  16.188   1.695
 2100W        W72700  30.021  40.150  14.314
 2101W        W72701   1.590  30.367  11.858
 2102W        W72702   3.245   2.806   0.423
 2103W        W72703  42.297  28.085  12.149
 2104W        W72704  26.354  28.121   1.483
 2105W        W72705   2.429   3.884  14.107
 2106W        W72706  18.116  42.009  12.616
 2107W        W72707  42.483   7.233  12.119
 2108W        W72708  22.083  17.405  13.363
 2109W        W72709   3.928   7.347  12.403
 2110W        W72710  30.444   8.380  12.977
 2111W        W72711  41.537   8.928   0.152
 2112W        W72712  15.401   9.430  11.068
 2113W        W72713  19.573  12.634   4.862
 2114W        W72714  27.455  33.345  10.670
 2115W        W72715  31.564  20.977  12.944
 2116W        W72716  24.242  39.378  13.574
 2117W        W72717   2.027  32.831   0.703
 2118W        W72718  26.701  33.035  13.356
 2119W        W72719  25.531  20.625  11.972
 2120W        W72720  11.124   7.215   4.136
 2121W        W72721  21.701  21.120   3.268
 2122W        W72722  22.561  43.962   1.916
 2123W        W72723  11.654  44.595   3.604
 2124W        W72724  30.901   2.464   1.548
 2125W        W72725  16.253  20.326  10.740
 2126W        W72726   2.443  40.543   1.794
 2127W        W72727  15.787  39.619   0.035
 2128W        W72728  21.400  13.734   1.359
 2129W        W72729  43.336  42.719   4.087
 2130W        W72730  22.593  14.698   1.176
 2131W        W72731   8.064   1.561  11.546
 2132W        W72732  26.635   6.332   4.065
 2133W        W72733  16.018  19.548   1.032
 2134W        W72734   3.769  14.509  11.463
 2135W        W72735   7.178  10.206  12.073
 2136W        W72736  43.137  34.431   4.097
 2137W        W72737  27.501   6.665  13.133
 2138W        W72738  37.032  11.382  14.311
 2139W        W72739  35.565  22.647   3.229
 2140W        W72740  14.273   5.135  11.193
 2141W        W72741  33.920  43.547   1.878
 2142W        W72742  25.851  14.555   4.158
 2143W        W72743  12.191   6.979  11.940
 2144W        W72744  30.547  44.399   0.105
 2145W        W72745  29.546  21.606  13.821
 2146W        W72746  34.494   9.703  12.258
 2147W        W72747  20.343  31.292   0.424
 2148W        W72748  19.261   5.728  13.832
 2149W        W72749   1.839  25.704  13.178
 2150W        W72750   1.002   8.229  14.472
 2151W        W72751   3.394  35.292  14.264
 2152W        W72752   1.648  34.498   0.567
 2153W        W72753  13.594  39.339  12.611
 2154W        W72754   3.274   9.840   1.432
 2155W        W72755  13.712  27.722   4.179
 2156W        W72756  22.188   6.676  10.778
 2157W        W72757  25.242  12.629   4.498
 2158W        W72758  27.221  19.285  12.439
 2159W        W72759   9.289   0.193   3.215
 2160W        W72760  12.646  30.128  11.472
 2161W        W72761  10.683   2.782  14.055
 2162W        W72762  42.057  40.610  11.300
 2163W        W72763  23.899  18.758   4.192
 2164W        W72764  20.667  20.143   1.885
 2165W        W72765  25.947  21.563  14.887
 2166W        W72766  37.336  42.749  10.798
 2167W        W72767   3.345  17.297   2.184
 2168W        W72768   5.443   4.699   2.276
 2169W        W72769  42.878   3.889  10.787
 2170W        W72770   4.936  12.345  10.265
 2171W        W72771  30.558  29.376   0.904
 2172W        W72772  27.995  27.708   0.711
 2173W        W72773  18.908   0.738   3.597
 2174W        W72774  10.835  43.951  14.473
 2175W        W72775   2.623  38.891  14.941
 2176W        W72776  13.018  10.344  14.835
 2177W        W72777  36.488   9.189   2.667
 2178W        W72778   2.016  22.078   2.168
 2179W        W72779  27.151  12.249  11.611
 2180W        W72780   7.303  19.628   3.095
 2181W        W72781  41.456  22.181   2.735
 2182W        W72782  27.841  16.286  11.108
 2183W        W72783  10.183  21.066   4.675
 2184W        W72784  27.092  42.865   3.369
 2185W        W72785  13.857   9.437   3.282
 2186W        W72786  23.142  30.407   4.835
 2187W        W72787  10.064  27.866  13.398
 2188W        W72788  20.801  41.731  11.460
 2189W        W72789   4.944  43.610   1.341
 2190W        W72790   5.777  33.460  11.126
 2191W        W72791   6.736  20.315   2.498
 2192W        W72792  14.119  27.450  10.839
 2193W        W72793   3.506  37.658  11.524
 2194W        W72794  25.226   0.395   2.956
 2195W        W72795  11.051  38.564   0.300
 2196W        W72796  14.142  31.695   0.260
 2197W        W72797  44.720  16.571  14.333
 2198W        W72798   2.369  35.348  11.601
 2199W        W72799  14.828  39.318   2.775
 2200W        W72800   1.470   0.468   3.622
 2201W        W72801  14.833   0.328   5.354
 2202W        W72802  38.832  13.647   0.389
 2203W        W72803  34.329  33.498   3.476
 2204W        W72804  14.229  19.086  13.449
 2205W        W72805   0.221  43.525   1.494
 2206W        W72806  40.763  15.188   1.210
 2207W        W72807  23.641  28.053   4.142
 2208W        W72808  40.810  12.139   3.057
 2209W        W72809   6.489  10.417   2.748
 2210W        W72810  20.228  11.308   3.728
 2211W        W72811   4.580  27.942   3.707
 2212W        W72812  33.005  24.710   3.599
 2213W        W72813  33.688  25.502   4.152
 2214W        W72814   6.871  40.789  11.099
 2215W        W72815  40.432  22.927  13.955
 2216W        W72816  17.872   7.586  13.914
 2217W        W72817  10.699  19.637   1.375
 2218W        W72818  44.565   8.445   3.679
 2219W        W72819  41.174  18.219  13.038
 2220W        W72820  31.835  10.120   2.593
 2221W        W72821  19.119  21.142  12.530
 2222W        W72822  32.000  19.845  12.982
 2223W        W72823  24.470  41.672   3.169
 2224W        W72824  43.498  37.291  12.466
 2225W        W72825   3.890  15.783   0.933
 2226W        W72826  23.585   8.327  12.431
 2227W        W72827  33.875   1.243   4.484
 2228W        W72828   8.767  28.468  12.009
 2229W        W72829  13.633  28.275  12.893
 2230W        W72830  36.239   9.542  12.909
 2231W        W72831  16.992   9.215  14.949
 2232W        W72832  33.145  42.913  10.480
 2233W        W72833  31.328  25.095  11.317
 2234W        W72834  26.866  34.763   0.510
 2235W        W72835  36.300  40.605   1.776
 2236W        W72836  44.746  21.078  13.265
 2237W        W72837   4.194   1.230  11.973
 2238W        W72838  38.380  11.250  10.708
 2239W        W72839  20.834  27.494   0.088
 2240W        W72840  12.576  20.501  10.704
 2241W        W72841  42.649  28.176  13.557
 2242W        W72842  27.104   1.593   3.272
 2243W        W72843   2.348  24.938  14.350
 2244W        W72844  32.510   0.784   3.341
 2245W        W72845  17.185  37.413  13.509
 2246W        W72846  36.324  12.254  12.662
 2247W        W72847   9.739  40.396  12.055
 2248W        W72848  18.748  23.856   2.756
 2249W        W72849  33.512  32.538  13.983
 2250W        W72850  19.870  15.358  10.719
 2251W        W72851   3.564  42.116  14.449
 2252W        W72852  22.477  19.034  13.510
 2253W        W72853  23.804   0.828  12.576
 2254W        W72854  37.314   2.356  14.524
 2255W        W72855  12.294  17.896   3.146
 2256W        W72856  10.575   4.942  13.811
 2257W        W72857  13.553  35.393  13.573
 2258W        W72858   3.346  37.710  13.587
 2259W        W72859  11.255  11.724   2.094
 2260W        W72860  41.848  23.033   0.274
 2261W        W72861  20.326  36.817  13.748
 2262W        W72862   9.391  18.967   0.032
 2263W        W72863  10.278  40.334   0.189
 2264W        W72864  40.662  30.355   3.048
 2265W        W72865  32.664  21.963  14.708
 2266W        W72866  15.237  14.550  11.427
 2267W        W72867  21.281  36.354   1.950
 2268W        W72868  42.878  33.978   4.515
 2269W        W72869  19.926  36.339   2.173
 2270W        W72870  27.899  13.346  10.639
 2271W        W72871  11.238  33.101   0.177
 2272W        W72872  42.712  26.703  14.515
 2273W        W72873  39.499  19.193  14.040
 2274W        W72874  11.955   5.295  11.177
 2275W        W72875  38.472  12.311  13.020
 2276W        W72876  18.527  36.435  14.097
 2277W        W72877  22.049  21.675   0.095
 2278W        W72878  13.606  39.313   3.349
 2279W        W72879  20.203   1.866   2.736
 2280W        W72880  35.381  36.397   0.896
 2281W        W72881  21.051  28.934   1.466
 2282W        W72882  20.005  18.517  10.853
 2283W        W72883  35.860  28.307  12.479
 2284W        W72884   6.178  22.984   1.336
 2285W        W72885  23.982  15.032  11.571
 2286W        W72886  30.068  14.296   5.117
 2287W        W72887  25.601  26.523  10.807
 2288W        W72888  23.045  37.202  11.669
 2289W        W72889  17.507  44.751   3.617
 2290W        W72890   0.531  21.724  12.501
 2291W        W72891  13.553   9.663   3.656
 2292W        W72892  34.356   9.177  13.930
 2293W        W72893  33.097  44.908   3.599
 2294W        W72894  42.079  30.496   1.894
 2295W        W72895  23.199  18.141  10.839
 2296W        W72896   5.831  35.282  10.605
 2297W        W72897   3.730  18.512  11.067
 2298W        W72898  41.472  24.105  14.973
 2299W        W72899  19.552   7.121  12.659
 2300W        W72900  23.511  13.721  11.629
 2301W        W72901  33.914  19.816  14.692
 2302W        W72902  23.076  11.821   3.639
 2303W        W72903  21.598  30.518   3.587
 2304W        W72904  28.596  15.221  10.792
 2305W        W72905  38.160  21.589  13.354
 2306W        W72906  44.621  32.342   2.306
 2307W        W72907  19.619  44.702   0.394
 2308W        W72908   4.907  18.800   2.281
 2309W        W72909  32.264  40.846  13.407
 2310W        W72910  18.866   4.065  12.178
 2311W        W72911  35.798  35.445   0.009
 2312W        W72912  24.838   5.060  11.193
 2313W        W72913  19.059   3.534  14.294
 2314W        W72914   1.878  28.836  11.529
 2315W        W72915  30.651   6.209   4.105
 2316W        W72916  41.895   0.042  13.045
 2317W        W72917  20.665  38.290   1.852
 2318W        W72918  28.563  40.359  12.153
 2319W        W72919   9.315  40.830  11.556
 2320W        W72920  42.786  21.093   0.687
 2321W        W72921   6.806  17.127   4.521
 2322W        W72922  13.417  35.461  12.097
 2323W        W72923   0.939  11.000   4.083
 2324W        W72924  37.443   0.776   3.727
 2325W        W72925  43.781   9.461   0.325
 2326W        W72926  12.821  28.623   1.234
 2327W        W72927  16.659   8.072  12.457
 2328W        W72928  24.683  23.120   3.185
 2329W        W72929   3.692  20.296  10.937
 2330W        W72930  16.595  44.372  13.678
 2331W        W72931  20.109  35.177   4.708
 2332W        W72932  26.096  31.000   2.157
 2333W        W72933  12.326  37.173  12.565
 2334W        W72934  44.035  29.469   3.247
 2335W        W72935  26.246   6.879  11.109
 2336W        W72936  29.353   8.973   2.723
 2337W        W72937  23.194  35.718   3.232
 2338W        W72938   9.625  30.158  13.535
 2339W        W72939  29.842  38.901   2.340
 2340W        W72940  22.476  42.957   0.871
 2341W        W72941  32.296  21.626   2.654
 2342W        W72942  16.233  39.925   2.284
 2343W        W72943  11.364  29.540   3.018
 2344W        W72944  29.566  24.931   4.531
 2345W        W72945  42.348  28.572  13.358
 2346W        W72946  18.827  33.182  14.731
 2347W        W72947  14.295   9.943  12.036
 2348W        W72948   7.883  16.650   1.416
 2349W        W72949   0.544   5.463  10.848
 2350W        W72950  14.408  17.711   0.252
 2351W        W72951  30.634  18.551  13.947
 2352W        W72952  20.238   0.475  10.959
 2353W        W72953  20.670   5.678   3.477
 2354W        W72954   8.320  22.917  11.529
 2355W        W72955  23.220   4.655  13.197
 2356W        W72956  33.625  42.032  10.515
 2357W        W72957  40.382   0.251   2.448
 2358W        W72958  26.860  27.762   5.003
 2359W        W72959  17.525  32.583   1.372
 2360W        W72960  35.467  21.755  12.930
 2361W        W72961   8.433  19.407  12.047
 2362W        W72962   8.596  22.556   2.854
 2363W        W72963  10.122  11.598  13.390
 2364W        W72964  21.857  17.847   0.793
 2365W        W72965   2.961  38.827  13.049
 2366W        W72966  43.015  14.081   4.125
 2367W        W72967  31.838  32.463   0.350
 2368W        W72968  44.980  33.565   0.225
 2369W        W72969  40.086  34.399  13.801
 2370W        W72970   3.897   5.187  14.984
 2371W        W72971   1.946  14.672  13.095
 2372W        W72972  20.080   5.386  11.756
 2373W        W72973  19.754   0.450   2.687
 2374W        W72974  16.298  22.701   3.701
 2375W        W72975   8.498  42.060  10.467
 2376W        W72976  41.919  32.115   2.722
 2377W        W72977  41.278  29.979  12.017
 2378W        W72978  27.348   0.892   1.489
 2379W        W72979  19.551  17.617   0.477
 2380W        W72980  24.746  42.277   2.017
 2381W        W72981  22.560  33.118   3.358
 2382W        W72982  42.402   0.131  11.957
 2383W        W72983  34.876  39.477  13.863
 2384W        W72984  27.657   9.869  14.416
 2385W        W72985  33.888   6.227  12.896
 2386W        W72986  41.810  34.871  10.805
 2387W        W72987  31.121  36.216   2.715
 2388W        W72988  17.267   8.603   3.855
 2389W        W72989   9.331  26.254  12.208
 2390W        W72990  44.862  32.905  12.027
 2391W        W72991  13.858   2.820  13.508
 2392W        W72992  34.018  11.437  12.521
 2393W        W72993  23.232  16.956  11.143
 2394W        W72994   1.332  34.157   9.859
 2395W        W72995  34.586   8.943   9.932
 2396W        W72996  38.546   3.369   1.757
 2397W        W72997   3.984   6.994  13.442
 2398W        W72998  38.070  30.744  14.528
 2399W        W72999  18.770  15.583   1.977
 2400W        W73000  24.477  38.578   2.338
 2401W        W73001  31.554  28.471   2.360
 2402W        W73002  30.165   0.368   1.004
 2403W        W73003   1.917   4.768   0.472
 2404W        W73004  41.736   7.266   2.733
 2405W        W73005  34.115   1.061  12.261
 2406W        W73006  28.877  34.315   3.196
 2407W        W73007  20.582  28.123  10.999
 2408W        W73008   9.407  16.540  11.552
 2409W        W73009  10.781   7.498  12.572
 2410W        W73010  24.159  35.585  10.673
 2411W        W73011  21.263  30.363  14.448
 2412W        W73012  12.737  12.399   3.304
 2413W        W73013  28.046  11.549  13.447
 2414W        W73014  37.309   8.762   2.435
 2415W        W73015  30.368   3.970   3.311
 2416W        W73016  39.020  22.961  13.854
 2417W        W73017  27.808  20.798   2.673
 2418W        W73018  21.108  17.388  13.486
 2419W        W73019  17.144  19.163  14.849
 2420W        W73020   1.617  13.899  14.881
 2421W        W73021  20.199   9.341   0.945
 2422W        W73022  10.239   6.393   0.394
 2423W        W73023   9.415  27.455  11.642
 2424W        W73024  31.738   3.783   0.487
 2425W        W73025  10.580  14.582   2.294
 2426W        W73026  43.368   7.916  11.269
 2427W        W73027  32.256  30.451   1.811
 2428W        W73028  34.175   1.883   1.817
 2429W        W73029  44.498   0.849  14.340
 2430W        W73030  29.981  29.806   1.462
 2431W        W73031  13.482  11.742   4.689
 2432W        W73032  34.947  43.951  14.527
 2433W        W73033  27.136   1.534  13.331
 2434W        W73034   2.932  28.979   1.979
 2435W        W73035  42.254  38.970  12.814
 2436W        W73036  22.997  11.559  13.448
 2437W        W73037  15.112  41.030   0.515
 2438W        W73038   0.263  31.060   4.680
 2439W        W73039  27.471  25.621  12.381
 2440W        W73040  16.669  40.771  14.784
 2441W        W73041  16.295  32.892   2.696
 2442W        W73042  13.536  42.142   2.718
 2443W        W73043  35.521  26.902   0.375
 2444W        W73044   8.187  17.049   1.592
 2445W        W73045   3.987  12.155   0.479
 2446W        W73046   1.859  40.748  10.678
 2447W        W73047  16.643  22.499   3.384
 2448W        W73048  32.580  33.575  14.995
 2449W        W73049  17.079  25.192  10.528
 2450W        W73050  11.032  29.051  11.133
 2451W        W73051   2.284  33.367   2.792
 2452W        W73052  37.577  36.310  11.962
 2453W        W73053   4.745   8.572  14.966
 2454W        W73054  38.462  15.846  12.000
 2455W        W73055   4.237  38.134   1.291
 2456W        W73056   7.652   5.845  11.688
 2457W        W73057  42.738  36.585  11.661
 2458W        W73058   6.181   6.322   4.663
 2459W        W73059  31.445  24.793  10.477
 2460W        W73060  25.121  12.722   0.157
 2461W        W73061  44.074  42.353  11.195
 2462W        W73062  19.450  27.589   2.781
 2463W        W73063  24.954   2.374  10.623
 2464W        W73064  44.282  35.822  11.020
 2465W        W73065   0.717  32.933  11.880
 2466W        W73066  39.775  26.011   2.745
 2467W        W73067  40.544   6.316   3.049
 2468W        W73068  36.908  26.198  13.530
 2469W        W73069  17.079  18.109  12.920
 2470W        W73070  26.134   6.401   4.896
 2471W        W73071  17.862   3.487  12.525
 2472W        W73072  10.781   3.161   0.335
 2473W        W73073  15.543  17.132  12.789
 2474W        W73074  11.218  22.778  10.895
 2475W        W73075  12.129  23.439  12.883
 2476W        W73076  21.691  34.916  10.540
 2477W        W73077  39.517  35.395   1.419
 2478W        W73078  17.865  20.498   4.351
 2479W        W73079  19.428  22.488   3.672
 2480W        W73080  41.090  41.566  11.985
 2481W        W73081  23.507  25.466   1.873
 2482W        W73082   8.119  41.521   1.740
 2483W        W73083  16.132  10.086  14.589
 2484W        W73084  26.468  12.861  10.664
 2485W        W73085  31.066  26.950   0.871
 2486W        W73086  12.297  20.588  11.571
 2487W        W73087  20.985   7.259   4.068
 2488W        W73088  15.092  17.311  11.530
 2489W        W73089  23.732   4.984   4.721
 2490W        W73090  16.248  39.037  12.892
 2491W        W73091  33.120  29.725   3.700
 2492W        W73092   4.288  28.395  14.593
 2493W        W73093  31.608  15.255   4.188
 2494W        W73094  20.951  19.005   5.104
 2495W        W73095   1.943  27.432  13.907
 2496W        W73096  20.019  42.030  14.011
 2497W        W73097  35.611   0.278   0.928
 2498W        W73098  35.940  10.063  13.977
 2499W        W73099  37.520  25.501  11.454
 2500W        W73100  25.571  36.975  12.446
 2501W        W73101  28.486   4.633   1.555
 2502W        W73102   2.197  13.402  11.048
 2503W        W73103  25.207  26.169  12.525
 2504W        W73104  38.040   3.093  13.120
 2505W        W73105   3.935   9.315   1.471
 2506W        W73106  38.043  36.924  11.816
 2507W        W73107  42.489  36.977   4.200
 2508W        W73108  26.821  15.539   3.363
 2509W        W73109  39.562  33.205   3.143
 2510W        W73110  24.011  38.164   3.157
 2511W        W73111  37.902  13.562   2.805
 2512W        W73112  22.790  29.926  11.108
 2513W        W73113  19.460  23.326  12.110
 2514W        W73114  20.291  42.764   0.842
 2515W        W73115  27.359   8.120   3.699
 2516W        W73116   3.450  22.016   2.431
 2517W        W73117  44.033  32.629   3.156
 2518W        W73118  30.732  35.591   0.326
 2519W        W73119  17.245  42.305  13.509
 2520W        W73120  28.175  19.575  11.538
 2521W        W73121   9.858  10.163   4.951
 2522W        W73122  24.629  19.066  12.567
 2523W        W73123  23.778  18.744  13.318
 2524W        W73124  42.432  26.353  11.697
 2525W        W73125  30.403  30.890   0.919
 2526W        W73126  12.931  40.350  14.462
 2527W        W73127  30.106  14.594   2.752
 2528W        W73128  31.207  11.750  14.440
 2529W        W73129  10.817  15.755   2.726
 2530W        W73130  33.609  33.654  12.557
 2531W        W73131  28.914  26.968  14.293
 2532W        W73132  28.463  19.599  12.008
 2533W        W73133  32.138  26.136  12.539
 2534W        W73134  24.584  22.357  10.463
 2535W        W73135  30.031  26.131   1.237
 2536W        W73136  19.997   0.422  12.951
 2537W        W73137  27.131   3.862   0.357
 2538W        W73138  31.960  35.915   4.329
 2539W        W73139   2.425  14.118  12.758
 2540W        W73140  29.497   8.421  14.846
 2541W        W73141   5.224   1.543  11.649
 2542W        W73142  34.133  39.544   1.712
 2543W        W73143  14.769  22.007   3.061
 2544W        W73144   2.352  13.388   3.341
 2545W        W73145  36.948   0.293  14.586
 2546W        W73146   0.325   0.476   0.903
 2547W        W73147  22.108  39.839   3.803
 2548W        W73148  36.626  29.670  13.905
 2549W        W73149  16.602  42.081  10.417
 2550W        W73150  42.430  25.483   3.943
 2551W        W73151   3.022  28.225  13.953
 2552W        W73152  13.620  38.988   0.967
 2553W        W73153   9.614  12.689   0.179
 2554W        W73154   3.005  44.998   1.465
 2555W        W73155  29.783  24.173  12.947
 2556W        W73156  40.657  10.498   3.810
 2557W        W73157   0.409  17.201   0.826
 2558W        W73158  13.692  10.705   3.603
 2559W        W73159  31.589  11.406  10.532
 2560W        W73160  22.687  38.852   1.442
 2561W        W73161   2.685  19.041   1.856
 2562W        W73162  40.754  36.891   1.756
 2563W        W73163   4.227   6.553   3.693
 2564W        W73164  11.363  17.911  11.593
 2565W        W73165  26.116  12.728   3.336
 2566W        W73166  27.045  44.833   1.350
 2567W        W73167  34.993   3.651   4.718
 2568W        W73168  13.318  12.761   4.230
 2569W        W73169  18.764  28.106   1.802
 2570W        W73170  14.035   9.303   2.597
 2571W        W73171  43.592  23.531  11.546
 2572W        W73172  26.491  19.908  14.407
 2573W        W73173  25.606  21.546  10.831
 2574W        W73174  41.325   9.709   3.406
 2575W        W73175  38.578  43.300  10.629
 2576W        W73176  15.257  24.923  12.863
 2577W        W73177  12.911   1.431   1.690
 2578W        W73178  23.567   8.610  13.020
 2579W        W73179  16.874   1.329   1.754
 2580W        W73180  18.866   9.158  13.287
 2581W        W73181   9.404  14.784  13.951
 2582W        W73182  22.233  26.061   5.001
 2583W        W73183   8.656  37.610   0.987
 2584W        W73184   7.749   8.167   1.977
 2585W        W73185   1.680   6.848   2.724
 2586W        W73186  21.582  14.122   0.502
 2587W        W73187  16.662  24.010   1.473
 2588W        W73188  12.838   3.464  13.037
 2589W        W73189  11.189  33.634   3.319
 2590W        W73190  39.061  25.175  10.797
 2591W        W73191  25.273   3.863   5.096
 2592W        W73192  31.478  28.206   1.913
 2593W        W73193  21.668   2.644   1.498
 2594W        W73194  20.050  10.404   4.218
 2595W        W73195  17.838   8.735  11.969
 2596W        W73196  44.359  32.471  12.106
 2597W        W73197  27.638  37.211   1.602
 2598W        W73198   0.473  29.891   1.777
 2599W        W73199  36.424  26.400  11.679
 2600W        W73200  12.002  25.219   1.389
 2601W        W73201  30.046  35.902  12.266
 2602W        W73202  41.316  11.218  11.960
 2603W        W73203  19.748   3.872  13.241
 2604W        W73204  17.639   1.197   2.342
 2605W        W73205  33.122  12.881   3.414
 2606W        W73206   3.560  13.565  11.128
 2607W        W73207   4.994  22.385   9.791
 2608W        W73208  32.090  34.386   1.353
 2609W        W73209  27.030  13.727   1.759
 2610W        W73210  44.560   1.509  11.058
 2611W        W73211  43.031  13.144  13.728
 2612W        W73212   5.248   0.508   0.099
 2613W        W73213  39.402  11.811   3.630
 2614W        W73214  40.813   9.148  13.638
 2615W        W73215  11.095  14.975  12.481
 2616W        W73216  36.574   6.189   0.731
 2617W        W73217   6.858  19.442  12.671
 2618W        W73218  23.903  33.448  14.105
 2619W        W73219  33.505  33.119  13.253
 2620W        W73220  15.652   9.071  13.239
 2621W        W73221  20.434  36.481   2.281
 2622W        W73222  41.835  28.477  11.159
 2623W        W73223  31.565  40.347   2.451
 2624W        W73224   4.406   0.977   3.247
 2625W        W73225   2.882  24.382  11.191
 2626W        W73226  16.812   5.905  13.983
 2627W        W73227  15.100  13.072   2.349
 2628W        W73228   6.361   1.942  14.172
 2629W        W73229  43.577  16.913  11.153
 2630W        W73230  25.100  35.144   0.300
 2631W        W73231  30.989  35.637  12.518
 2632W        W73232  41.509  40.425   3.627
 2633W        W73233  26.505  40.087  12.037
 2634W        W73234  23.616  17.764  13.027
 2635W        W73235  28.716   5.051   3.361
 2636W        W73236  13.806  42.382   2.346
 2637W        W73237  43.070  11.757  11.289
 2638W        W73238  32.804  26.831  10.962
 2639W        W73239  14.357  25.376   4.595
 2640W        W73240  16.578  37.496   1.418
 2641W        W73241   9.014   5.222  12.635
 2642W        W73242  12.746  10.597  12.883
 2643W        W73243  10.197  31.413   3.909
 2644W        W73244  33.352   5.841  14.056
 2645W        W73245   0.215  33.335   2.693
 2646W        W73246  40.842  22.513  14.908
 2647W        W73247  35.003  25.606   0.314
 2648W        W73248  35.861  11.755   2.636
 2649W        W73249  40.858  44.295  11.514
 2650W        W73250  35.639  17.884  12.628
 2651W        W73251  25.773  23.732   3.552
 2652W        W73252  43.016  42.243  12.502
 2653W        W73253  35.063  22.117  10.549
 2654W        W73254  19.178  27.666   0.700
 2655W        W73255  22.518   9.455   0.350
 2656W        W73256  14.133  35.599   3.762
 2657W        W73257  38.478   5.647  13.385
 2658W        W73258  42.873  15.052   3.723
 2659W        W73259  28.262  22.980   3.795
 2660W        W73260  22.037  16.547  12.987
 2661W        W73261  16.092  10.112   1.378
 2662W        W73262  39.811  38.879  13.090
 2663W        W73263   6.270  31.169  11.565
 2664W        W73264  29.878  27.064   0.438
 2665W        W73265  42.611  33.626  10.771
 2666W        W73266  28.839  37.389  13.292
 2667W        W73267  10.692  26.066  11.390
 2668W        W73268  17.603  17.497  14.591
 2669W        W73269  25.098  42.018  13.544
 2670W        W73270  13.102  41.312   0.965
 2671W        W73271  38.007  13.435   4.607
 2672W        W73272  35.333  26.450   2.137
 2673W        W73273  16.048  40.789   4.123
 2674W        W73274  38.803   3.328   2.264
 2675W        W73275   7.426  36.863   0.562
 2676W        W73276   1.387  36.908  12.861
 2677W        W73277  27.163  36.927  11.123
 2678W        W73278   7.794   0.365  12.012
 2679W        W73279  36.074  13.519   1.003
 2680W        W73280  27.126  20.269   2.867
 2681W        W73281  34.374  17.222   2.170
 2682W        W73282  10.448  37.498  13.320
 2683W        W73283   3.189  40.842  12.085
 2684W        W73284  17.671  34.225   1.080
 2685W        W73285  20.481  19.787   2.221
 2686W        W73286   0.966  12.918   1.483
 2687W        W73287  20.060  35.526  14.392
 2688W        W73288  40.339  37.844   4.820
 2689W        W73289  20.519   5.340  13.944
 2690W        W73290  41.571  21.187  14.525
 2691W        W73291  25.933  16.365   2.475
 2692W        W73292  26.395  28.584  14.063
 2693W        W73293  33.169   4.426   0.394
 2694W        W73294  20.249  38.730  14.211
 2695W        W73295  34.317   7.713   3.175
 2696W        W73296  39.090  14.855  11.376
 2697W        W73297  17.889  27.888   0.827
 2698W        W73298  43.383  13.210   1.850
 2699W        W73299  44.757   0.866   0.489
 2700W        W73300   5.334  19.555  12.086
 2701W        W73301  34.509  43.586  11.038
 2702W        W73302   5.407  14.681   4.208
 2703W        W73303  42.492  30.667   3.681
 2704W        W73304  44.140  17.769  11.228
 2705W        W73305  33.067  10.141   2.252
 2706W        W73306  25.170  31.656  14.348
 2707W        W73307   6.655   5.926   2.668
 2708W        W73308   0.273   9.893  12.529
 2709W        W73309  40.425  21.224  12.605
 2710W        W73310   9.795  13.804   0.964
 2711W        W73311  42.334  11.359  12.989
 2712W        W73312  33.015  18.064  11.922
 2713W        W73313  36.193   6.239   3.575
 2714W        W73314  25.143   5.805   3.652
 2715W        W73315  38.147  22.046  14.047
 2716W        W73316  15.181  32.966  11.044
 2717W        W73317  31.045  36.117   2.214
 2718W        W73318  11.144  23.484   1.958
 2719W        W73319   5.629  38.982  14.007
 2720W        W73320  13.890  17.723  14.722
 2721W        W73321  44.777   1.936   2.590
 2722W        W73322  44.837   6.011   0.028
 2723W        W73323  30.536  31.959   2.445
 2724W        W73324   4.276  32.424   0.904
 2725W        W73325  17.419   9.964  13.339
 2726W        W73326  37.106   4.308  11.566
 2727W        W73327  26.364   8.705   2.650
 2728W        W73328  32.664  10.712   3.093
 2729W        W73329  43.828   0.998   1.251
 2730W        W73330  11.554  23.351   1.356
 2731W        W73331  31.132   9.094  12.167
 2732W        W73332   5.651  16.631   0.017
 2733W        W73333   9.180  22.300  11.452
 2734W        W73334  36.086  18.256   1.024
 2735W        W73335  23.597  40.506   4.076
 2736W        W73336  41.114  42.986   4.256
 2737W        W73337  13.068  12.868   3.260
 2738W        W73338   8.886  12.947  12.952
 2739W        W73339  25.782   7.767  13.970
 2740W        W73340  43.559  26.427   2.765
 2741W        W73341  20.513  11.229  13.583
 2742W        W73342  12.339  29.742  14.521
 2743W        W73343  37.876  17.816   2.044
 2744W        W73344  34.522  31.380   2.063
 2745W        W73345  30.492  17.403   3.273
 2746W        W73346   0.449   4.833  10.960
 2747W        W73347  20.303  12.851   0.081
 2748W        W73348  31.584   5.424  14.443
 2749W        W73349  44.855   8.304   4.257
 2750W        W73350   2.737  20.473   0.350
 2751W        W73351  20.336  26.959  14.515
 2752W        W73352  31.966   9.785  10.122
 2753W        W73353  42.536  16.160   4.095
 2754W        W73354  33.399  19.235   3.774
 2755W        W73355   3.609  33.872   1.437
 2756W        W73356  22.379   7.158   5.090
 2757W        W73357  39.052  14.855  11.880
 2758W        W73358  21.646  31.115  11.892
 2759W        W73359  20.306  40.880   4.526
 2760W        W73360  14.720  19.135   4.519
 2761W        W73361  43.522  15.135  11.609
 2762W        W73362  13.790  26.227  13.498
 2763W        W73363  10.342  18.568   4.535
 2764W        W73364  44.281  11.732  12.638
 2765W        W73365   1.386   4.340   1.880
 2766W        W73366  39.603  20.051   0.187
 2767W        W73367   0.455   3.324  12.204
 2768W        W73368  41.035   0.915   3.024
 2769W        W73369  29.744  40.254  13.871
 2770W        W73370  37.294  21.576  14.885
 2771W        W73371  40.452  36.936  13.462
 2772W        W73372  33.801  23.760   2.888
 2773W        W73373  26.918  27.367   2.652
 2774W        W73374  13.793  41.325   9.825
 2775W        W73375  34.517  41.545  10.652
 2776W        W73376  21.560  44.529   1.249
 2777W        W73377  20.067  26.590   1.290
 2778W        W73378  11.129  40.144   1.263
 2779W        W73379  41.002  17.782   2.147
 2780W        W73380  35.617  40.033  13.904
 2781W        W73381   5.399  22.535  10.604
 2782W        W73382   0.874   4.019  11.946
 2783W        W73383   9.781  13.256  14.474
 2784W        W73384  19.411   4.845  12.754
 2785W        W73385  35.931  29.044  14.809
 2786W        W73386   8.829  42.959   3.632
 2787W        W73387  41.081  15.403  14.315
 2788W        W73388  21.335  39.543  12.950
 2789W        W73389  33.665  29.473  11.695
 2790W        W73390  28.509  41.331   2.367
 2791W        W73391  16.260   6.505   1.763
 2792W        W73392  11.230   8.453   3.388
 2793W        W73393   3.808  21.624   2.345
 2794W        W73394  29.170  34.047   1.792
 2795W        W73395  26.167  12.110   1.785
 2796W        W73396  13.802  31.339   2.760
 2797W        W73397  15.612  12.826   5.157
 2798W        W73398  23.044   0.029   0.457
 2799W        W73399  31.030  30.405  11.086
 2800W        W73400   7.933  19.791  12.859
 2801W        W73401  17.033  22.899   3.358
 2802W        W73402  29.015  20.770  10.903
 2803W        W73403  31.732  25.009  14.762
 2804W        W73404  43.876  32.942  11.096
 2805W        W73405  20.818   4.248  11.101
 2806W        W73406   9.423  43.957  12.019
 2807W        W73407  31.328   6.908  14.217
 2808W        W73408   3.745   3.073   5.031
 2809W        W73409  27.100   4.219   1.266
 2810W        W73410  32.944  22.406  10.666
 2811W        W73411  34.868  41.276   3.139
 2812W        W73412  33.977  29.722   3.361
 2813W        W73413  44.586   9.719   3.157
 2814W        W73414  21.773  34.525   4.165
 2815W        W73415  11.050  19.274   4.174
 2816W        W73416  35.873  21.238  14.972
 2817W        W73417  21.065  21.418   5.333
 2818W        W73418   4.773  43.991   3.797
 2819W        W73419  15.577  10.242   0.366
 2820W        W73420   0.809  17.146  14.678
 2821W        W73421  18.947  20.541   1.517
 2822W        W73422  23.186  14.687  13.829
 2823W        W73423   5.435  42.297   3.624
 2824W        W73424  17.740  35.001   3.118
 2825W        W73425  39.153  42.099  11.887
 2826W        W73426  14.058   7.263   0.328
 2827W        W73427  24.601  35.150   1.452
 2828W        W73428  23.086  28.514   2.618
 2829W        W73429  11.905  22.647   3.715
 2830W        W73430  38.056  29.586  14.762
 2831W        W73431  19.795  23.224   3.580
 2832W        W73432  16.347   1.406  12.917
 2833W        W73433   9.192  17.673  12.403
 2834W        W73434  27.662  36.872   0.774
 2835W        W73435  29.105  26.548   2.923
 2836W        W73436   7.257  22.982  10.993
 2837W        W73437  39.290  40.762   4.643
 2838W        W73438  26.923  23.094   4.103
 2839W        W73439  42.234  35.312   2.899
 2840W        W73440  15.857  37.473   0.174
 2841W        W73441  21.301   6.804  13.878
 2842W        W73442  35.133   3.819   2.843
 2843W        W73443   3.984   4.319   3.944
 2844W        W73444  43.687  31.017  13.391
 2845W        W73445   5.513  25.616   2.255
 2846W        W73446   0.450   5.531   3.112
 2847W        W73447  20.722  39.961   3.587
 2848W        W73448   9.243   4.530   0.964
 2849W        W73449  10.665  44.198  11.844
 2850W        W73450  22.460  17.217   3.817
 2851W        W73451  15.703   8.072   4.416
 2852W        W73452  13.132  41.003  13.040
 2853W        W73453  34.724  14.103  13.978
 2854W        W73454  38.387  43.956  10.963
 2855W        W73455  34.589  14.065   3.652
 2856W        W73456  29.563  10.173  11.682
 2857W        W73457  41.789  23.419  14.299
 2858W        W73458  14.550  33.769   4.430
 2859W        W73459  14.779  36.139   0.485
 2860W        W73460  16.611  33.092  12.605
 2861W        W73461  15.436  18.494   0.312
 2862W        W73462  16.161   8.248   1.407
 2863W        W73463   1.785  12.876  14.429
 2864W        W73464  39.554  39.779   4.142
 2865W        W73465  27.715  15.784  11.161
 2866W        W73466  15.139   7.223  11.103
 2867W        W73467  12.933  40.037  14.015
 2868W        W73468  27.716  21.123   0.981
 2869W        W73469  18.889  38.746   0.174
 2870W        W73470  20.287   4.453  14.819
 2871W        W73471  44.433   0.502   4.365
 2872W        W73472  21.094  14.575  13.992
 2873W        W73473  33.137  41.356   3.596
 2874W        W73474  34.342  15.658   4.672
 2875W        W73475  27.626  32.514   2.252
 2876W        W73476  39.282  37.523  14.373
 2877W        W73477  22.550  18.752   2.193
 2878W        W73478  12.606  12.848   3.075
 2879W        W73479  12.132   3.293   5.114
 2880W        W73480  43.625  41.627   4.735
 2881W        W73481  28.121  23.568   2.022
 2882W        W73482  29.062  10.355   0.280
 2883W        W73483   0.554  40.310   0.417
 2884W        W73484  34.017  31.058  13.905
 2885W        W73485   3.013  34.468   3.196
 2886W        W73486  18.220   8.130  11.484
 2887W        W73487  43.545  17.934  11.913
 2888W        W73488  27.399  11.147   1.663
 2889W        W73489  36.345  39.269   4.235
 2890W        W73490  22.043  17.814  12.386
 2891W        W73491   3.367  31.531  10.230
 2892W        W73492   8.567  25.414  11.073
 2893W        W73493  23.034  15.599   4.658
 2894W        W73494  41.085   6.806   2.854
 2895W        W73495  40.484  28.881   1.281
 2896W        W73496  17.842  15.750   3.646
 2897W        W73497  15.546  13.273  11.069
 2898W        W73498   2.830  36.498   2.416
 2899W        W73499  17.645  38.086  13.995
 2900W        W73500  14.596  22.207  12.584
 2901W        W73501   4.750  43.837  11.908
 2902W        W73502  22.155  24.213   2.079
 2903W        W73503   3.388   6.175  11.300
 2904W        W73504  13.787  24.151   2.678
 2905W        W73505   0.354  39.998  10.700
 2906W        W73506  26.154  23.679   0.380
 2907W        W73507   2.202  44.836   1.791
 2908W        W73508  35.040   7.907   0.946
 2909W        W73509  28.784  10.265  13.767
 2910W        W73510  32.983   0.945  10.761
 2911W        W73511  17.767  35.972  12.178
 2912W        W73512   8.786  24.128  13.746
 2913W        W73513  39.887  42.086  14.908
 2914W        W73514  38.989   1.207   2.713
 2915W        W73515  37.624  40.972   4.315
 2916W        W73516  37.486   0.752  13.036
 2917W        W73517  13.954  19.764   4.248
 2918W        W73518  35.803  37.423   3.793
 2919W        W73519  16.920  17.295   3.712
 2920W        W73520   6.847  16.633   4.688
 2921W        W73521   5.196   1.891  10.809
 2922W        W73522  16.739   1.253  12.029
 2923W        W73523  37.440   2.878   3.142
 2924W        W73524  29.186  34.478   2.275
 2925W        W73525  17.657   4.592  13.796
 2926W        W73526  22.343  34.982  13.236
 2927W        W73527  26.252  21.228  13.401
 2928W        W73528  37.045  26.143  13.022
 2929W        W73529  21.749  25.589   1.355
 2930W        W73530  18.150  21.988   4.597
 2931W        W73531  22.026  17.529  12.858
 2932W        W73532   0.028  31.028   3.797
 2933W        W73533  35.696  12.578   1.415
 2934W        W73534  25.371   4.003   4.195
 2935W        W73535  13.632  27.805  14.493
 2936W        W73536  27.874  20.010  14.647
 2937W        W73537  42.532  25.589   2.319
 2938W        W73538   2.950  11.736   4.359
 2939W        W73539   5.136  40.747  12.664
 2940W        W73540  37.334   4.047  11.156
 2941W        W73541  30.954  36.638  13.529
 2942W        W73542  38.746   2.926   3.682
 2943W        W73543  29.008  27.699  12.935
 2944W        W73544  42.349  29.999  13.841
 2945W        W73545   3.592  31.028  12.874
 2946W        W73546  34.896   4.720  11.107
 2947W        W73547  20.168  12.390   4.665
 2948W        W73548  42.969   3.018   3.714
 2949W        W73549  21.023  14.060  11.086
 2950W        W73550  24.069   2.113  11.600
 2951W        W73551  16.635  33.673  14.844
 2952W        W73552  10.793  37.440   3.674
 2953W        W73553  42.486  33.912   1.722
 2954W        W73554  27.174  19.292  12.961
 2955W        W73555  19.726  30.013   3.225
 2956W        W73556   4.234  44.797   0.917
 2957W        W73557  43.976  19.507   4.105
 2958W        W73558   8.747  16.253  14.989
 2959W        W73559  11.627  27.743  11.291
 2960W        W73560  38.437  26.614  13.404
 2961W        W73561  27.478  19.145  11.134
 2962W        W73562  13.801   3.294   3.825
 2963W        W73563  32.102  25.133   0.496
 2964W        W73564  22.229   5.159  12.393
 2965W        W73565  12.011  17.137   1.359
 2966W        W73566   9.771   8.213   0.409
 2967W        W73567  21.689  29.590   3.566
 2968W        W73568  33.246  18.208   2.421
 2969W        W73569  35.122  19.674   0.871
 2970W        W73570  17.191  10.161   1.254
 2971W        W73571  34.021   2.371  13.564
 2972W        W73572  30.072  13.234  13.643
 2973W        W73573  19.219  17.243   4.588
 2974W        W73574   1.851   4.481  12.601
 2975W        W73575  41.482  29.521   2.448
 2976W        W73576  40.051   5.718   3.573
 2977W        W73577   4.713   9.773  10.686
 2978W        W73578   9.746  16.242   0.690
 2979W        W73579   1.791  43.488  14.067
 2980W        W73580   8.347  37.456  10.942
 2981W        W73581  39.026  28.962  13.094
 2982W        W73582  19.578  17.692   1.000
 2983W        W73583   4.498  27.957   4.231
 2984W        W73584  34.703   9.821  11.646
 2985W        W73585  33.256  26.706   3.699
 2986W        W73586  30.958   6.570  12.794
 2987W        W73587  14.800  40.935  11.485
 2988W        W73588  29.186  25.397  13.577
 2989W        W73589   3.326  41.611   4.907
 2990W        W73590   4.895  24.971  14.496
 2991W        W73591  42.097  38.453   1.134
 2992W        W73592  30.336   1.498  11.970
 2993W        W73593   9.224   9.370  10.750
 2994W        W73594  26.515   2.747  11.087
 2995W        W73595  26.646  35.425  12.569
 2996W        W73596  14.194   2.246   3.157
 2997W        W73597  33.362  10.154  14.864
 2998W        W73598  24.341  12.808   3.475
 2999W        W73599  42.761   8.873   2.300
 3000W        W73600  44.337  37.305   3.170
 3001W        W73601  39.028   9.278  10.906
 3002W        W73602  12.200  44.869  11.100
 3003W        W73603   2.883  15.334   1.230
 3004W        W73604   0.419  15.273   1.227
 3005W        W73605  44.269  35.134  11.504
 3006W        W73606  22.994   1.470   4.124
 3007W        W73607  20.293   1.907  13.858
 3008W        W73608  12.390  38.346   1.688
 3009W        W73609   6.364  32.364   2.289
 3010W        W73610  22.023   8.313   1.150
 3011W        W73611  19.498  19.089  12.501
 3012W        W73612  36.552  11.263  14.597
 3013W        W73613  44.023  20.260   3.678
 3014W        W73614  42.991  15.682  14.544
 3015W        W73615  26.196  37.436  14.460
 3016W        W73616   6.660   4.748   2.791
 3017W        W73617  43.102   8.436   1.385
 3018W        W73618  28.129  18.109   0.741
 3019W        W73619  39.927  21.838   0.507
 3020W        W73620   8.117  36.818   0.931
 3021W        W73621   2.439  17.653   2.108
 3022W        W73622  31.160  30.195  12.351
 3023W        W73623  42.407  35.875  13.751
 3024W        W73624  13.140  36.545   0.714
 3025W        W73625  11.968  24.508   3.741
 3026W        W73626   0.250  29.563  13.948
 3027W        W73627  33.369   8.691   4.693
 3028W        W73628  25.746   7.355   0.573
 3029W        W73629  23.478  43.960   3.199
 3030W        W73630  33.118   6.583  10.709
 3031W        W73631  31.445  11.298   1.854
 3032W        W73632  39.405  26.123  12.144
 3033W        W73633  10.245   7.809  12.432
 3034W        W73634  18.024  10.366   2.267
 3035W        W73635  25.056  28.618  10.723
 3036W        W73636  39.257   0.226  14.867
 3037W        W73637  21.365   7.364  14.745
 3038W        W73638  36.572  23.600   1.708
 3039W        W73639   5.683  17.103  14.319
 3040W        W73640  34.029  23.337   0.960
 3041W        W73641  37.447  34.902   1.996
 3042W        W73642   9.768   1.335  10.442
 3043W        W73643   2.211   5.932  14.927
 3044W        W73644  16.779  43.003  12.016
 3045W        W73645   3.218  18.176   4.652
 3046W        W73646  23.706  25.179   0.485
 3047W        W73647  34.999  35.396   0.501
 3048W        W73648  30.645  38.335   3.339
 3049W        W73649  33.300  38.264  12.828
 3050W        W73650  39.647  10.258   0.908
 3051W        W73651  17.495  37.998   2.165
 3052W        W73652  34.547  18.488  14.836
 3053W        W73653   3.368  27.170  12.870
 3054W        W73654  26.695  31.393   1.470
 3055W        W73655  13.169  28.042  14.455
 3056W        W73656  19.699  32.978  12.832
 3057W        W73657  12.859  14.048  12.804
 3058W        W73658  11.340  44.942  11.499
 3059W        W73659  10.665  21.057   4.457
 3060W        W73660   0.399  20.818   3.174
 3061W        W73661  22.172  29.153  14.267
 3062W        W73662  35.122  20.582  12.757
 3063W        W73663  26.969   9.834   4.115
 3064W        W73664  38.840  40.447   2.215
 3065W        W73665  14.578  44.846   2.125
 3066W        W73666  35.108  43.792   0.564
 3067W        W73667   0.672  27.322   2.253
 3068W        W73668  38.301  25.665   2.314
 3069W        W73669  15.414  36.412   2.223
 3070W        W73670  41.050   6.463  14.254
 3071W        W73671  19.547  37.673   2.225
 3072W        W73672   5.660  39.365   0.937
 3073W        W73673  37.682   4.875   4.761
 3074W        W73674  40.416  41.969  14.134
 3075W        W73675  26.247  43.871  13.007
 3076W        W73676  21.812  12.083   3.912
 3077W        W73677  17.129  29.456  14.871
 3078W        W73678  12.056  37.728  13.917
 3079W        W73679  31.784  18.166  12.007
 3080W        W73680  24.178  24.127  13.396
 3081W        W73681  33.334  22.497  12.173
 3082W        W73682   8.488  15.856  14.688
 3083W        W73683   9.706   6.690  10.620
 3084W        W73684  38.872  18.848   1.406
 3085W        W73685   0.742  23.487   2.883
 3086W        W73686  18.566   6.182  12.280
 3087W        W73687  32.900  31.844  14.926
 3088W        W73688  30.633  34.304  12.425
 3089W        W73689   8.292  15.546  13.709
 3090W        W73690  13.801  30.081   0.595
 3091W        W73691  22.584  28.576   0.741
 3092W        W73692  43.050  16.795  12.313
 3093W        W73693  24.424  10.319   0.915
 3094W        W73694  39.845  40.446   0.784
 3095W        W73695  19.588   1.593   0.705
 3096W        W73696   4.709  41.367  11.185
 3097W        W73697   4.978  21.870  12.480
 3098W        W73698  15.776  25.688   1.771
 3099W        W73699  29.747  31.510  11.695
 3100W        W73700  15.098  43.833  13.445
 3101W        W73701  39.840  35.863   0.200
 3102W        W73702   0.204  39.746  11.120
 3103W        W73703  27.430  39.743   2.741
 3104W        W73704  12.253  25.135  11.816
 3105W        W73705   6.685  30.931   1.118
 3106W        W73706  28.860   2.835  10.610
 3107W        W73707  31.187   7.341   2.758
 3108W        W73708  30.558  30.371  14.429
 3109W        W73709  22.557  32.369  11.250
 3110W        W73710  26.163  22.286   0.303
 3111W        W73711   6.775  40.280   3.275
 3112W        W73712  31.924  27.954   1.746
 3113W        W73713  14.533  23.624   2.820
 3114W        W73714  13.893   8.696  11.179
 3115W        W73715  35.265  22.984   4.595
 3116W        W73716  22.470  38.303   2.225
 3117W        W73717   2.943  12.728   3.814
 3118W        W73718  42.006  35.578  13.396
 3119W        W73719  43.761  14.198   2.470
 3120W        W73720   1.787   8.747  13.473
 3121W        W73721  23.712  35.400  13.334
 3122W        W73722   8.440  16.281  10.592
 3123W        W73723   2.008  41.465  10.772
 3124W        W73724  24.025  13.787   3.176
 3125W        W73725  43.675   1.021  10.707
 3126W        W73726  32.243  15.873   3.182
 3127W        W73727   3.195   2.394  14.835
 3128W        W73728  35.417  42.396  10.408
 3129W        W73729  16.739  32.715   4.116
 3130W        W73730   8.640  38.474  12.063
 3131W        W73731  11.689  28.083   2.314
 3132W        W73732  18.532  17.462  10.328
 3133W        W73733   7.458  17.724   4.656
 3134W        W73734  26.962  31.078   2.647
 3135W        W73735  36.829  29.110   0.866
 3136W        W73736  21.455  31.524   2.224
 3137W        W73737  33.395  28.634  12.508
 3138W        W73738  22.080  36.173  13.707
 3139W        W73739  30.617  21.014  10.549
 3140W        W73740   6.389  16.181   2.667
 3141W        W73741  24.486  23.991   0.867
 3142W        W73742   5.134  14.071  11.641
 3143W        W73743   1.981  35.951   3.257
 3144W        W73744  37.426   9.237   5.043
 3145W        W73745  21.054   9.335  10.294
 3146W        W73746  44.040  14.274   4.338
 3147W        W73747  16.358  30.385  13.747
 3148W        W73748  29.871   2.789   0.950
 3149W        W73749  24.940  19.725   0.915
 3150W        W73750  11.954  41.835  12.530
 3151W        W73751  32.040  38.416  14.410
 3152W        W73752  40.473  42.864   4.103
 3153W        W73753  30.264  18.513  12.713
 3154W        W73754   9.038  28.124   3.601
 3155W        W73755  26.568   3.471   2.284
 3156W        W73756  32.910  25.461  14.973
 3157W        W73757  36.028  18.379   4.274
 3158W        W73758  38.636   4.339   2.593
 3159W        W73759  13.753  39.657   2.367
 3160W        W73760  15.324  10.725  12.486
 3161W        W73761  11.325   2.698  13.435
 3162W        W73762  23.741  20.632   4.097
 3163W        W73763  11.327  27.171  10.748
 3164W        W73764  19.368  16.773   4.702
 3165W        W73765   0.140  33.634   3.656
 3166W        W73766   9.043  13.358   4.633
 3167W        W73767  28.856  27.120   2.218
 3168W        W73768  26.215  41.772   1.271
 3169W        W73769  29.008  43.397   1.086
 3170W        W73770   8.119  22.667  12.903
 3171W        W73771   2.747  22.085   2.553
 3172W        W73772   1.349  23.116  12.562
 3173W        W73773  10.826   9.247   4.627
 3174W        W73774  24.203   2.667   4.155
 3175W        W73775  10.834  10.035  14.782
 3176W        W73776  27.494  21.800   4.210
 3177W        W73777   6.969  33.560  13.552
 3178W        W73778  13.933  23.260  13.357
 3179W        W73779  15.695  33.878   3.764
 3180W        W73780  19.112  29.651   1.230
 3181W        W73781   7.544   2.211  14.810
 3182W        W73782  39.955  38.040   3.628
 3183W        W73783  35.075  24.858   3.644
 3184W        W73784   6.657  25.519   0.873
 3185W        W73785  40.721  17.982  13.064
 3186W        W73786  32.485  13.440  11.133
 3187W        W73787  35.600  30.408  11.106
 3188W        W73788  26.196  32.972   2.731
 3189W        W73789  13.713  41.493  10.314
 3190W        W73790   8.729  21.994  13.289
 3191W        W73791  33.545  22.799   0.446
 3192W        W73792  10.147   5.734  10.665
 3193W        W73793  36.580  40.953  12.032
 3194W        W73794   3.947  21.204  13.826
 3195W        W73795  18.514  29.376   3.975
 3196W        W73796  12.316   3.650   1.555
 3197W        W73797  17.249  23.645   4.605
 3198W        W73798  41.321  25.989   2.619
 3199W        W73799  26.716  38.011  13.249
 3200W        W73800   1.836  35.140   2.751
 3201W        W73801   0.487  21.478   2.726
 3202W        W73802  15.132  37.034   3.373
 3203W        W73803  39.950   0.410   4.309
 3204W        W73804  16.852  11.235   0.948
 3205W        W73805  41.643  20.791  12.844
 3206W        W73806  29.467  22.753   9.985
 3207W        W73807  15.089  21.503  14.334
 3208W        W73808  21.827  22.722  13.435
 3209W        W73809  22.092  23.718   2.220
 3210W        W73810  29.689   8.923  11.223
 3211W        W73811   9.074  10.333   4.523
 3212W        W73812  43.384  18.628   1.251
 3213W        W73813  34.140   4.872  13.566
 3214W        W73814  41.844  17.581   3.784
 3215W        W73815   2.939  26.376   0.265
 3216W        W73816   3.351  39.531   2.302
 3217W        W73817  13.725   8.341   1.998
 3218W        W73818   0.378  29.200  11.440
 3219W        W73819  37.568   3.410  14.431
 3220W        W73820  11.218  14.061  10.525
 3221W        W73821  26.696  22.983   2.283
 3222W        W73822  25.394  10.293   1.560
 3223W        W73823  33.933   2.298   4.336
 3224W        W73824  19.581  35.936  13.472
 3225W        W73825  23.750  10.608  14.112
 3226W        W73826   3.373  41.797  13.181
 3227W        W73827  40.396  23.085   1.988
 3228W        W73828  27.094   9.875  14.078
 3229W        W73829  28.176   2.826  14.357
 3230W        W73830  43.403   6.844   3.791
 3231W        W73831  34.939  32.287  11.258
 3232W        W73832  39.640   0.508   1.793
 3233W        W73833  37.686  15.511   5.061
 3234W        W73834  40.857  36.527  14.772
 3235W        W73835  36.492  30.314  10.331
 3236W        W73836  39.895  14.718   4.653
 3237W        W73837  39.300  30.427  11.041
 3238W        W73838  12.916   0.321  12.377
 3239W        W73839  14.671  43.395  13.890
 3240W        W73840  20.018  40.788   1.704
 3241W        W73841  17.373   1.777   4.125
 3242W        W73842  16.421  33.355   0.264
 3243W        W73843  40.513  44.370  12.358
 3244W        W73844  27.196  15.699  11.177
 3245W        W73845   0.512  27.018   0.767
 3246W        W73846  12.573  35.578  12.851
 3247W        W73847  22.923  19.617   2.175
 3248W        W73848   4.724  15.734   4.249
 3249W        W73849  10.187  34.564   3.633
 3250W        W73850  23.906   7.919  12.491
 3251W        W73851  30.455   1.592  12.460
 3252W        W73852  18.251  41.658  12.989
 3253W        W73853  11.905  37.348  11.258
 3254W        W73854  29.361  21.548  10.645
 3255W        W73855  15.351   7.946  12.299
 3256W        W73856   7.228   1.971  14.477
 3257W        W73857  41.783  17.000  11.612
 3258W        W73858   2.168  33.024  14.794
 3259W        W73859  18.827  24.123   1.304
 3260W        W73860  42.348  15.616  11.666
 3261W        W73861  22.619  35.209   1.155
 3262W        W73862  25.623  42.249   1.837
 3263W        W73863  28.516  14.320   3.553
 3264W        W73864  31.525  24.231   2.802
 3265W        W73865  27.016  21.707  11.957
 3266W        W73866   9.745  23.575  14.126
 3267W        W73867  34.099  17.155  13.504
 3268W        W73868  27.943  42.056   4.687
 3269W        W73869  33.539  42.951  10.104
 3270W        W73870  22.072  19.529   0.906
 3271W        W73871  44.878  43.127   3.178
 3272W        W73872   2.755  10.549  13.763
 3273W        W73873   5.450  23.006   4.448
 3274W        W73874  34.868  43.907  11.486
 3275W        W73875  35.963  14.852  13.792
 3276W        W73876   6.173  31.476   2.136
 3277W        W73877  12.547   4.867  12.477
 3278W        W73878   4.894   1.301   1.954
 3279W        W73879  42.446  37.542   4.850
 3280W        W73880  33.784   5.636  13.864
 3281W        W73881   0.696  42.376   1.045
 3282W        W73882  43.795  20.773  14.474
 3283W        W73883  17.093  30.635  10.957
 3284W        W73884  38.574  15.794  10.551
 3285W        W73885  31.334   8.107   1.847
 3286W        W73886  34.975  39.410  10.727
 3287W        W73887  42.396  31.369  10.589
 3288W        W73888   6.049  30.937   1.890
 3289W        W73889   5.569  34.418   0.736
 3290W        W73890  36.164  27.757  14.387
 3291W        W73891  35.955  35.940  14.918
 3292W        W73892  40.063   1.664  14.503
 3293W        W73893  19.693   9.110   0.787
 3294W        W73894  25.917  38.050   1.126
 3295W        W73895  44.494  40.020   4.791
 3296W        W73896  32.905  11.235  11.237
 3297W        W73897  14.201  39.999  12.879
 3298W        W73898   4.160   1.286   1.696
 3299W        W73899  43.804   5.895  11.993
 3300W        W73900  17.624  25.668   1.791
 3301W        W73901  36.371  26.221   1.871
 3302W        W73902  18.719  15.245   0.773
 3303W        W73903   5.278  35.246  11.660
 3304W        W73904   2.013   0.326  14.823
 3305W        W73905  26.755  40.915  10.565
 3306W        W73906  21.680  14.223  13.344
 3307W        W73907  23.414  19.258   0.245
 3308W        W73908  16.006   9.304   2.817
 3309W        W73909  21.053   1.439  12.884
 3310W        W73910  25.695  37.233   3.767
 3311W        W73911  14.119  28.539  14.953
 3312W        W73912   0.750   1.966  10.182
 3313W        W73913  29.647  44.429   0.345
 3314W        W73914   7.918  29.399   2.956
 3315W        W73915  31.047  14.525  13.504
 3316W        W73916  44.537  10.050   0.822
 3317W        W73917  24.486  25.847  13.171
 3318W        W73918  20.493  34.897  11.065
 3319W        W73919  14.999  18.808   4.197
 3320W        W73920  39.361  44.003   0.511
 3321W        W73921   4.381  20.631   2.489
 3322W        W73922  15.401  38.923  13.986
 3323W        W73923  14.315   2.875  14.408
 3324W        W73924   8.300  28.471   3.837
 3325W        W73925  10.734  44.186   4.284
 3326W        W73926  27.633   1.405  11.590
 3327W        W73927  34.196  20.844  12.977
 3328W        W73928  32.684  25.867   0.202
 3329W        W73929  17.694  37.082   0.734
 3330W        W73930  31.561  25.779   1.353
 3331W        W73931  20.903  38.352   2.338
 3332W        W73932  10.902  31.157   1.916
 3333W        W73933   6.701  44.392  13.992
 3334W        W73934  25.075  37.630   2.246
 3335W        W73935  44.803  40.795  13.144
 3336W        W73936  42.892  27.129   2.476
 3337W        W73937  33.197  16.751   1.602
 3338W        W73938  29.077  29.926  14.273
 3339W        W73939  35.997  40.546  12.794
 3340W        W73940  23.001   0.927   2.858
 3341W        W73941  25.039  31.484   0.981
 3342W        W73942   0.276  38.489  13.095
 3343W        W73943  10.780   1.656   1.268
 3344W        W73944  12.727  17.547  11.096
 3345W        W73945   4.023  15.152  12.482
 3346W        W73946  23.094  13.199   1.330
 3347W        W73947  41.358   8.034  10.241
 3348W        W73948  39.158   0.719   1.916
 3349W        W73949  43.708  33.594  13.607
 3350W        W73950  38.982   6.825   4.545
 3351W        W73951  37.417  21.914  12.636
 3352W        W73952  32.566  28.278  11.750
 3353W        W73953  10.832  40.298   3.314
 3354W        W73954   5.329  36.478  14.782
 3355W        W73955  37.317  14.328   0.784
 3356W        W73956  15.324  10.658  14.266
 3357W        W73957  21.200  22.295  13.120
 3358W        W73958  23.104  14.644   2.535
 3359W        W73959  31.854  36.040   4.822
 3360W        W73960   5.676   9.961  11.645
 3361W        W73961  32.521  19.598  10.673
 3362W        W73962   1.814  28.379   0.476
 3363W        W73963  44.193   6.083   2.162
 3364W        W73964   1.298  10.785  12.737
 3365W        W73965  42.300  29.061  14.980
 3366W        W73966  31.928  23.926  10.692
 3367W        W73967  21.603  13.548   1.814
 3368W        W73968   8.233   5.545  11.599
 3369W        W73969  18.568  38.354  14.731
 3370W        W73970  44.642  27.103  14.904
 3371W        W73971  26.551   9.638   5.023
 3372W        W73972  24.157   0.736   1.934
 3373W        W73973  44.944  13.881  11.171
 3374W        W73974  18.172   6.184  14.868
 3375W        W73975   6.107  36.575  12.606
 3376W        W73976   1.609  35.092  13.048
 3377W        W73977   1.001  13.710  12.510
 3378W        W73978  25.130  15.224   0.499
 3379W        W73979  36.285  13.577  11.284
 3380W        W73980   0.500  42.460   1.544
 3381W        W73981  42.343  41.791   0.735
 3382W        W73982  27.008   8.004  11.173
 3383W        W73983  12.296  36.935  14.500
 3384W        W73984   1.987  35.197  14.352
 3385W        W73985  27.039   1.243  12.484
 3386W        W73986   2.458  24.578  12.009
 3387W        W73987  29.586   7.449  13.117
 3388W        W73988  19.933  30.051   1.451
 3389W        W73989  31.570  38.681   5.053
 3390W        W73990  30.201  35.920  10.896
 3391W        W73991  21.666  17.629  11.047
 3392W        W73992   6.626  35.416   3.044
 3393W        W73993   9.332   6.830   4.029
 3394W        W73994  26.279   7.418   1.969
 3395W        W73995  10.558  34.944   3.308
 3396W        W73996  22.781  35.059  14.925
 3397W        W73997   5.151   1.229   4.797
 3398W        W73998  14.702  24.948   3.686
 3399W        W73999  40.559  35.282   3.312
 3400W        W74000   9.309   1.937   2.389
 3401W        W74001  39.241  39.928  13.116
 3402W        W74002  19.652   6.276   3.497
 3403W        W74003   0.621  38.340   0.461
 3404W        W74004  18.349   2.818   0.909
 3405W        W74005  29.229  16.088  10.521
 3406W        W74006  10.134  39.136   3.710
 3407W        W74007   5.973  10.044   4.832
 3408W        W74008   0.927  35.641   1.878
 3409W        W74009  17.532  43.351  11.879
 3410W        W74010  41.418   1.309  10.688
 3411W        W74011  38.004   9.675   1.035
 3412W        W74012  27.500  37.027  14.845
 3413W        W74013  14.196  40.546  12.945
 3414W        W74014  40.847   0.887   3.495
 3415W        W74015  36.216  16.262   2.791
 3416W        W74016  41.770  19.477   2.728
 3417W        W74017  21.392   0.850   3.794
 3418W        W74018  31.080   9.869  11.592
 3419W        W74019  12.879   7.838   3.831
 3420W        W74020  18.843  10.390  11.935
 3421W        W74021  37.840  24.544  11.352
 3422W        W74022  20.642  16.604   2.321
 3423W        W74023  12.570   3.650   3.710
 3424W        W74024  30.693  41.446   0.796
 3425W        W74025  23.158  22.492   1.426
 3426W        W74026  25.470  18.780   1.774
 3427W        W74027   3.749  42.649  13.566
 3428W        W74028   5.831  11.055  12.933
 3429W        W74029  12.631  32.931  13.597
 3430W        W74030  39.855   1.430   4.065
 3431W        W74031  43.293  30.018  11.849
 3432W        W74032  14.554  27.404  12.044
 3433W        W74033  29.033  14.940  10.693
 3434W        W74034  19.509   6.315   0.729
 3435W        W74035   0.655   2.962  14.161
 3436W        W74036   8.772  32.915   3.816
 3437W        W74037   1.348  30.532   4.385
 3438W        W74038   2.345  11.548   0.724
 3439W        W74039  38.019   7.385  10.979
 3440W        W74040  43.710  41.122  13.884
 3441W        W74041  28.573  36.060   1.888
 3442W        W74042   1.813  13.174   0.265
 3443W        W74043  20.692  17.227  14.951
 3444W        W74044  17.309  41.736   0.444
 3445W        W74045   3.615  17.088  12.398
 3446W        W74046  37.017   4.204   3.208
 3447W        W74047  42.052  20.303  13.959
 3448W        W74048   1.898  24.619   1.833
 3449W        W74049  17.743  10.901  12.529
 3450W        W74050   2.985   2.267   3.158
 3451W        W74051  36.003   4.861   0.768
 3452W        W74052  28.090  10.154  10.280
 3453W        W74053  15.028  28.562  13.641
 3454W        W74054  13.823  39.452   3.835
 3455W        W74055  40.135  21.705   3.586
 3456W        W74056  23.940   7.158   3.147
 3457W        W74057  33.092  30.053  11.989
 3458W        W74058  10.378  25.206   0.727
 3459W        W74059  33.120  22.113  13.793
 3460W        W74060  14.218  31.017   2.811
 3461W        W74061  31.154  18.657   2.711
 3462W        W74062  22.789  10.663   3.338
 3463W        W74063  17.509  21.650   1.852
 3464W        W74064  19.098  42.905  13.696
 3465W        W74065  34.375  19.771   0.433
 3466W        W74066  13.547  26.473   3.295
 3467W        W74067  38.074  43.758  13.719
 3468W        W74068   8.114  41.753   1.261
 3469W        W74069  28.242  17.602   4.424
 3470W        W74070  17.763  13.232  13.351
 3471W        W74071  32.310   6.511  10.969
 3472W        W74072  31.715  35.076   1.646
 3473W        W74073  40.367  21.474  11.529
 3474W        W74074   3.808  27.564  10.912
 3475W        W74075   5.803  30.967  14.291
 3476W        W74076  21.078  19.532   3.419
 3477W        W74077  41.313  13.419   0.638
 3478W        W74078  42.520  18.050   4.913
 3479W        W74079  43.381  14.240   0.650
 3480W        W74080  30.970  42.675  13.691
 3481W        W74081  30.620  21.585   2.416
 3482W        W74082  16.779  42.275  14.943
 3483W        W74083   6.193  21.681   3.974
 3484W        W74084  15.477  12.383   0.414
 3485W        W74085   3.930  43.025   0.701
 3486W        W74086  22.582  40.789  14.759
 3487W        W74087   3.272  11.694   0.829
 3488W        W74088   1.771  37.963   1.138
 3489W        W74089  26.126  29.941  14.590
 3490W        W74090  16.063   9.645   3.227
 3491W        W74091  12.278  34.142  14.028
 3492W        W74092  10.412  30.084   1.370
 3493W        W74093  18.173   1.178   4.220
 3494W        W74094   3.910  18.732   1.856
 3495W        W74095  13.192   9.208   1.261
 3496W        W74096  37.508  11.514  14.506
 3497W        W74097   6.910  29.164  12.903
 3498W        W74098  40.963  17.264  11.252
 3499W        W74099  12.915  19.207  14.899
 3500W        W74100  19.260  35.582  10.434
 3501W        W74101  40.910   2.353   1.808
 3502W        W74102  39.220   8.429   3.754
 3503W        W74103  36.966  13.532  10.823
 3504W        W74104  39.787  25.521   2.488
 3505W        W74105  14.392  25.729   0.542
 3506W        W74106  10.298   5.183  14.812
 3507W        W74107   1.351  10.134  12.519
 3508W        W74108  42.264   8.204  14.398
 3509W        W74109  35.977  14.267   3.619
 3510W        W74110  37.891  37.501  10.571
 3511W        W74111   2.284   6.747   0.568
 3512W        W74112  36.435  17.224   4.789
 3513W        W74113   5.335   2.042  11.583
 3514W        W74114  38.458  12.051   3.372
 3515W        W74115  18.334  16.573  13.241
 3516W        W74116  44.625  35.945   4.884
 3517W        W74117  28.852  17.833  10.595
 3518W        W74118  33.253  25.546   3.853
 3519W        W74119  34.350  21.673   4.574
 3520W        W74120  38.475   7.820  11.631
 3521W        W74121  28.429   2.026  14.073
 3522W        W74122  23.157  20.284   0.960
 3523W        W74123   4.080   4.588  12.131
 3524W        W74124   0.913  28.293  12.126
 3525W        W74125  22.990  43.182   9.758
 3526W        W74126  37.008  43.722   3.227
 3527W        W74127   3.714  30.366   0.403
 3528W        W74128  11.275  32.340   4.584
 3529W        W74129  36.388  33.835   3.341
 3530W        W74130  13.070  29.489   1.383
 3531W        W74131  42.550   1.494   2.271
 3532W        W74132  41.906  25.338   4.655
 3533W        W74133  27.592  29.638  14.394
 3534W        W74134  21.045  41.407   0.062
 3535W        W74135   0.524  28.389  12.513
 3536W        W74136  24.217  33.499   2.007
 3537W        W74137  24.794  34.492  11.671
 3538W        W74138  26.101  42.796   1.345
 3539W        W74139   1.414  38.059  11.923
 3540W        W74140  41.284  40.894  11.239
 3541W        W74141  23.003   1.859  13.434
 3542W        W74142   9.353   2.868  13.408
 3543W        W74143  25.134  27.266   3.310
 3544W        W74144  38.957  39.577  13.370
 3545W        W74145  32.603  35.672   0.990
 3546W        W74146  35.403  31.842   1.458
 3547W        W74147   6.891  13.098   3.238
 3548W        W74148  16.357   6.782   0.292
 3549W        W74149  39.760  24.589   1.841
 3550W        W74150  16.780  32.480  12.220
 3551W        W74151  17.159  44.545  12.882
 3552W        W74152  20.719  21.909   2.312
 3553W        W74153   1.731  20.333   1.326
 3554W        W74154  25.238   5.847  12.620
 3555W        W74155  35.085  39.022  11.153
 3556W        W74156  32.994  36.955  10.974
 3557W        W74157  29.260  38.779  13.194
 3558W        W74158   3.003  39.277  14.820
 3559W        W74159  42.997  17.336   0.481
 3560W        W74160  16.821  28.297   4.197
 3561W        W74161  24.182  28.998   1.869
 3562W        W74162   5.766  42.867  10.455
 3563W        W74163   9.195  37.701   4.191
 3564W        W74164  20.553  40.136  11.201
 3565W        W74165  38.060   8.220   0.771
 3566W        W74166  24.472  19.477  11.649
 3567W        W74167   1.699  36.365  12.112
 3568W        W74168  42.418   9.253   1.517
 3569W        W74169  23.433  23.979   1.471
 3570W        W74170  39.998  25.243   0.848
 3571W        W74171  29.138  42.896   2.812
 3572W        W74172  37.401   1.205  11.035
 3573W        W74173  29.093  14.331  11.388
 3574W        W74174  17.271   1.723   0.438
 3575W        W74175  37.569  44.731   4.607
 3576W        W74176  21.628  30.512  10.632
 3577W        W74177  26.128  16.011   2.794
 3578W        W74178   3.382  29.651   2.889
 3579W        W74179  25.791  32.971  13.918
 3580W        W74180   4.214  42.510   2.383
 3581W        W74181  28.978  14.388   4.270
 3582W        W74182  41.269  27.779   3.184
 3583W        W74183  18.591  17.671  14.363
 3584W        W74184  27.652  11.054  12.486
 3585W        W74185   3.759  17.605   4.408
 3586W        W74186  35.142  11.892   4.146
 3587W        W74187  26.340  21.055  14.409
 3588W        W74188  34.007  13.397   3.297
 3589W        W74189  16.474  40.081   4.659
 3590W        W74190   3.388  25.509  12.906
 3591W        W74191  21.254   5.444   4.453
 3592W        W74192   3.200   7.918   5.024
 3593W        W74193   4.790  40.623  12.156
 3594W        W74194   2.711  32.080   2.570
 3595W        W74195  31.821   9.676   1.314
 3596W        W74196   9.816  20.221  14.776
 3597W        W74197   0.916  12.093   2.222
 3598W        W74198   3.983  19.801   3.779
 3599W        W74199  31.325   4.227  11.974
 3600W        W74200  44.082  24.704  11.981
 3601W        W74201  18.558  25.939  11.739
 3602W        W74202  28.015  34.560   3.663
 3603W        W74203  34.207   2.046  11.122
 3604W        W74204  40.824  24.571   0.948
 3605W        W74205  19.149   2.706   2.690
 3606W        W74206  32.477   3.014  14.562
 3607W        W74207  43.035  32.098  11.438
 3608W        W74208  41.599   9.771   2.884
 3609W        W74209  22.734  36.996   3.605
 3610W        W74210  37.039   0.408  11.031
 3611W        W74211   3.894  41.966  13.026
 3612W        W74212  42.914   4.098   4.933
 3613W        W74213  16.274   5.175   2.159
 3614W        W74214  22.628  44.534   4.057
 3615W        W74215  38.263  44.404  14.101
 3616W        W74216   1.871  19.661   0.829
 3617W        W74217  21.879   5.455  13.947
 3618W        W74218  44.471  24.734  11.514
 3619W        W74219  22.231  22.219   3.234
 3620W        W74220  30.495  20.824  11.006
 3621W        W74221   7.894  20.108  14.980
 3622W        W74222   7.601  29.169  11.609
 3623W        W74223  42.530   2.866  14.731
 3624W        W74224   8.404  11.398  12.474
 3625W        W74225  20.545  35.822   1.954
 3626W        W74226  30.121  17.211   1.242
 3627W        W74227  31.085   7.643   1.674
 3628W        W74228   8.819  35.025   4.540
 3629W        W74229   1.660  39.880  11.912
 3630W        W74230  37.485  22.515   2.253
 3631W        W74231  28.458  23.194   1.486
 3632W        W74232  41.406  31.924  14.953
 3633W        W74233  36.428  38.139   1.923
 3634W        W74234  12.248   0.826   3.721
 3635W        W74235  30.559  19.486   2.827
 3636W        W74236  32.165  33.084  12.063
 3637W        W74237  32.649  43.052  10.646
 3638W        W74238   6.659  41.626  11.691
 3639W        W74239  10.903  31.985  14.497
 3640W        W74240  32.971  37.556   0.428
 3641W        W74241  40.918  22.528   3.364
 3642W        W74242  29.560  39.200  13.232
 3643W        W74243  14.843  23.634   4.156
 3644W        W74244  21.670  22.698   0.902
 3645W        W74245  32.538  42.884  12.918
 3646W        W74246   6.412  43.935  13.838
 3647W        W74247  33.025  40.547  11.844
 3648W        W74248  31.036  40.298   1.028
 3649W        W74249  30.291   0.856   1.763
 3650W        W74250  42.589  34.144  10.747
 3651W        W74251  33.401   8.123  14.501
 3652W        W74252  40.056  10.760  11.380
 3653W        W74253   5.176  38.385  12.537
 3654W        W74254  15.983  34.524  12.629
 3655W        W74255  31.619  37.421   0.363
 3656W        W74256   2.230   8.587   2.735
 3657W        W74257  25.194  27.547  12.631
 3658W        W74258  28.907  21.647   4.667
 3659W        W74259  13.029  31.048  14.910
 3660W        W74260  19.300  16.020  12.449
 3661W        W74261  26.504  19.190  13.442
 3662W        W74262   7.227  34.890  12.807
 3663W        W74263  40.327  15.566   3.122
 3664W        W74264   3.045  12.406  14.351
 3665W        W74265  41.047  39.851  12.529
 3666W        W74266  29.235  44.471   0.044
 3667W        W74267  40.059  27.456  14.048
 3668W        W74268  23.444   2.423   2.319
 3669W        W74269  43.998  35.159  11.982
 3670W        W74270  16.217   2.282   4.214
 3671W        W74271  23.969  39.997  12.160
 3672W        W74272   7.921  14.820   0.464
 3673W        W74273  13.820  29.051   1.723
 3674W        W74274  23.015   4.925  11.155
 3675W        W74275  44.710   0.458   3.635
 3676W        W74276  32.617  19.000  14.898
 3677W        W74277  10.853  27.471   4.522
 3678W        W74278  16.339   0.227  10.730
 3679W        W74279  34.693  12.357  13.299
 3680W        W74280  20.947   9.417   0.256
 3681W        W74281  35.042  37.752  14.341
 3682W        W74282  36.450  20.914   1.620
 3683W        W74283   6.342  42.776  12.877
 3684W        W74284   6.740  13.136  12.500
 3685W        W74285  14.310  21.740  14.036
 3686W        W74286  25.497  38.021   4.412
 3687W        W74287  31.888  18.314   4.115
 3688W        W74288  36.292   7.903  13.383
 3689W        W74289   0.355  38.557  14.527
 3690W        W74290  19.313   9.906   1.866
 3691W        W74291  20.302  38.586  12.872
 3692W        W74292   8.422  13.859  11.960
 3693W        W74293  17.126  10.684   1.198
 3694W        W74294   8.329   5.309  13.059
 3695W        W74295  43.828  29.134   4.654
 3696W        W74296  43.485  11.207   1.921
 3697W        W74297  19.089   9.625   2.305
 3698W        W74298   1.766  22.299   1.778
 3699W        W74299  27.881   3.834   4.221
 3700W        W74300   1.413   6.761   3.148
 3701W        W74301  43.421  33.401  14.449
 3702W        W74302  23.011   6.186  13.978
 3703W        W74303  42.425  16.990  14.478
 3704W        W74304  15.547  20.847  13.969
 3705W        W74305  40.639   3.311   5.482
 3706W        W74306  33.145  37.548   2.276
 3707W        W74307  16.160   1.458  14.068
 3708W        W74308   3.181  14.872  13.522
 3709W        W74309  21.076  34.625  10.634
 3710W        W74310  31.298   4.285  12.872
 3711W        W74311   5.927   3.311  13.331
 3712W        W74312  41.351  25.505   1.810
 3713W        W74313  38.083   6.480   0.306
 3714W        W74314  32.752  11.111  14.018
 3715W        W74315  34.642  23.627  12.422
 3716W        W74316  27.002   9.368   4.990
 3717W        W74317  17.326  15.684  11.593
 3718W        W74318  37.805  31.364  11.638
 3719W        W74319  11.314   9.790   1.995
 3720W        W74320  15.748  24.412  11.060
 3721W        W74321  10.224   3.241  11.099
 3722W        W74322  23.456   9.081   1.849
 3723W        W74323  36.835  25.724   3.694
 3724W        W74324   3.767  17.546  12.133
 3725W        W74325   4.749   1.908   9.933
 3726W        W74326  25.462  25.508   0.917
 3727W        W74327   9.175   1.843   1.852
 3728W        W74328  37.710  42.534   2.224
 3729W        W74329  20.641  35.312   2.775
 3730W        W74330  43.947  10.158  14.738
 3731W        W74331  31.081  11.850   4.999
 3732W        W74332  26.748  33.114  11.012
 3733W        W74333   3.365  14.114   2.646
 3734W        W74334  30.353   2.964  12.108
 3735W        W74335   6.929  10.090   3.659
 3736W        W74336   8.921  14.705  12.773
 3737W        W74337   9.970  24.596   3.319
 3738W        W74338  10.472  26.758   3.397
 3739W        W74339   5.181  28.636  13.046
 3740W        W74340  22.166   8.350   0.648
 3741W        W74341  14.371  30.552   4.047
 3742W        W74342  39.950  22.745   1.454
 3743W        W74343  35.160  28.183  11.233
 3744W        W74344  44.492   0.497  11.479
 3745W        W74345  20.653  40.650  12.539
 3746W        W74346  25.724  30.943   0.714
 3747W        W74347  26.096  12.291   0.385
 3748W        W74348  21.070  44.079   0.884
 3749W        W74349   2.787  12.480   3.217
 3750W        W74350  34.470   6.197  14.745
 3751W        W74351  37.446  22.514   1.282
 3752W        W74352  10.176  29.059   1.953
 3753W        W74353  13.271  39.450  10.643
 3754W        W74354  12.706  18.905   2.389
 3755W        W74355   4.714  30.564  11.153
 3756W        W74356   8.692  40.481   2.227
 3757W        W74357   7.376  18.468  13.000
 3758W        W74358  23.113  19.818  11.557
 3759W        W74359  28.086  29.504  12.532
 3760W        W74360  33.539  14.367  12.955
 3761W        W74361  33.832  43.875  10.711
 3762W        W74362  31.109  16.038   5.102
 3763W        W74363  31.131  43.042   1.388
 3764W        W74364  41.823  29.697  11.157
 3765W        W74365  17.809   1.617   3.690
 3766W        W74366  32.573   7.967  14.850
 3767W        W74367  19.668  13.798   2.881
 3768W        W74368  39.462  22.836  14.810
 3769W        W74369  17.804  18.575  13.949
 3770W        W74370  41.488   3.075   9.802
 3771W        W74371  25.612  17.199  14.389
 3772W        W74372   0.449  34.919   0.881
 3773W        W74373  11.570  23.213  14.931
 3774W        W74374  33.033   7.808  14.307
 3775W        W74375  15.676   3.211  14.384
 3776W        W74376   5.834  11.753   1.218
 3777W        W74377  29.683  12.119  10.956
 3778W        W74378  23.967  23.974   0.814
 3779W        W74379  15.741   8.319   1.102
 3780W        W74380  11.193   7.394  11.405
 3781W        W74381  28.436  22.574  12.375
 3782W        W74382  33.958  21.234  14.758
 3783W        W74383  14.177  14.862  10.123
 3784W        W74384  19.881  26.692  13.877
 3785W        W74385  44.004  29.358   0.893
 3786W        W74386  10.871  25.770   0.748
 3787W        W74387   0.504  21.266   4.568
 3788W        W74388  23.581   4.931  12.949
 3789W        W74389  31.970  28.712  12.575
 3790W        W74390   6.184  44.399  14.099
 3791W        W74391  39.738  43.945  13.496
 3792W        W74392  29.969  14.667  11.751
 3793W        W74393  31.591  37.444  14.357
 3794W        W74394  18.255  10.662   4.449
 3795W        W74395  20.258  28.145   1.965
 3796W        W74396  27.669  13.903   3.240
 3797W        W74397  44.888   3.999  11.528
 3798W        W74398   4.360  34.242  13.377
 3799W        W74399  36.273  17.980   4.084
 3800W        W74400  14.490  27.963  13.424
 3801W        W74401  34.571  15.339   3.218
 3802W        W74402   3.834  42.530   1.761
 3803W        W74403  42.781  26.978  12.375
 3804W        W74404  15.102  39.902  14.911
 3805W        W74405  26.412  28.121  10.457
 3806W        W74406  29.673  13.614  12.997
 3807W        W74407  26.892   6.141   1.256
 3808W        W74408   6.606  15.815   1.691
 3809W        W74409   1.877  37.459  12.572
 3810W        W74410  36.505  14.428   5.200
 3811W        W74411   1.423  24.661   2.037
 3812W        W74412   4.008  12.304   3.849
 3813W        W74413  18.160  34.848  14.425
 3814W        W74414  22.807  39.680   0.806
 3815W        W74415  37.815  31.167  10.720
 3816W        W74416   2.910  16.307   4.567
 3817W        W74417  17.512   6.787  13.693
 3818W        W74418  12.747   6.629   3.768
 3819W        W74419  23.152  17.761  11.191
 3820W        W74420  37.524  35.641   3.387
 3821W        W74421  44.584  29.629   2.629
 3822W        W74422  26.164   2.566  13.356
 3823W        W74423  30.916  15.714  14.086
 3824W        W74424   3.857  21.975  13.461
 3825W        W74425  37.630   5.750   2.866
 3826W        W74426  39.955   3.958  10.682
 3827W        W74427  44.625  19.963   1.271
 3828W        W74428  35.963  35.541  10.813
 3829W        W74429  13.203  10.271   1.914
 3830W        W74430   1.610  28.944  13.089
 3831W        W74431  42.948   7.784  12.867
 3832W        W74432  30.986  22.753   2.319
 3833W        W74433   0.342  14.750   4.323
 3834W        W74434  41.415  25.164   2.647
 3835W        W74435  22.789  21.384  14.835
 3836W        W74436  13.793  20.801   3.290
 3837W        W74437  15.929  17.089  10.592
 3838W        W74438   1.420  37.141   2.517
 3839W        W74439  15.478  37.032  14.311
 3840W        W74440   2.582   8.209   2.850
 3841W        W74441   1.415  17.057  10.559
 3842W        W74442  41.541  18.790   2.765
 3843W        W74443   2.006   2.658  14.338
 3844W        W74444   5.619  12.633   1.280
 3845W        W74445  38.904  36.346   3.989
 3846W        W74446  26.528  34.421  10.441
 3847W        W74447  27.438  23.948  12.045
 3848W        W74448  31.590  34.929   4.132
 3849W        W74449  13.588   7.411   1.833
 3850W        W74450   9.837  22.618   4.452
 3851W        W74451   5.596  41.405  14.260
 3852W        W74452   0.526  19.323   0.191
 3853W        W74453  35.710   4.848   1.271
 3854W        W74454   7.900   1.847   1.396
 3855W        W74455  30.688   3.731  11.133
 3856W        W74456  43.396  28.515   3.628
 3857W        W74457   6.246  44.816   2.044
 3858W        W74458  16.835  18.733  12.384
 3859W        W74459  14.681  13.765   0.863
 3860W        W74460  29.895  15.217   0.397
 3861W        W74461  18.298  25.547   4.657
 3862W        W74462  21.697  41.540   4.591
 3863W        W74463  30.662  36.275   3.446
 3864W        W74464  10.650   6.070  14.471
 3865W        W74465  16.113  44.604   0.910
 3866W        W74466  25.738  14.179   2.312
 3867W        W74467  10.595  23.034  13.379
 3868W        W74468   3.460   7.483  14.145
 3869W        W74469  32.095  22.094  12.054
 3870W        W74470  37.747   3.887  13.057
 3871W        W74471  10.115  27.406   0.566
 3872W        W74472  18.624  34.906   3.564
 3873W        W74473  24.179  30.171   3.548
 3874W        W74474  31.059   2.390  13.623
 3875W        W74475  14.385   7.918   4.560
 3876W        W74476   1.489  20.552  14.739
 3877W        W74477  27.911  13.138   2.951
 3878W        W74478   4.897  31.212   2.208
 3879W        W74479  18.883  41.277   1.363
 3880W        W74480  17.739  42.744  14.922
 3881W        W74481  17.566  41.570   4.831
 3882W        W74482  43.252  10.267  11.940
 3883W        W74483  30.090  35.428  13.042
 3884W        W74484  36.149  25.064  14.465
 3885W        W74485   8.146  21.953   2.567
 3886W        W74486  40.352  44.858   0.804
 3887W        W74487  16.453  12.233  13.812
 3888W        W74488  31.090   1.587   1.542
 3889W        W74489  34.082  21.965   2.269
 3890W        W74490  16.850   8.741  10.850
 3891W        W74491  39.098   3.041  12.414
 3892W        W74492   2.353  42.783  11.056
 3893W        W74493   6.669   4.990  12.036
 3894W        W74494  32.160  10.672  11.895
 3895W        W74495  20.275   6.156   4.202
 3896W        W74496  13.243   8.393   1.728
 3897W        W74497  20.697  18.829   4.700
 3898W        W74498   7.198  18.040   2.332
 3899W        W74499  38.411   8.298  11.453
 3900W        W74500  30.380  40.956   1.797
 3901W        W74501  42.882  42.533   3.823
 3902W        W74502   1.864  40.957   1.043
 3903W        W74503  40.300   9.273   3.431
 3904W        W74504  25.963  19.149   1.350
 3905W        W74505  27.912  25.624   3.407
 3906W        W74506  28.661  28.141   2.808
 3907W        W74507  25.426   2.450  10.451
 3908W        W74508  23.216  41.593  14.275
 3909W        W74509  23.056  19.935  12.992
 3910W        W74510  25.492   7.469   3.869
 3911W        W74511   0.244  12.108   3.120
 3912W        W74512  27.174  10.760   2.093
 3913W        W74513  32.967  41.229   5.072
 3914W        W74514  10.354  36.951  11.588
 3915W        W74515  44.150   7.044   2.238
 3916W        W74516  35.609  40.539   2.828
 3917W        W74517  18.165   4.390  10.548
 3918W        W74518  10.734  11.933   3.282
 3919W        W74519  27.982   2.565  13.545
 3920W        W74520  24.110  16.332   2.743
 3921W        W74521  30.741  15.512   2.377
 3922W        W74522  34.373  26.787   3.262
 3923W        W74523  32.646   6.323  10.629
 3924W        W74524   3.533  35.379  11.589
 3925W        W74525  34.226  39.926   2.647
 3926W        W74526   8.667  13.464  13.984
 3927W        W74527  33.061  21.651   1.238
 3928W        W74528  40.299  35.100  11.518
 3929W        W74529  12.245   5.091   4.551
 3930W        W74530   3.181  34.875  12.925
 3931W        W74531  24.241  36.702   1.349
 3932W        W74532  28.963   4.618  12.903
 3933W        W74533   6.670  43.966  11.545
 3934W        W74534  11.714  14.874  14.700
 3935W        W74535  39.772  27.020   3.735
 3936W        W74536  21.277  35.367   0.454
 3937W        W74537   6.198  17.619   4.150
 3938W        W74538  29.668  34.854   0.041
 3939W        W74539  21.684  33.934  12.925
 3940W        W74540  15.351  35.871   2.207
 3941W        W74541  30.205  21.269   2.317
 3942W        W74542  39.767  33.047   3.609
 3943W        W74543   4.702   4.790   1.832
 3944W        W74544  14.515  34.023   3.072
 3945W        W74545  39.410  43.788   4.553
 3946W        W74546   0.299  32.874   0.921
 3947W        W74547  19.864  38.784   3.213
 3948W        W74548  10.794   0.101   3.190
 3949W        W74549  28.984   9.373   1.422
 3950W        W74550  12.088  26.075   0.129
 3951W        W74551  13.149   3.462  12.534
 3952W        W74552  32.341  20.013   3.703
 3953W        W74553  15.428  20.143  12.016
 3954W        W74554  16.037  12.033  11.200
 3955W        W74555  34.516  37.004  14.866
 3956W        W74556  13.699  43.226   1.844
 3957W        W74557  12.278   7.445   0.430
 3958W        W74558  28.673  31.203  12.379
 3959W        W74559  20.631  39.070  14.775
 3960W        W74560  33.834  26.788   9.904
 3961W        W74561  10.208  14.893  10.613
 3962W        W74562   3.605  24.689   4.633
 3963W        W74563  32.970  41.028  11.641
 3964W        W74564  16.190   5.340  14.938
 3965W        W74565  12.174   5.382  10.664
 3966W        W74566  17.153  11.789  11.646
 3967W        W74567  34.520  12.623   3.292
 3968W        W74568  25.384  24.045   3.385
 3969W        W74569   5.930  20.674  14.291
 3970W        W74570   3.740   4.905   1.717
 3971W        W74571   9.655  17.755  12.635
 3972W        W74572   0.736  27.608   0.459
 3973W        W74573  22.185  16.284  12.573
 3974W        W74574  40.486  26.478  12.498
 3975W        W74575  29.186  33.973   0.329
 3976W        W74576  27.563   2.771  10.898
 3977W        W74577  20.746  26.382   9.976
 3978W        W74578   8.055  26.160   2.781
 3979W        W74579  35.420   4.732   3.643
 3980W        W74580  36.700   0.708   9.745
 3981W        W74581  31.007   1.406   0.538
 3982W        W74582  22.452  18.040  11.595
 3983W        W74583   0.681  38.869  11.079
 3984W        W74584  17.320  21.630   2.358
 3985W        W74585  20.611  41.387   0.808
 3986W        W74586  22.266  33.931  14.793
 3987W        W74587  17.271   0.524  13.576
 3988W        W74588  31.645  35.361  11.608
 3989W        W74589  29.581  13.911  13.853
 3990W        W74590  43.480  41.696  11.256
 3991W        W74591  30.384  12.748  13.421
 3992W        W74592  42.400   2.869   0.646
 3993W        W74593  23.038   0.021   1.366
 3994W        W74594   6.428  14.125  11.183
 3995W        W74595  41.102  28.134   0.819
 3996W        W74596  28.355  41.525   1.000
 3997W        W74597  30.910  34.391   1.849
 3998W        W74598  14.820  40.350   4.580
 3999W        W74599  41.843  40.405  14.496
 4000W        W74600  15.802  15.067   3.158
 4001W        W74601   7.142  27.096   2.295
 4002W        W74602  40.060  31.585   0.481
 4003W        W74603  14.420  13.699  14.228
 4004W        W74604  38.035   4.600  13.393
 4005W        W74605  36.276  13.357   0.026
 4006W        W74606  40.189   2.942   3.729
 4007W        W74607  15.046  22.576   1.995
 4008W        W74608  13.347   2.271   2.906
 4009W        W74609  41.818  34.314  13.897
 4010W        W74610  20.262  24.606   0.822
 4011W        W74611  13.941  41.333   2.023
 4012W        W74612  44.345   8.707  14.872
 4013W        W74613  38.408  22.435  13.263
 4014W        W74614  35.956   8.395   1.792
 4015W        W74615  18.528   8.718   0.422
 4016W        W74616  12.904  34.435   4.955
 4017W        W74617  38.751  44.151   4.137
 4018W        W74618  42.683  11.345   0.326
 4019W        W74619  12.756  17.588   1.876
 4020W        W74620  30.022  11.311   0.004
 4021W        W74621  29.054  30.394   0.761
 4022W        W74622  29.899  13.732  13.468
 4023W        W74623  33.395  30.612  12.871
 4024W        W74624  32.505  42.377  13.064
 4025W        W74625  13.049  25.792   2.701
 4026W        W74626  23.851  21.433   0.453
 4027W        W74627  19.791  14.018   4.209
 4028W        W74628  11.852  32.461   2.444
 4029W        W74629  18.540  36.933   2.501
 4030W        W74630  36.270  23.628  10.226
 4031W        W74631  27.772  10.775  14.404
 4032W        W74632   0.932   9.591   4.899
 4033W        W74633  41.761  35.662   3.684
 4034W        W74634  41.405  27.699  10.625
 4035W        W74635  15.361  23.030   1.935
 4036W        W74636  20.233  37.897  14.642
 4037W        W74637  15.314  12.411  13.465
 4038W        W74638  14.500   8.083   4.048
 4039W        W74639   9.416  26.561   0.714
 4040W        W74640  41.984  10.558   1.815
 4041W        W74641  37.759  22.357   2.857
 4042W        W74642   6.690  29.128   3.316
 4043W        W74643   9.941  29.510  14.708
 4044W        W74644  29.952  12.562  11.112
 4045W        W74645   1.452   2.949   4.201
 4046W        W74646  14.522  12.357   1.806
 4047W        W74647  44.066  23.940   0.430
 4048W        W74648  31.680  24.068  12.034
 4049W        W74649  20.339   7.002   2.130
 4050W        W74650   5.182   6.007   2.927
 4051W        W74651  36.615  44.899  12.844
 4052W        W74652  15.122  31.823  11.147
 4053W        W74653  25.128  31.572   4.886
 4054W        W74654  37.387  43.293   1.865
 4055W        W74655  13.318  14.154  12.985
 4056W        W74656  37.856  26.079  10.905
 4057W        W74657  11.152  19.828  14.874
 4058W        W74658  26.125  36.615  10.458
 4059W        W74659  31.522  34.385  11.245
 4060W        W74660   8.888  43.420  13.412
 4061W        W74661   4.794  33.631  14.052
 4062W        W74662   9.679  19.580  10.932
 4063W        W74663  43.690  23.153  14.774
 4064W        W74664  23.026   0.627  12.944
 4065W        W74665   8.827  25.546   2.142
 4066W        W74666  25.245  42.816   1.197
 4067W        W74667  11.839   8.266  10.637
 4068W        W74668  25.960   9.774  12.091
 4069W        W74669  36.686  18.787  14.366
 4070W        W74670   5.345  31.698   2.868
 4071W        W74671   1.522  39.084   3.708
 4072W        W74672  16.830  31.535  10.529
 4073W        W74673  27.206   6.820  14.033
 4074W        W74674  31.483   5.535   2.313
 4075W        W74675   1.936  13.721  10.750
 4076W        W74676  26.156   2.571   3.273
 4077W        W74677  14.053  26.218  13.976
 4078W        W74678  26.756  43.885  13.006
 4079W        W74679  43.449  17.040   3.655
 4080W        W74680  18.441  38.396   3.694
 4081W        W74681  35.091  32.953   3.735
 4082W        W74682  40.528  25.722   0.393
 4083W        W74683  13.022  40.840  14.222
 4084W        W74684  33.910  14.334   3.297
 4085W        W74685  41.446  10.430   1.174
 4086W        W74686  21.974  17.839   0.121
 4087W        W74687  44.950  37.378  11.768
 4088W        W74688  10.187  42.553  14.558
 4089W        W74689  36.504   6.150   4.004
 4090W        W74690  20.502  10.983  10.962
 4091W        W74691  17.737  24.124   4.183
 4092W        W74692  23.958  30.338   2.292
 4093W        W74693  29.744  43.667  14.979
 4094W        W74694  27.390  20.996   3.588
 4095W        W74695   1.367  28.862   1.924
 4096W        W74696  30.893  10.133   1.291
 4097W        W74697  14.419  44.808  11.705
 4098W        W74698  19.793  38.074  12.411
 4099W        W74699  29.947  30.551   3.698
 4100W        W74700  37.515  42.836  14.515
 4101W        W74701  22.562  17.664  13.115
 4102W        W74702  24.143  34.555   0.640
 4103W        W74703  43.898  10.128   3.403
 4104W        W74704  20.085  14.385   2.452
 4105W        W74705  19.975  12.387   1.933
 4106W        W74706  28.457  34.111  13.960
 4107W        W74707  17.048  25.844   2.758
 4108W        W74708  12.618  17.898   1.389
 4109W        W74709   4.740  14.779  11.010
 4110W        W74710   3.213  33.186  13.345
 4111W        W74711  22.528  17.784   3.629
 4112W        W74712  36.411  21.861  13.092
 4113W        W74713  34.292  14.849   2.339
 4114W        W74714  22.222  10.676  12.146
 4115W        W74715  23.167  35.596   2.303
 4116W        W74716  40.976  35.795   1.773
 4117W        W74717  44.523  17.334  13.878
 4118W        W74718  18.608   0.787  12.450
 4119W        W74719  11.603  24.168   2.410
 4120W        W74720   9.738  42.435   2.278
 4121W        W74721  33.063  10.405  11.975
 4122W        W74722   6.946   9.817   2.827
 4123W        W74723  14.416  31.159   4.688
 4124W        W74724   0.766  24.216  14.430
 4125W        W74725  31.083  23.998   2.737
 4126W        W74726  41.420  17.656  13.438
 4127W        W74727  11.682   1.867   1.025
 4128W        W74728  22.972  15.177  11.558
 4129W        W74729  33.583   6.640   1.436
 4130W        W74730  43.194  42.109  12.994
 4131W        W74731  21.073   9.914  13.409
 4132W        W74732  10.946   3.829   3.163
 4133W        W74733  44.231   3.890   3.806
 4134W        W74734  13.542  41.226   4.575
 4135W        W74735  33.848  10.747  14.412
 4136W        W74736  28.991  14.424  10.648
 4137W        W74737   8.796  40.478  14.634
 4138W        W74738  17.652   7.811  12.084
 4139W        W74739  26.176  40.508   1.776
 4140W        W74740  22.390  29.503  11.946
 4141W        W74741   0.024  26.729  14.430
 4142W        W74742  15.132  20.443   0.647
 4143W        W74743  12.170  38.120  11.585
 4144W        W74744  36.516  43.825   2.152
 4145W        W74745  37.148  30.039  12.686
 4146W        W74746  32.719  13.739  13.900
 4147W        W74747  14.763  33.003   3.782
 4148W        W74748  22.030  27.413   0.326
 4149W        W74749  26.676   6.886   3.700
 4150W        W74750  37.541  20.451   3.835
 4151W        W74751  29.115  30.033   1.686
 4152W        W74752  21.319  11.883  14.966
 4153W        W74753  31.884  30.845  13.950
 4154W        W74754   5.229  26.946   0.150
 4155W        W74755  40.072  32.390   4.783
 4156W        W74756  10.303  32.971   3.681
 4157W        W74757  23.916   3.180   3.515
 4158W        W74758  14.904  31.614   1.769
 4159W        W74759   1.852  11.373  12.005
 4160W        W74760  41.276  28.007   4.560
 4161W        W74761  33.559  10.623   0.677
 4162W        W74762  18.692  29.693  12.420
 4163W        W74763  36.057  33.405   0.194
 4164W        W74764   9.843  44.963  10.541
 4165W        W74765  29.390  21.720  12.563
 4166W        W74766   1.552   6.982  12.013
 4167W        W74767  19.158  44.377   3.082
 4168W        W74768   8.239  17.497   2.342
 4169W        W74769  31.409  26.624   3.631
 4170W        W74770  32.195   4.768   0.493
 4171W        W74771  22.113  32.182   0.768
 4172W        W74772   1.753  25.244  12.930
 4173W        W74773  11.748  11.126   4.877
 4174W        W74774  19.625  43.740   1.422
 4175W        W74775   4.777  27.067  11.469
 4176W        W74776   5.462  32.467   2.445
 4177W        W74777   3.649  31.410  13.955
 4178W        W74778  30.937  16.622  10.247
 4179W        W74779  20.995  14.064   3.394
 4180W        W74780  11.682  27.791   0.488
 4181W        W74781   4.872   3.338   1.313
 4182W        W74782  21.315   0.558  14.951
 4183W        W74783   4.531  35.682  11.401
 4184W        W74784  22.241  35.265  11.112
 4185W        W74785   9.854   5.487  14.029
 4186W        W74786  44.656  39.309  13.995
 4187W        W74787  13.618   8.740  12.152
 4188W        W74788  38.532  21.778  14.297
 4189W        W74789  16.737   0.778  12.247
 4190W        W74790  27.641  13.157  11.050
 4191W        W74791  19.672  23.124  13.652
 4192W        W74792   0.441   9.153   0.656
 4193W        W74793   8.833  22.517   2.385
 4194W        W74794  22.527   5.516  12.568
 4195W        W74795  19.068  43.448  14.399
 4196W        W74796  32.934  11.694   0.346
 4197W        W74797  36.134   9.059   3.702
 4198W        W74798  26.028  38.853  12.156
 4199W        W74799  21.570  15.685   2.745
 4200W        W74800   2.163   4.679  13.428
 4201W        W74801   2.964  29.905  14.268
 4202W        W74802  21.477   0.028   2.304
 4203W        W74803  38.867  39.961   3.333
 4204W        W74804  31.151  27.958   2.867
 4205W        W74805  32.898  11.180  14.518
 4206W        W74806  43.767  26.986   1.283
 4207W        W74807  27.647  30.370   2.397
 4208W        W74808  39.958  44.162  13.929
 4209W        W74809  18.176   3.287   1.183
 4210W        W74810  11.805   0.605  13.340
 4211W        W74811  23.062  43.974  11.965
 4212W        W74812  13.801   9.146  11.896
 4213W        W74813   8.001  34.540  12.487
 4214W        W74814  40.316  14.363   2.193
 4215W        W74815   6.202  12.846  10.698
 4216W        W74816  34.980  35.936   3.371
 4217W        W74817  24.570  16.064  12.967
 4218W        W74818  32.913   3.889  14.258
 4219W        W74819  26.989   3.054   3.102
 4220W        W74820   4.130  14.070   5.020
 4221W        W74821   9.567   4.620   3.656
 4222W        W74822  31.252  33.392  12.841
 4223W        W74823  26.465  37.065   3.915
 4224W        W74824  31.580  17.033  14.399
 4225W        W74825  39.145  34.088   1.999
 4226W        W74826  29.374  33.339   9.928
 4227W        W74827   1.324  11.805  10.993
 4228W        W74828  17.649  29.841   1.926
 4229W        W74829   0.867  39.986   2.817
 4230W        W74830   2.511  26.060  12.640
 4231W        W74831  20.590  37.527  10.731
 4232W        W74832  43.699  21.633  12.574
 4233W        W74833  18.602  30.512  12.896
 4234W        W74834  39.388   3.354  13.391
 4235W        W74835  14.848  25.672  13.980
 4236W        W74836  27.118  17.727   0.906
 4237W        W74837  38.849  13.827  11.012
 4238W        W74838  40.701  11.412  14.331
 4239W        W74839  27.207   4.485  11.421
 4240W        W74840  15.156   3.185   3.589
 4241W        W74841  22.686   6.900   2.432
 4242W        W74842  32.579  35.999   3.669
 4243W        W74843  17.566  30.990  10.643
 4244W        W74844  14.132   4.589  10.316
 4245W        W74845  26.256   7.367  11.350
 4246W        W74846  24.033  22.772   1.394
 4247W        W74847  25.341  28.152   1.380
 4248W        W74848  10.084   1.901   3.372
 4249W        W74849  15.347   9.908   2.808
 4250W        W74850  32.366   4.570   1.826
 4251W        W74851  12.434  15.320   4.974
 4252W        W74852  31.056  10.308  13.873
 4253W        W74853   5.649   6.889  12.464
 4254W        W74854  41.066   2.854   4.185
 4255W        W74855   1.804  17.064   0.385
 4256W        W74856  28.521  41.729  10.430
 4257W        W74857  26.144  33.183   0.796
 4258W        W74858   9.239  41.602  10.411
 4259W        W74859  12.028  18.374   1.296
 4260W        W74860  23.179  22.278   4.261
 4261W        W74861  12.805   3.413   1.847
 4262W        W74862   8.927  15.601   1.718
 4263W        W74863  42.797  31.857  12.183
 4264W        W74864  20.833  34.154   2.290
 4265W        W74865  15.553  42.966   1.530
 4266W        W74866  29.830   2.420  12.621
 4267W        W74867  29.440   3.891  14.954
 4268W        W74868  35.436  16.725  14.401
 4269W        W74869  41.380  38.444  10.606
 4270W        W74870  25.056   5.686  13.539
 4271W        W74871  37.617   4.907  14.313
 4272W        W74872   0.809  39.125  12.426
 4273W        W74873  13.930  23.572   3.280
 4274W        W74874  23.533   3.175   0.258
 4275W        W74875   7.332   1.742  12.015
 4276W        W74876  40.878  23.713  11.226
 4277W        W74877   1.488   2.813  12.414
 4278W        W74878  11.703   6.369  13.985
 4279W        W74879  39.609  28.930  12.671
 4280W        W74880  13.093   5.167  12.098
 4281W        W74881  30.810  43.512  13.713
 4282W        W74882  26.021   7.826   1.742
 4283W        W74883  34.321  42.186  12.049
 4284W        W74884   3.020   6.814  14.526
 4285W        W74885  22.160  40.589   4.219
 4286W        W74886  30.462  38.291   0.910
 4287W        W74887   6.928  16.720   3.742
 4288W        W74888  14.647   0.713  10.767
 4289W        W74889  34.506  44.496   4.177
 4290W        W74890  44.519  42.488  10.438
 4291W        W74891  27.073  37.984   2.608
 4292W        W74892  30.249  25.809  12.641
 4293W        W74893   3.371  28.964   1.676
 4294W        W74894  32.814  27.140   4.391
 4295W        W74895   8.667   9.424  10.790
 4296W        W74896  11.575  12.033  11.063
 4297W        W74897  20.890  21.284   0.088
 4298W        W74898  15.192  32.796  10.557
 4299W        W74899   6.328  37.340   0.202
 4300W        W74900  20.930  32.410  13.035
 4301W        W74901  37.821  19.543  14.144
 4302W        W74902  19.955  31.058  11.878
 4303W        W74903  34.338   2.255   0.874
 4304W        W74904  33.633   3.171   3.374
 4305W        W74905   5.289  35.932   2.837
 4306W        W74906   8.253  17.248  12.636
 4307W        W74907  29.166  32.569  12.778
 4308W        W74908  31.216  27.695   0.416
 4309W        W74909  17.026  29.207   1.416
 4310W        W74910  36.122  23.024  14.969
 4311W        W74911   0.801  38.912   3.206
 4312W        W74912  19.963  31.133   1.740
 4313W        W74913  40.753  39.372  14.691
 4314W        W74914  17.317  29.905   2.332
 4315W        W74915  15.437  16.537   1.570
 4316W        W74916  25.957  43.726  11.589
 4317W        W74917  40.340  34.643  14.629
 4318W        W74918   3.362  14.038  11.070
 4319W        W74919  14.160  28.698   1.047
 4320W        W74920  18.093  20.234  10.842
 4321W        W74921  21.531  39.531   4.448
 4322W        W74922  18.606  42.901  13.433
 4323W        W74923  25.535  23.895   2.285
 4324W        W74924  44.072   9.683   3.233
 4325W        W74925  42.521  39.839  14.141
 4326W        W74926  28.679  22.345  11.888
 4327W        W74927  31.313   9.793  12.500
 4328W        W74928   1.040  13.182   0.912
 4329W        W74929  12.213  34.187  11.760
 4330W        W74930   5.255  44.424  11.643
 4331W        W74931  24.041  21.682  13.616
 4332W        W74932  19.825  10.352   2.663
 4333W        W74933  14.523   5.268   0.275
 4334W        W74934   7.832  17.140   2.314
 4335W        W74935  43.954  40.317   0.632
 4336W        W74936   8.576  30.445   4.737
 4337W        W74937  22.875  18.823   4.467
 4338W        W74938  36.945  24.452  10.922
 4339W        W74939  19.132  42.231  14.630
 4340W        W74940  12.096   7.661   0.942
 4341W        W74941  29.121  16.307  13.459
 4342W        W74942  42.877  21.522  11.489
 4343W        W74943  29.103  33.592   2.003
 4344W        W74944  30.134  26.632   1.129
 4345W        W74945  11.556  33.838  13.643
 4346W        W74946  38.851  33.170   4.322
 4347W        W74947   2.691  39.833  13.789
 4348W        W74948  27.558  31.426  13.980
 4349W        W74949  31.208  24.306  10.255
 4350W        W74950  20.602   5.928  10.602
 4351W        W74951  10.163  11.353  14.805
 4352W        W74952   3.257  16.703   2.716
 4353W        W74953  11.339   0.020  12.903
 4354W        W74954  19.961   3.493  12.558
 4355W        W74955   7.821  35.470  11.790
 4356W        W74956  44.845  12.737   4.635
 4357W        W74957  13.045  27.955   2.641
 4358W        W74958   5.818  22.176  11.301
 4359W        W74959   3.899   5.974   3.866
 4360W        W74960  23.606  38.081  11.307
 4361W        W74961   2.431  37.312  13.985
 4362W        W74962   8.875  21.180  10.944
 4363W        W74963  10.509   5.208  13.358
 4364W        W74964  21.285  35.771   4.110
 4365W        W74965  14.975   9.683  12.192
 4366W        W74966   2.313  19.553  12.871
 4367W        W74967   7.486   1.865   4.587
 4368W        W74968  42.101  21.711   1.258
 4369W        W74969  24.551  40.342   3.067
 4370W        W74970  35.662   2.692   2.981
 4371W        W74971  20.136  15.380   4.920
 4372W        W74972   8.903   8.411  13.960
 4373W        W74973  13.279  33.483  13.867
 4374W        W74974  18.563   4.459  12.872
 4375W        W74975   7.070   2.913   1.898
 4376W        W74976   5.380  11.143   2.230
 4377W        W74977   0.455   7.257  11.078
 4378W        W74978  11.989  28.908   0.001
 4379W        W74979  40.481  32.811   0.914
 4380W        W74980  14.873  21.523   9.949
 4381W        W74981   2.501   6.650  13.871
 4382W        W74982  44.494  43.160   0.859
 4383W        W74983  40.984  14.800  13.301
 4384W        W74984   6.615  14.790  14.748
 4385W        W74985   0.379  11.795  11.002
 4386W        W74986  13.639   1.427  14.599
 4387W        W74987  35.174  39.821  12.099
 4388W        W74988  21.132  28.746  14.982
 4389W        W74989   5.648  16.759   3.109
 4390W        W74990  23.282  38.792  12.709
 4391W        W74991  40.864   0.211   1.737
 4392W        W74992  42.401  25.162   3.093
 4393W        W74993  15.587   5.702  13.126
 4394W        W74994  38.971   8.808  11.172
 4395W        W74995  31.908  12.733  10.570
 4396W        W74996   5.954  39.320  11.130
 4397W        W74997   0.982  13.678   3.272
 4398W        W74998  31.036  16.644   4.910
 4399W        W74999  30.896  15.707   0.535
 4400W        W75000  18.154   2.978  11.983
 4401W        W75001  43.021  23.502   1.835
 4402W        W75002  14.656   7.399  10.313
 4403W        W75003  44.541  33.049  14.893
 4404W        W75004  20.676  24.934   1.710
 4405W        W75005  44.026  34.004   4.046
 4406W        W75006  14.261  14.325  13.268
 4407W        W75007  36.427  22.080  11.893
 4408W        W75008  16.334  15.155   2.822
 4409W        W75009   0.316  21.076   3.614
 4410W        W75010   2.905  12.811  11.283
 4411W        W75011  22.980  15.404   2.725
 4412W        W75012   0.964  41.567  14.595
 4413W        W75013  34.455  35.993   1.240
 4414W        W75014  40.937  26.249  12.454
 4415W        W75015  36.513  10.281   2.785
 4416W        W75016  40.471  39.554   0.918
 4417W        W75017  30.635  39.519   3.675
 4418W        W75018  42.969  14.529   2.320
 4419W        W75019  12.604  39.578  11.863
 4420W        W75020  40.526  35.838  11.932
 4421W        W75021  34.873  19.623   0.397
 4422W        W75022   1.771  23.615   1.842
 4423W        W75023   6.423  25.184   0.024
 4424W        W75024   3.028  40.564   1.695
 4425W        W75025  38.552  25.536   1.890
 4426W        W75026  14.662   7.638   3.247
 4427W        W75027  37.492  16.700   4.841
 4428W        W75028  26.163  38.109   0.202
 4429W        W75029   7.453  37.589  12.061
 4430W        W75030   5.708  10.267   2.130
 4431W        W75031  16.485  23.042  12.495
 4432W        W75032  18.779  16.015  10.726
 4433W        W75033  29.510  22.896   1.653
 4434W        W75034  43.746  37.371   4.471
 4435W        W75035  38.005  16.377   1.774
 4436W        W75036  34.979  20.496   0.427
 4437W        W75037  19.074  13.298  10.592
 4438W        W75038  41.948  14.761   1.536
 4439W        W75039  15.553  41.207   0.868
 4440W        W75040  28.595  36.282  12.072
 4441W        W75041  10.265   2.199  12.692
 4442W        W75042   5.442  13.744   3.116
 4443W        W75043  28.618  24.553   2.531
 4444W        W75044  41.565  41.067  12.928
 4445W        W75045  18.521   9.992  11.020
 4446W        W75046   9.513  20.225  12.898
 4447W        W75047  27.958  23.297   2.693
 4448W        W75048  20.671   7.192  11.533
 4449W        W75049  36.285  38.112   0.001
 4450W        W75050  40.863  29.000   2.408
 4451W        W75051  44.036  31.942   0.427
 4452W        W75052  35.075  12.206   4.550
 4453W        W75053   7.787  18.164  10.470
 4454W        W75054   9.200  28.456   1.205
 4455W        W75055   0.263  23.070  13.613
 4456W        W75056  40.747   9.367   2.654
 4457W        W75057  22.112  22.104   1.439
 4458W        W75058  37.977  44.736   2.889
 4459W        W75059  35.183  44.158  10.897
 4460W        W75060  13.629  40.436   0.867
 4461W        W75061   4.448  19.169  12.896
 4462W        W75062  23.207  17.209  14.755
 4463W        W75063  29.538  28.612   4.458
 4464W        W75064   1.422  41.995   0.737
 4465W        W75065  25.615  31.684  10.387
 4466W        W75066   2.840  17.828  12.095
 4467W        W75067  36.308  19.482  13.944
 4468W        W75068  34.180  25.801   0.558
 4469W        W75069   9.687  13.796  12.409
 4470W        W75070  13.161  23.299  11.710
 4471W        W75071  26.527  42.065   2.114
 4472W        W75072  41.554  29.619   1.089
 4473W        W75073  20.973  31.075   1.494
 4474W        W75074  18.848  43.897  12.069
 4475W        W75075  37.758   8.592  14.847
 4476W        W75076  10.614  30.938   2.312
 4477W        W75077   0.464  36.194   2.201
 4478W        W75078  28.642   7.858  14.793
 4479W        W75079  20.776  25.106   2.797
 4480W        W75080  43.422  33.187   2.379
 4481W        W75081  20.199   0.902   3.248
 4482W        W75082  29.332  27.576   3.743
 4483W        W75083   8.101  18.591   3.220
 4484W        W75084  10.142  26.688   0.332
 4485W        W75085  34.454  13.710   3.280
 4486W        W75086  16.116  14.108  14.060
 4487W        W75087  22.793  17.160  12.515
 4488W        W75088  25.624   9.273  11.615
 4489W        W75089  15.775  16.340  11.430
 4490W        W75090  21.148  38.647  14.358
 4491W        W75091   8.951  24.345  12.468
 4492W        W75092  33.496  26.585   1.766
 4493W        W75093  42.269  36.918   3.747
 4494W        W75094  17.847   3.268   2.734
 4495W        W75095  22.752   1.293   2.449
 4496W        W75096  34.255   5.868   1.188
 4497W        W75097  30.894  14.576  12.551
 4498W        W75098  15.748  16.725   3.737
 4499W        W75099  25.632   4.328  13.393
 4500W        W75100   5.652  17.839  13.513
 4501W        W75101  26.590  30.704  12.541
 4502W        W75102  44.145  11.296   4.087
 4503W        W75103  13.383  28.905  12.521
 4504W        W75104  25.700  28.385   2.782
 4505W        W75105   5.003  14.152  10.316
 4506W        W75106  36.007  35.895   2.777
 4507W        W75107  10.140  32.573   0.902
 4508W        W75108  34.086  44.794  11.576
 4509W        W75109  38.988  34.132  12.464
 4510W        W75110   8.289   8.147  10.843
 4511W        W75111   0.083   2.723   1.946
 4512W        W75112  33.935  36.763   4.530
 4513W        W75113  30.879  21.729   3.829
 4514W        W75114  24.445  37.464   4.700
 4515W        W75115  12.249  39.146   1.444
 4516W        W75116  13.691  34.929  11.571
 4517W        W75117   0.370  38.047   4.358
 4518W        W75118  44.810  27.553   4.709
 4519W        W75119  43.252  34.984  14.780
 4520W        W75120  20.586   7.338   1.832
 4521W        W75121   7.679  11.757  13.327
 4522W        W75122  25.493  21.257  14.959
 4523W        W75123  36.418   9.378  11.431
 4524W        W75124  43.708   7.366  13.427
 4525W        W75125  15.273  38.548  12.591
 4526W        W75126  16.114  40.891  11.150
 4527W        W75127  43.720  44.529   2.311
 4528W        W75128  29.503  23.487  13.248
 4529W        W75129  22.058  42.293  12.187
 4530W        W75130   9.856  34.837  13.427
 4531W        W75131  35.681   9.033  12.052
 4532W        W75132   6.391  24.938  10.762
 4533W        W75133   8.878  13.823  12.989
 4534W        W75134  19.924   0.498  14.775
 4535W        W75135  18.783   3.185   3.694
 4536W        W75136   3.956  14.098  10.041
 4537W        W75137  27.211  43.957   4.135
 4538W        W75138  24.258   1.176  11.420
 4539W        W75139  42.850  11.433  12.803
 4540W        W75140  37.342  16.849   0.389
 4541W        W75141  14.698  26.217  10.483
 4542W        W75142  31.661  11.562  14.318
 4543W        W75143  29.997   5.658   0.849
 4544W        W75144  25.294  13.910   2.444
 4545W        W75145  14.143  30.146  14.222
 4546W        W75146  44.743  37.765   0.792
 4547W        W75147  28.338   2.579  12.548
 4548W        W75148  16.411  44.339   0.406
 4549W        W75149  35.399  22.507   3.720
 4550W        W75150   1.787  30.546   2.078
 4551W        W75151  29.794  33.471   4.775
 4552W        W75152  24.260  34.910   4.218
 4553W        W75153  41.395  33.909  11.620
 4554W        W75154  22.612  34.618   4.345
 4555W        W75155  43.312  42.986   2.732
 4556W        W75156  13.261   0.508  14.001
 4557W        W75157  20.349  28.428  12.779
 4558W        W75158  11.692   8.458   3.616
 4559W        W75159  38.892  30.153   4.776
 4560W        W75160  22.506  34.613  14.909
 4561W        W75161   6.847  10.787   4.350
 4562W        W75162  44.239  33.479   1.762
 4563W        W75163  41.362  20.559   4.167
 4564W        W75164  30.680  28.293   3.979
 4565W        W75165  23.565  12.726  11.597
 4566W        W75166  38.909  42.555   3.129
 4567W        W75167  15.515  42.331  13.624
 4568W        W75168  10.472   9.391   0.687
 4569W        W75169   4.189  33.337   1.741
 4570W        W75170  30.152   1.272   2.774
 4571W        W75171   4.685  39.702   0.292
 4572W        W75172  35.059   1.558  11.490
 4573W        W75173  24.560  19.860   5.113
 4574W        W75174  21.630  22.967  10.959
 4575W        W75175  42.075  16.384   4.221
 4576W        W75176  27.242  19.062  10.683
 4577W        W75177  43.950  42.054  12.561
 4578W        W75178  44.339  22.575  10.908
 4579W        W75179   5.991  34.640   1.663
 4580W        W75180  36.546   1.980   1.806
 4581W        W75181  10.276   5.024   5.034
 4582W        W75182  30.020  42.385  13.577
 4583W        W75183   5.876   4.483   1.271
 4584W        W75184   6.606  40.132  11.768
 4585W        W75185   1.307  15.621  10.294
 4586W        W75186   8.755  30.479   3.376
 4587W        W75187  10.702  29.658  11.186
 4588W        W75188  14.735  31.019   4.272
 4589W        W75189  10.397  23.010   1.631
 4590W        W75190  39.419  40.536   1.461
 4591W        W75191   2.110   8.829   1.824
 4592W        W75192  21.286  34.466  13.548
 4593W        W75193  38.953   8.549  13.563
 4594W        W75194   4.911  14.775   2.386
 4595W        W75195   2.987  19.299  13.322
 4596W        W75196  42.874  44.221   4.099
 4597W        W75197  23.230  19.619  14.507
 4598W        W75198   1.749  17.407  14.126
 4599W        W75199  37.597  33.301  10.841
 4600W        W75200  20.060  43.236   0.793
 4601W        W75201   9.313  41.709  13.047
 4602W        W75202  39.049  29.090   0.371
 4603W        W75203  10.418  12.748  11.072
 4604W        W75204  14.521  16.937   0.467
 4605W        W75205  43.605  22.166  12.471
 4606W        W75206  11.864  26.080   1.329
 4607W        W75207   0.984  19.803  10.332
 4608W        W75208   2.461  12.616  11.127
 4609W        W75209  31.132  14.390   2.882
 4610W        W75210  20.119  36.887  10.322
 4611W        W75211  34.568  16.322   1.717
 4612W        W75212  27.554  11.871   4.886
 4613W        W75213  37.977   4.645   0.994
 4614W        W75214  39.816  28.094   0.381
 4615W        W75215  29.048  25.127  12.527
 4616W        W75216   1.539  44.412   0.048
 4617W        W75217  20.091  24.346  12.502
 4618W        W75218  36.411   7.856   1.242
 4619W        W75219  41.450  39.459   3.198
 4620W        W75220  24.061   3.135   4.001
 4621W        W75221   9.390  27.718   3.587
 4622W        W75222  34.234  39.072   1.529
 4623W        W75223   1.854  14.339  14.405
 4624W        W75224  30.501  29.344  13.385
 4625W        W75225   3.265  39.584   3.198
 4626W        W75226  37.561  22.456   3.807
 4627W        W75227  40.391  11.206  12.909
 4628W        W75228  41.309  44.720  13.008
 4629W        W75229  38.266  41.336   0.746
 4630W        W75230  31.240  27.515   1.424
 4631W        W75231  22.963  29.480   2.258
 4632W        W75232   9.702  17.069  14.411
 4633W        W75233  32.195  40.491   1.719
 4634W        W75234   7.147  32.216   3.665
 4635W        W75235  34.826  17.265  14.879
 4636W        W75236  16.206  40.993  14.716
 4637W        W75237  30.573  43.753  10.655
 4638W        W75238  37.335   7.694  13.041
 4639W        W75239  15.259   4.853   2.762
 4640W        W75240  16.486  31.153   1.056
 4641W        W75241  22.544   4.008  14.736
 4642W        W75242  20.570   2.031   0.928
 4643W        W75243   2.852  38.207   0.277
 4644W        W75244  29.484  37.566   2.203
 4645W        W75245  29.703  14.221  13.447
 4646W        W75246   4.111  16.244  10.376
 4647W        W75247  38.993  27.154   2.307
 4648W        W75248  36.138  42.841  12.880
 4649W        W75249  19.809  34.012  10.970
 4650W        W75250   0.781  15.650  10.319
 4651W        W75251  35.290  40.831  11.076
 4652W        W75252  43.222  37.738  14.661
 4653W        W75253  10.172  14.582  11.143
 4654W        W75254  44.753   7.340  12.899
 4655W        W75255  27.566  22.466   2.157
 4656W        W75256  30.037  32.007   4.652
 4657W        W75257  16.695  28.589  11.306
 4658W        W75258  30.784  38.439   5.210
 4659W        W75259   1.527  30.914  11.205
 4660W        W75260   6.176  27.177  14.147
 4661W        W75261  25.550  11.612   4.586
 4662W        W75262  14.901   8.242  13.470
 4663W        W75263  26.802  23.974   5.207
 4664W        W75264  23.783  26.987   3.672
 4665W        W75265   7.325  27.157  10.717
 4666W        W75266  29.421  44.198  10.255
 4667W        W75267  42.322  18.009   5.412
 4668W        W75268  11.382   7.796   4.103
 4669W        W75269  34.675  19.698   2.872
 4670W        W75270  24.001  43.729  13.550
 4671W        W75271  12.761   0.449  13.300
 4672W        W75272  36.434   0.369  14.751
 4673W        W75273  20.210  28.264  12.043
 4674W        W75274  30.017  18.790  13.107
 4675W        W75275  18.207  15.861   3.305
 4676W        W75276  22.612  33.646   3.413
 4677W        W75277  42.217   2.414  12.978
 4678W        W75278  37.914  34.489   0.862
 4679W        W75279   0.428  35.020   3.172
 4680W        W75280   0.904  27.248  11.165
 4681W        W75281   7.388   6.216  14.223
 4682W        W75282  34.708  28.689   4.537
 4683W        W75283  18.565  18.538   2.365
 4684W        W75284  37.939  28.982   3.203
 4685W        W75285   0.458  37.536  10.932
 4686W        W75286   9.263  13.570   1.247
 4687W        W75287  27.392   7.432  10.733
 4688W        W75288  44.583  13.254  14.080
 4689W        W75289  28.680   6.229   2.786
 4690W        W75290   1.641  23.686  14.246
 4691W        W75291   4.453   9.903  12.562
 4692W        W75292  26.422   0.424  12.160
 4693W        W75293   9.945  27.684   0.997
 4694W        W75294  36.862  33.186  14.547
 4695W        W75295  35.388  24.681  12.431
 4696W        W75296   6.491  19.082  14.771
 4697W        W75297  21.114  21.845  12.870
 4698W        W75298  43.929  17.550   2.986
 4699W        W75299  30.613   7.771  14.347
 4700W        W75300  10.349  22.074   3.188
 4701W        W75301  14.269  10.334   5.041
 4702W        W75302  13.633  20.193   1.622
 4703W        W75303  37.925   0.694   4.507
 4704W        W75304  41.513  30.680  13.844
 4705W        W75305   4.726  15.757   4.759
 4706W        W75306  20.461  25.632  12.562
 4707W        W75307  33.484  17.642   4.653
 4708W        W75308  12.277  28.537  14.323
 4709W        W75309  39.332  22.189  12.035
 4710W        W75310  33.856  12.756   0.939
 4711W        W75311  14.086  31.928   4.044
 4712W        W75312  33.921   3.226  13.184
 4713W        W75313  14.703  40.513   1.434
 4714W        W75314  32.527  34.308  10.815
 4715W        W75315  19.725  24.801  14.996
 4716W        W75316  44.446  39.583  13.008
 4717W        W75317  40.302  11.201  12.100
 4718W        W75318  10.813  33.387  10.285
 4719W        W75319  18.155  14.736  10.637
 4720W        W75320  36.542   5.322   1.748
 4721W        W75321  11.900  26.343   0.880
 4722W        W75322  43.878  31.859   4.175
 4723W        W75323   1.050  15.297  10.618
 4724W        W75324  36.765  43.309   1.094
 4725W        W75325  21.037   0.863   3.445
 4726W        W75326  37.914  14.984  11.266
 4727W        W75327   7.274  29.478  11.384
 4728W        W75328  41.464   0.363  12.389
 4729W        W75329   6.279   2.578  11.643
 4730W        W75330   1.576  32.133  14.028
 4731W        W75331  28.707  14.217  12.405
 4732W        W75332  19.422  20.740   1.412
 4733W        W75333   7.912   0.070   4.239
 4734W        W75334   6.219  15.853  13.455
 4735W        W75335  16.532  24.982  13.342
 4736W        W75336   2.057  17.523   0.276
 4737W        W75337  19.994  43.433  11.598
 4738W        W75338  43.934   4.829   4.016
 4739W        W75339  26.762  32.038  12.706
 4740W        W75340  33.077   1.217  14.809
 4741W        W75341  29.585  19.444   3.477
 4742W        W75342  16.021  17.998  11.500
 4743W        W75343  38.372  22.730  11.595
 4744W        W75344   3.744  29.075   3.436
 4745W        W75345  41.948  10.799  14.505
 4746W        W75346  44.007  20.763   0.311
 4747W        W75347   4.992  27.849   2.247
 4748W        W75348   2.074   7.424   1.404
 4749W        W75349  14.372   2.817  13.512
 4750W        W75350  27.642  38.116  13.909
 4751W        W75351  19.294   8.743  11.543
 4752W        W75352  25.470  34.829   4.508
 4753W        W75353  18.132   3.272   1.692
 4754W        W75354  16.311  32.334  12.088
 4755W        W75355   5.674  44.187  11.862
 4756W        W75356   3.981  16.312   3.170
 4757W        W75357  30.384  38.411   2.854
 4758W        W75358  28.952  22.253  13.586
 4759W        W75359  20.410   8.519  14.333
 4760W        W75360  38.847  35.462   1.743
 4761W        W75361   0.820  38.896   1.749
 4762W        W75362  22.899  39.015   4.487
 4763W        W75363  11.228   8.680   4.940
 4764W        W75364  36.473   7.054   3.914
 4765W        W75365  22.197  26.536   2.676
 4766W        W75366  12.765  12.094   1.529
 4767W        W75367  14.201   6.096  10.623
 4768W        W75368   9.700  19.617  12.939
 4769W        W75369  28.519   0.455   0.968
 4770W        W75370  39.735  23.970   4.388
 4771W        W75371  34.781  43.439  10.622
 4772W        W75372  25.166   4.741   0.278
 4773W        W75373  38.560  30.100   1.563
 4774W        W75374  38.798   1.005  10.153
 4775W        W75375   0.060   6.928  12.123
 4776W        W75376  44.502  40.195  10.751
 4777W        W75377  30.544  11.184   1.837
 4778W        W75378   7.210  39.346  10.951
 4779W        W75379  22.639   4.957   4.061
 4780W        W75380  11.057   6.184  12.957
 4781W        W75381  29.438  18.191  11.677
 4782W        W75382  26.316  10.813   2.489
 4783W        W75383  41.613  11.876   1.456
 4784W        W75384  34.548  40.870   1.631
 4785W        W75385   3.275  19.557   3.191
 4786W        W75386   4.260  23.938  13.732
 4787W        W75387  36.892  37.106   2.366
 4788W        W75388  20.285   4.842  14.078
 4789W        W75389   9.023  22.989   0.132
 4790W        W75390  32.985  17.525   4.744
 4791W        W75391   8.619   6.194   4.045
 4792W        W75392  18.031  16.220   1.997
 4793W        W75393  11.718  33.570   4.884
 4794W        W75394  39.830  14.146   4.428
 4795W        W75395  44.227  35.944  13.095
 4796W        W75396   7.682  41.791   4.117
 4797W        W75397   8.411  26.125   2.358
 4798W        W75398  23.973   3.829  12.462
 4799W        W75399  26.269  14.570   2.858
 4800W        W75400  13.707  23.585   1.417
 4801W        W75401  23.945  26.442   2.706
 4802W        W75402   2.823  40.286   3.971
 4803W        W75403  29.421  37.612   4.304
 4804W        W75404   2.954  10.801   2.510
 4805W        W75405  23.042  35.590   4.572
 4806W        W75406  27.962   0.764  11.615
 4807W        W75407  19.774  26.120   2.800
 4808W        W75408  44.936  27.926  12.973
 4809W        W75409  19.960  38.577  13.281
 4810W        W75410  26.904  30.105  12.967
 4811W        W75411  26.181  23.731  12.904
 4812W        W75412  44.271  10.909   1.975
 4813W        W75413  16.325  26.572  11.040
 4814W        W75414  13.139  20.263  13.649
 4815W        W75415  38.354  10.246   3.063
 4816W        W75416   9.099   2.156  12.551
 4817W        W75417  14.646  43.776   0.819
 4818W        W75418  36.132  39.234  13.413
 4819W        W75419  17.072   6.387   4.096
 4820W        W75420  12.248  23.740  11.538
 4821W        W75421   5.408  44.940   4.580
 4822W        W75422   9.245  13.606   4.070
 4823W        W75423  26.051  19.203   2.882
 4824W        W75424  27.964  33.650   2.451
 4825W        W75425  30.723  24.019   0.878
 4826W        W75426  22.196  28.988   2.285
 4827W        W75427   2.131   9.099  14.533
 4828W        W75428   1.333  31.945  13.181
 4829W        W75429   1.052   2.007  12.044
 4830W        W75430  24.970  34.194   0.808
 4831W        W75431  20.953  20.017   3.742
 4832W        W75432  16.264  38.150  14.836
 4833W        W75433   6.998  41.027   0.310
 4834W        W75434  38.976   6.996  11.636
 4835W        W75435  25.308  42.197   0.293
 4836W        W75436   7.636   9.352   4.847
 4837W        W75437   8.287  38.939   4.239
 4838W        W75438   3.914  30.215  12.874
 4839W        W75439   9.679  21.641   0.321
 4840W        W75440  35.161  22.040   3.798
 4841W        W75441  17.031  33.406   1.856
 4842W        W75442  19.130  44.973   3.866
 4843W        W75443  24.650  20.825  13.373
 4844W        W75444  31.817  20.781   4.089
 4845W        W75445  31.591  16.579   3.236
 4846W        W75446   1.781   7.795  12.788
 4847W        W75447   7.867  13.836  12.936
 4848W        W75448   2.088  11.394  11.153
 4849W        W75449  37.054   1.304   2.275
 4850W        W75450   7.894  11.341  13.935
 4851W        W75451  38.449  30.222  10.996
 4852W        W75452  43.255   4.595   0.150
 4853W        W75453   9.828  23.824   2.965
 4854W        W75454  38.652   4.176  11.578
 4855W        W75455  31.513  27.126   1.202
 4856W        W75456  37.560  13.106  12.100
 4857W        W75457  34.054  31.432   2.769
 4858W        W75458   5.389   9.850   1.906
 4859W        W75459  13.348  16.735   1.384
 4860W        W75460  23.937   7.324  14.263
 4861W        W75461  21.937  30.832   1.300
 4862W        W75462  34.706  40.055  13.071
 4863W        W75463  16.857  14.530   1.809
 4864W        W75464  28.058  12.264   1.894
 4865W        W75465  10.184  29.767  11.914
 4866W        W75466   6.470  35.334  13.129
 4867W        W75467   4.467  11.343   3.549
 4868W        W75468  25.479  11.105  11.027
 4869W        W75469  40.529  20.181  10.798
 4870W        W75470  16.120  41.854  12.970
 4871W        W75471  10.692   2.806  14.641
 4872W        W75472  33.272  11.452  11.530
 4873W        W75473  38.372  11.110   3.400
 4874W        W75474  44.868  26.566   1.856
 4875W        W75475  14.657  31.486   2.215
 4876W        W75476  24.139   3.420   4.530
 4877W        W75477  11.465  11.378   0.243
 4878W        W75478  37.016  40.246  13.045
 4879W        W75479  11.660  30.536  14.583
 4880W        W75480  25.702   4.296   2.909
 4881W        W75481   0.874   7.209   3.894
 4882W        W75482  21.537   3.881  10.689
 4883W        W75483  38.637  16.157   3.186
 4884W        W75484  27.760   5.281  10.885
 4885W        W75485  16.780  30.151  10.795
 4886W        W75486  10.138   0.381  13.052
 4887W        W75487  43.869   6.224  12.865
 4888W        W75488  14.159  16.916   1.713
 4889W        W75489  13.678   3.493  12.949
 4890W        W75490  24.510   6.396   2.387
 4891W        W75491   9.632  38.861   4.890
 4892W        W75492  27.056  41.505   4.578
 4893W        W75493   5.186  31.228   0.789
 4894W        W75494   8.352  44.329   1.509
 4895W        W75495  31.071   9.607  12.060
 4896W        W75496  10.817  13.117  14.417
 4897W        W75497  17.192   7.765   0.772
 4898W        W75498  34.829   9.716   2.429
 4899W        W75499   0.285  36.408  14.107
 4900W        W75500  26.733   1.244  10.686
 4901W        W75501  21.839  28.487  10.692
 4902W        W75502  20.776  38.900  11.624
 4903W        W75503  26.512  19.157   3.105
 4904W        W75504  25.430  25.673  10.684
 4905W        W75505  21.407  27.149   4.230
 4906W        W75506  39.092  13.062  14.766
 4907W        W75507  40.451  30.426  12.978
 4908W        W75508   3.388  30.169  14.236
 4909W        W75509  31.581   6.823  13.777
 4910W        W75510  30.647  29.390   3.183
 4911W        W75511   6.593  32.608  14.894
 4912W        W75512  43.586  21.171   0.368
 4913W        W75513  18.073  23.746  10.705
 4914W        W75514   1.702  15.763   0.974
 4915W        W75515  41.510  38.847   4.961
 4916W        W75516  38.027  15.752  14.128
 4917W        W75517   9.837   8.131  12.412
 4918W        W75518  16.519  38.172   2.664
 4919W        W75519   9.729  39.108  13.504
 4920W        W75520   9.859  16.277   4.723
 4921W        W75521   4.343   9.705  14.657
 4922W        W75522   4.432   4.939   2.268
 4923W        W75523  37.615  33.119  10.325
 4924W        W75524  26.120   8.768  11.594
 4925W        W75525  11.317  38.897   1.613
 4926W        W75526  31.847   0.042  11.988
 4927W        W75527  10.473  20.122   1.808
 4928W        W75528  30.216  27.159  11.208
 4929W        W75529  22.051   9.418  14.484
 4930W        W75530  22.726  21.489   3.251
 4931W        W75531  37.544  28.410   0.685
 4932W        W75532  14.618  24.408   3.664
 4933W        W75533  17.712   2.241  12.043
 4934W        W75534  21.541  14.745  13.234
 4935W        W75535  38.566   7.290   2.734
 4936W        W75536  38.020  38.574   1.139
 4937W        W75537  43.031  18.550  11.605
 4938W        W75538  44.910  32.435  12.965
 4939W        W75539  30.135   0.714  11.101
 4940W        W75540  32.959   1.058  11.596
 4941W        W75541  35.973  20.317  11.664
 4942W        W75542  10.073  27.968   4.428
 4943W        W75543  11.132  14.674   3.215
 4944W        W75544  11.799  29.432  10.496
 4945W        W75545  44.076  44.498  11.547
 4946W        W75546   7.452  30.003  13.774
 4947W        W75547   3.905  27.929   2.882
 4948W        W75548   4.300  14.243   3.627
 4949W        W75549  33.585  22.299  13.806
 4950W        W75550  36.793  41.551  12.546
 4951W        W75551  39.973  38.597   3.642
 4952W        W75552  12.662  24.549  12.352
 4953W        W75553   7.630  32.983   3.247
 4954W        W75554  35.276  32.488  11.602
 4955W        W75555  20.070  29.289   2.791
 4956W        W75556  34.681   5.625  10.465
 4957W        W75557  23.588  43.703   1.066
 4958W        W75558  18.654  18.545   3.297
 4959W        W75559  31.608  36.826   2.186
 4960W        W75560   1.493  29.664   0.846
 4961W        W75561  11.084  38.372  14.438
 4962W        W75562  37.076   2.457   2.855
 4963W        W75563  27.565  12.765  12.966
 4964W        W75564  13.888   6.226  11.635
 4965W        W75565  14.249  15.330   2.293
 4966W        W75566  20.708  10.206   3.168
 4967W        W75567  43.388  25.601  10.635
 4968W        W75568  40.405  32.803  14.012
 4969W        W75569  20.751   1.508  14.926
 4970W        W75570  28.285   7.717   2.144
 4971W        W75571   1.254  31.490   3.743
 4972W        W75572  32.707   6.531   3.656
 4973W        W75573  12.343  21.160   1.381
 4974W        W75574  34.796  12.584  11.187
 4975W        W75575  27.115  37.459   1.324
 4976W        W75576  21.133  21.166   1.093
 4977W        W75577  30.995  44.241   2.739
 4978W        W75578   1.870  11.896   4.250
 4979W        W75579  41.088  27.047   1.195
 4980W        W75580  13.855   7.436  10.763
 4981W        W75581  11.105  26.521  13.558
 4982W        W75582  39.055  23.801   0.260
 4983W        W75583  37.833  24.194  12.011
 4984W        W75584   1.863  40.034   4.813
 4985W        W75585  22.063  19.721   1.374
 4986W        W75586   4.715  18.388   1.276
 4987W        W75587  12.151  27.006   1.269
 4988W        W75588  16.677  27.170  13.992
 4989W        W75589  27.248  34.897   3.229
 4990W        W75590  21.555  41.521  13.925
 4991W        W75591  19.205  25.214   1.678
 4992W        W75592   9.254  17.714  13.255
 4993W        W75593  26.710  25.109   4.975
 4994W        W75594  30.073  23.684   2.115
 4995W        W75595   2.321  35.625  14.322
 4996W        W75596  29.079  15.475   1.401
 4997W        W75597  23.794  30.489   3.550
 4998W        W75598   9.592  32.633  12.137
 4999W        W75599  12.186  12.895  13.544
 5000W        W75600  13.642  29.432  11.126
 5001W        W75601  16.280  36.487  10.226
 5002W        W75602  10.232  18.519  12.308
 5003W        W75603   4.747  22.520   2.841
 5004W        W75604   0.513  27.173   3.715
 5005W        W75605  20.322  40.357   0.018
 5006W        W75606  14.770  12.412   3.194
 5007W        W75607  34.906  42.029  11.567
 5008W        W75608  26.077  17.395  12.285
 5009W        W75609   8.716  23.318  11.555
 5010W        W75610  22.687  22.025   2.329
 5011W        W75611  24.262  19.932   4.249
 5012W        W75612  27.618  14.363   4.586
 5013W        W75613  26.165  40.720   4.168
 5014W        W75614  18.441  23.101  14.597
 5015W        W75615  32.561  10.182  14.376
 5016W        W75616  42.412  27.493   4.095
 5017W        W75617  33.677  24.402  11.092
 5018W        W75618   2.349  25.128   0.347
 5019W        W75619  41.655   0.137   4.669
 5020W        W75620   0.128  35.624  14.465
 5021W        W75621  29.942  20.167  13.077
 5022W        W75622   5.952  37.041   4.145
 5023W        W75623  19.059  33.694  11.956
 5024W        W75624   3.892   4.411   1.513
 5025W        W75625  37.501  32.956  11.643
 5026W        W75626  36.376   8.398  12.483
 5027W        W75627  41.612  27.626  12.643
 5028W        W75628  21.665   6.906  14.487
 5029W        W75629  26.662   9.886  10.487
 5030W        W75630  35.966  39.894  14.683
 5031W        W75631  31.687   9.086   1.676
 5032W        W75632  25.650  16.756  10.889
 5033W        W75633  37.365  39.420   4.428
 5034W        W75634  39.474   3.252  10.502
 5035W        W75635  38.936  34.023  13.835
 5036W        W75636  22.627  14.741  12.290
 5037W        W75637  18.624   3.250  13.945
 5038W        W75638  34.884  21.572   4.546
 5039W        W75639  32.982  23.851  11.240
 5040W        W75640   1.487  39.516  12.196
 5041W        W75641  24.863  22.828   2.736
 5042W        W75642  32.509  14.984  11.561
 5043W        W75643  21.757  42.088   2.800
 5044W        W75644  26.125  27.387  10.584
 5045W        W75645  24.134  30.870  13.519
 5046W        W75646  33.725  27.196  11.499
 5047W        W75647  26.517   3.840   3.186
 5048W        W75648  25.554  44.615  11.577
 5049W        W75649   7.830  32.200  13.486
 5050W        W75650  17.109  44.721   2.773
 5051W        W75651  12.162   4.099  12.862
 5052W        W75652  18.872  17.896  11.661
 5053W        W75653   2.860   2.811   1.380
 5054W        W75654  15.560  18.583  13.733
 5055W        W75655  35.097   4.588   5.130
 5056W        W75656  10.154  27.458  13.889
 5057W        W75657  41.355  40.734  13.406
 5058W        W75658  37.916  33.309   2.786
 5059W        W75659  26.145  35.896   0.255
 5060W        W75660  22.178  26.414   0.447
 5061W        W75661  10.262  20.434  14.886
 5062W        W75662   2.736  20.438  11.942
 5063W        W75663  18.532  27.436  14.552
 5064W        W75664  18.817  15.695  10.312
 5065W        W75665  21.489  30.655  14.091
 5066W        W75666  36.292  34.606  14.858
 5067W        W75667  11.316  39.877   2.224
 5068W        W75668  35.438  25.973   4.627
 5069W        W75669   9.404   5.686   4.130
 5070W        W75670  41.617   4.221   0.933
 5071W        W75671  40.547  25.215   0.422
 5072W        W75672  33.889  16.183   0.054
 5073W        W75673  41.974  21.795  11.600
 5074W        W75674  21.685  12.885  13.139
 5075W        W75675  20.830  12.334  11.661
 5076W        W75676   9.117   0.398   0.480
 5077W        W75677  36.056  29.414   4.224
 5078W        W75678   0.423   8.156   3.249
 5079W        W75679  37.631   7.795   3.250
 5080W        W75680   3.305  14.288  11.512
 5081W        W75681  44.936   4.301   4.342
 5082W        W75682   4.463   2.621   4.046
 5083W        W75683  29.400  41.590   4.484
 5084W        W75684   0.293  41.414  10.352
 5085W        W75685  42.483  20.103   3.746
 5086W        W75686  21.113  42.594   0.909
 5087W        W75687  14.537  20.506   1.270
 5088W        W75688  24.202  41.345  11.299
 5089W        W75689  40.844  10.176  11.513
 5090W        W75690  23.503  41.074   0.439
 5091W        W75691  21.091  28.977   3.243
 5092W        W75692  22.701  22.521   0.570
 5093W        W75693  35.945  44.846   0.782
 5094W        W75694  39.991   3.170   0.370
 5095W        W75695  23.314  15.874  14.271
 5096W        W75696  24.054   9.886  11.237
 5097W        W75697   5.198   4.441  11.620
 5098W        W75698  22.644   6.976  12.370
 5099W        W75699  13.214  10.399  10.344
 5100W        W75700  29.556  36.885  10.660
 5101W        W75701  43.050   8.240  10.604
 5102W        W75702  29.998  44.058   4.517
 5103W        W75703  26.980  18.564   4.193
 5104W        W75704   1.054  13.355   4.592
 5105W        W75705  44.676  40.644   2.758
 5106W        W75706  21.756  43.999   2.610
 5107W        W75707  12.268  22.116  12.022
 5108W        W75708  18.645   2.425  13.558
 5109W        W75709   4.394  36.669   4.788
 5110W        W75710  28.574  35.313   1.222
 5111W        W75711  36.051  27.964   3.736
 5112W        W75712  23.078  37.109  13.429
 5113W        W75713   7.105   0.877  11.150
 5114W        W75714   1.165  16.591  10.766
 5115W        W75715  37.908  13.656  10.773
 5116W        W75716   9.761   5.101   2.722
 5117W        W75717  41.810   7.411  13.523
 5118W        W75718   4.958   1.908  13.860
 5119W        W75719  30.057  42.593  12.084
 5120W        W75720  14.857  10.378   3.149
 5121W        W75721  43.261  24.058   1.158
 5122W        W75722  17.296   3.135   4.944
 5123W        W75723  27.037  24.053   0.140
 5124W        W75724  10.837  35.673  13.875
 5125W        W75725  18.626  10.713  14.304
 5126W        W75726  24.210  10.576   3.097
 5127W        W75727  26.843  44.273  14.067
 5128W        W75728  35.091   0.543   4.566
 5129W        W75729  10.465  24.569  12.657
 5130W        W75730  18.236  35.110   1.875
 5131W        W75731  12.260  28.586   4.205
 5132W        W75732  33.599  33.378  10.635
 5133W        W75733   2.829  26.893   0.379
 5134W        W75734  21.587  20.506   4.156
 5135W        W75735   3.822   8.236  11.449
 5136W        W75736  16.273  12.239  10.682
 5137W        W75737  13.307  12.797   4.734
 5138W        W75738  11.641  12.194   4.409
 5139W        W75739  26.244   0.250   2.593
 5140W        W75740  24.673   0.536  12.396
 5141W        W75741  14.407  25.652   4.141
 5142W        W75742  41.072  38.031   3.128
 5143W        W75743   8.908  20.247  12.922
 5144W        W75744   9.661  14.234  12.709
 5145W        W75745  22.450  15.753   3.712
 5146W        W75746  24.447  33.044   2.164
 5147W        W75747  40.531  34.490   2.256
 5148W        W75748  42.733  21.638   1.941
 5149W        W75749  18.590  39.596  13.006
 5150W        W75750  11.383  26.496  11.587
 5151W        W75751  15.809   9.193   3.263
 5152W        W75752  26.165  14.731   4.655
 5153W        W75753  43.301  43.010  10.958
 5154W        W75754   1.023  29.031   1.480
 5155W        W75755  32.289  27.351   2.264
 5156W        W75756   6.637  26.148  14.836
 5157W        W75757   7.747  30.035  11.396
 5158W        W75758   9.599  16.272  13.930
 5159W        W75759  13.079  35.874   1.698
 5160W        W75760  38.489   5.560  11.578
 5161W        W75761  27.583   2.500  14.056
 5162W        W75762   6.753  37.611  12.834
 5163W        W75763   6.718   7.776  13.770
 5164W        W75764   1.804  26.194  14.387
 5165W        W75765   2.780   8.742   0.871
 5166W        W75766  37.394  13.076   4.096
 5167W        W75767  29.457  33.535   3.344
 5168W        W75768  15.848  28.593   2.411
 5169W        W75769  40.426   2.265   3.208
 5170W        W75770  30.957  29.916   2.746
 5171W        W75771  44.636   1.931   1.916
 5172W        W75772   9.328  43.900   0.076
 5173W        W75773  31.949   9.627  11.527
 5174W        W75774  27.546  37.156   2.123
 5175W        W75775  18.295  35.320   2.736
 5176W        W75776  41.883  11.770  10.593
 5177W        W75777  26.709  19.536  13.095
 5178W        W75778  41.759  35.668  12.965
 5179W        W75779  11.604   6.768   2.858
 5180W        W75780  11.899  21.514  11.914
 5181W        W75781  32.574  36.611  13.842
 5182W        W75782   5.963  33.382   1.677
 5183W        W75783   3.244  17.582   0.779
 5184W        W75784   6.885  37.089  12.728
 5185W        W75785  27.922   4.954  14.009
 5186W        W75786  34.451   3.561   2.766
 5187W        W75787   5.109  20.514  11.982
 5188W        W75788  44.760  41.780  11.999
 5189W        W75789  36.035  22.591   4.609
 5190W        W75790  35.788  37.889  11.015
 5191W        W75791   9.964  42.036  14.318
 5192W        W75792  21.805  29.208   0.292
 5193W        W75793  40.489  16.955  11.151
 5194W        W75794  22.615  13.304  13.810
 5195W        W75795  41.849   5.976  12.352
 5196W        W75796   8.399  17.067   3.515
 5197W        W75797  23.102  18.951  12.928
 5198W        W75798  13.765  30.101  13.272
 5199W        W75799  36.046  17.067  11.167
 5200W        W75800  10.346  25.391   3.097
 5201W        W75801   4.857  41.211  10.198
 5202W        W75802  35.966  41.731  10.540
 5203W        W75803  14.098  38.849  13.330
 5204W        W75804  28.569  32.194   2.641
 5205W        W75805  39.088  19.374   4.015
 5206W        W75806  29.189  31.816  14.841
 5207W        W75807  38.562  32.437   3.789
 5208W        W75808  14.105  26.636  13.581
 5209W        W75809  42.697   8.350   4.928
 5210W        W75810  25.029   0.968  13.901
 5211W        W75811  39.570  37.784  11.010
 5212W        W75812  27.089  43.532  12.129
 5213W        W75813  39.838  21.580   0.076
 5214W        W75814  12.436   7.794  14.705
 5215W        W75815  13.981  12.512   3.303
 5216W        W75816  38.141  27.039   3.453
 5217W        W75817  39.563   7.343  14.386
 5218W        W75818   7.720  23.336  10.343
 5219W        W75819  20.560  24.636  12.486
 5220W        W75820  38.324  35.218   1.847
 5221W        W75821  30.073  29.401   2.769
 5222W        W75822  25.254  25.998   1.669
 5223W        W75823   2.668  33.093   1.249
 5224W        W75824  30.969  21.560   1.789
 5225W        W75825  41.377  22.321  12.923
 5226W        W75826  17.241  43.746   0.240
 5227W        W75827  32.577  10.964   2.119
 5228W        W75828   0.766  38.878  11.983
 5229W        W75829   0.436  29.150   3.263
 5230W        W75830   6.727   5.909  12.539
 5231W        W75831   5.951  34.549   0.266
 5232W        W75832  20.764  17.145   1.865
 5233W        W75833  33.412  24.465  10.649
 5234W        W75834  20.104  36.496  13.048
 5235W        W75835  20.134   5.866  12.978
 5236W        W75836  28.695  41.949   4.227
 5237W        W75837  38.396  29.865  10.596
 5238W        W75838   9.426  25.083   4.046
 5239W        W75839  29.836  30.917   4.112
 5240W        W75840   1.328  23.016   1.447
 5241W        W75841   6.280  10.271   3.212
 5242W        W75842  35.522   2.916   0.970
 5243W        W75843   8.163  21.695   3.302
 5244W        W75844  35.939  39.388   2.168
 5245W        W75845  18.595  33.913   0.750
 5246W        W75846  14.537  10.909   2.260
 5247W        W75847  12.624  14.146  11.646
 5248W        W75848  41.831  24.747  11.113
 5249W        W75849  21.693  12.141   2.916
 5250W        W75850  43.196  31.922   0.828
 5251W        W75851  20.054  36.386   3.321
 5252W        W75852  14.100  42.737  14.719
 5253W        W75853  20.319   1.222   2.250
 5254W        W75854  11.727  31.762   1.768
 5255W        W75855   9.398  27.022   0.448
 5256W        W75856  28.185  21.209   5.148
 5257W        W75857  30.363   5.230  12.724
 5258W        W75858  18.707   9.144   4.615
 5259W        W75859  21.210  16.415  13.523
 5260W        W75860  44.630   5.267   2.685
 5261W        W75861  11.358   2.440   3.256
 5262W        W75862  39.491   3.327   0.442
 5263W        W75863  14.250  30.396  10.700
 5264W        W75864   1.254  20.110  10.752
 5265W        W75865  18.662  30.655   2.467
 5266W        W75866  24.910  30.497  13.920
 5267W        W75867  24.542  22.869   0.219
 5268W        W75868   4.339  16.544  11.379
 5269W        W75869  13.928   9.144   1.451
 5270W        W75870  32.891  24.497  10.664
 5271W        W75871   6.794   9.127   0.394
 5272W        W75872  35.909  39.851   3.762
 5273W        W75873  20.567  18.804  10.808
 5274W        W75874  18.595  23.192  11.292
 5275W        W75875  30.465  42.870  12.876
 5276W        W75876  25.920  19.234  11.151
 5277W        W75877  33.546  15.367  13.864
 5278W        W75878  28.624  44.273  13.907
 5279W        W75879   2.885  40.326  13.879
 5280W        W75880  26.977  13.799   0.019
 5281W        W75881  38.776  32.841   0.278
 5282W        W75882  16.820  19.166   4.113
 5283W        W75883  43.543  23.447   2.244
 5284W        W75884  44.475   7.236   3.053
 5285W        W75885  43.907  21.668   1.504
 5286W        W75886  10.339  43.881   3.232
 5287W        W75887  24.999  22.659  10.397
 5288W        W75888  44.759   9.758  12.582
 5289W        W75889  10.298  11.863   4.051
 5290W        W75890   7.890  29.197   1.361
 5291W        W75891  16.105  23.918  13.922
 5292W        W75892  22.225  11.048   2.225
 5293W        W75893  16.124  28.052   2.871
 5294W        W75894  14.247  42.531   1.680
 5295W        W75895  44.507   5.223   1.266
 5296W        W75896  16.144  30.171   1.586
 5297W        W75897  34.950   2.495  10.443
 5298W        W75898   8.413   5.020  12.626
 5299W        W75899  36.844  23.657   4.316
 5300W        W75900  13.717  21.602   2.438
 5301W        W75901   8.419  17.463  11.181
 5302W        W75902  39.399  14.880   4.579
 5303W        W75903  12.951  44.340   4.651
 5304W        W75904  10.375  12.801   0.853
 5305W        W75905  12.096  35.461   0.350
 5306W        W75906   0.576  30.382  12.107
 5307W        W75907  39.999  28.099  13.211
 5308W        W75908  17.231   5.676   2.265
 5309W        W75909  25.020  17.301   2.059
 5310W        W75910  40.937  41.396   1.668
 5311W        W75911  29.827  41.834   0.761
 5312W        W75912  35.070  30.118  13.038
 5313W        W75913  37.888  42.914   1.384
 5314W        W75914  20.179   9.592   1.456
 5315W        W75915  43.317  31.086  14.876
 5316W        W75916  31.452   3.790  10.657
 5317W        W75917   2.386  39.101  14.515
 5318W        W75918  13.191   0.792  11.579
 5319W        W75919  25.533  37.787  12.927
 5320W        W75920   1.180   9.247  13.226
 5321W        W75921  13.717  27.416   1.032
 5322W        W75922  43.857  12.189   4.598
 5323W        W75923  14.271  28.677  11.987
 5324W        W75924   5.537  29.120   1.957
 5325W        W75925  10.851  39.348  14.517
 5326W        W75926  12.838   0.302  13.772
 5327W        W75927  25.422  37.433   2.780
 5328W        W75928  26.000   7.375  11.814
 5329W        W75929  44.445   8.184  11.101
 5330W        W75930  35.017  16.627   1.711
 5331W        W75931  21.091  23.257   2.200
 5332W        W75932  41.824  41.800   4.725
 5333W        W75933  22.562   2.746  10.256
 5334W        W75934  28.745   2.258  11.604
 5335W        W75935  35.509  32.023  13.374
 5336W        W75936  26.577  18.685   3.900
 5337W        W75937  10.620  34.980  11.918
 5338W        W75938  43.292  26.317  12.560
 5339W        W75939  38.373  19.538  11.125
 5340W        W75940  42.438  44.890   2.548
 5341W        W75941   5.424  17.092  12.016
 5342W        W75942  31.423  37.135   1.649
 5343W        W75943  21.994   1.392  13.912
 5344W        W75944  21.141   3.457   1.858
 5345W        W75945  31.244   7.712  14.934
 5346W        W75946  14.227  42.491  13.897
 5347W        W75947  41.841  21.650  12.382
 5348W        W75948   3.633  12.927   0.375
 5349W        W75949  30.081  22.230   1.969
 5350W        W75950  14.848   0.404   2.317
 5351W        W75951  35.566  22.157  12.109
 5352W        W75952  14.717  38.121   3.815
 5353W        W75953   1.902  43.548   2.450
 5354W        W75954  18.556  29.234   3.053
 5355W        W75955  14.726  23.304   0.724
 5356W        W75956  40.306  26.249   0.875
 5357W        W75957  28.257  27.482  13.437
 5358W        W75958  28.281  26.422  12.116
 5359W        W75959  39.552  22.973   0.453
 5360W        W75960  22.002  37.998  14.211
 5361W        W75961   6.513  16.310  11.127
 5362W        W75962  28.254   2.834   3.527
 5363W        W75963   6.162  33.996   4.187
 5364W        W75964  11.320  35.236   4.730
 5365W        W75965  13.063  18.225   3.756
 5366W        W75966  24.000  44.918  11.786
 5367W        W75967  38.795  36.924   2.840
 5368W        W75968  42.390  38.586  12.180
 5369W        W75969  33.869  33.239   3.021
 5370W        W75970  27.621  28.363   3.802
 5371W        W75971  26.186   0.301   3.100
 5372W        W75972  37.778  18.334  12.946
 5373W        W75973  37.405  41.513  14.759
 5374W        W75974  40.967  17.241   3.306
 5375W        W75975  23.059  24.710   1.279
 5376W        W75976  26.636  30.257   4.161
 5377W        W75977   8.926   8.456   4.581
 5378W        W75978  34.016  18.354  12.439
 5379W        W75979  32.077  38.940  14.025
 5380W        W75980  15.961   2.147  12.508
 5381W        W75981  18.542   7.802  14.791
 5382W        W75982  17.544   1.467  12.470
 5383W        W75983  24.477  43.457  14.487
 5384W        W75984  33.553  17.331  10.600
 5385W        W75985  39.545  32.349  11.135
 5386W        W75986  26.282  14.785  14.460
 5387W        W75987  36.685  26.215  12.066
 5388W        W75988  16.260   9.868  12.286
 5389W        W75989  39.120  30.642   0.506
 5390W        W75990  32.984   0.492   0.303
 5391W        W75991  13.857   1.139  14.164
 5392W        W75992  41.239  36.966  14.924
 5393W        W75993  33.895  33.733   3.214
 5394W        W75994  20.082  39.127   2.882
 5395W        W75995   8.590  33.001   3.285
 5396W        W75996  29.761  36.477   2.719
 5397W        W75997  21.128  32.909  10.779
 5398W        W75998  35.931   1.665   1.408
 5399W        W75999  25.913  10.136  11.721
 5400W        W76000  10.592   3.218  14.351
 5401W        W76001  20.896  14.556  11.139
 5402W        W76002   8.516  35.536  14.785
 5403W        W76003  11.075  41.862  14.998
 5404W        W76004  16.519  42.927  12.478
 5405W        W76005  42.487  36.415   1.881
 5406W        W76006  37.499  21.757   4.405
 5407W        W76007  15.246  11.242  11.630
 5408W        W76008  39.936  15.282  13.798
 5409W        W76009  41.026  17.813   0.887
 5410W        W76010  28.110  29.496  10.792
 5411W        W76011  33.939  13.267  12.178
 5412W        W76012  26.370  21.257  11.119
 5413W        W76013  30.980   6.057  12.845
 5414W        W76014  31.497  36.400   1.365
 5415W        W76015   5.787   3.789   2.787
 5416W        W76016  44.943  27.901   0.742
 5417W        W76017  16.243   7.212  12.165
 5418W        W76018   1.251  21.612  11.028
 5419W        W76019   8.443  31.912   3.114
 5420W        W76020  30.125   9.713  11.661
 5421W        W76021  24.272  33.790  13.982
 5422W        W76022  20.248  20.219   4.300
 5423W        W76023  23.608  10.156  14.791
 5424W        W76024  24.179  33.736   4.618
 5425W        W76025   4.856  37.878   3.137
 5426W        W76026  40.643  12.792   5.023
 5427W        W76027  35.329  16.558  10.968
 5428W        W76028   0.756  10.675   2.005
 5429W        W76029  13.801  42.527   3.977
 5430W        W76030  32.326   5.123   0.995
 5431W        W76031   4.913  27.187  14.774
 5432W        W76032   7.923  36.876   4.303
 5433W        W76033  18.725  11.316  11.099
 5434W        W76034   8.356  26.459  12.273
 5435W        W76035  20.070   1.533   4.102
 5436W        W76036  18.203  17.682  12.535
 5437W        W76037   0.741  33.008  12.373
 5438W        W76038  21.005  20.670  11.646
 5439W        W76039  33.284  44.960   0.881
 5440W        W76040  25.629  29.938  14.445
 5441W        W76041   9.892  41.410   0.003
 5442W        W76042  31.681  23.047   4.341
 5443W        W76043  42.763  34.969  14.612
 5444W        W76044  14.730  27.972   4.111
 5445W        W76045   6.805  34.388   1.330
 5446W        W76046  27.558  31.083  10.488
 5447W        W76047  33.730  18.449  11.958
 5448W        W76048  34.980  22.527   4.686
 5449W        W76049  34.483  41.532   3.401
 5450W        W76050   0.586  31.687   3.199
 5451W        W76051  42.795  32.746   4.907
 5452W        W76052  11.632  34.966   3.706
 5453W        W76053   9.355  38.542  14.709
 5454W        W76054  38.984  40.474  14.406
 5455W        W76055  10.271  32.904   1.342
 5456W        W76056  13.851  26.544  11.252
 5457W        W76057  31.019   8.399  13.495
 5458W        W76058  28.625  15.355   1.710
 5459W        W76059  21.069  41.569   2.348
 5460W        W76060  18.030  27.250  12.918
 5461W        W76061  29.127  10.183  11.116
 5462W        W76062  31.125  12.137   3.624
 5463W        W76063  13.101   6.428  11.174
 5464W        W76064  33.017  33.080  10.679
 5465W        W76065  31.588   5.897  10.716
 5466W        W76066   8.058  20.748   3.585
 5467W        W76067  11.413  44.959   1.014
 5468W        W76068  19.806  18.219  14.736
 5469W        W76069  17.596  30.889   2.192
 5470W        W76070  33.146   5.203   4.513
 5471W        W76071  25.618  29.972  13.897
 5472W        W76072  13.189   1.873  12.127
 5473W        W76073  41.902  38.642   4.135
 5474W        W76074  23.701  20.433  13.482
 5475W        W76075  44.080  43.362  13.933
 5476W        W76076  32.069   0.899   1.759
 5477W        W76077  33.562  38.798  11.957
 5478W        W76078  34.830  18.462  12.896
 5479W        W76079  31.363  44.990   0.798
 5480W        W76080  30.139   2.457  11.488
 5481W        W76081  19.752  22.158  11.954
 5482W        W76082  31.101  31.950  13.946
 5483W        W76083  29.348   9.146  13.531
 5484W        W76084  18.363  29.315   0.281
 5485W        W76085  35.430   3.640  11.895
 5486W        W76086  22.623  29.017  14.533
 5487W        W76087  22.350  25.293  12.153
 5488W        W76088  10.447  40.511  13.427
 5489W        W76089  32.805  11.253   3.791
 5490W        W76090  27.990  13.640  12.522
 5491W        W76091   0.905  23.860   0.413
 5492W        W76092  14.660  35.246  12.415
 5493W        W76093  37.518  14.815   2.943
 5494W        W76094  25.419  40.947   0.397
 5495W        W76095  22.325  34.068   0.710
 5496W        W76096  12.064   5.693  13.692
 5497W        W76097   2.237  11.414  14.348
 5498W        W76098  37.026  13.957   3.975
 5499W        W76099   7.100  37.471   2.900
 5500W        W76100  20.690  43.658   1.237
 5501W        W76101  27.099  25.515  14.075
 5502W        W76102  42.525  28.536  12.000
 5503W        W76103  14.696  40.230   0.963
 5504W        W76104  16.502  10.108   4.063
 5505W        W76105   2.866  21.992  13.792
 5506W        W76106  10.579  19.698  11.323
 5507W        W76107  34.944  10.678  12.936
 5508W        W76108  16.237  38.788   3.755
 5509W        W76109  30.993   5.878   2.572
 5510W        W76110   3.462  17.278   3.180
 5511W        W76111  29.032  27.586  11.462
 5512W        W76112  23.694  29.032  11.961
 5513W        W76113  33.151  13.716  13.516
 5514W        W76114  16.729   3.948   0.794
 5515W        W76115  25.783   4.784   3.752
 5516W        W76116  32.738   2.362  13.880
 5517W        W76117  38.221  19.197   0.919
 5518W        W76118  17.361  33.918   1.870
 5519W        W76119   1.312  43.257  14.239
 5520W        W76120   5.655   2.433  13.606
 5521W        W76121  36.110  18.462   0.061
 5522W        W76122   0.878  42.910  11.226
 5523W        W76123   4.476  15.274   1.304
 5524W        W76124  13.074  20.641   1.079
 5525W        W76125  28.511   4.192  13.007
 5526W        W76126   0.409  22.203   1.359
 5527W        W76127  35.644   3.023  14.472
 5528W        W76128   2.493  44.869  14.296
 5529W        W76129   8.291  12.680   4.508
 5530W        W76130  27.505  29.012  12.673
 5531W        W76131  20.816   3.030   1.910
 5532W        W76132   0.845  43.667  12.582
 5533W        W76133   2.183  30.462   0.806
 5534W        W76134  24.909   9.209  11.103
 5535W        W76135  31.021  12.666   4.684
 5536W        W76136  10.736  20.588  13.362
 5537W        W76137   5.438   4.539  10.213
 5538W        W76138  29.544   0.694  13.403
 5539W        W76139  34.920  26.787   3.773
 5540W        W76140  43.357  44.443   4.136
 5541W        W76141  23.990  13.140   0.258
 5542W        W76142  18.548  20.126  11.632
 5543W        W76143  21.473  39.613  14.666
 5544W        W76144  10.082  17.095  12.473
 5545W        W76145  24.319  14.639   0.449
 5546W        W76146  16.110   1.916  10.682
 5547W        W76147   3.918  33.772  14.531
 5548W        W76148  24.268   1.065  12.626
 5549W        W76149  38.374  19.633  14.206
 5550W        W76150   1.797  18.766   4.203
 5551W        W76151  13.337  11.138  12.847
 5552W        W76152  41.499  29.444   4.289
 5553W        W76153  37.648  30.069  10.352
 5554W        W76154  32.563  39.090   2.836
 5555W        W76155  14.395  34.408  11.095
 5556W        W76156   6.385  34.319  12.576
 5557W        W76157  32.958  14.836   4.518
 5558W        W76158   2.443  23.111   3.791
 5559W        W76159  25.154  16.875  11.251
 5560W        W76160  42.102  36.847  14.568
 5561W        W76161  26.665  36.164   4.580
 5562W        W76162  19.579  43.119   4.968
 5563W        W76163  41.821  18.101   4.497
 5564W        W76164   3.910  16.090   3.657
 5565W        W76165   6.237   3.835  13.989
 5566W        W76166  18.473  37.833   2.920
 5567W        W76167  42.615   7.732   2.270
 5568W        W76168  25.232  13.970   3.235
 5569W        W76169  21.687  15.945   0.893
 5570W        W76170  41.411  17.095   2.247
 5571W        W76171  37.726  23.787   2.350
 5572W        W76172  25.566  32.229   2.282
 5573W        W76173  15.110   9.112  11.523
 5574W        W76174   8.091  41.831   2.600
 5575W        W76175  26.918  15.049   1.333
 5576W        W76176  16.107  27.652  14.484
 5577W        W76177  23.744  16.357  14.862
 5578W        W76178  43.914  39.808   0.508
 5579W        W76179   2.241  27.537  14.989
 5580W        W76180  34.308  13.409   2.862
 5581W        W76181  19.485  32.401   1.843
 5582W        W76182  19.677  34.144  12.309
 5583W        W76183   8.934  26.038   2.341
 5584W        W76184  37.054  21.155  13.970
 5585W        W76185  35.988   3.178   4.544
 5586W        W76186   1.491  22.025   0.498
 5587W        W76187  33.621  19.054  11.243
 5588W        W76188  12.428  21.204  14.948
 5589W        W76189  35.581  35.424   3.156
 5590W        W76190   6.861   4.412  10.941
 5591W        W76191  34.483  15.764   2.897
 5592W        W76192  18.592  22.946  12.919
 5593W        W76193   5.221  30.061   2.329
 5594W        W76194  25.844   3.743   0.980
 5595W        W76195  18.044  37.752  14.057
 5596W        W76196  30.850  19.499  14.054
 5597W        W76197  16.236  40.466   1.445
 5598W        W76198  16.004  17.455  13.448
 5599W        W76199  10.211  24.981   2.234
 5600W        W76200  21.507  25.669   0.889
 5601W        W76201  39.574  13.737   0.998
 5602W        W76202   4.227  19.463  10.936
 5603W        W76203  37.178  42.824  12.967
 5604W        W76204  11.319  39.997  14.761
 5605W        W76205   6.253  20.020  10.721
 5606W        W76206  19.560  16.425  13.995
 5607W        W76207   9.864   0.395  10.826
 5608W        W76208  38.998  31.854  12.009
 5609W        W76209   4.730   6.653   4.066
 5610W        W76210  12.702  16.329  14.116
 5611W        W76211   4.278  17.585  10.784
 5612W        W76212  22.580   6.938  14.576
 5613W        W76213   7.850  15.302  10.259
 5614W        W76214  10.873  18.097  11.511
 5615W        W76215  33.898  25.102  12.912
 5616W        W76216   7.925   3.422  13.903
 5617W        W76217  36.396  24.437   0.345
 5618W        W76218  29.445  14.559   3.543
 5619W        W76219  24.596  35.590   2.895
 5620W        W76220  29.860  42.070   2.591
 5621W        W76221  29.765  21.092   2.509
 5622W        W76222  26.966  15.143  14.883
 5623W        W76223  33.953  19.454   1.385
 5624W        W76224  30.278  37.202   1.253
 5625W        W76225   6.334  11.678   4.714
 5626W        W76226  22.119  17.528   2.897
 5627W        W76227  16.083  44.086   0.942
 5628W        W76228  11.757  34.044   0.917
 5629W        W76229  36.087   8.148  12.886
 5630W        W76230  25.553  27.078  10.667
 5631W        W76231  12.514   7.568   1.886
 5632W        W76232  21.904   5.370  12.832
 5633W        W76233  43.938  17.716  12.153
 5634W        W76234  34.841   3.905   3.861
 5635W        W76235  13.174  20.368   1.927
 5636W        W76236  35.095  18.675  11.284
 5637W        W76237  38.450  27.731  13.560
 5638W        W76238  36.985   6.356   4.029
 5639W        W76239  15.238  37.956   1.659
 5640W        W76240  19.465  24.748  11.125
 5641W        W76241  13.846  40.798   3.565
 5642W        W76242  41.240  41.769   0.870
 5643W        W76243  29.438  32.056   2.681
 5644W        W76244  34.771   7.439   0.936
 5645W        W76245  31.406  19.733   3.177
 5646W        W76246  17.074   2.566  13.415
 5647W        W76247  21.632  30.960   3.120
 5648W        W76248   5.230  26.560  10.951
 5649W        W76249  35.088   3.095   1.232
 5650W        W76250   3.011  15.328  14.806
 5651W        W76251  33.857  11.075   3.878
 5652W        W76252  17.241  24.971  11.498
 5653W        W76253  10.855   1.448  14.410
 5654W        W76254   6.540  39.250   4.517
 5655W        W76255  10.953  30.685  13.788
 5656W        W76256  14.247   0.955  10.544
 5657W        W76257  38.046  40.386  11.946
 5658W        W76258  19.160  36.405   2.926
 5659W        W76259   2.860  20.068   4.935
 5660W        W76260  23.517  16.850  14.993
 5661W        W76261  39.459   4.668   1.719
 5662W        W76262  27.104  33.370  13.763
 5663W        W76263   7.435  43.837  14.339
 5664W        W76264   6.685  18.579  14.775
 5665W        W76265   1.940  18.352   1.963
 5666W        W76266  33.259  16.733   4.675
 5667W        W76267  24.981  11.778  12.022
 5668W        W76268   5.448  22.027   1.885
 5669W        W76269  24.174  20.091   0.283
 5670W        W76270  40.359  41.001  12.350
 5671W        W76271  10.357   2.218   3.081
 5672W        W76272  22.591  27.604  13.568
 5673W        W76273  34.429  15.710   2.382
 5674W        W76274   9.339   0.279   4.314
 5675W        W76275  37.725   3.338  11.899
 5676W        W76276   0.083  35.939  14.057
 5677W        W76277  19.187  26.378  11.528
 5678W        W76278  27.159  34.395  14.016
 5679W        W76279   6.347   9.286  14.115
 5680W        W76280  38.020  17.655   0.477
 5681W        W76281  20.823  28.451   4.643
 5682W        W76282   3.831  25.592  12.627
 5683W        W76283  33.954   3.555   5.250
 5684W        W76284  24.567  13.404  10.540
 5685W        W76285  37.769  19.671  13.364
 5686W        W76286  25.675  30.557  11.178
 5687W        W76287   5.715  29.921  10.612
 5688W        W76288  35.137  24.006  14.688
 5689W        W76289   8.323  33.551   2.640
 5690W        W76290   9.953   3.113   3.390
 5691W        W76291  21.646  36.012   0.991
 5692W        W76292   3.005  41.989  14.460
 5693W        W76293  34.181   6.478  12.537
 5694W        W76294   3.898  31.085   3.187
 5695W        W76295   1.691  41.380   0.263
 5696W        W76296  11.426   1.894  11.885
 5697W        W76297  14.773   1.217   3.920
 5698W        W76298  32.104   0.517   3.566
 5699W        W76299  28.163  12.866   0.698
 5700W        W76300  39.208  13.754  13.508
 5701W        W76301  43.749  31.864   3.238
 5702W        W76302  13.880   8.228  11.439
 5703W        W76303  31.201   1.234   2.881
 5704W        W76304  14.615  16.284  12.054
 5705W        W76305   4.424  26.129   1.856
 5706W        W76306  12.763  34.028   1.878
 5707W        W76307  27.350  10.789  14.086
 5708W        W76308   0.068  20.978  11.951
 5709W        W76309  42.354  31.243   4.083
 5710W        W76310  22.639   0.466  12.629
 5711W        W76311  31.543   4.917  13.560
 5712W        W76312  13.389  38.347  12.446
 5713W        W76313  34.075   0.519  11.206
 5714W        W76314  25.922  28.729   2.385
 5715W        W76315  12.496   1.151  10.895
 5716W        W76316   5.729  44.843   1.889
 5717W        W76317  37.097  28.459   3.567
 5718W        W76318  36.004  44.421  14.518
 5719W        W76319  14.249  38.763   3.890
 5720W        W76320  27.236  22.208  10.612
 5721W        W76321   6.786  27.212  14.842
 5722W        W76322   7.690  39.422  14.117
 5723W        W76323  15.794  10.864  14.346
 5724W        W76324  12.445  29.944   0.937
 5725W        W76325  36.988  25.252   3.699
 5726W        W76326   4.975  35.941   1.426
 5727W        W76327   1.767  26.426   2.370
 5728W        W76328  44.804  18.053   3.246
 5729W        W76329  39.433  39.889   2.150
 5730W        W76330  43.702  44.268   1.836
 5731W        W76331   7.296  41.906   1.487
 5732W        W76332   6.298  11.437  13.365
 5733W        W76333   2.454   8.679  11.680
 5734W        W76334  26.933  34.980  10.677
 5735W        W76335  36.070  16.752   0.951
 5736W        W76336  27.927   5.194   0.905
 5737W        W76337  43.460  16.197  14.052
 5738W        W76338  25.418  40.412  12.271
 5739W        W76339   2.104  23.418  11.138
 5740W        W76340  26.236  25.995  10.441
 5741W        W76341  30.532  19.601   4.589
 5742W        W76342  30.059  34.322  11.816
 5743W        W76343  29.025   3.623   0.119
 5744W        W76344  33.683   9.831   2.732
 5745W        W76345  38.670   4.985  13.003
 5746W        W76346  12.177  14.318   4.637
 5747W        W76347   8.244  20.762  14.733
 5748W        W76348  28.491   8.373  11.430
 5749W        W76349  19.295   9.143   1.423
 5750W        W76350  38.355  41.539  14.821
 5751W        W76351  37.540  18.251   0.724
 5752W        W76352  40.877  18.216   2.899
 5753W        W76353  17.828  23.957  11.164
 5754W        W76354  14.806  27.690  14.854
 5755W        W76355  33.386  32.524  11.958
 5756W        W76356  18.116   6.032  12.073
 5757W        W76357  38.986   3.735   2.926
 5758W        W76358  24.203  32.197   2.441
 5759W        W76359   4.367   5.715  13.630
 5760W        W76360  10.934   7.184  13.376
 5761W        W76361  15.308  41.417  14.729
 5762W        W76362  35.836  24.304  11.524
 5763W        W76363   7.612  38.620  11.998
 5764W        W76364  13.623   3.881   0.817
 5765W        W76365  14.231   2.786  12.999
 5766W        W76366  11.888  13.928  12.882
 5767W        W76367   3.740  14.877   0.953
 5768W        W76368  12.080   3.175  11.391
 5769W        W76369  20.790   9.747  11.708
 5770W        W76370  27.100  29.186  11.983
 5771W        W76371  25.575  36.874   4.710
 5772W        W76372  29.862  41.546   2.584
 5773W        W76373  25.140   2.896   3.658
 5774W        W76374  40.836   8.399   3.202
 5775W        W76375  27.456   9.176   4.540
 5776W        W76376   4.046   4.819   3.356
 5777W        W76377  42.751   1.518   0.925
 5778W        W76378   3.286  31.402  12.596
 5779W        W76379  15.299  25.696  11.225
 5780W        W76380  31.939  41.833  11.510
 5781W        W76381  43.708  28.243   0.302
 5782W        W76382  24.508  42.506  11.752
 5783W        W76383  21.758  12.150  10.406
 5784W        W76384  36.727  39.992  10.817
 5785W        W76385  43.168   2.263   0.972
 5786W        W76386  39.835  19.638   1.840
 5787W        W76387  40.538  37.807  14.302
 5788W        W76388  34.693  31.136   3.805
 5789W        W76389   2.147  17.080  14.022
 5790W        W76390   2.396  34.619   3.226
 5791W        W76391  35.458  25.044   0.810
 5792W        W76392  25.789  26.067   2.758
 5793W        W76393  19.163  19.519  13.873
 5794W        W76394  19.673  36.521   1.266
 5795W        W76395  34.069  35.048   2.719
 5796W        W76396  38.713  27.112   3.792
 5797W        W76397  30.561  26.421  10.400
 5798W        W76398  39.959  21.692  10.770
 5799W        W76399   8.587   1.819  10.045
 5800W        W76400   1.198  28.705  11.407
 5801W        W76401   0.993   7.324   2.455
 5802W        W76402  15.012  38.537   1.407
 5803W        W76403  28.773  17.335   0.324
 5804W        W76404  16.822   1.982   9.780
 5805W        W76405  33.456  25.049  10.598
 5806W        W76406  18.512  16.334  14.928
 5807W        W76407  39.854   5.951   1.670
 5808W        W76408  16.075  30.488  14.173
 5809W        W76409  34.408  15.384  13.445
 5810W        W76410  16.795  20.103  12.312
 5811W        W76411  13.655   9.648  11.674
 5812W        W76412   3.762  40.082   4.227
 5813W        W76413   3.507  10.297   4.731
 5814W        W76414  13.289  33.207   2.775
 5815W        W76415  21.527  16.788  12.937
 5816W        W76416  27.982  10.006  12.075
 5817W        W76417   9.961   0.204   0.689
 5818W        W76418   2.777  33.310   3.591
 5819W        W76419  26.033  32.436   0.040
 5820W        W76420  29.092   5.731   3.365
 5821W        W76421  14.277  25.169  14.303
 5822W        W76422   3.297  43.088   3.182
 5823W        W76423  36.047  22.649   3.051
 5824W        W76424  27.563   8.821   1.581
 5825W        W76425  41.305   1.917  13.490
 5826W        W76426  44.051  41.518  11.503
 5827W        W76427   3.940  18.981   4.691
 5828W        W76428  21.646  32.578  14.398
 5829W        W76429  39.861   7.423   0.861
 5830W        W76430  18.649  30.583  11.867
 5831W        W76431  34.477  23.837   3.154
 5832W        W76432  41.246  39.808  10.649
 5833W        W76433   3.169  32.132   2.841
 5834W        W76434  24.758   4.921   3.739
 5835W        W76435   8.250   9.150  14.916
 5836W        W76436   9.764  42.289  14.733
 5837W        W76437  25.620  23.624  11.725
 5838W        W76438  37.634   4.357   3.710
 5839W        W76439  12.303   1.327   3.909
 5840W        W76440  43.262  34.923   2.996
 5841W        W76441  22.668  11.802   0.762
 5842W        W76442   8.824  17.282  13.878
 5843W        W76443  36.156  29.065  13.431
 5844W        W76444  22.121  23.024   3.682
 5845W        W76445  28.176  17.387   2.776
 5846W        W76446  13.102  44.707  14.558
 5847W        W76447  43.848  22.293   4.530
 5848W        W76448  10.636  33.958  12.817
 5849W        W76449  40.148  43.705   3.909
 5850W        W76450  41.927  14.525  13.857
 5851W        W76451  15.678   8.226  10.419
 5852W        W76452  42.325  34.190   0.793
 5853W        W76453   2.866  38.339   3.863
 5854W        W76454  42.194  12.374   3.348
 5855W        W76455   2.282  27.121   3.701
 5856W        W76456   3.474   6.331  10.288
 5857W        W76457   2.455  19.138   4.821
 5858W        W76458   9.310  24.541  10.821
 5859W        W76459  33.390   0.338   2.242
 5860W        W76460  11.419   3.235   4.288
 5861W        W76461  30.749   7.958   4.149
 5862W        W76462   8.873  44.227  12.101
 5863W        W76463  31.093  17.586  13.720
 5864W        W76464   6.987  21.260   4.396
 5865W        W76465   3.889  26.067  12.496
 5866W        W76466   3.578  33.684  10.154
 5867W        W76467  26.691  23.477   2.162
 5868W        W76468  39.580  35.464  12.060
 5869W        W76469  14.330   8.168  10.732
 5870W        W76470  35.115  40.989  11.528
 5871W        W76471  34.833  40.751  13.450
 5872W        W76472  35.937  11.797  13.544
 5873W        W76473  35.621  29.496  11.386
 5874W        W76474   8.956  44.411  10.521
 5875W        W76475   6.452  36.579   1.384
 5876W        W76476  40.362  17.773   1.714
 5877W        W76477  23.189  42.823   3.729
 5878W        W76478  14.147  28.429  12.979
 5879W        W76479   5.606  20.799  13.006
 5880W        W76480   1.407  12.333   2.264
 5881W        W76481   6.363  20.579   2.159
 5882W        W76482   2.852  28.149  13.019
 5883W        W76483   6.190   8.704  10.714
 5884W        W76484  35.435   5.197   0.838
 5885W        W76485  39.918  29.861  12.035
 5886W        W76486   1.052  39.523   2.752
 5887W        W76487  38.915  15.785  11.376
 5888W        W76488   7.415  20.465   4.537
 5889W        W76489   5.626  22.762   3.257
 5890W        W76490  44.134  25.138   4.671
 5891W        W76491  36.079  14.730  11.887
 5892W        W76492  37.567   6.004   0.259
 5893W        W76493  44.373  17.827  13.050
 5894W        W76494   4.270  25.400  13.349
 5895W        W76495   4.757  10.034   1.240
 5896W        W76496   3.250   9.385   1.659
 5897W        W76497  37.788  41.393   4.050
 5898W        W76498  37.057   4.730   4.137
 5899W        W76499   5.506  25.013  11.694
 5900W        W76500  33.457   0.831   0.788
 5901W        W76501   8.720  33.608   0.773
 5902W        W76502  42.523  43.368   2.410
 5903W        W76503  12.369   3.161   0.225
 5904W        W76504  34.003   8.835   0.222
 5905W        W76505   9.276  37.121   3.142
 5906W        W76506  17.385  37.071  10.525
 5907W        W76507   1.645   2.296   0.686
 5908W        W76508  10.688  14.300   1.850
 5909W        W76509   8.121  27.110   2.355
 5910W        W76510   3.596  27.057  13.318
 5911W        W76511  18.654  22.692   4.951
 5912W        W76512  26.095  10.302  11.081
 5913W        W76513  31.571  29.960   0.509
 5914W        W76514  23.527  15.188   0.747
 5915W        W76515  16.735  14.572  12.427
 5916W        W76516  31.475  17.517   4.713
 5917W        W76517  12.643  31.988  12.608
 5918W        W76518   7.295  44.547  13.452
 5919W        W76519  26.233  39.024  12.966
 5920W        W76520  14.667  24.941   1.774
 5921W        W76521  14.660   4.378   0.883
 5922W        W76522  23.289  30.558  13.541
 5923W        W76523  36.367   2.449  13.573
 5924W        W76524  29.948  31.899  11.148
 5925W        W76525   1.199  17.356  14.971
 5926W        W76526  15.538  27.431   3.953
 5927W        W76527   5.274   0.374   1.189
 5928W        W76528  24.673  27.324   2.193
 5929W        W76529  13.744  19.796  14.788
 5930W        W76530  44.815  40.048   4.030
 5931W        W76531  15.066  14.252  14.319
 5932W        W76532  40.773   0.795   4.084
 5933W        W76533  36.536  10.050  13.530
 5934W        W76534  25.731  38.461  13.937
 5935W        W76535  13.914  35.512  11.948
 5936W        W76536   6.624  41.042  10.732
 5937W        W76537  10.160   8.678   2.116
 5938W        W76538  19.845  17.327  13.869
 5939W        W76539  26.012   5.629  14.857
 5940W        W76540  10.732  42.280   4.381
 5941W        W76541  41.099  30.193  14.453
 5942W        W76542   8.760  44.768   4.138
 5943W        W76543  36.051  21.970   0.539
 5944W        W76544  43.508  33.587  10.671
 5945W        W76545  24.979  39.220   3.172
 5946W        W76546  33.370  11.410   0.194
 5947W        W76547  33.843  10.731  12.916
 5948W        W76548   4.847   4.231   3.802
 5949W        W76549  21.440  26.222  12.883
 5950W        W76550  44.318  13.248   1.783
 5951W        W76551   2.046  13.334  14.361
 5952W        W76552  44.522  16.824   3.164
 5953W        W76553  35.053  26.177  12.521
 5954W        W76554  35.837  29.449  14.489
 5955W        W76555  12.947  11.057   1.388
 5956W        W76556   8.947   9.224  11.161
 5957W        W76557   8.232   4.916  13.394
 5958W        W76558  30.181   9.130  11.169
 5959W        W76559  39.635  34.354  14.059
 5960W        W76560   3.419  23.975   2.436
 5961W        W76561  33.537   8.729  12.901
 5962W        W76562   2.874   0.177   1.942
 5963W        W76563  26.976  19.222   4.695
 5964W        W76564  43.802   1.302  11.576
 5965W        W76565   0.873   2.193   1.808
 5966W        W76566   2.203  41.244  11.189
 5967W        W76567  28.440  26.755   1.260
 5968W        W76568  10.160   8.950   0.642
 5969W        W76569   3.887   6.898   4.320
 5970W        W76570  29.513   1.873   3.144
 5971W        W76571  28.270   0.087   3.919
 5972W        W76572  22.108   0.877  13.900
 5973W        W76573   7.925  19.081  14.985
 5974W        W76574  34.899  29.507  10.851
 5975W        W76575  13.245   7.443   0.885
 5976W        W76576  22.677  44.434  13.461
 5977W        W76577  36.560  26.766   4.270
 5978W        W76578  12.043  28.677  12.480
 5979W        W76579   5.325  21.116   1.930
 5980W        W76580  28.885  41.532   1.142
 5981W        W76581  30.959  17.000   3.915
 5982W        W76582  22.372   8.150   1.501
 5983W        W76583  38.317  17.808   3.738
 5984W        W76584  31.268  30.976   0.910
 5985W        W76585  20.971  16.201   3.146
 5986W        W76586  10.967  33.022  12.811
 5987W        W76587   0.024  38.842   3.695
 5988W        W76588   9.117   7.256  12.549
 5989W        W76589  18.240  30.449  14.278
 5990W        W76590   9.886  10.309   2.420
 5991W        W76591   6.109  40.595   2.208
 5992W        W76592  22.733   4.028   3.835
 5993W        W76593  16.333  23.684  11.465
 5994W        W76594  30.279   3.946   1.473
 5995W        W76595  33.542  13.594   3.153
 5996W        W76596   0.360  30.150   4.098
 5997W        W76597   3.731   7.835   3.842
 5998W        W76598  36.559  39.518  10.722
 5999W        W76599  21.532  22.018   1.715
 6000W        W76600  15.221   1.839  12.043
 6001W        W76601  17.714  38.330  13.543
 6002W        W76602  20.692   5.617   3.983
 6003W        W76603   6.147  36.539   4.183
 6004W        W76604   4.359  26.185  10.782
 6005W        W76605  19.713  14.352  13.136
 6006W        W76606  44.293  30.431   2.314
 6007W        W76607  14.230  35.278   4.619
 6008W        W76608   6.883  21.643   2.807
 6009W        W76609   4.340  25.413   1.784
 6010W        W76610  19.135  22.517  13.773
 6011W        W76611   2.318   1.694   0.031
 6012W        W76612  23.232   4.010   3.689
 6013W        W76613  30.963   3.266  11.126
 6014W        W76614  38.941  33.343  10.122
 6015W        W76615  21.352  28.479  10.940
 6016W        W76616  41.885  33.952   0.785
 6017W        W76617   8.267  12.861   3.676
 6018W        W76618  14.378  35.639  12.121
 6019W        W76619  37.204  39.766  12.060
 6020W        W76620  12.788  13.890  11.128
 6021W        W76621  30.348  36.034  14.657
 6022W        W76622  22.780  30.600  13.510
 6023W        W76623  39.413   6.816   2.385
 6024W        W76624   9.031  15.823   3.270
 6025W        W76625  44.149  33.899   1.427
 6026W        W76626  13.886  18.080   0.963
 6027W        W76627  40.540  17.580  13.361
 6028W        W76628  23.227  42.773  11.003
 6029W        W76629   7.799   5.367  13.823
 6030W        W76630   8.632  29.577   1.127
 6031W        W76631  16.492  39.950  12.493
 6032W        W76632  14.700  30.869   0.400
 6033W        W76633   5.555   3.405  11.083
 6034W        W76634  12.405  11.383  13.462
 6035W        W76635  44.162  22.094   3.566
 6036W        W76636  12.560  31.673   2.371
 6037W        W76637   1.993  22.033  14.476
 6038W        W76638  38.444  42.598   1.128
 6039W        W76639   6.586  29.964   0.891
 6040W        W76640  13.414  24.665   4.242
 6041W        W76641   1.539   8.905  13.046
 6042W        W76642   1.771   1.574  12.802
 6043W        W76643  32.121  42.256   0.419
 6044W        W76644  10.592   1.122   4.068
 6045W        W76645  11.827   7.303   0.195
 6046W        W76646  29.463  16.032   1.423
 6047W        W76647  32.778  32.707  14.412
 6048W        W76648  22.205  10.365   5.486
 6049W        W76649   3.647   9.335  14.506
 6050W        W76650  29.011  14.960  12.003
 6051W        W76651  39.945  32.377  12.879
 6052W        W76652  30.386  10.320   2.743
 6053W        W76653  38.432  25.906   0.612
 6054W        W76654  42.349  36.639   0.015
 6055W        W76655   4.170  20.078   3.368
 6056W        W76656  21.574  34.472  12.176
 6057W        W76657  12.128   8.061  12.404
 6058W        W76658  29.912  33.413  12.483
 6059W        W76659  22.605  38.170  12.396
 6060W        W76660  35.021  24.201  12.234
 6061W        W76661  16.632  12.593   1.638
 6062W        W76662  15.910  36.534   2.149
 6063W        W76663   3.698   2.718  12.998
 6064W        W76664  27.472  38.282  11.172
 6065W        W76665   6.196  30.106  13.436
 6066W        W76666  19.911   5.627   3.045
 6067W        W76667   7.735  21.168  10.843
 6068W        W76668  42.065   7.440  12.371
 6069W        W76669   0.005  26.726   3.254
 6070W        W76670  17.958  13.861   2.384
 6071W        W76671  20.695   8.132   1.412
 6072W        W76672  20.416  41.515  11.187
 6073W        W76673   6.240  32.181  10.777
 6074W        W76674  10.390  17.774   2.006
 6075W        W76675  10.386  20.060  13.057
 6076W        W76676  38.954  28.613   4.708
 6077W        W76677   1.855  11.503  13.414
 6078W        W76678  23.288  33.278   4.263
 6079W        W76679  34.383  33.942   1.156
 6080W        W76680  11.362  31.645  13.450
 6081W        W76681  26.917  19.958   4.189
 6082W        W76682   2.507  10.452  12.897
 6083W        W76683  17.985  15.597  12.706
 6084W        W76684   8.167   1.646  14.896
 6085W        W76685  35.439   0.216   2.369
 6086W        W76686   7.200  40.514  14.373
 6087W        W76687  27.970  33.458   0.474
 6088W        W76688  36.055  17.603  14.835
 6089W        W76689  20.940  35.352   4.082
 6090W        W76690  11.119  43.838  10.732
 6091W        W76691  44.655  31.623  11.123
 6092W        W76692   6.622  41.526  14.349
 6093W        W76693  16.655  29.730   4.653
 6094W        W76694   2.735  28.337  11.647
 6095W        W76695  35.763  40.406  11.802
 6096W        W76696  20.719  37.454  10.148
 6097W        W76697  22.014  30.217  12.549
 6098W        W76698  24.702   8.620   2.329
 6099W        W76699  30.945  28.770  11.967
 6100W        W76700  12.062   5.389   3.181
 6101W        W76701  16.096  38.066  12.539
 6102W        W76702  32.129   0.851  13.930
 6103W        W76703   3.895   3.632  13.945
 6104W        W76704   0.330  44.254  13.044
 6105W        W76705  30.977  25.142   4.161
 6106W        W76706   5.077  24.959   2.387
 6107W        W76707  23.797  24.154   4.408
 6108W        W76708  33.191  34.906   4.364
 6109W        W76709  32.664  27.552  12.306
 6110W        W76710  38.525   3.981   4.650
 6111W        W76711  44.058  23.133   4.005
 6112W        W76712  24.633   6.773  13.002
 6113W        W76713  25.829  29.469  13.932
 6114W        W76714  30.951  12.381  14.945
 6115W        W76715  22.210  30.700  12.602
 6116W        W76716  20.055  40.718  10.604
 6117W        W76717  26.352  42.792   3.485
 6118W        W76718  34.012  44.004  12.022
 6119W        W76719  24.443  36.430  13.942
 6120W        W76720  12.861  41.428   0.016
 6121W        W76721  17.320  19.808  14.268
 6122W        W76722   2.335  10.308   5.414
 6123W        W76723  15.517  16.622  14.449
 6124W        W76724  39.305  19.817   1.217
 6125W        W76725  16.572   6.941  14.858
 6126W        W76726  39.980   8.681   1.535
 6127W        W76727  17.380  25.614   1.195
 6128W        W76728  26.982  33.210  14.261
 6129W        W76729  41.544  13.610   3.905
 6130W        W76730  10.904   4.352  11.065
 6131W        W76731  32.275  18.111  12.614
 6132W        W76732  13.131   9.131  13.943
 6133W        W76733  42.040  35.622  10.320
 6134W        W76734   7.102   3.676   3.074
 6135W        W76735  30.654  43.099   3.811
 6136W        W76736  19.592  30.989   4.711
 6137W        W76737  15.734   5.731   1.275
 6138W        W76738  42.075  29.680   1.133
 6139W        W76739  24.594  37.418   3.139
 6140W        W76740  30.960   5.764   4.206
 6141W        W76741  21.802  17.972   1.850
 6142W        W76742   7.586   2.138   5.011
 6143W        W76743   7.338  24.863  12.075
 6144W        W76744  25.404  25.085   0.615
 6145W        W76745  32.693  16.833   1.648
 6146W        W76746  10.888  44.504  12.201
 6147W        W76747  24.995  14.254   1.256
 6148W        W76748  25.819  44.914   1.842
 6149W        W76749  23.982  16.037   4.522
 6150W        W76750  29.837   9.684   0.815
 6151W        W76751  27.114  13.848  13.616
 6152W        W76752  16.962   6.413   2.382
 6153W        W76753  14.310   4.373  13.832
 6154W        W76754  40.590  35.381  11.162
 6155W        W76755  44.685   8.463  11.443
 6156W        W76756  20.238  10.912  12.533
 6157W        W76757  37.443   1.822  14.039
 6158W        W76758  16.099  12.638   5.073
 6159W        W76759   0.610   8.787   2.838
 6160W        W76760   3.152   2.692  11.096
 6161W        W76761  41.442  26.738  12.529
 6162W        W76762  26.506  31.530   4.555
 6163W        W76763  37.789  10.181   3.306
 6164W        W76764  36.032  40.565  11.387
 6165W        W76765   3.939  37.747   2.482
 6166W        W76766  38.366  31.094   1.630
 6167W        W76767  22.443   7.685  12.966
 6168W        W76768  33.584  40.500  14.792
 6169W        W76769  22.744  30.607  12.624
 6170W        W76770  24.894   0.838   3.566
 6171W        W76771  30.155   9.946  10.596
 6172W        W76772   0.873   4.672  10.675
 6173W        W76773  16.051  33.414   4.117
 6174W        W76774  38.831  36.634  10.664
 6175W        W76775  23.715  12.445  12.947
 6176W        W76776  24.368  17.997  12.059
 6177W        W76777  43.683  21.049   2.711
 6178W        W76778  16.762  44.721  14.030
 6179W        W76779   7.724  34.492   2.723
 6180W        W76780  38.085  22.087  13.533
 6181W        W76781  10.157  30.226  13.414
 6182W        W76782  32.525   5.763   0.320
 6183W        W76783  40.520  11.015  11.257
 6184W        W76784  33.062  44.519  11.443
 6185W        W76785  20.761  38.430  14.074
 6186W        W76786  18.045  42.066  10.680
 6187W        W76787   4.739  12.411  14.012
 6188W        W76788  26.655  36.677   2.127
 6189W        W76789  32.710  38.725   0.058
 6190W        W76790  14.146   0.693   1.740
 6191W        W76791  12.177  41.023   4.552
 6192W        W76792   4.193  17.554   2.187
 6193W        W76793   0.460   3.186   0.908
 6194W        W76794   0.069  27.239   3.142
 6195W        W76795  22.160  40.918   2.881
 6196W        W76796  23.929  22.969  12.909
 6197W        W76797  20.521  23.028   1.318
 6198W        W76798  34.909  29.613   3.378
 6199W        W76799  41.379  33.064   3.606
 6200W        W76800  42.125  23.562   3.782
 6201W        W76801  27.558  19.786   4.651
 6202W        W76802  19.537  23.609  14.473
 6203W        W76803  30.196  10.641  12.862
 6204W        W76804   9.351   0.177  13.983
 6205W        W76805  37.335  10.268  11.519
 6206W        W76806  41.183  10.073   2.079
 6207W        W76807  17.797  36.101  13.454
 6208W        W76808   5.843   0.929   1.190
 6209W        W76809  30.169  30.991  14.519
 6210W        W76810  42.837  39.015   1.558
 6211W        W76811   7.995   2.690  12.783
 6212W        W76812  28.932   0.178   3.150
 6213W        W76813   2.944  26.504   3.217
 6214W        W76814  35.304  10.064   3.167
 6215W        W76815  39.234  13.660   2.007
 6216W        W76816   5.530   7.974  14.812
 6217W        W76817  22.019  39.483   1.103
 6218W        W76818  29.700   9.763  10.753
 6219W        W76819  42.831  20.752  12.829
 6220W        W76820  38.546  23.731  11.604
 6221W        W76821  32.676  39.354   2.404
 6222W        W76822  37.412   8.253   3.346
 6223W        W76823  22.582  25.020   2.962
 6224W        W76824  13.112   4.914  11.660
 6225W        W76825   9.192  16.346   3.221
 6226W        W76826   7.693   9.677  11.537
 6227W        W76827  44.020  21.698  10.374
 6228W        W76828  25.922  39.312  10.270
 6229W        W76829  23.538  44.175   2.306
 6230W        W76830  31.104  13.542   2.361
 6231W        W76831  31.078  11.416   4.688
 6232W        W76832   3.879  37.991  11.543
 6233W        W76833  32.000   7.332   3.296
 6234W        W76834  36.968   0.713  13.065
 6235W        W76835  21.595  22.270   2.723
 6236W        W76836  43.865  20.598   2.379
 6237W        W76837  42.459   6.151   2.783
 6238W        W76838   0.480  26.502  14.385
 6239W        W76839  24.731   9.121   0.197
 6240W        W76840   5.758  36.059  11.672
 6241W        W76841  11.226   2.754  10.531
 6242W        W76842  15.057  11.840   0.720
 6243W        W76843  34.971   6.170  12.802
 6244W        W76844   8.845   3.920   0.487
 6245W        W76845   4.039  12.815   9.928
 6246W        W76846  20.527   5.711   4.984
 6247W        W76847  12.608  14.713   0.058
 6248W        W76848   1.939  10.354   0.764
 6249W        W76849   3.673   9.300   1.940
 6250W        W76850  24.215  27.764  12.504
 6251W        W76851  12.517  44.986  13.504
 6252W        W76852  28.201  19.699   1.125
 6253W        W76853  36.378  17.814  13.572
 6254W        W76854  28.735  16.706   4.300
 6255W        W76855  14.848   9.235  11.951
 6256W        W76856  12.940  29.124  12.307
 6257W        W76857   1.827  27.018   3.247
 6258W        W76858  35.069  41.350   5.059
 6259W        W76859  40.185  35.517   3.621
 6260W        W76860   1.052   4.203   3.642
 6261W        W76861  14.594  18.121   3.670
 6262W        W76862   2.636  21.327   4.420
 6263W        W76863   9.204  13.113   0.335
 6264W        W76864  16.049   0.876  10.728
 6265W        W76865  26.683  36.415   1.314
 6266W        W76866  43.276  10.613   2.829
 6267W        W76867   6.894  38.363   4.424
 6268W        W76868  25.937  39.267  13.738
 6269W        W76869  13.253   1.324  10.674
 6270W        W76870  34.876  32.985   3.248
 6271W        W76871  30.419  26.168  11.832
 6272W        W76872   8.101  19.522   0.729
 6273W        W76873  42.261  10.698  10.698
 6274W        W76874   1.890  25.083   4.691
 6275W        W76875   8.146  33.921  12.536
 6276W        W76876   0.922  42.435  14.579
 6277W        W76877   1.487  40.813   0.266
 6278W        W76878  34.359  16.762  11.069
 6279W        W76879  10.290  11.729   3.548
 6280W        W76880  14.534  11.387   2.107
 6281W        W76881  20.551   2.401  14.116
 6282W        W76882  10.586  41.294  12.974
 6283W        W76883  20.319   6.897   1.641
 6284W        W76884  36.167  16.300  13.408
 6285W        W76885  40.401  43.306  13.344
 6286W        W76886  35.486  38.288  12.811
 6287W        W76887   0.917  37.062  11.480
 6288W        W76888  20.110  38.528  13.765
 6289W        W76889   8.649  24.116   1.386
 6290W        W76890   7.239  27.769   3.278
 6291W        W76891   4.940  32.298   2.365
 6292W        W76892  30.356  15.209   1.133
 6293W        W76893   9.837  23.571  13.618
 6294W        W76894  30.361   7.675  12.257
 6295W        W76895  18.092  42.365  14.960
 6296W        W76896  39.995  22.510   3.136
 6297W        W76897   5.836  26.623   3.722
 6298W        W76898   8.530  16.168   3.979
 6299W        W76899  22.502  29.564   0.767
 6300W        W76900  43.968   4.860  11.137
 6301W        W76901   3.890  33.584   2.679
 6302W        W76902  26.441  38.870  12.516
 6303W        W76903  15.556   8.295  13.770
 6304W        W76904  33.457  13.217   0.816
 6305W        W76905  43.388   9.390  11.428
 6306W        W76906  44.423  31.207  12.900
 6307W        W76907  31.989  40.313   1.264
 6308W        W76908   3.965  18.033  10.909
 6309W        W76909  37.003  19.792   3.237
 6310W        W76910   5.422  19.667   0.506
 6311W        W76911  17.156  22.076  12.200
 6312W        W76912  24.285  15.690   3.322
 6313W        W76913  37.307  26.897  10.759
 6314W        W76914   1.331  28.437  10.581
 6315W        W76915   2.834  29.189   1.011
 6316W        W76916  35.948   9.276   4.832
 6317W        W76917  43.963  22.254   3.111
 6318W        W76918   1.398  39.892   1.234
 6319W        W76919  40.541  24.833   4.723
 6320W        W76920   2.675  39.872  11.976
 6321W        W76921   3.656  30.923   2.361
 6322W        W76922  28.045  27.010  11.116
 6323W        W76923  39.407  34.174  13.332
 6324W        W76924  16.506  19.853  14.010
 6325W        W76925  37.689   4.263  14.931
 6326W        W76926  42.538  32.560   3.286
 6327W        W76927  29.364  37.208   4.007
 6328W        W76928  37.344  19.233  10.452
 6329W        W76929  32.573  30.984  11.601
 6330W        W76930  19.748   9.651  13.423
 6331W        W76931  32.517   9.276   4.890
 6332W        W76932  37.539  23.911   2.831
 6333W        W76933  30.430   8.400  10.677
 6334W        W76934  37.150   3.207  12.958
 6335W        W76935  39.478  18.821  13.443
 6336W        W76936   9.585  33.642   4.863
 6337W        W76937  41.954  40.870   4.596
 6338W        W76938   6.819  21.340   2.364
 6339W        W76939  11.583  18.119   0.260
 6340W        W76940   5.772  23.742   2.065
 6341W        W76941   3.122  28.192  12.555
 6342W        W76942  42.849  10.149  13.538
 6343W        W76943  10.529  35.302  12.537
 6344W        W76944   2.639  33.933  12.171
 6345W        W76945  36.003  40.351   1.417
 6346W        W76946  31.467   8.838   3.238
 6347W        W76947   6.632  35.843   3.768
 6348W        W76948   6.137  37.645  14.721
 6349W        W76949  25.287  19.095  11.700
 6350W        W76950  26.664   1.020  11.516
 6351W        W76951  25.654  10.916  13.186
 6352W        W76952  16.908  34.445   2.666
 6353W        W76953  13.190  36.336  10.581
 6354W        W76954  27.617   4.773  11.640
 6355W        W76955  25.640  44.989   1.156
 6356W        W76956  14.520   4.892   0.944
 6357W        W76957  22.544  44.194   0.980
 6358W        W76958  20.275  28.256   3.665
 6359W        W76959  29.743   5.823  13.360
 6360W        W76960  26.648  40.531   4.144
 6361W        W76961  34.778  17.899  11.549
 6362W        W76962  12.658  28.320  14.814
 6363W        W76963  35.644  18.237   1.934
 6364W        W76964  11.729  27.292  12.497
 6365W        W76965  11.824  15.665  13.450
 6366W        W76966   4.364  35.793  13.920
 6367W        W76967  37.743  39.482  14.862
 6368W        W76968  30.072  40.148   3.689
 6369W        W76969  37.494  18.754  12.195
 6370W        W76970  11.379  44.522   0.741
 6371W        W76971  29.451  37.459   0.237
 6372W        W76972  29.108   5.371  10.623
 6373W        W76973   5.131   9.445  12.507
 6374W        W76974  35.404   3.519  13.735
 6375W        W76975  42.202   1.599   1.884
 6376W        W76976  30.167  31.427  14.770
 6377W        W76977  25.247  11.708   3.157
 6378W        W76978   9.373  34.312  14.052
 6379W        W76979  18.275  28.091   4.827
 6380W        W76980   6.873  30.743   2.019
 6381W        W76981   8.462  44.847  11.711
 6382W        W76982  33.880  41.958  12.203
 6383W        W76983  16.516  21.437  14.832
 6384W        W76984  12.414  22.609   3.774
 6385W        W76985  39.505   0.927  14.221
 6386W        W76986   1.949  38.511   1.199
 6387W        W76987  31.155  26.318   4.708
 6388W        W76988  12.587  32.469   3.772
 6389W        W76989  18.497  10.210   2.069
 6390W        W76990  16.263   5.240  12.671
 6391W        W76991  33.502  40.584   4.563
 6392W        W76992  20.723  30.132   3.109
 6393W        W76993  37.584  18.633   1.861
 6394W        W76994   9.936  16.092  14.297
 6395W        W76995  32.110  10.626   3.880
 6396W        W76996  11.458   4.471  11.157
 6397W        W76997  12.834  44.475  11.348
 6398W        W76998  19.145   2.193   2.751
 6399W        W76999  21.749  24.057  11.665
 6400W        W77000  15.388  17.130  10.725
 6401W        W77001  36.475  14.714  10.482
 6402W        W77002  36.004   8.338   3.103
 6403W        W77003  21.713  37.223  12.035
 6404W        W77004  27.613  27.904  12.118
 6405W        W77005  22.488  26.970  10.769
 6406W        W77006  11.032  22.179   0.357
 6407W        W77007  21.784  36.342  14.420
 6408W        W77008   0.691   2.468   2.758
 6409W        W77009  28.840  33.480  12.505
 6410W        W77010  29.928  12.646   1.332
 6411W        W77011  21.527  22.129  12.503
 6412W        W77012  44.014  29.054   1.370
 6413W        W77013  44.533  20.807   0.374
 6414W        W77014  20.829  36.084   2.308
 6415W        W77015  18.661  14.740   1.371
 6416W        W77016  22.341  21.641   1.528
 6417W        W77017  13.877   2.527   0.933
 6418W        W77018   1.950  33.634   1.823
 6419W        W77019  25.964  30.566   4.604
 6420W        W77020  34.279   6.204   2.264
 6421W        W77021  38.654  15.018  14.748
 6422W        W77022  36.449  27.324   3.216
 6423W        W77023  24.673   7.031   3.561
 6424W        W77024  22.949  17.569  12.172
 6425W        W77025  24.067  32.322  10.997
 6426W        W77026  16.006  43.273   2.430
 6427W        W77027  24.281  42.550   3.367
 6428W        W77028  42.034  27.076   1.669
 6429W        W77029  31.216   3.887  13.568
 6430W        W77030  14.583  15.237   0.937
 6431W        W77031  24.603  11.105   1.390
 6432W        W77032  14.193  40.319  11.494
 6433W        W77033   2.898   2.220  14.374
 6434W        W77034  31.949  19.011  14.437
 6435W        W77035  30.018  14.812  14.565
 6436W        W77036  17.266   2.958  12.033
 6437W        W77037  13.836  30.704  10.665
 6438W        W77038  43.394  26.127  14.227
 6439W        W77039  15.370  20.072   3.779
 6440W        W77040  28.581   3.543   1.272
 6441W        W77041  40.286   5.739   0.805
 6442W        W77042  25.253  24.554   1.744
 6443W        W77043   3.317  22.733   2.825
 6444W        W77044  33.521  21.086  14.972
 6445W        W77045  22.029  17.434  14.226
 6446W        W77046  14.694  24.086  13.079
 6447W        W77047  21.841  30.996  12.353
 6448W        W77048   2.923  26.740  11.117
 6449W        W77049  44.410   8.413  12.579
 6450W        W77050  40.747  17.460   1.146
 6451W        W77051  28.638  27.337  11.236
 6452W        W77052  34.148  44.017   2.403
 6453W        W77053  36.491   7.119  14.909
 6454W        W77054  27.217  15.852  12.007
 6455W        W77055  17.177  27.747   4.832
 6456W        W77056  16.547   4.148   1.448
 6457W        W77057  36.529  22.995  11.845
 6458W        W77058  13.241  24.811   2.869
 6459W        W77059   0.694  30.910   0.574
 6460W        W77060   2.744  16.159  11.914
 6461W        W77061  39.320   6.651   1.412
 6462W        W77062   1.262   5.032   3.797
 6463W        W77063  28.564   1.333  12.044
 6464W        W77064   5.547   3.653  13.234
 6465W        W77065   0.923  13.092   0.059
 6466W        W77066  44.050  25.494   1.349
 6467W        W77067   6.287  20.066   2.165
 6468W        W77068  37.116  17.810  11.200
 6469W        W77069  27.507  28.863   2.352
 6470W        W77070  37.937  43.790  11.125
 6471W        W77071   7.281  19.763  12.553
 6472W        W77072  35.004  36.574  12.697
 6473W        W77073  24.906   0.026  11.720
 6474W        W77074  39.939  27.953  14.895
 6475W        W77075  18.666  17.021   0.455
 6476W        W77076  43.242  34.443  13.202
 6477W        W77077  11.047  24.508   4.953
 6478W        W77078  11.437  39.316   2.753
 6479W        W77079  20.252  18.850  12.955
 6480W        W77080  43.692   0.239  11.106
 6481W        W77081  33.056  43.543  14.090
 6482W        W77082  13.269  29.983   4.371
 6483W        W77083  15.625  21.779  11.592
 6484W        W77084  31.090  33.022   0.817
 6485W        W77085  29.486  16.510  11.654
 6486W        W77086  31.689   2.591   0.416
 6487W        W77087  30.950  38.245   4.708
 6488W        W77088  10.700   1.476   4.998
 6489W        W77089  27.642  10.594  12.714
 6490W        W77090  17.407   7.633  11.680
 6491W        W77091  17.195   0.212  10.996
 6492W        W77092   6.527  21.158  14.845
 6493W        W77093  14.644  35.420   2.736
 6494W        W77094   8.927  20.912  11.970
 6495W        W77095  41.838  27.741   4.127
 6496W        W77096  23.779   9.620   2.334
 6497W        W77097  44.913  38.757  12.591
 6498W        W77098  13.355  30.155   0.866
 6499W        W77099   2.265  44.785  10.772
 6500W        W77100  29.212   9.683  13.535
 6501W        W77101  35.963  39.531  11.655
 6502W        W77102  30.965  42.958  10.589
 6503W        W77103   4.896  19.081  14.883
 6504W        W77104  17.649   0.719  12.032
 6505W        W77105   3.277  24.368   2.104
 6506W        W77106  23.094  39.262  10.666
 6507W        W77107   0.723  22.569  11.511
 6508W        W77108  31.833  21.241  11.547
 6509W        W77109  31.304  22.627  13.832
 6510W        W77110  41.877  28.416   0.241
 6511W        W77111   5.536   6.799   2.443
 6512W        W77112  44.101   9.710  13.827
 6513W        W77113  15.175   1.677   0.278
 6514W        W77114   8.349  16.575  11.174
 6515W        W77115  42.824  17.727  12.794
 6516W        W77116   7.530   6.303   2.833
 6517W        W77117  13.642  17.027   2.644
 6518W        W77118  31.532  10.870  10.563
 6519W        W77119  21.165   3.926   2.957
 6520W        W77120  18.803  26.567   2.136
 6521W        W77121  11.260  11.861  11.947
 6522W        W77122  35.617  44.441   2.819
 6523W        W77123  38.384  21.709  12.908
 6524W        W77124  12.071   1.125   0.787
 6525W        W77125  22.335  18.270  11.107
 6526W        W77126  12.359   3.683  13.121
 6527W        W77127  43.421  36.449  14.506
 6528W        W77128  32.519  38.156  13.805
 6529W        W77129   7.155  15.088  11.464
 6530W        W77130   0.341   6.400  14.080
 6531W        W77131   7.062  21.320   3.765
 6532W        W77132  17.327   7.413  10.212
 6533W        W77133  36.924  17.601   4.213
 6534W        W77134  12.798  20.634  13.827
 6535W        W77135  19.189  35.115  12.943
 6536W        W77136  19.995   0.019   3.122
 6537W        W77137  25.121  14.321  11.222
 6538W        W77138   5.209  15.921  12.857
 6539W        W77139  27.474   7.674   0.085
 6540W        W77140   8.418  38.811  11.626
 6541W        W77141  15.104  21.636  11.989
 6542W        W77142   2.476   3.453   4.588
 6543W        W77143   7.601   2.953  12.959
 6544W        W77144  23.492  43.205   1.770
 6545W        W77145  32.501  35.638   2.424
 6546W        W77146   4.491  39.330   4.771
 6547W        W77147  35.059  44.873  11.273
 6548W        W77148   3.736  36.171   2.679
 6549W        W77149  14.896   3.012  13.598
 6550W        W77150  28.945  23.976   1.878
 6551W        W77151  20.021  21.692   2.804
 6552W        W77152   3.921   3.411   4.125
 6553W        W77153  14.165   7.447   1.354
 6554W        W77154  40.889  13.128   3.280
 6555W        W77155  15.374  38.894   5.096
 6556W        W77156  41.966   7.005   4.104
 6557W        W77157   3.542  40.793  10.899
 6558W        W77158   0.761   0.193  12.585
 6559W        W77159  43.857  21.579   4.996
 6560W        W77160  30.243   6.266   1.874
 6561W        W77161  31.456  20.341   2.766
 6562W        W77162   4.669  25.615  12.524
 6563W        W77163   1.226  41.083  13.041
 6564W        W77164   3.800   5.163  10.731
 6565W        W77165   2.186  22.560   0.344
 6566W        W77166  29.835  18.848  12.618
 6567W        W77167  43.855  36.677   2.273
 6568W        W77168   7.619   6.730   4.834
 6569W        W77169   2.267  12.069   0.770
 6570W        W77170  10.737  26.175  12.536
 6571W        W77171  13.722  39.366   2.802
 6572W        W77172  44.467  22.865   0.167
 6573W        W77173  43.247  20.198  12.525
 6574W        W77174  26.133   7.298  13.373
 6575W        W77175  15.753  24.288   2.765
 6576W        W77176  36.782  39.084  10.502
 6577W        W77177  38.502  12.504   3.627
 6578W        W77178  26.425  10.656   4.310
 6579W        W77179  34.376   2.311  12.978
 6580W        W77180  38.921  37.065  10.358
 6581W        W77181  36.952  14.609   5.000
 6582W        W77182  23.654  41.055   3.347
 6583W        W77183  35.475  25.645  12.598
 6584W        W77184  37.289  25.240  11.064
 6585W        W77185  15.828  42.247  12.824
 6586W        W77186  14.601  12.934   2.534
 6587W        W77187  29.243   7.915  14.432
 6588W        W77188  37.358  28.757   2.273
 6589W        W77189  18.086  33.913   1.072
 6590W        W77190  33.905  31.142   4.212
 6591W        W77191  32.609  20.066  10.462
 6592W        W77192  17.021  41.044   4.124
 6593W        W77193  44.051  26.352  10.846
 6594W        W77194  30.374  11.783  12.432
 6595W        W77195   0.879  34.204   4.090
 6596W        W77196  11.395   6.801  12.709
 6597W        W77197  16.892   8.319   4.027
 6598W        W77198  33.054  22.675   0.428
 6599W        W77199  24.130  13.541  14.458
 6600W        W77200  14.486  26.590   3.638
 6601W        W77201  10.417  42.761  10.663
 6602W        W77202  39.771  25.564   3.829
 6603W        W77203  17.004   4.408   1.439
 6604W        W77204  20.489  22.091  13.595
 6605W        W77205  30.512   5.265  11.535
 6606W        W77206  41.096  32.384   2.228
 6607W        W77207  22.544  37.654  12.232
 6608W        W77208  21.804  35.869  11.575
 6609W        W77209  43.668  23.940   3.963
 6610W        W77210  30.109  38.352   3.311
 6611W        W77211  12.788   9.752   4.236
 6612W        W77212   3.867   4.107  12.146
 6613W        W77213  34.085  39.743   2.192
 6614W        W77214   3.430   4.291   1.328
 6615W        W77215  28.118   3.925   5.104
 6616W        W77216   2.246  43.564  14.779
 6617W        W77217  40.835  26.260   1.789
 6618W        W77218  26.982  15.525   1.129
 6619W        W77219  19.990  44.749  12.931
 6620W        W77220  29.394  22.302   2.749
 6621W        W77221  32.577  31.807  11.982
 6622W        W77222   5.197  16.770   2.884
 6623W        W77223  23.197  34.451   1.399
 6624W        W77224  21.447   5.415   0.814
 6625W        W77225  10.078   8.434  11.142
 6626W        W77226   5.837  18.264  10.556
 6627W        W77227  42.080  30.385   9.872
 6628W        W77228  40.371  12.581  12.990
 6629W        W77229  21.602  10.206  12.591
 6630W        W77230  38.624  40.143   4.290
 6631W        W77231  18.269   0.995  11.338
 6632W        W77232  33.989  36.379   1.854
 6633W        W77233   7.723  26.026  13.264
 6634W        W77234   2.400  11.831   4.854
 6635W        W77235  14.653  12.686   1.434
 6636W        W77236  35.792  13.355   4.063
 6637W        W77237   0.865  36.148   2.792
 6638W        W77238  28.264  44.445   0.012
 6639W        W77239  32.187  19.172  11.181
 6640W        W77240   7.497  12.836  14.622
 6641W        W77241  36.109  19.967   1.744
 6642W        W77242  25.341  11.519  10.727
 6643W        W77243  11.564  32.532  11.410
 6644W        W77244  44.085  26.931   3.350
 6645W        W77245   3.470  19.125   2.420
 6646W        W77246  18.208  30.773  12.597
 6647W        W77247  40.024  12.704   1.939
 6648W        W77248  23.223   1.951   5.246
 6649W        W77249  20.554  21.194  13.515
 6650W        W77250  32.169  32.990  10.367
 6651W        W77251   3.791  23.499  12.561
 6652W        W77252  15.006  24.025   0.004
 6653W        W77253  12.778   1.041   2.019
 6654W        W77254  39.550  18.893  12.914
 6655W        W77255  42.322  21.213   0.481
 6656W        W77256   0.888   0.789  14.605
 6657W        W77257   1.440  30.934  13.722
 6658W        W77258  37.554  40.329  10.498
 6659W        W77259   2.595  32.865   1.754
 6660W        W77260  33.102   8.836   2.791
 6661W        W77261  24.445  39.965   1.170
 6662W        W77262  35.386   2.013  12.610
 6663W        W77263  38.373  13.678   1.313
 6664W        W77264  35.154  36.546  11.200
 6665W        W77265  15.417  13.801  14.534
 6666W        W77266   7.963  39.930  11.097
 6667W        W77267   1.860  19.315   1.275
 6668W        W77268  19.740  33.615   0.558
 6669W        W77269  11.804   9.467  14.494
 6670W        W77270  23.538  12.390   3.276
 6671W        W77271  24.558   0.832   2.235
 6672W        W77272  24.695  25.947   0.839
 6673W        W77273  14.665  38.603   3.642
 6674W        W77274  40.556  35.330  11.893
 6675W        W77275  24.724  16.246   0.899
 6676W        W77276   3.232   7.240  10.410
 6677W        W77277  16.230  25.268  13.034
 6678W        W77278  40.982  31.741   3.108
 6679W        W77279   0.773  24.957  12.617
 6680W        W77280  42.270   1.531   2.842
 6681W        W77281   9.495   9.949   4.629
 6682W        W77282  17.378  30.665   1.781
 6683W        W77283  33.227   8.486  13.798
 6684W        W77284  26.750  24.020  10.715
 6685W        W77285  29.897  32.700   4.189
 6686W        W77286  15.135  23.562   1.210
 6687W        W77287  39.398  18.078   1.329
 6688W        W77288  41.501  13.671   1.609
 6689W        W77289  28.129  35.118   0.857
 6690W        W77290  33.571  14.648   4.951
 6691W        W77291  44.822  34.906  12.461
 6692W        W77292  10.935   2.345   1.831
 6693W        W77293   5.749  18.647  14.663
 6694W        W77294   0.472  15.848  11.948
 6695W        W77295   7.733  42.453   1.632
 6696W        W77296  38.942  43.123   4.097
 6697W        W77297  11.680   6.471  11.246
 6698W        W77298   9.414   5.309   1.296
 6699W        W77299  18.343  25.993   0.830
 6700W        W77300  42.408  22.963  12.573
 6701W        W77301  32.642  23.075  12.289
 6702W        W77302  26.173  16.345   1.334
 6703W        W77303  26.709  35.440  14.811
 6704W        W77304  29.861  22.055   0.485
 6705W        W77305   8.401  32.408  10.758
 6706W        W77306  18.841  26.647   0.837
 6707W        W77307  43.124  19.214  12.063
 6708W        W77308  37.610  12.193  11.986
 6709W        W77309  36.049  42.862  12.348
 6710W        W77310   1.792  14.864   0.782
 6711W        W77311  11.745  32.962   1.483
 6712W        W77312  25.137  37.349  13.411
 6713W        W77313  26.479  14.861   1.112
 6714W        W77314  31.956  34.570   4.202
 6715W        W77315  25.603  35.338   2.116
 6716W        W77316   1.293  29.658   0.364
 6717W        W77317  11.479  26.146  11.986
 6718W        W77318  10.563  27.750  14.685
 6719W        W77319   6.928  29.824   2.110
 6720W        W77320  32.050   8.091   0.481
 6721W        W77321  28.029   4.145   4.642
 6722W        W77322   5.525  18.782   0.966
 6723W        W77323  30.794  19.716  10.381
 6724W        W77324  42.283   7.945   2.600
 6725W        W77325  17.680  17.964   0.814
 6726W        W77326  23.227  32.130  13.844
 6727W        W77327  28.910   0.051  13.502
 6728W        W77328  12.016  13.113   4.964
 6729W        W77329  39.982  16.925   3.260
 6730W        W77330   5.421  11.243  14.472
 6731W        W77331  42.415   4.228  14.298
 6732W        W77332  33.330  17.191   1.964
 6733W        W77333  20.993  31.184   1.982
 6734W        W77334  33.655  20.259  12.548
 6735W        W77335  42.412  31.121  14.753
 6736W        W77336  24.661  43.690  13.994
 6737W        W77337  33.289  31.633  13.539
 6738W        W77338  11.513   4.294  12.007
 6739W        W77339  27.415  26.551   2.309
 6740W        W77340  31.362   5.156   2.618
 6741W        W77341  38.804  35.047  14.785
 6742W        W77342  38.805  40.919   4.609
 6743W        W77343   3.188  44.711   1.954
 6744W        W77344  20.054  21.170   2.887
 6745W        W77345  33.760  36.095  11.233
 6746W        W77346  19.552   5.333   3.694
 6747W        W77347  29.929  25.471  12.856
 6748W        W77348  18.110   6.856  11.276
 6749W        W77349   7.641  27.097  11.136
 6750W        W77350  24.787  11.338  11.554
 6751W        W77351  23.060  11.080   3.213
 6752W        W77352  43.723  25.959  13.403
 6753W        W77353  32.604  32.604   4.156
 6754W        W77354  25.788  26.481   4.390
 6755W        W77355  21.043  28.729  10.605
 6756W        W77356  22.709   5.328  11.152
 6757W        W77357  39.458  26.528   3.687
 6758W        W77358  17.684  27.587   4.774
 6759W        W77359  21.114  23.019  11.093
 6760W        W77360  38.460  19.639   4.571
 6761W        W77361   8.271  19.816  14.761
 6762W        W77362  14.242   2.434   4.226
 6763W        W77363   5.381  29.695   3.197
 6764W        W77364  39.794   1.023   1.300
 6765W        W77365  41.111   3.250   0.603
 6766W        W77366   1.551  30.351   1.652
 6767W        W77367  17.886   0.949   0.282
 6768W        W77368   2.278  36.127  14.858
 6769W        W77369  23.202  20.799   3.346
 6770W        W77370  10.270  36.518  14.321
 6771W        W77371  25.341   3.412   2.851
 6772W        W77372  36.019  34.291   4.528
 6773W        W77373  15.079  13.113  11.923
 6774W        W77374   5.152  26.651   9.837
 6775W        W77375   7.828  26.294  11.504
 6776W        W77376  13.567   8.264   0.981
 6777W        W77377   4.207  36.240  10.769
 6778W        W77378  32.279  29.036  13.471
 6779W        W77379  26.201  34.499   2.186
 6780W        W77380   8.774   8.813   2.702
 6781W        W77381  19.342  41.361  14.346
 6782W        W77382  19.319  25.509   0.339
 6783W        W77383  25.205  10.926   2.165
 6784W        W77384  12.851   2.426   1.151
 6785W        W77385   3.057   0.710   0.789
 6786W        W77386  22.782  27.953   5.090
 6787W        W77387  28.423  39.052  11.788
 6788W        W77388  39.767  41.409  14.022
 6789W        W77389  15.226   0.675  13.403
 6790W        W77390  25.922  43.293  13.638
 6791W        W77391  10.352   9.397  11.998
 6792W        W77392  39.975  15.126   4.322
 6793W        W77393  13.921  21.318   3.265
 6794W        W77394  16.192   0.512   1.256
 6795W        W77395  15.232  31.700   0.420
 6796W        W77396  10.341   3.893   0.158
 6797W        W77397   4.612   5.590  10.750
 6798W        W77398  34.307  21.095   4.181
 6799W        W77399  13.988  14.821   0.441
 6800W        W77400   6.794   4.335  12.556
 6801W        W77401  34.909  16.274  12.022
 6802W        W77402   6.252  15.576  11.598
 6803W        W77403   5.988  15.846   3.393
 6804W        W77404  23.153  43.016  12.048
 6805W        W77405  38.871   6.205  11.079
 6806W        W77406  28.661  13.669   2.852
 6807W        W77407  30.796  29.685   4.119
 6808W        W77408   8.362   4.541   2.264
 6809W        W77409  27.540  34.071   3.371
 6810W        W77410  27.113  34.100  12.531
 6811W        W77411  34.428   5.177  11.715
 6812W        W77412  42.066  40.288  13.550
 6813W        W77413  28.081  25.258  10.654
 6814W        W77414  10.354  44.453  12.157
 6815W        W77415   2.817   8.150  11.709
 6816W        W77416   6.231  25.236  11.163
 6817W        W77417  13.701  37.862   4.340
 6818W        W77418  16.628  40.632   3.824
 6819W        W77419  13.866  26.714  14.020
 6820W        W77420  35.200  41.333  11.138
 6821W        W77421  14.341   8.778  12.678
 6822W        W77422   1.756  41.041  11.084
 6823W        W77423  40.581  13.743   0.734
 6824W        W77424  31.415   1.774  13.597
 6825W        W77425   9.776  16.289  11.236
 6826W        W77426  16.239  42.408   5.215
 6827W        W77427  16.319   0.390   2.174
 6828W        W77428  36.538  25.478  12.560
 6829W        W77429   4.823  25.014   4.681
 6830W        W77430   8.866  35.478  11.657
 6831W        W77431  30.339  13.002  14.989
 6832W        W77432   4.250  11.950  12.853
 6833W        W77433  15.189  43.599  12.100
 6834W        W77434  43.746  11.309  11.061
 6835W        W77435  13.647  22.086   2.619
 6836W        W77436  21.010  14.046   3.943
 6837W        W77437  30.937  16.472   4.113
 6838W        W77438  34.959   6.705   2.282
 6839W        W77439  42.642  39.798   3.924
 6840W        W77440   2.778  33.044   4.090
 6841W        W77441  26.579   6.942   2.268
 6842W        W77442  42.614  14.041   3.121
 6843W        W77443  15.640   2.592   0.248
 6844W        W77444  13.168  31.365   4.818
 6845W        W77445  35.928  28.647  11.253
 6846W        W77446  38.473  28.831  14.579
 6847W        W77447   8.878  18.826  13.928
 6848W        W77448  23.989  13.230   1.818
 6849W        W77449  44.471   9.252   3.325
 6850W        W77450  25.916  26.183  13.439
 6851W        W77451   3.285  26.353  11.120
 6852W        W77452   2.387   1.393   3.586
 6853W        W77453   3.290  23.661  12.801
 6854W        W77454  30.266  22.676  14.026
 6855W        W77455  28.466  27.410  12.921
 6856W        W77456  26.542  31.638   0.487
 6857W        W77457  30.669  18.054  11.075
 6858W        W77458  44.783   0.388  14.801
 6859W        W77459  22.315  34.990   0.809
 6860W        W77460  15.800  30.589  10.563
 6861W        W77461  17.035  42.773  12.426
 6862W        W77462  12.976  35.497  11.113
 6863W        W77463  20.189  17.093   2.731
 6864W        W77464   8.313   4.153  11.655
 6865W        W77465   8.557  44.323  13.822
 6866W        W77466  44.419  43.801  12.954
 6867W        W77467   2.234  31.490   0.653
 6868W        W77468  30.863  38.160  10.191
 6869W        W77469  25.670  44.443   3.730
 6870W        W77470  24.587  43.828  10.587
 6871W        W77471  25.605  27.648  14.964
 6872W        W77472  17.711   4.872  11.186
 6873W        W77473  37.103  34.536   2.873
 6874W        W77474   7.706  39.062  13.253
 6875W        W77475   3.663  43.380   0.395
 6876W        W77476  25.966  17.708  14.010
 6877W        W77477   3.263  44.459   4.140
 6878W        W77478   5.643  31.157   3.715
 6879W        W77479  36.669  24.119   1.699
 6880W        W77480  24.473  24.733  14.574
 6881W        W77481  23.489  33.506  12.789
 6882W        W77482   3.468  16.688   3.940
 6883W        W77483   7.739  27.572   3.225
 6884W        W77484  13.269   6.407   4.681
 6885W        W77485  32.482  11.156   0.450
 6886W        W77486  11.148   2.807   1.836
 6887W        W77487  25.246  29.602   1.166
 6888W        W77488   6.424  17.155   4.120
 6889W        W77489  40.502   4.130   3.690
 6890W        W77490  44.510  10.572   1.276
 6891W        W77491   0.256  17.158   1.341
 6892W        W77492  35.570  10.214  13.301
 6893W        W77493  33.536   5.170   1.848
 6894W        W77494  39.160  30.119   0.231
 6895W        W77495  36.552   8.652   0.864
 6896W        W77496  35.419   3.703  14.979
 6897W        W77497  30.498   2.675  14.827
 6898W        W77498  22.398   5.383  13.031
 6899W        W77499  33.659   6.865   2.368
 6900W        W77500  20.443  31.716  13.398
 6901W        W77501  14.796  13.279  12.517
 6902W        W77502   1.243  32.103  11.654
 6903W        W77503   4.986   2.346   3.877
 6904W        W77504   3.933  19.183  12.896
 6905W        W77505   1.822  13.779  13.328
 6906W        W77506   8.003  39.600   0.530
 6907W        W77507  21.109  24.550   4.963
 6908W        W77508   2.989  19.130   3.405
 6909W        W77509  18.112  20.610   3.873
 6910W        W77510  18.287  40.513   1.196
 6911W        W77511  26.135  44.371  12.769
 6912W        W77512  15.466  26.599  12.883
 6913W        W77513  13.338   5.356   1.801
 6914W        W77514  16.891  19.626   4.849
 6915W        W77515  35.110  39.943   4.205
 6916W        W77516  36.110  11.053   2.779
 6917W        W77517  44.640  22.733  12.559
 6918W        W77518  36.456  32.631   0.497
 6919W        W77519   6.774  37.850   4.379
 6920W        W77520   9.245  21.968   0.244
 6921W        W77521  31.192  33.447   3.803
 6922W        W77522  33.606  19.019   4.209
 6923W        W77523  24.728  21.269  12.067
 6924W        W77524  44.063  26.068   4.456
 6925W        W77525  19.585   8.650  13.313
 6926W        W77526  37.597  15.063   1.918
 6927W        W77527  31.670  31.681  10.567
 6928W        W77528  36.764   2.006  11.926
 6929W        W77529  42.395  31.923   1.419
 6930W        W77530  16.565  26.498   0.224
 6931W        W77531  35.685  32.385   0.851
 6932W        W77532  23.404  13.665  14.852
 6933W        W77533  18.391  26.608  13.803
 6934W        W77534  37.266  21.515  12.120
 6935W        W77535  23.769  42.459   3.275
 6936W        W77536   9.805  12.492  13.190
 6937W        W77537  41.829  23.093   2.233
 6938W        W77538  13.167  29.552   4.613
 6939W        W77539  38.594  30.200  13.564
 6940W        W77540   3.246  15.610   0.920
 6941W        W77541   1.297  36.212  14.896
 6942W        W77542  14.116  24.915  12.592
 6943W        W77543  23.945  35.941   2.677
 6944W        W77544  19.736  29.578   0.542
 6945W        W77545   5.045   0.876  13.639
 6946W        W77546  34.420  26.190  12.914
 6947W        W77547  37.759  15.795   2.202
 6948W        W77548  40.830  29.187   1.922
 6949W        W77549  16.431  22.020   1.748
 6950W        W77550  10.793  37.388   0.489
 6951W        W77551  36.346  35.417  11.164
 6952W        W77552   6.858  23.992   2.787
 6953W        W77553  34.354  10.690  13.059
 6954W        W77554  40.298  24.852   5.182
 6955W        W77555  31.468  15.667  12.052
 6956W        W77556   1.922  43.408  10.573
 6957W        W77557  41.356  28.989  12.623
 6958W        W77558   1.277  17.326  13.932
 6959W        W77559  37.345  33.240  13.494
 6960W        W77560   3.863   7.460   2.908
 6961W        W77561  31.635   8.376   3.081
 6962W        W77562   3.304  32.122   3.801
 6963W        W77563   7.363  38.134  13.007
 6964W        W77564  17.811  43.263  14.065
 6965W        W77565  44.453  36.430  13.097
 6966W        W77566   8.886  10.186   3.191
 6967W        W77567  36.606  23.305  11.433
 6968W        W77568  32.414  12.562   3.700
 6969W        W77569  37.175  35.779  11.551
 6970W        W77570  30.975  34.622  14.182
 6971W        W77571  10.501  35.758   2.817
 6972W        W77572  19.984   9.301  11.602
 6973W        W77573  33.556  10.611   2.065
 6974W        W77574   3.034   2.344   3.685
 6975W        W77575  30.657  20.408   1.388
 6976W        W77576  10.049  26.976   2.773
 6977W        W77577  24.438  11.637  12.832
 6978W        W77578  22.134  28.513   2.513
 6979W        W77579  15.515  30.936   2.800
 6980W        W77580  36.819  43.088   3.691
 6981W        W77581   7.783  36.349   1.863
 6982W        W77582   1.964  17.855  14.896
 6983W        W77583  14.990  16.004  13.949
 6984W        W77584  15.486   7.602  11.198
 6985W        W77585   6.891  13.631  12.650
 6986W        W77586  26.611   8.311  11.131
 6987W        W77587   3.608  14.733   4.234
 6988W        W77588   4.413  11.642   4.527
 6989W        W77589  39.004  30.592   0.004
 6990W        W77590  20.632  23.113  10.947
 6991W        W77591  20.009   6.679  12.089
 6992W        W77592  33.416   9.857   0.295
 6993W        W77593  36.368  26.942   4.828
 6994W        W77594  22.650  34.766  11.292
 6995W        W77595  40.471  17.088  13.491
 6996W        W77596   8.380   7.277  11.915
 6997W        W77597  18.348  14.872   5.028
 6998W        W77598  36.394  20.632   4.758
 6999W        W77599  14.822   6.352  11.098
 7000W        W77600   8.741   2.762   0.949
 7001W        W77601  37.468   5.976   3.346
 7002W        W77602  17.202   4.692   2.758
 7003W        W77603  25.672   7.662   4.641
 7004W        W77604  16.270   0.307  12.876
 7005W        W77605  15.607  44.991   4.138
 7006W        W77606  13.287  38.489  14.370
 7007W        W77607   6.955   3.352  13.957
 7008W        W77608  10.407  31.011   3.612
 7009W        W77609  25.713   6.834  14.884
 7010W        W77610   5.429  24.037  11.707
 7011W        W77611   1.721  15.081  13.917
 7012W        W77612  32.056  29.487  13.591
 7013W        W77613  39.475  18.270  14.458
 7014W        W77614  21.169  18.975  10.474
 7015W        W77615  17.641   8.826   3.573
 7016W        W77616  40.070  13.769   3.246
 7017W        W77617   8.374  29.024   1.360
 7018W        W77618  28.238  29.271   0.190
 7019W        W77619  31.602  19.570   2.693
 7020W        W77620  33.497  36.442   4.392
 7021W        W77621   9.399  23.681  12.074
 7022W        W77622   8.744  33.183  11.917
 7023W        W77623  39.727  28.232  14.452
 7024W        W77624   1.713   6.740   1.878
 7025W        W77625  17.314   6.435  14.022
 7026W        W77626   0.398  38.435  11.037
 7027W        W77627  11.820  12.223   0.868
 7028W        W77628   6.422  29.156   5.101
 7029W        W77629   0.925   1.223  11.165
 7030W        W77630  30.586  27.768   4.082
 7031W        W77631  10.682  44.043  12.346
 7032W        W77632   3.621  35.064  13.854
 7033W        W77633  39.947  31.618   4.123
 7034W        W77634  30.197   9.204  14.018
 7035W        W77635  40.262  31.547  12.007
 7036W        W77636  26.701  34.162  12.175
 7037W        W77637  28.065  29.556  13.454
 7038W        W77638  25.607   2.855   0.234
 7039W        W77639  36.364   0.855  11.935
 7040W        W77640  14.188  37.853   4.553
 7041W        W77641  40.329  37.819   3.276
 7042W        W77642  17.225  18.329   0.839
 7043W        W77643  32.562  26.742  12.893
 7044W        W77644  15.046  39.874  12.038
 7045W        W77645  41.438  16.102  13.357
 7046W        W77646  36.564  42.437  14.798
 7047W        W77647  21.079  37.566  13.391
 7048W        W77648   6.585   8.645   1.663
 7049W        W77649  34.263  12.432   0.100
 7050W        W77650   2.330  40.968   4.352
 7051W        W77651   6.686   8.374   2.668
 7052W        W77652  42.299   1.771   1.392
 7053W        W77653  39.373  32.228   0.876
 7054W        W77654  27.712  21.246  11.413
 7055W        W77655  17.102  20.575  12.995
 7056W        W77656  43.853  24.434   0.460
 7057W        W77657  29.322  26.925   4.068
 7058W        W77658  32.616  34.118   4.209
 7059W        W77659  26.198  36.853  13.498
 7060W        W77660  38.468  18.608  13.436
 7061W        W77661  16.817   8.479  14.956
 7062W        W77662  11.724  42.962   3.021
 7063W        W77663   4.499  30.676   1.431
 7064W        W77664  19.381  11.468   3.368
 7065W        W77665   1.712   2.448   4.158
 7066W        W77666   7.297  24.954   2.765
 7067W        W77667  33.480  36.257  14.354
 7068W        W77668  20.125  25.145   0.904
 7069W        W77669  20.459  16.084   3.246
 7070W        W77670  43.922  29.141  13.846
 7071W        W77671  25.799  31.972   1.893
 7072W        W77672   5.011   5.170  13.913
 7073W        W77673   2.164  13.121  14.829
 7074W        W77674  34.280   7.755  14.217
 7075W        W77675  31.981  30.031   1.631
 7076W        W77676  37.079  41.725  12.118
 7077W        W77677  31.373  11.683   3.595
 7078W        W77678  27.253  43.814   1.845
 7079W        W77679   9.275  21.547  10.738
 7080W        W77680  22.770  11.678   4.914
 7081W        W77681   2.387  33.586  13.546
 7082W        W77682  27.089  42.575  12.520
 7083W        W77683   1.331   9.893  13.186
 7084W        W77684  40.631  19.153   4.093
 7085W        W77685  18.597  21.808   0.712
 7086W        W77686  26.420   3.388   3.637
 7087W        W77687  23.219   8.939  14.699
 7088W        W77688  18.180  23.283   0.398
 7089W        W77689  40.103   8.906  13.961
 7090W        W77690  31.993  15.854   3.623
 7091W        W77691  13.627  15.764   2.212
 7092W        W77692   0.035  25.420   0.272
 7093W        W77693  35.919  32.047  11.229
 7094W        W77694  40.433  33.652  10.261
 7095W        W77695   3.996  18.214   3.600
 7096W        W77696  25.374  32.572   2.999
 7097W        W77697  32.095  43.433  14.150
 7098W        W77698  16.502  10.845  12.821
 7099W        W77699  30.264  36.567   2.742
 7100W        W77700  42.124  18.109   3.258
 7101W        W77701   3.218  18.762  14.385
 7102W        W77702  13.198  12.191  14.877
 7103W        W77703  39.100  30.535  12.918
 7104W        W77704  26.530  39.530   0.947
 7105W        W77705  42.576  16.111   0.859
 7106W        W77706  19.600  28.755   1.426
 7107W        W77707  17.569  25.179  14.975
 7108W        W77708   5.892  43.707   4.639
 7109W        W77709  16.261  15.573   0.853
 7110W        W77710  36.961  42.981  14.997
 7111W        W77711   8.342  41.477  13.004
 7112W        W77712  21.259   5.652  10.295
 7113W        W77713  31.825  24.956  11.429
 7114W        W77714  43.473  13.033   4.431
 7115W        W77715  11.105   1.216  13.503
 7116W        W77716  22.079  37.655   1.205
 7117W        W77717  25.427  20.013  10.733
 7118W        W77718  24.394  20.247   3.742
 7119W        W77719  41.791  39.818  12.876
 7120W        W77720   3.618  39.890  13.762
 7121W        W77721  24.549  37.904   2.903
 7122W        W77722  21.829  38.320  12.601
 7123W        W77723   5.281   1.462  14.877
 7124W        W77724  19.311   9.676  10.670
 7125W        W77725  20.127  35.668  14.898
 7126W        W77726  26.397  24.177   4.063
 7127W        W77727   7.314   9.931  12.490
 7128W        W77728  35.867  18.957  11.651
 7129W        W77729  20.767  21.944   3.741
 7130W        W77730   0.403  21.137  10.186
 7131W        W77731  35.894  17.274   2.138
 7132W        W77732   1.089  40.409   0.494
 7133W        W77733   6.329  18.841   3.318
 7134W        W77734  43.892  12.233   2.549
 7135W        W77735   3.729  28.437   1.672
 7136W        W77736   5.023  23.450   0.614
 7137W        W77737  14.411  33.638   0.956
 7138W        W77738   6.819   0.198  14.320
 7139W        W77739  11.155  19.209   3.677
 7140W        W77740  20.183  30.148   3.899
 7141W        W77741  25.060  36.429   1.414
 7142W        W77742  14.383  28.450  10.719
 7143W        W77743  11.192  14.597  12.026
 7144W        W77744   3.020  11.876   1.764
 7145W        W77745  14.029  37.898  11.203
 7146W        W77746  23.044  19.026   3.578
 7147W        W77747  36.032  22.442  12.555
 7148W        W77748   5.527   0.601   2.623
 7149W        W77749  22.610  14.735  11.763
 7150W        W77750  29.585  18.315  11.203
 7151W        W77751   5.252  26.089   4.710
 7152W        W77752  36.864  10.545  10.250
 7153W        W77753  33.929   5.955   0.259
 7154W        W77754  32.654  14.164   0.375
 7155W        W77755  37.060   4.348  10.710
 7156W        W77756  15.465  11.357   2.429
 7157W        W77757  41.457  30.928   3.133
 7158W        W77758  34.220  19.246  10.448
 7159W        W77759   5.857  34.013  11.487
 7160W        W77760   2.793  40.980   4.620
 7161W        W77761  30.955  23.526  13.395
 7162W        W77762  26.014  15.119  14.885
 7163W        W77763  28.591  44.798  11.362
 7164W        W77764  26.497  31.382   2.273
 7165W        W77765  20.214   6.285  10.653
 7166W        W77766  10.619  41.783  10.033
 7167W        W77767  12.618   9.803  11.626
 7168W        W77768   6.884   7.369   4.683
 7169W        W77769  31.146  21.705   4.259
 7170W        W77770  39.825  39.706  10.691
 7171W        W77771  11.333  15.812  13.578
 7172W        W77772  33.294   6.470   2.414
 7173W        W77773  12.573   2.958  10.852
 7174W        W77774   7.805  29.635  10.737
 7175W        W77775   9.967  22.078  14.748
 7176W        W77776  14.665  35.604   4.644
 7177W        W77777  19.614   6.607   1.153
 7178W        W77778  40.001  28.592   1.217
 7179W        W77779  19.802  41.815   2.377
 7180W        W77780  14.796  39.433  12.100
 7181W        W77781  25.412   6.682   2.317
 7182W        W77782  16.474  11.697   0.163
 7183W        W77783  44.928  36.455   0.427
 7184W        W77784   7.911  24.809   2.187
 7185W        W77785  40.999  27.619  14.386
 7186W        W77786   1.339   6.391  14.328
 7187W        W77787  31.839  21.796   1.749
 7188W        W77788  22.571  22.279  14.674
 7189W        W77789  26.194  25.716   1.309
 7190W        W77790   2.683  15.379  13.998
 7191W        W77791  22.156  13.954   3.860
 7192W        W77792  38.251  25.566  13.446
 7193W        W77793  39.906  39.804   3.175
 7194W        W77794  30.429  38.747   9.815
 7195W        W77795  27.596   3.852   3.144
 7196W        W77796  42.965  35.461  14.915
 7197W        W77797  14.946  22.549  11.631
 7198W        W77798  37.917   5.716   3.322
 7199W        W77799  12.144  38.169  14.871
 7200W        W77800  42.378  17.672   2.065
 7201W        W77801  31.130  43.597   0.810
 7202W        W77802   9.337  10.292   2.849
 7203W        W77803   4.698  37.751  12.481
 7204W        W77804  18.098  18.007   3.789
 7205W        W77805  23.539   2.515  13.522
 7206W        W77806  24.973  33.110  14.535
 7207W        W77807  16.495  43.986   2.787
 7208W        W77808  16.544  16.257  13.903
 7209W        W77809   2.079  11.737   3.338
 7210W        W77810  12.644   6.792   4.242
 7211W        W77811   9.832  21.709  10.804
 7212W        W77812  43.052  10.915   1.850
 7213W        W77813  38.355   5.384   0.871
 7214W        W77814  13.664  42.413   0.370
 7215W        W77815  26.961  34.006   4.101
 7216W        W77816  25.458  31.029   2.696
 7217W        W77817  12.364  37.508  12.975
 7218W        W77818  14.208  38.708   3.362
 7219W        W77819  21.362  37.361  14.688
 7220W        W77820   2.504   8.143  14.253
 7221W        W77821  42.636  21.408  12.022
 7222W        W77822  28.571  31.641  12.092
 7223W        W77823  37.259  30.351   0.323
 7224W        W77824  30.563  28.410   0.885
 7225W        W77825  22.596  22.439  11.484
 7226W        W77826  44.821   2.837   2.347
 7227W        W77827  35.401  35.705   4.497
 7228W        W77828  44.513  14.289   4.606
 7229W        W77829  10.109   4.314   1.807
 7230W        W77830  25.188   3.770  13.843
 7231W        W77831  21.204   1.323   3.202
 7232W        W77832  11.866  43.378   1.042
 7233W        W77833   9.221   9.948  11.497
 7234W        W77834  36.543  40.519   2.878
 7235W        W77835  12.178   0.735  12.157
 7236W        W77836   9.698  34.963  12.468
 7237W        W77837  37.527  10.352   5.032
 7238W        W77838   7.456   6.732  13.144
 7239W        W77839  22.727  34.045  10.390
 7240W        W77840  11.117  21.024   4.192
 7241W        W77841  30.665  35.409  14.412
 7242W        W77842   9.745  10.380   0.799
 7243W        W77843   9.656  40.821  12.428
 7244W        W77844  43.195  12.224   2.005
 7245W        W77845  15.701  43.847  14.298
 7246W        W77846  36.908  21.267  14.479
 7247W        W77847   0.361  16.298  14.259
 7248W        W77848  43.029   6.689  10.762
 7249W        W77849   3.675  10.350  12.667
 7250W        W77850  44.372  13.275   1.245
 7251W        W77851  25.134  20.360   1.827
 7252W        W77852  42.421  35.908   2.197
 7253W        W77853  32.621  42.799   4.055
 7254W        W77854  10.336  23.973   3.784
 7255W        W77855  15.128  37.998   2.694
 7256W        W77856  12.538  30.863  14.842
 7257W        W77857  38.078  10.212   1.936
 7258W        W77858  34.362   4.862   4.564
 7259W        W77859  32.369  35.347  12.025
 7260W        W77860   0.802   3.863   0.958
 7261W        W77861   9.562   2.203  14.966
 7262W        W77862  17.679  37.072  11.520
 7263W        W77863  32.458  37.551   0.349
 7264W        W77864  42.380   6.051   0.508
 7265W        W77865   5.796   7.888  10.613
 7266W        W77866  12.292  11.646   0.251
 7267W        W77867  40.354   5.147  14.610
 7268W        W77868  34.899  11.605   2.647
 7269W        W77869  18.496  35.962  14.963
 7270W        W77870  26.660  38.008   2.934
 7271W        W77871  19.588  33.960   2.997
 7272W        W77872  26.275  32.179  11.086
 7273W        W77873  36.110  31.130  11.816
 7274W        W77874  35.144  25.002   5.139
 7275W        W77875  44.891  22.152   1.366
 7276W        W77876  25.728  41.984   0.005
 7277W        W77877  12.214  23.027  13.176
 7278W        W77878  17.383  25.801   3.588
 7279W        W77879  27.568  10.719   1.439
 7280W        W77880  21.253  13.769  11.467
 7281W        W77881  38.581  20.258   1.344
 7282W        W77882  34.800  14.667  12.530
 7283W        W77883   0.497  16.197  11.537
 7284W        W77884  38.491  28.638  11.823
 7285W        W77885  30.459   4.301   3.747
 7286W        W77886  20.918   8.404  14.449
 7287W        W77887  39.415  12.350  13.537
 7288W        W77888  35.987   0.886   4.145
 7289W        W77889  26.575   9.404  10.657
 7290W        W77890  17.613  29.894  11.474
 7291W        W77891  23.341  20.465  12.143
 7292W        W77892  13.139  38.817  13.401
 7293W        W77893  39.013  32.333  14.305
 7294W        W77894  26.161   1.225   3.363
 7295W        W77895  23.793  27.547   4.190
 7296W        W77896  18.072  28.462   3.572
 7297W        W77897  12.192   2.292  14.920
 7298W        W77898  12.266  17.753  13.035
 7299W        W77899  14.845  14.593  13.912
 7300W        W77900   7.851  17.828  14.888
 7301W        W77901  35.314  39.026  12.352
 7302W        W77902  17.340  11.266   4.146
 7303W        W77903  16.335  42.283   0.234
 7304W        W77904  42.053  40.797   0.266
 7305W        W77905  27.694  32.928  10.941
 7306W        W77906  21.608  42.035  13.863
 7307W        W77907  20.835  29.620  11.143
 7308W        W77908  41.728  10.721  10.689
 7309W        W77909  20.269  19.863  13.066
 7310W        W77910  23.597  41.515   3.097
 7311W        W77911  16.680  27.582  10.752
 7312W        W77912  16.275  20.331  11.423
 7313W        W77913  13.805  24.265  10.925
 7314W        W77914  10.381   9.408   2.849
 7315W        W77915  44.749  30.087  12.532
 7316W        W77916  21.698  26.592  10.261
 7317W        W77917  22.703   7.093   1.217
 7318W        W77918  19.113  15.546   4.271
 7319W        W77919  43.963  41.502  10.608
 7320W        W77920   1.746  34.073  13.960
 7321W        W77921  18.793  31.380   1.863
 7322W        W77922  33.182  22.957  12.037
 7323W        W77923   1.294  21.357  13.379
 7324W        W77924  26.934  33.672  12.791
 7325W        W77925   8.685  33.223   2.808
 7326W        W77926  43.000  40.763   4.226
 7327W        W77927  27.378  19.003  14.750
 7328W        W77928  33.683  16.191  13.463
 7329W        W77929  12.628   2.890  11.884
 7330W        W77930  12.399  34.637  11.659
 7331W        W77931  20.459  44.819   3.262
 7332W        W77932  38.940  36.477   1.963
 7333W        W77933  43.178  23.638  14.495
 7334W        W77934   4.286  16.787  10.920
 7335W        W77935  37.867  39.517  11.158
 7336W        W77936  23.800   3.446  13.056
 7337W        W77937  12.815  28.228   3.981
 7338W        W77938  30.201   9.500  14.473
 7339W        W77939  26.932  22.650  10.646
 7340W        W77940  29.397  17.150   4.564
 7341W        W77941  34.610   7.838  13.833
 7342W        W77942  25.701  19.067   0.911
 7343W        W77943  44.928  15.210   4.971
 7344W        W77944  13.883  30.525   2.408
 7345W        W77945  20.043  28.603  11.485
 7346W        W77946  44.414  38.044   2.861
 7347W        W77947  16.646  17.375   4.164
 7348W        W77948  30.202   4.863   2.070
 7349W        W77949  40.338  39.313  15.000
 7350W        W77950   2.870   5.258   4.522
 7351W        W77951  36.378  35.078  12.499
 7352W        W77952  32.840  36.992   4.549
 7353W        W77953  38.112  21.390   3.133
 7354W        W77954  31.341  40.446   1.995
 7355W        W77955  12.562   2.741   2.379
 7356W        W77956   3.066  43.194  11.578
 7357W        W77957   5.401  42.278   4.146
 7358W        W77958  34.546  31.239  13.901
 7359W        W77959  22.703  33.086   0.386
 7360W        W77960   0.700  21.111  11.459
 7361W        W77961  13.091   3.301   1.197
 7362W        W77962  15.021  36.539  10.836
 7363W        W77963   2.838  30.535   2.862
 7364W        W77964  40.704  17.584   0.539
 7365W        W77965  18.553  29.746   2.998
 7366W        W77966   3.935  14.071  14.372
 7367W        W77967   1.736  44.926   1.160
 7368W        W77968  42.306  12.786  13.932
 7369W        W77969  27.432  14.833  11.062
 7370W        W77970   7.303  41.826   3.763
 7371W        W77971  31.040  31.131  14.345
 7372W        W77972  42.496  26.537   4.121
 7373W        W77973   6.330  15.992   2.164
 7374W        W77974  13.246  34.332  10.108
 7375W        W77975   2.312  42.541  14.790
 7376W        W77976  17.097  24.388   1.921
 7377W        W77977  27.783   4.737   3.533
 7378W        W77978  42.122   4.466  12.092
 7379W        W77979  19.607  18.119   0.708
 7380W        W77980   8.817  43.931   0.281
 7381W        W77981  35.774  44.216   3.304
 7382W        W77982   9.381  35.854  13.808
 7383W        W77983  32.090  35.365   2.240
 7384W        W77984  11.873   8.261  13.348
 7385W        W77985  17.733  24.728   3.231
 7386W        W77986  42.689   1.747  11.157
 7387W        W77987   1.809  27.949   4.642
 7388W        W77988  12.620  35.103  13.092
 7389W        W77989   7.740   3.760  13.541
 7390W        W77990  20.493  31.517  11.142
 7391W        W77991   0.306  11.590  12.615
 7392W        W77992  30.482  41.386   4.074
 7393W        W77993  19.004  42.045   2.613
 7394W        W77994   9.189  38.211   4.243
 7395W        W77995  21.576   4.801  14.941
 7396W        W77996  36.090  12.813  12.625
 7397W        W77997   4.734   0.484  13.553
 7398W        W77998  13.442  29.748  11.489
 7399W        W77999  38.629  13.148  11.144
 7400W        W78000   1.920  23.905   2.256
 7401W        W78001  17.039   2.756   4.670
 7402W        W78002  30.520  37.412  12.638
 7403W        W78003   6.183  28.755   1.314
 7404W        W78004  27.586  31.397   1.409
 7405W        W78005  14.100  15.951   4.152
 7406W        W78006   9.817  41.777  12.875
 7407W        W78007  28.221  31.957  13.355
 7408W        W78008  28.180  20.769   3.257
 7409W        W78009  24.846  18.200  12.077
 7410W        W78010  20.741  23.369   3.617
 7411W        W78011  32.169  32.898  13.289
 7412W        W78012  24.682  33.601   3.359
 7413W        W78013  27.898  43.455  12.375
 7414W        W78014   3.025   2.045  11.117
 7415W        W78015  38.745  25.043   1.520
 7416W        W78016   1.075   8.335   0.550
 7417W        W78017  18.688   3.775  13.015
 7418W        W78018  19.502  40.776  10.734
 7419W        W78019  26.782  19.548   1.384
 7420W        W78020   4.763   5.969  12.031
 7421W        W78021  40.278  16.411   1.335
 7422W        W78022   8.094  27.908   0.734
 7423W        W78023  33.467  42.340  10.915
 7424W        W78024  22.967   2.558  14.805
 7425W        W78025  44.853   3.880   2.601
 7426W        W78026  29.442  12.758   1.466
 7427W        W78027   4.423  40.460  11.021
 7428W        W78028  41.051  23.044   4.006
 7429W        W78029  14.336   7.642  12.500
 7430W        W78030  26.079   1.347  11.482
 7431W        W78031   7.403  36.699  12.906
 7432W        W78032  29.204   0.922   3.680
 7433W        W78033  33.094  16.705  11.910
 7434W        W78034   4.956  30.143   4.342
 7435W        W78035  42.455  16.865  12.114
 7436W        W78036  13.662  43.411   3.357
 7437W        W78037  14.584   1.799  12.957
 7438W        W78038  24.142   5.937   3.812
 7439W        W78039   8.479  40.441  13.816
 7440W        W78040  39.066  43.469  10.437
 7441W        W78041  41.002  11.157  11.115
 7442W        W78042   0.173  15.626   0.940
 7443W        W78043  18.122  35.401  14.342
 7444W        W78044   5.316  40.535   4.383
 7445W        W78045   2.377  43.407   4.687
 7446W        W78046  14.693  17.594  14.349
 7447W        W78047   1.342  38.056   0.873
 7448W        W78048  17.602  25.257   3.232
 7449W        W78049  16.726  29.595   0.163
 7450W        W78050  25.664  13.248  11.008
 7451W        W78051  30.970  14.888   2.717
 7452W        W78052  13.076   9.727  12.934
 7453W        W78053   9.397  35.668   3.789
 7454W        W78054  19.648  13.705  12.466
 7455W        W78055  26.610  36.615   0.191
 7456W        W78056  24.522  11.313   1.866
 7457W        W78057  41.801  42.937   0.831
 7458W        W78058  37.074  32.381   3.827
 7459W        W78059   3.811   9.894   1.299
 7460W        W78060  30.790  32.802  10.718
 7461W        W78061  11.816  13.409  10.767
 7462W        W78062  39.450  12.215  14.495
 7463W        W78063  12.184   8.656  13.443
 7464W        W78064  28.800  39.351   1.945
 7465W        W78065  23.124  41.313   0.209
 7466W        W78066   0.541  33.818   1.840
 7467W        W78067  15.310  22.484   4.659
 7468W        W78068   4.446  39.316  13.412
 7469W        W78069  31.875  25.660  12.478
 7470W        W78070  12.634  18.588  12.975
 7471W        W78071  16.235  22.109   3.412
 7472W        W78072  35.549  28.048   4.586
 7473W        W78073   6.864  12.905  11.119
 7474W        W78074   9.685  12.585   1.360
 7475W        W78075  23.215  37.796   0.201
 7476W        W78076   5.906  42.980   4.168
 7477W        W78077   6.979  24.638   2.105
 7478W        W78078   3.937   2.475   3.021
 7479W        W78079  21.110  28.599   1.039
 7480W        W78080  15.914  15.938   5.350
 7481W        W78081  42.402  38.050   3.109
 7482W        W78082  39.808  11.855  12.463
 7483W        W78083   8.176  11.343   3.285
 7484W        W78084  32.017  20.969   2.153
 7485W        W78085  12.940   9.812  11.121
 7486W        W78086  18.645  12.791  14.448
 7487W        W78087   4.151  37.517  14.499
 7488W        W78088  13.399  19.163  11.939
 7489W        W78089  12.773  32.468   1.864
 7490W        W78090   3.966  28.449  12.177
 7491W        W78091  24.272  11.618  13.947
 7492W        W78092   3.163  14.530  11.093
 7493W        W78093   5.696  39.912   3.626
 7494W        W78094  12.814  26.506   4.316
 7495W        W78095  16.616  11.839  11.519
 7496W        W78096  24.175  27.259  12.623
 7497W        W78097  25.051  34.693  14.987
 7498W        W78098  16.872   6.658  10.736
 7499W        W78099  22.668  43.739   1.447
 7500W        W78100  34.963  44.396  13.968
 7501W        W78101  34.900  35.585  13.581
 7502W        W78102  38.408   1.768  12.998
 7503W        W78103   6.567  37.923  14.952
 7504W        W78104  34.403  10.274  14.830
 7505W        W78105  17.038  22.538   4.166
 7506W        W78106   0.981  21.596   0.910
 7507W        W78107  12.624  10.262   1.793
 7508W        W78108  22.012  34.654  13.003
 7509W        W78109  13.341  29.004  12.008
 7510W        W78110   9.198  35.180   3.740
 7511W        W78111  24.815  42.594   3.431
 7512W        W78112  32.390  39.972  13.414
 7513W        W78113  33.804  43.042   2.350
 7514W        W78114  39.313  36.584   0.504
 7515W        W78115  13.787  19.052  14.116
 7516W        W78116  16.101   3.154  11.220
 7517W        W78117   6.179  17.709   3.271
 7518W        W78118   1.441  19.336   3.234
 7519W        W78119  19.789  25.188   2.831
 7520W        W78120   2.370  35.131  12.068
 7521W        W78121  20.121   8.406   3.219
 7522W        W78122   5.609  32.981  11.183
 7523W        W78123  30.728  22.019  14.896
 7524W        W78124   9.885  25.431  13.825
 7525W        W78125  26.562  43.415   1.119
 7526W        W78126  25.046  25.692  12.415
 7527W        W78127   1.075   4.300   2.303
 7528W        W78128  41.311  24.722   2.366
 7529W        W78129  35.098  34.850   2.801
 7530W        W78130  21.491  35.911  11.958
 7531W        W78131  44.850  41.509   2.281
 7532W        W78132  38.635   6.767  13.707
 7533W        W78133   8.247  24.609   3.624
 7534W        W78134  30.882   0.984  14.855
 7535W        W78135   2.686  26.251   2.330
 7536W        W78136   8.892  37.798  12.463
 7537W        W78137  21.034  12.664   4.621
 7538W        W78138  43.268  44.367  10.645
 7539W        W78139  30.556  13.296   0.366
 7540W        W78140  16.187   3.221   1.915
 7541W        W78141  29.401   6.715  14.377
 7542W        W78142   5.583  36.105  14.499
 7543W        W78143  34.462  29.202   0.820
 7544W        W78144  30.913  39.832   0.815
 7545W        W78145  44.599  13.769  13.395
 7546W        W78146  26.475  35.096  12.129
 7547W        W78147  35.898  42.789   3.464
 7548W        W78148  23.535  18.622   0.788
 7549W        W78149  29.973  20.499   0.269
 7550W        W78150  17.273  10.820   4.823
 7551W        W78151  44.545  15.283  11.661
 7552W        W78152  26.955  35.149  11.936
 7553W        W78153  41.700  42.921  10.772
 7554W        W78154  35.787   6.634  11.967
 7555W        W78155  17.681  11.382  14.728
 7556W        W78156  34.542   8.381  12.203
 7557W        W78157  16.235  18.809  11.643
 7558W        W78158  18.047  11.251   2.911
 7559W        W78159  15.082   3.362   0.715
 7560W        W78160   9.377  12.068   2.630
 7561W        W78161  11.837  24.785  12.447
 7562W        W78162  11.754   5.434   0.452
 7563W        W78163   0.210  19.488   3.487
 7564W        W78164  26.014   1.318   0.876
 7565W        W78165  33.132  29.205   2.612
 7566W        W78166  26.425   2.885   4.822
 7567W        W78167  39.495  27.385  11.594
 7568W        W78168  13.226  27.095   2.117
 7569W        W78169   1.668  44.587  11.934
 7570W        W78170  40.727   0.269   0.731
 7571W        W78171   2.766  37.989  13.472
 7572W        W78172   4.451  35.836  12.434
 7573W        W78173  28.411   0.764  13.340
 7574W        W78174  30.575  14.705  12.121
 7575W        W78175  37.525   9.240  12.128
 7576W        W78176  34.871  16.734  13.300
 7577W        W78177   5.146   2.287  12.551
 7578W        W78178  34.886  28.149  10.410
 7579W        W78179   8.380  18.475  11.063
 7580W        W78180  30.728  18.285  12.888
 7581W        W78181   1.656  11.102  11.117
 7582W        W78182   1.499   7.227   1.805
 7583W        W78183  32.173   1.357   3.207
 7584W        W78184  20.487  17.375   4.227
 7585W        W78185  24.182   4.623   2.687
 7586W        W78186  24.150  44.773   2.281
 7587W        W78187  39.984  43.333   0.917
 7588W        W78188  11.258  41.737   2.293
 7589W        W78189  15.137  28.987   0.298
 7590W        W78190   8.281  22.016  14.046
 7591W        W78191  33.176  29.240   0.303
 7592W        W78192   3.282  21.558   3.726
 7593W        W78193   4.364   0.513  14.294
 7594W        W78194   2.284  24.131   9.908
 7595W        W78195  29.664  12.685  14.462
 7596W        W78196  40.113  14.371  14.048
 7597W        W78197   9.627  36.085  11.363
 7598W        W78198  14.876  32.409  13.465
 7599W        W78199  38.093  43.285  13.924
 7600W        W78200   4.222  17.788   3.118
 7601W        W78201  32.733   2.065  10.093
 7602W        W78202  12.475  31.380   4.273
 7603W        W78203  44.291  11.623  13.602
 7604W        W78204  21.246  23.213   4.136
 7605W        W78205  32.731   0.266  12.388
 7606W        W78206  35.470   4.169   3.792
 7607W        W78207  11.240  26.143   4.608
 7608W        W78208  19.711  16.688  11.067
 7609W        W78209  20.167  23.027   4.874
 7610W        W78210  37.638   3.378  12.942
 7611W        W78211  14.838  41.289  14.951
 7612W        W78212  16.737  37.858   3.801
 7613W        W78213  37.929  17.599  10.921
 7614W        W78214   3.559  27.922  14.131
 7615W        W78215  38.453  31.533   1.351
 7616W        W78216  17.674  16.229   1.197
 7617W        W78217   5.889   4.866   3.655
 7618W        W78218  37.796  12.877  14.775
 7619W        W78219  14.873  22.734  13.423
 7620W        W78220   4.679  25.843   2.270
 7621W        W78221  19.021   0.200  12.928
 7622W        W78222  16.592  11.241   0.476
 7623W        W78223  15.136  13.785  14.105
 7624W        W78224   5.373  18.059  11.907
 7625W        W78225  21.956  31.375   3.197
 7626W        W78226   7.759   4.101   1.711
 7627W        W78227  28.653  34.913   0.883
 7628W        W78228   5.907  35.578   0.292
 7629W        W78229  16.062  41.350   0.914
 7630W        W78230   3.675  19.247   1.896
 7631W        W78231   3.137   3.978   4.114
 7632W        W78232  22.074  44.831  13.340
 7633W        W78233  17.331  26.146   1.767
 7634W        W78234  12.915  22.658   2.568
 7635W        W78235  23.895  25.807   1.780
 7636W        W78236  12.622   7.434  11.126
 7637W        W78237  43.764  29.472   2.304
 7638W        W78238  19.991  28.862   0.466
 7639W        W78239  43.348   4.369  11.459
 7640W        W78240  31.297  11.452  10.955
 7641W        W78241   2.592  43.358  11.663
 7642W        W78242   8.774  26.424   1.351
 7643W        W78243  39.496  17.242   1.062
 7644W        W78244  15.966  36.168   5.149
 7645W        W78245  34.833  16.008   3.813
 7646W        W78246  33.796  14.755   4.110
 7647W        W78247  29.694  10.522   1.856
 7648W        W78248  32.564   5.709  11.643
 7649W        W78249   8.710  16.839   2.879
 7650W        W78250   9.711  13.589   1.971
 7651W        W78251  18.761  39.971   1.263
 7652W        W78252  32.890   2.760   2.547
 7653W        W78253   2.023  20.008  13.003
 7654W        W78254  42.112  34.637  12.096
 7655W        W78255  16.274  29.904   2.445
 7656W        W78256   8.294  16.093  11.056
 7657W        W78257  41.545   3.725   0.281
 7658W        W78258  37.155  36.406   1.276
 7659W        W78259  24.559  33.432   4.754
 7660W        W78260  26.526  28.307  10.931
 7661W        W78261  11.373   5.970   3.254
 7662W        W78262   6.610  36.552  12.450
 7663W        W78263  23.817  25.102  12.127
 7664W        W78264   3.488   3.392   4.680
 7665W        W78265  26.286  13.279   0.088
 7666W        W78266  31.318  35.680  14.991
 7667W        W78267  12.174  44.752   3.695
 7668W        W78268  14.142  24.168  12.101
 7669W        W78269  12.195  14.636   0.381
 7670W        W78270  29.805  31.269   1.409
 7671W        W78271  10.614  16.085  14.757
 7672W        W78272  43.987  10.033  14.237
 7673W        W78273  40.966  13.706  12.036
 7674W        W78274  16.047   7.613  13.412
 7675W        W78275  13.742  42.507  11.258
 7676W        W78276  33.138  19.082   0.441
 7677W        W78277  28.702  33.101   3.145
 7678W        W78278  10.449  17.033  11.115
 7679W        W78279  10.800   1.831   2.638
 7680W        W78280   5.703   0.683   0.288
 7681W        W78281   6.219  15.055  11.582
 7682W        W78282  28.652  36.835  12.586
 7683W        W78283   9.924  26.441   0.740
 7684W        W78284  41.501   8.419   0.367
 7685W        W78285  21.840  43.101   1.647
 7686W        W78286  17.238  15.197   4.100
 7687W        W78287  25.479   2.902   2.755
 7688W        W78288  19.546  32.060   1.214
 7689W        W78289  36.040  33.041   3.119
 7690W        W78290   6.169  31.682  13.094
 7691W        W78291   9.928  42.671  11.562
 7692W        W78292   2.338   9.592  12.060
 7693W        W78293  18.276   6.732   1.731
 7694W        W78294  15.288  38.069  14.252
 7695W        W78295  22.006  27.012   2.424
 7696W        W78296  31.531  43.570   4.549
 7697W        W78297  30.177   9.283   2.654
 7698W        W78298   7.933  16.211  10.710
 7699W        W78299  22.092   4.963  11.940
 7700W        W78300   1.000  27.214  13.611
 7701W        W78301  29.495  37.858  13.245
 7702W        W78302  31.476  15.164  12.959
 7703W        W78303   5.438  15.693   2.858
 7704W        W78304  42.729  39.519   1.692
 7705W        W78305   3.940   7.952   1.294
 7706W        W78306  25.367   3.832   1.893
 7707W        W78307  31.354  23.202  12.117
 7708W        W78308  16.069   2.912  12.953
 7709W        W78309  16.680  35.871   2.151
 7710W        W78310  43.963  29.994  13.604
 7711W        W78311   7.402   6.129  10.925
 7712W        W78312   4.713  25.303  12.086
 7713W        W78313  11.115  18.320  14.159
 7714W        W78314   3.050  17.156  13.687
 7715W        W78315  19.460  18.596  14.615
 7716W        W78316   1.318  42.994   3.834
 7717W        W78317  13.132  17.569   2.691
 7718W        W78318  34.052   2.726   4.609
 7719W        W78319  10.614  16.534  11.037
 7720W        W78320  30.430   3.921   4.168
 7721W        W78321  37.673   0.025  11.537
 7722W        W78322  29.346  12.439   2.214
 7723W        W78323  40.866  30.604  13.547
 7724W        W78324   6.621  27.363  14.340
 7725W        W78325  37.109  13.888   3.174
 7726W        W78326  12.379  12.276  11.594
 7727W        W78327   6.422  34.102  10.752
 7728W        W78328  41.872  31.921  12.055
 7729W        W78329  34.577  30.411   0.251
 7730W        W78330   6.183  10.299  13.531
 7731W        W78331   0.578   6.831  14.448
 7732W        W78332  25.035  14.529   4.064
 7733W        W78333  40.275  24.464   0.855
 7734W        W78334  39.778  16.201   0.810
 7735W        W78335   9.865   1.460   0.283
 7736W        W78336  15.833  24.191  13.010
 7737W        W78337  13.865  30.711   1.915
 7738W        W78338  19.099  28.920  10.470
 7739W        W78339  42.715  41.415  14.908
 7740W        W78340  43.299  16.995  10.692
 7741W        W78341  28.660   5.302  11.402
 7742W        W78342   7.266   2.233  13.780
 7743W        W78343  21.852  44.964   1.960
 7744W        W78344  41.937  21.763   0.774
 7745W        W78345  42.826   2.228   2.644
 7746W        W78346  28.034  38.934   4.622
 7747W        W78347  30.454   3.245  11.216
 7748W        W78348   1.191   3.540   5.006
 7749W        W78349   5.066   7.631   4.091
 7750W        W78350  25.265  13.134   2.890
 7751W        W78351  29.014   5.428   1.487
 7752W        W78352   6.358  32.939  12.067
 7753W        W78353  42.959  14.328   0.287
 7754W        W78354  22.653  31.507  14.386
 7755W        W78355  23.025  25.838   1.681
 7756W        W78356  10.844  28.559  11.149
 7757W        W78357   1.627  35.262  11.141
 7758W        W78358   5.004  26.452  13.394
 7759W        W78359   9.441  24.126   3.800
 7760W        W78360   2.390  19.801  14.992
 7761W        W78361   0.071  42.415  11.550
 7762W        W78362   5.905  37.398  12.043
 7763W        W78363   0.193  31.930   4.199
 7764W        W78364  13.833   0.010  14.804
 7765W        W78365  12.023  22.544   1.732
 7766W        W78366  28.549  24.006   3.206
 7767W        W78367  24.748   5.477   0.834
 7768W        W78368   8.491  24.721   3.175
 7769W        W78369  17.229   9.172  11.124
 7770W        W78370  20.529   6.495   1.912
 7771W        W78371  16.279  33.120   3.161
 7772W        W78372  27.951  40.017   1.296
 7773W        W78373   9.812  30.599   2.760
 7774W        W78374  37.010  25.285  10.646
 7775W        W78375  31.423   9.338   2.177
 7776W        W78376  18.617  32.955   0.732
 7777W        W78377  21.199  37.177  12.087
 7778W        W78378   8.230  19.467   0.174
 7779W        W78379   5.748   9.801   2.336
 7780W        W78380   7.521  42.995   4.710
 7781W        W78381   0.493  40.524  11.666
 7782W        W78382  19.320   9.309  14.392
 7783W        W78383   1.427  20.991  11.040
 7784W        W78384  41.787   8.003   0.264
 7785W        W78385  27.876  16.955   1.107
 7786W        W78386  38.389   4.495  11.912
 7787W        W78387  31.091  18.641  12.962
 7788W        W78388  39.466  10.407   1.773
 7789W        W78389   8.167  30.492   3.678
 7790W        W78390  34.387  39.839  12.558
 7791W        W78391  36.591  12.639  14.189
 7792W        W78392   7.819  28.939  12.435
 7793W        W78393  27.890  25.042  13.134
 7794W        W78394  10.293  44.837  14.900
 7795W        W78395  37.033  18.583   0.729
 7796W        W78396   4.395  25.640   3.716
 7797W        W78397  34.608   7.805   0.275
 7798W        W78398   1.637  42.598  13.008
 7799W        W78399  30.571  32.099  14.840
 7800W        W78400  19.979   6.799   0.830
 7801W        W78401   0.942  28.349  12.817
 7802W        W78402   8.901  34.131  12.000
 7803W        W78403   0.303  26.352   2.501
 7804W        W78404   4.153  29.686  11.952
 7805W        W78405  42.522  13.939  10.908
 7806W        W78406  20.097  22.981  13.902
 7807W        W78407  35.898  28.123   1.663
 7808W        W78408  31.979  16.596  14.357
 7809W        W78409  21.639  17.353   4.854
 7810W        W78410  23.775   9.796  12.620
 7811W        W78411  21.664  30.001  14.830
 7812W        W78412  31.401   1.925  10.525
 7813W        W78413   8.206  25.122   3.341
 7814W        W78414  39.945  33.643   1.775
 7815W        W78415  20.712  37.667   3.297
 7816W        W78416  20.848  35.631  10.659
 7817W        W78417   7.997  18.544   4.573
 7818W        W78418  29.281  16.010   4.718
 7819W        W78419  27.266   8.379   0.851
 7820W        W78420   9.687  35.659  13.073
 7821W        W78421  24.752  12.765   1.871
 7822W        W78422  44.691   2.274  11.458
 7823W        W78423  34.880  27.006  11.131
 7824W        W78424   7.289   1.785  14.976
 7825W        W78425  16.183  32.621   4.634
 7826W        W78426  28.107  34.308   5.057
 7827W        W78427   5.672  35.892   3.866
 7828W        W78428  34.908  14.756  13.891
 7829W        W78429  34.835  20.065   0.641
 7830W        W78430  16.260  38.568  12.120
 7831W        W78431  43.337  39.933   0.442
 7832W        W78432  41.333  23.815   3.375
 7833W        W78433  44.791  19.312   3.757
 7834W        W78434  31.898  28.964   1.663
 7835W        W78435  44.324  39.987  11.180
 7836W        W78436  19.788  11.517   5.334
 7837W        W78437  13.869  17.236  14.030
 7838W        W78438  19.985  20.957  10.927
 7839W        W78439  25.204  21.578   3.823
 7840W        W78440   1.674  43.321   1.545
 7841W        W78441  37.619   1.815  10.109
 7842W        W78442  25.202   1.277   1.237
 7843W        W78443  17.273  34.391   0.793
 7844W        W78444  36.699  18.363   4.931
 7845W        W78445  13.637   1.384  13.360
 7846W        W78446  42.352  18.610   3.733
 7847W        W78447   1.365  42.804  13.405
 7848W        W78448  39.443   1.029  12.883
 7849W        W78449  32.360  22.774   1.299
 7850W        W78450   8.238  40.701   4.932
 7851W        W78451  12.667  23.405  11.604
 7852W        W78452  34.852  15.280  11.144
 7853W        W78453  32.151  25.446   2.358
 7854W        W78454  23.123  35.754  14.056
 7855W        W78455  43.712  16.630  13.316
 7856W        W78456  32.372  20.392   1.801
 7857W        W78457   9.393  19.969   0.583
 7858W        W78458   7.759   3.247  13.390
 7859W        W78459  11.373  28.565   1.414
 7860W        W78460  44.900  35.773  14.899
 7861W        W78461  35.818  31.567  13.374
 7862W        W78462   8.802  36.151  12.113
 7863W        W78463  44.238  34.376   3.086
 7864W        W78464  44.743  27.702  14.496
 7865W        W78465  32.536  14.624   3.071
 7866W        W78466  36.759  27.153   0.916
 7867W        W78467   5.231   0.006   0.275
 7868W        W78468  19.477  14.808  11.201
 7869W        W78469  30.457  29.646   0.026
 7870W        W78470  20.082  10.800   1.896
 7871W        W78471  14.117  43.335  13.079
 7872W        W78472  32.024  32.850   1.312
 7873W        W78473  21.003  43.931  12.503
 7874W        W78474  31.031   7.186   0.406
 7875W        W78475   3.290  17.600   4.649
 7876W        W78476   5.740   3.995   1.090
 7877W        W78477  20.267  23.336   0.909
 7878W        W78478   4.712  11.869  10.220
 7879W        W78479   3.754   8.580  14.082
 7880W        W78480  36.222   3.065  12.825
 7881W        W78481   4.320  22.228   1.396
 7882W        W78482  34.115  37.677  11.985
 7883W        W78483  35.338   8.861  13.198
 7884W        W78484  23.187  12.122   4.034
 7885W        W78485   0.296   7.890  12.425
 7886W        W78486   8.125  19.301  13.435
 7887W        W78487  42.022   3.520   0.430
 7888W        W78488  22.009  29.501   0.665
 7889W        W78489  30.440  28.085  13.975
 7890W        W78490  18.358  28.595  12.994
 7891W        W78491  29.959   6.352  10.896
 7892W        W78492   9.905  22.314  12.998
 7893W        W78493  14.626  34.063   0.348
 7894W        W78494   9.170  13.649  13.814
 7895W        W78495  32.542  18.075   3.262
 7896W        W78496   4.491  31.547   0.378
 7897W        W78497  13.769  43.841   1.243
 7898W        W78498  26.184  38.824   0.944
 7899W        W78499   9.327  36.860   2.649
 7900W        W78500  39.896  33.911  14.075
 7901W        W78501   1.523  16.729   3.508
 7902W        W78502   9.746  24.562   2.355
 7903W        W78503  17.769  31.014   3.649
 7904W        W78504  20.356   9.414  14.538
 7905W        W78505  26.471  33.476  13.517
 7906W        W78506  25.250  33.191   0.771
 7907W        W78507  39.314   2.860   1.873
 7908W        W78508   2.729  20.071  14.302
 7909W        W78509  10.729  20.584  14.992
 7910W        W78510   7.394  37.158  12.612
 7911W        W78511  30.458  34.122  10.404
 7912W        W78512  18.467   6.251   4.197
 7913W        W78513  20.129  38.162   1.871
 7914W        W78514  23.942  11.644   1.289
 7915W        W78515  21.644  26.692   4.087
 7916W        W78516  21.224   4.361  14.569
 7917W        W78517  30.935  20.066  12.840
 7918W        W78518  34.576  11.580   3.355
 7919W        W78519  39.932  10.003   0.025
 7920W        W78520   8.524  26.679  13.280
 7921W        W78521   7.158  15.189   3.646
 7922W        W78522  13.582   5.492  14.306
 7923W        W78523  17.173  35.009  10.618
 7924W        W78524  23.740  10.730   4.755
 7925W        W78525  31.951   7.444  11.166
 7926W        W78526   7.335  15.344   2.246
 7927W        W78527  27.537   2.723   0.389
 7928W        W78528  36.328  19.098  10.535
 7929W        W78529  39.388   9.335   1.412
 7930W        W78530  44.232  30.147   1.871
 7931W        W78531  21.589   5.118  13.663
 7932W        W78532  30.657  34.437   0.518
 7933W        W78533  21.374   4.303   3.716
 7934W        W78534  21.255  13.907  13.510
 7935W        W78535  13.193  39.136  14.875
 7936W        W78536   4.512  29.149  13.572
 7937W        W78537   2.064  24.906  11.213
 7938W        W78538   4.994  17.699   3.714
 7939W        W78539   7.708  41.505   2.292
 7940W        W78540  12.557  18.410   1.311
 7941W        W78541  19.749  13.738  14.931
 7942W        W78542  34.119  18.087  12.006
 7943W        W78543   5.004  18.317   0.845
 7944W        W78544  28.973  35.063   2.641
 7945W        W78545  43.497  36.702   2.679
 7946W        W78546  26.228  11.434   0.768
 7947W        W78547  25.622  40.504  13.285
 7948W        W78548  28.137  34.105   0.349
 7949W        W78549  27.516  20.013   2.535
 7950W        W78550   3.863   1.438  10.993
 7951W        W78551  20.684  28.419   0.800
 7952W        W78552  23.769  21.116   1.329
 7953W        W78553  32.325  16.035  14.879
 7954W        W78554  40.717  37.028  14.944
 7955W        W78555  13.849  43.764  14.000
 7956W        W78556  22.976  19.731   4.636
 7957W        W78557  11.817  31.091  11.355
 7958W        W78558  26.004   9.055   2.590
 7959W        W78559  32.870  22.009   4.004
 7960W        W78560  31.273  42.312   3.629
 7961W        W78561   9.877  16.082  12.643
 7962W        W78562  22.978  13.304  12.546
 7963W        W78563   4.296  41.470  10.887
 7964W        W78564  23.483  24.019   0.977
 7965W        W78565  41.574  10.541  11.143
 7966W        W78566   3.361  13.476  13.729
 7967W        W78567  37.743  18.963  14.349
 7968W        W78568  29.214  34.026  10.371
 7969W        W78569   8.712   7.356   4.059
 7970W        W78570   4.193  14.640   2.678
 7971W        W78571   5.912  29.124  10.589
 7972W        W78572  23.162  16.750   0.368
 7973W        W78573  28.577  13.230  14.311
 7974W        W78574   4.481  28.013   4.740
 7975W        W78575  10.429  18.054   3.795
 7976W        W78576   0.971  13.114   2.454
 7977W        W78577  10.394  39.844   2.689
 7978W        W78578  25.646  11.724   3.589
 7979W        W78579  20.224  28.442   1.203
 7980W        W78580  28.363  19.029   2.806
 7981W        W78581   7.141  12.532   2.835
 7982W        W78582  14.261  37.138   1.426
 7983W        W78583  24.847   3.462   1.309
 7984W        W78584  30.086   2.486   1.365
 7985W        W78585   3.488   3.788   0.306
 7986W        W78586   1.038   6.387  11.288
 7987W        W78587   8.336  29.738   4.198
 7988W        W78588  13.283  41.421   4.132
 7989W        W78589  23.602  25.908  11.114
 7990W        W78590   1.808  16.122  12.972
 7991W        W78591  33.292  23.648  10.518
 7992W        W78592   8.424  32.895  14.316
 7993W        W78593  12.237  41.678   3.758
 7994W        W78594  29.756   7.781   2.242
 7995W        W78595  15.412   3.264  12.036
 7996W        W78596  33.548  33.145  12.742
 7997W        W78597   8.050   4.579  11.514
 7998W        W78598   9.835  23.445  14.941
 7999W        W78599  39.092  17.331   4.105
 8000W        W78600  35.526   5.646   2.605
 8001W        W78601  35.409  29.668   2.747
 8002W        W78602  31.007  22.004   3.037
 8003W        W78603  41.733  30.687   2.724
 8004W        W78604   5.999  16.288  12.830
 8005W        W78605  25.991  16.385   0.395
 8006W        W78606  41.856  15.236   2.830
 8007W        W78607  44.455  28.048  11.567
 8008W        W78608   4.243  25.375  12.339
 8009W        W78609   9.723   9.340  14.261
 8010W        W78610   3.219  14.123  12.477
 8011W        W78611  10.323   8.667   1.111
 8012W        W78612  10.821  40.961   2.744
 8013W        W78613  13.285  30.168   3.887
 8014W        W78614  16.818   0.141   0.282
 8015W        W78615  27.571  23.689  11.220
 8016W        W78616  21.226   0.508   1.850
 8017W        W78617  16.805  24.702   2.221
 8018W        W78618   2.239  31.450  13.310
 8019W        W78619   9.367  12.195   1.222
 8020W        W78620  19.435  39.960  12.784
 8021W        W78621   6.673  40.821   4.132
 8022W        W78622  11.131  42.499   4.167
 8023W        W78623   1.434  37.911  14.435
 8024W        W78624  33.804  18.474  14.450
 8025W        W78625  21.874  19.730  14.784
 8026W        W78626   1.952   2.995   3.278
 8027W        W78627   1.390   8.766  11.297
 8028W        W78628  31.067  22.596   3.337
 8029W        W78629  32.448  36.385   3.329
 8030W        W78630  12.727  29.650  13.645
 8031W        W78631  38.269   2.192   1.005
 8032W        W78632  24.694   4.533   2.798
 8033W        W78633  29.411  14.584   1.254
 8034W        W78634  44.979  43.566   2.274
 8035W        W78635  14.597  44.513  10.277
 8036W        W78636  43.172  42.688  14.437
 8037W        W78637  15.013  32.860   4.705
 8038W        W78638  10.242  42.436  14.061
 8039W        W78639  11.644  26.112   3.368
 8040W        W78640   1.316  40.070  14.813
 8041W        W78641  16.696  13.163  14.402
 8042W        W78642  28.526  21.113   0.374
 8043W        W78643  17.532  14.218  14.140
 8044W        W78644  27.088  21.041   1.896
 8045W        W78645  15.622  19.610   3.877
 8046W        W78646  43.393  27.756  11.522
 8047W        W78647  33.594  31.348   4.593
 8048W        W78648   2.782  25.537  11.673
 8049W        W78649  25.526  26.120   4.140
 8050W        W78650  22.162  15.649  11.693
 8051W        W78651  38.919   2.062  12.318
 8052W        W78652  13.683  26.853   2.321
 8053W        W78653   6.266  19.012  14.245
 8054W        W78654   8.254   3.238   3.367
 8055W        W78655  22.076  36.448   4.055
 8056W        W78656   3.881  34.071  12.972
 8057W        W78657  14.128  29.788  13.454
 8058W        W78658   0.805  29.536   1.448
 8059W        W78659  42.050  43.811  12.006
 8060W        W78660  10.636  18.494  14.979
 8061W        W78661  24.449  20.045   2.201
 8062W        W78662  28.029   6.775  12.385
 8063W        W78663  17.825   0.473   0.499
 8064W        W78664  28.183  12.542  11.069
 8065W        W78665  12.730  41.060  13.819
 8066W        W78666  42.416  28.723  14.463
 8067W        W78667  18.079  39.618  14.203
 8068W        W78668  15.829  36.071   4.266
 8069W        W78669  11.969  23.640   0.790
 8070W        W78670  26.462  38.352   3.667
 8071W        W78671  13.856   2.376  14.856
 8072W        W78672  11.704   6.375   3.191
 8073W        W78673  22.673  10.110   4.628
 8074W        W78674  38.288  33.618  12.613
 8075W        W78675  40.882  43.671  14.198
 8076W        W78676  41.483  24.774  13.026
 8077W        W78677  11.901  28.234   0.310
 8078W        W78678  30.226  35.540   0.431
 8079W        W78679  12.983  43.943   0.553
 8080W        W78680  21.181  18.765  11.378
 8081W        W78681   9.363  25.915  13.167
 8082W        W78682   6.468  25.090   9.788
 8083W        W78683  13.059  28.653   3.763
 8084W        W78684  10.238  44.183  10.028
 8085W        W78685  34.800   5.682   0.295
 8086W        W78686   0.003  11.011  11.177
 8087W        W78687  13.366   7.965   0.583
 8088W        W78688  40.998  19.817  13.446
 8089W        W78689  34.263  21.212  11.933
 8090W        W78690   1.487  34.398  11.586
 8091W        W78691  11.203  31.178  12.549
 8092W        W78692   8.336  35.585  11.601
 8093W        W78693  36.109  28.504   3.994
 8094W        W78694  25.198   8.945  13.946
 8095W        W78695   6.895  38.314  14.774
 8096W        W78696  20.075  40.776  11.895
 8097W        W78697  43.934   3.395   4.778
 8098W        W78698  29.133  24.546   1.208
 8099W        W78699  13.657  17.020   1.693
 8100W        W78700  28.581  40.024  13.363
 8101W        W78701  39.081  12.128   1.688
 8102W        W78702  41.759   4.766   3.845
 8103W        W78703  31.132   0.533   0.030
 8104W        W78704  11.084  19.087  14.471
 8105W        W78705  15.683  19.909  13.755
 8106W        W78706  20.081  23.502  13.861
 8107W        W78707  41.129   6.337  11.916
 8108W        W78708   8.302   8.404   3.287
 8109W        W78709  44.230  39.364   1.396
 8110W        W78710  23.345  41.767   2.649
 8111W        W78711  39.795  16.214   1.337
 8112W        W78712  24.771  11.078  12.842
 8113W        W78713  14.346  33.349  12.981
 8114W        W78714   6.428  33.455   4.949
 8115W        W78715  17.072  19.803   0.746
 8116W        W78716  29.903  34.487   3.424
 8117W        W78717  29.386   7.698   3.077
 8118W        W78718  23.742  38.326   3.577
 8119W        W78719  26.964  24.741   3.728
 8120W        W78720  43.265   2.307  14.446
 8121W        W78721  43.913  42.594   4.672
 8122W        W78722  29.020  16.115   2.813
 8123W        W78723  25.584  27.633  12.319
 8124W        W78724  29.073   3.266   1.344
 8125W        W78725  38.620  10.736  12.674
 8126W        W78726  10.315   2.976   2.272
 8127W        W78727  31.951  16.062  13.004
 8128W        W78728   3.783  25.708   2.426
 8129W        W78729   3.168  31.995  14.336
 8130W        W78730  11.346  12.376  13.367
 8131W        W78731  43.197  32.254  10.712
 8132W        W78732  33.631  31.362   0.944
 8133W        W78733   9.828  42.110   1.879
 8134W        W78734  30.064  31.664  10.261
 8135W        W78735  41.485  37.306   2.767
 8136W        W78736  20.003  44.843   3.783
 8137W        W78737  24.091  11.232  14.723
 8138W        W78738  27.431   3.806  13.618
 8139W        W78739   0.264  22.396  14.411
 8140W        W78740  16.361  20.470  14.029
 8141W        W78741  24.384  24.600  13.374
 8142W        W78742   2.934   6.311  11.056
 8143W        W78743  41.013  13.604  12.555
 8144W        W78744   4.822  11.591   3.164
 8145W        W78745  15.725   4.417   1.109
 8146W        W78746   5.919  37.899  11.935
 8147W        W78747  44.427  10.180  12.486
 8148W        W78748  43.612  24.969   2.201
 8149W        W78749  30.913  32.098  11.631
 8150W        W78750  32.892  27.048  13.744
 8151W        W78751  18.135  40.408   0.306
 8152W        W78752   5.440  22.210   5.014
 8153W        W78753  12.619  30.167  12.500
 8154W        W78754   0.275  13.712   0.887
 8155W        W78755  40.350  30.263   4.028
 8156W        W78756   2.388   9.182  11.745
 8157W        W78757   8.838   4.873  10.446
 8158W        W78758  22.447  33.551  11.092
 8159W        W78759   9.572   3.443   4.823
 8160W        W78760  19.206  27.931  14.227
 8161W        W78761  11.753   7.191  12.094
 8162W        W78762  14.976   9.305   2.824
 8163W        W78763  36.859  33.822   4.480
 8164W        W78764  27.141  32.941  10.698
 8165W        W78765   9.864  41.122  14.025
 8166W        W78766   5.746  14.855   3.238
 8167W        W78767  31.387   1.061   0.038
 8168W        W78768  32.034  29.708  11.544
 8169W        W78769  20.178  36.560  11.583
 8170W        W78770  37.428  43.710   2.791
 8171W        W78771  25.195  28.550  11.623
 8172W        W78772  36.406  21.557   3.725
 8173W        W78773  37.283   6.692  12.208
 8174W        W78774   5.459  10.276   4.853
 8175W        W78775  32.262   3.724   0.395
 8176W        W78776  12.240  40.878  14.821
 8177W        W78777  24.548  24.053  11.160
 8178W        W78778  37.545  40.020  14.853
 8179W        W78779  29.899  12.102  12.967
 8180W        W78780  31.961   2.318  14.415
 8181W        W78781  16.113   3.419   0.406
 8182W        W78782  28.179  12.600   0.259
 8183W        W78783  33.585  16.569  12.745
 8184W        W78784  20.933  32.883   2.235
 8185W        W78785  22.601  31.903  11.047
 8186W        W78786   0.611   6.194  11.497
 8187W        W78787   6.188  25.156  13.409
 8188W        W78788  31.690  28.631   3.716
 8189W        W78789   8.312  31.739   4.965
 8190W        W78790  32.167  41.556  13.036
 8191W        W78791  41.642  22.577  13.287
 8192W        W78792  16.197   1.459   4.456
 8193W        W78793   1.181  30.927  11.651
 8194W        W78794  14.394  42.282  14.887
 8195W        W78795   8.483   9.842  11.025
 8196W        W78796  17.191  24.737   3.666
 8197W        W78797  36.481  27.014   3.622
 8198W        W78798  27.951  25.619  12.560
 8199W        W78799  10.374   6.533  11.942
 8200W        W78800  14.583  10.071   0.517
 8201W        W78801  31.636  15.164   2.828
 8202W        W78802  30.624  37.437   5.026
 8203W        W78803   6.345  25.512  14.244
 8204W        W78804  37.312  23.539  10.613
 8205W        W78805   5.682  23.027   0.243
 8206W        W78806   4.545   4.030   2.329
 8207W        W78807  37.139  30.957   4.624
 8208W        W78808  13.091  20.510   3.726
 8209W        W78809   0.926   6.866   1.284
 8210W        W78810   0.861  42.509   0.145
 8211W        W78811  32.755  41.469   3.917
 8212W        W78812  25.669  37.985  13.388
 8213W        W78813  30.498   8.887  12.921
 8214W        W78814  10.236  21.778   2.461
 8215W        W78815  19.244  21.687   1.432
 8216W        W78816  16.312   5.265  14.062
 8217W        W78817  24.774  37.756  11.987
 8218W        W78818  22.017  17.103   1.315
 8219W        W78819  26.168  15.288  11.190
 8220W        W78820  31.628  42.508  12.537
 8221W        W78821   6.304  33.576   2.729
 8222W        W78822  30.361  24.083   2.256
 8223W        W78823  28.968  20.814  11.409
 8224W        W78824  23.212  32.396  14.282
 8225W        W78825  26.462  26.389   2.326
 8226W        W78826   3.327  25.453   2.574
 8227W        W78827  13.311   8.146  10.576
 8228W        W78828  38.368  28.219   4.153
 8229W        W78829  17.748   3.494   0.347
 8230W        W78830  18.547  26.435   1.208
 8231W        W78831  32.478  34.692  11.180
 8232W        W78832   1.967  39.747  12.332
 8233W        W78833  38.812  29.698   2.382
 8234W        W78834  16.687  10.818   1.545
 8235W        W78835  26.982  26.490  12.553
 8236W        W78836  29.088  29.905   0.200
 8237W        W78837   1.221  14.554  12.203
 8238W        W78838  12.245  34.240   2.160
 8239W        W78839  40.099   4.149  11.714
 8240W        W78840  33.853  21.059   3.309
 8241W        W78841   5.022  29.071  13.568
 8242W        W78842  30.796  26.797   2.348
 8243W        W78843  29.437  36.520   3.607
 8244W        W78844  33.094   5.832   2.769
 8245W        W78845  23.667   1.306   2.964
 8246W        W78846  35.534   5.502  11.553
 8247W        W78847  29.964  38.919  10.647
 8248W        W78848   5.513  43.517  14.875
 8249W        W78849  17.150  44.361  14.468
 8250W        W78850  32.109  36.006  11.838
 8251W        W78851   6.141  14.866  14.527
 8252W        W78852  13.233  33.524   4.650
 8253W        W78853   8.369  19.494  12.883
 8254W        W78854  24.276   2.173  14.732
 8255W        W78855  16.360  36.950   0.968
 8256W        W78856  20.002  40.453   2.147
 8257W        W78857  34.594  11.228   3.750
 8258W        W78858  36.612  44.003  12.694
 8259W        W78859  34.632   9.948  13.560
 8260W        W78860  17.616  14.664   1.373
 8261W        W78861  33.852  38.833   9.920
 8262W        W78862  24.665  13.275  12.984
 8263W        W78863  24.995  31.188   1.811
 8264W        W78864   3.259  26.085  14.877
 8265W        W78865  11.188   8.801   0.976
 8266W        W78866  29.648   9.753   2.065
 8267W        W78867  43.022  43.339   3.240
 8268W        W78868  26.537  44.072   1.371
 8269W        W78869   5.467  23.547  14.395
 8270W        W78870   4.574  12.224  10.617
 8271W        W78871  42.422  40.216   2.700
 8272W        W78872  44.162  28.047  12.416
 8273W        W78873  26.795  33.515   2.826
 8274W        W78874  36.755  25.326  13.000
 8275W        W78875  33.381   3.967  12.066
 8276W        W78876   8.831  40.285  14.147
 8277W        W78877   8.408  29.007  11.802
 8278W        W78878  37.332  40.282  13.449
 8279W        W78879   8.063  15.970   4.274
 8280W        W78880   8.169   9.726  14.906
 8281W        W78881   8.191   1.232   4.027
 8282W        W78882  31.156   4.010   2.828
 8283W        W78883   4.255  38.484  14.459
 8284W        W78884  19.080  24.218   0.825
 8285W        W78885  10.414   2.344   1.741
 8286W        W78886  25.655  10.255   4.044
 8287W        W78887  36.083   2.845   2.645
 8288W        W78888  19.027  40.967   3.833
 8289W        W78889  22.646  40.043  11.658
 8290W        W78890  23.684  38.322   2.663
 8291W        W78891  11.200  39.445  13.011
 8292W        W78892  44.898  44.108  12.016
 8293W        W78893  27.906   9.991   0.839
 8294W        W78894  12.400  24.188  12.625
 8295W        W78895  27.106   4.400  12.358
 8296W        W78896   4.183  32.988   0.304
 8297W        W78897  37.830  41.499  13.470
 8298W        W78898  44.469  25.017   2.498
 8299W        W78899  37.456  43.611  11.209
 8300W        W78900  16.078   8.675   4.927
 8301W        W78901  13.659  19.301   1.388
 8302W        W78902  26.687  42.581   3.852
 8303W        W78903   7.700   1.568   0.614
 8304W        W78904  28.944   8.869   1.345
 8305W        W78905  32.880   0.444  14.367
 8306W        W78906  15.631  37.274   2.465
 8307W        W78907  41.519  28.468  12.864
 8308W        W78908  36.033   5.758   2.390
 8309W        W78909  37.009  26.105   3.970
 8310W        W78910  19.121  11.301   2.941
 8311W        W78911  28.522  28.370  11.938
 8312W        W78912  37.818  43.358   2.705
 8313W        W78913  20.246  22.165   2.879
 8314W        W78914  43.860  33.354   3.658
 8315W        W78915  25.173  29.104  14.453
 8316W        W78916   2.077   5.430   0.652
 8317W        W78917  28.666  38.118  12.729
 8318W        W78918  44.263   1.692  12.207
 8319W        W78919  26.311   9.198   1.672
 8320W        W78920  21.157   6.605   1.203
 8321W        W78921   6.988   5.663   0.580
 8322W        W78922   4.951  12.815  13.227
 8323W        W78923  22.181  40.256  11.502
 8324W        W78924  36.289  43.914   1.689
 8325W        W78925  18.527  41.407   4.299
 8326W        W78926  21.072   2.712   1.315
 8327W        W78927  38.492  15.551  11.561
 8328W        W78928  14.726  33.689  12.083
 8329W        W78929  35.448  37.508  10.734
 8330W        W78930  39.571  25.532   3.367
 8331W        W78931  10.588  14.763  11.430
 8332W        W78932  14.624  42.019  12.611
 8333W        W78933  26.595   1.326   1.406
 8334W        W78934  15.204  37.748   4.076
 8335W        W78935  15.603  15.313   2.751
 8336W        W78936   7.249   2.820   1.425
 8337W        W78937  13.718  34.568  12.401
 8338W        W78938   7.890  40.911  11.220
 8339W        W78939  12.605  12.302  13.833
 8340W        W78940  26.790   0.296   1.872
 8341W        W78941  30.376   4.711  12.842
 8342W        W78942  30.996  15.322   1.763
 8343W        W78943  22.167  12.359   2.716
 8344W        W78944  12.663  25.438  11.740
 8345W        W78945  15.020  37.866  10.969
 8346W        W78946  37.096   6.935   1.890
 8347W        W78947  10.927  34.108  11.919
 8348W        W78948   2.300  44.440   2.908
 8349W        W78949  41.498   4.497  13.104
 8350W        W78950  25.489   5.655  11.355
 8351W        W78951  11.963   2.361  12.441
 8352W        W78952  38.571  10.170   2.119
 8353W        W78953  19.007  29.873  14.824
 8354W        W78954   6.118  15.559  13.875
 8355W        W78955  19.271   3.658  12.279
 8356W        W78956  16.165   5.340   3.799
 8357W        W78957  21.229  17.007  12.558
 8358W        W78958  27.366  25.499  10.654
 8359W        W78959  34.990  41.795  10.608
 8360W        W78960  42.919   6.373   2.924
 8361W        W78961  31.127  26.090   1.377
 8362W        W78962  16.381   2.402  10.768
 8363W        W78963   3.088  35.707  12.135
 8364W        W78964   0.794   8.208  13.999
 8365W        W78965  40.431   8.251   2.690
 8366W        W78966  32.733  18.275   2.411
 8367W        W78967  44.758   3.433   4.617
 8368W        W78968  32.531   7.181   4.184
 8369W        W78969   7.538   3.456  11.572
 8370W        W78970  35.578  20.055   3.746
 8371W        W78971  23.146  23.486   4.623
 8372W        W78972  42.569   8.371  11.712
 8373W        W78973   9.403  41.792  12.548
 8374W        W78974  41.753  41.293   2.214
 8375W        W78975  11.674  22.993  10.743
 8376W        W78976  26.522  16.324  13.369
 8377W        W78977  37.409   6.878   3.632
 8378W        W78978   4.645  33.131  14.299
 8379W        W78979  30.425  31.469   0.470
 8380W        W78980  33.735   7.356  11.366
 8381W        W78981   6.937  41.101   4.509
 8382W        W78982  21.378   0.840   4.437
 8383W        W78983  30.093   9.255  14.930
 8384W        W78984  10.325  43.819  11.895
 8385W        W78985  24.464  19.146  10.784
 8386W        W78986  18.165  42.433   2.456
 8387W        W78987   4.295   7.395  10.718
 8388W        W78988  11.932   3.503  12.917
 8389W        W78989   9.692  39.097  11.865
 8390W        W78990  35.007  32.109   2.207
 8391W        W78991  26.835  39.097  10.295
 8392W        W78992  21.232  17.692   4.389
 8393W        W78993  34.184   0.688   2.701
 8394W        W78994   7.881  40.146  14.851
 8395W        W78995  32.137  20.735  11.896
 8396W        W78996  30.993  30.135   4.273
 8397W        W78997   7.594  13.803  14.725
 8398W        W78998  21.804   4.007  11.114
 8399W        W78999  24.442   5.753  10.709
 8400W        W79000   5.229   3.797  11.976
 8401W        W79001  31.819  36.621  11.121
 8402W        W79002  37.455  23.422   2.711
 8403W        W79003  33.055   2.888   3.523
 8404W        W79004   1.734   8.672   4.190
 8405W        W79005   8.041  27.823  14.861
 8406W        W79006  19.204  44.478   3.586
 8407W        W79007   0.800   7.707   2.163
 8408W        W79008   6.543  36.150   2.735
 8409W        W79009   4.336  32.508  11.648
 8410W        W79010   3.401  37.319  12.356
 8411W        W79011  20.186  26.825   3.333
 8412W        W79012  23.679  13.367   4.642
 8413W        W79013  16.791  12.313   2.919
 8414W        W79014  39.061  12.902  12.039
 8415W        W79015  16.632  36.173   3.315
 8416W        W79016  29.534   3.669  10.739
 8417W        W79017  14.118  13.292  13.320
 8418W        W79018  12.719  35.596  10.666
 8419W        W79019  15.564  41.110  14.367
 8420W        W79020   0.407  15.509   3.712
 8421W        W79021  42.854   3.386  13.574
 8422W        W79022  15.599  19.360  12.479
 8423W        W79023  21.341  35.490  14.317
 8424W        W79024   0.983  23.974  13.510
 8425W        W79025  20.899  39.523   3.778
 8426W        W79026  13.198  43.804  13.306
 8427W        W79027  40.310  42.141  14.613
 8428W        W79028  29.981  35.662  14.580
 8429W        W79029  23.498  42.483  13.372
 8430W        W79030   9.692  28.048   1.317
 8431W        W79031  26.199  27.373   4.157
 8432W        W79032  10.813  35.258   4.587
 8433W        W79033   5.185  16.800   1.684
 8434W        W79034  32.600  32.100   1.270
 8435W        W79035  10.834  29.562   2.916
 8436W        W79036  23.083  22.563  11.594
 8437W        W79037  23.086   5.822   0.625
 8438W        W79038  28.618  20.398  12.416
 8439W        W79039  21.569  20.098   4.593
 8440W        W79040   2.736   2.773   1.880
 8441W        W79041  29.548  43.769  13.906
 8442W        W79042   0.387  38.701   2.701
 8443W        W79043  32.602  11.628  10.005
 8444W        W79044  44.137  28.222   3.874
 8445W        W79045   9.072   6.655   3.253
 8446W        W79046  16.543  16.661  11.624
 8447W        W79047  16.748  30.152  11.316
 8448W        W79048   9.877  35.844   0.423
 8449W        W79049  28.460  11.748  10.706
 8450W        W79050  17.595  13.714  14.928
 8451W        W79051  12.896   3.243  12.144
 8452W        W79052   1.589   8.843   1.955
 8453W        W79053  15.099  31.837   5.036
 8454W        W79054   9.849  41.945   4.712
 8455W        W79055   6.601  23.269  12.499
 8456W        W79056  23.915  20.185   3.906
 8457W        W79057  39.632  38.995   3.565
 8458W        W79058   5.640  17.017   3.569
 8459W        W79059  37.792  24.439   0.516
 8460W        W79060  27.693  13.748   3.737
 8461W        W79061  34.184   2.385  12.459
 8462W        W79062  36.038   2.857   4.101
 8463W        W79063  38.852  24.668  11.389
 8464W        W79064  12.684  13.614   4.131
 8465W        W79065  25.244  43.190  12.075
 8466W        W79066  12.270  39.911   2.879
 8467W        W79067  18.155   5.748   3.728
 8468W        W79068  33.939   8.432  12.841
 8469W        W79069   2.429   1.240  14.461
 8470W        W79070  23.028   4.983  14.126
 8471W        W79071  29.875   7.200  11.479
 8472W        W79072  27.139  41.798   4.163
 8473W        W79073  22.780   0.861  11.631
 8474W        W79074  14.034   4.192  14.695
 8475W        W79075  28.063  37.462   0.368
 8476W        W79076  10.238   8.649  10.359
 8477W        W79077  21.753   5.707   4.561
 8478W        W79078  24.542  42.693   4.231
 8479W        W79079  16.610  24.775  12.883
 8480W        W79080  36.099  44.902  12.859
 8481W        W79081  23.957  20.292  14.835
 8482W        W79082   9.432  40.457   4.178
 8483W        W79083   0.604  11.187  12.782
 8484W        W79084  43.507  16.854  12.023
 8485W        W79085  10.165   1.195  12.492
 8486W        W79086  23.909  30.970   1.213
 8487W        W79087  23.062  22.088   3.599
 8488W        W79088  40.067  32.527   1.362
 8489W        W79089  39.436  27.767   4.168
 8490W        W79090  30.978   5.437   1.693
 8491W        W79091   8.413  35.193  11.915
 8492W        W79092  41.457   5.767   1.404
 8493W        W79093  28.428  42.302   2.698
 8494W        W79094  18.853   0.643   0.021
 8495W        W79095   7.603  40.709  11.578
 8496W        W79096   3.351  33.449   1.835
 8497W        W79097  21.011  30.761  13.389
 8498W        W79098  42.694  25.966  13.921
 8499W        W79099   2.160  43.580  12.573
 8500W        W79100  30.856  20.434  11.101
 8501W        W79101  20.597  19.697   0.994
 8502W        W79102   1.590  26.638   5.026
 8503W        W79103  32.158   5.375  11.771
 8504W        W79104  42.081  28.884  10.938
 8505W        W79105   5.774  19.268  14.349
 8506W        W79106  38.765  22.626   2.765
 8507W        W79107  40.002  37.471   1.847
 8508W        W79108  13.000  16.185  10.714
 8509W        W79109  34.373  36.400   3.814
 8510W        W79110  41.563   2.237   3.110
 8511W        W79111  29.005  31.023  14.123
 8512W        W79112  35.396  42.870  11.725
 8513W        W79113  15.646  42.066  14.191
 8514W        W79114  39.199   0.590  12.673
 8515W        W79115  40.932  18.248   2.370
 8516W        W79116  16.245  39.515  14.781
 8517W        W79117  36.304  34.342  10.282
 8518W        W79118  10.486   5.631  11.031
 8519W        W79119  16.329  34.128   0.971
 8520W        W79120  30.032  13.585   1.767
 8521W        W79121  18.798  32.850   3.069
 8522W        W79122  24.540  24.704  11.700
 8523W        W79123  26.918  32.513  12.124
 8524W        W79124  36.511  39.940  13.908
 8525W        W79125  44.303  10.325  11.536
 8526W        W79126  34.093  39.414  12.466
 8527W        W79127  16.567  19.514  11.441
 8528W        W79128  33.802   3.829  14.412
 8529W        W79129  28.161   3.823  13.044
 8530W        W79130  26.631   9.258   4.208
 8531W        W79131  31.885  27.933  12.978
 8532W        W79132   5.441  37.165  10.820
 8533W        W79133  42.296  17.624  10.680
 8534W        W79134  35.178  43.393   0.220
 8535W        W79135   6.794  39.761   3.241
 8536W        W79136  19.907  20.730  12.505
 8537W        W79137   4.312   3.970  11.451
 8538W        W79138  43.228   0.248   2.312
 8539W        W79139  43.393  33.101  10.451
 8540W        W79140  28.486  10.341   4.175
 8541W        W79141  24.433  29.063  14.789
 8542W        W79142  17.779   1.430  13.307
 8543W        W79143   7.973  27.439  13.492
 8544W        W79144   7.198  23.269   0.984
 8545W        W79145  30.470  40.087   0.957
 8546W        W79146   6.274   0.358  11.851
 8547W        W79147  22.049  23.759   4.407
 8548W        W79148  31.545   8.348  12.970
 8549W        W79149  31.496  27.178   2.799
 8550W        W79150  37.899  30.051  12.097
 8551W        W79151  13.226  18.120   2.228
 8552W        W79152   8.239  43.566   1.761
 8553W        W79153  17.278  32.130   0.304
 8554W        W79154  44.672   8.961  12.097
 8555W        W79155  20.206  25.477   3.090
 8556W        W79156  16.235  18.114   2.367
 8557W        W79157  10.293  34.122   2.211
 8558W        W79158  39.563   4.113   1.762
 8559W        W79159  31.174   5.112  12.790
 8560W        W79160  35.321  22.127  11.668
 8561W        W79161  22.427   2.920  11.186
 8562W        W79162   2.039  11.566   5.116
 8563W        W79163   4.744   3.597  10.820
 8564W        W79164  15.759  39.513   0.545
 8565W        W79165   9.152   8.721  12.861
 8566W        W79166   7.394  15.142  14.974
 8567W        W79167  33.019   6.694   3.236
 8568W        W79168  18.475   7.205  13.111
 8569W        W79169  34.472  42.834  13.344
 8570W        W79170   2.694  36.085   2.699
 8571W        W79171  27.111  18.483  11.552
 8572W        W79172   4.958   9.718   1.603
 8573W        W79173  19.671   4.607   1.447
 8574W        W79174  43.786  21.219  12.925
 8575W        W79175  36.999  26.372   1.504
 8576W        W79176   2.492  36.404   1.433
 8577W        W79177  29.933   1.129   4.140
 8578W        W79178   5.656  18.236  12.299
 8579W        W79179   9.106  24.335   4.954
 8580W        W79180  28.615  39.647  14.217
 8581W        W79181  11.320  32.714   1.668
 8582W        W79182  16.290  18.297  11.852
 8583W        W79183  18.220  30.439  12.165
 8584W        W79184  22.791  26.016  13.564
 8585W        W79185  30.062   3.344   0.996
 8586W        W79186  23.916  43.450   1.922
 8587W        W79187  22.727  37.325  12.589
 8588W        W79188  43.225  41.316   4.286
 8589W        W79189  24.152  27.288  13.146
 8590W        W79190  11.898  32.347  13.766
 8591W        W79191   8.352  41.524  10.862
 8592W        W79192   1.745   6.334   0.262
 8593W        W79193  41.141  12.906  13.463
 8594W        W79194  21.497  31.681  13.531
 8595W        W79195  31.340   2.523   0.016
 8596W        W79196  28.558  35.171  13.874
 8597W        W79197  25.152  20.710  14.293
 8598W        W79198  18.967  30.972  14.034
 8599W        W79199  20.149  16.575  12.964
 8600W        W79200  38.885   8.924  13.197
 8601W        W79201  24.920  24.103   1.753
 8602W        W79202  38.113   0.517  12.096
 8603W        W79203  39.996  38.495  10.964
 8604W        W79204  12.523  37.806   2.933
 8605W        W79205  26.626  38.944   0.129
 8606W        W79206  24.201  17.780  11.566
 8607W        W79207  13.446  34.158  14.702
 8608W        W79208   9.883  18.307  13.383
 8609W        W79209   2.976  39.311  12.019
 8610W        W79210  43.060  31.385  12.172
 8611W        W79211   0.682  37.512   0.853
 8612W        W79212  15.161  34.549   0.854
 8613W        W79213  31.418  12.400  13.445
 8614W        W79214  21.075  23.221   0.008
 8615W        W79215  25.299  25.606  14.507
 8616W        W79216  11.093  17.714  11.988
 8617W        W79217  20.611  25.905   4.841
 8618W        W79218  31.634   3.365  11.927
 8619W        W79219   7.187  34.509  13.160
 8620W        W79220  20.606   2.355  11.164
 8621W        W79221   9.000  19.329  12.955
 8622W        W79222   1.456  22.772   2.875
 8623W        W79223   8.406  34.906   2.448
 8624W        W79224  31.305   6.246   3.223
 8625W        W79225  15.242   4.303  11.837
 8626W        W79226  19.684  33.785   0.075
 8627W        W79227  35.222  38.874   1.318
 8628W        W79228   0.764   2.170  11.545
 8629W        W79229  23.515  32.737   3.156
 8630W        W79230  27.080  11.669   2.143
 8631W        W79231   5.730   6.340  11.184
 8632W        W79232  39.143  22.885   3.085
 8633W        W79233   5.470   2.170   3.996
 8634W        W79234  11.140   1.446  13.050
 8635W        W79235  19.677  29.636   4.897
 8636W        W79236  26.260  43.310   3.463
 8637W        W79237  17.228   7.429  10.726
 8638W        W79238  20.937  30.699   4.946
 8639W        W79239  31.391   6.659   4.458
 8640W        W79240  31.397  43.266   4.954
 8641W        W79241  17.651   1.961  12.460
 8642W        W79242  38.912  34.934   2.815
 8643W        W79243   5.986  20.605   4.799
 8644W        W79244  33.421  22.928   4.811
 8645W        W79245  17.212  22.101   4.360
 8646W        W79246   7.827   7.182   4.552
 8647W        W79247  24.767  40.297  11.681
 8648W        W79248  11.196  14.367  11.362
 8649W        W79249  14.646  21.016   1.240
 8650W        W79250  25.197   4.676  11.137
 8651W        W79251   9.238  32.260   0.837
 8652W        W79252  27.088  32.955   1.655
 8653W        W79253  30.277  24.592  14.683
 8654W        W79254   4.957  21.304   0.926
 8655W        W79255  36.431  16.619   4.150
 8656W        W79256  26.904  42.083   3.684
 8657W        W79257  27.267  17.671   4.512
 8658W        W79258  39.031  18.259  11.229
 8659W        W79259  30.351   1.738   2.909
 8660W        W79260  18.697  38.347   1.238
 8661W        W79261   2.902  23.029  11.669
 8662W        W79262  26.892  43.217  13.458
 8663W        W79263  11.188   7.013   3.250
 8664W        W79264   5.632  14.637  12.912
 8665W        W79265  39.077  39.711  14.724
 8666W        W79266   7.221  34.371   3.848
 8667W        W79267   5.669  35.784  13.870
 8668W        W79268  16.028  28.666   1.199
 8669W        W79269  43.873  32.812   3.648
 8670W        W79270   8.388  26.635   3.743
 8671W        W79271  41.829   2.486   0.332
 8672W        W79272   8.631  32.712   2.682
 8673W        W79273   0.922  37.034   1.099
 8674W        W79274  15.993  10.706  12.811
 8675W        W79275  15.774  23.016   3.685
 8676W        W79276  35.913   0.481   3.279
 8677W        W79277  21.756  25.921  14.373
 8678W        W79278  33.316  26.695   1.290
 8679W        W79279   3.690   2.281  13.345
 8680W        W79280  34.375  39.101  12.991
 8681W        W79281  20.427  29.322  12.597
 8682W        W79282   0.763  41.280   2.735
 8683W        W79283  31.376  21.888   2.681
 8684W        W79284  20.350  38.524  12.203
 8685W        W79285  30.802  36.691   4.947
 8686W        W79286  24.903  10.330   0.698
 8687W        W79287  34.146  18.259   2.166
 8688W        W79288   6.419  22.654  13.444
 8689W        W79289  43.491  34.900   1.583
 8690W        W79290   1.626  26.453  12.446
 8691W        W79291   9.802  42.002  10.546
 8692W        W79292  21.510  17.568   1.716
 8693W        W79293   5.010  18.822   4.142
 8694W        W79294  22.883  38.369  13.050
 8695W        W79295  18.598  20.036   3.103
 8696W        W79296   1.767  22.614   4.955
 8697W        W79297  18.626  37.346   2.909
 8698W        W79298   0.496  24.368   3.784
 8699W        W79299   1.298  29.634   4.283
 8700W        W79300  12.774  13.682   0.522
 8701W        W79301  25.006  30.375   3.847
 8702W        W79302  42.027   5.313  14.968
 8703W        W79303   8.749  32.548  13.229
 8704W        W79304  21.222  12.790   2.723
 8705W        W79305  35.624   1.862   2.689
 8706W        W79306  40.786  25.723  10.642
 8707W        W79307  22.384   6.423   4.816
 8708W        W79308  22.553  21.567  13.941
 8709W        W79309  12.244  36.863   3.335
 8710W        W79310  22.303  38.062   4.650
 8711W        W79311   9.367  23.162  12.006
 8712W        W79312  39.490  11.179   1.346
 8713W        W79313  28.647  41.910   2.932
 8714W        W79314  13.387  14.637   2.807
 8715W        W79315  32.240  24.486   3.373
 8716W        W79316  26.466  41.532  13.901
 8717W        W79317  29.102  40.262  11.567
 8718W        W79318  16.193  43.403   1.952
 8719W        W79319   9.344  23.981  14.203
 8720W        W79320  19.636   2.322   2.708
 8721W        W79321  36.484   3.458  13.615
 8722W        W79322  28.790  22.963  13.067
 8723W        W79323  13.847  41.574   0.326
 8724W        W79324  32.812  21.103  11.871
 8725W        W79325  32.109   4.464  13.780
 8726W        W79326  23.043   7.068   2.827
 8727W        W79327  23.009  13.578  11.643
 8728W        W79328  23.153   8.440   1.820
 8729W        W79329  18.999  17.133  11.159
 8730W        W79330  32.444  14.316   1.749
 8731W        W79331  40.730  34.429  13.103
 8732W        W79332  34.393  22.072  13.349
 8733W        W79333   9.670  34.000  12.408
 8734W        W79334   9.732  42.184  12.525
 8735W        W79335  31.579  38.581   0.518
 8736W        W79336  38.362  11.849  11.086
 8737W        W79337  32.294   9.880  10.934
 8738W        W79338  21.473  43.744  12.325
 8739W        W79339  35.812   0.012   4.604
 8740W        W79340  20.384  41.830   1.013
 8741W        W79341  38.860  13.046   2.751
 8742W        W79342  26.503  12.945  13.425
 8743W        W79343  21.471   4.400   4.648
 8744W        W79344  22.842  34.971   0.769
 8745W        W79345  19.501  39.953   0.472
 8746W        W79346  33.000  12.175  14.772
 8747W        W79347  37.872  21.050  12.524
 8748W        W79348  40.828  11.276   3.249
 8749W        W79349  20.180   4.415  11.031
 8750W        W79350   2.863   7.216   2.987
 8751W        W79351  31.440  21.152  12.074
 8752W        W79352   4.744   2.875  14.131
 8753W        W79353  41.966  37.988   0.840
 8754W        W79354   5.161   2.349  13.501
 8755W        W79355   2.459   0.380  14.173
 8756W        W79356   8.100  29.296  11.499
 8757W        W79357  28.616   3.951  14.680
 8758W        W79358  41.868  16.025   1.821
 8759W        W79359  34.767  35.139  13.849
 8760W        W79360  10.341  28.410   4.516
 8761W        W79361  17.625  12.743   0.074
 8762W        W79362  26.784   1.990  12.955
 8763W        W79363  25.615  37.665   0.952
 8764W        W79364  25.692   0.897  11.466
 8765W        W79365  26.128   0.415  11.447
 8766W        W79366   5.846   1.370  11.185
 8767W        W79367  11.327  31.472   1.906
 8768W        W79368  26.244  23.623  14.861
 8769W        W79369  23.023  36.297   4.589
 8770W        W79370  18.334  39.463   2.031
 8771W        W79371   2.724  19.850   3.996
 8772W        W79372   9.876  36.993  11.136
 8773W        W79373  17.966   4.451   3.753
 8774W        W79374  27.887   7.376   1.960
 8775W        W79375  11.235   5.718  11.572
 8776W        W79376  23.814  15.168   1.202
 8777W        W79377   4.108  43.283   3.765
 8778W        W79378  34.099  26.116  11.138
 8779W        W79379  38.015  37.573   4.192
 8780W        W79380  14.074  15.229   0.930
 8781W        W79381  36.727  12.795   1.478
 8782W        W79382  25.566   5.263   2.470
 8783W        W79383  13.098  43.820   2.727
 8784W        W79384  24.192  18.753   1.467
 8785W        W79385   9.305  39.854  14.528
 8786W        W79386  16.275   2.894  12.139
 8787W        W79387  22.496  20.414   2.320
 8788W        W79388  29.039  12.807   0.770
 8789W        W79389  32.109   9.264  12.116
 8790W        W79390  27.033  31.575  14.844
 8791W        W79391  29.136  33.982   1.241
 8792W        W79392   9.749  40.295   1.280
 8793W        W79393  21.271  34.025   0.710
 8794W        W79394  23.744  19.826   4.250
 8795W        W79395  43.310   1.221  11.622
 8796W        W79396  11.068  26.672  14.129
 8797W        W79397   2.425   7.213   2.733
 8798W        W79398  35.559  26.207   1.179
 8799W        W79399   0.778  39.413   2.324
 8800W        W79400  11.657  44.510   2.099
 8801W        W79401  30.571  23.212  11.470
 8802W        W79402  27.817  41.897  12.136
 8803W        W79403  16.191  32.495  10.661
 8804W        W79404  26.826  16.036  11.020
 8805W        W79405   4.172  18.681   0.954
 8806W        W79406  10.151  38.445  12.787
 8807W        W79407  40.434  32.106   2.263
 8808W        W79408  22.860  12.270   4.787
 8809W        W79409   5.787   5.319   2.755
 8810W        W79410  16.184  21.789   4.175
 8811W        W79411  24.466   7.316  14.210
 8812W        W79412   0.221  22.762  14.031
 8813W        W79413  27.093  32.985  12.124
 8814W        W79414  27.779  23.009   3.626
 8815W        W79415  27.952   3.726   2.749
 8816W        W79416  21.634  36.260   2.385
 8817W        W79417  20.232  38.939   2.232
 8818W        W79418  36.604  43.964   4.978
 8819W        W79419  37.454  21.591   1.441
 8820W        W79420  38.546  25.280   3.231
 8821W        W79421   0.321  11.427   1.298
 8822W        W79422  29.932  32.588   1.269
 8823W        W79423  37.722  43.927   4.354
 8824W        W79424  10.889   8.565   4.093
 8825W        W79425  37.368  38.712   1.994
 8826W        W79426  36.384  24.719   0.801
 8827W        W79427  43.689  26.137   4.097
 8828W        W79428  21.770  35.716   1.399
 8829W        W79429  22.514  10.434  11.661
 8830W        W79430  41.477  42.355  13.069
 8831W        W79431  10.256   9.340   0.224
 8832W        W79432  26.744  43.313  10.607
 8833W        W79433  38.947  23.742   4.978
 8834W        W79434  30.171  17.662  12.099
 8835W        W79435  40.973  22.972   2.355
 8836W        W79436   4.653   8.925   0.330
 8837W        W79437  13.883  28.556   3.311
 8838W        W79438  22.248  38.570  12.454
 8839W        W79439  23.216   2.367  10.629
 8840W        W79440  14.203  15.968  12.009
 8841W        W79441  22.052  10.227  12.349
 8842W        W79442  23.702  30.657   2.763
 8843W        W79443  42.129  14.267   3.049
 8844W        W79444  12.774  43.015  14.641
 8845W        W79445  34.491  23.715  13.383
 8846W        W79446  42.800  22.782  14.854
 8847W        W79447  15.461  25.712  10.738
 8848W        W79448  35.085  20.085   4.624
 8849W        W79449  23.222  26.594   1.533
 8850W        W79450  22.091  44.280  14.306
 8851W        W79451  22.533  24.595   0.376
 8852W        W79452   2.828  31.416  10.282
 8853W        W79453   8.592  37.111  10.640
 8854W        W79454  40.920  28.122  11.633
 8855W        W79455  30.709   3.451   0.832
 8856W        W79456   5.674  42.005  12.826
 8857W        W79457   7.059   8.692   1.856
 8858W        W79458  13.696  33.803   0.447
 8859W        W79459  23.523  23.518  13.424
 8860W        W79460  38.938  10.406   0.352
 8861W        W79461  41.859  38.691   3.218
 8862W        W79462  14.355   1.030  14.281
 8863W        W79463  21.420  35.064   3.458
 8864W        W79464  13.237  32.207  13.408
 8865W        W79465   9.676  25.638  12.830
 8866W        W79466   3.622  23.015  12.432
 8867W        W79467  41.513  31.416  14.546
 8868W        W79468   7.147  21.670   4.145
 8869W        W79469   8.203   9.200   4.536
 8870W        W79470   6.209  31.516   4.665
 8871W        W79471  16.124  20.391   1.328
 8872W        W79472  10.797  15.963   4.680
 8873W        W79473  42.869  24.065   2.618
 8874W        W79474  33.982  27.896  12.941
 8875W        W79475  36.320  11.187   0.553
 8876W        W79476  17.936  15.064  14.349
 8877W        W79477  19.770   6.220  14.517
 8878W        W79478  33.054  36.431   1.381
 8879W        W79479  18.758  37.375   1.296
 8880W        W79480   4.317   2.885   4.809
 8881W        W79481   0.456  11.769   0.779
 8882W        W79482  44.272  19.581   1.124
 8883W        W79483  15.324  14.302  12.803
 8884W        W79484   5.787  24.614   2.016
 8885W        W79485  43.750  33.587  14.886
 8886W        W79486  23.077  30.432  13.097
 8887W        W79487  28.072   0.206  12.527
 8888W        W79488  22.210  42.809   1.897
 8889W        W79489  23.251  25.984  13.802
 8890W        W79490  24.132  21.717  14.568
 8891W        W79491  11.178   6.507  13.496
 8892W        W79492  22.011  22.574   1.254
 8893W        W79493   4.297   7.183   4.516
 8894W        W79494  38.304  10.082   1.188
 8895W        W79495  29.948  15.837   2.591
 8896W        W79496  15.654   6.474   0.881
 8897W        W79497  34.530  37.507  14.961
 8898W        W79498  26.740  31.433  10.562
 8899W        W79499   8.838   5.974  13.261
 8900W        W79500  20.253  19.477   1.400
 8901W        W79501  17.427  12.649   4.437
 8902W        W79502  16.826  26.725   2.622
 8903W        W79503  18.849  44.295  11.141
 8904W        W79504   1.477  30.887   1.804
 8905W        W79505  37.809  20.571  11.946
 8906W        W79506  37.210   3.736  11.968
 8907W        W79507  33.858  38.760   2.775
 8908W        W79508   3.170  20.175   0.304
 8909W        W79509  28.113  30.113   2.463
 8910W        W79510  34.631  26.751   0.371
 8911W        W79511  35.871   8.489   5.115
 8912W        W79512  29.416  44.328  11.692
 8913W        W79513  28.717  40.851   2.302
 8914W        W79514  13.790  12.965  11.976
 8915W        W79515  38.748  44.337  14.265
 8916W        W79516  44.991  11.767   4.622
 8917W        W79517  33.636  44.382   3.845
 8918W        W79518  42.688  11.708  14.454
 8919W        W79519  26.933   8.196   0.442
 8920W        W79520  27.479  39.505   4.026
 8921W        W79521  18.138  12.750  12.478
 8922W        W79522  31.526  19.497   0.465
 8923W        W79523   2.823  17.676  12.600
 8924W        W79524  37.336  21.117   1.688
 8925W        W79525   6.791  19.123  11.403
 8926W        W79526  10.496  44.866   2.772
 8927W        W79527  31.443  31.106  13.991
 8928W        W79528   7.857   1.297  13.264
 8929W        W79529  15.318  12.244   0.913
 8930W        W79530  39.536  20.127  10.650
 8931W        W79531  30.495   5.767   2.672
 8932W        W79532  24.152  27.096   0.492
 8933W        W79533  29.353  21.755  14.750
 8934W        W79534  27.597  28.045  13.565
 8935W        W79535   6.815  15.390   2.653
 8936W        W79536  28.861  16.613   0.805
 8937W        W79537   2.941  29.407  10.887
 8938W        W79538  30.210  33.815  13.612
 8939W        W79539  13.633   9.414  10.438
 8940W        W79540   9.465  22.742   4.123
 8941W        W79541   5.547  22.987  13.386
 8942W        W79542  11.278  24.177  12.028
 8943W        W79543  17.469  34.906  14.811
 8944W        W79544  19.270  16.772  11.949
 8945W        W79545  33.312  35.859   0.847
 8946W        W79546  16.774  39.058  13.937
 8947W        W79547  44.197  14.843  14.283
 8948W        W79548   2.675  20.656  13.035
 8949W        W79549   7.335  26.456   1.045
 8950W        W79550  39.117  44.515   9.872
 8951W        W79551  22.055  10.581  11.471
 8952W        W79552  41.684   0.821   0.686
 8953W        W79553  36.265  30.716  11.563
 8954W        W79554  15.564  28.076  11.932
 8955W        W79555  42.719  12.509  14.826
 8956W        W79556   8.908  37.550   4.602
 8957W        W79557  28.059  26.130  13.104
 8958W        W79558  22.213  14.713  10.685
 8959W        W79559   1.284  13.089  13.267
 8960W        W79560  26.633   6.712  13.015
 8961W        W79561  44.953  24.753  11.328
 8962W        W79562  12.592   0.812  13.807
 8963W        W79563  13.206  24.030  12.018
 8964W        W79564  44.936   3.375   2.485
 8965W        W79565  35.695  29.190   1.056
 8966W        W79566  40.378  11.711  13.035
 8967W        W79567  29.619  16.947   0.489
 8968W        W79568  25.298  43.759  11.004
 8969W        W79569   7.164  28.062  14.512
 8970W        W79570   1.951   1.400   0.260
 8971W        W79571  23.482  18.769   1.991
 8972W        W79572  27.764  13.459   0.314
 8973W        W79573  21.985  27.590   3.070
 8974W        W79574   8.799  11.956   0.292
 8975W        W79575  36.473  43.554  12.470
 8976W        W79576   7.717  33.383   0.456
 8977W        W79577   6.160  11.460  11.633
 8978W        W79578  12.429  29.065   0.895
 8979W        W79579  43.927  38.064   3.336
 8980W        W79580  38.641  35.233  11.995
 8981W        W79581  13.186  10.567   1.368
 8982W        W79582  15.408   8.893   0.525
 8983W        W79583  14.700  18.399   0.725
 8984W        W79584  36.984  42.222   4.519
 8985W        W79585   7.890  21.377   4.354
 8986W        W79586  23.369   4.874   2.167
 8987W        W79587  30.436  10.392   1.359
 8988W        W79588  25.045  41.105  12.482
 8989W        W79589  31.089  19.514   2.743
 8990W        W79590   2.673  25.024   2.187
 8991W        W79591  31.473  15.701   3.781
 8992W        W79592  13.365  10.128  11.642
 8993W        W79593  41.868  41.016   2.813
 8994W        W79594   2.528  43.203  12.534
 8995W        W79595  15.717  38.834  14.419
 8996W        W79596  30.562  27.693   1.869
 8997W        W79597  19.039  23.576  14.376
 8998W        W79598  25.084  22.749   4.544
 8999W        W79599  35.631   3.448   3.365
 9000W        W79600   9.868  18.989  14.845
 9001W        W79601   3.536  14.079  14.710
 9002W        W79602  15.613  38.148   2.769
 9003W        W79603  31.214  11.727  12.566
 9004W        W79604  25.171  15.049   1.879
 9005W        W79605  31.514  35.392   1.985
 9006W        W79606  17.585  19.322   3.573
 9007W        W79607  31.577  41.294   3.288
 9008W        W79608  13.008  43.946   3.239
 9009W        W79609  18.946  27.725   5.506
 9010W        W79610  15.596   0.001  12.345
 9011W        W79611  36.290  22.342  12.973
 9012W        W79612  26.443   3.354  12.034
 9013W        W79613  11.118  40.988  11.930
 9014W        W79614   9.402   5.756  14.938
 9015W        W79615  40.051  43.269   1.425
 9016W        W79616   6.785   1.427   0.787
 9017W        W79617   4.999  16.158   4.448
 9018W        W79618  40.948  44.358  13.091
 9019W        W79619   8.445   7.496  12.385
 9020W        W79620  19.320  40.018  10.627
 9021W        W79621  25.679  12.978   3.196
 9022W        W79622  40.969  14.721   2.384
 9023W        W79623   8.037  30.908   1.162
 9024W        W79624  35.039  21.033   1.325
 9025W        W79625  38.908  16.465   1.806
 9026W        W79626  34.603   7.885  12.319
 9027W        W79627  19.676  30.486  12.888
 9028W        W79628  21.744  26.242   2.901
 9029W        W79629  19.151   5.550   0.280
 9030W        W79630  12.234   6.688  14.788
 9031W        W79631  42.887  19.250  13.961
 9032W        W79632  38.361  13.251   2.858
 9033W        W79633  22.525  24.003   1.498
 9034W        W79634  33.961  15.080  13.998
 9035W        W79635  27.533  40.010   4.237
 9036W        W79636  36.828  13.511   2.275
 9037W        W79637   9.699  32.598   1.781
 9038W        W79638  34.964  31.589   2.842
 9039W        W79639  17.112   0.037  12.754
 9040W        W79640   8.438   9.378  11.251
 9041W        W79641  36.591  40.991  12.882
 9042W        W79642  28.181  42.364  12.087
 9043W        W79643  40.853  19.614   0.747
 9044W        W79644   8.894  40.835   1.446
 9045W        W79645  22.177   8.236   0.152
 9046W        W79646  21.273   9.763  14.994
 9047W        W79647   3.375   2.995  14.409
 9048W        W79648  15.281  19.498   2.058
 9049W        W79649  18.035  43.843  11.010
 9050W        W79650  41.783  39.132  12.641
 9051W        W79651  12.126  39.188   3.353
 9052W        W79652  23.009   6.612   3.074
 9053W        W79653  35.310  30.920  11.932
 9054W        W79654  34.815   0.714   1.960
 9055W        W79655  40.383  26.663   1.163
 9056W        W79656  32.693  42.380  11.610
 9057W        W79657  13.625  43.864   2.632
 9058W        W79658   3.202  36.471   5.141
 9059W        W79659  19.758   7.180  13.161
 9060W        W79660  10.956  20.049   2.192
 9061W        W79661  27.067  17.059  10.748
 9062W        W79662  34.042  44.312  12.429
 9063W        W79663   7.982  33.065  12.861
 9064W        W79664  25.427   2.454   3.660
 9065W        W79665  13.041   0.777   1.182
 9066W        W79666  44.373  39.659  14.872
 9067W        W79667  13.504  41.389   2.324
 9068W        W79668  10.660   0.576   3.140
 9069W        W79669   0.896  40.823   0.770
 9070W        W79670  31.851  21.187   3.102
 9071W        W79671   7.691  32.506   2.084
 9072W        W79672   4.776  40.807  10.562
 9073W        W79673  40.203  12.846   4.000
 9074W        W79674  23.629  40.980   3.857
 9075W        W79675   6.697  29.470   1.062
 9076W        W79676  39.219   3.327   4.154
 9077W        W79677  25.421  11.278   3.546
 9078W        W79678  12.733  18.951   0.309
 9079W        W79679  38.525  37.110  12.642
 9080W        W79680  25.919  39.976   4.559
 9081W        W79681   1.757  40.261   2.870
 9082W        W79682  36.856   3.997  12.398
 9083W        W79683   0.728   7.921   1.162
 9084W        W79684  41.527  44.379   3.672
 9085W        W79685  28.368  41.802  12.771
 9086W        W79686  22.409  30.973   1.196
 9087W        W79687  16.071  36.579  13.832
 9088W        W79688  10.712  39.792   4.635
 9089W        W79689   0.475  23.574   1.433
 9090W        W79690  13.625  22.056   4.011
 9091W        W79691   9.751   9.878   0.953
 9092W        W79692  31.605   3.293  10.676
 9093W        W79693  42.598   4.217  12.104
 9094W        W79694  18.926  10.725   3.751
 9095W        W79695  41.332  26.414   4.596
 9096W        W79696  34.992  24.573   0.391
 9097W        W79697  14.634  40.721  12.481
 9098W        W79698  10.724   6.374  13.290
 9099W        W79699   6.891  28.912  10.539
 9100W        W79700  18.749  15.049   4.569
 9101W        W79701   1.485   5.360   4.556
 9102W        W79702   1.516   0.940   3.874
 9103W        W79703  19.416  19.139   0.662
 9104W        W79704  34.801  31.899   0.845
 9105W        W79705  10.204   7.979  13.675
 9106W        W79706  11.700  22.706  11.170
 9107W        W79707   2.787  30.989   1.341
 9108W        W79708  44.748  11.307  12.587
 9109W        W79709  24.694  28.033  12.603
 9110W        W79710   0.491  18.159  12.919
 9111W        W79711  35.955  39.883  12.439
 9112W        W79712  38.592  44.311   1.036
 9113W        W79713  36.981  33.790  12.456
 9114W        W79714   2.041   4.007  13.307
 9115W        W79715   4.956  44.211  10.833
 9116W        W79716  28.736  34.349  12.574
 9117W        W79717  19.140  32.389   0.186
 9118W        W79718  34.642  28.935   1.282
 9119W        W79719  43.877  25.155   2.635
 9120W        W79720  33.964  38.019  13.511
 9121W        W79721   6.950   4.548  12.124
 9122W        W79722  12.019   8.752   4.571
 9123W        W79723  29.361  22.253   0.372
 9124W        W79724  26.530  26.203   4.191
 9125W        W79725  13.842  32.677  12.356
 9126W        W79726  31.191  38.805  11.006
 9127W        W79727  18.914  26.562  13.829
 9128W        W79728  18.627  44.354  12.123
 9129W        W79729  37.570  19.682  10.669
 9130W        W79730   7.961  12.211  13.405
 9131W        W79731  19.492   8.425   3.737
 9132W        W79732  42.654   3.648   5.005
 9133W        W79733  20.636   1.457  11.620
 9134W        W79734  23.466  30.414  14.004
 9135W        W79735  34.939  28.408  14.660
 9136W        W79736   5.725   6.086   0.441
 9137W        W79737  10.146  22.745   4.846
 9138W        W79738  23.740  16.349  13.828
 9139W        W79739  24.074  22.503   0.951
 9140W        W79740  14.602  37.334  12.643
 9141W        W79741  17.773  35.042  11.851
 9142W        W79742  33.549  15.815   2.709
 9143W        W79743  40.422  17.284   1.540
 9144W        W79744  34.505   4.123  12.131
 9145W        W79745  19.260  34.624   4.717
 9146W        W79746  41.768  15.086   4.601
 9147W        W79747  20.563   8.976   1.799
 9148W        W79748  32.955  22.982  13.879
 9149W        W79749  18.842   7.324  11.652
 9150W        W79750  16.658  43.389  10.691
 9151W        W79751  26.146  35.400  11.890
 9152W        W79752   4.845  24.644  12.710
 9153W        W79753  25.159  10.625  12.055
 9154W        W79754   6.199  15.780  12.067
 9155W        W79755  28.811  25.012   4.048
 9156W        W79756   6.854  36.883   1.830
 9157W        W79757  34.135  29.054   4.086
 9158W        W79758  37.313  23.395  13.407
 9159W        W79759   6.875  16.517  14.383
 9160W        W79760  44.505   2.530   2.637
 9161W        W79761  32.826   5.168  13.597
 9162W        W79762  32.061  34.141   1.783
 9163W        W79763  40.583   7.733  14.900
 9164W        W79764   2.954  27.268  13.876
 9165W        W79765   6.812  10.785  10.339
 9166W        W79766  29.528  35.614   3.789
 9167W        W79767   4.038   7.473   3.642
 9168W        W79768  28.962  37.995   3.630
 9169W        W79769   7.275  37.054   4.566
 9170W        W79770  36.838  31.536  11.530
 9171W        W79771  19.305   0.322   3.529
 9172W        W79772   2.276  24.507  13.381
 9173W        W79773   2.717  12.658   4.273
 9174W        W79774  19.048   9.934   2.736
 9175W        W79775  34.345   3.200   3.829
 9176W        W79776  31.680  14.827  14.807
 9177W        W79777  13.870   5.741   4.531
 9178W        W79778  27.241  39.106  12.940
 9179W        W79779  18.445  30.958  14.103
 9180W        W79780   0.890  26.606   1.763
 9181W        W79781  43.782  44.247  14.430
 9182W        W79782  13.827  30.545  14.117
 9183W        W79783  15.103  37.548   2.422
 9184W        W79784  19.053   8.190   3.624
 9185W        W79785  36.506  42.311   3.803
 9186W        W79786  25.218   9.781   1.572
 9187W        W79787  37.857   1.112  12.399
 9188W        W79788  14.449  25.902   4.658
 9189W        W79789  31.432   8.437  13.800
 9190W        W79790  14.944  16.551   1.776
 9191W        W79791  18.370  20.744  12.565
 9192W        W79792  19.211  24.469   1.261
 9193W        W79793  17.199   8.466  14.556
 9194W        W79794   8.302  36.780   1.727
 9195W        W79795  17.969  26.930  13.746
 9196W        W79796  44.019  39.823   2.262
 9197W        W79797  10.083  21.639   3.358
 9198W        W79798  22.178  35.106  11.608
 9199W        W79799   2.032  38.453  11.965
 9200W        W79800   3.905  32.024  14.890
 9201W        W79801  20.785  38.671   3.173
 9202W        W79802  25.936   7.410  14.365
 9203W        W79803  37.987  28.099  13.081
 9204W        W79804  39.414  33.398   3.597
 9205W        W79805  23.587  15.414  14.276
 9206W        W79806  35.123  44.406  10.457
 9207W        W79807  22.962  22.984  13.009
 9208W        W79808  34.573  13.530  11.979
 9209W        W79809   6.179  43.733  12.438
 9210W        W79810  28.492  43.365   0.960
 9211W        W79811  33.190  11.644  11.073
 9212W        W79812  21.224   4.804  13.846
 9213W        W79813  19.685  39.647  10.681
 9214W        W79814  42.812  18.718  10.038
 9215W        W79815  36.841  23.685  10.455
 9216W        W79816  27.419  20.704   0.765
 9217W        W79817   3.813  14.822  12.149
 9218W        W79818   6.477  43.403  14.419
 9219W        W79819   9.507  24.649   3.582
 9220W        W79820  10.895   9.536  14.935
 9221W        W79821  36.417  34.617   4.647
 9222W        W79822  36.474  21.611  12.665
 9223W        W79823  33.163  20.469   4.660
 9224W        W79824  10.118   5.261  10.424
 9225W        W79825  15.059  12.576  14.865
 9226W        W79826  21.189  37.253   1.305
 9227W        W79827   9.287  16.482  12.916
 9228W        W79828  44.295  41.979  13.298
 9229W        W79829  37.608  35.852   0.827
 9230W        W79830  13.162  23.708  10.753
 9231W        W79831  41.317   9.208  12.381
 9232W        W79832  24.245  25.198   0.432
 9233W        W79833  32.583   9.656  13.104
 9234W        W79834   0.597  18.985   1.647
 9235W        W79835  30.354  38.888   2.249
 9236W        W79836   3.515  44.334   4.577
 9237W        W79837  28.211  22.146   2.394
 9238W        W79838  35.648  29.168   4.469
 9239W        W79839   0.012   5.568  12.483
 9240W        W79840   3.743  34.640  14.151
 9241W        W79841  24.245  16.003   0.910
 9242W        W79842  33.530  34.604  11.819
 9243W        W79843   3.237  21.251   4.983
 9244W        W79844  15.807  31.040  11.140
 9245W        W79845  12.004  35.922   4.675
 9246W        W79846   4.365  17.585  14.445
 9247W        W79847  25.024  10.823  11.022
 9248W        W79848   6.800  23.695  14.712
 9249W        W79849  41.775  11.256   4.514
 9250W        W79850  14.189  25.486   3.686
 9251W        W79851   2.158  26.115   0.370
 9252W        W79852  30.705   2.031  12.543
 9253W        W79853   2.615   6.698  12.098
 9254W        W79854  19.812  18.789   4.570
 9255W        W79855   9.668  28.558   1.958
 9256W        W79856  40.907  11.097  11.610
 9257W        W79857  10.855  40.556   4.173
 9258W        W79858   5.306  25.152  12.155
 9259W        W79859  26.244   7.567   2.897
 9260W        W79860  42.257  34.110   2.174
 9261W        W79861  38.736   6.236   3.407
 9262W        W79862   1.974  28.649  14.468
 9263W        W79863   8.412  10.548  13.926
 9264W        W79864   3.863  33.356  14.870
 9265W        W79865  41.021  20.366   5.742
 9266W        W79866  34.865  36.352   3.688
 9267W        W79867  30.375  20.208  12.139
 9268W        W79868   9.863  23.238  12.834
 9269W        W79869  20.896  39.744  13.809
 9270W        W79870  42.027  44.495   4.578
 9271W        W79871   3.761   2.747   0.402
 9272W        W79872  39.401  20.413   2.486
 9273W        W79873  43.852  13.803  13.892
 9274W        W79874   2.612  28.287   0.668
 9275W        W79875  10.688  13.867  11.421
 9276W        W79876   8.149  14.347  14.486
 9277W        W79877   3.640  37.307  14.381
 9278W        W79878  35.147  12.222  11.264
 9279W        W79879  44.679  30.417  14.861
 9280W        W79880  15.745   0.715   0.327
 9281W        W79881  34.280  43.017  13.783
 9282W        W79882  29.737   4.223   1.699
 9283W        W79883  20.713  40.296  11.697
 9284W        W79884   9.042  22.679  12.671
 9285W        W79885  36.797  32.759  14.244
 9286W        W79886   1.066  30.472  11.915
 9287W        W79887  17.073  36.849   5.034
 9288W        W79888  43.204  14.642   3.142
 9289W        W79889  17.885  25.706   1.337
 9290W        W79890   6.889  36.495  12.007
 9291W        W79891  25.354  21.870  12.411
 9292W        W79892  25.425  23.206   1.897
 9293W        W79893  15.634  10.734   4.475
 9294W        W79894  37.848  11.251  10.715
 9295W        W79895  34.876  21.813   2.820
 9296W        W79896  35.171  43.466  11.462
 9297W        W79897   9.411   8.451   0.728
 9298W        W79898   2.769  23.152  12.990
 9299W        W79899   8.245  16.864   0.739
 9300W        W79900  38.996  30.367  13.874
 9301W        W79901  40.876  17.067   1.461
 9302W        W79902   5.735  32.011  14.947
 9303W        W79903  14.858  33.193  12.987
 9304W        W79904  17.188  33.429  12.338
 9305W        W79905  29.427  38.011   3.978
 9306W        W79906  44.002  17.575   3.509
 9307W        W79907  17.661  37.247   3.875
 9308W        W79908  23.113  32.531  13.336
 9309W        W79909   4.633   1.815   0.705
 9310W        W79910  24.215   1.777  14.202
 9311W        W79911   7.986   6.490  13.684
 9312W        W79912  19.986  35.035   1.247
 9313W        W79913  39.587  19.678  11.651
 9314W        W79914  21.413  29.503   2.096
 9315W        W79915   3.783   1.273  13.845
 9316W        W79916   1.016   3.962   1.903
 9317W        W79917  42.014  23.035   9.974
 9318W        W79918  23.568   9.768   1.364
 9319W        W79919  25.209  34.489  14.229
 9320W        W79920  26.608  30.207   0.291
 9321W        W79921  25.931   9.728   3.238
 9322W        W79922  13.196   2.679   4.123
 9323W        W79923  12.387  44.397  11.083
 9324W        W79924  36.760  12.663   2.809
 9325W        W79925  34.380  37.256   1.889
 9326W        W79926  11.799  17.204  11.217
 9327W        W79927  17.044  25.450   0.782
 9328W        W79928  27.196  35.733   0.457
 9329W        W79929  25.680  44.035   1.962
 9330W        W79930  32.638   5.224  11.633
 9331W        W79931   6.723  22.154   2.840
 9332W        W79932  37.488  42.444   3.727
 9333W        W79933  14.193  37.671  12.381
 9334W        W79934  27.453   3.557   4.238
 9335W        W79935  30.893  20.659   4.172
 9336W        W79936   2.254  37.494   0.772
 9337W        W79937  38.810   2.408   2.416
 9338W        W79938  23.094  22.418  10.780
 9339W        W79939  25.221   9.863  12.538
 9340W        W79940   4.740   1.822  13.302
 9341W        W79941  26.543  14.825   5.009
 9342W        W79942  39.562  28.971  13.172
 9343W        W79943  28.708  32.067  13.741
 9344W        W79944  19.070  30.889  11.545
 9345W        W79945  22.173  15.546  14.801
 9346W        W79946  31.748  30.935   1.248
 9347W        W79947  31.416  12.064  11.623
 9348W        W79948  34.377  35.457  12.354
 9349W        W79949  20.474  14.601   4.478
 9350W        W79950  16.883  25.656   3.614
 9351W        W79951  33.913  15.540   3.707
 9352W        W79952  26.122  32.164   0.931
 9353W        W79953  13.650  17.654  14.274
 9354W        W79954   3.535  18.158  11.585
 9355W        W79955  10.187   6.210   1.349
 9356W        W79956  12.986  21.455   0.437
 9357W        W79957  15.225  17.757  12.923
 9358W        W79958  19.547  22.141  11.439
 9359W        W79959  24.194   7.729   0.430
 9360W        W79960  37.106  35.068  13.802
 9361W        W79961  14.730  35.601   0.507
 9362W        W79962  42.230   2.407   1.447
 9363W        W79963   3.878  19.135   0.917
 9364W        W79964  14.388  33.940  13.384
 9365W        W79965  34.514   6.444   3.535
 9366W        W79966   0.942  25.651  13.100
 9367W        W79967  20.564   1.940  14.352
 9368W        W79968  38.835   0.646  11.608
 9369W        W79969   5.884  31.422  14.503
 9370W        W79970  18.678   1.066  12.869
 9371W        W79971  34.948  27.031   1.470
 9372W        W79972  41.919  26.538   1.207
 9373W        W79973  43.317  12.843  10.705
 9374W        W79974  10.952  27.182  11.999
 9375W        W79975   3.021  37.380   2.770
 9376W        W79976   6.519  17.642  13.766
 9377W        W79977   4.171   4.289  13.872
 9378W        W79978   2.498  29.151   4.893
 9379W        W79979  35.155  28.235   5.123
 9380W        W79980  40.232  39.414  12.483
 9381W        W79981  33.087  37.432  11.146
 9382W        W79982  10.647  33.967  13.336
 9383W        W79983  20.333   4.409  12.923
 9384W        W79984   6.374  21.713  11.720
 9385W        W79985  28.201  25.914  12.237
 9386W        W79986  43.741  22.648   2.839
 9387W        W79987   8.667  29.614   0.274
 9388W        W79988  19.774  20.220   4.053
 9389W        W79989  36.403  30.665  10.739
 9390W        W79990  12.049  41.845   1.648
 9391W        W79991  13.649  20.986  13.571
 9392W        W79992   7.039  32.310   1.441
 9393W        W79993   0.338   4.575   3.307
 9394W        W79994  24.318  13.150   2.859
 9395W        W79995   8.159  14.846  10.716
 9396W        W79996   0.809  22.504   1.199
 9397W        W79997  34.359  17.585  13.353
 9398W        W79998  13.127   6.019   1.905
 9399W        W79999   3.522  27.497   0.028
 9400W        W80000  12.613   9.722   1.811
 9401W        W80001  43.758  24.472  13.352
 9402W        W80002  34.911   3.704  13.748
 9403W        W80003   9.351  42.725   4.257
 9404W        W80004  23.911  38.521  13.076
 9405W        W80005  42.062  36.056  14.982
 9406W        W80006  34.075   7.806   4.488
 9407W        W80007  29.512  41.481  13.438
 9408W        W80008   7.193  41.637   2.397
 9409W        W80009  29.679  22.700   2.912
 9410W        W80010  39.068  26.473   0.355
 9411W        W80011  36.341  33.454  13.457
 9412W        W80012  41.233   4.706   4.022
 9413W        W80013  38.227  20.081  11.038
 9414W        W80014  33.068  26.832  10.479
 9415W        W80015  18.928  27.622   2.787
 9416W        W80016  16.570  18.062  13.051
 9417W        W80017  35.540  37.271   2.542
 9418W        W80018  34.596  16.135   0.797
 9419W        W80019  34.568  25.746   3.327
 9420W        W80020  14.136   6.342   2.019
 9421W        W80021  14.814  30.366  13.570
 9422W        W80022   7.836  29.787   4.445
 9423W        W80023  38.563  29.433  12.157
 9424W        W80024   2.139  14.402   2.440
 9425W        W80025  37.295  17.155   5.013
 9426W        W80026   8.538  25.053  12.758
 9427W        W80027  44.409  25.196  12.408
 9428W        W80028   7.380  26.464  12.247
 9429W        W80029  36.938  22.420   1.265
 9430W        W80030  19.444  24.215  14.973
 9431W        W80031  31.698  41.023  12.617
 9432W        W80032  28.597  35.830  14.942
 9433W        W80033  40.027  24.412   0.346
 9434W        W80034   4.319  17.049   2.439
 9435W        W80035  40.517  17.205   5.076
 9436W        W80036  14.885  28.411  10.492
 9437W        W80037  31.693  25.396  11.136
 9438W        W80038   9.131  31.970   1.642
 9439W        W80039  16.112  22.904  13.826
 9440W        W80040  27.203  43.324  13.007
 9441W        W80041   1.446  11.150   1.299
 9442W        W80042  41.971  12.277  13.579
 9443W        W80043   1.225  43.512  14.714
 9444W        W80044   1.298  21.714   1.313
 9445W        W80045  13.572  40.601   9.823
 9446W        W80046  12.783  33.396  13.758
 9447W        W80047   6.523   3.795   4.486
 9448W        W80048  28.110  20.826  10.827
 9449W        W80049  36.435   8.633  14.890
 9450W        W80050  37.351  30.175  13.212
 9451W        W80051  44.406  42.944   1.359
 9452W        W80052  40.617  44.042  14.464
 9453W        W80053  44.082  38.247   1.323
 9454W        W80054   3.069  41.449   2.565
 9455W        W80055  33.022  15.969   1.493
 9456W        W80056  36.586  33.129  13.873
 9457W        W80057  15.631  34.847  14.890
 9458W        W80058  20.737   0.273  13.472
 9459W        W80059  14.503   0.413   1.447
 9460W        W80060  35.889  20.688   4.867
 9461W        W80061   2.187  19.059   1.720
 9462W        W80062  25.226  11.062  11.463
 9463W        W80063  13.495   8.757   2.835
 9464W        W80064  42.790  31.122   3.133
 9465W        W80065  10.824  40.634  11.112
 9466W        W80066   4.798   7.692  10.768
 9467W        W80067  32.717  17.682   0.298
 9468W        W80068  26.651   9.636  11.452
 9469W        W80069  44.945   8.326   3.325
 9470W        W80070  42.222   8.615   9.908
 9471W        W80071   7.783  10.521   3.102
 9472W        W80072  11.341  23.963   2.017
 9473W        W80073  14.772   4.066   1.828
 9474W        W80074  23.281  41.755   0.966
 9475W        W80075  39.864  18.573  11.356
 9476W        W80076  41.807  17.626   4.701
 9477W        W80077  21.815  30.796  13.363
 9478W        W80078  32.734  27.056  14.811
 9479W        W80079  38.964  38.568   1.203
 9480W        W80080  23.155  32.028   2.194
 9481W        W80081   8.455   8.195  13.090
 9482W        W80082  41.925   2.185   2.706
 9483W        W80083  12.855  20.522   2.339
 9484W        W80084  35.069  19.706  11.771
 9485W        W80085   6.314   1.751   2.692
 9486W        W80086  31.025  18.959  13.362
 9487W        W80087  31.210  24.831   5.105
 9488W        W80088  11.168  11.819   3.537
 9489W        W80089  44.210  33.965  13.803
 9490W        W80090  43.712  20.747   0.750
 9491W        W80091  34.514  29.129  14.731
 9492W        W80092  10.372  11.596   3.063
 9493W        W80093  32.479  33.976  10.424
 9494W        W80094  21.023  43.572   0.859
 9495W        W80095  41.365  44.035  11.573
 9496W        W80096  36.556  18.395  12.453
 9497W        W80097   3.564  41.209  10.521
 9498W        W80098   1.176  22.526   1.577
 9499W        W80099  15.533  41.000  12.944
 9500W        W80100  40.689  44.982  13.651
 9501W        W80101  28.941   9.909   0.906
 9502W        W80102  30.897  34.003  14.819
 9503W        W80103   7.728  15.429  13.142
 9504W        W80104  20.076   4.415   3.618
 9505W        W80105   2.706  44.185  14.313
 9506W        W80106  20.074  22.602  12.046
 9507W        W80107  16.001  10.179  12.010
 9508W        W80108   9.583  16.551   2.887
 9509W        W80109   0.462  33.955  10.282
 9510W        W80110   4.720  10.277   3.587
 9511W        W80111  36.096  26.639   1.704
 9512W        W80112  11.730  33.131   4.610
 9513W        W80113  32.531  23.598   1.851
 9514W        W80114  31.109  20.752  13.347
 9515W        W80115  19.685  10.936  13.846
 9516W        W80116  27.106   7.002   2.339
 9517W        W80117   1.040  41.330  13.503
 9518W        W80118   1.637  23.744  14.762
 9519W        W80119  25.055  21.482  14.768
 9520W        W80120  19.782  17.486   3.291
 9521W        W80121   4.240  24.397   3.316
 9522W        W80122  22.216  42.838  10.281
 9523W        W80123  26.994   4.669   2.281
 9524W        W80124  15.721  38.543   0.575
 9525W        W80125  40.302  23.563   0.380
 9526W        W80126  16.614  32.154   3.243
 9527W        W80127  19.880  27.705  14.851
 9528W        W80128  24.730  38.275   1.994
 9529W        W80129  15.029  28.749  13.133
 9530W        W80130  44.304  17.339  11.577
 9531W        W80131  39.139  17.965   5.433
 9532W        W80132  20.290  23.538  13.392
 9533W        W80133  27.668   0.299  11.049
 9534W        W80134  30.914  20.249  13.300
 9535W        W80135  32.484  10.286  11.756
 9536W        W80136  26.267  18.766  13.252
 9537W        W80137   9.307  40.527  11.118
 9538W        W80138  30.559  30.493  12.968
 9539W        W80139  13.776  10.139   3.696
 9540W        W80140  39.536  17.583   1.441
 9541W        W80141  43.038  13.754   1.793
 9542W        W80142  30.651   9.251  14.739
 9543W        W80143  15.679  23.478  12.129
 9544W        W80144   6.193   5.266   3.517
 9545W        W80145  13.653  11.831   1.395
 9546W        W80146  25.622  12.678   3.646
 9547W        W80147  41.015  40.424  11.202
 9548W        W80148  33.227  29.743   2.678
 9549W        W80149   4.838  11.237  10.660
 9550W        W80150  18.573  33.271   3.316
 9551W        W80151  44.902  39.540   0.360
 9552W        W80152  27.670  39.997  10.196
 9553W        W80153  15.841  23.963  10.846
 9554W        W80154  18.791  28.632  12.053
 9555W        W80155  20.331  12.861  13.119
 9556W        W80156  20.951  10.171  12.053
 9557W        W80157  27.859  24.221  11.932
 9558W        W80158  17.562  24.519   2.800
 9559W        W80159  25.520  42.060   3.811
 9560W        W80160   9.312  11.052   2.358
 9561W        W80161  36.606  39.335   0.841
 9562W        W80162  17.064  20.798   0.148
 9563W        W80163  37.904  18.834  12.938
 9564W        W80164  42.883  42.730  13.563
 9565W        W80165   0.418  36.132  12.446
 9566W        W80166  40.333  28.062  12.187
 9567W        W80167  15.926  37.996  10.657
 9568W        W80168  42.813  21.950  14.402
 9569W        W80169  38.457  40.063   3.003
 9570W        W80170  18.009  44.401   1.713
 9571W        W80171  32.705  38.451   2.282
 9572W        W80172   3.394  28.303   2.334
 9573W        W80173   4.944  19.812   2.368
 9574W        W80174  20.118  18.400   2.557
 9575W        W80175  10.139  21.769  13.380
 9576W        W80176  22.443  30.337  12.304
 9577W        W80177  36.021  44.448   2.490
 9578W        W80178  23.132  44.526   0.461
 9579W        W80179  33.556  27.012  11.986
 9580W        W80180  19.965  34.344  13.982
 9581W        W80181   2.391  14.797   3.311
 9582W        W80182   1.262  39.876   4.118
 9583W        W80183   5.091  15.146  10.982
 9584W        W80184  15.101  31.967   4.295
 9585W        W80185  10.296  35.529   3.233
 9586W        W80186  20.669  35.015  11.552
 9587W        W80187  38.072  42.238  14.735
 9588W        W80188  17.035  12.713   4.073
 9589W        W80189  29.210  16.637   4.582
 9590W        W80190  33.952   5.967   0.783
 9591W        W80191  27.751  43.732   1.674
 9592W        W80192  37.844  44.306   3.228
 9593W        W80193  10.928  43.692  14.916
 9594W        W80194  27.502  11.080  11.957
 9595W        W80195  38.765   2.740  10.620
 9596W        W80196  15.841  12.158   0.831
 9597W        W80197   1.731   6.712  11.129
 9598W        W80198  14.248  30.712  12.049
 9599W        W80199   0.236  14.646  14.457
 9600W        W80200   9.068  30.931   4.126
 9601W        W80201   7.312  11.206   0.975
 9602W        W80202   6.797   2.447  13.906
 9603W        W80203  16.245  28.119  13.108
 9604W        W80204   5.449  27.029  13.080
 9605W        W80205  16.553   5.256   3.455
 9606W        W80206   3.453  22.056   0.474
 9607W        W80207   3.169  42.791  11.280
 9608W        W80208  23.051  24.457   2.239
 9609W        W80209  16.977  35.355   0.648
 9610W        W80210  21.222  15.025  12.808
 9611W        W80211   1.384  35.121  13.535
 9612W        W80212  41.545  28.800  13.633
 9613W        W80213  36.596   8.638   1.864
 9614W        W80214  40.377  24.495  14.081
 9615W        W80215   6.229  30.020  10.671
 9616W        W80216  35.018   6.953  13.516
 9617W        W80217  32.161  25.641  13.892
 9618W        W80218  11.944  35.005   0.518
 9619W        W80219  41.292  22.103   3.276
 9620W        W80220  14.043  20.936   2.433
 9621W        W80221  25.013  20.717   2.179
 9622W        W80222  30.403   8.514  13.857
 9623W        W80223   1.890  40.773   2.886
 9624W        W80224  30.978  32.525  12.844
 9625W        W80225  19.972  36.948  14.685
 9626W        W80226  26.485  26.610  12.610
 9627W        W80227  13.083  11.167  11.731
 9628W        W80228   3.820  11.612  10.289
 9629W        W80229  35.424  10.301   1.451
 9630W        W80230  10.873  37.419  10.649
 9631W        W80231  19.106  20.187  14.462
 9632W        W80232  31.119  19.972   4.470
 9633W        W80233  43.236  10.301  10.052
 9634W        W80234  33.834  27.731   2.350
 9635W        W80235  24.100  20.291  12.433
 9636W        W80236   4.293  32.022   3.693
 9637W        W80237   2.407   4.900  14.986
 9638W        W80238   6.043   4.892  11.373
 9639W        W80239  17.590   2.768  10.730
 9640W        W80240   4.456  32.004  14.704
 9641W        W80241  22.955  32.123   0.434
 9642W        W80242  36.399  23.486  13.313
 9643W        W80243  26.033  24.461   0.292
 9644W        W80244  40.066  38.767  13.500
 9645W        W80245  36.349   0.289   4.236
 9646W        W80246  11.133  16.974   4.539
 9647W        W80247  19.190   5.290  10.620
 9648W        W80248   9.327  10.926   0.867
 9649W        W80249   2.387  31.755  12.395
 9650W        W80250  19.636  24.511  13.448
 9651W        W80251  44.854   9.634   2.230
 9652W        W80252   0.925  10.900   2.477
 9653W        W80253  28.067  25.362  13.552
 9654W        W80254  11.634  20.585   0.968
 9655W        W80255  29.473   6.648  10.444
 9656W        W80256  22.738  10.640   1.928
 9657W        W80257  30.672   9.221   0.780
 9658W        W80258  29.717  26.187   1.785
 9659W        W80259  12.083  43.564   2.192
 9660W        W80260   4.504  21.381  14.746
 9661W        W80261  13.558  42.921  11.561
 9662W        W80262   7.834   7.357  14.769
 9663W        W80263  44.214  36.894  13.948
 9664W        W80264  37.338  13.334   1.850
 9665W        W80265  29.690  28.078   0.825
 9666W        W80266  36.462   5.470  14.349
 9667W        W80267  20.087  20.630   4.043
 9668W        W80268  14.172   6.640  11.655
 9669W        W80269   2.140  37.015  13.326
 9670W        W80270  37.928  30.033  14.510
 9671W        W80271  19.745  14.425   0.736
 9672W        W80272  38.884  19.525   0.011
 9673W        W80273  37.551  16.844  12.650
 9674W        W80274  23.174  41.620  12.294
 9675W        W80275  17.235  31.454  14.483
 9676W        W80276  32.049  29.768   3.229
 9677W        W80277  31.163  33.958   1.685
 9678W        W80278  13.938  38.363  11.447
 9679W        W80279  44.966  12.098   3.981
 9680W        W80280  21.246  40.638   0.896
 9681W        W80281  18.247  26.783   4.156
 9682W        W80282   5.389  19.227  14.743
 9683W        W80283   3.822   7.834  14.218
 9684W        W80284  28.387  26.602   0.328
 9685W        W80285  14.188   6.622  10.655
 9686W        W80286   1.503  27.724   2.600
 9687W        W80287  32.797  10.684  14.365
 9688W        W80288  39.128  37.340   2.719
 9689W        W80289  25.759  21.731   1.745
 9690W        W80290   3.170   1.549  11.977
 9691W        W80291  25.867   6.376   2.213
 9692W        W80292  27.063   6.355  13.852
 9693W        W80293  23.207  14.915  14.808
 9694W        W80294  35.447   2.201   1.729
 9695W        W80295  27.966  10.057  13.986
 9696W        W80296  20.096  25.988  12.703
 9697W        W80297  20.291  11.684   1.746
 9698W        W80298  31.538  29.427  12.363
 9699W        W80299  15.265  29.703  14.577
 9700W        W80300  15.746  42.074  14.712
 9701W        W80301  37.759   8.942  13.864
 9702W        W80302  43.589   0.732   4.021
 9703W        W80303  44.229  27.386   3.572
 9704W        W80304  23.072  27.578   4.690
 9705W        W80305  16.374   6.443  14.609
 9706W        W80306   8.832  39.578   1.005
 9707W        W80307  41.298  27.767  11.477
 9708W        W80308  25.575   7.808   0.885
 9709W        W80309  22.532  38.749  13.095
 9710W        W80310  15.694   9.497   2.284
 9711W        W80311  31.412   0.921  12.857
 9712W        W80312  29.647  17.717   3.770
 9713W        W80313  30.682  23.780   0.316
 9714W        W80314  27.696  25.943   1.729
 9715W        W80315  39.127   6.182   4.831
 9716W        W80316  36.166  19.282  11.393
 9717W        W80317  32.483  19.219   2.799
 9718W        W80318  38.766   7.630   3.664
 9719W        W80319  36.998  25.428  11.977
 9720W        W80320  28.061  22.793  12.704
 9721W        W80321  30.051  17.861  14.402
 9722W        W80322  21.238  35.075   4.941
 9723W        W80323  25.210  22.063   3.066
 9724W        W80324   4.431   6.371   0.186
 9725W        W80325  36.182  41.048   1.235
 9726W        W80326  27.239  32.360   2.884
 9727W        W80327  33.002  19.553   0.235
 9728W        W80328  37.369  30.390   1.900
 9729W        W80329  34.937  31.702   1.328
 9730W        W80330  28.953   1.366   2.622
 9731W        W80331  12.655  35.166  14.903
 9732W        W80332   2.443  27.440   2.707
 9733W        W80333   5.762  34.534   1.198
 9734W        W80334  10.357   7.786  10.674
 9735W        W80335   0.002  29.146   4.201
 9736W        W80336  22.258   3.276   0.888
 9737W        W80337  20.289  36.713  11.091
 9738W        W80338  20.501  19.751   4.625
 9739W        W80339  43.895  44.880   2.722
 9740W        W80340  22.831  18.233   1.904
 9741W        W80341  13.721  15.103  14.902
 9742W        W80342  27.143  23.895   4.513
 9743W        W80343   6.021  41.297  11.024
 9744W        W80344   8.678   8.192  12.624
 9745W        W80345   8.680  29.310   4.098
 9746W        W80346  39.830  43.327  12.687
 9747W        W80347  30.999  28.055  13.384
 9748W        W80348  38.877  28.653   3.412
 9749W        W80349  44.827  12.796   1.782
 9750W        W80350  25.734  16.955   4.819
 9751W        W80351  19.253   4.935   3.760
 9752W        W80352  18.465   2.186  11.564
 9753W        W80353  16.863   5.886   4.101
 9754W        W80354  35.876  37.949  14.373
 9755W        W80355   1.414  39.472  11.688
 9756W        W80356  28.060  38.243   3.225
 9757W        W80357  18.765  41.477   0.444
 9758W        W80358  43.167  25.665  12.066
 9759W        W80359   6.851  26.318  11.541
 9760W        W80360  15.652  32.130   4.151
 9761W        W80361  35.042  32.168   0.410
 9762W        W80362  16.626  38.865  14.423
 9763W        W80363  40.439  33.842   1.808
 9764W        W80364   0.689   4.319   2.662
 9765W        W80365  40.009   4.034   2.105
 9766W        W80366   5.132  15.907   1.616
 9767W        W80367  21.750  36.627   1.973
 9768W        W80368  43.611  28.420   0.796
 9769W        W80369  28.161  17.813  11.991
 9770W        W80370  38.239  24.901   0.131
 9771W        W80371  11.823  15.829   3.650
 9772W        W80372  41.334  34.413  11.634
 9773W        W80373   6.867  28.932  14.319
 9774W        W80374  37.519  43.834  10.768
 9775W        W80375   8.307   8.870   3.576
 9776W        W80376  23.765  18.988  14.848
 9777W        W80377  14.159  24.340  11.313
 9778W        W80378  41.934  44.596   0.792
 9779W        W80379  11.088  17.336   1.670
 9780W        W80380  30.553  33.140   4.510
 9781W        W80381  31.481  19.009   4.306
 9782W        W80382  26.501  18.218  14.372
 9783W        W80383  17.693   5.955   4.522
 9784W        W80384  31.404   1.500  14.708
 9785W        W80385  36.484   9.909   1.074
 9786W        W80386  18.336  19.872  12.631
 9787W        W80387  33.905  25.269  14.504
 9788W        W80388  14.624  42.544  12.926
 9789W        W80389   2.302  23.228  11.889
 9790W        W80390  15.733  15.452  11.251
 9791W        W80391   9.182  21.477   0.404
 9792W        W80392  41.108  38.827   0.092
 9793W        W80393  17.586   8.180   0.449
 9794W        W80394  40.926  23.703   4.632
 9795W        W80395  41.003  10.563  14.412
 9796W        W80396   1.211  31.915  13.732
 9797W        W80397  33.398  33.030  10.308
 9798W        W80398  30.858  32.071   1.957
 9799W        W80399  41.277   9.259   3.156
 9800W        W80400  34.902   9.385   4.768
 9801W        W80401  12.268  41.037  14.068
 9802W        W80402  35.920  16.782  12.441
 9803W        W80403  38.222  21.798   3.665
 9804W        W80404  33.394   1.364  12.061
 9805W        W80405  40.257  32.901   3.566
 9806W        W80406   6.881  22.070   0.217
 9807W        W80407  34.872  42.347  11.146
 9808W        W80408  28.187  33.949   2.837
 9809W        W80409  16.689  17.579   3.349
 9810W        W80410  16.531  30.637   4.169
 9811W        W80411   4.253  31.119   1.513
 9812W        W80412  15.627  31.589   3.298
 9813W        W80413  32.379  19.090  10.699
 9814W        W80414   2.651  14.275  14.818
 9815W        W80415  37.698  39.844   4.133
 9816W        W80416  30.072   1.133  13.938
 9817W        W80417  30.203  39.008  11.093
 9818W        W80418   7.725   0.540   4.176
 9819W        W80419  42.353   8.177   3.978
 9820W        W80420  21.708  11.825  11.253
 9821W        W80421   6.960   4.297   2.167
 9822W        W80422  33.404   1.279   4.130
 9823W        W80423   1.339   3.472  13.523
 9824W        W80424   0.142   8.364  14.973
 9825W        W80425  31.437   9.393   4.139
 9826W        W80426  34.032  26.568   1.837
 9827W        W80427   5.779  15.355  12.444
 9828W        W80428   2.901  28.190   3.558
 9829W        W80429  22.998  31.834  13.012
 9830W        W80430   8.090   1.676   1.842
 9831W        W80431  29.882  16.710   0.900
 9832W        W80432  21.037  11.836   4.584
 9833W        W80433  35.371   9.848   0.553
 9834W        W80434   9.250   6.193  10.650
 9835W        W80435   7.557  20.816   3.697
 9836W        W80436  27.541  39.380  14.577
 9837W        W80437  39.238  18.200  12.452
 9838W        W80438  24.501  44.786  13.061
 9839W        W80439  43.517  25.179   3.655
 9840W        W80440   3.368  36.086  13.986
 9841W        W80441  40.636  18.227   4.110
 9842W        W80442  40.529  44.470  12.844
 9843W        W80443   6.826  12.099   3.225
 9844W        W80444  22.163  15.219   0.205
 9845W        W80445  34.689  26.545   4.581
 9846W        W80446   7.997  24.509   1.240
 9847W        W80447   2.842  34.592  14.328
 9848W        W80448  13.194  24.754  11.427
 9849W        W80449  16.140  29.485   3.643
 9850W        W80450   3.767  30.588  11.221
 9851W        W80451  35.595  44.686  11.686
 9852W        W80452  37.418  18.313  10.741
 9853W        W80453  12.681  11.829   2.409
 9854W        W80454  27.686  23.597  13.577
 9855W        W80455   3.909  22.158   1.701
 9856W        W80456  30.627  13.738   2.280
 9857W        W80457   6.119  43.403  12.869
 9858W        W80458  13.820  40.890   0.708
 9859W        W80459  35.438  12.358   2.828
 9860W        W80460  30.981  38.285  12.493
 9861W        W80461  41.805  25.737   1.878
 9862W        W80462  39.264  44.296  11.019
 9863W        W80463  23.983  42.206  11.941
 9864W        W80464  11.394  38.466  11.403
 9865W        W80465  11.321  10.312   1.990
 9866W        W80466  32.428  39.209  12.189
 9867W        W80467  42.876  15.213   1.276
 9868W        W80468  26.749  42.169  11.115
 9869W        W80469  37.463  19.705   2.977
 9870W        W80470  26.101  23.247  14.512
 9871W        W80471  38.440   6.845   4.489
 9872W        W80472  44.222  23.470   3.260
 9873W        W80473  23.213  29.539   3.686
 9874W        W80474  26.158   7.452  12.309
 9875W        W80475  36.023  29.029  10.336
 9876W        W80476  35.158  28.696  14.296
 9877W        W80477  20.905   6.751  11.148
 9878W        W80478  31.618   9.973  12.882
 9879W        W80479  30.572   3.789  14.247
 9880W        W80480   6.751  13.265  11.975
 9881W        W80481   7.265   2.341   1.735
 9882W        W80482  42.009  41.862  12.191
 9883W        W80483  41.890  41.505   2.658
 9884W        W80484  26.405   7.692  13.140
 9885W        W80485  23.603   9.176  12.966
 9886W        W80486   6.396  15.165  13.711
 9887W        W80487   9.375  19.802   1.137
 9888W        W80488  32.567  10.881  14.849
 9889W        W80489  29.512  13.450  10.894
 9890W        W80490  22.509   5.127  13.449
 9891W        W80491  31.229   7.436  14.255
 9892W        W80492  32.070  11.835   5.060
 9893W        W80493  36.569  20.376  12.451
 9894W        W80494  25.961   0.820  10.669
 9895W        W80495  37.828  20.490   2.258
 9896W        W80496  25.590  31.643   0.176
 9897W        W80497  18.861   3.019   1.730
 9898W        W80498  27.154  19.953   0.259
 9899W        W80499  19.680   5.669  11.534
 9900W        W80500  12.771  24.685   0.825
 9901W        W80501  44.550  43.263   4.693
 9902W        W80502   8.250  26.553  12.771
 9903W        W80503  40.394  40.323   2.177
 9904W        W80504   0.357  22.739   4.796
 9905W        W80505  29.929   6.819   4.287
 9906W        W80506   1.262  19.088  13.517
 9907W        W80507  44.857   8.733   0.698
 9908W        W80508  44.822   8.503  13.881
 9909W        W80509  23.648  20.758   1.734
 9910W        W80510  13.420  26.907  11.078
 9911W        W80511   6.285  18.019   1.368
 9912W        W80512  42.854   7.196  14.878
 9913W        W80513  22.183  25.896   0.458
 9914W        W80514  41.002   3.278   2.843
 9915W        W80515  44.039   1.178  13.439
 9916W        W80516  43.459  12.224   0.766
 9917W        W80517   3.556  40.912   3.689
 9918W        W80518  10.392  15.652   1.900
 9919W        W80519   8.319  24.062  10.639
 9920W        W80520   1.345  42.876   0.934
 9921W        W80521  16.596  25.200   2.302
 9922W        W80522  21.702  23.184   3.900
 9923W        W80523  23.245   4.057  11.002
 9924W        W80524  39.967  15.403  11.985
 9925W        W80525  14.880  29.613  13.149
 9926W        W80526  28.635   8.418  14.780
 9927W        W80527  11.852  39.608   2.774
 9928W        W80528   7.999  29.791  12.575
 9929W        W80529  37.923  15.291  13.560
 9930W        W80530   2.744  42.878   2.491
 9931W        W80531  20.395   8.020  14.209
 9932W        W80532  27.844  21.485  12.912
 9933W        W80533  35.487  24.246  11.130
 9934W        W80534   3.127  22.704   5.064
 9935W        W80535  26.529  24.686  12.450
 9936W        W80536  25.171   8.366  14.993
 9937W        W80537   0.746  35.977   4.656
 9938W        W80538  29.613  15.950   5.360
 9939W        W80539  43.937  13.913   2.059
 9940W        W80540  31.104  18.735  10.741
 9941W        W80541  31.342  13.901   2.656
 9942W        W80542   5.918  26.688   0.854
 9943W        W80543  14.165  24.309   4.967
 9944W        W80544  14.227  20.488   2.642
 9945W        W80545  38.568  18.813   0.953
 9946W        W80546   2.477  41.653   1.352
 9947W        W80547   9.067  12.208   3.320
 9948W        W80548  29.030  21.993  13.132
 9949W        W80549  36.090  32.475  13.356
 9950W        W80550  10.230  29.496   2.208
 9951W        W80551   0.324  20.005   3.564
 9952W        W80552  37.428  15.582   0.857
 9953W        W80553  31.138  25.095   4.652
 9954W        W80554  15.816  41.490   2.413
 9955W        W80555  41.840  30.061   1.741
 9956W        W80556  25.150  39.088   1.826
 9957W        W80557  34.547   0.932   2.333
 9958W        W80558  33.936  23.155  14.309
 9959W        W80559  13.087   6.984   0.257
 9960W        W80560  36.529  15.691  14.021
 9961W        W80561  37.175  44.240   0.825
 9962W        W80562  31.366  30.052  14.686
 9963W        W80563  19.151   5.749   2.774
 9964W        W80564  30.595   5.371   2.388
 9965W        W80565  41.242   7.909  11.513
 9966W        W80566   3.465  19.711   1.708
 9967W        W80567  40.303  20.565  10.503
 9968W        W80568  26.554  13.068   3.253
 9969W        W80569   4.915   7.149   4.029
 9970W        W80570  32.439  44.064  10.506
 9971W        W80571  43.276  36.342   1.733
 9972W        W80572  29.515  20.734   3.407
 9973W        W80573  38.349  31.822  10.846
 9974W        W80574  35.839   0.217   4.126
 9975W        W80575  36.440  41.192   4.431
 9976W        W80576  14.315  29.700   0.491
 9977W        W80577  21.572  44.041   3.101
 9978W        W80578  42.236   6.320  14.045
 9979W        W80579  44.817  20.334   0.481
 9980W        W80580   9.697  42.286   1.394
 9981W        W80581  15.713  31.847  12.033
 9982W        W80582   3.714  20.301  14.569
 9983W        W80583  26.696  10.128  12.091
 9984W        W80584  39.994  16.811  12.011
 9985W        W80585  29.209  23.973  14.521
 9986W        W80586   9.250  20.307  10.706
 9987W        W80587  14.162  16.216  11.499
 9988W        W80588  42.806  28.096  13.061
 9989W        W80589  31.293  25.458   0.952
 9990W        W80590  26.442  13.374  10.836
 9991W        W80591   0.353  33.139   1.365
 9992W        W80592  26.716   0.803  13.814
 9993W        W80593  22.243  15.664  12.195
 9994W        W80594   4.669  19.310   0.324
 9995W        W80595  11.406  43.674  14.088
 9996W        W80596  11.710  37.560  10.406
 9997W        W80597  27.256  17.597   3.998
 9998W        W80598  38.325   4.062  14.871
 9999W        W80599  10.012  19.177  11.115
10000W        W80600   5.888   1.722   1.398
10001W        W80601  19.280  34.089   4.544
10002W        W80602  29.918  42.470   2.261
10003W        W80603  33.416  23.668   4.908
10004W        W80604  16.998   2.229  13.017
10005W        W80605  29.955  19.320  12.435
10006W        W80606  14.340  32.546  13.531
10007W        W80607  11.687  38.145   2.448
10008W        W80608  40.844  18.849   3.259
10009W        W80609  28.849  31.611  11.649
10010W        W80610  42.448  21.399   0.969
10011W        W80611  27.706  12.328  10.673
10012W        W80612  27.172  32.673   3.790
10013W        W80613  36.489  27.785  11.542
10014W        W80614  39.495  24.062   4.835
10015W        W80615  10.358   6.209   2.406
10016W        W80616  13.130  18.725  14.875
10017W        W80617  21.306  33.584  14.524
10018W        W80618  44.793  42.347   0.985
10019W        W80619  17.105  25.518   4.061
10020W        W80620  16.063  10.199  12.930
10021W        W80621  14.193  37.128  12.409
10022W        W80622  37.345   7.634  10.792
10023W        W80623  23.956  32.967  14.352
10024W        W80624  18.102  44.778  12.938
10025W        W80625  43.099  44.243  13.375
10026W        W80626  27.718  28.856   3.703
10027W        W80627   0.332   6.219   2.701
10028W        W80628   1.401  30.673   4.886
10029W        W80629  20.722   7.937  12.484
10030W        W80630  18.233  11.206  11.033
10031W        W80631  10.226  40.538   4.666
10032W        W80632  33.974  27.552  14.476
10033W        W80633   4.954  14.212  14.342
10034W        W80634  19.241  20.940   0.674
10035W        W80635  22.645   5.001  10.751
10036W        W80636   3.724   7.794   4.352
10037W        W80637  44.498  19.737   2.129
10038W        W80638  19.992  39.375  11.619
10039W        W80639  38.906  25.615  12.081
10040W        W80640   1.837  31.296  13.599
10041W        W80641  31.405  33.449   1.721
10042W        W80642  41.858  43.335  10.513
10043W        W80643   7.714  29.286   4.335
10044W        W80644  33.066  30.366  13.824
10045W        W80645  28.900   6.855   0.304
10046W        W80646  35.846  32.309  14.391
10047W        W80647   9.190  27.437  12.993
10048W        W80648  20.045   1.541   0.430
10049W        W80649  14.769  27.569  11.584
10050W        W80650  43.376  39.982  12.085
10051W        W80651  23.995  36.173  12.893
10052W        W80652  40.391  13.291  14.071
10053W        W80653  41.526  33.960  14.114
10054W        W80654  12.119  34.721   1.968
10055W        W80655  26.746  41.726   4.922
10056W        W80656  18.695  11.169   4.787
10057W        W80657   2.823  26.758   1.697
10058W        W80658  10.861  22.832  12.925
10059W        W80659   1.407  23.628   3.098
10060W        W80660  28.384   5.356   4.076
10061W        W80661  12.176  16.230   2.319
10062W        W80662  23.540   1.747  13.033
10063W        W80663   2.484   5.349   1.008
10064W        W80664  11.864  11.452   1.565
10065W        W80665  10.288  24.040   1.272
10066W        W80666  25.403   0.042  12.895
10067W        W80667  16.049  36.959   3.752
10068W        W80668  14.106  22.149  10.736
10069W        W80669  27.579   3.853   4.670
10070W        W80670   6.711  42.734   0.369
10071W        W80671  26.854  12.764  12.421
10072W        W80672  29.031  19.284  10.421
10073W        W80673  42.906  16.184  14.737
10074W        W80674  21.006  30.125  12.567
10075W        W80675  23.272   7.910   0.643
10076W        W80676   5.658   5.377   3.804
10077W        W80677  22.610  13.435   3.316
10078W        W80678  33.401  43.161  14.210
10079W        W80679   8.170   4.153  12.664
10080W        W80680  30.156  44.522   0.425
10081W        W80681  33.641  34.127   2.906
10082W        W80682   8.239  13.672   1.321
10083W        W80683  23.739   4.202  11.129
10084W        W80684   6.699  10.419   3.996
10085W        W80685  11.564  23.925  12.474
10086W        W80686  29.804  40.963  12.550
10087W        W80687  43.357  20.606  14.234
10088W        W80688  20.048  20.784   2.544
10089W        W80689  22.773   0.949  12.628
10090W        W80690  14.359  29.510  14.459
10091W        W80691   6.557  25.595   4.343
10092W        W80692  24.059  38.014  14.925
10093W        W80693  21.166  12.171  13.906
10094W        W80694  25.621  28.622  12.875
10095W        W80695  25.582  22.603  11.225
10096W        W80696  10.244  15.041   2.294
10097W        W80697  41.337  44.435  10.747
10098W        W80698  34.159   6.897  12.872
10099W        W80699  20.247  21.723  12.986
10100W        W80700   8.115   0.483  13.912
10101W        W80701  29.701  20.134  14.448
10102W        W80702  21.510  13.235   4.873
10103W        W80703   8.264   6.411  13.239
10104W        W80704   3.389   9.214  13.066
10105W        W80705   5.378  18.644   4.497
10106W        W80706  27.187  15.723   0.069
10107W        W80707  41.107  38.396   0.371
10108W        W80708  34.404  40.914  12.172
10109W        W80709  21.358  39.986  13.910
10110W        W80710   8.544  27.661   3.240
10111W        W80711  12.731  33.640   3.524
10112W        W80712   7.062  36.788   0.951
10113W        W80713  20.802  29.674  12.699
10114W        W80714   7.515  36.289  12.411
10115W        W80715   7.274   9.270   0.154
10116W        W80716  13.891  37.806   0.117
10117W        W80717  31.872  14.265  11.081
10118W        W80718  37.310  35.120  12.481
10119W        W80719  10.287  10.150   4.628
10120W        W80720  21.306  20.310  13.422
10121W        W80721  23.762  33.335   1.791
10122W        W80722  18.794  24.903   1.665
10123W        W80723  33.966   7.757   2.282
10124W        W80724  13.134  14.552   2.381
10125W        W80725   2.315  19.055   3.785
10126W        W80726  33.081  10.244  14.427
10127W        W80727  40.784  30.138  11.936
10128W        W80728  17.844  27.752  11.297
10129W        W80729  30.561  43.541  11.130
10130W        W80730  43.784   4.002   1.327
10131W        W80731  37.475  11.891  14.890
10132W        W80732  18.789  41.713   2.161
10133W        W80733  42.855   2.277   4.062
10134W        W80734  28.103  18.740  11.167
10135W        W80735  19.543  34.596  12.109
10136W        W80736   2.949  14.794   1.254
10137W        W80737  15.261  29.704  14.037
10138W        W80738   5.397  39.996  14.342
10139W        W80739  44.415  18.670  14.342
10140W        W80740  25.969  26.893   1.780
10141W        W80741   3.401  41.605  13.852
10142W        W80742   2.865  15.576   3.813
10143W        W80743  41.069  20.696   0.838
10144W        W80744  35.355  38.550  14.961
10145W        W80745  40.859  11.886  10.526
10146W        W80746  12.271  28.081  14.018
10147W        W80747  27.970  39.102   1.613
10148W        W80748  30.981   2.499   1.049
10149W        W80749  33.917  34.929  13.037
10150W        W80750   7.955   8.868   4.056
10151W        W80751  35.251   3.742  11.421
10152W        W80752  37.600   5.763   3.808
10153W        W80753   0.306  16.742  12.514
10154W        W80754  23.250  22.318  13.877
10155W        W80755  27.059  26.070   4.897
10156W        W80756  29.245  27.469   0.131
10157W        W80757  25.181  14.481   3.119
10158W        W80758  13.158  20.459  14.156
10159W        W80759   3.696  23.381   0.746
10160W        W80760   2.288  33.049  13.554
10161W        W80761  31.191  32.899  13.611
10162W        W80762   7.792  41.578  14.797
10163W        W80763  10.664   7.943   1.034
10164W        W80764  38.526  19.134   0.001
10165W        W80765  27.782  20.467  11.568
10166W        W80766   3.521  33.572   3.868
10167W        W80767  16.548  24.494  11.278
10168W        W80768  32.422   4.079   3.933
10169W        W80769  30.099  12.142   3.672
10170W        W80770   0.474  30.919   3.515
10171W        W80771  25.680  25.020   0.169
10172W        W80772  12.556   3.312  13.442
10173W        W80773  40.103  37.116  12.024
10174W        W80774  44.693  22.311  10.607
10175W        W80775  17.873  20.250   1.055
10176W        W80776   4.348  24.103  14.212
10177W        W80777  13.264  32.227  14.313
10178W        W80778  38.442  23.999  12.495
10179W        W80779   9.929  12.758   2.693
10180W        W80780  21.534  11.340   1.282
10181W        W80781  10.865  34.342  13.895
10182W        W80782  38.322  19.339   3.725
10183W        W80783  13.193   2.739   0.247
10184W        W80784   3.681  40.030   2.378
10185W        W80785  41.989  24.170   0.864
10186W        W80786  22.910  41.933  12.644
10187W        W80787  31.620  35.311   2.470
10188W        W80788  18.181  16.385   1.082
10189W        W80789  16.235  33.174   2.257
10190W        W80790   2.448  42.014   4.127
10191W        W80791  40.008  23.968   0.596
10192W        W80792   6.150   1.263   1.499
10193W        W80793  40.453  30.857  13.827
10194W        W80794  21.297  22.723  13.423
10195W        W80795   9.940  30.948  10.657
10196W        W80796  40.843  14.141  13.086
10197W        W80797  11.773  23.151   0.898
10198W        W80798   3.756  30.373   1.437
10199W        W80799  41.229   6.724   1.326
10200W        W80800  19.558  17.843   2.975
10201W        W80801  10.149  29.427   1.178
10202W        W80802  30.992  28.407  13.791
10203W        W80803  27.073  26.291   1.985
10204W        W80804  12.334  22.981   1.758
10205W        W80805  40.039  42.500  12.492
10206W        W80806  27.610   5.238   1.689
10207W        W80807  44.863  44.602  14.009
10208W        W80808   3.851  13.344  13.840
10209W        W80809  42.816  33.427   3.819
10210W        W80810  37.381  29.403   2.746
10211W        W80811  25.507  26.961   1.170
10212W        W80812  37.895  18.862   4.440
10213W        W80813  23.048   5.265   4.444
10214W        W80814  38.189  38.368  11.522
10215W        W80815  39.307  12.881  12.529
10216W        W80816   9.116  28.652   4.024
10217W        W80817   2.489  11.843  14.112
10218W        W80818  39.832   8.743  13.043
10219W        W80819  12.338  26.994  11.177
10220W        W80820  26.921  27.426  14.937
10221W        W80821   3.921  27.179  12.929
10222W        W80822   3.347   0.111  11.617
10223W        W80823   3.772   7.755   2.143
10224W        W80824  32.024   5.584  10.563
10225W        W80825  33.797  14.993   0.865
10226W        W80826  33.318  29.086   3.298
10227W        W80827  38.366   0.416  10.417
10228W        W80828  16.617  20.093   0.813
10229W        W80829  12.588  41.037   4.235
10230W        W80830  19.315  19.195  12.033
10231W        W80831  14.657  30.589   0.851
10232W        W80832   2.242  30.287  10.183
10233W        W80833  41.674  18.134  14.366
10234W        W80834   2.357  29.578  14.744
10235W        W80835   4.113  22.660   1.696
10236W        W80836   7.440  28.510   2.851
10237W        W80837  23.187  10.930  12.071
10238W        W80838  42.992  20.743   3.259
10239W        W80839  13.875  43.025  11.148
10240W        W80840   8.927   4.028   1.456
10241W        W80841  24.583   1.488  11.639
10242W        W80842   1.762  22.690   1.433
10243W        W80843  23.577  43.258  10.392
10244W        W80844  17.314   8.632  12.030
10245W        W80845  14.344  27.615  13.888
10246W        W80846  28.143  40.397   0.976
10247W        W80847   3.769   3.880   2.246
10248W        W80848  24.997  29.025   3.403
10249W        W80849  13.121   2.424   3.688
10250W        W80850  28.636  44.395   2.418
10251W        W80851   0.389  14.120  14.396
10252W        W80852  42.488  16.231   0.329
10253W        W80853  35.628  38.162  10.598
10254W        W80854  42.196   9.402  12.022
10255W        W80855   4.651  15.803  12.016
10256W        W80856  18.786  22.602   4.450
10257W        W80857   6.788   5.764  13.416
10258W        W80858  17.707  13.431  11.492
10259W        W80859  40.120  36.204  12.833
10260W        W80860  14.176   3.796  12.067
10261W        W80861   2.497  43.099   1.132
10262W        W80862  28.721  24.471   1.493
10263W        W80863   2.495   4.288  13.375
10264W        W80864   8.223  15.276  11.966
10265W        W80865  26.112  41.248   2.268
10266W        W80866   7.836  16.545  11.091
10267W        W80867  24.488   5.820  14.255
10268W        W80868  27.089  42.505  14.382
10269W        W80869  28.439  39.312   1.586
10270W        W80870  30.080   8.168   4.038
10271W        W80871  27.186  21.180  12.838
10272W        W80872  20.253  35.001  11.867
10273W        W80873  14.842  13.782  14.519
10274W        W80874  29.187   4.106   1.782
10275W        W80875  36.352   8.316  13.788
10276W        W80876  34.429  39.619  13.015
10277W        W80877  31.959  44.836  12.460
10278W        W80878   7.439   2.743   3.162
10279W        W80879  19.688   4.001   0.918
10280W        W80880  25.753  11.769   1.900
10281W        W80881  40.830   6.470  12.898
10282W        W80882  10.245  18.853   3.217
10283W        W80883  42.221  15.578  12.534
10284W        W80884  15.035  28.686  10.071
10285W        W80885  32.828  39.837  10.562
10286W        W80886  10.496  24.593   0.313
10287W        W80887  32.842  33.480  13.738
10288W        W80888  15.863  18.459  11.616
10289W        W80889   0.524  22.114  14.782
10290W        W80890  40.434  42.344   4.021
10291W        W80891  25.090  31.181   3.130
10292W        W80892  10.831  15.105  13.960
10293W        W80893  33.884  32.377   2.712
10294W        W80894  28.434   4.116  10.853
10295W        W80895  35.322  31.549  13.444
10296W        W80896  31.831  10.376   0.189
10297W        W80897  31.601  28.436   3.260
10298W        W80898  20.611  35.476  14.700
10299W        W80899   5.566   2.310   2.719
10300W        W80900   2.426  11.412   3.093
10301W        W80901  38.319  24.115   3.286
10302W        W80902  21.934  43.040  12.609
10303W        W80903  15.541   5.185   3.160
10304W        W80904  32.370  16.538  13.517
10305W        W80905   3.777  34.901   1.478
10306W        W80906  30.031   4.568   4.655
10307W        W80907  19.507  34.410  10.873
10308W        W80908  34.333  12.617   4.811
10309W        W80909  20.905  16.592   1.845
10310W        W80910   3.309  11.638   4.004
10311W        W80911  21.026  36.664  12.146
10312W        W80912   9.500  31.572  11.737
10313W        W80913  33.370  12.240   2.655
10314W        W80914  10.800  43.429   3.018
10315W        W80915  43.697  12.299   2.063
10316W        W80916   0.452  12.351   3.788
10317W        W80917   2.751  31.604   2.777
10318W        W80918  11.749  29.628   2.139
10319W        W80919   1.899  12.337   2.783
10320W        W80920   9.163  36.445   4.493
10321W        W80921  20.671  21.991   1.430
10322W        W80922  37.839   5.491   1.929
10323W        W80923   3.237  37.584   3.992
10324W        W80924  31.928  40.947   1.837
10325W        W80925  32.576  12.418  14.959
10326W        W80926  37.351  31.625  12.581
10327W        W80927   0.834  21.053   4.193
10328W        W80928  37.439  30.593   4.856
10329W        W80929  15.500  44.376   4.940
10330W        W80930  26.905  28.889  10.157
10331W        W80931   6.949   2.837  11.294
10332W        W80932  31.311  20.518  10.747
10333W        W80933  10.613  26.970  12.817
10334W        W80934  29.248   5.326   1.972
10335W        W80935  41.559   2.348   2.215
10336W        W80936   5.675  15.922   1.659
10337W        W80937  14.021  13.442  14.967
10338W        W80938  22.579   6.766  13.380
10339W        W80939  34.411   5.683  11.917
10340W        W80940  17.091  40.491  14.870
10341W        W80941  24.644  19.177   2.093
10342W        W80942  22.929  32.865   4.307
10343W        W80943   3.299  25.627  11.472
10344W        W80944   3.630  42.432   3.881
10345W        W80945   1.378   9.267   4.850
10346W        W80946  19.952  14.202  14.017
10347W        W80947   1.479  41.061   3.755
10348W        W80948  12.221   6.440  10.743
10349W        W80949  17.156  11.423   2.283
10350W        W80950   0.841  28.882   0.453
10351W        W80951   1.891  24.645   2.755
10352W        W80952  14.113  27.651  14.383
10353W        W80953  43.893  21.784  11.648
10354W        W80954  37.525  26.591  12.172
10355W        W80955  42.328  11.939   3.561
10356W        W80956  23.882  44.846   0.750
10357W        W80957  37.485   9.800   3.103
10358W        W80958  39.867  13.814  11.009
10359W        W80959  23.262  20.518   2.008
10360W        W80960   0.844   2.359  13.275
10361W        W80961  15.516  35.581   0.529
10362W        W80962  37.379  41.478  13.801
10363W        W80963  30.847  37.943  12.879
10364W        W80964  22.633   8.914  11.647
10365W        W80965  13.065  18.611   2.162
10366W        W80966   6.293   1.568   0.093
10367W        W80967  27.173  36.351  14.882
10368W        W80968  10.410  10.744  13.549
10369W        W80969  26.443  25.104   3.582
10370W        W80970  32.746  16.080   3.334
10371W        W80971   8.476  30.679   0.945
10372W        W80972  10.847  27.758  12.716
10373W        W80973   9.765  26.244   4.878
10374W        W80974   0.192  38.509   2.220
10375W        W80975   8.928   2.810  13.122
10376W        W80976   4.935  18.234   3.616
10377W        W80977  18.331  20.732   3.168
10378W        W80978  24.211  23.657   2.347
10379W        W80979  36.015  10.625  11.621
10380W        W80980  26.743  22.157  10.796
10381W        W80981  43.498  10.779  14.198
10382W        W80982  13.362   4.839   2.287
10383W        W80983  23.157  16.258   4.009
10384W        W80984  17.989  34.624  11.425
10385W        W80985  28.660  35.077  12.962
10386W        W80986  43.952  44.829   0.377
10387W        W80987  31.197  17.655  11.204
10388W        W80988  41.061   4.716   3.065
10389W        W80989   5.755  37.585  14.359
10390W        W80990  37.328  40.399   2.062
10391W        W80991  31.340  28.969  12.215
10392W        W80992  11.116  44.437  13.938
10393W        W80993  39.592  34.152   3.236
10394W        W80994  24.914  29.991   2.524
10395W        W80995   0.543  10.180  11.461
10396W        W80996  20.768   7.627   2.822
10397W        W80997  41.077   8.859   4.025
10398W        W80998  42.377  34.022  13.449
10399W        W80999  29.392  35.987   0.572
10400W        W81000  19.297  15.977   3.837
10401W        W81001   8.841   7.934   2.378
10402W        W81002  32.456   1.188   0.434
10403W        W81003  22.575  34.476  10.744
10404W        W81004  11.159  14.418   2.632
10405W        W81005   0.703  13.343  11.213
10406W        W81006  39.839  21.760  14.070
10407W        W81007  40.534  31.371   3.835
10408W        W81008  29.826  24.545  13.301
10409W        W81009   2.688  37.056  14.385
10410W        W81010  12.662  18.023  12.057
10411W        W81011  16.514  13.265  12.864
10412W        W81012  24.443   3.194   3.606
10413W        W81013  41.866  38.579   2.135
10414W        W81014  31.581  13.259  12.534
10415W        W81015  40.459  40.325   4.303
10416W        W81016  29.586  38.973   1.901
10417W        W81017  29.209   9.959   2.330
10418W        W81018  17.329  22.710   3.754
10419W        W81019  30.550  22.494   1.883
10420W        W81020  30.109  43.740  11.296
10421W        W81021  33.409  11.073   3.609
10422W        W81022  13.292  10.724  13.946
10423W        W81023  36.151  18.099  11.101
10424W        W81024  14.459  41.861   4.474
10425W        W81025  13.254  44.471   1.583
10426W        W81026   1.413   3.654  12.626
10427W        W81027  14.125   4.748   2.743
10428W        W81028  44.744  34.043   0.271
10429W        W81029  38.289   1.146  11.423
10430W        W81030   4.833  22.052   2.628
10431W        W81031  31.559  17.373   1.765
10432W        W81032  42.162   4.874  14.274
10433W        W81033  27.436  36.124   2.595
10434W        W81034   1.774  12.166   3.261
10435W        W81035  30.996   9.444  13.419
10436W        W81036  33.418  36.437   2.807
10437W        W81037  39.888  29.177   4.795
10438W        W81038  37.974  20.543  13.860
10439W        W81039  12.388   4.500   0.759
10440W        W81040  37.023  40.802   1.247
10441W        W81041  27.616   4.841  12.162
10442W        W81042  44.484  13.770  10.922
10443W        W81043  36.580  13.398   0.899
10444W        W81044  20.383   4.291  13.785
10445W        W81045  19.268  25.888   1.258
10446W        W81046  25.911  40.519  14.700
10447W        W81047  41.355  36.739   3.605
10448W        W81048  22.262  11.856   1.809
10449W        W81049  21.175  41.459   1.519
10450W        W81050  37.537  41.680  11.246
10451W        W81051   4.769  38.467  12.957
10452W        W81052  43.847  31.407   1.001
10453W        W81053   9.069  24.964  10.274
10454W        W81054  26.196  11.798  13.422
10455W        W81055  41.949  13.129  10.425
10456W        W81056   7.903  37.903   1.201
10457W        W81057  21.211   7.688  14.330
10458W        W81058  33.673   0.909  12.080
10459W        W81059  41.519  25.663   3.386
10460W        W81060  34.347  11.530  12.968
10461W        W81061  29.861  36.887   1.355
10462W        W81062  16.112   9.860  11.134
10463W        W81063  25.186  27.622   2.660
10464W        W81064  36.336   4.429   1.650
10465W        W81065   1.883  43.332   1.050
10466W        W81066  23.953  33.131   1.251
10467W        W81067   8.121   9.294  14.434
10468W        W81068  25.690  18.618   0.389
10469W        W81069   1.337  38.366  12.389
10470W        W81070  15.136  20.523   3.074
10471W        W81071   5.416  17.808   1.725
10472W        W81072  21.809  16.261   3.208
10473W        W81073  17.832  19.007   1.006
10474W        W81074  18.125   1.554  10.596
10475W        W81075  32.494  34.625   4.176
10476W        W81076  24.059  39.198   1.304
10477W        W81077  36.497  19.920   1.378
10478W        W81078  40.071  20.623  13.866
10479W        W81079  19.167  24.008   3.613
10480W        W81080  44.481  28.737  14.470
10481W        W81081  25.040   6.118   1.690
10482W        W81082  22.429  37.537  12.994
10483W        W81083  23.979   7.138   2.419
10484W        W81084  22.684  29.691   5.146
10485W        W81085  33.017  26.648  11.522
10486W        W81086  42.801  28.478  14.695
10487W        W81087  28.900   3.710   3.236
10488W        W81088   2.259  38.374  11.506
10489W        W81089  14.051   0.059   0.277
10490W        W81090  24.951  44.765   0.716
10491W        W81091  11.741  25.773   2.399
10492W        W81092  32.027  10.276  14.212
10493W        W81093  13.903   7.347  11.595
10494W        W81094  12.785  40.901  12.347
10495W        W81095  16.021  24.050   3.507
10496W        W81096  36.130  25.748   1.749
10497W        W81097  10.332  38.729  10.685
10498W        W81098   0.904  41.600   3.106
10499W        W81099  17.433  35.824   3.026
10500W        W81100  33.936  24.727   0.448
10501W        W81101  11.439  19.542  13.582
10502W        W81102  17.745   6.710   2.698
10503W        W81103  16.088   8.333  11.661
10504W        W81104  38.567  27.293  11.667
10505W        W81105  11.313  26.513   2.134
10506W        W81106  19.674  17.772   2.487
10507W        W81107  14.914  23.644   0.373
10508W        W81108  36.255  40.469   0.411
10509W        W81109  39.771  34.518   1.900
10510W        W81110  26.046  37.196  12.559
10511W        W81111  42.882  11.550  14.897
10512W        W81112   0.529  23.134   0.664
10513W        W81113  23.343  29.608   0.351
10514W        W81114   1.839  11.221   0.541
10515W        W81115  34.599  17.080  14.394
10516W        W81116  19.275  29.853  10.581
10517W        W81117  42.670  19.711   2.646
10518W        W81118  28.346   3.027   3.042
10519W        W81119   3.005  29.021   4.182
10520W        W81120  34.073   1.724  10.715
10521W        W81121  35.128  14.765  13.419
10522W        W81122  17.827  25.340  13.856
10523W        W81123   1.339   7.849  13.564
10524W        W81124   1.293  28.688   4.661
10525W        W81125  36.870  24.157  11.776
10526W        W81126  27.306  34.866   4.796
10527W        W81127   8.121  20.155   1.520
10528W        W81128  13.118   5.744  12.918
10529W        W81129  24.496  44.455   0.241
10530W        W81130  14.733   3.092   4.530
10531W        W81131  11.823  17.295  14.856
10532W        W81132  10.325  30.001   2.323
10533W        W81133  29.034   0.376   3.614
10534W        W81134  31.071  29.712   3.219
10535W        W81135  16.389  17.810  13.490
10536W        W81136  29.812   4.544  11.657
10537W        W81137  14.608  33.434  13.421
10538W        W81138  14.774  12.749   9.975
10539W        W81139   4.346  15.822  10.585
10540W        W81140  23.981  38.295  14.459
10541W        W81141   0.624  11.652   2.230
10542W        W81142  39.309  35.265  12.441
10543W        W81143  18.734   5.317  11.753
10544W        W81144   3.352  23.296  14.051
10545W        W81145  17.005  41.099  14.465
10546W        W81146  24.057  16.660   3.156
10547W        W81147   5.572  40.254   1.043
10548W        W81148  44.052   7.279   2.717
10549W        W81149  41.611   1.037  11.543
10550W        W81150  11.152  32.584   3.209
10551W        W81151  12.827   8.233  10.747
10552W        W81152  28.379  34.271  14.859
10553W        W81153   6.467  36.586  13.436
10554W        W81154  38.605  11.406  11.134
10555W        W81155  21.046  21.537   2.761
10556W        W81156  36.895  21.300  12.632
10557W        W81157  21.755  34.080  10.553
10558W        W81158  24.913  24.641  13.400
10559W        W81159  12.128  23.556  11.076
10560W        W81160  31.896  38.315  14.910
10561W        W81161  37.207  19.697  13.503
10562W        W81162   3.699   7.171   0.913
10563W        W81163  20.617   5.255  12.952
10564W        W81164  32.012  22.643  13.351
10565W        W81165   2.056  11.789   2.002
10566W        W81166   0.510  25.041   4.292
10567W        W81167   8.338  36.109  12.885
10568W        W81168  21.543  18.383  11.582
10569W        W81169   2.712  15.309   2.436
10570W        W81170   4.682  26.862   4.628
10571W        W81171  13.069   2.357  11.614
10572W        W81172  38.011  17.585   2.890
10573W        W81173   0.332  10.805   2.928
10574W        W81174  42.531  16.802  11.182
10575W        W81175  39.267  37.865   1.791
10576W        W81176   7.393   9.408  12.383
10577W        W81177  26.429  28.447   2.358
10578W        W81178   1.162  15.850  13.477
10579W        W81179  25.270   1.793   2.124
10580W        W81180  16.073  38.097  14.365
10581W        W81181  11.189   3.915  13.967
10582W        W81182   8.274  18.997  12.957
10583W        W81183   4.673  36.714  12.378
10584W        W81184  39.441   8.543  10.286
10585W        W81185  24.251   3.271  14.701
10586W        W81186   9.501  42.281   0.918
10587W        W81187  38.968   0.751   3.012
10588W        W81188  11.800  20.002   3.685
10589W        W81189  11.324  13.955  14.524
10590W        W81190  26.069   4.628  14.718
10591W        W81191  33.333  32.219  13.222
10592W        W81192  15.683  18.049  12.924
10593W        W81193   7.297  17.397   3.118
10594W        W81194   2.914  21.661  11.531
10595W        W81195  25.478   3.852  10.940
10596W        W81196   9.266  17.868  11.927
10597W        W81197  30.438  26.802  13.422
10598W        W81198  38.366   6.342   0.871
10599W        W81199  17.819  41.528   3.110
10600W        W81200   7.220  23.760  13.622
10601W        W81201  26.075  32.073   4.890
10602W        W81202  22.733  28.028  14.811
10603W        W81203   4.424  33.506   1.265
10604W        W81204  32.476  14.735  14.441
10605W        W81205  35.635  16.814   2.299
10606W        W81206  11.793  37.011  12.109
10607W        W81207   7.772  31.359   1.222
10608W        W81208  27.703  16.782   4.178
10609W        W81209   5.769  24.611   1.501
10610W        W81210   1.850  23.605  13.371
10611W        W81211  14.156  33.035  11.310
10612W        W81212  13.777  11.118   1.888
10613W        W81213  25.565  26.376   1.522
10614W        W81214  38.198  15.046   3.318
10615W        W81215   3.873  22.301  11.954
10616W        W81216  32.026   8.949  11.270
10617W        W81217   8.620   7.743  11.058
10618W        W81218  29.720  28.543   3.552
10619W        W81219  11.298  12.623  12.924
10620W        W81220  15.269  11.041  10.213
10621W        W81221  42.363  20.578  10.741
10622W        W81222  14.825   8.301  12.952
10623W        W81223  18.987  15.162   1.275
10624W        W81224  14.072  15.449   4.022
10625W        W81225  23.948   9.190   4.642
10626W        W81226  27.694  34.840  13.390
10627W        W81227   5.862  38.549  13.832
10628W        W81228  11.572   3.775  14.269
10629W        W81229  40.613  41.331   2.052
10630W        W81230  40.708  12.257   2.174
10631W        W81231  20.873  32.073   2.488
10632W        W81232  20.646  33.084   3.681
10633W        W81233   4.266  16.559   2.746
10634W        W81234  21.113  43.985  13.517
10635W        W81235  29.525  18.222  13.303
10636W        W81236  20.209  26.438   2.864
10637W        W81237  19.182   3.988   1.739
10638W        W81238  31.021  41.657   5.422
10639W        W81239   1.724  37.695   1.597
10640W        W81240  35.909  18.551  11.968
10641W        W81241  42.305  44.906   1.636
10642W        W81242  30.102   3.831  12.689
10643W        W81243  32.381   9.903  14.768
10644W        W81244  17.216  12.225  14.527
10645W        W81245  13.577  30.848   1.497
10646W        W81246  20.496  18.788  14.506
10647W        W81247  13.106  19.059   3.189
10648W        W81248  17.669   7.839  11.291
10649W        W81249  29.421  42.528   3.323
10650W        W81250   0.966  39.547   1.388
10651W        W81251  29.672  15.355  12.484
10652W        W81252  12.907  20.966  10.882
10653W        W81253  17.457  42.955  10.701
10654W        W81254  42.753  32.034   4.513
10655W        W81255  41.922   1.391   1.464
10656W        W81256  26.748   5.339  11.757
10657W        W81257  16.067  42.985  13.938
10658W        W81258   4.955   0.843   1.185
10659W        W81259  14.602  18.680  10.796
10660W        W81260  33.576  20.618   3.284
10661W        W81261  19.912   8.489  14.382
10662W        W81262  26.527  17.990   4.612
10663W        W81263  11.509   6.781  11.645
10664W        W81264  27.085  21.321  13.393
10665W        W81265  19.248   1.262   0.404
10666W        W81266  44.796   7.389  14.715
10667W        W81267   3.776  22.109  14.794
10668W        W81268  35.797  40.248   0.570
10669W        W81269  20.411  25.101  14.568
10670W        W81270  27.108  18.244   3.329
10671W        W81271   7.022  41.852   3.304
10672W        W81272  20.715  38.598   4.068
10673W        W81273  33.529  33.572   4.126
10674W        W81274  31.182  29.987   5.143
10675W        W81275   9.993  21.787  12.121
10676W        W81276  36.390  32.078   4.963
10677W        W81277  12.651  18.582  13.889
10678W        W81278  41.844  32.366  12.936
10679W        W81279  40.884  43.008  12.055
10680W        W81280   7.260   2.054  13.299
10681W        W81281   7.184  18.894  13.447
10682W        W81282  21.014  33.592   0.923
10683W        W81283  27.128  31.967   2.540
10684W        W81284   3.782  11.920  10.716
10685W        W81285  27.592  41.947  14.535
10686W        W81286  38.877  21.618   4.280
10687W        W81287  22.939  31.014  12.118
10688W        W81288   6.673  39.101  12.978
10689W        W81289  16.035   8.282   3.292
10690W        W81290  17.699  15.355   2.722
10691W        W81291  29.540   1.304   1.787
10692W        W81292  32.862   3.401  14.029
10693W        W81293  33.382  12.724   0.680
10694W        W81294  43.146  39.918   2.213
10695W        W81295   1.390   2.272   1.881
10696W        W81296   1.245  41.862   4.548
10697W        W81297  19.245  31.437   2.742
10698W        W81298  25.494   4.688  12.061
10699W        W81299  30.951  23.726  13.870
10700W        W81300  40.968   9.672   1.299
10701W        W81301  19.614  18.292  10.367
10702W        W81302  37.857  32.230  10.768
10703W        W81303   1.435  37.364   0.375
10704W        W81304  17.693  44.650   0.767
10705W        W81305  16.833  20.418  14.856
10706W        W81306   6.853  44.529   9.896
10707W        W81307  19.737   2.697   3.045
10708W        W81308   3.150  14.605   4.011
10709W        W81309   5.944  40.391  12.897
10710W        W81310  13.633  33.117   1.785
10711W        W81311  26.558  29.682   0.341
10712W        W81312   5.132  28.802   3.643
10713W        W81313  44.022  23.528  12.324
10714W        W81314  17.617  16.597  12.691
10715W        W81315  27.670  12.687   0.777
10716W        W81316  31.589   2.841   3.629
10717W        W81317  15.191  34.617  14.660
10718W        W81318  28.187  35.814  10.753
10719W        W81319   7.192   1.714   1.784
10720W        W81320  21.504  39.098   4.192
10721W        W81321   4.201   4.954  12.517
10722W        W81322  39.368  40.432   2.958
10723W        W81323  43.380  23.025  12.821
10724W        W81324   9.655  12.689  10.560
10725W        W81325   7.319  29.886  14.320
10726W        W81326  33.577  40.368   3.585
10727W        W81327  19.080  23.726  10.942
10728W        W81328  20.267  37.420   5.041
10729W        W81329   4.415   0.043  11.370
10730W        W81330   5.906  21.434  13.029
10731W        W81331   2.699  19.297   4.398
10732W        W81332  24.186  18.809  12.378
10733W        W81333  17.003   7.064   0.803
10734W        W81334   7.946   5.030  12.832
10735W        W81335  27.864  31.420   4.562
10736W        W81336  29.516  35.365  13.315
10737W        W81337  22.111  28.543  13.526
10738W        W81338   1.906  42.340   0.410
10739W        W81339  22.629  11.361   4.157
10740W        W81340  19.580  43.792   4.437
10741W        W81341  39.119   2.127   3.459
10742W        W81342  26.509  22.770   4.093
10743W        W81343  26.523   7.978   1.005
10744W        W81344  29.615  38.410   1.245
10745W        W81345  35.467  31.126   3.100
10746W        W81346  30.480  30.258   1.886
10747W        W81347  36.500  34.597   3.761
10748W        W81348  17.055  40.711  10.778
10749W        W81349  23.210   4.537  14.341
10750W        W81350   7.264  44.754   2.325
10751W        W81351  12.154  23.757   4.107
10752W        W81352  11.627  25.256   2.288
10753W        W81353   3.994  31.987  11.066
10754W        W81354   7.734  17.278  14.132
10755W        W81355   5.813   2.823  12.426
10756W        W81356  41.517  37.113   0.398
10757W        W81357  44.222  43.287  14.774
10758W        W81358  43.477  26.530   2.195
10759W        W81359  14.104  12.428   0.205
10760W        W81360   5.420  25.628  13.826
10761W        W81361  26.135  12.573   2.723
10762W        W81362  20.387  16.326  10.710
10763W        W81363  26.650  25.242   1.260
10764W        W81364  32.442  42.039   3.104
10765W        W81365  23.615  10.074   1.934
10766W        W81366   6.842  31.862   1.210
10767W        W81367  38.322   3.971   2.813
10768W        W81368   2.304  15.395  13.443
10769W        W81369   2.541  29.118  10.673
10770W        W81370   2.553   6.313  11.398
10771W        W81371  20.546  25.543  12.049
10772W        W81372  16.878   8.863  12.050
10773W        W81373  33.019   2.818  12.922
10774W        W81374  14.092  35.472   2.751
10775W        W81375  21.771   9.595   2.236
10776W        W81376  13.541  22.211   0.248
10777W        W81377  14.754  26.047   2.994
10778W        W81378  15.144   9.466  14.053
10779W        W81379  39.815  44.883  12.264
10780W        W81380  16.340  36.497   3.621
10781W        W81381   2.311   8.187   2.399
10782W        W81382  35.261  17.355   1.291
10783W        W81383   3.582  14.807   0.466
10784W        W81384  26.760   7.657  14.074
10785W        W81385  10.229   4.133  12.167
10786W        W81386  28.720  10.924  12.116
10787W        W81387  35.106  41.473   0.301
10788W        W81388  11.339  33.881   4.692
10789W        W81389   0.081  43.401  10.614
10790W        W81390  20.566  14.365   2.244
10791W        W81391  36.279  43.491  10.767
10792W        W81392  40.354  18.863  13.004
10793W        W81393  33.514   6.303  10.547
10794W        W81394   3.959  21.975   4.142
10795W        W81395  10.577   0.836  11.986
10796W        W81396  32.997  32.082   3.310
10797W        W81397  36.957   1.287  12.488
10798W        W81398  33.345  29.839  11.576
10799W        W81399  15.025   2.986  11.641
10800W        W81400   7.293  15.786  13.563
10801W        W81401  28.577  16.358   1.380
10802W        W81402  16.645  30.973   0.595
10803W        W81403  40.099  39.375   2.482
10804W        W81404  22.208  41.964  15.000
10805W        W81405  39.908  13.544  14.447
10806W        W81406  40.202  39.832  12.050
10807W        W81407  21.099   8.131   0.667
10808W        W81408  15.614  11.405  10.400
10809W        W81409  18.521  24.687  14.301
10810W        W81410  22.508  23.659  10.694
10811W        W81411  24.708  16.877  11.570
10812W        W81412  11.302  23.058   1.693
10813W        W81413  24.482  32.657   3.360
10814W        W81414  43.352  33.928  13.433
10815W        W81415   2.445  43.081  14.769
10816W        W81416  29.551  18.663   3.579
10817W        W81417  30.361   6.631  10.691
10818W        W81418  32.239  33.916   2.603
10819W        W81419  29.498  20.883  12.619
10820W        W81420  22.050  13.057   0.712
10821W        W81421   5.457  22.623   4.085
10822W        W81422  15.053   0.385   1.362
10823W        W81423  24.951  32.521   2.066
10824W        W81424   7.380  22.963  10.497
10825W        W81425  23.285   9.221   1.308
10826W        W81426  14.143  26.462  12.170
10827W        W81427  19.121  35.006   4.370
10828W        W81428  17.007  23.097  14.967
10829W        W81429  28.065  21.702   1.331
10830W        W81430  20.107  36.139   0.733
10831W        W81431  36.408  21.836   2.823
10832W        W81432  12.671  41.874   0.272
10833W        W81433  19.483  11.678  14.328
10834W        W81434  19.335  44.476  11.165
10835W        W81435   9.813  34.423   4.303
10836W        W81436  28.177  36.864  11.075
10837W        W81437  27.979   3.959  12.134
10838W        W81438   9.897  25.949   2.359
10839W        W81439  22.196  24.495  12.497
10840W        W81440  19.135  16.986  13.267
10841W        W81441  16.695  19.544  10.546
10842W        W81442  29.972  38.031   0.713
10843W        W81443  33.888  42.245   4.099
10844W        W81444  14.145   3.761  14.453
10845W        W81445  34.445  39.186  11.530
10846W        W81446  21.024  31.444   2.849
10847W        W81447  39.845  13.746   3.705
10848W        W81448  44.353  12.265  14.401
10849W        W81449  18.493  33.427   4.832
10850W        W81450  42.032   8.846   1.565
10851W        W81451  12.592   2.924  12.423
10852W        W81452  28.601  41.445   3.826
10853W        W81453  35.086  20.691   4.059
10854W        W81454  35.055  32.971  14.593
10855W        W81455  29.572  35.428   1.354
10856W        W81456  29.201  37.933   1.770
10857W        W81457  27.580  14.551   1.289
10858W        W81458   3.625  20.252   4.801
10859W        W81459  41.950  28.898  13.262
10860W        W81460  18.094  41.330   4.611
10861W        W81461  28.590  43.012   2.237
10862W        W81462  38.293  38.564  13.503
10863W        W81463  30.591  37.624   3.483
10864W        W81464  10.288  43.030   2.747
10865W        W81465  11.665  14.262   2.622
10866W        W81466  42.870   4.115   1.291
10867W        W81467  41.466  26.149  14.709
10868W        W81468  30.491   5.470   0.953
10869W        W81469  37.515  18.647   0.388
10870W        W81470  20.081  20.641   3.036
10871W        W81471   3.970  27.146  12.080
10872W        W81472   4.243  25.237  13.847
10873W        W81473   3.480   6.678  13.832
10874W        W81474  31.432  31.049   1.813
10875W        W81475  41.502  38.803  12.380
10876W        W81476   7.880  31.323   0.229
10877W        W81477  34.978  12.735   4.600
10878W        W81478  17.346  14.288  12.269
10879W        W81479   0.826   0.926  13.552
10880W        W81480  22.129   8.659  14.884
10881W        W81481  22.013  41.475   0.086
10882W        W81482  22.934   2.356   2.424
10883W        W81483  40.306  33.493   2.161
10884W        W81484  11.415   6.312  10.463
10885W        W81485  11.348  20.152  10.378
10886W        W81486  17.127  40.921   3.180
10887W        W81487  33.087   3.355  13.017
10888W        W81488  32.790  25.559   0.670
10889W        W81489  14.682  23.551  13.075
10890W        W81490  38.482  38.329   1.261
10891W        W81491  33.740  21.979   5.032
10892W        W81492   7.219  23.220  14.503
10893W        W81493  34.131  27.109   2.328
10894W        W81494  39.854  15.479   0.050
10895W        W81495  20.729  37.686  11.213
10896W        W81496  33.167  11.578  12.567
10897W        W81497  28.347  27.684   3.675
10898W        W81498  25.197  11.803  14.872
10899W        W81499  27.543   7.609  13.509
10900W        W81500  22.069  36.285  13.209
10901W        W81501  38.598  25.024  11.662
10902W        W81502  23.119  38.309   0.250
10903W        W81503  28.826  42.077  12.963
10904W        W81504  34.015  23.520   2.299
10905W        W81505  16.345   9.684   2.765
10906W        W81506  30.037  38.657  14.360
10907W        W81507  19.380  18.179  12.876
10908W        W81508   3.468  24.030   3.711
10909W        W81509  14.833  19.455   4.089
10910W        W81510   9.700   3.902  12.866
10911W        W81511  29.031  40.033   3.732
10912W        W81512   0.021   7.383  11.444
10913W        W81513  25.131  25.682   1.288
10914W        W81514  35.055   0.548   2.422
10915W        W81515  26.948  25.955   4.366
10916W        W81516  36.467   1.762   4.570
10917W        W81517  38.785  19.680   2.770
10918W        W81518  38.677  24.048   4.181
10919W        W81519  38.535  31.450  14.524
10920W        W81520  14.236   0.434  10.591
10921W        W81521  26.573   7.136   4.512
10922W        W81522  23.458  21.337   2.748
10923W        W81523   8.131  36.120   3.787
10924W        W81524  30.492  40.263   3.102
10925W        W81525  40.281  34.696  13.257
10926W        W81526  17.559  26.128   1.280
10927W        W81527   3.574   4.096   1.806
10928W        W81528  12.853  25.183   0.934
10929W        W81529  43.159   1.883  12.379
10930W        W81530  26.112  26.136   3.171
10931W        W81531  37.601   4.744  12.007
10932W        W81532  12.373  16.071  12.880
10933W        W81533  15.012  44.486  12.049
10934W        W81534  32.147  18.488   1.601
10935W        W81535  40.911  28.040   1.313
10936W        W81536  39.017  28.775   0.781
10937W        W81537  39.498   7.642  11.331
10938W        W81538   5.738  27.311   2.270
10939W        W81539  32.109  14.683   1.994
10940W        W81540  20.081  12.659  11.516
10941W        W81541  11.844  27.452   4.495
10942W        W81542  20.751  25.210   0.415
10943W        W81543   7.341  28.964  14.533
10944W        W81544   0.303   9.522  11.164
10945W        W81545  25.635  10.664  14.210
10946W        W81546  29.374  19.768   3.132
10947W        W81547  27.126  33.825   0.356
10948W        W81548  18.466  13.148  14.771
10949W        W81549  15.136   6.916   2.828
10950W        W81550  16.755  21.806  11.995
10951W        W81551  34.891   2.281  13.109
10952W        W81552  35.512   8.919   2.625
10953W        W81553  38.978  43.933  13.483
10954W        W81554   4.914  27.986  13.965
10955W        W81555  37.601  15.577   1.756
10956W        W81556  36.495  33.874  10.339
10957W        W81557  33.434  39.888   4.901
10958W        W81558  13.594  37.476   0.964
10959W        W81559   8.600  21.484   4.211
10960W        W81560  11.867  22.036  14.661
10961W        W81561  11.189   9.779  14.506
10962W        W81562   5.405  41.838   3.894
10963W        W81563  40.323   5.040  14.110
10964W        W81564   3.907  23.979  14.466
10965W        W81565  27.982   9.353  11.901
10966W        W81566  42.260  43.354  13.079
10967W        W81567  36.625  11.063  12.132
10968W        W81568  15.350   7.912   1.992
10969W        W81569  11.487  29.720   0.408
10970W        W81570  11.975   8.401   0.381
10971W        W81571   8.159  20.665   3.084
10972W        W81572  28.604  42.073  14.357
10973W        W81573  22.993  17.094   4.665
10974W        W81574  38.407  23.925   2.777
10975W        W81575  34.577   0.306   0.839
10976W        W81576  37.645   9.333  10.754
10977W        W81577  19.220  42.522   3.273
10978W        W81578  21.223   8.834  14.521
10979W        W81579  13.618  31.132  13.092
10980W        W81580  33.973  19.259   4.816
10981W        W81581  13.360  19.410  14.052
10982W        W81582  26.490  37.112   1.865
10983W        W81583  20.665  22.699  14.740
10984W        W81584  14.569  19.108   2.676
10985W        W81585  29.643  42.514  14.648
10986W        W81586  36.145   1.952   2.788
10987W        W81587  33.902  41.999   3.338
10988W        W81588   5.164   8.665  13.034
10989W        W81589  12.088  18.139   0.421
10990W        W81590  10.754  34.946  14.989
10991W        W81591   6.756  42.954   2.270
10992W        W81592  44.722   3.005   2.803
10993W        W81593   0.367   4.107  12.884
10994W        W81594  15.060  37.531  12.816
10995W        W81595  13.581   3.879  13.823
10996W        W81596  15.307  14.167   2.649
10997W        W81597  34.914  38.082  12.863
10998W        W81598  18.869   7.385   4.645
10999W        W81599  17.402   9.786  11.137
11000W        W81600   2.862  32.572  13.852
11001W        W81601  34.650  22.622  12.505
11002W        W81602  11.319   1.421   0.353
11003W        W81603   9.318  22.672  12.246
11004W        W81604  21.063  15.764   3.652
11005W        W81605  14.273  18.574  13.406
11006W        W81606  35.508  11.013   2.291
11007W        W81607  25.485  31.428  13.977
11008W        W81608  40.994  42.156   0.388
11009W        W81609  39.579  12.014  11.560
11010W        W81610  17.740  28.851   3.495
11011W        W81611  41.876   4.491  11.627
11012W        W81612  43.342  25.678   0.888
11013W        W81613  39.127  30.619   3.206
11014W        W81614  33.557  21.116   0.931
11015W        W81615  13.033  19.502  12.147
11016W        W81616  24.310  22.119  13.080
11017W        W81617  30.957  13.907   3.107
11018W        W81618  44.496  26.074   0.422
11019W        W81619  19.454   0.718   3.138
11020W        W81620  35.541   6.907   0.073
11021W        W81621  44.853  33.288   1.262
11022W        W81622   4.823  10.848  12.278
11023W        W81623   8.361  37.248   2.931
11024W        W81624  24.912   2.713   1.373
11025W        W81625  21.167  13.312   0.398
11026W        W81626  29.407  18.513  10.754
11027W        W81627  18.764  23.982  11.660
11028W        W81628  41.367  43.181  12.096
11029W        W81629  28.426  18.135  11.695
11030W        W81630  31.471  29.014  10.730
11031W        W81631   3.775  31.080  11.063
11032W        W81632   2.754  44.597  11.155
11033W        W81633   3.370  19.698   0.417
11034W        W81634  20.152  34.349   3.676
11035W        W81635   8.218  22.663   3.748
11036W        W81636   7.892  43.345   4.830
11037W        W81637  28.476  38.421   1.233
11038W        W81638  20.970   2.161  12.609
11039W        W81639  38.922  40.332   2.728
11040W        W81640   7.704  12.577   3.142
11041W        W81641  16.200  16.019  10.210
11042W        W81642  28.261  22.116  12.185
11043W        W81643  25.213  32.657   1.661
11044W        W81644  34.209  13.731  14.458
11045W        W81645  26.074  38.054   1.617
11046W        W81646  40.829  20.760   1.668
11047W        W81647  24.548   4.329   4.567
11048W        W81648  25.817  27.286  13.210
11049W        W81649  43.979   5.676   2.870
11050W        W81650  15.501  39.885   3.884
11051W        W81651   8.839  27.019  13.052
11052W        W81652  25.549  27.843   0.966
11053W        W81653  29.065  23.008   4.841
11054W        W81654  12.076  33.823   2.436
11055W        W81655  29.217   6.089  14.077
11056W        W81656  16.566   1.546   2.097
11057W        W81657  40.661   2.050   0.060
11058W        W81658  43.616   6.296   0.735
11059W        W81659  30.069  31.381  13.019
11060W        W81660  31.071   9.846   1.903
11061W        W81661   6.315  37.987  13.729
11062W        W81662  36.560   5.064   3.950
11063W        W81663   3.524  17.350  13.577
11064W        W81664  42.446   2.975   2.715
11065W        W81665  10.383  11.308   1.823
11066W        W81666  31.141  26.421   2.194
11067W        W81667   9.227  31.473  13.832
11068W        W81668   9.857  15.468   1.383
11069W        W81669   4.414  19.967  11.090
11070W        W81670  31.227  21.567   0.896
11071W        W81671  14.757  18.886  11.255
11072W        W81672  22.418  33.385   3.819
11073W        W81673  39.959  20.995   3.130
11074W        W81674  29.363  36.912   2.658
11075W        W81675   3.898   1.366  13.336
11076W        W81676  19.214  13.871   4.829
11077W        W81677   4.241  37.305   2.543
11078W        W81678  16.977  10.409  14.011
11079W        W81679   6.749  34.450  12.893
11080W        W81680  12.132   7.371  11.032
11081W        W81681  39.112  34.066  14.729
11082W        W81682  27.169   9.945   3.214
11083W        W81683  31.917  11.280  12.048
11084W        W81684  13.877   1.831  13.546
11085W        W81685  44.524  13.725  12.481
11086W        W81686  29.691   8.187  14.426
11087W        W81687  17.548   6.817  11.972
11088W        W81688   1.632  25.450  14.063
11089W        W81689  10.334  34.947  13.291
11090W        W81690   4.294  24.989  11.954
11091W        W81691  16.904  33.798   4.062
11092W        W81692  29.416  21.514   4.658
11093W        W81693  28.720  35.666  13.961
11094W        W81694  16.487  31.099  13.409
11095W        W81695  39.600  41.119   4.420
11096W        W81696  29.987   6.171  14.810
11097W        W81697  40.006  22.254  13.443
11098W        W81698  15.084  25.182  12.424
11099W        W81699   6.785  20.711   2.852
11100W        W81700  14.715  35.874  12.449
11101W        W81701  41.387   1.831   1.361
11102W        W81702  22.947  30.404   3.208
11103W        W81703  23.298   9.437   2.698
11104W        W81704  23.381  19.822   1.777
11105W        W81705  12.646  13.956  13.561
11106W        W81706  17.511  36.080   0.917
11107W        W81707   7.182  17.156   2.680
11108W        W81708  25.929  16.744  14.995
11109W        W81709   2.775  20.775   2.346
11110W        W81710  20.513  31.364  14.257
11111W        W81711  10.524  25.765   2.662
11112W        W81712  24.158   4.690  11.557
11113W        W81713   9.063  14.786  11.004
11114W        W81714  10.079  28.197  12.169
11115W        W81715  30.183   4.477   2.422
11116W        W81716   7.919  21.066   0.952
11117W        W81717   9.478  16.674   1.922
11118W        W81718  30.787  20.303   0.534
11119W        W81719  17.236  15.940  12.058
11120W        W81720   9.917   6.800  11.996
11121W        W81721  21.967   6.165  12.315
11122W        W81722  39.486  29.523  13.787
11123W        W81723  37.505  29.463   4.125
11124W        W81724  37.034  44.779   0.897
11125W        W81725  22.495  18.234  12.479
11126W        W81726  23.566  37.930   1.851
11127W        W81727  34.817  38.913  13.215
11128W        W81728   2.262  12.370   3.184
11129W        W81729   7.147  16.103  11.570
11130W        W81730  41.824  10.328  13.421
11131W        W81731  31.673  29.914   2.431
11132W        W81732  41.727  39.150   4.131
11133W        W81733   8.491  30.228   4.242
11134W        W81734  11.678  25.166   3.201
11135W        W81735  21.174  15.901  13.577
11136W        W81736  41.640  11.124  13.759
11137W        W81737  20.831  25.667   4.023
11138W        W81738   9.633  25.954  14.553
11139W        W81739  16.678  20.624   0.848
11140W        W81740  32.617  26.163  14.761
11141W        W81741   2.138  24.460  14.270
11142W        W81742  21.151  22.090  11.514
11143W        W81743  15.204  29.858  11.088
11144W        W81744  22.849  37.092  10.721
11145W        W81745   1.219  28.070  12.480
11146W        W81746  12.882  35.733   0.805
11147W        W81747  20.265  24.643   1.725
11148W        W81748  12.337   5.797   3.317
11149W        W81749  33.889   7.323   1.955
11150W        W81750  21.572  20.008  13.056
11151W        W81751  32.442  22.250   4.189
11152W        W81752   9.331   0.716  12.411
11153W        W81753  37.569  11.752   3.170
11154W        W81754  18.519  26.154  14.534
11155W        W81755  35.171  36.457  13.570
11156W        W81756  37.654   7.621  12.604
11157W        W81757  13.893   9.583  13.463
11158W        W81758  34.985  19.376  13.989
11159W        W81759  18.502  32.349  10.773
11160W        W81760  26.222  11.213  10.586
11161W        W81761  17.761  37.417   1.969
11162W        W81762  16.638  36.417  14.976
11163W        W81763  15.307  17.380   3.237
11164W        W81764  12.051  38.644  13.531
11165W        W81765  32.606  41.934   2.589
11166W        W81766  17.101   8.078  12.865
11167W        W81767  30.164  34.881  12.464
11168W        W81768   3.899   6.872  11.060
11169W        W81769   6.936  16.254  14.922
11170W        W81770  36.782  18.839  13.028
11171W        W81771   9.301  14.242  10.126
11172W        W81772   7.650  33.634  10.756
11173W        W81773  18.723  30.780   0.953
11174W        W81774  43.236  25.409  11.114
11175W        W81775  26.193  29.228   4.854
11176W        W81776   9.723  33.955   1.501
11177W        W81777  37.568  38.870   1.167
11178W        W81778  27.088  44.952  12.882
11179W        W81779  13.826  24.773   2.252
11180W        W81780  44.032  44.384   4.633
11181W        W81781  25.184  37.449  10.850
11182W        W81782  29.555   5.393  11.177
11183W        W81783  42.766  33.104   0.346
11184W        W81784  17.255  19.199  13.670
11185W        W81785  10.268  16.379   1.409
11186W        W81786  13.319  43.985   1.469
11187W        W81787  41.982  24.562   0.506
11188W        W81788  35.755  24.274   3.275
11189W        W81789  38.522  26.950  13.023
11190W        W81790   7.223  16.517   4.172
11191W        W81791  26.450  31.184   0.221
11192W        W81792   7.328  12.250   1.553
11193W        W81793  20.789  13.469   2.392
11194W        W81794   0.491  29.445  13.471
11195W        W81795  28.459  25.408   1.843
11196W        W81796   7.328   6.651   1.231
11197W        W81797   7.085  32.919  14.960
11198W        W81798  35.599  12.560  10.654
11199W        W81799   3.293   0.988   1.412
11200W        W81800  10.723  31.667   0.695
11201W        W81801   1.988  16.640  11.077
11202W        W81802  22.590   5.820  14.288
11203W        W81803  37.446  32.133  12.486
11204W        W81804  29.495   7.715  12.692
11205W        W81805   6.002  15.596   3.860
11206W        W81806  42.993  40.533   1.695
11207W        W81807   6.130  23.118  14.944
11208W        W81808   0.433  24.155   1.851
11209W        W81809  23.189   2.336  11.627
11210W        W81810  41.477  16.104  14.992
11211W        W81811   6.013  14.566   0.410
11212W        W81812  31.113  29.113   0.392
11213W        W81813  18.496   4.923  12.656
11214W        W81814  13.341  13.761  12.006
11215W        W81815  38.338  33.646  11.176
11216W        W81816  28.080  39.247   4.098
11217W        W81817  18.536  21.135   2.422
11218W        W81818  23.113   6.678   3.572
11219W        W81819   9.693  24.595   1.851
11220W        W81820  36.358  18.504   1.401
11221W        W81821   9.615  25.055  13.552
11222W        W81822  22.040  20.351   1.964
11223W        W81823  12.297  44.678  13.095
11224W        W81824  38.608  43.402   2.397
11225W        W81825  26.526  10.116  13.080
11226W        W81826   6.827  29.510  11.608
11227W        W81827  42.896   8.416   3.211
11228W        W81828   6.911  34.608  11.486
11229W        W81829   5.682  27.730  12.493
11230W        W81830  24.150  11.093   2.188
11231W        W81831  44.234  33.480   2.711
11232W        W81832  27.968  23.112   4.191
11233W        W81833  25.638   4.682   4.218
11234W        W81834  22.614   8.923   3.236
11235W        W81835  38.890  42.598   4.148
11236W        W81836  39.315  18.703  12.473
11237W        W81837   8.308  39.919  12.084
11238W        W81838  41.008  14.740   1.248
11239W        W81839  17.773   3.441  13.507
11240W        W81840  14.303   3.762  13.471
11241W        W81841  14.080   0.191  13.919
11242W        W81842  37.663  35.186   3.160
11243W        W81843  16.469   6.210  11.998
11244W        W81844   9.788  33.175  14.128
11245W        W81845  13.830  35.025   2.685
11246W        W81846   9.739  20.514   1.963
11247W        W81847   3.179  44.998  12.503
11248W        W81848  22.318  30.094  11.211
11249W        W81849  43.641   5.367   2.608
11250W        W81850  17.729  44.882   4.105
11251W        W81851  24.737   6.669   0.915
11252W        W81852  15.331  14.847  11.837
11253W        W81853  15.991  28.281  11.677
11254W        W81854  40.432  44.217   2.487
11255W        W81855   1.219  23.933  14.420
11256W        W81856  31.921  33.348  13.334
11257W        W81857  11.313  22.577   1.441
11258W        W81858   6.850  12.085  12.652
11259W        W81859  25.314  38.103  14.377
11260W        W81860  11.275  21.056  11.339
11261W        W81861  31.380   1.724   0.753
11262W        W81862  20.342  23.010   2.692
11263W        W81863  43.057  13.136   0.967
11264W        W81864  40.359   5.301   0.518
11265W        W81865  37.885  11.179  14.711
11266W        W81866  13.334  42.339  11.562
11267W        W81867  36.232  39.463   3.779
11268W        W81868  16.712  32.460   4.559
11269W        W81869  42.046  21.720  13.798
11270W        W81870  26.432   7.333   3.696
11271W        W81871  28.465  22.621   0.040
11272W        W81872  40.390  14.581  11.975
11273W        W81873   4.733  35.415   3.203
11274W        W81874  25.576  34.291  12.162
11275W        W81875  10.275  17.256  14.669
11276W        W81876  18.980  34.441   1.724
11277W        W81877  44.360   4.368  12.922
11278W        W81878  14.451   6.090   3.906
11279W        W81879   2.346  31.962  13.350
11280W        W81880  29.649  40.157  12.958
11281W        W81881   9.387   7.373   1.847
11282W        W81882  42.572  33.197   0.831
11283W        W81883  17.244  43.363   1.921
11284W        W81884  24.480  43.970  14.385
11285W        W81885   6.367  22.117   0.252
11286W        W81886  30.488   1.952  11.581
11287W        W81887   9.304  37.194   4.171
11288W        W81888  22.506  24.632  12.895
11289W        W81889  17.280   1.971  12.050
11290W        W81890  10.195  41.455   0.946
11291W        W81891  19.005  18.707  13.434
11292W        W81892   4.806   8.195  11.584
11293W        W81893  15.182   0.232  11.498
11294W        W81894  42.781  23.225  12.105
11295W        W81895  22.439  24.246  13.641
11296W        W81896  15.264  26.684   0.320
11297W        W81897  44.837  35.383   0.307
11298W        W81898  30.645  32.421   4.155
11299W        W81899  11.823  24.023   3.775
11300W        W81900  31.108  31.729   1.321
11301W        W81901   4.356   2.311   2.726
11302W        W81902  35.595  30.128  12.383
11303W        W81903  37.987   0.040   3.732
11304W        W81904  15.306   9.345   1.939
11305W        W81905  13.666  35.892  11.686
11306W        W81906  28.174  17.127   1.922
11307W        W81907  35.330  35.062   1.821
11308W        W81908  23.648  34.609   2.376
11309W        W81909  14.570  42.553   3.267
11310W        W81910  32.938  42.642   4.516
11311W        W81911  14.619  41.383   4.576
11312W        W81912  24.090  11.100   3.128
11313W        W81913   3.317  24.195  13.301
11314W        W81914  14.290  20.071   1.474
11315W        W81915  24.645  25.604  11.128
11316W        W81916  24.719  22.066   2.340
11317W        W81917  19.493  40.923  14.586
11318W        W81918  12.432  38.346   2.941
11319W        W81919  34.407  19.565   3.883
11320W        W81920  23.210  10.191   4.032
11321W        W81921  37.796   9.761  12.949
11322W        W81922   5.268  18.549   2.583
11323W        W81923  11.585   3.648   4.550
11324W        W81924  30.659   8.408   3.327
11325W        W81925  41.965  23.255  13.805
11326W        W81926  19.241  33.633  13.015
11327W        W81927   4.750   3.622  11.825
11328W        W81928  27.978  43.935  11.703
11329W        W81929   3.450   2.352   2.882
11330W        W81930  22.759  14.500   4.357
11331W        W81931  36.164  15.621  11.170
11332W        W81932  11.355  27.915   3.282
11333W        W81933  15.878  21.718   3.259
11334W        W81934  30.540  14.244  12.362
11335W        W81935  28.982  42.520  11.715
11336W        W81936  18.750   8.750   0.934
11337W        W81937  33.145   2.883   1.684
11338W        W81938  41.065  16.790  14.940
11339W        W81939  38.510  26.937   2.312
11340W        W81940  33.517  28.260  10.670
11341W        W81941  18.550   8.819  13.520
11342W        W81942  16.239  37.595  10.517
11343W        W81943  44.709  10.753   1.739
11344W        W81944  15.352  28.963  11.676
11345W        W81945  15.283  27.987   0.857
11346W        W81946  24.986  35.888  13.456
11347W        W81947  38.589  36.792   4.117
11348W        W81948  23.521  23.744  11.701
11349W        W81949  43.380   1.689   2.236
11350W        W81950   6.790   1.719   0.317
11351W        W81951  31.842  26.821  14.927
11352W        W81952  34.388  43.768   2.806
11353W        W81953  17.183  29.745   2.812
11354W        W81954  30.589   1.234   0.253
11355W        W81955   5.298  16.111  13.741
11356W        W81956  31.831  42.390   1.352
11357W        W81957  23.456  24.180   2.430
11358W        W81958  15.006  19.548  11.867
11359W        W81959   6.855  28.017   4.194
11360W        W81960   6.345  22.453  14.321
11361W        W81961  38.492   8.311   2.872
11362W        W81962  26.988   2.366   3.785
11363W        W81963  42.460  33.907  14.786
11364W        W81964  19.606  14.483   5.102
11365W        W81965  39.766   1.861  10.787
11366W        W81966  40.984  27.216   3.725
11367W        W81967   0.745  41.351  11.136
11368W        W81968  12.043  26.037  11.194
11369W        W81969   5.890   7.225   2.568
11370W        W81970  17.644  19.643   3.157
11371W        W81971  34.623  11.196   4.845
11372W        W81972   5.441   7.600   1.640
11373W        W81973  18.308  39.398  11.078
11374W        W81974  24.737  27.964  12.086
11375W        W81975  24.645  30.980   3.810
11376W        W81976  36.026  24.074  14.443
11377W        W81977   2.137  14.258   1.140
11378W        W81978  38.829   8.744   4.994
11379W        W81979  26.201  24.639   4.186
11380W        W81980   0.876  40.393  11.124
11381W        W81981  21.196  33.818   2.101
11382W        W81982   3.016  25.309  12.589
11383W        W81983  42.827   0.302   4.261
11384W        W81984   4.444  29.504  14.720
11385W        W81985   4.155  42.568   0.828
11386W        W81986  42.215  10.649  12.492
11387W        W81987   6.812  32.933   3.370
11388W        W81988  42.209  18.069  13.103
11389W        W81989  34.438  34.799   2.191
11390W        W81990   7.356  35.551   3.670
11391W        W81991  13.190   5.016   4.590
11392W        W81992  13.579  26.390  11.681
11393W        W81993  43.808  29.420  12.951
11394W        W81994  28.309   9.446   0.882
11395W        W81995  40.238  28.114  14.503
11396W        W81996  12.128  15.665   3.220
11397W        W81997  12.231  13.407   2.409
11398W        W81998  25.075  39.959  14.408
11399W        W81999  20.570  35.917   0.574
11400W        W82000  18.128  39.155   0.201
11401W        W82001   9.317  12.366   2.209
11402W        W82002  12.831  13.532  12.689
11403W        W82003   8.102  40.729  13.591
11404W        W82004  27.099  18.150  12.461
11405W        W82005   5.969  35.819  11.270
11406W        W82006  30.525  25.169  12.585
11407W        W82007   3.831   7.560   0.213
11408W        W82008  37.365  16.303   0.289
11409W        W82009   2.888  18.711  12.624
11410W        W82010   5.812   1.201   1.973
11411W        W82011  21.817  12.909  11.457
11412W        W82012   8.718  12.397  13.873
11413W        W82013  29.940   6.914  10.630
11414W        W82014  29.907  38.809   3.216
11415W        W82015  18.360   0.287  12.171
11416W        W82016   7.053  36.474   2.778
11417W        W82017  28.083  17.806  13.794
11418W        W82018   0.789   6.458   2.774
11419W        W82019  43.901  26.044   2.680
11420W        W82020  30.405  10.904   1.393
11421W        W82021   1.326   9.621  12.440
11422W        W82022  37.800  14.127  14.431
11423W        W82023  40.861  17.571   1.675
11424W        W82024  37.442  35.127   3.636
11425W        W82025   1.307   0.643  11.891
11426W        W82026  43.299   3.006   2.674
11427W        W82027  28.788  21.068  14.840
11428W        W82028  30.667  11.349  10.448
11429W        W82029  13.112  26.726  10.693
11430W        W82030  12.197  13.534   1.400
11431W        W82031  27.809   8.192   4.071
11432W        W82032  20.267  20.031   1.293
11433W        W82033  21.237  18.811   0.201
11434W        W82034  35.944   5.983  10.992
11435W        W82035  25.912  43.476   2.872
11436W        W82036  35.641  24.725   3.019
11437W        W82037   8.439  19.118  13.837
11438W        W82038   0.732  43.277   1.926
11439W        W82039  43.777  26.202  14.870
11440W        W82040  11.799  21.760   1.272
11441W        W82041  29.963   1.942  10.853
11442W        W82042  16.615   2.866   2.416
11443W        W82043  24.132  37.406   9.749
11444W        W82044  42.015  30.886  13.920
11445W        W82045   3.842  10.796  14.148
11446W        W82046  43.668  27.902  11.111
11447W        W82047  26.457  20.251   3.274
11448W        W82048  30.879  16.200  11.485
11449W        W82049  42.460  36.382   2.407
11450W        W82050   2.708   8.746   1.374
11451W        W82051  33.432   4.202  12.541
11452W        W82052  33.515  28.195  14.419
11453W        W82053  18.530  27.059   0.891
11454W        W82054  24.695  40.364   1.874
11455W        W82055  11.193  41.070  13.433
11456W        W82056  28.249  37.700   3.126
11457W        W82057   0.703  17.920  12.509
11458W        W82058   6.404  13.178  13.675
11459W        W82059  31.941  40.922  14.988
11460W        W82060  20.754  29.112  11.041
11461W        W82061   3.278  11.747   2.995
11462W        W82062  20.202   8.636   0.030
11463W        W82063  42.969   9.452  11.098
11464W        W82064  26.758  30.401  14.414
11465W        W82065   7.310  36.635  14.690
11466W        W82066  12.894  17.603  12.954
11467W        W82067  40.413   2.486   4.844
11468W        W82068  21.358   6.788   1.642
11469W        W82069  26.227  23.476   0.877
11470W        W82070  21.799  28.989   0.760
11471W        W82071   4.519   0.030  14.448
11472W        W82072   0.484  25.119   0.480
11473W        W82073   5.453  38.513   3.158
11474W        W82074  32.950  14.336   1.936
11475W        W82075  44.877  30.898  13.941
11476W        W82076  42.470  33.503   0.214
11477W        W82077  10.824   4.788   2.188
11478W        W82078  18.854  41.001   4.319
11479W        W82079  38.614  38.376   2.132
11480W        W82080  34.171  12.333  12.963
11481W        W82081  13.340  25.893  14.368
11482W        W82082  25.725  14.552   0.255
11483W        W82083  41.769  27.614   4.629
11484W        W82084  43.778  21.541  13.572
11485W        W82085   9.633   2.476   0.429
11486W        W82086  42.662   4.363   3.663
11487W        W82087  15.312  10.936   1.135
11488W        W82088  40.416  15.842  13.038
11489W        W82089  33.007   7.160  13.459
11490W        W82090  40.980   6.383   0.840
11491W        W82091  24.060  18.784  10.628
11492W        W82092  12.779  23.178   4.882
11493W        W82093   6.465  37.464  13.775
11494W        W82094  37.405  21.927   4.964
11495W        W82095  19.705  20.930   3.239
11496W        W82096  41.287  10.144  14.584
11497W        W82097  13.182  24.599  14.161
11498W        W82098  42.981  21.695   4.557
11499W        W82099  41.930  31.683   1.677
11500W        W82100  34.554   6.292   1.264
11501W        W82101  13.712  25.152  10.727
11502W        W82102  15.331  28.600  10.719
11503W        W82103  27.939  17.273   2.345
11504W        W82104  41.837  14.863   2.430
11505W        W82105  16.761  24.031  10.452
11506W        W82106   7.341  27.372  13.027
11507W        W82107  11.117  30.065   0.818
11508W        W82108  40.525  16.580  13.546
11509W        W82109   0.276   8.225   4.645
11510W        W82110   7.660   7.515   2.582
11511W        W82111  33.450  12.955  14.774
11512W        W82112  18.180   4.191   0.885
11513W        W82113  36.524  34.363  13.421
11514W        W82114   3.067  39.078   4.943
11515W        W82115  39.118  35.030   2.338
11516W        W82116  35.369   1.423  13.313
11517W        W82117  17.304   4.998   5.071
11518W        W82118  18.487   8.808   1.393
11519W        W82119  10.260  44.838   0.417
11520W        W82120  43.813  27.377   2.214
11521W        W82121   9.450  29.096   2.812
11522W        W82122  43.341  10.101   2.758
11523W        W82123   2.335  43.367   0.265
11524W        W82124   4.940   2.781  11.259
11525W        W82125   9.449   2.293  11.302
11526W        W82126  11.262  40.965   1.705
11527W        W82127  14.984  17.647   1.411
11528W        W82128   7.203  14.097  13.274
11529W        W82129  17.217  32.354  12.877
11530W        W82130   5.720  39.936   0.215
11531W        W82131  41.239  22.206  13.858
11532W        W82132   4.508   2.256   3.669
11533W        W82133  22.048  42.913   4.267
11534W        W82134  20.179  29.696  12.327
11535W        W82135  22.577   9.537   0.899
11536W        W82136  33.993  29.131  13.500
11537W        W82137  23.143  28.709  13.430
11538W        W82138  36.326  43.240  12.069
11539W        W82139   0.908  35.136   2.778
11540W        W82140  22.764  19.743  12.392
11541W        W82141  28.501   0.824  11.514
11542W        W82142  10.533  39.408  14.115
11543W        W82143  29.836  15.677   3.985
11544W        W82144  17.391  31.364  13.044
11545W        W82145  28.154   8.242  14.024
11546W        W82146  32.371  28.400   4.064
11547W        W82147  35.008  28.067   1.023
11548W        W82148  23.232  42.757   1.803
11549W        W82149  43.519  32.887   4.313
11550W        W82150   0.205  25.205  11.378
11551W        W82151  39.840  32.975  14.570
11552W        W82152   8.991   6.754   1.476
11553W        W82153  44.487   3.116   0.757
11554W        W82154  35.866  23.647   0.289
11555W        W82155   0.876  11.780   0.269
11556W        W82156   5.687  17.727   4.172
11557W        W82157  43.923  31.699   2.675
11558W        W82158  33.466  44.746   5.115
11559W        W82159   1.343  14.661   3.404
11560W        W82160  24.191  17.400   1.227
11561W        W82161  19.296   5.828   3.649
11562W        W82162  18.271  14.126  11.486
11563W        W82163  16.296  11.231   0.021
11564W        W82164  27.538  25.925   0.783
11565W        W82165  28.997   0.561   0.693
11566W        W82166  14.160  39.543  14.934
11567W        W82167  40.104  20.828   4.579
11568W        W82168  29.653  31.961  10.165
11569W        W82169  24.230  28.949   1.348
11570W        W82170  24.990  19.086  10.731
11571W        W82171  38.531   3.658  14.378
11572W        W82172  15.248  42.289   3.826
11573W        W82173  18.381  37.832   0.490
11574W        W82174  15.155  32.620  14.320
11575W        W82175   6.156   8.753  14.038
11576W        W82176  28.682   9.837  10.685
11577W        W82177  38.106  14.831  10.770
11578W        W82178  23.231  22.792   4.153
11579W        W82179  25.157  38.140   2.281
11580W        W82180  30.317  38.251   5.314
11581W        W82181  21.983  31.717   0.972
11582W        W82182  43.686  16.131   2.325
11583W        W82183  36.587  32.481   4.639
11584W        W82184  37.826  31.572  13.467
11585W        W82185  32.600  17.433  10.437
11586W        W82186  24.397  16.334  10.573
11587W        W82187  15.232   9.184  14.481
11588W        W82188   0.532  37.555  10.420
11589W        W82189   7.317  23.956   4.058
11590W        W82190  30.051  23.221   4.194
11591W        W82191  41.343  25.982  11.005
11592W        W82192  27.158   0.876  12.137
11593W        W82193  39.706  10.629   2.316
11594W        W82194   8.704  38.259  11.203
11595W        W82195  30.971  30.451  11.952
11596W        W82196   7.699  25.264   4.212
11597W        W82197  14.065  20.032   1.936
11598W        W82198  28.471  20.762   1.711
11599W        W82199   0.207   6.474  14.560
11600W        W82200  36.040  31.170  14.054
11601W        W82201  26.864  21.331  10.294
11602W        W82202  22.576  26.205  14.506
11603W        W82203  29.557  11.132  12.845
11604W        W82204  30.460  20.097  13.104
11605W        W82205  36.490  38.050   0.464
11606W        W82206  21.007  11.448  13.528
11607W        W82207  28.162  10.258   2.370
11608W        W82208  43.362  19.462  11.675
11609W        W82209   2.220  29.102  14.029
11610W        W82210  32.393  21.880  13.200
11611W        W82211  18.704   8.976   3.308
11612W        W82212  39.967   3.434  10.576
11613W        W82213  18.804  23.939   4.133
11614W        W82214  35.621  13.893   2.728
11615W        W82215  10.714  27.879   2.174
11616W        W82216   1.489  44.333  11.117
11617W        W82217   3.371  38.362   1.489
11618W        W82218  36.434  19.139  12.602
11619W        W82219  39.406  33.178  14.983
11620W        W82220  38.666  21.464  13.390
11621W        W82221  25.892  11.058   2.773
11622W        W82222  18.756  43.364   0.414
11623W        W82223   3.668  23.907   0.824
11624W        W82224  27.380  25.186  11.080
11625W        W82225  38.615  15.273  14.280
11626W        W82226  31.503  26.778   9.747
11627W        W82227   0.945  35.122   1.875
11628W        W82228   5.878   8.847   4.129
11629W        W82229  35.138  25.241  13.389
11630W        W82230   5.640  25.964  12.065
11631W        W82231   6.951  38.018   3.543
11632W        W82232  32.540  21.691   1.088
11633W        W82233  26.605   4.287   2.952
11634W        W82234  15.044  15.205  12.100
11635W        W82235  36.601  40.956   1.556
11636W        W82236  32.026  24.116   2.693
11637W        W82237   2.371  27.524  10.736
11638W        W82238  11.852  36.655  14.511
11639W        W82239  38.763  31.876   3.135
11640W        W82240   2.290   9.111   2.686
11641W        W82241  22.958   7.433  14.314
11642W        W82242  12.203   4.486   1.254
11643W        W82243  21.812  29.737  11.113
11644W        W82244  13.487   5.274  11.089
11645W        W82245   1.544  19.518   5.020
11646W        W82246  37.332  25.569   0.256
11647W        W82247  11.037  43.805   4.507
11648W        W82248  11.678   7.267  12.935
11649W        W82249  35.754   4.045   4.193
11650W        W82250   6.960  30.286   1.831
11651W        W82251   7.216  37.846   2.568
11652W        W82252  26.302   4.904  14.332
11653W        W82253  42.035  14.344   4.204
11654W        W82254  40.211  41.024  13.147
11655W        W82255   1.754   3.213   1.850
11656W        W82256  36.994   1.800  13.741
11657W        W82257  11.359   0.447   1.863
11658W        W82258   0.526   8.240  10.780
11659W        W82259  20.753  44.465   0.483
11660W        W82260  44.951   6.262   5.080
11661W        W82261  33.364  36.049  12.066
11662W        W82262  23.738  12.697   0.377
11663W        W82263  37.517  18.715   0.968
11664W        W82264  12.076  24.119  14.977
11665W        W82265  40.957  17.369  13.583
11666W        W82266   2.930   5.194  11.185
11667W        W82267  29.197  35.666  12.598
11668W        W82268  41.066  16.822   2.695
11669W        W82269  41.784  30.229  11.166
11670W        W82270   6.942   7.836  14.878
11671W        W82271  29.595   4.470   3.136
11672W        W82272  15.122  18.760  11.948
11673W        W82273   8.395  44.024   1.931
11674W        W82274  29.084  36.526   1.305
11675W        W82275  35.809  31.476  10.649
11676W        W82276   5.170  38.944   2.207
11677W        W82277  15.078  19.464   0.267
11678W        W82278  28.321   7.708   3.558
11679W        W82279  16.198   8.690   1.145
11680W        W82280  10.714  32.353   3.458
11681W        W82281  19.497   3.259  12.536
11682W        W82282  22.689  36.402  12.394
11683W        W82283  40.897  29.261   3.442
11684W        W82284  14.717  41.209  12.358
11685W        W82285  17.709   6.300   4.919
11686W        W82286  16.558  39.551  11.629
11687W        W82287   9.839  33.607   3.849
11688W        W82288  42.338  16.683  13.308
11689W        W82289  43.556   6.671   1.740
11690W        W82290  34.646  33.064  11.669
11691W        W82291  41.838   0.658   3.533
11692W        W82292   3.350  12.058   2.157
11693W        W82293  30.498   8.669   3.763
11694W        W82294  41.557  28.039  14.965
11695W        W82295  12.292   0.703  13.030
11696W        W82296  15.259  38.133   1.167
11697W        W82297  44.029  17.047   1.968
11698W        W82298   5.937  25.510   3.154
11699W        W82299   3.384  34.182  14.856
11700W        W82300  40.587  28.617  13.780
11701W        W82301  41.510  36.961  11.459
11702W        W82302  11.875   9.218  10.652
11703W        W82303  42.695   9.914  11.190
11704W        W82304  30.838   8.375  11.666
11705W        W82305  29.083  12.815   0.245
11706W        W82306   4.783  39.360   2.936
11707W        W82307   3.437  34.963   4.199
11708W        W82308  36.598  34.577   1.428
11709W        W82309  23.932  36.447  11.153
11710W        W82310  11.813   1.795  11.497
11711W        W82311  16.536  25.736   2.791
11712W        W82312  15.159  20.983   0.975
11713W        W82313  38.889  37.558   3.671
11714W        W82314  39.219  12.643  11.627
11715W        W82315   2.382  19.034   2.325
11716W        W82316  41.275   5.991   3.765
11717W        W82317   0.301  24.139   4.707
11718W        W82318   1.906  27.547   3.222
11719W        W82319  37.584   8.335   2.383
11720W        W82320  27.893   9.714   4.136
11721W        W82321  44.446  44.915  10.862
11722W        W82322  42.411  18.246  12.672
11723W        W82323   5.503  17.523   3.551
11724W        W82324  13.315   1.428   0.568
11725W        W82325   6.316  42.878  10.990
11726W        W82326   4.382  10.993  10.623
11727W        W82327  10.972  16.632   4.187
11728W        W82328  31.025  26.991  11.440
11729W        W82329   3.655  39.399  13.022
11730W        W82330  43.048  18.474   3.071
11731W        W82331  23.957  18.012  14.236
11732W        W82332  39.554  20.647  13.787
11733W        W82333  38.229  16.327  12.851
11734W        W82334  26.362  13.806   5.191
11735W        W82335   2.809  24.213  12.953
11736W        W82336  20.056   1.765  13.376
11737W        W82337  24.541   9.223  11.971
11738W        W82338  42.948  24.126  14.955
11739W        W82339  39.038   4.613   1.380
11740W        W82340   8.731  15.632   4.748
11741W        W82341  36.006  41.968   0.289
11742W        W82342   4.416  43.255   4.198
11743W        W82343  14.290  35.533  14.687
11744W        W82344  36.832  38.740  13.547
11745W        W82345  27.565   8.335  11.871
11746W        W82346  21.087   6.854  13.043
11747W        W82347  14.890  19.567  13.015
11748W        W82348  36.624  12.986   2.306
11749W        W82349  28.178   2.013  11.184
11750W        W82350  29.989   5.866  10.715
11751W        W82351  35.943  34.046   4.080
11752W        W82352  30.493  32.408  14.449
11753W        W82353  38.699  18.852  12.997
11754W        W82354  42.421   5.714  12.534
11755W        W82355  41.764   1.053  12.914
11756W        W82356  25.944  37.654   3.226
11757W        W82357  23.164  13.534   0.332
11758W        W82358  28.503   4.707   4.673
11759W        W82359   6.287  11.071   3.651
11760W        W82360   7.305  12.006  14.018
11761W        W82361   6.517   3.939   3.730
11762W        W82362  44.977  16.280   0.909
11763W        W82363  11.068  28.143  12.032
11764W        W82364   0.208  12.404  13.145
11765W        W82365  10.007  23.326   1.661
11766W        W82366  42.388  36.149   1.184
11767W        W82367  30.734  33.540  12.802
11768W        W82368  23.628   8.408   2.707
11769W        W82369  41.448  24.660  13.566
11770W        W82370  26.057   0.710   2.496
11771W        W82371  39.944  19.499  12.389
11772W        W82372  12.282   1.948   3.145
11773W        W82373  26.978  12.257   4.467
11774W        W82374  32.917  23.085  11.284
11775W        W82375  25.066   3.868   3.181
11776W        W82376   1.003  18.504   0.392
11777W        W82377   4.967  38.909   4.353
11778W        W82378  38.980  37.537  13.946
11779W        W82379  37.052  39.775   0.370
11780W        W82380  18.170  21.854   1.502
11781W        W82381  26.646   3.639  13.882
11782W        W82382  39.976  25.565   4.639
11783W        W82383  16.711   4.806   4.877
11784W        W82384  26.855  17.138   0.201
11785W        W82385  44.084  41.902  14.990
11786W        W82386  22.309   1.203  13.421
11787W        W82387   8.939   6.903  12.904
11788W        W82388  29.525  36.996   4.487
11789W        W82389  17.739   2.653  13.931
11790W        W82390  14.293   0.234   1.916
11791W        W82391  19.280  35.947   2.724
11792W        W82392  26.224  40.461  11.737
11793W        W82393  14.758  24.936  14.311
11794W        W82394  35.307   6.299  13.185
11795W        W82395  13.655   2.803  12.143
11796W        W82396  17.150  35.881   0.495
11797W        W82397  17.060  27.462  14.340
11798W        W82398   4.479  21.671   2.729
11799W        W82399  11.761  30.669   1.699
11800W        W82400  24.866   7.291  11.131
11801W        W82401   4.380  29.231  11.913
11802W        W82402   8.495  33.128  12.822
11803W        W82403  38.682   0.770  10.681
11804W        W82404  18.769  41.889  13.346
11805W        W82405  38.367   9.367   4.416
11806W        W82406  38.861   7.161   0.752
11807W        W82407  29.509  26.042  13.914
11808W        W82408  38.436  13.103  10.661
11809W        W82409   7.185  27.542  14.705
11810W        W82410  25.781  43.835  14.557
11811W        W82411  24.007  19.078  11.040
11812W        W82412  36.551  28.724  12.062
11813W        W82413  17.856   0.239  12.231
11814W        W82414  40.346  28.836   2.990
11815W        W82415  42.288  38.455  13.523
11816W        W82416   2.242  38.057  13.481
11817W        W82417   7.160  15.083  12.520
11818W        W82418   1.734  39.512  13.896
11819W        W82419   7.575  22.963  12.246
11820W        W82420  44.803  37.313  12.286
11821W        W82421  33.491  31.671  10.497
11822W        W82422  20.725  35.175  12.455
11823W        W82423  24.644   4.737   3.266
11824W        W82424  15.053  39.038   0.854
11825W        W82425  44.223  43.510  13.441
11826W        W82426   8.179  10.763   1.859
11827W        W82427  25.888  17.845  12.065
11828W        W82428  37.314  26.352  14.858
11829W        W82429  30.659  16.519   0.355
11830W        W82430  17.197  22.586   2.403
11831W        W82431  19.608   3.007  13.396
11832W        W82432  36.349  12.645   3.177
11833W        W82433   3.225  40.511   3.684
11834W        W82434  11.805  32.417  14.257
11835W        W82435  36.493   7.444  12.460
11836W        W82436  20.813   7.263  11.058
11837W        W82437  40.087  44.225   0.207
11838W        W82438  19.982  17.102  11.142
11839W        W82439  30.702  38.903  14.879
11840W        W82440  43.837  12.276  14.482
11841W        W82441  31.996  13.207  14.264
11842W        W82442   0.789  23.560   3.932
11843W        W82443  19.604  38.096   1.767
11844W        W82444  21.554  43.387  10.449
11845W        W82445  30.412  32.070   0.392
11846W        W82446   6.970  10.217  11.603
11847W        W82447  44.638  21.252   4.065
11848W        W82448  17.237  18.544  11.632
11849W        W82449  10.406  41.957   4.135
11850W        W82450  30.612  36.845   1.047
11851W        W82451  37.857  41.309   1.130
11852W        W82452  26.242   6.400  13.236
11853W        W82453   5.911  24.711   2.980
11854W        W82454  22.295  31.974  11.441
11855W        W82455   0.421   4.175  11.537
11856W        W82456  38.830   8.345   4.598
11857W        W82457  42.927  43.475   4.480
11858W        W82458   8.600  24.053   4.248
11859W        W82459  28.709  33.846  13.579
11860W        W82460   5.845  18.432  13.750
11861W        W82461  23.982   3.599  11.520
11862W        W82462  42.937  25.154  12.886
11863W        W82463  25.301  35.068   0.773
11864W        W82464  27.927  22.183  13.924
11865W        W82465  29.935  32.518  13.784
11866W        W82466  44.914  20.855   3.876
11867W        W82467  15.264  40.035  13.914
11868W        W82468  27.070  20.523  13.941
11869W        W82469  19.206  20.874  10.180
11870W        W82470   9.258  16.766   3.612
11871W        W82471   7.582  37.256  11.260
11872W        W82472  30.593  33.702  10.671
11873W        W82473  43.247  39.839  14.110
11874W        W82474   5.944  20.333   3.781
11875W        W82475  35.404  41.518   0.831
11876W        W82476  38.616  12.075  10.224
11877W        W82477  35.307  22.216   3.269
11878W        W82478  35.295   4.233  11.276
11879W        W82479  23.774  17.032  12.623
11880W        W82480  23.228   4.862   4.700
11881W        W82481  31.024  20.591   0.938
11882W        W82482  25.150  15.545   0.921
11883W        W82483  10.522   3.932   4.708
11884W        W82484  29.421  16.124  13.033
11885W        W82485  18.173   2.683   4.572
11886W        W82486  32.179  19.803  14.796
11887W        W82487  17.055  21.126  10.932
11888W        W82488  24.929  39.335  12.835
11889W        W82489  40.039  31.086   0.686
11890W        W82490  21.652  15.629  13.499
11891W        W82491   8.697   6.387  10.645
11892W        W82492  12.709  12.326  14.809
11893W        W82493   1.286  25.953  14.285
11894W        W82494  27.661  41.135  13.854
11895W        W82495  43.016   2.709  12.010
11896W        W82496  43.919  31.898  13.743
11897W        W82497  42.278  14.312  13.057
11898W        W82498   8.826  31.544   1.686
11899W        W82499   4.815  12.950  11.106
11900W        W82500  16.771  22.230  14.741
11901W        W82501  24.711  42.046  10.901
11902W        W82502   4.045  19.497  12.477
11903W        W82503  15.780   7.636   4.669
11904W        W82504  18.023  34.601  11.942
11905W        W82505   2.133  38.968  12.007
11906W        W82506  11.211  42.073   4.431
11907W        W82507  25.928  14.399  14.387
11908W        W82508  31.453  40.912   0.784
11909W        W82509   2.903   2.349  13.822
11910W        W82510   1.984  13.832   1.827
11911W        W82511  32.057  20.891   4.546
11912W        W82512  29.127  38.462  14.852
11913W        W82513  17.639  20.171  14.446
11914W        W82514  16.976  20.122  12.820
11915W        W82515  29.483  23.076  14.896
11916W        W82516   7.908  35.637  10.338
11917W        W82517  10.909  19.720   3.984
11918W        W82518  44.434  12.403  11.100
11919W        W82519   8.013   6.098   2.715
11920W        W82520  22.949  32.984   2.409
11921W        W82521  10.263   7.421   1.750
11922W        W82522  15.921  12.240   2.107
11923W        W82523   8.592  35.668  13.056
11924W        W82524  12.334  18.058  14.970
11925W        W82525  36.163  20.245   3.053
11926W        W82526   1.685  23.781  10.820
11927W        W82527  24.401  21.704  12.779
11928W        W82528   1.430  13.183  11.931
11929W        W82529  24.032  38.835   0.348
11930W        W82530   4.882  12.669   4.629
11931W        W82531  12.789  25.199  10.600
11932W        W82532   0.032   5.274   1.237
11933W        W82533  40.503  43.651  11.985
11934W        W82534  27.460   5.121   3.689
11935W        W82535   4.230  39.764  12.034
11936W        W82536   9.773  17.270   0.426
11937W        W82537  29.441  39.805  13.879
11938W        W82538  21.603  26.438   2.417
11939W        W82539  26.575   4.392   2.464
11940W        W82540  25.095   0.123  14.436
11941W        W82541  19.782  17.006  11.594
11942W        W82542  28.229  16.753   4.206
11943W        W82543   4.744   2.832  13.623
11944W        W82544  36.034  13.182  12.045
11945W        W82545   6.310  35.095   1.704
11946W        W82546   2.001   1.840  11.984
11947W        W82547  12.642   5.722  14.189
11948W        W82548  18.470   5.340   4.248
11949W        W82549  32.493  33.112  10.746
11950W        W82550  11.641  10.087  14.668
11951W        W82551  35.499  19.764  14.915
11952W        W82552  35.864  15.850  11.617
11953W        W82553  22.945  17.516  13.492
11954W        W82554   8.118  15.180   0.785
11955W        W82555  12.729  19.717   4.077
11956W        W82556  30.405   3.734  10.693
11957W        W82557  13.613  22.618   4.163
11958W        W82558  23.337   2.716  11.287
11959W        W82559   9.163  23.063  14.062
11960W        W82560  14.174  17.569  14.304
11961W        W82561  34.004  15.151  14.994
11962W        W82562  42.389   4.665  12.491
11963W        W82563  18.099  26.180   1.245
11964W        W82564   9.301  37.068   2.147
11965W        W82565  32.196  36.943   2.855
11966W        W82566  13.109  20.635  11.236
11967W        W82567  14.655   7.295   1.329
11968W        W82568  12.416  31.778   0.295
11969W        W82569  17.754  38.781  13.829
11970W        W82570  25.973  33.229  11.765
11971W        W82571  31.478  30.641   3.736
11972W        W82572   1.743   0.656   2.413
11973W        W82573   6.248  43.979   1.385
11974W        W82574  36.527  18.425   4.066
11975W        W82575  35.402   7.296   4.371
11976W        W82576  21.671  38.543  10.971
11977W        W82577   0.338  34.839   3.632
11978W        W82578  42.889  25.201  11.903
11979W        W82579  15.096  32.042   1.315
11980W        W82580  20.142   0.004   4.929
11981W        W82581  16.304  14.120  13.086
11982W        W82582  39.049  43.325  12.041
11983W        W82583  16.704  10.967   2.859
11984W        W82584  29.669  28.518   2.005
11985W        W82585  44.560  24.335  13.921
11986W        W82586   1.237  20.696   4.112
11987W        W82587  16.702  37.371  10.477
11988W        W82588   1.211  26.695   1.292
11989W        W82589   3.239  31.984  10.406
11990W        W82590  35.351  42.327   0.223
11991W        W82591   1.334  14.739  13.911
11992W        W82592   4.700  34.889   1.254
11993W        W82593  32.620  13.828   1.726
11994W        W82594   2.767  21.181  11.689
11995W        W82595  34.526   2.730  10.616
11996W        W82596  18.955  35.943  10.751
11997W        W82597  15.712   1.942  13.290
11998W        W82598  44.921  35.275  14.796
11999W        W82599  41.294  14.627   4.071
12000W        W82600  13.114   5.815  11.665
12001W        W82601   2.398   7.825  11.687
12002W        W82602  30.145  34.768  14.826
12003W        W82603   5.805  12.147  14.805
12004W        W82604  34.033  42.717   4.050
12005W        W82605  27.910  14.747  13.531
12006W        W82606  19.600  41.886   0.493
12007W        W82607   0.231  35.516   3.117
12008W        W82608  11.368  10.268   3.349
12009W        W82609  21.535   8.787  13.004
12010W        W82610  25.563  35.495   0.759
12011W        W82611   2.095  13.322  13.355
12012W        W82612   9.951  36.597   3.755
12013W        W82613   3.659  36.943   1.596
12014W        W82614  44.955  30.326  10.772
12015W        W82615  21.304  32.158  13.423
12016W        W82616   5.179  11.581  12.375
12017W        W82617  35.827  34.779   4.518
12018W        W82618  43.763  38.580  12.070
12019W        W82619  37.407   8.589  13.989
12020W        W82620  44.251   0.826   2.419
12021W        W82621  44.714  31.001   4.787
12022W        W82622  36.083  40.347   3.685
12023W        W82623  33.421  16.198   0.267
12024W        W82624  44.305  15.165   1.295
12025W        W82625  14.238  23.262   2.604
12026W        W82626  27.689   9.626  12.327
12027W        W82627  23.503  32.050  10.857
12028W        W82628  34.783  42.872   4.686
12029W        W82629   3.675  11.177  14.456
12030W        W82630  29.530  39.440  14.231
12031W        W82631  44.292  21.500   1.169
12032W        W82632  23.420  33.810   1.886
12033W        W82633  11.861  37.688  10.879
12034W        W82634  37.135  36.291   4.139
12035W        W82635  38.856  12.734   4.383
12036W        W82636   1.365  14.116  11.936
12037W        W82637  29.925  18.962  12.032
12038W        W82638  34.004  26.915  12.322
12039W        W82639  42.004  41.613  10.470
12040W        W82640  27.013   8.999  12.306
12041W        W82641  11.611   3.802  12.008
12042W        W82642  44.552  40.489  14.327
12043W        W82643  12.215  25.188  12.806
12044W        W82644   7.916   0.073   2.243
12045W        W82645   1.976  29.510  12.417
12046W        W82646  21.084  17.573  12.612
12047W        W82647  34.612  12.132   1.876
12048W        W82648  19.054   4.405  13.638
12049W        W82649  14.154  17.620  11.026
12050W        W82650  29.957  23.752  12.004
12051W        W82651   9.384  19.499  13.792
12052W        W82652   1.806  38.300   0.716
12053W        W82653   8.440  42.078   3.242
12054W        W82654  36.486  32.838   3.248
12055W        W82655   7.783  36.051  14.752
12056W        W82656  15.114  36.099   5.001
12057W        W82657  23.562  16.747  10.743
12058W        W82658  10.859  43.737  13.275
12059W        W82659  36.158   8.317   1.190
12060W        W82660   2.334   3.271  12.026
12061W        W82661  13.439  23.397  13.426
12062W        W82662  16.533   8.887  13.829
12063W        W82663  10.887  38.483   3.976
12064W        W82664   6.104   6.930   1.598
12065W        W82665  36.854  19.728   4.687
12066W        W82666   7.335  34.323   0.166
12067W        W82667  30.869  42.300   2.717
12068W        W82668  16.088  24.531   4.552
12069W        W82669  22.876  21.948  13.880
12070W        W82670  31.181  30.120   0.187
12071W        W82671  26.575  39.420   2.465
12072W        W82672  35.731  44.794   3.193
12073W        W82673   3.703  19.665  13.034
12074W        W82674  42.466  23.586  13.883
12075W        W82675  40.597  16.333  11.801
12076W        W82676  24.992  26.128   4.109
12077W        W82677  34.213  35.936   1.692
12078W        W82678  30.877  40.155  14.074
12079W        W82679  38.058  39.241   2.344
12080W        W82680  37.379  22.925   4.692
12081W        W82681  17.742  20.470  13.944
12082W        W82682  35.600  20.226  13.085
12083W        W82683  19.859   1.855  11.919
12084W        W82684  12.525  38.384   2.234
12085W        W82685  27.605   6.140   0.620
12086W        W82686   6.367  33.395   9.957
12087W        W82687  32.880  25.889  10.549
12088W        W82688  24.934  32.554  13.370
12089W        W82689  25.533  40.901  12.466
12090W        W82690  31.828  44.507  13.048
12091W        W82691  10.204   0.561   2.006
12092W        W82692   1.189  22.741   3.759
12093W        W82693   7.634  36.306   4.515
12094W        W82694   4.944  33.408   4.161
12095W        W82695  13.717   6.266   2.327
12096W        W82696  24.264   2.893  13.509
12097W        W82697  11.617  43.084   2.532
12098W        W82698  11.711  21.200  11.067
12099W        W82699   7.359  11.687   0.707
12100W        W82700  16.860  28.087  12.006
12101W        W82701  10.540  32.536  12.049
12102W        W82702  21.034  15.786   2.095
12103W        W82703  32.820  19.774  11.375
12104W        W82704  17.023  26.454  14.633
12105W        W82705   9.033  34.847   1.607
12106W        W82706  16.148  37.231   5.103
12107W        W82707  21.040   6.349   1.682
12108W        W82708  41.732  10.903   4.148
12109W        W82709  39.967  26.452   2.021
12110W        W82710  20.230  31.588   0.842
12111W        W82711  16.105  29.214   3.193
12112W        W82712  13.834   4.586   3.131
12113W        W82713  22.134  17.138   0.595
12114W        W82714   6.612  10.329  10.170
12115W        W82715   4.986  31.340  10.498
12116W        W82716   6.412  19.142   3.761
12117W        W82717   3.163  12.185   0.675
12118W        W82718  43.520  38.409  11.649
12119W        W82719   0.389  19.037  14.770
12120W        W82720  40.810  20.719   3.600
12121W        W82721   1.146  38.646  13.256
12122W        W82722  38.487  12.264   1.014
12123W        W82723  33.650  26.953   0.354
12124W        W82724   9.871  33.092  13.606
12125W        W82725  17.285  34.860  12.460
12126W        W82726   3.386   6.173   3.771
12127W        W82727  41.601   2.171  14.914
12128W        W82728   0.373  26.044   2.930
12129W        W82729  19.765  29.467  10.534
12130W        W82730  43.662  17.539  14.851
12131W        W82731  29.245  12.920  13.011
12132W        W82732  43.581  43.319   0.954
12133W        W82733   6.734  38.782   3.137
12134W        W82734  32.030   2.419  13.528
12135W        W82735   8.663   0.934   4.193
12136W        W82736   1.251   0.779  13.238
12137W        W82737  18.498  18.500  14.957
12138W        W82738  15.700   8.460   0.587
12139W        W82739  33.481  43.476  13.804
12140W        W82740  11.788  43.099   3.906
12141W        W82741  36.115  17.578  11.199
12142W        W82742  36.539  43.244   2.816
12143W        W82743  20.126  42.395  14.389
12144W        W82744  40.891  42.611   3.967
12145W        W82745   0.276  14.120   3.593
12146W        W82746  40.331  42.916  10.992
12147W        W82747  44.694  44.388  10.603
12148W        W82748  44.903  20.166  13.476
12149W        W82749  25.559  35.685  14.107
12150W        W82750   7.754  39.047  10.699
12151W        W82751  31.656  31.334   0.895
12152W        W82752  39.307   2.160  14.779
12153W        W82753  19.560   5.441  11.085
12154W        W82754  40.093  40.081  11.605
12155W        W82755  16.190  41.912  11.093
12156W        W82756  28.492  23.437   3.799
12157W        W82757  22.712  38.988  10.217
12158W        W82758  20.846  43.032   3.735
12159W        W82759  19.558  22.639  14.604
12160W        W82760   8.286   6.213   1.379
12161W        W82761   3.219  12.808   1.414
12162W        W82762  35.054  38.601  14.055
12163W        W82763  10.255   3.838   3.772
12164W        W82764  24.568  12.271   0.982
12165W        W82765  34.815  43.968   0.973
12166W        W82766   9.596  12.481  14.123
12167W        W82767  39.526  44.914   0.479
12168W        W82768   3.474  33.610   2.356
12169W        W82769  43.876  27.991   2.970
12170W        W82770  26.647  24.982  10.367
12171W        W82771  11.871   4.920   2.202
12172W        W82772   1.421  15.275   4.748
12173W        W82773  12.511  33.281   3.180
12174W        W82774  37.930  37.875  12.400
12175W        W82775  31.709   0.439  11.621
12176W        W82776  15.162   7.682   3.326
12177W        W82777  29.854  11.266   0.886
12178W        W82778  44.998  17.781  11.119
12179W        W82779   0.670  35.567  11.075
12180W        W82780  39.815  11.617   1.421
12181W        W82781  10.733   9.624   4.177
12182W        W82782   2.947  38.788   2.119
12183W        W82783   6.724   1.837   3.832
12184W        W82784  33.741   1.783  11.121
12185W        W82785   5.635   5.688  10.897
12186W        W82786  40.638  32.662   2.677
12187W        W82787  11.740   2.687   0.694
12188W        W82788  13.266  42.454  12.602
12189W        W82789  15.054   8.764   3.387
12190W        W82790  20.820  24.242   2.870
12191W        W82791  20.391  11.824  11.082
12192W        W82792  26.821  28.136   0.273
12193W        W82793  34.005  11.999  14.785
12194W        W82794  13.552   6.396  12.128
12195W        W82795   0.339  38.499  11.543
12196W        W82796  17.621  16.290  13.993
12197W        W82797  24.177  39.539  12.106
12198W        W82798  29.412  38.877   3.326
12199W        W82799  38.890  23.726   1.600
12200W        W82800  21.867  37.328  14.544
12201W        W82801  15.906   7.832   2.027
12202W        W82802  18.133  34.609  13.937
12203W        W82803   5.238  18.736  12.908
12204W        W82804   6.738  42.338  13.801
12205W        W82805  10.565  39.821  11.392
12206W        W82806   2.802  31.458   3.712
12207W        W82807   9.314  26.664   3.774
12208W        W82808  28.038  10.686  10.385
12209W        W82809  14.638   1.823  12.419
12210W        W82810  21.666  21.649   0.436
12211W        W82811  33.778  18.048  11.639
12212W        W82812  25.855  18.355  12.099
12213W        W82813  26.959   2.135  10.546
12214W        W82814   1.038  19.144  14.948
12215W        W82815  35.067   1.502   3.205
12216W        W82816  19.631  20.247   0.503
12217W        W82817  38.599   9.847  11.590
12218W        W82818  35.068   2.092   2.361
12219W        W82819  29.864  21.143   3.324
12220W        W82820   9.808  37.511  10.922
12221W        W82821  25.691  22.368  13.528
12222W        W82822  39.742  42.337   4.661
12223W        W82823   2.792  27.692  14.995
12224W        W82824  38.950  25.741   2.854
12225W        W82825   7.753  37.330   1.231
12226W        W82826  15.649  12.370   2.960
12227W        W82827  24.023  43.668  14.371
12228W        W82828   6.892  10.691   2.993
12229W        W82829  25.168  19.230   2.227
12230W        W82830   8.439   3.728  11.396
12231W        W82831  11.616  20.258   0.006
12232W        W82832  27.636  15.589   1.281
12233W        W82833  31.530  22.095   2.209
12234W        W82834  17.142   8.815   2.363
12235W        W82835  11.617  31.940  11.286
12236W        W82836   3.476  17.550   1.220
12237W        W82837  20.133  25.062  10.687
12238W        W82838   4.764  35.084  11.516
12239W        W82839   4.539  10.989   4.026
12240W        W82840  43.242  41.332  14.000
12241W        W82841  14.771   7.797  13.053
12242W        W82842  16.061  28.483   4.528
12243W        W82843  29.260   0.410  14.800
12244W        W82844  23.491  21.063   0.413
12245W        W82845  37.890  17.294   0.843
12246W        W82846  13.866  17.426  13.296
12247W        W82847  44.238   6.322   4.059
12248W        W82848  30.650  20.980  10.042
12249W        W82849   2.702   9.655   2.919
12250W        W82850   1.862  34.647  14.273
12251W        W82851  22.285  18.157   3.337
12252W        W82852   2.620  40.308  12.564
12253W        W82853  41.915  18.437  13.514
12254W        W82854  39.931  24.114   1.087
12255W        W82855  43.902   5.901  10.290
12256W        W82856  11.234   1.424  11.685
12257W        W82857  15.276  30.489   2.084
12258W        W82858   6.955  11.191  11.112
12259W        W82859  42.350   8.463   2.654
12260W        W82860   7.429   4.898   0.739
12261W        W82861  25.801   3.223   0.890
12262W        W82862  22.618  43.811  12.162
12263W        W82863  33.073  14.599  13.839
12264W        W82864  44.935  27.876  11.602
12265W        W82865  35.337   9.390  13.885
12266W        W82866  18.753  24.014  14.416
12267W        W82867  30.848  41.967   0.783
12268W        W82868  15.940  32.923   3.486
12269W        W82869  44.543  44.218   0.810
12270W        W82870  17.154  24.265  10.702
12271W        W82871  28.673  24.328  11.920
12272W        W82872  35.166  40.474   0.126
12273W        W82873  34.854   1.862  12.799
12274W        W82874  15.833  37.046  12.945
12275W        W82875  16.348  13.567  14.537
12276W        W82876  42.630  20.611   0.602
12277W        W82877  26.393  42.856  13.031
12278W        W82878  30.956   6.274   2.216
12279W        W82879  15.586  29.204  10.743
12280W        W82880   6.446  35.912   2.165
12281W        W82881   6.859   6.231  11.687
12282W        W82882  42.051  19.238   0.394
12283W        W82883  17.617  31.547  11.064
12284W        W82884  23.600   0.267  12.303
12285W        W82885  34.046  39.488   4.677
12286W        W82886  37.891  33.103   0.695
12287W        W82887  32.520  22.569  11.588
12288W        W82888  22.200  26.747  12.712
12289W        W82889  24.226  37.508   0.847
12290W        W82890  15.026  22.547  14.299
12291W        W82891  29.471  12.481  11.265
12292W        W82892  18.499  12.607   0.407
12293W        W82893   8.470  38.180  11.677
12294W        W82894  12.635   6.930  13.624
12295W        W82895  30.477  20.702   2.920
12296W        W82896  12.191  33.489   1.317
12297W        W82897  25.995  42.454  14.503
12298W        W82898  24.860  23.825  11.487
12299W        W82899  21.081  42.473   1.444
12300W        W82900   7.529  22.351   4.940
12301W        W82901  43.047  36.343   4.674
12302W        W82902  20.977  21.348   3.560
12303W        W82903  41.314  43.907   1.740
12304W        W82904  17.528   3.163  13.051
12305W        W82905  26.522   5.761   2.761
12306W        W82906  27.411  39.990  13.130
12307W        W82907  13.833  11.203   0.561
12308W        W82908   8.293   3.161   2.760
12309W        W82909  26.187  33.933  13.524
12310W        W82910  17.721  38.877   2.675
12311W        W82911  36.334  20.672   1.154
12312W        W82912  28.442  41.855   2.419
12313W        W82913  35.938  26.092   4.289
12314W        W82914  18.076  22.588   0.783
12315W        W82915  41.353  39.075  11.954
12316W        W82916  32.418  18.165   0.457
12317W        W82917  38.130  14.101   1.146
12318W        W82918   3.752   0.525  14.983
12319W        W82919   7.132  11.410  11.568
12320W        W82920  14.409  35.905  11.068
12321W        W82921  21.300  43.676  12.818
12322W        W82922  14.837  24.024   2.754
12323W        W82923  36.195  30.481   0.290
12324W        W82924   7.341  33.162  12.074
12325W        W82925   3.374  29.226   3.836
12326W        W82926  18.929  12.541   4.211
12327W        W82927  44.973  41.000   0.283
12328W        W82928  17.211   4.382  12.242
12329W        W82929   1.238  25.598   1.980
12330W        W82930  37.414  36.056   2.638
12331W        W82931  42.987  15.071   4.222
12332W        W82932  18.180  38.948   3.234
12333W        W82933   7.248  13.235  12.668
12334W        W82934  27.945  29.834   2.911
12335W        W82935   9.400   7.175  11.251
12336W        W82936  26.403   3.730  13.420
12337W        W82937  37.951  35.308   2.735
12338W        W82938  13.833  21.862  13.378
12339W        W82939  43.791  36.136   2.346
12340W        W82940   2.019  17.280  11.570
12341W        W82941   4.827  32.767   5.556
12342W        W82942  34.963  13.131   2.668
12343W        W82943   1.848  22.302  13.379
12344W        W82944   4.118  21.195   1.311
12345W        W82945  12.875  19.596  10.828
12346W        W82946  35.722  17.161  12.135
12347W        W82947  12.224  40.525  13.953
12348W        W82948  42.830  25.594   4.761
12349W        W82949  13.385  29.801   0.447
12350W        W82950  20.005   3.074   2.282
12351W        W82951  19.917  15.588  14.854
12352W        W82952  10.145   0.643  11.801
12353W        W82953  15.060  27.386   3.100
12354W        W82954  25.131  12.000  12.523
12355W        W82955  33.167  17.990  13.479
12356W        W82956  23.168   0.078  10.271
12357W        W82957  38.832  36.475  14.573
12358W        W82958  26.061  28.074  12.955
12359W        W82959   7.915  30.064   1.246
12360W        W82960  32.432  24.935   4.235
12361W        W82961  28.421  36.389   4.572
12362W        W82962  22.022   3.820   3.305
12363W        W82963  38.410  25.419  11.932
12364W        W82964  21.123  36.948  14.920
12365W        W82965  11.105   3.248  14.923
12366W        W82966  11.574  33.967   2.365
12367W        W82967   5.806   6.119   1.725
12368W        W82968  34.426  35.179   1.806
12369W        W82969  21.783   4.281   1.389
12370W        W82970  15.077  10.527  12.876
12371W        W82971  37.114  31.710   4.164
12372W        W82972  34.531  37.335   3.321
12373W        W82973  42.813  38.420   0.134
12374W        W82974  21.081  28.206   0.185
12375W        W82975  20.173   8.476   2.305
12376W        W82976   1.857  30.630   2.583
12377W        W82977  12.132  34.934  11.953
12378W        W82978  27.401  34.381  12.083
12379W        W82979  17.668  29.492  10.462
12380W        W82980  16.991  17.830   1.922
12381W        W82981  14.255   4.266   3.777
12382W        W82982  41.017   5.411   3.692
12383W        W82983  24.562   4.568   1.908
12384W        W82984  17.179  24.993   4.113
12385W        W82985  33.666  21.126   5.000
12386W        W82986  19.660  18.223  13.306
12387W        W82987  30.558  39.260   3.239
12388W        W82988  25.935  24.729  13.313
12389W        W82989  37.299  15.730  14.461
12390W        W82990   2.759   1.896  13.570
12391W        W82991  41.525  35.973  14.278
12392W        W82992  39.312  26.925  14.436
12393W        W82993  14.545  20.462  12.040
12394W        W82994   2.291   5.196   1.509
12395W        W82995  10.125  44.805  11.863
12396W        W82996  10.170   6.204   3.295
12397W        W82997   1.814   4.660   2.685
12398W        W82998  16.669   3.441  11.201
12399W        W82999   8.373   5.054   0.761
12400W        W83000  36.126  41.359   0.393
12401W        W83001  43.787  39.374   0.249
12402W        W83002  31.702  12.611  13.868
12403W        W83003  23.179  36.353   1.771
12404W        W83004   4.884   8.431   0.433
12405W        W83005  15.028  38.987  14.936
12406W        W83006  16.164  22.016  13.578
12407W        W83007  28.656  19.468   2.742
12408W        W83008  35.271  35.281  13.772
12409W        W83009  24.025  25.364  11.497
12410W        W83010  44.942  24.300  14.292
12411W        W83011   0.462  36.666   2.430
12412W        W83012  41.261  33.535   1.674
12413W        W83013  30.074  41.653  10.318
12414W        W83014  13.457  42.756   2.517
12415W        W83015  17.004  38.543  11.677
12416W        W83016  32.059   4.715  14.645
12417W        W83017  18.217  37.306   0.610
12418W        W83018  30.889  43.509   0.349
12419W        W83019  23.934  23.072  11.911
12420W        W83020  23.218  16.723  14.519
12421W        W83021  24.714  38.508   1.489
12422W        W83022  21.000   0.996   4.121
12423W        W83023  16.146  21.968   2.893
12424W        W83024  43.508  21.968  11.978
12425W        W83025  44.006  17.638   4.553
12426W        W83026   6.699  12.926   0.240
12427W        W83027  30.448  37.764   4.177
12428W        W83028  18.803  41.017   0.912
12429W        W83029  17.757   3.443   3.693
12430W        W83030  23.749  32.290  14.593
12431W        W83031  39.967  40.273   4.492
12432W        W83032   6.305  27.558   4.402
12433W        W83033  41.873  17.909  13.499
12434W        W83034  27.777  20.281  13.512
12435W        W83035   0.364  35.465  14.042
12436W        W83036  34.950  12.621   2.706
12437W        W83037  16.111  17.420   4.178
12438W        W83038  42.661  14.811   0.998
12439W        W83039   8.590  37.896   4.834
12440W        W83040  43.328   8.673   3.081
12441W        W83041  13.826  17.256   3.106
12442W        W83042  24.690  39.301  14.900
12443W        W83043   6.400  29.256  12.999
12444W        W83044  26.111   1.994   4.613
12445W        W83045  11.634  35.247   5.157
12446W        W83046  20.306  21.099  10.553
12447W        W83047  15.121   0.355  10.535
12448W        W83048  24.362  33.626  13.226
12449W        W83049   6.754   6.941  13.820
12450W        W83050  38.338  42.456  14.312
12451W        W83051  29.103   3.013   1.819
12452W        W83052  17.355  29.072   3.825
12453W        W83053  24.504   4.746  10.723
12454W        W83054  10.135  30.647   4.582
12455W        W83055  20.258  33.629  13.042
12456W        W83056   0.015  16.465   0.401
12457W        W83057  28.479  25.516  12.387
12458W        W83058  43.026  38.839   0.569
12459W        W83059  10.419  13.158  14.831
12460W        W83060  27.994   5.408   1.389
12461W        W83061  14.884  24.664   1.381
12462W        W83062   4.843  13.852   4.244
12463W        W83063  36.763  36.861  12.327
12464W        W83064  33.520  42.584   3.801
12465W        W83065   7.828  26.450  14.198
12466W        W83066   4.481  43.770  13.831
12467W        W83067  14.862  44.781  13.873
12468W        W83068  20.204  42.411  10.936
12469W        W83069   1.355   4.816  10.599
12470W        W83070  10.738   1.141   1.276
12471W        W83071  40.551  33.329   0.919
12472W        W83072   8.127  30.693   0.024
12473W        W83073  12.857   5.735   2.683
12474W        W83074  14.297  26.749  11.013
12475W        W83075  36.547   4.203  10.705
12476W        W83076  13.603  23.188   3.817
12477W        W83077  23.959  31.788  10.920
12478W        W83078   1.173   3.529  13.056
12479W        W83079  39.879   5.471   1.807
12480W        W83080   4.825   0.404   0.914
12481W        W83081   5.096  21.167  11.562
12482W        W83082  35.009  37.146  12.089
12483W        W83083  23.348  12.770   0.712
12484W        W83084  43.900   5.414  14.410
12485W        W83085  18.468  26.030  13.570
12486W        W83086   1.034  20.143   0.771
12487W        W83087  21.215   0.360  11.232
12488W        W83088  15.279  25.647   0.351
12489W        W83089   5.648  41.633  10.932
12490W        W83090   6.392  28.562  11.107
12491W        W83091  27.144  34.598   0.915
12492W        W83092  13.879  41.523   0.851
12493W        W83093  24.231   5.401  14.422
12494W        W83094   6.375  19.085   1.366
12495W        W83095   2.295  16.526   2.849
12496W        W83096  24.688  17.334  10.623
12497W        W83097   7.166  14.152   3.912
12498W        W83098  34.895   9.933  14.515
12499W        W83099   2.976  39.028  11.583
12500W        W83100  36.222  34.939   0.654
12501W        W83101  10.644  33.464   4.156
12502W        W83102  30.622  26.863  11.165
12503W        W83103   9.202   7.554  14.706
12504W        W83104  17.382   5.959   4.106
12505W        W83105  15.711  36.613   3.080
12506W        W83106   9.987  15.771   4.120
12507W        W83107  44.312  37.109  12.386
12508W        W83108  39.299  14.338  11.402
12509W        W83109  20.624   8.310   0.937
12510W        W83110   3.456  30.919  13.384
12511W        W83111   4.445   8.230   4.633
12512W        W83112  36.909  28.428   1.266
12513W        W83113  22.944  42.730  10.539
12514W        W83114  15.123  28.741   1.260
12515W        W83115  40.056  25.430   0.368
12516W        W83116  15.587   5.854  11.236
12517W        W83117   8.568   2.791   1.743
12518W        W83118  14.613   3.488  14.926
12519W        W83119  24.970  12.173   3.241
12520W        W83120  14.637   6.255   2.239
12521W        W83121  23.071  27.796   0.789
12522W        W83122  31.647   9.265   0.762
12523W        W83123  34.886  11.323  12.130
12524W        W83124  44.795  20.683  11.589
12525W        W83125  40.197  12.092   0.321
12526W        W83126   5.632  33.827   1.817
12527W        W83127  32.889  31.705  12.395
12528W        W83128  21.021  13.185   1.797
12529W        W83129   9.033  39.503  13.154
12530W        W83130  40.050  25.731  12.432
12531W        W83131  44.248   4.305  13.758
12532W        W83132   8.426  40.765   1.253
12533W        W83133  33.996   4.970   1.854
12534W        W83134   2.533  41.970   2.635
12535W        W83135   9.129   7.854  13.835
12536W        W83136  13.622   5.794  11.581
12537W        W83137  16.889  41.817  11.625
12538W        W83138  37.909  20.470   1.226
12539W        W83139  37.321  36.751  14.917
12540W        W83140   1.126  39.145   0.081
12541W        W83141  10.222  22.972   3.368
12542W        W83142   3.151  13.878   0.486
12543W        W83143  20.648   0.144   4.916
12544W        W83144  20.542   2.435   0.549
12545W        W83145  39.784  34.530   2.916
12546W        W83146  34.281  36.360   0.918
12547W        W83147  35.783  40.129   0.093
12548W        W83148  19.784  37.290  14.244
12549W        W83149  33.181   4.423   4.271
12550W        W83150  38.668   0.892   3.997
12551W        W83151  30.101  19.310   1.354
12552W        W83152  43.392  44.896  12.482
12553W        W83153   8.201  43.500  13.886
12554W        W83154  10.390  35.844   1.249
12555W        W83155  36.934  15.057  10.409
12556W        W83156  16.166   8.858   2.631
12557W        W83157   8.398  43.759  14.326
12558W        W83158  14.266  44.716   5.028
12559W        W83159  22.852   7.327  13.817
12560W        W83160  37.916  22.034   0.488
12561W        W83161  18.720  19.725  10.333
12562W        W83162  16.183  24.060   2.987
12563W        W83163   3.499  20.741   3.332
12564W        W83164  41.682  44.221  14.498
12565W        W83165  20.290  16.484  13.441
12566W        W83166   4.037  18.098  13.353
12567W        W83167   5.046   0.784   2.707
12568W        W83168   1.289  34.361  14.751
12569W        W83169  31.686  25.576  12.951
12570W        W83170   4.180  19.471   4.125
12571W        W83171  38.796   8.676   0.430
12572W        W83172  30.233   8.104   3.179
12573W        W83173  43.935   0.671   4.382
12574W        W83174   1.450  32.914   0.576
12575W        W83175  26.794   3.149   4.592
12576W        W83176  34.667  24.114  12.585
12577W        W83177  36.493  29.373  11.228
12578W        W83178  14.922  26.986  13.301
12579W        W83179  35.992  22.101   0.044
12580W        W83180  43.728  31.907   0.869
12581W        W83181  37.336  34.566   2.401
12582W        W83182   5.326  31.459   2.402
12583W        W83183   5.936  42.862   0.954
12584W        W83184  18.712  23.277   1.091
12585W        W83185  11.140  44.943   1.445
12586W        W83186  43.239  22.666   3.068
12587W        W83187  43.445  20.948  13.851
12588W        W83188  37.594  17.235  10.771
12589W        W83189  32.415  43.229  14.515
12590W        W83190  29.738  28.436   2.521
12591W        W83191  28.393  11.708   2.265
12592W        W83192   0.474  25.135  10.572
12593W        W83193  29.998  26.365  14.878
12594W        W83194  27.931   7.367  14.539
12595W        W83195  33.950  21.972   0.474
12596W        W83196  11.703  15.532   0.503
12597W        W83197  28.011  17.059  14.262
12598W        W83198  35.256  27.686  11.206
12599W        W83199  31.835  33.115  10.740
12600W        W83200  33.439  40.855  11.923
12601W        W83201  23.591   0.747  12.099
12602W        W83202  28.079   6.501  11.949
12603W        W83203   2.389  32.648   4.067
12604W        W83204   5.859  38.058  14.067
12605W        W83205  18.160   5.265   2.383
12606W        W83206  37.818   2.974   0.280
12607W        W83207  21.797  14.369  11.537
12608W        W83208   0.230  30.088  12.375
12609W        W83209   1.195  43.469   1.776
12610W        W83210  24.935   9.229   0.679
12611W        W83211   9.535   6.702  13.590
12612W        W83212   5.477  22.543  12.375
12613W        W83213  16.927  25.936  13.505
12614W        W83214  31.910   3.359   0.220
12615W        W83215   1.234   2.375  12.345
12616W        W83216  27.327  39.865  13.628
12617W        W83217   5.993   6.398   1.326
12618W        W83218  13.578  27.926  12.403
12619W        W83219  32.437  38.293   0.029
12620W        W83220  23.534  15.630  11.441
12621W        W83221  20.888  24.161  13.198
12622W        W83222  32.197  29.429  10.600
12623W        W83223  22.235   5.478  11.104
12624W        W83224   4.255  25.546   4.212
12625W        W83225   0.524  16.861   2.522
12626W        W83226  13.783   9.801   4.110
12627W        W83227   2.347  28.459   2.739
12628W        W83228  21.163  34.975  12.311
12629W        W83229  20.715  41.733   1.403
12630W        W83230  25.219  42.509   2.016
12631W        W83231   5.657  42.844   3.200
12632W        W83232   2.967   1.040   0.378
12633W        W83233  21.183   3.545  13.984
12634W        W83234   3.538  33.142  13.738
12635W        W83235  12.383  29.149   3.681
12636W        W83236  13.965  44.931   3.606
12637W        W83237  18.135  33.908   2.505
12638W        W83238  37.881  36.731   1.649
12639W        W83239  35.978   6.197   4.562
12640W        W83240  10.594  41.826   3.156
12641W        W83241  18.540  43.855  11.113
12642W        W83242   6.802   7.462   1.442
12643W        W83243  39.346  23.591   4.637
12644W        W83244  28.208  12.243  11.489
12645W        W83245  44.493  29.665   0.837
12646W        W83246   5.917  13.323   3.335
12647W        W83247  31.957  43.169  11.520
12648W        W83248  34.433  10.599  11.888
12649W        W83249  36.563  37.275   5.093
12650W        W83250  37.375  44.641  11.634
12651W        W83251   7.597  43.457  12.028
12652W        W83252   2.901  32.899  11.109
12653W        W83253  43.202  34.417   2.824
12654W        W83254  29.150  12.793  11.010
12655W        W83255   9.313   1.199   3.198
12656W        W83256  29.624  25.292   1.279
12657W        W83257  10.859  13.199   4.196
12658W        W83258  11.585  15.559   1.320
12659W        W83259  30.167  42.488   1.808
12660W        W83260  21.972   1.679  13.479
12661W        W83261  16.604  18.666   3.031
12662W        W83262  16.335  38.916   1.279
12663W        W83263  12.034  18.757   4.105
12664W        W83264  11.408   5.459  11.085
12665W        W83265  19.770  37.904   3.161
12666W        W83266  26.025  28.534  13.196
12667W        W83267  26.699   8.813  11.870
12668W        W83268  11.118   2.960  13.822
12669W        W83269  40.412  17.203  11.590
12670W        W83270  28.540   4.868   4.182
12671W        W83271  36.387   0.203   2.843
12672W        W83272  37.540  37.122   1.709
12673W        W83273  42.712  28.435   2.238
12674W        W83274   6.141  12.142  11.920
12675W        W83275  12.589   5.555  13.595
12676W        W83276  19.262   6.965   4.637
12677W        W83277   5.465  15.741  11.661
12678W        W83278  35.538   1.738   3.610
12679W        W83279  31.225  12.454  10.165
12680W        W83280  44.810   8.711   2.128
12681W        W83281  12.855  34.593  11.891
12682W        W83282   4.166  34.366   0.760
12683W        W83283   8.293  33.523  13.857
12684W        W83284   1.267  13.641  11.210
12685W        W83285  27.214  23.589   0.020
12686W        W83286  34.666  21.053   5.080
12687W        W83287  38.097  32.823  12.438
12688W        W83288  13.847  29.241  12.537
12689W        W83289   4.969  35.442  13.961
12690W        W83290  29.486  22.592   5.331
12691W        W83291  30.183  14.807  10.741
12692W        W83292  40.954  29.676  12.983
12693W        W83293  10.138  38.927  12.578
12694W        W83294  33.383   4.907   1.003
12695W        W83295  21.305  38.800   1.249
12696W        W83296  42.829  44.451   2.206
12697W        W83297  32.188   2.514  11.439
12698W        W83298  35.636  24.038  14.913
12699W        W83299   6.825  19.496   3.207
12700W        W83300  15.811  15.890   4.569
12701W        W83301  39.978   4.054  13.549
12702W        W83302  17.071   3.721  12.879
12703W        W83303  28.710   3.503  11.458
12704W        W83304  21.967  14.691   3.235
12705W        W83305  25.080  27.579  12.119
12706W        W83306   0.819   3.025   1.473
12707W        W83307   3.861   2.908   1.194
12708W        W83308  15.855  17.590   1.245
12709W        W83309  24.741  25.454   3.165
12710W        W83310  44.437  24.401   1.048
12711W        W83311  10.419   5.688  14.766
12712W        W83312  21.776  27.965  14.837
12713W        W83313  28.950  21.104  13.027
12714W        W83314  26.091   1.805  14.715
12715W        W83315  14.275  30.840   2.264
12716W        W83316  21.807  32.595   0.962
12717W        W83317  19.136  44.018   1.272
12718W        W83318  24.919  25.033  14.683
12719W        W83319  23.723  29.506  10.946
12720W        W83320   2.792  35.589  11.466
12721W        W83321  20.266  44.463   0.724
12722W        W83322  34.888  17.137   4.524
12723W        W83323  39.995  41.265  13.574
12724W        W83324  37.841  16.284  11.535
12725W        W83325  18.573   7.512   2.300
12726W        W83326  35.428  24.031   0.986
12727W        W83327  16.732   0.852  14.568
12728W        W83328   2.747   9.306   2.553
12729W        W83329   4.211  31.079  14.926
12730W        W83330  33.781  27.002  10.993
12731W        W83331  19.263  10.949   0.926
12732W        W83332   7.655  21.635   3.278
12733W        W83333  25.110  20.562   0.213
12734W        W83334  39.569  19.138  12.428
12735W        W83335  19.552  29.599   2.029
12736W        W83336  33.074  28.930   1.243
12737W        W83337  44.915  31.398   2.741
12738W        W83338   1.171  19.222   1.810
12739W        W83339  11.706  43.231   1.516
12740W        W83340  26.078  31.704  11.080
12741W        W83341   9.375  17.817  14.716
12742W        W83342  17.213   0.949  14.342
12743W        W83343   4.970  37.982  12.065
12744W        W83344  16.826  29.037  11.573
12745W        W83345   9.807  33.656  12.038
12746W        W83346   8.194   0.966  14.313
12747W        W83347  15.781  24.963   3.168
12748W        W83348  44.260  42.670   2.867
12749W        W83349  17.237  14.512   3.546
12750W        W83350  14.794  39.990   1.430
12751W        W83351   1.602  44.855  12.853
12752W        W83352  18.621  20.020  13.075
12753W        W83353   0.196  39.952   0.305
12754W        W83354  22.498  44.837  14.250
12755W        W83355  11.581   3.163  13.477
12756W        W83356   3.727  11.852  14.759
12757W        W83357  18.754  38.053   3.285
12758W        W83358  28.224   9.850  13.157
12759W        W83359  25.003   2.309  12.165
12760W        W83360  31.919  19.078   0.423
12761W        W83361  36.455  10.185  14.003
12762W        W83362  23.496   1.098  13.816
12763W        W83363   2.324  24.122   0.511
12764W        W83364   9.837  15.315   0.400
12765W        W83365  35.925  39.897  13.440
12766W        W83366  41.877   9.594  12.862
12767W        W83367  28.282  25.888   4.312
12768W        W83368  43.671   1.239   4.088
12769W        W83369  22.986   6.885  12.001
12770W        W83370  19.597   4.509   0.942
12771W        W83371  43.396   8.798   1.608
12772W        W83372  18.316  28.078  11.918
12773W        W83373   1.455  25.868  10.700
12774W        W83374   9.926  35.502  13.919
12775W        W83375  38.564   2.454   2.908
12776W        W83376  15.381  20.717  13.513
12777W        W83377   8.794  28.348   3.201
12778W        W83378  12.285  11.786   3.847
12779W        W83379   8.936  27.508   2.105
12780W        W83380  24.065  43.700  11.476
12781W        W83381   0.261  14.943  12.053
12782W        W83382  26.918  33.351   0.382
12783W        W83383   3.884   9.213   2.400
12784W        W83384  18.721  24.449   4.924
12785W        W83385  16.042  22.746   4.152
12786W        W83386  33.007  43.065  13.886
12787W        W83387  28.025  14.854   1.389
12788W        W83388   3.680   9.120  12.451
12789W        W83389  25.699   7.128   2.327
12790W        W83390  41.896  21.276  13.559
12791W        W83391   9.786  34.562   2.871
12792W        W83392  41.975  11.207   2.646
12793W        W83393  23.729  15.647   4.218
12794W        W83394  33.191  39.959  13.939
12795W        W83395   4.963   5.252  11.221
12796W        W83396  31.724  29.903  11.144
12797W        W83397  37.722  14.711  13.975
12798W        W83398  19.185  34.201   5.077
12799W        W83399  15.467  42.449   3.251
12800W        W83400   9.299  18.641  10.585
12801W        W83401  41.840  23.989   3.623
12802W        W83402  17.851   4.845   0.879
12803W        W83403  36.235  28.206  11.319
12804W        W83404  38.272   0.230   1.920
12805W        W83405  19.405  15.972   0.958
12806W        W83406  14.528  11.113   0.498
12807W        W83407  29.787  22.545   0.296
12808W        W83408  29.883  18.089   2.709
12809W        W83409  22.597  29.032  11.650
12810W        W83410  18.152  25.550   3.213
12811W        W83411  12.035   0.969   4.183
12812W        W83412  40.291  18.303  12.984
12813W        W83413   0.888  15.413  13.498
12814W        W83414  40.244  39.413  10.555
12815W        W83415   7.489   1.307  10.720
12816W        W83416  14.363   9.818  13.452
12817W        W83417  37.362  42.302   1.794
12818W        W83418  41.509  20.800  14.051
12819W        W83419  20.159  25.776  13.494
12820W        W83420  17.676  18.099   2.707
12821W        W83421   5.008  37.118  14.572
12822W        W83422   3.117  25.670   0.177
12823W        W83423  33.525   5.837   3.984
12824W        W83424  13.865  25.318   2.270
12825W        W83425   9.110  18.858  14.396
12826W        W83426   2.215  40.721   1.338
12827W        W83427  28.561  33.995  10.914
12828W        W83428  26.485   2.396   3.641
12829W        W83429  43.807  23.963  14.981
12830W        W83430  27.735   7.927   2.789
12831W        W83431   6.108  37.013   2.136
12832W        W83432   8.052  41.997  10.712
12833W        W83433  24.928  14.791   1.296
12834W        W83434  40.009  31.037   3.334
12835W        W83435  19.736  16.026  14.604
12836W        W83436  17.857  13.039   2.138
12837W        W83437  14.615  35.070  13.906
12838W        W83438  34.334  14.539   0.872
12839W        W83439  23.229  25.260   1.376
12840W        W83440  33.930  27.083   1.837
12841W        W83441  10.865  21.985   2.416
12842W        W83442  21.086  10.949  13.541
12843W        W83443  34.989  40.447  12.423
12844W        W83444  28.676  30.065   1.392
12845W        W83445  10.030  27.904   0.495
12846W        W83446  28.947   8.858  13.341
12847W        W83447  40.054  23.818  13.885
12848W        W83448  28.864  11.622  14.421
12849W        W83449  15.351  11.765   1.655
12850W        W83450  18.291  30.892  14.585
12851W        W83451  34.030  14.037  10.658
12852W        W83452  11.450  12.967   2.765
12853W        W83453  35.026   1.295   4.137
12854W        W83454  32.080  37.864  10.666
12855W        W83455  24.916  14.193   4.602
12856W        W83456  27.778   9.807   2.706
12857W        W83457   9.231   6.913   2.755
12858W        W83458   1.810   4.902   4.510
12859W        W83459  20.983  44.956  14.478
12860W        W83460  11.863  23.710  12.106
12861W        W83461  13.011   9.905  11.942
12862W        W83462  29.592  10.714   2.323
12863W        W83463  16.834  19.091   3.208
12864W        W83464   0.395  22.937  14.501
12865W        W83465  40.993   1.871   4.567
12866W        W83466  35.434  41.271  13.425
12867W        W83467   8.247  24.307   1.669
12868W        W83468   7.370  30.795   5.020
12869W        W83469  20.577  16.845  12.923
12870W        W83470  19.938   6.756  11.125
12871W        W83471   9.330  44.978   0.260
12872W        W83472  14.010  14.392   1.092
12873W        W83473  38.899  30.047   1.983
12874W        W83474  18.530  41.294   2.308
12875W        W83475  39.979  42.857  13.427
12876W        W83476   6.276  10.324   4.518
12877W        W83477   0.317  13.092   4.085
12878W        W83478  29.191  36.170  12.814
12879W        W83479  37.619  32.443  13.892
12880W        W83480   3.488  16.430   3.100
12881W        W83481   3.749  30.913  13.982
12882W        W83482  28.385   9.708  11.990
12883W        W83483  31.373  23.416  14.766
12884W        W83484   7.144   1.498  12.455
12885W        W83485  33.852  42.317   2.727
12886W        W83486   3.169  40.885  11.249
12887W        W83487  14.024  40.844   9.840
12888W        W83488   9.798  19.262   4.743
12889W        W83489  20.727   7.705  11.549
12890W        W83490  35.934  20.205  13.513
12891W        W83491   3.187  34.509   2.264
12892W        W83492  24.431  30.593   4.597
12893W        W83493  10.258  12.100   3.160
12894W        W83494  36.658   2.784   2.831
12895W        W83495  21.657  20.207  10.717
12896W        W83496  41.290  33.424  14.719
12897W        W83497  22.358  43.504  13.743
12898W        W83498   6.281  37.812  11.541
12899W        W83499  39.677   6.185  13.432
12900W        W83500  18.108  41.046   3.169
12901W        W83501   2.687  32.992  14.889
12902W        W83502   8.240  23.979   0.388
12903W        W83503   5.824  14.233   4.548
12904W        W83504  40.539  12.810  11.628
12905W        W83505   0.436  25.664  11.484
12906W        W83506  14.586   3.407   0.956
12907W        W83507  42.814  27.936  10.640
12908W        W83508  25.282   0.806  13.480
12909W        W83509  11.326  37.572   2.665
12910W        W83510   0.718  31.151   2.290
12911W        W83511  37.478  43.356   4.971
12912W        W83512  37.921  16.875   1.683
12913W        W83513  10.307  44.763  10.741
12914W        W83514  42.326  17.862   0.645
12915W        W83515  15.571  30.115  10.423
12916W        W83516  31.802  15.853  14.166
12917W        W83517   6.661  16.695  12.086
12918W        W83518   9.090  17.163  12.454
12919W        W83519   5.883   1.662   3.243
12920W        W83520  13.158  33.429  12.959
12921W        W83521  11.175  31.620  12.277
12922W        W83522  41.406  39.230  10.896
12923W        W83523   7.975  44.351   1.873
12924W        W83524  20.104   5.636  13.996
12925W        W83525   8.230  34.026  13.461
12926W        W83526  23.048  35.447   0.856
12927W        W83527  32.019  16.288  13.927
12928W        W83528   2.647   3.178  14.696
12929W        W83529  42.214  25.963   0.667
12930W        W83530  36.884  11.594  11.846
12931W        W83531   5.191  34.986   3.179
12932W        W83532  20.340   7.186   4.699
12933W        W83533  37.960   2.459   0.252
12934W        W83534  19.573  10.182  13.491
12935W        W83535  30.860   2.052   0.782
12936W        W83536  28.233   7.756  14.231
12937W        W83537   6.373   2.709   3.901
12938W        W83538  30.997  33.567   0.845
12939W        W83539  34.470  33.811  14.419
12940W        W83540  42.852  35.674  14.039
12941W        W83541  28.941   8.926  13.950
12942W        W83542  30.179  41.011   3.496
12943W        W83543   7.828  44.691   4.583
12944W        W83544  25.610  13.204   3.684
12945W        W83545   9.762   8.878  14.603
12946W        W83546  20.174  20.559  13.830
12947W        W83547  37.021  43.767  10.620
12948W        W83548  25.107  30.053  11.882
12949W        W83549  11.921  44.874   3.274
12950W        W83550  41.533   3.314  10.699
12951W        W83551   8.661  35.119  10.896
12952W        W83552  29.730  28.951   2.250
12953W        W83553  13.288  38.511   2.747
12954W        W83554  34.074  28.465  12.035
12955W        W83555  36.581  39.950   2.129
12956W        W83556   0.612  15.321  12.030
12957W        W83557  29.660  15.040  11.452
12958W        W83558  22.515  18.290   3.785
12959W        W83559  15.718  26.686   4.645
12960W        W83560  38.624  16.817  12.019
12961W        W83561  19.569  32.935  13.418
12962W        W83562  20.978  30.621  14.917
12963W        W83563  31.467  37.329   3.427
12964W        W83564  28.976  22.049  11.197
12965W        W83565  33.891  25.482   1.396
12966W        W83566  41.914  26.695   2.206
12967W        W83567  38.574   7.798   0.509
12968W        W83568  19.251  39.239  14.338
12969W        W83569  39.999  26.956   1.824
12970W        W83570  38.947  18.135  14.384
12971W        W83571   3.459  44.969   0.574
12972W        W83572   8.609  18.647   0.442
12973W        W83573  16.289  15.328   1.622
12974W        W83574  25.589  27.864  11.001
12975W        W83575  14.434  26.449   2.742
12976W        W83576  29.218  29.099   3.108
12977W        W83577  22.495  33.609  10.586
12978W        W83578   2.366  36.018  12.494
12979W        W83579  42.040   8.230   2.192
12980W        W83580  16.847  41.222   1.241
12981W        W83581   7.186  22.778  12.551
12982W        W83582  25.734  11.152  11.472
12983W        W83583  37.450  17.033   3.201
12984W        W83584  32.482  18.376   2.844
12985W        W83585   1.151  30.689   0.759
12986W        W83586  15.752  16.352   1.929
12987W        W83587  30.683  17.875   4.110
12988W        W83588  21.354  10.175  10.851
12989W        W83589   7.862   7.617   0.252
12990W        W83590  44.663  30.759   3.546
12991W        W83591   0.466  17.518   1.655
12992W        W83592  37.051   6.294   5.033
12993W        W83593  44.837  18.375  14.308
12994W        W83594  20.256  11.761  10.243
12995W        W83595   1.399  17.782   2.630
12996W        W83596  43.805  10.372   4.750
12997W        W83597  39.869  31.166  11.441
12998W        W83598   1.002  16.850   2.711
12999W        W83599  14.357  25.701  14.138
13000W        W83600  40.391  12.924  10.279
13001W        W83601  17.295  41.218   0.421
13002W        W83602  28.070  41.864   2.803
13003W        W83603   0.322  26.702   3.686
13004W        W83604  37.356  44.116  10.363
13005W        W83605  23.998  38.826   4.503
13006W        W83606  11.695  14.624  14.243
13007W        W83607  14.890  29.672  11.817
13008W        W83608   6.493   4.671   2.303
13009W        W83609  26.520  22.770   1.405
13010W        W83610   7.377  16.945  14.366
13011W        W83611  29.196  15.709  14.545
13012W        W83612  10.247  24.153   0.358
13013W        W83613  22.667  18.363   4.733
13014W        W83614   0.345   9.734  11.654
13015W        W83615  28.419  39.487   5.086
13016W        W83616  11.650  38.803  12.607
13017W        W83617  13.792  33.597  13.852
13018W        W83618  34.645  44.088  11.063
13019W        W83619  31.130   5.714  13.562
13020W        W83620  28.364   2.504   3.129
13021W        W83621  26.177  12.657  13.752
13022W        W83622  41.804  41.878   0.834
13023W        W83623  23.661   1.294   4.538
13024W        W83624  42.232   0.819  12.831
13025W        W83625  31.845  44.678   3.183
13026W        W83626  24.960  42.775  12.936
13027W        W83627  40.969  43.951  11.895
13028W        W83628  11.851  33.907   1.425
13029W        W83629  43.712  18.329   2.376
13030W        W83630  20.152  40.284  14.538
13031W        W83631   1.898   8.883   4.652
13032W        W83632  12.979   2.486  12.602
13033W        W83633  22.268  12.183   4.142
13034W        W83634   4.221  34.349  10.016
13035W        W83635   3.394  28.289   3.675
13036W        W83636  38.015  38.499  10.683
13037W        W83637  16.267  31.008   0.257
13038W        W83638  15.795   1.640   4.870
13039W        W83639   1.897  14.608  14.845
13040W        W83640  24.518  41.283   2.664
13041W        W83641  35.134   7.363  10.739
13042W        W83642  30.153  26.924  12.034
13043W        W83643  12.701  31.052  11.833
13044W        W83644  14.951   8.731  10.765
13045W        W83645  42.399  22.891   3.029
13046W        W83646  40.757   7.272   3.688
13047W        W83647  16.743   9.856   3.665
13048W        W83648  19.269  22.020   3.843
13049W        W83649   2.420  24.350   0.993
13050W        W83650  43.813  27.791   4.913
13051W        W83651   4.996  41.000  11.012
13052W        W83652  17.073  32.962   0.798
13053W        W83653  10.674   9.376  10.706
13054W        W83654   8.299  19.304  14.661
13055W        W83655  13.735   9.185   3.789
13056W        W83656  35.940   1.642   1.939
13057W        W83657  33.079  39.052  10.756
13058W        W83658  39.054  21.116   0.843
13059W        W83659  11.703  44.567   0.302
13060W        W83660  15.997   6.775   3.803
13061W        W83661  44.871  27.003  10.694
13062W        W83662  10.799  31.036  14.815
13063W        W83663  33.249  36.411  14.831
13064W        W83664  13.220  20.433  12.020
13065W        W83665  25.776  42.416  13.506
13066W        W83666   5.830  15.333  14.277
13067W        W83667  23.067  35.088  10.577
13068W        W83668  34.624  34.551  12.455
13069W        W83669  33.894   9.187  11.601
13070W        W83670  34.910  31.703  14.224
13071W        W83671   4.542   6.028   4.564
13072W        W83672  14.232  16.842   0.014
13073W        W83673  18.037   6.931  14.500
13074W        W83674  37.102  24.497  12.112
13075W        W83675  18.160   8.425   1.337
13076W        W83676  36.538   3.982   3.118
13077W        W83677  21.737  36.432  12.638
13078W        W83678  36.145   6.258  14.452
13079W        W83679  12.086   5.443  11.944
13080W        W83680  11.901   5.350   3.693
13081W        W83681  40.807  27.563   4.067
13082W        W83682  38.827  24.106   3.675
13083W        W83683   9.388  30.690  14.539
13084W        W83684  44.558   8.161   1.267
13085W        W83685  32.867  31.051   4.184
13086W        W83686  38.254  36.062   4.692
13087W        W83687  43.802  25.639  14.911
13088W        W83688  38.790  33.160   3.784
13089W        W83689  19.638  39.553  14.533
13090W        W83690   2.414  13.057  11.360
13091W        W83691  20.755  12.759  14.071
13092W        W83692  27.629  44.182   5.116
13093W        W83693   2.847  44.988   4.673
13094W        W83694  30.775  12.101  12.455
13095W        W83695  35.830  42.100  11.448
13096W        W83696   3.860  28.419   2.682
13097W        W83697  35.875  38.442   4.789
13098W        W83698  20.829  24.642  12.039
13099W        W83699  23.612  27.406  13.105
13100W        W83700  13.105  26.649   1.424
13101W        W83701  16.795   6.437  13.889
13102W        W83702  20.662  36.319  11.663
13103W        W83703  13.282  25.528   0.500
13104W        W83704  40.854  30.785  13.056
13105W        W83705  29.978  31.585  12.554
13106W        W83706  26.171  20.157  13.477
13107W        W83707   1.996   2.320   3.749
13108W        W83708  31.208   5.765   1.060
13109W        W83709  14.175   6.086  14.927
13110W        W83710   3.479   3.198  13.898
13111W        W83711  34.150  11.355   2.290
13112W        W83712  35.090   2.451   3.274
13113W        W83713  40.486  13.820   1.267
13114W        W83714  18.320  30.465   0.805
13115W        W83715  40.068  40.047  14.868
13116W        W83716  27.945  32.719   4.129
13117W        W83717  37.766  42.017   3.659
13118W        W83718  30.028   3.251   2.945
13119W        W83719  32.175   7.633   1.962
13120W        W83720   6.372  36.868   3.248
13121W        W83721  22.818  40.937   4.607
13122W        W83722  34.489  34.398   4.661
13123W        W83723  22.954  15.361  14.690
13124W        W83724  22.559  38.641  14.392
13125W        W83725  16.599  27.572   3.702
13126W        W83726   1.902   1.549   2.750
13127W        W83727   6.704  43.838  14.559
13128W        W83728  22.501  22.743   2.868
13129W        W83729   3.614  23.691   1.743
13130W        W83730  30.157  13.063   3.708
13131W        W83731  14.429   0.918   2.661
13132W        W83732  12.099  30.159   2.777
13133W        W83733  27.698  20.145  11.170
13134W        W83734  33.563  10.154  11.152
13135W        W83735  22.015  34.904   0.396
13136W        W83736  35.556  19.929  14.410
13137W        W83737  31.518  42.830  14.326
13138W        W83738  36.099  36.378  13.355
13139W        W83739  29.094  13.634   3.143
13140W        W83740  31.306  44.552   3.954
13141W        W83741  40.629   2.501  13.866
13142W        W83742  35.091  21.589   4.075
13143W        W83743  33.654  28.974   0.324
13144W        W83744  34.384  10.260  11.503
13145W        W83745  42.390  42.270   0.899
13146W        W83746  32.424   4.410  13.383
13147W        W83747  12.688  13.915   3.055
13148W        W83748  14.633  44.523   5.535
13149W        W83749  13.843  32.126  10.622
13150W        W83750  15.158   9.641  12.679
13151W        W83751   9.211  20.458   0.537
13152W        W83752  16.446  20.800   1.363
13153W        W83753   3.492  35.815   1.000
13154W        W83754  30.398  20.299   1.838
13155W        W83755  28.945   7.417   4.727
13156W        W83756   5.585   3.390  12.016
13157W        W83757   0.423  10.727  14.858
13158W        W83758  24.129  31.263   4.524
13159W        W83759   2.000   4.487   3.164
13160W        W83760  22.486  21.261   3.683
13161W        W83761  14.255  34.257   4.182
13162W        W83762  12.808  23.889  11.648
13163W        W83763  43.145  28.194  12.676
13164W        W83764   4.883   2.832   1.930
13165W        W83765  44.523  40.578  11.750
13166W        W83766  41.001  39.776   1.645
13167W        W83767  21.384   5.585   1.324
13168W        W83768  13.500  44.187   1.953
13169W        W83769  38.821   1.325   4.213
13170W        W83770  44.198  18.127   2.275
13171W        W83771   3.329  12.778  12.525
13172W        W83772  39.828  38.080   2.704
13173W        W83773   7.237  29.250  13.515
13174W        W83774  32.334  16.311   2.973
13175W        W83775  18.446  40.294   0.728
13176W        W83776  23.894   5.202   0.444
13177W        W83777  11.566  14.902  10.697
13178W        W83778  33.198  26.740  14.118
13179W        W83779  14.381  22.282   2.858
13180W        W83780  44.859  31.849   1.480
13181W        W83781  19.511   0.199   3.084
13182W        W83782  34.895   3.498  14.964
13183W        W83783   8.098  38.495   2.935
13184W        W83784   8.606  12.815  11.364
13185W        W83785  44.450   4.920  12.426
13186W        W83786   1.319   0.928  14.370
13187W        W83787   4.349  42.011   2.380
13188W        W83788   8.395  36.873  11.623
13189W        W83789  19.213  22.204   1.360
13190W        W83790  30.260   5.802   1.293
13191W        W83791   0.854   7.285   4.418
13192W        W83792   5.875  43.703  10.987
13193W        W83793   1.884  21.014  10.124
13194W        W83794  18.194  44.541   3.085
13195W        W83795  22.126  33.162   1.026
13196W        W83796  27.243  25.682  13.128
13197W        W83797  29.594  38.081   4.476
13198W        W83798  33.838  37.100   2.220
13199W        W83799   1.240  30.967   2.686
13200W        W83800   0.683  20.554  14.067
13201W        W83801  31.209   6.232   4.147
13202W        W83802   6.184  24.819  12.573
13203W        W83803  29.661  34.558  11.550
13204W        W83804  28.886  27.554   1.287
13205W        W83805  35.644  23.520   0.780
13206W        W83806  26.140  20.206   0.083
13207W        W83807  21.745  39.993  11.614
13208W        W83808  14.498  24.373  12.679
13209W        W83809  24.053  27.410  12.146
13210W        W83810   9.669   7.285   4.723
13211W        W83811  35.162  31.075   2.710
13212W        W83812  25.680  22.642   0.816
13213W        W83813  26.141  24.477   2.799
13214W        W83814  14.124   8.978  12.264
13215W        W83815  29.965  31.384   0.895
13216W        W83816  10.540  12.925   3.162
13217W        W83817  42.102  27.623  12.942
13218W        W83818  38.579   0.373   2.357
13219W        W83819  28.962  38.257   4.083
13220W        W83820  21.246  35.768   1.242
13221W        W83821  42.593  20.963   0.095
13222W        W83822   1.779  15.319   1.739
13223W        W83823  38.326  43.066   0.997
13224W        W83824  26.177   2.845  11.526
13225W        W83825  42.752  35.571   2.874
13226W        W83826  15.374   2.978  13.924
13227W        W83827   2.849  11.559   4.838
13228W        W83828  35.995  33.920   0.288
13229W        W83829   1.227  26.778  13.820
13230W        W83830  39.079  34.050   3.426
13231W        W83831  38.057  39.886  11.838
13232W        W83832  35.649  25.167  14.510
13233W        W83833  11.390  29.733  14.488
13234W        W83834  29.975   3.417   0.149
13235W        W83835   0.142  36.959  13.091
13236W        W83836  14.754  38.983   1.286
13237W        W83837  15.825  11.595   0.832
13238W        W83838  13.133  17.561  12.490
13239W        W83839  31.146  15.886   2.508
13240W        W83840  42.815  23.207   2.433
13241W        W83841  36.419  44.512  14.176
13242W        W83842   6.961  44.457   1.447
13243W        W83843  10.608  28.374  10.707
13244W        W83844  32.479  44.298  12.470
13245W        W83845  12.702  36.054   3.621
13246W        W83846  31.113  14.618   1.354
13247W        W83847  13.612   9.353  13.863
13248W        W83848   5.363  38.632   2.666
13249W        W83849  32.848   5.638  13.399
13250W        W83850   7.803  15.572  14.987
13251W        W83851  37.698   7.147  14.886
13252W        W83852  39.633   6.804   2.866
13253W        W83853  29.672  43.009  13.365
13254W        W83854   6.709  33.125  13.463
13255W        W83855  15.320  26.207  12.602
13256W        W83856  29.064   9.396  12.661
13257W        W83857  10.421   0.452  13.822
13258W        W83858  38.538  40.986  12.319
13259W        W83859  16.633   9.099  11.657
13260W        W83860  31.167  27.449  13.842
13261W        W83861  20.778  12.935  12.862
13262W        W83862  27.218   1.701  12.314
13263W        W83863  28.324   2.512  11.235
13264W        W83864  33.860   4.273   2.642
13265W        W83865  36.008  27.311  14.084
13266W        W83866  24.992  43.205  11.108
13267W        W83867  26.176  33.052  12.586
13268W        W83868  31.601  23.212  11.208
13269W        W83869   7.582  43.293   2.297
13270W        W83870  27.137  28.236   0.761
13271W        W83871  44.755   5.695  14.041
13272W        W83872  16.286  17.103   4.547
13273W        W83873  39.384  25.915   3.087
13274W        W83874  32.384   8.964  10.906
13275W        W83875  10.134   4.975   0.681
13276W        W83876  20.824  43.943   0.435
13277W        W83877  20.731  21.234  10.801
13278W        W83878  21.973  16.054  12.020
13279W        W83879  43.041  14.349   1.816
13280W        W83880  20.859  14.642  14.467
13281W        W83881  36.454   3.309   0.404
13282W        W83882  28.930   3.324   2.209
13283W        W83883   4.730  10.999   0.491
13284W        W83884  34.782  26.156   3.637
13285W        W83885   5.133   4.779  11.016
13286W        W83886  38.847  14.290  10.643
13287W        W83887  42.773  21.079   3.604
13288W        W83888  21.606  23.282   1.793
13289W        W83889  32.803  23.668  13.007
13290W        W83890  33.415  16.693   4.186
13291W        W83891  18.281  20.031   5.029
13292W        W83892   2.658  12.433  11.554
13293W        W83893  17.358  44.953   1.286
13294W        W83894  13.280  43.984  12.363
13295W        W83895  17.110  16.131  13.918
13296W        W83896  24.391   9.418  10.309
13297W        W83897   9.160   9.288  13.540
13298W        W83898  17.715  39.915   3.704
13299W        W83899   5.372   1.511   1.871
13300W        W83900  32.785  22.379   2.820
13301W        W83901  14.116  20.846  13.817
13302W        W83902  30.216  34.726  10.993
13303W        W83903   0.210   4.758  11.951
13304W        W83904  22.537  43.192   4.597
13305W        W83905  38.972  21.907   1.127
13306W        W83906   4.001  38.980  12.966
13307W        W83907  39.602  30.400  11.437
13308W        W83908  18.710   0.526   4.042
13309W        W83909   2.506   6.727  14.564
13310W        W83910  25.995  17.780   0.973
13311W        W83911   2.252  12.235  13.882
13312W        W83912  17.258  13.596   3.446
13313W        W83913  24.876  40.977   0.388
13314W        W83914   7.946   7.582  14.308
13315W        W83915  20.998  26.613   1.239
13316W        W83916   1.753  29.166  12.079
13317W        W83917  32.015  36.027  10.970
13318W        W83918  44.996  23.124   1.358
13319W        W83919   9.657  43.139  11.532
13320W        W83920  41.937  40.096  14.062
13321W        W83921  10.819  40.071   2.861
13322W        W83922  16.730  30.490   0.466
13323W        W83923  29.376   8.876  12.018
13324W        W83924  32.915  16.745   2.677
13325W        W83925  20.426  19.724  11.260
13326W        W83926  44.951  36.799  10.655
13327W        W83927  37.016  37.015  11.259
13328W        W83928   0.353  15.632  12.449
13329W        W83929  14.940  12.699  10.827
13330W        W83930   9.775  40.606  13.935
13331W        W83931  42.738  33.382  12.183
13332W        W83932  13.686  16.429   0.345
13333W        W83933  34.665   9.354  11.940
13334W        W83934  33.059  20.984   4.614
13335W        W83935  28.809  16.273   4.630
13336W        W83936  19.652  18.621   2.299
13337W        W83937   9.925  30.960  13.999
13338W        W83938  20.309  27.072  11.629
13339W        W83939  29.873  42.055  14.747
13340W        W83940  16.783  29.891   2.291
13341W        W83941  24.443  34.019   0.827
13342W        W83942  14.757  42.831  13.543
13343W        W83943  16.836  25.567   1.227
13344W        W83944  29.931  22.619  13.594
13345W        W83945  39.618  12.795  13.384
13346W        W83946  24.621  11.939   4.819
13347W        W83947  13.366  24.519  11.005
13348W        W83948  27.016  22.043   4.198
13349W        W83949   8.432   7.130   2.326
13350W        W83950  32.467  29.865  10.655
13351W        W83951  41.435  36.014   0.687
13352W        W83952  28.941  38.012  10.623
13353W        W83953  29.567   3.338  11.608
13354W        W83954  19.189  11.871   3.643
13355W        W83955   3.911  28.760  12.937
13356W        W83956  26.277  18.656  10.499
13357W        W83957  40.006  23.176   1.201
13358W        W83958  36.915   1.394  13.374
13359W        W83959   1.368  35.525  10.764
13360W        W83960  23.591   5.443  12.906
13361W        W83961   5.233  31.508   4.546
13362W        W83962  36.202  31.971   3.541
13363W        W83963  18.564  18.339  14.223
13364W        W83964  11.364  37.160   3.511
13365W        W83965  26.706   3.792  11.967
13366W        W83966  35.751   5.203  11.173
13367W        W83967  23.699  15.389   1.755
13368W        W83968  30.316  10.135  14.448
13369W        W83969  26.982  18.073  10.738
13370W        W83970  42.029  32.894   4.708
13371W        W83971  24.031  26.460  13.880
13372W        W83972  33.896   9.639   1.403
13373W        W83973  28.773  20.198   4.772
13374W        W83974   9.691  22.079   0.648
13375W        W83975  25.935  30.440   3.305
13376W        W83976   5.723   4.290   2.095
13377W        W83977   8.411  28.015   2.564
13378W        W83978  43.941   1.744  11.832
13379W        W83979  30.638  23.073   3.445
13380W        W83980  36.805  21.000  14.925
13381W        W83981  39.737  35.921   3.683
13382W        W83982   9.740  28.221   2.349
13383W        W83983  13.224  31.577  11.822
13384W        W83984   1.999  18.263  12.676
13385W        W83985  10.547  40.284   2.451
13386W        W83986  19.552  16.026   1.454
13387W        W83987   6.409  40.526  10.988
13388W        W83988  13.183  17.126   2.386
13389W        W83989  42.000  35.208  12.958
13390W        W83990   2.857  20.752   0.791
13391W        W83991   6.348   6.752   0.451
13392W        W83992  22.911  37.419   4.761
13393W        W83993  13.211  16.313  11.941
13394W        W83994  23.243  21.631  11.728
13395W        W83995  39.397  14.785  14.362
13396W        W83996  21.181  29.395  12.916
13397W        W83997  32.434  15.685   4.082
13398W        W83998  28.439  31.970   5.031
13399W        W83999  42.981  12.362  12.844
13400W        W84000  17.353  39.090   4.171
13401W        W84001  36.379  17.694  10.779
13402W        W84002  13.678  13.089   4.445
13403W        W84003   9.229  39.427  10.366
13404W        W84004  41.559  21.820  13.867
13405W        W84005   4.750  10.503   3.132
13406W        W84006  40.121  12.754  13.425
13407W        W84007  26.916  16.739   1.964
13408W        W84008  34.723   6.556  14.503
13409W        W84009  34.435   2.311  14.492
13410W        W84010  17.660  13.364   1.706
13411W        W84011  34.476  34.904   0.338
13412W        W84012  20.603   3.483   1.154
13413W        W84013  12.075  15.804  11.235
13414W        W84014   2.513  15.857   4.062
13415W        W84015  32.182  37.938  14.707
13416W        W84016  10.637  16.292   3.588
13417W        W84017  43.738  44.753  13.485
13418W        W84018  37.774  23.674  11.967
13419W        W84019   2.362   0.314  10.446
13420W        W84020  25.161   3.759  12.920
13421W        W84021   7.759  19.632   3.319
13422W        W84022  38.787  34.954   1.806
13423W        W84023  23.759   9.627  13.951
13424W        W84024  32.517  41.330  11.574
13425W        W84025  35.866  28.374  11.660
13426W        W84026  37.019  19.750   1.692
13427W        W84027   6.536  38.103   0.795
13428W        W84028  39.546  21.115  10.931
13429W        W84029  10.091  13.737   2.755
13430W        W84030  32.625   1.704   3.756
13431W        W84031  43.178  28.244  12.132
13432W        W84032  22.765   7.809   0.736
13433W        W84033  38.508  34.895  10.671
13434W        W84034   9.796  43.509  13.074
13435W        W84035  41.812  30.479  14.224
13436W        W84036  16.828  36.819  13.002
13437W        W84037  15.843  43.886  14.961
13438W        W84038   0.467  24.212  11.612
13439W        W84039  44.130   5.219   2.697
13440W        W84040  22.284  30.637  13.446
13441W        W84041  16.179  19.024  11.183
13442W        W84042  33.480  25.597   4.623
13443W        W84043  23.577  44.255   3.615
13444W        W84044   9.305   4.837  11.686
13445W        W84045  33.445  19.759  14.456
13446W        W84046   7.231  23.505   2.835
13447W        W84047  36.446  16.105  13.006
13448W        W84048   5.700  26.583   4.234
13449W        W84049  40.911  19.147  13.767
13450W        W84050  26.718  28.978  14.258
13451W        W84051   7.361  33.481  13.911
13452W        W84052  21.141  33.571  11.623
13453W        W84053   7.776   1.862   0.118
13454W        W84054  18.157  41.854   1.394
13455W        W84055   4.414  24.743  11.258
13456W        W84056  19.286  36.812   2.667
13457W        W84057  43.944  18.646  12.079
13458W        W84058  17.400  30.411   2.293
13459W        W84059   5.783   2.628  10.700
13460W        W84060  44.713   8.660  10.978
13461W        W84061  43.448  30.593  14.064
13462W        W84062   5.821   4.586  14.152
13463W        W84063   9.211  13.499   2.648
13464W        W84064  14.799  31.734   2.656
13465W        W84065  10.855  33.823  14.743
13466W        W84066  22.050  12.050  11.597
13467W        W84067   5.856  29.222  12.361
13468W        W84068  16.035   3.348   3.565
13469W        W84069  30.538  42.726   3.468
13470W        W84070  20.986  24.638   2.518
13471W        W84071  34.616  28.621   0.482
13472W        W84072  15.322   0.719  14.878
13473W        W84073  21.569  11.240   0.734
13474W        W84074  29.591  18.307   0.162
13475W        W84075  32.021  27.688  11.234
13476W        W84076  14.927   1.835  14.331
13477W        W84077   0.908  17.908   0.961
13478W        W84078  20.739   6.151  14.414
13479W        W84079  11.248  26.683   2.617
13480W        W84080  23.961  44.355   3.239
13481W        W84081   4.945   1.890   0.263
13482W        W84082  38.855   4.419   1.811
13483W        W84083  17.643  17.587   2.555
13484W        W84084   8.778  39.277   4.959
13485W        W84085  39.496   1.529   0.901
13486W        W84086  22.435  41.534   0.388
13487W        W84087  16.238  33.414  10.006
13488W        W84088  10.919  31.228  13.839
13489W        W84089  34.877   7.461   1.909
13490W        W84090   1.380  42.318  12.613
13491W        W84091  13.775  18.045  13.936
13492W        W84092  33.070   7.008   0.241
13493W        W84093  19.935  24.171  10.622
13494W        W84094  12.651   2.826   1.465
13495W        W84095  44.767  10.329   3.281
13496W        W84096  31.509  10.708   1.788
13497W        W84097  24.614  43.395   1.518
13498W        W84098   5.068  32.943   4.424
13499W        W84099   7.359  40.704  13.388
13500W        W84100  24.283  19.081   4.340
13501W        W84101  20.907  13.861   1.288
13502W        W84102  26.592  44.806  10.899
13503W        W84103  27.694  13.231  14.822
13504W        W84104  12.091  20.201   1.350
13505W        W84105  19.536  32.096  12.915
13506W        W84106  38.020   2.094  12.879
13507W        W84107  14.151  26.397  14.961
13508W        W84108  27.451  31.957  10.680
13509W        W84109  44.382  14.220   3.130
13510W        W84110  19.723   4.931  11.010
13511W        W84111  26.222  30.059  10.669
13512W        W84112   2.335  40.905   0.779
13513W        W84113  32.856  30.815  14.726
13514W        W84114   4.843  28.441  14.193
13515W        W84115   2.504   0.273  14.650
13516W        W84116  28.941  39.513   9.841
13517W        W84117   5.436  19.187   0.692
13518W        W84118  29.496  27.904  12.990
13519W        W84119  40.081   7.712   3.279
13520W        W84120  29.480  30.964  10.508
13521W        W84121  32.177   1.406   4.812
13522W        W84122  15.938   8.920   0.462
13523W        W84123  43.257  15.089   3.375
13524W        W84124  20.252  16.854  12.522
13525W        W84125  13.825  27.931   1.825
13526W        W84126  41.930  17.526   0.461
13527W        W84127  26.423  24.773   0.492
13528W        W84128  14.947  17.368  12.124
13529W        W84129  44.233  28.988   2.825
13530W        W84130  22.953  36.955   0.544
13531W        W84131  21.109  22.249   1.484
13532W        W84132  34.815  24.286   4.143
13533W        W84133  41.270   0.823   0.323
13534W        W84134  15.254  33.960   0.009
13535W        W84135  36.003   2.679  14.294
13536W        W84136   2.206  29.762  10.163
13537W        W84137  38.420  14.556  14.711
13538W        W84138   5.273   6.727   0.360
13539W        W84139  36.142   9.729  13.599
13540W        W84140  42.589  19.179  12.607
13541W        W84141  10.209  22.588  11.318
13542W        W84142  37.319   7.403   3.831
13543W        W84143  11.436  19.027  13.622
13544W        W84144  32.455  26.350   0.245
13545W        W84145  22.995   1.841   2.584
13546W        W84146  39.645  23.444   4.218
13547W        W84147  12.858   7.174   1.171
13548W        W84148  41.323   2.920   1.416
13549W        W84149  16.033  30.974   1.249
13550W        W84150   3.742   2.784   2.138
13551W        W84151  29.741  40.961   3.187
13552W        W84152  34.975  30.277   4.603
13553W        W84153  36.280  23.591  11.135
13554W        W84154   9.273  26.062  12.683
13555W        W84155  21.296  22.318  14.273
13556W        W84156   8.251  14.644   4.019
13557W        W84157   5.844  37.510   2.811
13558W        W84158  22.649   5.207   3.168
13559W        W84159  23.077  24.797  13.573
13560W        W84160   8.186  37.112   2.258
13561W        W84161  32.587  40.945  12.432
13562W        W84162   4.184  14.569   1.822
13563W        W84163  14.807  38.033  14.042
13564W        W84164  33.529  30.607  13.759
13565W        W84165  33.024  43.260   1.098
13566W        W84166  12.868  24.557   0.320
13567W        W84167  20.237  29.675  13.790
13568W        W84168  35.037  37.659  14.898
13569W        W84169  25.179  29.705   3.134
13570W        W84170   3.964  34.981  12.442
13571W        W84171  43.867  19.163  14.056
13572W        W84172  17.602   3.780  10.756
13573W        W84173  44.181  11.139  13.823
13574W        W84174  18.580  32.560   2.675
13575W        W84175  23.124   8.148   0.195
13576W        W84176   4.975  19.684  14.037
13577W        W84177  17.934  37.620  12.395
13578W        W84178  27.668  17.646  13.025
13579W        W84179  31.469  14.112   0.811
13580W        W84180  32.019  44.764  13.974
13581W        W84181  33.563  17.874  10.662
13582W        W84182  17.874  12.773  13.544
13583W        W84183   5.283  11.708   0.328
13584W        W84184  18.057  39.447   4.121
13585W        W84185  10.979  29.569   3.406
13586W        W84186  31.553  26.548   4.435
13587W        W84187  30.502  34.195   4.645
13588W        W84188  30.061  25.689  10.948
13589W        W84189   2.157   5.853  12.126
13590W        W84190  34.567  22.444  11.629
13591W        W84191  36.291   6.629  12.087
13592W        W84192  43.284  43.962   1.855
13593W        W84193  28.959  25.237   0.903
13594W        W84194  43.220   1.735   0.838
13595W        W84195  22.759  12.223   4.297
13596W        W84196  17.379  36.458   5.281
13597W        W84197  15.636   3.750  12.942
13598W        W84198  38.089  37.920   0.458
13599W        W84199  13.583  17.824  12.192
13600W        W84200  39.065  44.660  11.804
13601W        W84201   6.010  17.216   4.872
13602W        W84202   2.506   6.439   4.081
13603W        W84203  33.578  31.964   2.015
13604W        W84204  26.374  23.852  13.447
13605W        W84205  30.171   3.405  11.927
13606W        W84206  39.484  32.478  12.664
13607W        W84207  25.945   1.688   1.655
13608W        W84208  42.037  10.689   2.691
13609W        W84209  27.510  27.241   1.272
13610W        W84210  38.039   8.742  13.474
13611W        W84211  19.139  18.123   2.688
13612W        W84212  34.878   0.951  14.327
13613W        W84213  14.007  16.139   3.692
13614W        W84214   0.314  42.365   0.223
13615W        W84215  16.714  32.868  13.120
13616W        W84216  14.288  32.459  12.527
13617W        W84217  11.190  31.975  14.071
13618W        W84218  11.718  36.501  11.773
13619W        W84219  31.965  35.546   1.769
13620W        W84220  29.224  24.206   0.381
13621W        W84221  15.658  15.834   1.880
13622W        W84222  24.284  15.762  13.904
13623W        W84223  40.731  41.368  14.699
13624W        W84224   5.975  44.521   4.984
13625W        W84225  34.894  37.886   3.339
13626W        W84226  26.087   4.899  13.102
13627W        W84227  21.186  14.175  13.059
13628W        W84228  12.460  24.501   3.931
13629W        W84229  38.846  41.922  10.622
13630W        W84230  29.494  12.688  13.428
13631W        W84231  36.076  35.445   1.309
13632W        W84232  24.047   2.042   3.151
13633W        W84233  11.082  18.270   0.188
13634W        W84234  21.001  33.179   1.369
13635W        W84235  15.632   3.681  14.055
13636W        W84236  31.093  12.112   2.705
13637W        W84237  27.184  23.957  14.631
13638W        W84238  28.413   5.876   0.775
13639W        W84239  26.634  14.455   4.584
13640W        W84240  34.114   2.359  14.972
13641W        W84241  44.585  16.488   3.995
13642W        W84242  19.135  11.515  11.602
13643W        W84243   0.626  35.622  12.081
13644W        W84244  21.871  22.142  12.048
13645W        W84245  15.576  18.556  10.726
13646W        W84246  19.769   4.883   5.016
13647W        W84247   7.889  10.397   0.614
13648W        W84248  34.045  40.390  11.977
13649W        W84249  38.399  32.889  14.914
13650W        W84250   7.936  34.422   3.180
13651W        W84251  28.979  35.064   3.699
13652W        W84252  23.537  21.594   1.322
13653W        W84253  10.283  33.620  12.977
13654W        W84254   5.173  40.073   4.600
13655W        W84255  44.884  14.424   1.468
13656W        W84256  38.861  32.734   3.471
13657W        W84257  40.102   0.205   3.799
13658W        W84258  10.181  39.750  13.039
13659W        W84259  17.728  13.763   3.700
13660W        W84260   1.724  15.256   2.394
13661W        W84261  40.062  17.337  11.177
13662W        W84262  40.050  16.197   3.559
13663W        W84263  38.442  26.047  14.639
13664W        W84264  23.025   1.910  14.396
13665W        W84265  24.244  34.639  11.670
13666W        W84266  14.292   4.828   0.390
13667W        W84267  11.172  40.052   4.598
13668W        W84268  38.946  30.636   0.991
13669W        W84269  37.321   6.828   1.445
13670W        W84270  33.605  30.146  11.934
13671W        W84271  22.003  14.926   0.592
13672W        W84272   0.654  29.490  11.817
13673W        W84273  39.442  37.213  11.599
13674W        W84274   3.896  21.548   3.244
13675W        W84275  21.491  11.735   2.171
13676W        W84276  19.972  12.172   0.930
13677W        W84277   1.305  33.054   5.051
13678W        W84278  16.207  32.977  14.288
13679W        W84279  28.057   5.986   0.422
13680W        W84280   0.769  20.453   4.027
13681W        W84281   1.062   9.082  11.077
13682W        W84282  27.758   5.040   0.333
13683W        W84283  10.631  18.718  10.753
13684W        W84284  10.702  30.548  14.961
13685W        W84285   5.865  25.587  14.099
13686W        W84286   9.629  35.096  10.917
13687W        W84287  17.649  32.497   0.235
13688W        W84288  30.460  29.542   1.378
13689W        W84289  34.036  33.005   0.821
13690W        W84290  39.707  22.151   4.451
13691W        W84291  26.601   9.701   4.510
13692W        W84292  22.459  36.011  12.969
13693W        W84293  34.874  12.146  13.935
13694W        W84294  38.959  23.102   4.655
13695W        W84295   6.366  33.097   4.105
13696W        W84296   7.938  40.206  12.432
13697W        W84297  15.871  22.038  14.685
13698W        W84298  38.898  39.093   1.326
13699W        W84299  42.563   3.912   3.064
13700W        W84300  11.314  13.146   0.192
13701W        W84301  42.863  10.933  12.975
13702W        W84302  33.069   2.801   0.212
13703W        W84303  44.446  23.942  11.220
13704W        W84304  28.079  24.212   3.298
13705W        W84305  16.302  40.827   2.306
13706W        W84306  42.354  25.976   3.753
13707W        W84307  44.550   2.671   3.166
13708W        W84308  20.165  34.560  14.423
13709W        W84309   7.171  33.737  11.334
13710W        W84310  28.585  16.863   0.396
13711W        W84311  37.960  26.426  13.505
13712W        W84312  36.001  30.431   4.105
13713W        W84313  40.468  43.902   0.360
13714W        W84314  39.090  28.727  12.538
13715W        W84315  44.616  29.422  13.310
13716W        W84316   3.273  14.400  13.759
13717W        W84317  23.344  30.284   1.730
13718W        W84318  36.052   4.657   0.281
13719W        W84319  29.538   5.280   2.476
13720W        W84320  33.827  29.170   1.747
13721W        W84321   5.007  38.008  12.964
13722W        W84322  27.901  12.288  11.892
13723W        W84323  25.582  25.173   2.629
13724W        W84324  15.634  13.641  14.081
13725W        W84325  34.869  13.671  12.499
13726W        W84326   9.351  29.960   4.023
13727W        W84327  12.128   8.813  10.429
13728W        W84328  34.858  12.573   1.824
13729W        W84329  43.170  27.948  10.999
13730W        W84330   7.680  11.124   4.526
13731W        W84331  19.237   9.190   3.198
13732W        W84332   8.952   9.259   0.967
13733W        W84333  41.878  23.529   2.685
13734W        W84334  31.861  33.172  11.665
13735W        W84335  38.901  38.652  12.547
13736W        W84336   9.873   5.031   1.369
13737W        W84337  15.819   3.382  14.947
13738W        W84338  22.392  35.053   3.090
13739W        W84339  19.674  34.474   2.745
13740W        W84340  17.729  36.099  14.408
13741W        W84341  37.577  42.815   1.803
13742W        W84342  44.078   0.026   3.175
13743W        W84343  23.822   4.220   2.741
13744W        W84344  35.773  37.124   0.943
13745W        W84345  32.840   3.279   4.920
13746W        W84346  18.193  33.600  13.829
13747W        W84347   2.846  31.912  12.012
13748W        W84348   9.971  26.839   3.269
13749W        W84349   3.757  11.737   3.206
13750W        W84350  39.151  33.524  13.625
13751W        W84351  18.257  31.544  12.939
13752W        W84352  14.059  35.018   3.165
13753W        W84353  20.397   4.285   4.006
13754W        W84354   6.214  22.149   2.657
13755W        W84355   9.710  20.099  10.730
13756W        W84356   7.206  36.491   0.296
13757W        W84357  36.563   9.594  13.300
13758W        W84358  37.312  28.317  12.383
13759W        W84359  18.351  23.150  13.546
13760W        W84360  14.773   5.242   2.432
13761W        W84361  14.757  28.151  10.917
13762W        W84362   0.882  23.140   3.656
13763W        W84363  37.240  15.103   0.911
13764W        W84364  30.875  41.333  10.696
13765W        W84365  37.047  30.649  14.875
13766W        W84366   4.191  11.172   4.377
13767W        W84367  27.583  25.392  12.865
13768W        W84368  12.643  26.573  13.055
13769W        W84369   2.966  29.733   3.278
13770W        W84370  16.749  28.085   1.902
13771W        W84371  28.863  44.493  11.992
13772W        W84372   6.631  20.119   0.520
13773W        W84373  30.543  43.475  10.218
13774W        W84374  42.033   7.915   1.697
13775W        W84375  13.810   0.145   2.118
13776W        W84376  13.917  22.109   3.097
13777W        W84377   1.273   6.922   0.531
13778W        W84378   1.500  18.280  12.852
13779W        W84379  37.437   8.291   4.816
13780W        W84380   3.897  40.200  11.498
13781W        W84381  33.822  41.084  11.298
13782W        W84382  11.122  21.073  12.399
13783W        W84383  33.517  23.060   1.756
13784W        W84384  23.044  27.778  11.954
13785W        W84385   8.684  32.010   1.899
13786W        W84386  17.011  14.331   2.307
13787W        W84387  23.047  32.061   2.753
13788W        W84388  35.628  17.227  14.400
13789W        W84389  30.642   4.515  13.810
13790W        W84390   0.759   5.874  12.106
13791W        W84391  33.541  27.228   1.506
13792W        W84392  32.983  38.644  12.363
13793W        W84393  17.436  33.131  14.457
13794W        W84394  34.805  37.960  12.362
13795W        W84395  23.546  44.843  11.999
13796W        W84396   8.259  34.837   1.920
13797W        W84397  42.390  41.780  13.943
13798W        W84398   4.603  36.585  10.811
13799W        W84399   7.178  39.730   3.650
13800W        W84400  11.782  30.333  10.191
13801W        W84401   1.208  13.923  12.938
13802W        W84402  26.231  23.761  12.392
13803W        W84403  37.882  43.843   2.985
13804W        W84404  15.753  17.568  11.608
13805W        W84405  18.700  41.759   1.368
13806W        W84406  36.643  43.463  10.410
13807W        W84407  40.858  23.208   4.489
13808W        W84408   2.094  16.304  10.612
13809W        W84409  24.787  36.991   3.903
13810W        W84410  37.012   6.835   0.999
13811W        W84411  37.176  10.625  12.980
13812W        W84412   8.825  25.088  14.053
13813W        W84413   1.311   7.317  14.406
13814W        W84414  26.463  41.162  11.499
13815W        W84415   3.316  28.790   3.558
13816W        W84416   5.202  42.265   2.147
13817W        W84417   8.317  28.001  12.893
13818W        W84418   3.296   5.884   0.886
13819W        W84419  30.120  33.560   1.227
13820W        W84420   1.746  33.331  14.844
13821W        W84421  39.467  43.055  13.503
13822W        W84422   5.953   2.147  14.501
13823W        W84423   8.794  23.182   1.155
13824W        W84424   9.108  21.131   2.779
13825W        W84425   7.335  34.441   4.379
13826W        W84426  17.508  23.559  10.430
13827W        W84427  29.481  12.540   0.493
13828W        W84428   8.827  38.884  11.323
13829W        W84429  37.135  27.038   2.275
13830W        W84430  22.393  12.516  14.331
13831W        W84431  18.138  19.198   4.430
13832W        W84432  22.584  28.274   3.793
13833W        W84433  36.966  35.858   5.111
13834W        W84434  42.723  33.126  10.802
13835W        W84435  21.961  38.838  13.966
13836W        W84436  22.194  22.945  11.625
13837W        W84437  26.508  34.094  14.767
13838W        W84438  40.900  34.293   4.067
13839W        W84439   8.645  39.298  11.543
13840W        W84440  23.507  18.196  13.295
13841W        W84441   6.219  42.267  13.072
13842W        W84442   1.987  21.201   2.244
13843W        W84443  34.543  18.387  11.561
13844W        W84444  40.032  23.055   0.686
13845W        W84445   8.329  43.631   3.873
13846W        W84446  21.195  38.297  11.027
13847W        W84447  37.636  21.164  11.646
13848W        W84448  27.007   9.394   3.318
13849W        W84449  42.845  25.677   3.168
13850W        W84450  35.452  13.627   2.286
13851W        W84451  29.444   0.985   1.396
13852W        W84452   7.248  35.651  12.101
13853W        W84453  25.213   5.363  11.680
13854W        W84454  41.260   8.170  11.057
13855W        W84455  42.378  21.150  14.599
13856W        W84456  42.334  13.796  13.069
13857W        W84457   2.555  23.134   4.285
13858W        W84458   3.916  12.365  14.972
13859W        W84459  44.989  10.411  10.359
13860W        W84460  44.401  29.950   4.513
13861W        W84461  35.029  17.749  13.877
13862W        W84462   2.685   7.418   0.250
13863W        W84463  25.690  33.903  11.837
13864W        W84464  44.720  36.809   0.096
13865W        W84465  34.115  37.400  11.141
13866W        W84466   7.743  31.872   4.736
13867W        W84467   7.880  28.682   1.469
13868W        W84468  12.113  18.566  13.944
13869W        W84469   5.596  35.181   0.329
13870W        W84470   7.146  37.032   3.653
13871W        W84471  15.148  43.260  14.823
13872W        W84472  26.555   3.322   3.151
13873W        W84473  38.339  30.041  11.475
13874W        W84474  29.149  19.003  14.758
13875W        W84475  12.685  20.526   1.826
13876W        W84476   3.224   1.794   1.806
13877W        W84477  27.670  15.584  11.984
13878W        W84478   6.407  33.734   0.978
13879W        W84479  44.957  16.780  12.101
13880W        W84480  14.393   1.826  14.348
13881W        W84481  35.486   6.849  13.261
13882W        W84482  34.570  12.653   1.372
13883W        W84483  35.477  43.334   4.070
13884W        W84484  32.887  32.453   3.711
13885W        W84485  25.842  33.484  12.663
13886W        W84486  24.034   6.732  10.035
13887W        W84487   1.358   7.726  11.086
13888W        W84488  10.439  30.139   3.758
13889W        W84489   2.736  32.115   1.266
13890W        W84490  11.276   1.049   4.621
13891W        W84491  39.431  16.710   0.285
13892W        W84492  24.739  23.243   4.511
13893W        W84493  43.261  25.834   3.423
13894W        W84494  23.650  14.082  12.421
13895W        W84495   3.734   4.777  12.462
13896W        W84496   5.362  39.879  12.367
13897W        W84497  32.660  29.167   0.328
13898W        W84498  38.802   0.483  10.150
13899W        W84499  32.177  12.163   0.181
13900W        W84500  29.954  31.081   3.072
13901W        W84501  14.708  28.396  11.853
13902W        W84502  40.456  17.447  14.859
13903W        W84503  33.919  18.427   1.681
13904W        W84504  24.573  20.314  13.481
13905W        W84505   8.241  24.253   3.041
13906W        W84506  32.646  16.880  13.833
13907W        W84507  40.777   4.925  13.886
13908W        W84508  34.932  28.256   1.505
13909W        W84509  25.721   1.741  11.384
13910W        W84510   0.555   3.265  11.200
13911W        W84511  23.127  34.533   2.266
13912W        W84512   3.321   3.547   1.023
13913W        W84513  38.846  15.298  12.676
13914W        W84514   5.801  17.775   2.104
13915W        W84515  40.906  23.778   2.845
13916W        W84516  39.926  12.120   1.557
13917W        W84517  29.558  18.818  13.438
13918W        W84518  24.922  43.351   2.774
13919W        W84519  10.145  21.478   2.875
13920W        W84520  44.309  28.163  12.909
13921W        W84521  43.687  26.923   2.987
13922W        W84522  14.339   8.991  11.817
13923W        W84523   8.236   0.992  12.752
13924W        W84524   7.599   8.834   3.674
13925W        W84525  17.797  42.977  13.066
13926W        W84526  17.152  12.981  12.846
13927W        W84527   8.933  34.021  13.999
13928W        W84528  21.264  29.200  11.615
13929W        W84529  15.056   0.862  12.944
13930W        W84530  26.578  31.555   4.036
13931W        W84531  31.208  34.858  13.522
13932W        W84532  19.100  28.601   5.062
13933W        W84533  43.430   9.718   0.023
13934W        W84534  22.540  19.446   0.195
13935W        W84535  25.013  16.048  13.218
13936W        W84536  36.402  17.124  14.001
13937W        W84537  14.330  39.536   1.835
13938W        W84538  38.605  30.614   3.247
13939W        W84539  25.567  39.397   1.991
13940W        W84540   7.746  41.788  11.526
13941W        W84541  14.926  17.808  14.795
13942W        W84542  32.231  22.231   1.665
13943W        W84543  31.107   6.445  14.291
13944W        W84544  39.040  27.613   3.144
13945W        W84545   6.683  27.439   1.780
13946W        W84546  30.160   5.026   3.339
13947W        W84547  43.424   1.025  14.324
13948W        W84548  37.323  19.722  14.527
13949W        W84549  13.098  17.645   3.232
13950W        W84550   9.838  14.253   3.242
13951W        W84551  25.545  19.020   3.231
13952W        W84552  29.611   3.461   3.744
13953W        W84553  21.135  20.705   1.386
13954W        W84554  18.373  26.509  12.558
13955W        W84555  42.029  32.547  14.699
13956W        W84556  33.903   8.671  11.606
13957W        W84557  30.314  17.088  11.154
13958W        W84558  24.219   3.121  11.448
13959W        W84559  31.463   9.608  14.802
13960W        W84560   7.502  18.967  13.046
13961W        W84561  12.237  13.357  11.618
13962W        W84562  43.215  15.234  13.996
13963W        W84563  32.573  13.282   2.884
13964W        W84564  43.844  42.956  11.582
13965W        W84565  31.097  23.610  10.658
13966W        W84566  37.127  19.131  12.344
13967W        W84567  19.749  42.502  11.921
13968W        W84568   1.841  24.525   3.256
13969W        W84569  25.128  35.181   2.336
13970W        W84570  14.182   2.764   3.229
13971W        W84571  37.491  24.125   2.053
13972W        W84572  17.071  29.232  12.835
13973W        W84573  17.722  39.043  14.867
13974W        W84574  20.727   0.587   1.718
13975W        W84575  34.395  41.485  13.550
13976W        W84576  39.098  20.173   0.213
13977W        W84577  39.216  41.247  13.933
13978W        W84578  35.620   1.812   0.532
13979W        W84579   7.660  21.856  13.424
13980W        W84580  25.642  11.885   2.873
13981W        W84581   5.268  17.486  13.461
13982W        W84582   3.136  44.707  12.949
13983W        W84583  28.703  11.227   2.213
13984W        W84584  13.669  33.616  12.885
13985W        W84585   8.471  30.388  11.511
13986W        W84586  15.660   2.336   0.695
13987W        W84587  16.310  10.756  10.905
13988W        W84588  18.786  35.987  11.958
13989W        W84589  26.442  17.258   0.485
13990W        W84590  17.724  25.556  14.460
13991W        W84591  26.249  18.116  13.912
13992W        W84592  29.494  10.989  11.364
13993W        W84593  17.928  38.236   3.718
13994W        W84594  19.200  30.710   3.863
13995W        W84595  27.228  19.182   0.915
13996W        W84596  29.654  13.368  11.398
13997W        W84597   0.011  34.011   4.015
13998W        W84598  39.195  38.415  13.854
13999W        W84599   0.526  31.124  14.806
14000W        W84600  23.625  25.974  12.648
14001W        W84601  36.247  14.106  14.477
14002W        W84602   1.836  26.166  13.434
14003W        W84603  34.790   4.294  10.857
14004W        W84604  37.685   9.990  14.325
14005W        W84605  28.452  23.174   2.967
14006W        W84606  35.941   8.757   4.654
14007W        W84607  13.256  39.700   0.055
14008W        W84608   1.326   9.402   4.359
14009W        W84609  19.599   4.369  13.481
14010W        W84610  24.035  39.716   1.390
14011W        W84611  15.633  17.777   4.932
14012W        W84612  37.334  16.079  10.673
14013W        W84613  30.085   9.805  11.129
14014W        W84614  24.763   7.020   4.095
14015W        W84615  31.154  38.996   1.766
14016W        W84616  13.366  19.161   3.653
14017W        W84617  35.859  23.598  12.013
14018W        W84618  26.390  44.921  12.281
14019W        W84619  34.556  33.047   3.655
14020W        W84620  28.027  38.856  12.461
14021W        W84621   9.308  20.277  13.393
14022W        W84622  22.020  21.158  11.108
14023W        W84623   8.669  35.698  11.103
14024W        W84624   4.357  23.591   2.128
14025W        W84625  34.555  35.121   3.970
14026W        W84626   6.740  40.679  13.534
14027W        W84627  15.587  23.046  12.450
14028W        W84628   0.871  21.528  11.716
14029W        W84629  30.143  28.165  11.324
14030W        W84630  23.360  38.435   0.945
14031W        W84631   5.764  39.568  11.553
14032W        W84632  26.046   8.417  14.413
14033W        W84633  31.688  26.427  10.094
14034W        W84634   0.457  19.855   1.617
14035W        W84635  44.339  38.962   0.988
14036W        W84636  28.769  21.007   2.638
14037W        W84637   4.330  12.185  13.815
14038W        W84638  36.099   7.426   1.260
14039W        W84639  16.816  15.643  12.044
14040W        W84640  34.529  14.034  11.925
14041W        W84641  23.965  18.005   3.781
14042W        W84642  10.703  17.141   3.415
14043W        W84643  41.262   2.423  13.524
14044W        W84644  21.055  39.902  14.812
14045W        W84645  25.226  16.967  13.419
14046W        W84646   3.762  39.241   2.154
14047W        W84647  39.745  44.889   0.001
14048W        W84648  31.207  38.517  10.583
14049W        W84649  15.285  38.980   1.333
14050W        W84650  31.067  13.078  12.432
14051W        W84651   6.379  21.599   2.361
14052W        W84652  42.032  25.292  13.915
14053W        W84653   3.888   6.104  13.457
14054W        W84654  11.658  43.781   3.326
14055W        W84655  31.635   9.468  13.019
14056W        W84656  21.662  18.897  11.578
14057W        W84657  38.925  44.533  11.333
14058W        W84658  26.156  41.554  12.613
14059W        W84659  18.873  29.164  13.875
14060W        W84660  27.619  39.720  14.205
14061W        W84661  42.212  44.982   4.714
14062W        W84662  28.572  43.951   1.637
14063W        W84663  27.749   9.148  12.529
14064W        W84664  41.319   4.253   3.176
14065W        W84665  41.376  18.268   2.691
14066W        W84666  14.182  35.646  10.677
14067W        W84667  39.443  39.193   0.492
14068W        W84668  21.528  39.520  11.647
14069W        W84669  17.204  38.159   4.471
14070W        W84670  24.136  43.239  13.427
14071W        W84671  40.318  13.075   2.796
14072W        W84672  25.144  16.492  14.493
14073W        W84673  12.559   9.635  13.043
14074W        W84674  29.089  17.272   3.253
14075W        W84675  23.070  19.391   1.721
14076W        W84676  26.669  34.617  14.037
14077W        W84677  20.619  36.547   1.408
14078W        W84678  34.482  35.438   0.453
14079W        W84679  41.882  17.535  12.509
14080W        W84680  17.246   8.616   9.875
14081W        W84681   2.355   8.283  10.416
14082W        W84682  10.070   7.123  14.967
14083W        W84683  18.720  16.790   3.419
14084W        W84684  15.032  16.226  12.925
14085W        W84685  32.850   5.378   1.335
14086W        W84686  12.045   6.317  13.511
14087W        W84687  44.501  36.136  13.512
14088W        W84688  40.341   0.774   2.437
14089W        W84689   5.732   1.727  11.628
14090W        W84690  44.453  39.460   3.257
14091W        W84691  35.315  39.465  11.107
14092W        W84692  13.534  14.635  14.796
14093W        W84693  29.558  25.719  14.435
14094W        W84694  28.983  43.587  10.904
14095W        W84695  29.094  15.239  14.326
14096W        W84696  30.477  11.829  10.662
14097W        W84697  17.395  41.975  14.312
14098W        W84698  26.298  20.019   2.855
14099W        W84699  28.993  15.572   0.021
14100W        W84700   5.422   8.886  13.462
14101W        W84701   9.190   4.834   1.835
14102W        W84702   8.389  11.972   3.821
14103W        W84703   1.438  25.533  11.077
14104W        W84704  24.969  33.037   2.161
14105W        W84705   3.406  37.231  13.748
14106W        W84706  29.841  25.369   0.819
14107W        W84707  28.391  17.238  13.053
14108W        W84708   3.955  26.957   3.727
14109W        W84709   1.547  18.134   1.704
14110W        W84710  12.339   4.547   2.190
14111W        W84711   0.682  13.921   2.835
14112W        W84712  36.092   4.884   4.254
14113W        W84713  30.963  38.516   0.397
14114W        W84714   8.284  27.080   0.088
14115W        W84715   7.427  37.780  11.178
14116W        W84716   4.276  24.047   0.215
14117W        W84717  12.696  27.990  12.851
14118W        W84718  38.324   3.778   1.451
14119W        W84719  28.733  29.201  12.940
14120W        W84720  41.735  10.111  10.252
14121W        W84721  27.367  12.641  12.479
14122W        W84722  34.923  27.281   3.852
14123W        W84723  13.497  19.867   1.222
14124W        W84724  16.160  35.608  13.424
14125W        W84725  35.644  37.590  13.494
14126W        W84726  31.475  41.517   0.431
14127W        W84727  19.191  29.650  12.570
14128W        W84728   4.251  26.458  14.905
14129W        W84729  26.401  22.376  14.826
14130W        W84730  29.448  37.961   3.477
14131W        W84731   9.776  16.645  12.940
14132W        W84732   9.613   7.829   1.907
14133W        W84733  32.396  31.299  13.274
14134W        W84734  18.546  20.308   3.917
14135W        W84735   3.067  16.586  11.214
14136W        W84736  26.287  34.667  11.282
14137W        W84737  34.942  34.530  11.552
14138W        W84738  23.454  14.196   0.819
14139W        W84739  30.475   2.382  14.404
14140W        W84740  34.558  20.174   4.548
14141W        W84741  27.601  21.976  14.881
14142W        W84742   7.680  42.785   4.290
14143W        W84743  17.093  13.399   2.251
14144W        W84744  23.170  33.776   4.193
14145W        W84745  15.541  29.583   2.368
14146W        W84746  11.635  39.115   9.971
14147W        W84747  19.104  29.434  13.027
14148W        W84748   9.791   6.430   4.579
14149W        W84749  17.697  36.620  14.422
14150W        W84750   6.823  16.139   3.351
14151W        W84751  11.254  30.029   3.243
14152W        W84752   4.470  17.378   3.322
14153W        W84753  21.495  17.199   1.350
14154W        W84754  44.924   0.044  13.101
14155W        W84755  42.583  37.999   0.378
14156W        W84756  11.668   0.745   1.029
14157W        W84757   0.840  31.578  13.938
14158W        W84758  26.862   3.444   2.762
14159W        W84759  25.040  26.555  14.152
14160W        W84760  15.523   5.261   1.299
14161W        W84761   8.461   9.839   3.472
14162W        W84762  34.852  42.614  12.875
14163W        W84763  34.459  29.484   4.147
14164W        W84764  14.055  42.951  13.700
14165W        W84765  15.318  37.629  10.587
14166W        W84766   7.843  42.276   0.733
14167W        W84767  36.149  16.772  11.572
14168W        W84768   9.266  11.748   4.056
14169W        W84769  33.828  13.807   2.174
14170W        W84770   0.282   5.276   1.812
14171W        W84771  38.641   6.117  13.557
14172W        W84772   0.328  44.248   0.275
14173W        W84773  41.381   9.423  12.886
14174W        W84774  37.208  43.924  12.049
14175W        W84775  20.560  41.886   4.551
14176W        W84776  32.546  20.800  12.626
14177W        W84777   2.786  36.125  13.388
14178W        W84778   2.462  17.507  14.038
14179W        W84779  26.019  42.562   1.785
14180W        W84780   6.957  44.182  13.340
14181W        W84781  18.559  25.109   1.239
14182W        W84782  10.371  34.359   4.090
14183W        W84783  31.022  25.973   1.894
14184W        W84784   6.562  26.682  10.567
14185W        W84785  10.818  10.924  10.672
14186W        W84786  35.916  35.084   4.113
14187W        W84787  25.554  12.121   3.904
14188W        W84788  32.365  16.523  11.219
14189W        W84789  31.009  20.807   1.413
14190W        W84790  34.392  28.619   4.143
14191W        W84791  13.908  35.876   3.027
14192W        W84792  16.551  20.740   0.357
14193W        W84793   0.387  44.206  11.892
14194W        W84794  14.670   0.203  10.760
14195W        W84795  41.397   6.220  12.342
14196W        W84796  12.915  33.455   0.744
14197W        W84797  34.997  40.950  13.899
14198W        W84798  30.899  18.650   4.864
14199W        W84799  37.307   6.895   3.127
14200W        W84800  14.112  34.179   0.348
14201W        W84801  19.769  30.840  10.930
14202W        W84802  23.195   2.881  13.420
14203W        W84803  38.285  39.046   0.820
14204W        W84804  36.527  13.640  12.756
14205W        W84805  38.215  27.565   3.485
14206W        W84806  22.579  39.010  11.217
14207W        W84807  30.351  41.062  14.333
14208W        W84808   3.559  40.502  12.278
14209W        W84809  34.544  17.566   0.889
14210W        W84810   3.726  42.459   1.248
14211W        W84811  43.661  15.749   3.662
14212W        W84812  28.427  26.872  11.429
14213W        W84813  30.898  34.437  13.273
14214W        W84814  42.822  16.534   0.653
14215W        W84815   6.396  27.546   4.924
14216W        W84816  35.747  29.916   2.375
14217W        W84817  32.266   6.721   0.084
14218W        W84818  32.954  20.523   0.453
14219W        W84819  37.539  38.586   2.809
14220W        W84820   4.421  41.946  13.178
14221W        W84821  35.630  17.320  11.382
14222W        W84822  20.807  28.985   2.334
14223W        W84823   1.835  12.152   0.502
14224W        W84824  26.235  19.591   1.336
14225W        W84825  42.116  21.514  11.997
14226W        W84826  26.089   8.140   3.773
14227W        W84827   1.930  13.920   2.338
14228W        W84828  14.794  10.885   0.105
14229W        W84829  21.503  15.884   2.266
14230W        W84830  39.149  40.255  14.882
14231W        W84831   6.203  16.802   0.866
14232W        W84832  35.242  21.150  12.155
14233W        W84833  41.635  26.555   2.839
14234W        W84834  30.048   8.923   3.613
14235W        W84835  26.977   6.312  11.450
14236W        W84836  36.313  35.872  14.421
14237W        W84837  19.108  43.846  11.134
14238W        W84838  17.722  18.569  11.433
14239W        W84839   4.841  40.578   1.998
14240W        W84840   0.301  21.596   3.602
14241W        W84841  17.347  20.116  13.821
14242W        W84842  12.888  11.115   4.382
14243W        W84843  18.343  11.287   3.397
14244W        W84844   8.756  19.559  10.800
14245W        W84845  32.356  28.746  11.594
14246W        W84846  21.558  14.555  11.952
14247W        W84847   7.115   3.197   4.271
14248W        W84848  38.960   2.396  14.466
14249W        W84849  23.969  18.184   2.873
14250W        W84850  36.464   9.443   0.787
14251W        W84851  15.633   5.371   2.663
14252W        W84852   1.917  34.999  13.482
14253W        W84853  19.510   8.193  11.686
14254W        W84854  37.565  28.955  14.344
14255W        W84855   0.652   7.737   0.665
14256W        W84856  44.757  37.132   0.493
14257W        W84857  30.051  14.755  12.230
14258W        W84858  26.513   6.884  10.647
14259W        W84859  37.489  36.608   2.686
14260W        W84860  19.145  38.773  12.292
14261W        W84861  28.560  29.158  14.263
14262W        W84862  38.822  39.632  10.902
14263W        W84863   3.993  24.775  13.833
14264W        W84864  16.290  41.075  13.910
14265W        W84865  24.093  23.007  12.397
14266W        W84866  34.418  14.619   5.113
14267W        W84867   5.504  44.505   3.662
14268W        W84868  19.151  25.752   0.780
14269W        W84869  40.525  23.561  13.913
14270W        W84870   3.757  16.204   2.264
14271W        W84871   8.222  21.816  12.515
14272W        W84872  43.774   0.018   3.585
14273W        W84873  11.753  30.402   3.082
14274W        W84874  23.089  29.727  11.503
14275W        W84875  30.656  21.127   2.109
14276W        W84876  33.933  13.574  10.451
14277W        W84877  21.749   7.125   1.681
14278W        W84878   2.757  24.020  11.546
14279W        W84879   0.526   6.344   3.232
14280W        W84880   1.013  44.452   2.386
14281W        W84881  41.728  13.073   2.367
14282W        W84882   4.489  19.392  13.362
14283W        W84883  29.362  27.657  14.625
14284W        W84884  16.867  15.134   2.821
14285W        W84885  31.843  24.973   2.365
14286W        W84886   6.134  18.671   3.754
14287W        W84887  44.735  29.178  14.541
14288W        W84888   2.967  26.074   0.927
14289W        W84889   2.701  24.513   1.455
14290W        W84890  31.593   4.796   2.890
14291W        W84891   5.210  27.942  14.376
14292W        W84892  42.956  43.376  10.381
14293W        W84893  18.117  15.632   2.849
14294W        W84894   5.718  10.831   2.559
14295W        W84895  24.353  18.251  12.912
14296W        W84896  34.422  37.016  11.524
14297W        W84897  37.062   8.616   4.550
14298W        W84898  14.554   2.954  12.175
14299W        W84899  14.667  13.082  12.999
14300W        W84900  16.202  27.281   1.370
14301W        W84901  26.055  32.103  11.543
14302W        W84902  32.618  28.661  13.067
14303W        W84903  31.157  38.313  14.348
14304W        W84904  39.190  25.681   0.760
14305W        W84905  13.238  13.843  12.517
14306W        W84906   3.437  32.004  11.366
14307W        W84907  43.074  43.844  12.124
14308W        W84908  35.490  33.155  14.372
14309W        W84909  38.257   2.952  10.377
14310W        W84910   2.987  15.340  12.437
14311W        W84911  33.883  24.686  10.699
14312W        W84912  40.676  22.579  12.371
14313W        W84913  23.186  33.971   2.774
14314W        W84914  16.752  11.752   2.258
14315W        W84915  13.848  11.591  11.534
14316W        W84916  32.049  16.329   2.312
14317W        W84917   3.469  14.527  11.926
14318W        W84918  43.015  38.988   3.767
14319W        W84919   1.852   6.143   3.777
14320W        W84920  19.513  22.068  12.413
14321W        W84921  44.847   9.230  13.331
14322W        W84922  38.406   1.590  11.199
14323W        W84923   0.679   8.647   5.146
14324W        W84924   1.007   3.285   3.608
14325W        W84925   2.720  18.523  13.097
14326W        W84926  22.014  25.203   1.045
14327W        W84927  13.825  16.041  13.379
14328W        W84928  13.329  33.807  10.020
14329W        W84929   8.723  36.521  14.743
14330W        W84930   4.188  10.501  11.134
14331W        W84931  40.435   4.010  13.931
14332W        W84932  12.931  20.138   0.961
14333W        W84933  42.961   6.451  12.066
14334W        W84934  17.772   6.275   1.932
14335W        W84935  28.605  16.402   1.901
14336W        W84936   9.319  38.015  14.919
14337W        W84937  19.984   5.375  10.243
14338W        W84938  23.271  27.000  12.942
14339W        W84939  14.772  13.073   0.280
14340W        W84940  37.336  18.660   2.338
14341W        W84941  30.437   2.209   0.346
14342W        W84942  33.362  42.116  13.947
14343W        W84943   2.910  42.238  13.589
14344W        W84944  21.219  16.335   2.206
14345W        W84945  40.239  21.923  13.789
14346W        W84946  38.518  41.759   3.319
14347W        W84947   9.857  18.676   4.267
14348W        W84948  31.794  43.619  13.340
14349W        W84949  14.025  22.390  14.375
14350W        W84950  21.032  36.765   1.696
14351W        W84951  29.603  36.078  12.059
14352W        W84952  17.051   8.168  14.135
14353W        W84953  37.633  11.365   4.598
14354W        W84954  27.862  37.825   5.014
14355W        W84955   6.908   8.370  14.907
14356W        W84956  28.934  31.910   0.315
14357W        W84957  33.100  19.509   0.739
14358W        W84958   4.026  37.868   5.084
14359W        W84959  23.177  10.849   1.695
14360W        W84960  33.475  38.948   5.063
14361W        W84961  22.992  20.234  11.202
14362W        W84962  37.895  40.091   0.484
14363W        W84963   5.757  24.319   2.440
14364W        W84964  32.805   1.682   3.244
14365W        W84965   7.122  27.441   3.659
14366W        W84966  22.730  15.688  12.071
14367W        W84967  13.692  40.736   1.381
14368W        W84968  40.154  35.708  13.874
14369W        W84969  42.053  16.137   3.271
14370W        W84970  14.745  28.888   4.552
14371W        W84971   0.909  34.105   2.762
14372W        W84972  26.190   1.858  11.584
14373W        W84973   6.832  39.079   1.321
14374W        W84974  36.495  37.738   1.567
14375W        W84975  34.976  27.606  13.319
14376W        W84976  42.516  11.077  13.393
14377W        W84977  36.403  34.162   0.112
14378W        W84978  27.678  29.273   2.900
14379W        W84979   6.173   8.713  12.935
14380W        W84980  35.339  40.460   1.469
14381W        W84981  40.995  15.834  13.405
14382W        W84982  29.079   4.431   4.546
14383W        W84983   4.993  21.121   2.936
14384W        W84984  39.260  11.038   3.354
14385W        W84985  39.540  24.593   0.353
14386W        W84986  30.740   4.826   9.586
14387W        W84987  27.700  20.962   9.977
14388W        W84988  10.165   8.442   2.786
14389W        W84989  15.883  36.538  12.808
14390W        W84990  13.641  34.023   0.962
14391W        W84991  35.649   9.503  14.279
14392W        W84992  44.517  10.832  14.971
14393W        W84993  42.937  17.610   2.778
14394W        W84994  32.845  43.945   0.381
14395W        W84995  41.924  32.092   1.261
14396W        W84996  30.999  24.250  13.965
14397W        W84997  32.441  28.446   0.989
14398W        W84998  43.498   0.253  14.963
14399W        W84999  41.055  32.218  12.503
14400W        W85000   5.999   6.597   3.333
14401W        W85001   3.971  30.680  14.394
14402W        W85002  34.728   2.749  13.004
14403W        W85003  17.400   0.679   0.736
14404W        W85004  11.850  37.176   2.329
14405W        W85005  21.688   8.349   0.328
14406W        W85006  21.125  16.889  11.587
14407W        W85007  16.171  11.158   2.744
14408W        W85008  21.708  21.551  13.879
14409W        W85009  43.892   3.755   2.756
14410W        W85010  34.978  25.705  14.227
14411W        W85011  42.428  32.982  12.414
14412W        W85012   4.814  26.113  12.488
14413W        W85013  24.731  28.926  11.944
14414W        W85014   9.869  28.666  11.250
14415W        W85015  26.181   0.719   3.437
14416W        W85016   7.766  26.481  12.949
14417W        W85017  43.842  10.338   2.896
14418W        W85018  15.342  24.518   2.251
14419W        W85019   4.650   9.395  13.292
14420W        W85020  21.349  36.787  10.735
14421W        W85021  44.522  36.731   4.148
14422W        W85022  13.399  24.878  13.774
14423W        W85023   7.757  21.041  12.404
14424W        W85024  20.799  25.740   0.358
14425W        W85025  16.064  19.204  13.320
14426W        W85026   7.726  23.939  12.932
14427W        W85027  43.307  18.305   2.055
14428W        W85028  40.522  23.111   0.468
14429W        W85029  33.950  42.079  11.189
14430W        W85030  29.025   1.277   1.699
14431W        W85031  40.809  37.380  14.054
14432W        W85032  30.959   3.820  14.582
14433W        W85033   8.306  42.987  11.801
14434W        W85034  40.309  29.481  13.534
14435W        W85035  13.992  33.021   3.078
14436W        W85036   1.918  33.303   0.818
14437W        W85037  15.777   8.200   2.368
14438W        W85038  36.002  34.337   3.648
14439W        W85039  35.539  31.387   4.061
14440W        W85040  30.550   7.012   2.147
14441W        W85041  34.180  43.088   0.386
14442W        W85042  33.174   3.266   3.133
14443W        W85043  15.545  13.611   4.049
14444W        W85044   0.303  32.481   2.810
14445W        W85045  41.495   0.378   0.444
14446W        W85046  25.711  36.968  13.728
14447W        W85047  44.068  21.612   2.397
14448W        W85048   7.448  16.641  13.496
14449W        W85049  17.773   9.680   2.753
14450W        W85050  16.281  16.409   4.030
14451W        W85051   2.319  12.346   1.199
14452W        W85052  12.376  14.148  12.941
14453W        W85053   0.439  31.589   0.921
14454W        W85054  36.473  26.554  13.776
14455W        W85055  25.891  19.884  12.311
14456W        W85056  19.218  23.228   1.848
14457W        W85057  20.523  36.783  13.259
14458W        W85058   4.770  16.830  11.541
14459W        W85059  14.199  18.935   1.731
14460W        W85060  14.559  44.276  13.939
14461W        W85061  18.706   1.956   2.607
14462W        W85062   1.412  37.108  13.758
14463W        W85063  21.001   5.804  14.103
14464W        W85064   2.939  19.562  11.546
14465W        W85065  16.146   9.254  14.475
14466W        W85066  19.393  20.467  11.626
14467W        W85067   3.711  18.500  13.464
14468W        W85068  10.767   3.340  13.894
14469W        W85069  10.229  27.248  14.435
14470W        W85070   8.816  41.742  10.716
14471W        W85071  12.348  18.133  11.666
14472W        W85072   6.181  24.926   1.483
14473W        W85073   4.984  43.960   4.268
14474W        W85074  11.778   4.516   3.796
14475W        W85075  32.960  30.934   1.904
14476W        W85076  42.530  29.909   1.245
14477W        W85077   9.648  43.882  13.403
14478W        W85078  25.320  35.160   4.097
14479W        W85079  21.657  17.954  11.893
14480W        W85080   6.237  20.531  14.889
14481W        W85081   6.356   1.272   0.499
14482W        W85082  35.966  29.038   2.938
14483W        W85083  11.820  18.070  13.933
14484W        W85084  39.828  24.723   4.273
14485W        W85085  26.465   6.735  14.395
14486W        W85086  28.150  15.254  10.545
14487W        W85087  15.203  35.128  14.746
14488W        W85088  12.603  24.058   2.340
14489W        W85089  30.722  28.132  14.439
14490W        W85090  34.668  29.950   4.276
14491W        W85091  29.455  31.419  10.857
14492W        W85092  14.416  29.052   2.693
14493W        W85093  29.218  42.755   0.372
14494W        W85094   2.321  16.871  11.667
14495W        W85095   2.546  21.092   1.763
14496W        W85096  28.003  11.729   1.877
14497W        W85097  38.953  24.090  14.824
14498W        W85098  20.126   8.821   0.970
14499W        W85099  41.685  18.193   1.146
14500W        W85100  18.090  33.225  12.127
14501W        W85101  27.116  33.853  14.028
14502W        W85102  29.142  17.202  11.927
14503W        W85103  17.685  13.606  13.019
14504W        W85104  41.617  24.083  13.558
14505W        W85105  36.124  28.706   3.488
14506W        W85106  43.547  12.772   2.693
14507W        W85107  29.371  29.443   4.031
14508W        W85108  20.121  18.589  12.070
14509W        W85109   8.412   6.768  13.807
14510W        W85110   9.450   4.081   3.336
14511W        W85111  20.234  19.776  12.567
14512W        W85112   8.544  40.572   1.729
14513W        W85113  42.623   6.392  13.557
14514W        W85114  15.196  21.536  11.463
14515W        W85115  40.793  32.561  12.800
14516W        W85116  20.790  27.600  13.851
14517W        W85117  42.258   7.426   2.554
14518W        W85118  37.915  30.017   2.234
14519W        W85119  29.614  26.622  11.102
14520W        W85120  37.590  37.789  12.023
14521W        W85121  20.550  33.306  11.029
14522W        W85122  40.864  16.059  13.872
14523W        W85123  41.232  15.495  12.591
14524W        W85124  22.688  36.355  13.281
14525W        W85125  13.313  10.068   2.374
14526W        W85126   9.368  26.747   2.132
14527W        W85127  16.242  16.667   3.596
14528W        W85128  29.558  17.354  12.673
14529W        W85129  14.164   4.075   1.977
14530W        W85130   7.355   8.424   2.188
14531W        W85131  42.505  33.079   4.608
14532W        W85132   8.622  14.773   3.365
14533W        W85133  14.402   0.198   5.067
14534W        W85134   1.023  19.061   3.630
14535W        W85135   3.514   0.794   0.994
14536W        W85136  35.283  37.098  14.342
14537W        W85137  29.514   5.897   3.632
14538W        W85138  26.779  32.013  12.173
14539W        W85139  35.453   4.763   2.228
14540W        W85140  40.870   8.093  14.282
14541W        W85141  18.295  37.683  13.600
14542W        W85142  22.813  14.147  13.082
14543W        W85143  34.361  43.930  10.665
14544W        W85144  29.166  21.265  12.595
14545W        W85145  38.080   2.441  12.012
14546W        W85146  33.105  43.334  13.446
14547W        W85147  38.234  34.416  14.582
14548W        W85148   0.524   3.881  11.089
14549W        W85149  13.666  14.561   0.744
14550W        W85150  43.342  25.176  14.403
14551W        W85151  35.412  39.006  13.881
14552W        W85152  38.586   4.257  12.611
14553W        W85153  10.652  38.875  14.560
14554W        W85154  44.860  22.272  12.601
14555W        W85155  35.943  35.332  12.641
14556W        W85156  19.645  20.794  11.257
14557W        W85157  16.069  31.058  13.087
14558W        W85158   8.191  27.739  14.355
14559W        W85159  23.706  14.066  13.895
14560W        W85160  17.996  38.542  12.542
14561W        W85161  40.740  29.165   4.881
14562W        W85162  40.767  11.818   1.281
14563W        W85163  13.655  24.405  11.418
14564W        W85164  14.729  15.821   4.649
14565W        W85165  18.156  38.533  13.393
14566W        W85166  10.147  34.106  12.656
14567W        W85167   6.777  25.318   0.378
14568W        W85168   4.921  27.221   4.248
14569W        W85169  28.349   4.433  11.817
14570W        W85170  29.318  18.131  12.847
14571W        W85171  37.954   2.701   3.040
14572W        W85172  29.568   7.716   3.533
14573W        W85173  28.141  13.249   2.479
14574W        W85174  37.488   0.224   0.437
14575W        W85175  23.645  10.385   4.338
14576W        W85176  33.562   4.307  14.406
14577W        W85177  38.423  13.338   1.891
14578W        W85178  28.995   6.179  11.835
14579W        W85179  29.673  30.413  12.537
14580W        W85180   9.411  38.993  11.096
14581W        W85181  18.470  44.954  14.905
14582W        W85182   5.465  42.467   0.341
14583W        W85183  25.819  13.772   0.668
14584W        W85184  23.857  22.193  11.826
14585W        W85185  38.756  29.987  13.108
14586W        W85186  43.754   8.710  14.880
14587W        W85187  31.452  11.982  12.958
14588W        W85188  28.914  16.729   1.656
14589W        W85189   3.698  15.909  11.163
14590W        W85190   7.315  13.076  10.927
14591W        W85191  17.520  35.118  13.445
14592W        W85192  25.727  14.808  11.691
14593W        W85193  14.224  44.156  14.925
14594W        W85194   1.056   0.348  14.838
14595W        W85195  22.742  41.540   3.130
14596W        W85196  20.994  28.550  14.512
14597W        W85197  25.763  16.346  12.920
14598W        W85198  34.037  23.269   1.833
14599W        W85199  19.394   5.817  12.454
14600W        W85200  22.853  43.640  13.710
14601W        W85201  11.645   3.664   1.305
14602W        W85202   5.155   2.839  13.296
14603W        W85203  13.123   4.852   3.546
14604W        W85204  36.966  28.403  10.687
14605W        W85205   0.292  27.694  13.268
14606W        W85206  19.153  32.064   4.197
14607W        W85207  30.563   7.726   1.601
14608W        W85208   0.964  11.046  11.946
14609W        W85209  41.300   7.705   1.397
14610W        W85210  15.347   7.173   3.215
14611W        W85211  32.069   3.869  11.715
14612W        W85212  35.683  42.337   3.211
14613W        W85213   5.210  20.306  11.515
14614W        W85214  33.198  28.718   0.370
14615W        W85215  31.223  33.320   0.415
14616W        W85216  39.250   6.307   2.178
14617W        W85217  26.495  31.660  12.417
14618W        W85218  31.774  14.769  13.127
14619W        W85219  20.779  30.076  12.118
14620W        W85220  16.994  41.985   0.798
14621W        W85221  12.867   8.992   4.961
14622W        W85222  44.498  19.667  14.231
14623W        W85223  14.131  25.740   5.028
14624W        W85224  34.650  27.430   3.426
14625W        W85225  42.323   8.729   4.657
14626W        W85226  32.683   4.948  12.857
14627W        W85227  43.535  38.128   4.099
14628W        W85228  30.701   6.000  11.186
14629W        W85229   8.775  33.948   1.197
14630W        W85230  36.104   5.266  13.134
14631W        W85231  21.147  33.063   3.751
14632W        W85232   2.222   0.839   4.621
14633W        W85233  24.640   2.294   2.461
14634W        W85234  16.894  40.487  13.364
14635W        W85235  33.480  26.511   4.159
14636W        W85236  10.427  35.687   3.695
14637W        W85237   2.005  13.429   0.674
14638W        W85238  42.513  17.506  14.368
14639W        W85239   3.745  44.438   2.615
14640W        W85240  11.131  13.208  12.907
14641W        W85241  12.212  21.173  13.482
14642W        W85242  13.425  36.459  14.006
14643W        W85243   4.405  38.549  14.963
14644W        W85244  16.854   8.200   2.226
14645W        W85245  12.188  33.802   0.281
14646W        W85246   8.993   2.516   1.328
14647W        W85247  41.603  11.537  12.273
14648W        W85248  38.452  38.450   3.921
14649W        W85249  15.058  38.764  11.126
14650W        W85250  16.132  21.685   0.877
14651W        W85251  24.599  22.514  12.972
14652W        W85252   1.063  26.940  14.308
14653W        W85253  10.263  32.377   1.408
14654W        W85254   3.933  42.990  10.140
14655W        W85255   6.780  30.586   3.875
14656W        W85256   6.342  10.390   0.045
14657W        W85257  10.904  20.822  12.904
14658W        W85258  42.350  11.567  13.471
14659W        W85259  20.645  35.867  11.922
14660W        W85260  10.192  39.828  11.012
14661W        W85261  42.838  11.644   4.060
14662W        W85262  16.718  11.070  11.115
14663W        W85263  12.748  16.573  12.010
14664W        W85264  19.246   5.282  14.829
14665W        W85265  30.104  32.801   0.809
14666W        W85266  30.097  38.449   2.390
14667W        W85267  20.504  21.498   3.717
14668W        W85268  10.820  43.660  12.016
14669W        W85269  16.222  39.114  10.388
14670W        W85270  17.283  44.442  13.389
14671W        W85271  20.663  30.162  10.376
14672W        W85272  35.820  40.261   4.994
14673W        W85273   0.747  31.155  11.501
14674W        W85274  20.520  23.571  11.205
14675W        W85275  39.341   5.416   0.480
14676W        W85276  14.577   7.374   0.337
14677W        W85277  20.968   3.455  11.532
14678W        W85278  12.835  32.025  13.095
14679W        W85279  20.778   6.727  12.609
14680W        W85280   4.967   3.912   2.007
14681W        W85281  23.664  34.194   2.835
14682W        W85282  18.086   6.570   4.098
14683W        W85283  12.181  30.183  10.523
14684W        W85284  18.904  36.922  10.903
14685W        W85285   4.734  32.135   0.532
14686W        W85286  35.086  27.378  12.833
14687W        W85287  24.885   3.638   1.815
14688W        W85288  15.348  41.970  11.424
14689W        W85289   0.913  31.591   0.702
14690W        W85290  38.088  38.420   2.086
14691W        W85291   6.424   7.207   3.799
14692W        W85292   8.914  20.598  11.576
14693W        W85293  21.978   4.211  13.571
14694W        W85294   8.301  25.138   2.421
14695W        W85295  26.104  28.543  14.691
14696W        W85296  43.325  20.731  12.423
14697W        W85297  25.790  36.854  12.908
14698W        W85298  11.136  27.922   4.575
14699W        W85299  19.314  34.112   4.024
14700W        W85300  17.830  17.239   2.144
14701W        W85301  42.054  40.697   3.211
14702W        W85302  18.716  17.479  12.483
14703W        W85303  11.173  18.834  14.021
14704W        W85304  24.392  31.922   3.777
14705W        W85305  31.127  20.070  14.208
14706W        W85306  34.331  43.580  12.986
14707W        W85307  26.104   9.254   3.403
14708W        W85308  14.410  18.538  12.538
14709W        W85309  25.036  26.674  11.698
14710W        W85310   7.423  12.806   4.365
14711W        W85311  20.462  42.039   0.299
14712W        W85312  30.068   1.677  14.721
14713W        W85313  15.697  26.456  14.351
14714W        W85314  24.696  18.725   1.447
14715W        W85315  20.169   1.308   3.615
14716W        W85316   6.226  18.680   2.828
14717W        W85317  38.474  36.912   4.609
14718W        W85318  38.630  18.628   1.853
14719W        W85319  28.586  21.065   3.111
14720W        W85320   2.197  23.420   4.614
14721W        W85321  26.146  13.621   2.065
14722W        W85322   7.081  41.744  14.421
14723W        W85323  25.546  41.063  13.926
14724W        W85324   2.336  22.701  11.148
14725W        W85325  12.830  16.874   3.827
14726W        W85326  32.077  30.991  11.789
14727W        W85327   6.590  41.805   0.446
14728W        W85328   7.880   4.398   1.309
14729W        W85329   8.998  33.624  11.178
14730W        W85330   8.298  31.946  14.778
14731W        W85331  18.639  15.155   2.262
14732W        W85332  30.771  18.693  12.553
14733W        W85333   8.778  14.150   1.692
14734W        W85334  18.249  15.224  12.942
14735W        W85335  20.192  41.114   4.074
14736W        W85336  31.892  41.014  14.433
14737W        W85337  26.684  33.571  14.003
14738W        W85338  27.038  18.345   2.826
14739W        W85339  38.087   4.842  12.119
14740W        W85340  23.292  24.295  11.907
14741W        W85341  19.565  19.091  14.550
14742W        W85342  40.019   6.905   1.838
14743W        W85343  42.159  21.181   2.771
14744W        W85344  29.026  13.094  13.455
14745W        W85345  29.095  31.598   2.165
14746W        W85346  22.003  38.886   2.784
14747W        W85347  27.429  24.705  11.236
14748W        W85348  23.954  39.944   2.466
14749W        W85349   0.056  38.423   1.723
14750W        W85350   8.296  33.107   4.684
14751W        W85351  11.836  22.302   2.170
14752W        W85352  14.741  31.664   0.886
14753W        W85353   4.235  26.315  13.103
14754W        W85354  40.982  37.868  12.625
14755W        W85355   1.006  12.314  14.456
14756W        W85356  38.127  27.517   2.966
14757W        W85357  11.715  17.466  14.370
14758W        W85358  20.231  31.552  12.967
14759W        W85359  39.247  27.224  13.565
14760W        W85360  40.580  41.924   3.193
14761W        W85361  29.472   4.838  14.849
14762W        W85362   0.025   3.735   2.127
14763W        W85363  12.850  35.340   4.299
14764W        W85364   2.880  24.248  13.555
14765W        W85365  37.892   5.234  14.035
14766W        W85366  22.830  43.485  11.850
14767W        W85367  30.451   8.884   1.239
14768W        W85368  13.816  29.053   4.901
14769W        W85369   4.738  12.486   3.335
14770W        W85370   6.460   6.147   1.330
14771W        W85371  39.928  25.550   2.982
14772W        W85372  36.348  21.514  13.903
14773W        W85373  19.320  30.621  11.145
14774W        W85374  38.317  12.468   4.119
14775W        W85375  36.018  10.833   0.304
14776W        W85376  23.817  38.633   3.049
14777W        W85377  28.107  21.263   3.114
14778W        W85378  26.655   0.050   4.704
14779W        W85379  43.790  34.889   2.893
14780W        W85380   5.920  31.836   3.219
14781W        W85381  23.611  13.847   4.414
14782W        W85382  42.562  13.638   3.428
14783W        W85383  38.063  22.068  10.975
14784W        W85384  16.000  32.003  12.465
14785W        W85385   8.711  16.315   2.979
14786W        W85386  11.755  27.237  13.978
14787W        W85387   4.628   1.460  12.477
14788W        W85388  44.423   4.804   9.956
14789W        W85389  32.476  41.085   5.185
14790W        W85390  25.682  33.943   0.980
14791W        W85391   6.898  36.552  14.387
14792W        W85392   2.018  10.423  13.033
14793W        W85393  44.608  13.081   2.255
14794W        W85394  22.307   9.242   4.174
14795W        W85395  21.327  13.676   4.139
14796W        W85396  15.825  33.035  14.626
14797W        W85397   4.432  32.680  10.812
14798W        W85398  14.397  11.514  10.319
14799W        W85399   9.257  14.250  11.011
14800W        W85400  41.445  31.375   3.424
14801W        W85401  34.551   1.954  13.347
14802W        W85402   6.110  40.837   2.742
14803W        W85403  34.648   8.643  12.685
14804W        W85404  28.633  40.477  11.656
14805W        W85405   4.564  16.138   2.626
14806W        W85406  41.105   0.666   1.798
14807W        W85407   1.012  26.407   0.884
14808W        W85408  37.973  35.488  11.776
14809W        W85409  28.399  29.578  14.775
14810W        W85410  22.759  44.330   2.835
14811W        W85411   0.156   4.449   0.068
14812W        W85412  40.446  20.376   0.237
14813W        W85413  37.774  38.055   4.244
14814W        W85414   3.893  41.817  14.782
14815W        W85415  23.182  20.745  11.289
14816W        W85416   8.904   9.870  13.751
14817W        W85417  25.200  15.328  11.070
14818W        W85418  23.480  18.036   2.859
14819W        W85419  20.287  42.276   1.834
14820W        W85420  13.739   7.218   0.929
14821W        W85421   6.271  27.613  13.853
14822W        W85422  18.189  11.750  11.697
14823W        W85423  21.655  25.338   2.726
14824W        W85424  20.614  17.172  13.458
14825W        W85425   0.735  41.809   4.339
14826W        W85426  37.875  42.397   1.749
14827W        W85427  35.892  32.829  14.351
14828W        W85428   4.470  44.807   2.356
14829W        W85429  36.621  22.780  13.068
14830W        W85430  31.737   7.952   3.375
14831W        W85431  26.846   2.309  11.128
14832W        W85432  43.898  19.337  13.233
14833W        W85433  27.570  19.578  12.014
14834W        W85434  39.041  34.303  12.960
14835W        W85435  16.222  32.661  13.859
14836W        W85436  38.661   6.483   4.767
14837W        W85437  14.806   7.429   3.719
14838W        W85438   2.243  43.917   3.622
14839W        W85439   7.471  10.212   2.446
14840W        W85440   5.371  18.985  11.217
14841W        W85441  25.126  35.373  12.270
14842W        W85442  27.969  15.576   0.837
14843W        W85443  29.876  14.280   3.698
14844W        W85444  15.256  36.412  11.283
14845W        W85445   2.201   5.186   3.774
14846W        W85446  36.584  39.204  12.397
14847W        W85447  12.131  24.687  10.678
14848W        W85448  23.545  43.349  14.247
14849W        W85449   7.765  26.480  14.702
14850W        W85450  37.119  20.627  13.322
14851W        W85451   0.573  42.380   4.194
14852W        W85452  39.672  21.292   2.256
14853W        W85453  36.487  28.164   4.236
14854W        W85454  27.325  17.064   0.399
14855W        W85455  17.566  44.376  12.369
14856W        W85456  36.279  22.449   0.334
14857W        W85457  26.770  35.383  11.505
14858W        W85458  21.541  38.526   4.518
14859W        W85459  26.135  15.892  13.747
14860W        W85460  16.278  32.915   1.776
14861W        W85461  43.991  20.658   3.382
14862W        W85462   6.912  16.277  10.580
14863W        W85463   7.867  13.676  14.301
14864W        W85464  41.326  34.288   2.781
14865W        W85465   9.903  12.192  14.445
14866W        W85466  44.894  23.585   2.670
14867W        W85467  42.484  41.286  12.988
14868W        W85468  18.286   4.837  13.693
14869W        W85469  27.094  12.283  13.931
14870W        W85470  35.865  12.723   2.879
14871W        W85471  24.915   0.947   4.806
14872W        W85472  39.277  24.765  14.905
14873W        W85473  41.003  26.324  14.901
14874W        W85474  28.624   0.480  10.989
14875W        W85475  14.110  36.064  12.450
14876W        W85476  22.577  16.537  11.398
14877W        W85477  40.566   0.545  12.382
14878W        W85478  12.151  32.435  13.000
14879W        W85479   7.410  11.905   4.553
14880W        W85480  18.759   0.207   2.766
14881W        W85481  37.639   7.287  11.929
14882W        W85482   0.985   3.295   4.575
14883W        W85483  24.325  25.160   3.338
14884W        W85484  30.329   7.237   1.749
14885W        W85485  20.744  31.405  12.059
14886W        W85486   3.535  28.819  10.488
14887W        W85487  20.696   2.992   2.711
14888W        W85488  13.127  28.863   2.261
14889W        W85489   0.994  25.136  10.345
14890W        W85490   5.196  19.512  11.219
14891W        W85491  24.446  12.129   3.206
14892W        W85492  21.104  37.361  11.230
14893W        W85493  37.280  29.064   4.771
14894W        W85494   8.232  37.247   0.033
14895W        W85495  19.698  44.266   5.226
14896W        W85496  12.719  19.814   3.091
14897W        W85497  22.526  13.669  12.948
14898W        W85498   3.289  27.851  12.145
14899W        W85499  29.549   8.374  11.994
14900W        W85500  21.512  13.725   4.628
14901W        W85501  35.359  24.941  12.922
14902W        W85502  10.829   5.289  11.154
14903W        W85503   9.298  17.767  11.035
14904W        W85504  44.984   1.788   0.476
14905W        W85505  29.013  12.648  11.479
14906W        W85506  19.212  44.836  14.387
14907W        W85507  44.155   6.208   1.195
14908W        W85508  30.428  10.734   4.508
14909W        W85509  39.392  38.800  12.499
14910W        W85510   2.288   2.279  10.704
14911W        W85511  43.611  44.718   3.146
14912W        W85512  14.322  20.064   0.450
14913W        W85513   0.431   1.613  12.590
14914W        W85514  10.820  31.956   3.776
14915W        W85515  37.075  36.560   0.401
14916W        W85516  10.372  20.470  14.018
14917W        W85517  38.034  15.764  14.968
14918W        W85518  42.053   0.553   1.965
14919W        W85519   4.954  42.001  13.326
14920W        W85520   9.624  10.194  13.455
14921W        W85521  16.167  13.377   2.327
14922W        W85522  36.144  40.980  11.108
14923W        W85523  17.881  21.214   1.356
14924W        W85524  39.624   8.709   2.439
14925W        W85525   7.871  21.720  13.863
14926W        W85526   1.495  35.593   1.352
14927W        W85527  19.161  40.037   4.100
14928W        W85528   5.007  17.145   4.149
14929W        W85529  10.143  11.158  11.504
14930W        W85530  37.540  38.914  11.045
14931W        W85531  33.679  31.091   2.886
14932W        W85532  30.009  33.969   4.667
14933W        W85533  27.415  27.401  12.148
14934W        W85534  16.171  26.688  12.071
14935W        W85535   4.776  42.400  14.041
14936W        W85536  19.072  18.335  14.354
14937W        W85537   9.065  39.014  10.718
14938W        W85538  26.458   5.166   3.448
14939W        W85539   2.167  34.144  12.202
14940W        W85540  19.113  26.595  13.319
14941W        W85541   6.897   4.037   3.377
14942W        W85542  14.642   1.771   4.624
14943W        W85543  11.154   7.561  13.814
14944W        W85544   9.884  22.223   1.147
14945W        W85545  25.593  35.370   2.634
14946W        W85546  27.225   9.851  12.546
14947W        W85547  43.737  27.141  13.826
14948W        W85548  26.096   5.823  13.938
14949W        W85549  30.759   7.158   4.141
14950W        W85550  28.520  43.865   1.126
14951W        W85551   9.283   7.903  13.258
14952W        W85552   5.876  19.323  10.552
14953W        W85553   9.640  42.694  13.749
14954W        W85554  30.457  12.485   0.097
14955W        W85555  20.516  40.466   2.882
14956W        W85556  24.222  36.986   2.802
14957W        W85557  27.006  31.670   0.775
14958W        W85558  25.539   8.649   4.888
14959W        W85559  17.063   5.422   3.240
14960W        W85560  13.712   3.276  10.510
14961W        W85561   1.893  42.997  11.030
14962W        W85562  33.614  14.098  11.822
14963W        W85563  40.246  36.793  14.951
14964W        W85564  17.133  40.309   2.467
14965W        W85565  39.136  37.418  11.990
14966W        W85566  20.560  30.384  11.672
14967W        W85567  43.781  16.321  12.130
14968W        W85568  15.372  38.405   1.883
14969W        W85569   7.723  41.274   4.065
14970W        W85570  12.751  22.226  12.126
14971W        W85571  39.808   7.219  11.239
14972W        W85572  26.624  34.095   3.096
14973W        W85573   2.472  44.306   1.614
14974W        W85574  18.232  33.185   1.903
14975W        W85575   4.331  39.441  14.363
14976W        W85576  38.205   2.925   3.828
14977W        W85577  42.423  24.159   1.199
14978W        W85578  37.732  19.961  11.123
14979W        W85579  20.183  32.477   4.656
14980W        W85580   8.000  25.585  14.835
14981W        W85581  29.080  13.361  14.496
14982W        W85582  25.146   8.174   3.116
14983W        W85583  15.757   3.712   0.907
14984W        W85584   4.893  13.701  12.688
14985W        W85585  31.050  40.870  13.785
14986W        W85586  37.255  14.641   3.345
14987W        W85587  41.448  10.375  13.049
14988W        W85588  20.848  20.285   0.871
14989W        W85589  33.389  12.627   0.169
14990W        W85590   6.673   9.297  12.220
14991W        W85591  33.920   7.808  11.175
14992W        W85592  37.110   8.733   1.891
14993W        W85593   9.453  21.604  12.968
14994W        W85594  39.895   0.726  13.935
14995W        W85595  13.990   2.954   4.205
14996W        W85596  29.690  26.500   1.369
14997W        W85597  33.596  31.157   1.429
14998W        W85598   3.861  35.123   0.903
14999W        W85599   5.978  25.436   0.005
15000W        W85600  34.409  29.136   4.524
15001W        W85601  12.352  35.849   2.371
15002W        W85602   3.815   6.220   2.955
15003W        W85603   2.002   7.205   1.882
15004W        W85604  42.605  17.667   4.132
15005W        W85605  32.748  22.007   1.447
15006W        W85606  11.341  40.647  12.669
15007W        W85607  44.305  40.292   1.437
15008W        W85608  17.626  22.506   1.840
15009W        W85609  18.283  15.704  13.146
15010W        W85610   6.837  44.770   3.220
15011W        W85611   4.898  36.418   3.515
15012W        W85612  14.071  41.516   5.429
15013W        W85613  41.536  15.981   3.165
15014W        W85614   6.740   2.974  10.840
15015W        W85615  14.445  16.455   1.692
15016W        W85616  44.649  36.955   1.358
15017W        W85617  37.816  43.562  13.306
15018W        W85618  40.309   3.798  14.430
15019W        W85619  34.330  15.370  11.196
15020W        W85620  31.111  28.881  11.086
15021W        W85621  23.746  25.564  12.355
15022W        W85622  12.735  13.391   3.189
15023W        W85623  22.008  15.492   3.632
15024W        W85624  14.044  44.841  14.352
15025W        W85625  30.915  30.235   1.209
15026W        W85626  39.516  19.696  12.143
15027W        W85627  20.247  17.547  14.309
15028W        W85628  16.267  41.721  10.614
15029W        W85629  40.520  28.220  14.087
15030W        W85630  21.846  25.221  11.123
15031W        W85631  42.264  25.877  11.032
15032W        W85632  37.361   5.832  12.570
15033W        W85633  44.688  24.234   2.370
15034W        W85634  35.604  39.063   1.601
15035W        W85635  27.202  36.955   4.190
15036W        W85636  40.474  18.381  10.914
15037W        W85637   5.703  16.612  14.078
15038W        W85638   2.281   9.893  11.034
15039W        W85639  10.763  34.650  14.313
15040W        W85640  16.969   7.338  11.656
15041W        W85641  18.386   0.420   0.744
15042W        W85642  39.065  21.622   0.360
15043W        W85643  15.528   6.492  10.514
15044W        W85644  43.063  19.808  12.881
15045W        W85645  35.522  17.631  14.771
15046W        W85646   9.172  21.072   1.372
15047W        W85647  40.796  29.538  10.630
15048W        W85648  39.020  14.338  12.611
15049W        W85649  23.269  17.291  13.850
15050W        W85650  35.487   6.418   4.880
15051W        W85651   6.430  25.434   2.989
15052W        W85652   1.210   3.792  11.613
15053W        W85653  44.033   8.406   3.689
15054W        W85654   1.934  34.128  12.966
15055W        W85655   7.439  28.388  13.255
15056W        W85656   0.954  35.006   0.226
15057W        W85657   8.417  14.097   2.299
15058W        W85658  27.129   8.453  10.971
15059W        W85659  20.042   1.048   4.205
15060W        W85660   3.062  33.565  11.430
15061W        W85661  15.148  25.842   4.052
15062W        W85662   8.584  43.488  12.973
15063W        W85663  32.610  12.121   3.910
15064W        W85664  10.736   2.404  12.468
15065W        W85665  29.067   8.146  14.008
15066W        W85666  19.652  32.711  13.899
15067W        W85667   5.254   8.381  13.463
15068W        W85668  35.400  23.125  11.296
15069W        W85669  38.926  13.905  12.051
15070W        W85670   2.198  14.113  11.195
15071W        W85671  30.962  34.108  11.980
15072W        W85672  41.439  43.401   1.258
15073W        W85673   7.826  11.115  11.975
15074W        W85674   5.634  19.557  10.970
15075W        W85675  43.305  35.977   2.197
15076W        W85676  44.522  31.140   3.891
15077W        W85677  28.138  31.940  11.037
15078W        W85678   6.797  27.497   3.186
15079W        W85679   8.427  34.891   0.813
15080W        W85680  12.304  42.377  13.620
15081W        W85681  22.326  13.034  11.411
15082W        W85682  41.010  22.045  14.750
15083W        W85683   3.963  42.493  14.483
15084W        W85684  21.517   1.446  13.129
15085W        W85685  24.214  18.993   3.846
15086W        W85686  19.712   1.222   3.843
15087W        W85687  32.695  15.735  14.374
15088W        W85688  23.065  43.368   4.596
15089W        W85689  30.507  11.325  13.048
15090W        W85690  25.107   1.273  13.428
15091W        W85691  43.993   7.797   3.731
15092W        W85692  40.497  31.626   1.268
15093W        W85693  27.000  42.294   4.166
15094W        W85694  19.122  37.634   0.956
15095W        W85695  36.435  20.663  11.598
15096W        W85696  27.389   4.139   3.910
15097W        W85697  21.505   0.246   0.710
15098W        W85698  24.610  18.703   3.957
15099W        W85699  25.255  41.340   3.811
15100W        W85700  41.916  42.703  13.580
15101W        W85701   3.954  22.189   4.626
15102W        W85702  40.400  22.337  14.704
15103W        W85703   2.951   1.051  10.480
15104W        W85704   3.829   0.245  11.477
15105W        W85705   1.489  13.751   3.215
15106W        W85706  28.505  28.186   3.677
15107W        W85707  41.515   0.180  10.547
15108W        W85708  19.134  30.356   2.267
15109W        W85709   1.960  37.507  14.022
15110W        W85710  31.401  22.506   2.488
15111W        W85711  20.817  40.976  14.409
15112W        W85712  31.871  23.649  11.161
15113W        W85713   7.701  10.608   2.204
15114W        W85714  23.234  40.538  13.443
15115W        W85715  30.324   9.526   2.228
15116W        W85716  43.299  25.081  13.854
15117W        W85717  23.083  26.504  12.859
15118W        W85718   8.421  32.928  14.896
15119W        W85719  42.288  17.383  14.801
15120W        W85720   3.708  38.549   4.111
15121W        W85721  12.176  28.092  13.493
15122W        W85722   5.373   0.161   2.071
15123W        W85723  42.887  40.966  13.763
15124W        W85724   6.703  19.686   0.835
15125W        W85725  10.067   3.854  14.468
15126W        W85726   6.840  23.754   0.273
15127W        W85727  28.732  10.618  12.945
15128W        W85728  34.984   2.092  12.306
15129W        W85729  33.975  21.977   3.167
15130W        W85730  11.089   3.165  13.330
15131W        W85731   1.412  28.186   0.751
15132W        W85732  27.199  27.303  10.693
15133W        W85733  37.800  10.791  12.112
15134W        W85734   3.343  23.781   4.300
15135W        W85735  10.163   5.604  13.320
15136W        W85736  14.128  32.651  14.530
15137W        W85737  29.575  17.190   2.967
15138W        W85738   4.705  28.866  13.943
15139W        W85739  41.994  30.516   0.909
15140W        W85740   1.815   8.750  14.902
15141W        W85741  21.773   1.451   3.341
15142W        W85742   6.186  14.809  12.025
15143W        W85743  12.102  10.046  11.120
15144W        W85744  44.480  40.718  10.697
15145W        W85745  14.817  12.744  14.276
15146W        W85746  14.646   9.435   0.676
15147W        W85747  16.756  34.881  10.905
15148W        W85748  32.927  26.692   4.115
15149W        W85749   5.467  23.471   0.882
15150W        W85750  40.870   1.928  11.852
15151W        W85751   2.497  23.923   4.826
15152W        W85752  27.160   6.735   3.677
15153W        W85753   8.008   2.692  13.299
15154W        W85754  21.293  29.004   2.166
15155W        W85755  25.647  20.526  10.639
15156W        W85756  41.297  31.885   4.116
15157W        W85757  43.359  34.974   4.060
15158W        W85758  41.898  11.200   0.228
15159W        W85759  28.546   5.342  12.877
15160W        W85760  25.664  19.582  10.520
15161W        W85761   7.798  36.448   4.044
15162W        W85762  14.277   2.735   0.308
15163W        W85763   5.150  35.561  14.907
15164W        W85764   0.330   1.772  11.738
15165W        W85765  30.960  42.970   4.206
15166W        W85766   6.107  44.114  11.489
15167W        W85767  43.743  19.417   1.265
15168W        W85768  41.881  13.547   4.586
15169W        W85769  37.494  33.621  14.764
15170W        W85770   0.073  38.577   4.170
15171W        W85771  13.137  12.978   1.425
15172W        W85772  31.880   7.688  12.037
15173W        W85773   3.673   1.983  14.485
15174W        W85774  27.912  17.546  12.365
15175W        W85775  41.292  12.914   0.830
15176W        W85776   0.019   2.708  13.855
15177W        W85777  11.314  34.633   3.440
15178W        W85778  26.160  22.519   3.758
15179W        W85779  41.857   6.316   0.938
15180W        W85780   4.818  34.939   4.114
15181W        W85781  12.013  21.103   2.312
15182W        W85782  26.986  28.458  14.875
15183W        W85783  19.084   8.750  12.538
15184W        W85784  14.413   8.378   2.794
15185W        W85785  18.154  20.494   4.832
15186W        W85786   3.333   9.337  10.696
15187W        W85787  12.360  32.947  11.153
15188W        W85788   3.390  41.330   3.426
15189W        W85789  29.526  38.913  10.194
15190W        W85790  34.132   0.419   3.408
15191W        W85791  14.574  12.809  12.459
15192W        W85792  38.259  28.165   1.252
15193W        W85793  42.120   3.665   4.931
15194W        W85794  16.579   3.272   0.820
15195W        W85795   3.995  35.827   4.911
15196W        W85796   0.978  42.067  12.905
15197W        W85797   4.345  44.350  11.420
15198W        W85798  17.431  27.997  11.087
15199W        W85799  25.660  13.859   1.922
15200W        W85800  29.140  34.746   0.709
15201W        W85801  18.664  35.827   4.593
15202W        W85802  23.224   8.022  13.354
15203W        W85803  32.735  23.006   3.468
15204W        W85804  12.845  23.588   2.420
15205W        W85805  12.985  23.689   3.678
15206W        W85806  25.802   3.302   2.626
15207W        W85807   2.896   1.687   2.818
15208W        W85808   3.768  36.358  12.363
15209W        W85809  11.053   4.388  12.246
15210W        W85810  31.048  37.015  13.843
15211W        W85811  12.246  18.322  14.516
15212W        W85812  11.098  32.491   0.834
15213W        W85813  29.052  42.651  11.227
15214W        W85814  29.458  39.988  11.240
15215W        W85815  37.523  10.487   4.533
15216W        W85816   4.855   9.403   3.945
15217W        W85817  44.895  26.973  12.476
15218W        W85818  20.927   9.704  14.285
15219W        W85819  13.813  24.253  13.382
15220W        W85820  22.470  41.918   2.284
15221W        W85821  41.495  44.762  12.056
15222W        W85822   2.745  36.670   4.244
15223W        W85823  28.485   7.069   3.804
15224W        W85824  44.824  10.629   2.863
15225W        W85825  21.097  27.461   2.707
15226W        W85826   5.925  14.638   4.216
15227W        W85827  24.728   7.773   1.305
15228W        W85828  41.420  28.519  14.240
15229W        W85829   7.400  18.208   1.873
15230W        W85830  44.460   3.938  11.214
15231W        W85831   9.725  42.062   3.229
15232W        W85832  36.785  13.738  11.240
15233W        W85833  32.556  43.648   2.255
15234W        W85834  29.345  21.236  14.124
15235W        W85835  12.379  11.409   0.761
15236W        W85836   6.115  44.756   1.551
15237W        W85837   9.799   8.448   4.634
15238W        W85838  21.717  22.838  11.778
15239W        W85839   2.625  20.865   4.113
15240W        W85840  23.858  23.728   1.267
15241W        W85841   6.407  29.953  12.580
15242W        W85842  16.674  32.080  14.921
15243W        W85843  42.901  24.671   0.853
15244W        W85844  19.055  28.757  12.527
15245W        W85845  12.379  12.338  10.774
15246W        W85846  17.148   9.067   5.143
15247W        W85847  23.265  30.233  14.477
15248W        W85848   7.904   8.909   2.765
15249W        W85849  12.650  32.328  10.708
15250W        W85850  28.761  29.945   0.871
15251W        W85851  27.622  27.032   1.728
15252W        W85852   0.436  43.749  13.749
15253W        W85853  10.623  41.984  11.784
15254W        W85854  27.424  34.472  10.761
15255W        W85855  42.402  41.991   2.239
15256W        W85856   1.401  28.638  12.658
15257W        W85857   7.831  43.570  13.417
15258W        W85858  11.265   8.680   1.461
15259W        W85859  20.158  24.174   4.130
15260W        W85860  25.809   2.013   1.278
15261W        W85861   4.952  22.093   0.175
15262W        W85862   0.365  14.192  11.142
15263W        W85863  27.448  44.036   2.303
15264W        W85864  16.909  18.972  14.077
15265W        W85865  19.393  40.056   9.908
15266W        W85866   4.294  24.067   2.351
15267W        W85867  40.394  23.985  14.234
15268W        W85868  27.682  34.980   3.907
15269W        W85869  18.601  42.698  14.353
15270W        W85870  31.100  34.511  11.574
15271W        W85871  25.264  16.727   4.840
15272W        W85872  26.739  10.594  12.445
15273W        W85873   3.986  29.472  14.090
15274W        W85874  11.490   6.403  13.085
15275W        W85875   9.638  20.458  12.454
15276W        W85876  11.842   7.726   0.490
15277W        W85877  42.060  27.682  12.411
15278W        W85878  18.622  41.920   4.560
15279W        W85879  39.835   6.720   1.355
15280W        W85880  29.608  40.465  12.516
15281W        W85881  43.848  43.321  14.420
15282W        W85882  32.636   2.525  14.936
15283W        W85883  28.218  36.636  10.605
15284W        W85884  42.926  11.357   0.794
15285W        W85885  36.945  37.290  12.586
15286W        W85886  35.373  29.608   4.643
15287W        W85887  18.016   7.299   0.492
15288W        W85888   1.045   0.719   3.839
15289W        W85889  40.775  10.203  14.728
15290W        W85890  25.866  20.120   3.110
15291W        W85891   6.194   1.784  10.763
15292W        W85892  15.258  21.196  10.685
15293W        W85893  24.692  22.068   3.094
15294W        W85894   0.966  33.036   2.915
15295W        W85895  12.041  42.308  10.593
15296W        W85896  38.001  17.833  12.381
15297W        W85897  44.619  34.347  10.388
15298W        W85898   9.802  22.964  11.482
15299W        W85899  35.077   1.762   0.687
15300W        W85900  44.319  42.106   0.978
15301W        W85901   7.881  37.499  10.028
15302W        W85902  23.099  43.433   3.643
15303W        W85903  34.338  36.538   4.879
15304W        W85904  20.139  27.975  12.639
15305W        W85905  41.577   8.412   0.875
15306W        W85906  18.736  20.801   4.581
15307W        W85907   1.448  20.756  12.041
15308W        W85908  25.817   1.014   0.473
15309W        W85909  27.498  17.823  12.522
15310W        W85910  11.830  28.173   3.256
15311W        W85911  26.540  33.390  11.703
15312W        W85912   4.352   8.455  10.626
15313W        W85913   4.196   9.205  11.236
15314W        W85914  10.173  39.177  11.651
15315W        W85915  44.194  15.775   2.769
15316W        W85916  34.046  25.845  11.568
15317W        W85917  41.038  18.052  12.533
15318W        W85918   7.727  19.501  12.466
15319W        W85919   1.438  39.405   0.434
15320W        W85920  22.645  15.470   4.128
15321W        W85921  29.763  38.208  14.396
15322W        W85922   8.237  31.028   1.869
15323W        W85923  26.403  35.606  13.040
15324W        W85924  14.316  29.389  10.792
15325W        W85925  36.626  12.146  13.100
15326W        W85926   8.274  19.336  10.732
15327W        W85927  26.580  37.570  14.822
15328W        W85928  26.556  44.400   0.942
15329W        W85929  18.607  10.811  10.736
15330W        W85930  22.109   8.394  10.577
15331W        W85931  36.630  26.757  14.225
15332W        W85932  31.167  42.559   5.022
15333W        W85933  16.043  11.361   3.721
15334W        W85934  12.914  34.158  11.617
15335W        W85935  21.610   4.691  14.393
15336W        W85936   7.186  38.993  13.078
15337W        W85937  24.228  35.491  11.973
15338W        W85938  14.425   0.593  14.537
15339W        W85939  27.961   6.770  13.422
15340W        W85940  38.403  34.450   3.938
15341W        W85941  19.967  41.177   4.797
15342W        W85942  27.549  26.608   4.380
15343W        W85943  18.086  42.144  13.125
15344W        W85944  25.766   9.128  10.065
15345W        W85945  32.438  35.185  11.018
15346W        W85946  22.799  21.047   5.073
15347W        W85947  42.893  28.846  14.311
15348W        W85948  38.800  37.515   2.334
15349W        W85949  43.794   5.212   3.085
15350W        W85950  37.933  19.577   0.152
15351W        W85951   3.330  40.997   0.392
15352W        W85952  13.650  44.223  10.693
15353W        W85953  43.284  36.883  13.938
15354W        W85954  30.065  34.293  13.528
15355W        W85955  21.901   2.365  12.866
15356W        W85956  22.061   3.866   1.282
15357W        W85957  13.727  44.969   4.496
15358W        W85958  36.775  21.123   3.554
15359W        W85959  40.393  32.281  14.000
15360W        W85960  28.625   7.551   3.941
15361W        W85961  26.241  23.988   2.711
15362W        W85962  16.320  34.051  11.313
15363W        W85963  23.447  28.453   1.261
15364W        W85964  15.577   2.731   3.156
15365W        W85965  15.647  28.887   1.442
15366W        W85966  41.087  16.159   2.247
15367W        W85967  17.994   4.317   2.769
15368W        W85968  25.227  41.963   1.639
15369W        W85969  19.552  28.608   0.296
15370W        W85970  25.928   2.455   1.067
15371W        W85971  11.333   1.969   4.644
15372W        W85972   9.193  33.507  11.642
15373W        W85973  22.799  20.300  14.385
15374W        W85974  44.996  37.475   2.320
15375W        W85975   7.362  31.759  14.112
15376W        W85976  24.030  10.835   2.678
15377W        W85977  29.226  32.648  12.260
15378W        W85978  27.016  17.632  12.447
15379W        W85979  39.103  18.622  14.493
15380W        W85980  42.321  20.455   2.290
15381W        W85981  14.245  15.308  12.741
15382W        W85982  11.192  10.516  12.169
15383W        W85983  22.121   2.287   4.509
15384W        W85984  15.636  14.773   2.623
15385W        W85985  15.022  41.063  13.189
15386W        W85986  14.646  28.888   0.397
15387W        W85987   5.831  39.264   1.436
15388W        W85988  29.930  16.611   1.897
15389W        W85989  16.688  38.844  12.315
15390W        W85990  26.393  26.730   1.472
15391W        W85991  13.797  41.993   0.655
15392W        W85992  24.279  36.450   4.930
15393W        W85993  36.777  30.172   1.831
15394W        W85994  38.347  44.672  14.942
15395W        W85995  10.091  35.097   3.114
15396W        W85996  28.187  11.230  10.340
15397W        W85997  26.028  38.880  10.003
15398W        W85998  28.650  41.061   0.994
15399W        W85999  33.433  11.224   2.645
15400W        W86000   7.081  14.687   0.004
15401W        W86001   2.837   9.059  13.946
15402W        W86002  19.298   2.054  11.295
15403W        W86003  32.653  44.970   1.165
15404W        W86004  35.622  43.545   0.466
15405W        W86005  17.795   8.198   4.536
15406W        W86006  38.089  35.860  11.433
15407W        W86007  25.607  33.915   2.938
15408W        W86008  29.197  40.523   0.494
15409W        W86009   9.206  12.169  13.984
15410W        W86010  18.504   4.461   3.791
15411W        W86011  44.944  17.043   4.472
15412W        W86012   8.794  42.304   1.744
15413W        W86013   0.199   0.298   3.662
15414W        W86014  27.444   1.342   2.667
15415W        W86015   1.641   2.709   1.708
15416W        W86016  14.323   5.757   0.316
15417W        W86017  28.486   8.742   0.290
15418W        W86018  11.088  38.558  13.943
15419W        W86019  33.125  43.255  11.384
15420W        W86020  17.760  13.716  14.053
15421W        W86021  26.992  44.353  12.879
15422W        W86022  31.134  30.835  13.416
15423W        W86023  20.583  11.564   4.667
15424W        W86024  31.791  26.763  10.938
15425W        W86025   0.956  33.705  14.078
15426W        W86026  18.646  11.144   3.793
15427W        W86027  36.844   0.530  10.570
15428W        W86028  13.800  19.971   0.749
15429W        W86029   7.940  29.381  13.822
15430W        W86030  41.834  21.757  10.741
15431W        W86031  32.693  33.998   2.825
15432W        W86032  17.584  40.273  12.744
15433W        W86033  39.979  38.444  12.884
15434W        W86034  15.227   4.818  10.352
15435W        W86035  10.224  19.934  14.973
15436W        W86036  25.089  42.075  11.747
15437W        W86037  31.521  27.914   4.149
15438W        W86038  25.377   4.176  14.085
15439W        W86039  29.277  26.279   5.158
15440W        W86040  31.585  31.251  14.938
15441W        W86041  18.075   7.158  14.987
15442W        W86042  19.689  26.963   3.545
15443W        W86043   9.222   9.529   3.279
15444W        W86044  31.151  23.129  13.142
15445W        W86045   5.952   1.926  14.975
15446W        W86046  25.445  18.629  13.744
15447W        W86047  17.836  39.334   1.973
15448W        W86048  40.952   6.941   5.070
15449W        W86049  26.547  38.007   1.883
15450W        W86050   2.746  17.697  10.706
15451W        W86051  25.249  41.746   0.014
15452W        W86052  12.182   5.603   4.532
15453W        W86053  16.886  43.354  13.858
15454W        W86054   3.249  39.701   0.907
15455W        W86055  40.496  24.164   0.446
15456W        W86056  16.531  16.176   3.619
15457W        W86057   0.874  10.835  13.533
15458W        W86058  12.327  22.724  13.582
15459W        W86059  22.130  23.151   0.626
15460W        W86060  30.876  43.755  12.379
15461W        W86061  10.098  20.682  14.401
15462W        W86062  12.167   2.712  11.618
15463W        W86063  18.617  23.444   1.815
15464W        W86064  12.096  40.365   2.731
15465W        W86065  14.197   1.883  12.075
15466W        W86066   7.784  29.144   3.828
15467W        W86067  12.784  16.237  11.624
15468W        W86068  29.452  14.067  13.020
15469W        W86069  18.794  27.924  13.312
15470W        W86070  38.497  14.752   0.195
15471W        W86071  18.398   6.453  11.115
15472W        W86072  24.692   9.163   1.423
15473W        W86073   9.741  11.325   2.229
15474W        W86074  24.457  26.126   0.389
15475W        W86075  28.638   3.184   3.714
15476W        W86076   5.551  33.187  10.401
15477W        W86077  39.265   5.787  11.165
15478W        W86078  37.200   3.224  12.060
15479W        W86079  11.572  34.920   1.274
15480W        W86080  31.127   6.253  11.304
15481W        W86081  44.001  28.510  12.647
15482W        W86082  41.777  16.750   0.474
15483W        W86083  34.588  42.607   0.922
15484W        W86084  34.888  15.305   4.963
15485W        W86085  10.825  21.168   1.658
15486W        W86086  44.157   4.411   3.812
15487W        W86087  27.880  11.743   4.286
15488W        W86088  30.041  22.477   3.510
15489W        W86089  16.314  38.053  13.005
15490W        W86090  34.054  22.553  11.673
15491W        W86091  20.547  40.970  10.676
15492W        W86092  41.547  25.585   2.345
15493W        W86093   7.962  43.924   2.222
15494W        W86094  26.496  23.623   4.902
15495W        W86095  10.314  37.570   4.462
15496W        W86096  14.959   6.018   3.774
15497W        W86097  44.644   9.314  12.877
15498W        W86098  22.545  33.024  12.442
15499W        W86099  16.179  33.089  12.907
15500W        W86100  42.799  14.856   4.647
15501W        W86101  40.955  26.433   3.343
15502W        W86102  24.676  27.420  14.000
15503W        W86103   3.900  21.468   4.136
15504W        W86104   6.149  22.702   3.314
15505W        W86105  23.981  41.639   4.262
15506W        W86106  36.933  16.614   3.597
15507W        W86107  15.888  33.340   0.698
15508W        W86108  40.777  31.823   0.863
15509W        W86109  23.582  29.136   0.147
15510W        W86110  39.457  30.917  12.995
15511W        W86111  37.587  24.629  12.167
15512W        W86112  29.598   8.219  13.558
15513W        W86113  10.645  11.294   0.931
15514W        W86114  35.192   2.495  12.723
15515W        W86115   4.434   4.976  12.046
15516W        W86116  22.060  13.209   3.197
15517W        W86117  19.208   2.930  11.568
15518W        W86118  33.654   1.586   2.796
15519W        W86119  10.518  37.370   1.913
15520W        W86120   4.284  33.468   2.367
15521W        W86121  44.626   6.344   4.418
15522W        W86122  13.134  14.672   3.251
15523W        W86123  14.195  30.645   3.457
15524W        W86124  28.340  16.336  13.874
15525W        W86125  16.538  24.632  14.261
15526W        W86126  12.044  32.179   1.750
15527W        W86127  37.214  31.888   3.682
15528W        W86128  25.209  36.431   0.934
15529W        W86129   3.930  32.804   0.796
15530W        W86130  34.604  43.939   0.478
15531W        W86131  36.593  28.491   3.780
15532W        W86132   9.620  19.514  10.419
15533W        W86133  15.533  38.309   0.143
15534W        W86134  38.944  26.155  10.526
15535W        W86135  35.486  13.238   0.321
15536W        W86136  22.104  30.488   2.219
15537W        W86137  44.066   0.354   2.588
15538W        W86138  40.877  27.703  13.368
15539W        W86139  31.500  30.745   0.007
15540W        W86140  42.912   4.386  11.726
15541W        W86141  43.030  28.936   0.328
15542W        W86142   5.786  15.217   4.572
15543W        W86143  15.590  20.764   3.213
15544W        W86144   4.677  15.347  10.734
15545W        W86145  43.931  28.635   4.536
15546W        W86146  38.294  30.688  11.126
15547W        W86147   6.222   7.186   4.278
15548W        W86148   6.393   4.485  13.383
15549W        W86149  28.563  14.757   2.679
15550W        W86150  10.590  37.421  11.517
15551W        W86151  28.578   9.679  12.785
15552W        W86152  43.775  25.237   1.755
15553W        W86153  11.223   4.328  13.660
15554W        W86154  27.156   1.914   3.663
15555W        W86155  40.275   1.203   1.334
15556W        W86156  38.134   0.094  11.700
15557W        W86157  41.066   3.867  11.533
15558W        W86158  44.073   6.268  14.254
15559W        W86159  43.178  39.457   3.973
15560W        W86160  35.556   5.425  13.438
15561W        W86161  40.085  21.961  11.218
15562W        W86162  37.033  32.369   1.375
15563W        W86163  10.220  43.449  13.973
15564W        W86164  20.794  35.101  10.681
15565W        W86165  43.527   4.719  14.230
15566W        W86166  20.293  33.643   4.311
15567W        W86167  11.764  13.181  11.742
15568W        W86168  22.114  44.399  14.827
15569W        W86169  27.948  11.179  11.210
15570W        W86170   8.746  33.752  11.618
15571W        W86171   3.961  31.254  14.360
15572W        W86172  28.818  14.118   2.645
15573W        W86173   8.347  15.029   4.347
15574W        W86174  29.067  39.352  14.421
15575W        W86175   5.010  35.866  11.322
15576W        W86176   9.624   0.881  13.550
15577W        W86177  21.811  42.365   4.274
15578W        W86178  24.851  30.730   1.634
15579W        W86179  22.305  40.364   0.825
15580W        W86180  34.873  37.253   4.956
15581W        W86181  19.691   5.601   1.305
15582W        W86182  11.727  21.406   0.352
15583W        W86183  44.319  25.510  12.901
15584W        W86184   7.836  20.198   0.505
15585W        W86185  42.048  32.421  13.783
15586W        W86186  20.564  27.062  14.996
15587W        W86187  33.308  35.112  12.270
15588W        W86188   1.218  36.566   1.884
15589W        W86189  44.299  20.336   0.422
15590W        W86190   0.012  35.967   2.058
15591W        W86191   3.621   0.750  11.555
15592W        W86192  10.632  39.405   2.573
15593W        W86193  25.118  32.109   2.882
15594W        W86194  11.371  10.937  12.401
15595W        W86195  18.763  35.825  12.892
15596W        W86196  19.768  17.705  12.062
15597W        W86197  38.552  18.315   2.862
15598W        W86198  14.790  26.964  14.446
15599W        W86199   1.335   9.842  10.935
15600W        W86200  20.992  18.989  12.266
15601W        W86201   4.763  26.367   2.317
15602W        W86202  26.670   6.644   0.798
15603W        W86203  40.010  42.553  13.018
15604W        W86204  41.149   8.514  10.242
15605W        W86205  20.554   4.142   4.844
15606W        W86206  27.805  23.340   0.342
15607W        W86207  35.963   5.218  11.640
15608W        W86208  28.567  34.913  10.926
15609W        W86209  11.134  15.940   5.077
15610W        W86210  13.562  30.336   1.674
15611W        W86211   8.314  33.152  11.163
15612W        W86212  23.929   8.525   3.609
15613W        W86213  11.951  11.349   1.053
15614W        W86214  30.053  36.012  13.799
15615W        W86215  11.715  33.379  11.834
15616W        W86216  19.933  18.730  14.851
15617W        W86217  34.301  14.241   1.356
15618W        W86218  19.369  19.177   1.315
15619W        W86219  25.526  33.810  12.367
15620W        W86220  14.378   0.876   3.805
15621W        W86221   8.843  25.158  10.709
15622W        W86222  13.192  12.822  12.739
15623W        W86223  36.064   0.877  14.238
15624W        W86224  14.898   3.212  12.508
15625W        W86225   6.132  17.749  11.171
15626W        W86226  26.426   1.044   1.017
15627W        W86227  11.613  12.707  14.495
15628W        W86228   8.192  33.969   0.357
15629W        W86229   9.024  27.883   0.372
15630W        W86230  24.154  37.888  12.050
15631W        W86231   0.831  32.359  12.009
15632W        W86232  37.544  13.279   0.606
15633W        W86233   9.387  41.881  13.895
15634W        W86234  23.804   5.238  13.328
15635W        W86235  32.314  44.689  14.408
15636W        W86236   1.704   8.795   1.447
15637W        W86237  35.492  20.260  11.937
15638W        W86238  19.602  24.294   3.658
15639W        W86239  17.151  11.360  11.207
15640W        W86240  13.807  27.186   0.359
15641W        W86241  22.229   5.232   4.126
15642W        W86242  10.788  37.056  11.226
15643W        W86243  42.766  42.767  14.112
15644W        W86244   5.312  25.603  10.904
15645W        W86245  13.731  39.124  11.255
15646W        W86246   5.742  15.245   2.164
15647W        W86247  27.620   3.755   3.660
15648W        W86248  10.270  33.563  14.018
15649W        W86249  10.350   3.918  12.600
15650W        W86250  22.054  42.942   1.208
15651W        W86251  33.642  10.332   0.268
15652W        W86252   1.795  13.428   2.268
15653W        W86253  20.101  24.692   2.238
15654W        W86254   2.769  24.714  14.807
15655W        W86255  29.866  17.678   0.066
15656W        W86256  33.789  19.670   5.113
15657W        W86257   6.317   0.190  12.435
15658W        W86258   6.835  32.648  12.149
15659W        W86259   3.386  25.621   2.095
15660W        W86260  39.571   7.084   1.621
15661W        W86261  15.060  20.527  12.014
15662W        W86262  16.048  31.220  10.735
15663W        W86263  12.091  27.934  11.139
15664W        W86264  28.770  15.008   2.200
15665W        W86265  39.633  25.005   2.357
15666W        W86266   9.667  25.174  11.073
15667W        W86267   2.961  26.305  12.818
15668W        W86268  37.580  37.419   4.558
15669W        W86269   4.763  44.933   2.775
15670W        W86270  11.261  25.087  14.711
15671W        W86271  18.845  11.585   5.097
15672W        W86272  33.983  29.461   4.358
15673W        W86273  17.747  12.114   2.493
15674W        W86274  35.700  16.107   2.759
15675W        W86275  17.650  30.442   4.256
15676W        W86276  36.907  17.359   2.114
15677W        W86277  26.303  37.870   3.778
15678W        W86278  14.571   0.004  11.231
15679W        W86279  37.828  12.341  12.457
15680W        W86280  28.510   0.434   2.960
15681W        W86281  19.775   8.458   0.263
15682W        W86282   2.761   3.451  11.060
15683W        W86283  30.554  30.946   2.384
15684W        W86284  42.019  29.186  11.846
15685W        W86285  17.559  20.390  11.628
15686W        W86286  28.095  33.481   3.743
15687W        W86287  41.445  21.758  10.331
15688W        W86288  34.354  33.005   4.821
15689W        W86289   4.458  37.344   1.034
15690W        W86290  34.427  34.702  13.113
15691W        W86291   8.100  38.036  13.659
15692W        W86292  44.025  31.742  14.785
15693W        W86293   8.756  14.277  11.201
15694W        W86294  36.317  15.172  14.113
15695W        W86295  37.124   7.296   1.223
15696W        W86296  35.714   2.431   0.797
15697W        W86297  37.324  16.234  11.602
15698W        W86298  34.168  27.889   2.734
15699W        W86299  29.961   8.137  12.963
15700W        W86300  34.375   6.900   4.567
15701W        W86301   3.594  15.491   9.926
15702W        W86302   7.189  18.546   2.206
15703W        W86303  39.541  30.022   1.302
15704W        W86304   5.182  36.100   3.780
15705W        W86305  10.167   1.881  11.199
15706W        W86306   4.217   0.258  11.844
15707W        W86307  30.888   2.853  13.411
15708W        W86308   3.811  19.536   2.758
15709W        W86309  34.240   2.672   4.126
15710W        W86310  26.088  19.732  12.812
15711W        W86311  44.469  12.143   4.180
15712W        W86312  17.357  35.991   2.126
15713W        W86313  27.011  29.660  10.625
15714W        W86314  39.090   6.362   0.392
15715W        W86315   1.298  17.242  14.465
15716W        W86316  15.154  12.205   2.856
15717W        W86317  29.569  17.868  12.505
15718W        W86318  37.943  16.032   1.309
15719W        W86319   4.206  17.556  11.660
15720W        W86320   8.665   0.297  13.045
15721W        W86321   8.850  26.248  12.411
15722W        W86322  44.371  11.882  14.036
15723W        W86323  35.947  16.524   1.866
15724W        W86324  38.898  24.878   1.051
15725W        W86325  15.682  33.629  13.464
15726W        W86326  30.579  31.706   3.692
15727W        W86327  17.328  37.531  10.258
15728W        W86328   5.476  10.593   4.069
15729W        W86329  32.031  17.570   2.756
15730W        W86330  41.928  19.091   3.486
15731W        W86331  27.861  39.903  11.567
15732W        W86332   8.645  30.222  13.884
15733W        W86333   7.282  17.303   4.435
15734W        W86334  38.204  30.185   0.330
15735W        W86335  17.521  23.007   1.794
15736W        W86336   9.096  19.104   4.205
15737W        W86337  39.730   2.477  14.861
15738W        W86338   0.722  31.619  14.843
15739W        W86339  16.127  37.388   2.760
15740W        W86340  43.524  16.646  12.506
15741W        W86341   8.604  40.800  13.455
15742W        W86342  29.597  16.261  12.117
15743W        W86343  14.502   5.186  14.341
15744W        W86344  10.706   5.737   4.049
15745W        W86345  22.797   5.958  11.990
15746W        W86346  15.218  32.334  14.767
15747W        W86347  26.473  42.947  11.982
15748W        W86348   1.278   3.703   0.804
15749W        W86349  14.794  10.167  13.064
15750W        W86350   0.676   1.691   3.608
15751W        W86351   2.435  30.161  12.492
15752W        W86352  37.173  38.787   0.361
15753W        W86353  32.687  28.299  13.875
15754W        W86354   3.532  21.813   1.944
15755W        W86355  28.886   5.549  13.431
15756W        W86356   9.794  12.338   0.914
15757W        W86357  33.013   4.199   1.296
15758W        W86358   1.414  12.522   3.173
15759W        W86359  29.207   3.117  12.379
15760W        W86360  16.122  15.125   4.793
15761W        W86361  11.951   2.321   1.845
15762W        W86362  34.599  36.506   1.299
15763W        W86363   9.234  23.391  14.852
15764W        W86364  20.075  33.208  14.565
15765W        W86365  26.487  15.281  14.506
15766W        W86366   6.305  26.096  13.525
15767W        W86367   2.469  42.395  11.687
15768W        W86368   8.877  17.235  10.201
15769W        W86369  22.059  33.985   1.938
15770W        W86370  36.799  27.419   0.353
15771W        W86371  12.652  25.003  11.441
15772W        W86372  22.573   2.894   0.416
15773W        W86373  27.429  12.012   4.377
15774W        W86374  25.739  36.577   4.289
15775W        W86375  36.934  18.998  14.780
15776W        W86376  15.995  25.638  12.745
15777W        W86377  43.284  29.792  10.600
15778W        W86378  35.068   2.500   3.828
15779W        W86379  19.949  12.507  13.429
15780W        W86380  34.436  14.262   2.218
15781W        W86381   4.709  20.107  13.845
15782W        W86382   5.324  38.813  11.560
15783W        W86383  13.633  36.629   0.536
15784W        W86384  27.223  12.328  12.904
15785W        W86385  38.482  23.158   0.404
15786W        W86386  38.075   4.401  10.668
15787W        W86387  22.047  20.552   2.518
15788W        W86388  37.824  22.777   2.551
15789W        W86389  21.624  26.512  11.876
15790W        W86390  35.758  37.860  12.784
15791W        W86391  19.045  27.169   0.820
15792W        W86392   5.863   6.387   0.831
15793W        W86393  32.155  24.211   1.729
15794W        W86394  39.086  40.748  13.991
15795W        W86395   6.436  39.822   4.097
15796W        W86396  32.239  22.879  14.008
15797W        W86397   1.447  14.278   0.986
15798W        W86398   4.915  35.930   3.203
15799W        W86399  17.804   1.192  12.835
15800W        W86400  30.838  17.315  12.571
15801W        W86401  10.458  23.255   4.234
15802W        W86402   8.860  21.098   3.233
15803W        W86403  26.494  36.572   3.669
15804W        W86404  31.921   6.728   4.612
15805W        W86405  39.808  36.352  10.715
15806W        W86406  34.980  21.272   0.859
15807W        W86407  19.449  31.092   1.773
15808W        W86408  16.296  13.906   0.457
15809W        W86409  17.024  31.518  13.960
15810W        W86410  34.314  38.946  12.455
15811W        W86411  41.243  23.139  10.637
15812W        W86412  12.229  34.547   3.056
15813W        W86413  11.374  36.846  12.456
15814W        W86414  14.154  34.590   0.666
15815W        W86415  15.784  32.509   3.220
15816W        W86416  40.301   8.956  10.521
15817W        W86417  31.686  36.096  14.664
15818W        W86418   4.678  19.231   4.120
15819W        W86419  19.732   4.913   3.991
15820W        W86420  16.191  23.594  14.382
15821W        W86421  15.675  37.767  14.429
15822W        W86422  31.052  44.654   1.729
15823W        W86423   9.742   9.334  13.264
15824W        W86424   4.322   5.858  11.588
15825W        W86425  28.547  18.222   2.360
15826W        W86426   5.905  28.742  12.516
15827W        W86427  27.699  34.861  12.016
15828W        W86428  21.545  42.461   0.625
15829W        W86429  17.948  44.868  14.899
15830W        W86430  38.318  35.498   4.696
15831W        W86431  34.240  41.680  11.946
15832W        W86432   9.186  27.139  11.260
15833W        W86433  31.082  39.500   4.015
15834W        W86434   8.272  24.672   2.698
15835W        W86435   5.701  44.135   3.254
15836W        W86436  36.079  38.932   4.804
15837W        W86437  35.228  17.674  12.409
15838W        W86438  39.981  13.722   2.323
15839W        W86439  41.712  14.502   3.304
15840W        W86440  17.382  18.859   0.809
15841W        W86441   6.830   4.469  14.973
15842W        W86442  18.375  18.976  11.046
15843W        W86443   7.669  20.590   3.226
15844W        W86444  37.572  16.103   1.726
15845W        W86445  22.923  26.007  11.614
15846W        W86446  11.323  18.672  12.509
15847W        W86447  40.110   8.430   4.090
15848W        W86448   3.890  44.260  11.646
15849W        W86449  28.252  41.945   3.286
15850W        W86450   4.401   8.273   0.220
15851W        W86451  44.858  20.038   4.241
15852W        W86452  21.091  31.076   0.999
15853W        W86453  22.481  42.798   2.365
15854W        W86454  33.312  44.363   3.433
15855W        W86455  32.641  15.769  12.091
15856W        W86456  12.741   0.326  14.751
15857W        W86457   2.250  12.219   4.052
15858W        W86458  34.089  18.727  14.841
15859W        W86459  19.744  14.691   0.273
15860W        W86460   6.762  17.149  13.922
15861W        W86461  38.715  19.263   1.137
15862W        W86462  23.311  39.802  12.916
15863W        W86463  44.263  23.451   0.420
15864W        W86464  31.102  23.651   1.345
15865W        W86465  28.028  25.658   0.545
15866W        W86466  22.098  37.873  14.737
15867W        W86467  27.583  25.672   1.280
15868W        W86468   3.290  42.298  11.900
15869W        W86469  16.126  36.849   3.274
15870W        W86470  27.369  24.341   0.491
15871W        W86471   5.144  10.970  10.980
15872W        W86472  32.281  43.901  14.254
15873W        W86473   5.597  14.754   0.649
15874W        W86474   3.289  32.438   5.483
15875W        W86475  20.576  17.728  12.668
15876W        W86476  18.012  40.903   0.089
15877W        W86477  30.089  33.706  10.782
15878W        W86478   3.198  40.799  13.938
15879W        W86479   4.791  40.725  10.020
15880W        W86480  21.077  10.727  13.059
15881W        W86481  23.703  14.778  10.740
15882W        W86482  24.723   5.373  11.635
15883W        W86483   3.484  27.629   2.806
15884W        W86484  42.329  41.266   2.764
15885W        W86485   0.320  14.662  12.485
15886W        W86486  15.648  15.023  12.677
15887W        W86487  10.759  17.171  12.978
15888W        W86488  40.632  10.163  10.987
15889W        W86489  28.987  37.383  14.961
15890W        W86490  18.716  36.044   2.424
15891W        W86491   8.383   2.944   1.273
15892W        W86492  43.213  18.251  12.219
15893W        W86493   4.118   7.320  14.821
15894W        W86494  11.629  32.012   0.848
15895W        W86495  11.850  25.490  11.701
15896W        W86496  29.753  43.856   0.867
15897W        W86497   3.018  37.405   1.251
15898W        W86498   0.842   1.678  11.714
15899W        W86499   1.925  42.860   1.802
15900W        W86500  15.416  28.213  12.541
15901W        W86501  15.626  29.194  11.290
15902W        W86502  42.485  35.815  14.803
15903W        W86503   4.043  44.899   1.422
15904W        W86504  12.956  40.743  10.651
15905W        W86505  20.483   8.808   3.572
15906W        W86506   9.665  44.255  14.703
15907W        W86507  22.688  20.220   0.677
15908W        W86508   3.763  42.892  12.086
15909W        W86509  31.001  31.554  12.139
15910W        W86510  17.855  11.249   0.781
15911W        W86511  10.844  41.383   0.051
15912W        W86512   3.318  18.670   3.123
15913W        W86513  30.931   5.408   0.687
15914W        W86514   5.125  25.631  13.362
15915W        W86515  11.301  23.445  11.437
15916W        W86516   2.016  44.573   0.301
15917W        W86517  25.636  29.413  14.423
15918W        W86518  27.583  18.453  11.861
15919W        W86519  13.214  22.767   0.859
15920W        W86520  44.056   6.611   1.935
15921W        W86521  31.139  33.022   1.830
15922W        W86522  26.651   1.965  10.135
15923W        W86523  37.900  14.290   2.238
15924W        W86524   0.783  18.548  14.525
15925W        W86525  12.178  22.878   0.491
15926W        W86526  17.200  27.964   2.853
15927W        W86527  26.725  38.979   4.224
15928W        W86528   3.187  41.502   1.974
15929W        W86529   5.841  15.793   2.125
15930W        W86530  35.156  23.039   2.884
15931W        W86531  43.490   8.954   3.761
15932W        W86532  11.210  34.602  14.889
15933W        W86533  30.859  13.308  11.967
15934W        W86534  41.612   9.162   0.815
15935W        W86535  19.276  21.536   4.512
15936W        W86536   2.022  16.589  13.914
15937W        W86537  22.756  25.746   2.155
15938W        W86538  13.593  28.027   2.726
15939W        W86539  22.280  34.429   0.330
15940W        W86540  34.405  30.484   3.403
15941W        W86541  36.462  30.613   1.612
15942W        W86542  21.987  31.936  11.848
15943W        W86543  24.881   1.839  13.014
15944W        W86544   1.431   3.389   1.290
15945W        W86545  32.557  20.180  14.282
15946W        W86546  42.122  43.050  14.386
15947W        W86547  10.918  32.260  13.743
15948W        W86548  32.559  20.104   0.800
15949W        W86549  34.449  30.546   2.710
15950W        W86550  11.612  38.504  13.187
15951W        W86551  23.208  22.015  12.373
15952W        W86552  26.537  14.362  13.550
15953W        W86553  16.649  23.348   2.916
15954W        W86554   6.361  37.932  12.820
15955W        W86555  24.402  32.130  14.546
15956W        W86556  24.973  31.406  13.883
15957W        W86557  40.055  24.141   2.091
15958W        W86558  25.169  41.403   0.417
15959W        W86559  12.534  41.866  12.297
15960W        W86560  10.604  22.576  14.322
15961W        W86561  29.143   0.044  13.980
15962W        W86562  33.852  37.576  11.566
15963W        W86563  27.037   9.217  14.721
15964W        W86564   9.617  28.583  14.874
15965W        W86565  28.865  21.017  13.921
15966W        W86566   6.256  13.237  12.699
15967W        W86567  23.887  16.573  11.852
15968W        W86568  24.071  35.362  12.457
15969W        W86569  44.619  23.128  10.275
15970W        W86570  15.550  31.006  14.006
15971W        W86571  34.149  21.581  11.320
15972W        W86572  38.059  20.945   2.379
15973W        W86573  10.038  32.368  12.059
15974W        W86574  31.036   1.935  14.456
15975W        W86575   0.544  35.460   0.810
15976W        W86576  25.921  26.683   4.842
15977W        W86577  10.700   1.628   2.181
15978W        W86578  38.979  37.387  14.808
15979W        W86579  18.854  25.709   2.544
15980W        W86580  27.904   9.446  14.560
15981W        W86581  16.975  36.365  13.670
15982W        W86582  36.901  10.102  14.829
15983W        W86583   2.163   9.316  12.691
15984W        W86584  22.430   4.456   2.722
15985W        W86585  33.732   1.969  13.783
15986W        W86586  28.667  23.515   3.318
15987W        W86587  40.395   0.273  11.981
15988W        W86588  24.047   4.580   4.584
15989W        W86589  28.226  22.586  11.908
15990W        W86590  12.635   6.122  12.035
15991W        W86591   2.291   3.347   4.118
15992W        W86592  18.752  10.429  11.056
15993W        W86593  43.914   9.994  11.609
15994W        W86594  41.336  16.499  10.747
15995W        W86595   8.010  40.614  14.703
15996W        W86596   5.854  12.677  12.463
15997W        W86597  26.697  21.186  13.088
15998W        W86598   8.629   6.824   1.855
15999W        W86599  32.384  40.074   0.154
16000W        W86600  17.653  42.019   1.439
16001W        W86601   9.392  21.349   4.027
16002W        W86602  39.779  21.549   3.922
16003W        W86603  20.609  44.747   2.335
16004W        W86604  33.661  28.456   0.258
16005W        W86605  11.750  28.087  13.815
16006W        W86606   5.693  32.987  13.472
16007W        W86607  34.541  20.770  11.729
16008W        W86608  44.282   2.104   4.550
16009W        W86609  28.140  33.030  10.632
16010W        W86610   3.774   7.675  11.499
16011W        W86611   0.418  12.395  11.201
16012W        W86612  33.082  24.472   3.144
16013W        W86613  21.158  17.867   3.201
16014W        W86614  35.907  23.558  14.300
16015W        W86615  15.471  16.263   3.665
16016W        W86616  22.634  22.474  10.031
16017W        W86617  44.702  35.853  10.252
16018W        W86618  27.403  27.921  14.889
16019W        W86619  19.156   0.348  14.284
16020W        W86620   0.975  35.371  14.854
16021W        W86621  15.864  30.474   1.940
16022W        W86622  28.534   8.587  13.896
16023W        W86623  18.100  42.551  11.405
16024W        W86624  17.570   3.455  11.186
16025W        W86625   2.816   4.204  14.321
16026W        W86626  16.845  15.401   4.581
16027W        W86627  38.349   0.819   2.206
16028W        W86628  29.557   7.906  14.847
16029W        W86629  18.050  39.673   3.268
16030W        W86630  41.457  33.252  12.886
16031W        W86631  24.079  31.333   3.147
16032W        W86632  39.398  34.447  14.514
16033W        W86633  25.137  15.940  13.709
16034W        W86634  22.812  19.018  11.872
16035W        W86635  20.379   2.452   0.050
16036W        W86636  43.445  30.957   1.370
16037W        W86637  40.459  11.362  11.644
16038W        W86638  26.185  36.591   2.351
16039W        W86639  32.119  42.814   1.286
16040W        W86640   9.292  44.326   1.402
16041W        W86641   5.003  10.021   4.975
16042W        W86642  12.325  24.567  14.956
16043W        W86643   1.161  25.066   1.772
16044W        W86644  38.433  35.345   0.669
16045W        W86645  17.534  29.986   0.242
16046W        W86646   0.379  34.174   4.842
16047W        W86647   1.351  30.197   0.278
16048W        W86648  34.067  16.331  11.087
16049W        W86649  10.190  34.092  13.155
16050W        W86650  28.006  28.033   3.778
16051W        W86651   0.484  13.607  12.505
16052W        W86652  28.069  37.330   4.339
16053W        W86653  37.162  26.603  13.243
16054W        W86654  15.299  18.704   0.760
16055W        W86655  36.987  21.266  11.044
16056W        W86656   7.820  23.653   1.433
16057W        W86657  43.810  29.564   1.359
16058W        W86658   7.665  38.564  13.059
16059W        W86659  12.768  19.592   1.656
16060W        W86660  18.072  38.805  14.611
16061W        W86661  35.116  16.066  13.327
16062W        W86662   8.386  31.182   0.905
16063W        W86663  15.893  12.552  11.602
16064W        W86664  38.301   2.735  10.842
16065W        W86665  44.760   6.853  13.774
16066W        W86666  37.471  41.702   1.003
16067W        W86667  42.904  27.673  14.732
16068W        W86668  39.448   7.872  12.304
16069W        W86669  25.524  35.835   3.177
16070W        W86670  39.119  33.596   4.182
16071W        W86671  41.193  12.588   4.258
16072W        W86672  44.036  13.816  11.149
16073W        W86673  13.519   6.685   3.716
16074W        W86674  26.531   6.245   2.535
16075W        W86675   9.643  19.231  11.792
16076W        W86676   2.470  34.042  14.844
16077W        W86677  33.532  36.904   0.575
16078W        W86678  31.889  21.765   4.936
16079W        W86679  21.307  41.037   0.328
16080W        W86680  41.929  13.554   2.336
16081W        W86681  13.836  13.975  11.877
16082W        W86682  10.302  14.735  14.880
16083W        W86683  21.785  35.389  11.793
16084W        W86684  43.532  12.034  13.021
16085W        W86685  12.248  40.265  10.653
16086W        W86686  34.213  33.943  13.538
16087W        W86687  23.505  19.674  10.560
16088W        W86688   7.921  19.386   1.997
16089W        W86689  21.428  30.111   0.263
16090W        W86690  34.215   0.924   4.111
16091W        W86691  20.439  18.689  12.492
16092W        W86692   7.123  21.512   3.277
16093W        W86693   4.835  20.994   1.763
16094W        W86694   4.331  12.712  10.412
16095W        W86695   7.190  41.911  10.915
16096W        W86696  44.392  37.832   3.344
16097W        W86697  18.763  44.811  12.336
16098W        W86698   5.082  33.037  14.853
16099W        W86699   9.222  11.747   4.586
16100W        W86700  29.586  26.218  13.424
16101W        W86701  28.535  21.698  14.510
16102W        W86702  10.085  14.019  13.440
16103W        W86703  19.642  19.985  12.921
16104W        W86704  11.896  26.234   2.659
16105W        W86705  20.115  31.942  13.759
16106W        W86706  33.169  19.379  11.291
16107W        W86707  20.626  42.535  13.103
16108W        W86708  42.300  34.408   1.269
16109W        W86709   2.770  34.012  11.262
16110W        W86710   3.559  30.068  13.245
16111W        W86711  44.743  15.585  10.730
16112W        W86712  35.031  43.952   1.440
16113W        W86713  38.811  17.086   1.821
16114W        W86714   6.917  35.557   0.326
16115W        W86715   3.890  44.263  12.584
16116W        W86716  30.598  15.397  11.545
16117W        W86717  12.057  42.891   2.255
16118W        W86718   1.742  12.849   3.926
16119W        W86719  19.459  27.573   1.895
16120W        W86720  32.513  30.235   1.403
16121W        W86721   6.388  27.986   0.011
16122W        W86722   6.766  17.604  12.007
16123W        W86723  41.402   1.781  14.574
16124W        W86724  39.295  39.040   2.566
16125W        W86725  33.637   8.467   4.297
16126W        W86726   1.848  37.495  11.209
16127W        W86727   6.201  25.761  11.136
16128W        W86728  19.985  13.119  11.268
16129W        W86729   0.179   3.413  13.524
16130W        W86730  23.302  28.004   5.005
16131W        W86731  14.203   6.778  13.302
16132W        W86732   4.294   4.860  13.435
16133W        W86733  42.318  14.123   4.670
16134W        W86734  25.121  35.747  10.937
16135W        W86735  40.831  12.789  12.111
16136W        W86736  25.653  19.405   4.981
16137W        W86737  14.115   5.039   3.161
16138W        W86738  37.634  35.005   2.457
16139W        W86739  21.673  30.610  12.669
16140W        W86740  28.552  25.282  13.375
16141W        W86741  41.868  40.472   1.081
16142W        W86742  35.981  24.158   4.697
16143W        W86743  36.839  36.898   0.051
16144W        W86744  40.040   5.709  12.519
16145W        W86745   1.448  16.054   2.733
16146W        W86746  27.433  39.718   5.506
16147W        W86747   8.795  11.948   4.159
16148W        W86748   8.768  28.252   4.038
16149W        W86749  29.456   6.252  12.160
16150W        W86750  19.251  22.847  13.395
16151W        W86751   4.716   6.649  13.868
16152W        W86752  26.039  20.528   3.437
16153W        W86753   2.289  35.901   4.468
16154W        W86754  32.655  40.481  12.219
16155W        W86755   1.293  25.721  11.532
16156W        W86756   1.577  36.363   4.633
16157W        W86757  28.178   9.890  10.739
16158W        W86758  32.935   7.665   3.566
16159W        W86759  16.550  29.430   2.197
16160W        W86760  12.095   1.563   1.076
16161W        W86761   5.372  30.319   3.430
16162W        W86762  10.579  25.638   3.985
16163W        W86763   5.827  34.903   2.934
16164W        W86764  35.704   7.810  14.057
16165W        W86765  24.994  38.619   2.317
16166W        W86766  19.238   0.985  14.957
16167W        W86767  27.535  27.611   4.344
16168W        W86768  44.190  33.724  11.989
16169W        W86769  12.442  12.780  14.712
16170W        W86770  43.072  40.830   1.267
16171W        W86771  20.177  33.559   4.806
16172W        W86772  32.505  19.979  12.906
16173W        W86773  11.816  38.512  11.694
16174W        W86774   0.453   2.301  13.932
16175W        W86775  21.686  42.361   2.364
16176W        W86776  40.777  39.765  14.320
16177W        W86777  29.937  34.762   3.884
16178W        W86778  22.578  24.494   1.335
16179W        W86779  20.981   3.231   1.419
16180W        W86780  34.381  22.825   0.339
16181W        W86781  11.583  28.145   3.696
16182W        W86782  40.344  13.104  13.072
16183W        W86783  13.337  35.411   3.413
16184W        W86784   7.219  19.079   4.773
16185W        W86785  23.886   8.792   1.650
16186W        W86786  29.625   8.696   1.089
16187W        W86787  23.674  15.199  14.745
16188W        W86788  33.100  11.260  13.039
16189W        W86789  32.549   1.257   4.479
16190W        W86790  35.966  30.305  12.015
16191W        W86791   1.708   0.918  11.685
16192W        W86792   3.834  44.513  14.763
16193W        W86793   3.238   8.719   1.407
16194W        W86794  14.124  29.198  11.232
16195W        W86795  20.401  33.169  13.304
16196W        W86796   0.295  44.771   3.691
16197W        W86797   7.797  40.610   4.637
16198W        W86798  26.617  15.035  11.194
16199W        W86799   4.937   7.506   1.403
16200W        W86800  33.606  30.053   1.754
16201W        W86801  10.865  37.659  13.637
16202W        W86802  39.017  28.256   0.061
16203W        W86803   2.989  15.262   2.875
16204W        W86804   7.453  39.858  14.273
16205W        W86805  12.311  41.308  10.654
16206W        W86806  32.456  10.162   4.850
16207W        W86807  11.725  37.279  12.533
16208W        W86808  18.806  37.152  12.131
16209W        W86809  15.771   9.560   1.772
16210W        W86810  28.499  15.051  11.297
16211W        W86811  31.916  43.215   0.999
16212W        W86812  29.631   3.735  11.244
16213W        W86813  25.062  39.744  13.898
16214W        W86814  30.602  41.912  13.007
16215W        W86815  10.558  41.066   0.794
16216W        W86816  31.868   8.651  14.792
16217W        W86817  12.005  29.592   0.348
16218W        W86818   2.917  30.849  13.490
16219W        W86819  11.092  19.668  11.539
16220W        W86820  26.049  29.028   4.315
16221W        W86821  21.113   5.455   2.359
16222W        W86822  29.474  38.899   1.421
16223W        W86823  34.853  33.878  11.186
16224W        W86824  15.495  43.881   1.763
16225W        W86825  36.360   4.812   2.453
16226W        W86826  24.702  39.426  13.292
16227W        W86827  39.566  31.189  13.438
16228W        W86828  31.278  25.226  12.122
16229W        W86829  12.618  38.932  11.170
16230W        W86830  44.994  27.484   1.413
16231W        W86831  16.167  22.010   4.953
16232W        W86832  24.558   9.734  13.043
16233W        W86833   4.389  16.027  13.160
16234W        W86834  13.213  14.906  11.102
16235W        W86835  22.341   8.169   3.531
16236W        W86836   2.953  27.242   0.797
16237W        W86837   4.657  14.811  11.927
16238W        W86838   7.846   8.245  13.899
16239W        W86839  27.037  27.729   0.811
16240W        W86840  40.953   3.328   3.387
16241W        W86841   4.221  32.089   1.742
16242W        W86842  19.924  38.732  10.768
16243W        W86843  26.643  17.201   5.026
16244W        W86844  30.624   2.444  12.823
16245W        W86845  29.070   0.158   2.170
16246W        W86846   2.868  26.232   1.825
16247W        W86847  14.381   2.522  13.941
16248W        W86848  13.538  14.660   3.623
16249W        W86849   7.239  20.219   2.704
16250W        W86850  33.896   4.885  12.740
16251W        W86851  40.111  41.426  10.516
16252W        W86852  26.945  42.349   3.233
16253W        W86853  44.770  24.222   4.675
16254W        W86854  36.666  12.569   3.604
16255W        W86855   7.465  31.346  11.580
16256W        W86856  43.852  16.274  14.446
16257W        W86857  10.639  22.151   3.624
16258W        W86858   3.883   9.902   3.243
16259W        W86859  24.242  43.919  14.831
16260W        W86860   9.430  37.568   2.364
16261W        W86861  28.543  28.739   1.819
16262W        W86862  35.439   6.926  12.255
16263W        W86863  39.142  32.059  10.969
16264W        W86864  11.334  24.960  12.424
16265W        W86865   9.831  33.933   2.025
16266W        W86866  35.821  36.614   2.345
16267W        W86867  26.471   6.940   1.714
16268W        W86868  24.232  44.843   3.536
16269W        W86869  22.906  20.075   2.489
16270W        W86870  42.978  28.601  11.119
16271W        W86871   5.626  25.825   0.038
16272W        W86872   2.286  40.608  10.418
16273W        W86873   0.800  23.757   0.913
16274W        W86874  37.800  44.050  10.084
16275W        W86875  38.331  16.539   3.281
16276W        W86876   7.357  40.241   1.476
16277W        W86877  32.473  38.852   3.298
16278W        W86878  38.972  21.652   3.301
16279W        W86879  24.192   4.328   0.432
16280W        W86880   2.445   0.464  10.922
16281W        W86881   2.023  39.036   3.601
16282W        W86882  35.876   7.217  14.062
16283W        W86883  19.089   4.569  12.074
16284W        W86884  36.087  19.817  11.523
16285W        W86885  20.449   0.384   3.269
16286W        W86886  41.007  28.385  12.064
16287W        W86887   7.636  11.392  11.565
16288W        W86888  38.506  35.420  12.895
16289W        W86889  43.460  11.530  13.173
16290W        W86890   1.739   0.324  13.841
16291W        W86891  16.686  28.195   2.409
16292W        W86892   9.257  43.063  12.513
16293W        W86893  32.616  19.522  14.874
16294W        W86894   9.117  12.776   3.086
16295W        W86895   7.938   0.371   1.815
16296W        W86896  33.817  44.059   1.731
16297W        W86897  29.354  19.648   2.188
16298W        W86898  23.955  39.366  11.610
16299W        W86899  20.518  42.968  11.754
16300W        W86900  23.684  18.790  12.504
16301W        W86901  25.494  19.130  13.544
16302W        W86902  23.137   3.688   2.700
16303W        W86903  36.978   4.997   0.642
16304W        W86904  20.142  16.767   2.317
16305W        W86905   8.732  23.205  13.793
16306W        W86906  15.436  44.858   3.672
16307W        W86907   7.956  10.361   3.839
16308W        W86908  29.586  20.504   1.900
16309W        W86909  39.789  10.086  14.535
16310W        W86910  33.848   2.185  10.755
16311W        W86911  27.092  39.347  10.678
16312W        W86912  29.041   7.679  13.066
16313W        W86913  26.218   1.351   4.441
16314W        W86914  22.995  11.182  11.148
16315W        W86915  31.044   0.088  14.765
16316W        W86916  19.276   5.674  13.326
16317W        W86917  21.797  42.085   3.683
16318W        W86918  43.385  21.884  14.888
16319W        W86919   1.048  33.420   3.266
16320W        W86920  19.016   9.720  14.476
16321W        W86921   7.616  32.087   2.761
16322W        W86922  35.064  22.079   1.970
16323W        W86923  10.462  38.244   0.834
16324W        W86924  10.358   8.812   1.619
16325W        W86925  10.661  42.255   2.885
16326W        W86926  11.105   9.231  12.453
16327W        W86927  42.437  33.678  11.901
16328W        W86928   6.257  21.707   1.749
16329W        W86929  15.755  29.466  11.726
16330W        W86930   8.749  37.542   3.134
16331W        W86931  12.243  10.729  12.885
16332W        W86932  40.234  22.132  12.147
16333W        W86933  37.292  20.583  12.022
16334W        W86934   8.299  35.998  10.864
16335W        W86935  25.478  40.922   3.178
16336W        W86936  21.517  36.382  12.160
16337W        W86937  31.357   2.490  11.116
16338W        W86938  28.667   6.936  14.852
16339W        W86939  21.581  13.892   5.107
16340W        W86940  38.272   6.950   4.007
16341W        W86941  38.808  12.666  12.410
16342W        W86942  16.573   0.230  14.828
16343W        W86943  25.145  14.482  14.839
16344W        W86944   9.088  32.458  11.178
16345W        W86945  28.719  34.475  11.160
16346W        W86946  34.943  43.490   1.665
16347W        W86947  22.532  43.007   3.264
16348W        W86948  28.637  29.037   0.444
16349W        W86949  12.334  43.718  14.969
16350W        W86950  13.113  20.033  10.647
16351W        W86951  27.988  30.368   2.915
16352W        W86952   9.371   1.427  10.791
16353W        W86953  20.178   6.089  14.204
16354W        W86954  35.417   8.242  13.912
16355W        W86955   4.380  17.109   1.434
16356W        W86956  23.966   0.881   2.880
16357W        W86957  20.190  43.229  12.031
16358W        W86958  17.659  34.809   3.590
16359W        W86959  19.938   5.715  14.498
16360W        W86960  42.527  39.929   4.440
16361W        W86961  33.523   2.992  10.768
16362W        W86962  34.177  43.281   2.805
16363W        W86963   6.753  37.538   1.257
16364W        W86964   0.924  18.598   3.336
16365W        W86965  23.536  34.425   4.757
16366W        W86966  35.971  41.141  11.550
16367W        W86967  34.382  18.307   1.472
16368W        W86968  29.003   2.511  12.050
16369W        W86969  34.163   0.480   4.721
16370W        W86970   4.714  21.368  14.260
16371W        W86971  29.626   3.957   3.820
16372W        W86972   4.789  25.604   4.041
16373W        W86973  24.551   4.824   2.365
16374W        W86974  22.841   6.375  12.967
16375W        W86975  12.672   1.065   1.425
16376W        W86976  16.233  42.213   4.296
16377W        W86977  33.634  23.177   2.227
16378W        W86978  10.830  24.196  11.690
16379W        W86979   0.523  40.799   2.427
16380W        W86980  30.477  19.313  11.104
16381W        W86981  18.592   5.248  13.694
16382W        W86982  33.121   1.998   1.909
16383W        W86983  44.739  43.407   1.771
16384W        W86984  11.346  44.360   4.141
16385W        W86985  36.599  33.572   3.760
16386W        W86986  26.487   2.849  11.942
16387W        W86987   6.070   3.448  11.140
16388W        W86988   8.677  31.549  11.986
16389W        W86989  21.611  12.836  12.577
16390W        W86990  26.626   8.507   3.035
16391W        W86991  44.821  13.302   1.653
16392W        W86992  11.117  25.767  12.859
16393W        W86993  32.237   2.382  13.989
16394W        W86994  31.626  33.685  13.086
16395W        W86995  12.907  29.949   0.684
16396W        W86996  35.926  15.081   4.628
16397W        W86997  24.267   6.904   2.793
16398W        W86998  13.829   6.784  14.871
16399W        W86999  12.013   4.776  12.537
16400W        W87000  32.108  29.561   3.687
16401W        W87001  41.852  28.191  12.464
16402W        W87002   6.217  19.573   2.350
16403W        W87003  32.069  23.181   2.670
16404W        W87004  42.299  33.157  11.068
16405W        W87005  27.878  33.030   0.164
16406W        W87006  39.900  40.646   3.577
16407W        W87007   6.770   2.504   1.800
16408W        W87008  44.044  16.995  13.070
16409W        W87009  19.769  28.494  11.941
16410W        W87010   5.243  37.046  13.041
16411W        W87011  15.064   1.074   3.169
16412W        W87012  36.578   5.356  12.376
16413W        W87013  23.497  39.678   3.385
16414W        W87014  11.715  10.463   0.025
16415W        W87015  44.154  11.638  14.902
16416W        W87016  12.636  27.681   2.257
16417W        W87017   5.640  15.583  13.050
16418W        W87018   5.067  27.437  10.757
16419W        W87019  17.207  44.556   5.049
16420W        W87020  21.127  32.435   3.028
16421W        W87021  23.124   2.254  11.132
16422W        W87022  13.158  37.049   2.618
16423W        W87023  34.637  30.136   3.770
16424W        W87024   9.722  22.984  12.367
16425W        W87025  30.331  37.249   4.198
16426W        W87026  13.538  37.077  11.196
16427W        W87027  28.469  11.237   4.675
16428W        W87028  11.615   1.239  12.605
16429W        W87029  19.112  13.589  11.027
16430W        W87030  19.447  27.929   2.379
16431W        W87031   6.443  16.082  13.042
16432W        W87032  23.594  31.549  13.467
16433W        W87033   4.522  28.759   0.467
16434W        W87034   8.677  15.075   2.162
16435W        W87035  35.431   6.226   2.893
16436W        W87036  27.421  24.841   0.304
16437W        W87037  18.597  21.824  12.642
16438W        W87038  31.130  26.586  13.959
16439W        W87039  40.278   1.990  12.663
16440W        W87040  26.546  37.105  14.291
16441W        W87041  28.013  24.411  13.563
16442W        W87042   6.601  34.895   1.288
16443W        W87043   9.859  20.893  10.287
16444W        W87044   3.391  39.391   3.655
16445W        W87045  13.644  18.615  14.885
16446W        W87046  18.724   1.571  12.955
16447W        W87047  25.633   4.637   3.282
16448W        W87048  33.076  18.018   4.561
16449W        W87049  27.035  36.217  13.553
16450W        W87050  26.044   5.916   1.224
16451W        W87051   7.307  19.793  14.352
16452W        W87052  34.061  18.837   4.055
16453W        W87053  38.520   4.679   1.289
16454W        W87054   2.765  42.802   4.196
16455W        W87055   4.332   2.448   4.531
16456W        W87056  36.623  36.951  10.905
16457W        W87057  40.979  18.628   0.525
16458W        W87058  28.580  35.265  14.791
16459W        W87059  14.593   2.560   1.783
16460W        W87060  39.552  25.038  12.603
16461W        W87061   7.302  24.955   0.082
16462W        W87062  33.968  24.891  12.445
16463W        W87063  19.656  39.442   0.955
16464W        W87064  14.768  11.695  13.365
16465W        W87065  15.961  17.191   3.735
16466W        W87066  25.557  37.296   1.333
16467W        W87067  30.794   8.299  12.598
16468W        W87068  27.654  19.120  12.943
16469W        W87069   6.970   5.404  12.195
16470W        W87070  33.518  43.896   4.643
16471W        W87071   4.464  23.797   1.368
16472W        W87072  36.743   0.553  12.119
16473W        W87073  21.639  30.672   2.677
16474W        W87074  22.577  29.037  12.659
16475W        W87075   3.839   0.427   2.797
16476W        W87076  29.920  21.572   2.690
16477W        W87077  38.963  33.145  12.373
16478W        W87078  36.466  32.205  11.988
16479W        W87079  40.848  37.535   3.783
16480W        W87080  25.517  41.545   3.366
16481W        W87081  16.466  24.939   1.891
16482W        W87082   4.575  25.345   3.133
16483W        W87083  26.535  12.201  12.951
16484W        W87084  28.551   6.558  13.533
16485W        W87085  27.141  37.549  12.817
16486W        W87086  37.871  36.185   5.032
16487W        W87087  15.916  44.552   2.190
16488W        W87088  41.469  14.797  13.950
16489W        W87089  35.070  35.350  14.615
16490W        W87090   2.821  27.808   4.791
16491W        W87091  19.762   5.004   9.931
16492W        W87092   0.510  31.649  11.520
16493W        W87093  23.524   2.661  14.507
16494W        W87094  41.483  32.023  11.120
16495W        W87095  23.016   3.762   1.144
16496W        W87096   7.525  35.807   1.362
16497W        W87097  35.540  35.667   2.681
16498W        W87098  36.959  22.913   0.958
16499W        W87099  20.996  31.087   4.541
16500W        W87100  41.777  28.147   4.529
16501W        W87101  14.048  22.876  14.568
16502W        W87102  26.001   5.185   1.677
16503W        W87103  42.685  29.320   3.693
16504W        W87104  16.281   6.496  11.589
16505W        W87105  44.962   2.372  14.241
16506W        W87106  44.676  43.958  11.187
16507W        W87107  37.278  22.107   4.041
16508W        W87108   0.230  30.065  12.899
16509W        W87109  40.923  35.182  12.885
16510W        W87110   4.424  34.972  12.164
16511W        W87111   9.966  25.464   0.428
16512W        W87112  19.954  27.392   2.770
16513W        W87113   8.159  30.103   1.718
16514W        W87114  28.150  26.677   5.011
16515W        W87115  41.774  42.213  13.528
16516W        W87116  41.812  33.534  10.232
16517W        W87117   0.503  29.597  14.486
16518W        W87118  34.943  28.399  11.646
16519W        W87119  40.353  44.933  14.071
16520W        W87120  22.655   4.580  10.402
16521W        W87121   9.174   7.282   4.952
16522W        W87122  23.250   7.753  11.647
16523W        W87123  36.373  34.861  13.455
16524W        W87124   7.487  32.941  12.899
16525W        W87125  37.541   8.104  14.984
16526W        W87126   2.762  16.986  11.885
16527W        W87127  27.953   7.185   4.625
16528W        W87128  20.856   6.880   1.789
16529W        W87129  28.811  42.524  10.771
16530W        W87130   9.407   8.672   3.118
16531W        W87131  29.264   3.878   0.930
16532W        W87132   4.689  13.364   1.225
16533W        W87133  43.342  13.846  10.627
16534W        W87134  32.674  20.514   0.015
16535W        W87135  25.652  13.530  14.457
16536W        W87136  40.251  43.081  14.423
16537W        W87137  44.825   7.714   1.183
16538W        W87138  39.040  37.905   0.551
16539W        W87139  10.232  18.132   0.199
16540W        W87140  35.015  43.696  11.010
16541W        W87141  27.943  39.082  11.971
16542W        W87142  11.849  23.249   4.110
16543W        W87143   6.154  28.841  10.173
16544W        W87144  32.453   8.255   0.748
16545W        W87145  40.958   8.170  12.469
16546W        W87146  23.673  14.672  14.844
16547W        W87147  18.268  32.174  10.353
16548W        W87148  28.240  14.374  14.876
16549W        W87149  12.149  24.625  12.055
16550W        W87150  16.249  44.732  10.428
16551W        W87151  33.668  14.454   0.234
16552W        W87152  35.901  23.040   0.891
16553W        W87153  42.011   0.465   0.926
16554W        W87154  38.038   3.001  12.155
16555W        W87155  26.025  11.554   2.767
16556W        W87156  21.495  38.295  11.670
16557W        W87157  40.305  39.046  11.278
16558W        W87158  17.282   4.936   3.288
16559W        W87159  26.640  15.030  13.025
16560W        W87160   0.134  29.526  13.108
16561W        W87161  43.745  14.153   1.457
16562W        W87162  40.094  24.193   4.057
16563W        W87163  44.259  38.512   4.611
16564W        W87164   4.413  34.880   5.256
16565W        W87165   5.808  19.549   3.330
16566W        W87166  20.167  34.566   2.938
16567W        W87167  17.862  42.868   1.220
16568W        W87168   2.046   1.968  14.031
16569W        W87169  33.527  39.788  14.314
16570W        W87170  38.850  19.663   5.004
16571W        W87171  16.817   5.349   1.995
16572W        W87172  35.995  30.958  14.516
16573W        W87173  21.074  44.399   3.205
16574W        W87174  29.410  10.667  13.515
16575W        W87175  15.597  25.729  14.959
16576W        W87176   7.430  27.974  14.065
16577W        W87177  42.489  32.159   3.638
16578W        W87178  10.290  36.399  13.796
16579W        W87179  15.513  10.294   4.172
16580W        W87180   4.737  35.921  13.079
16581W        W87181  10.565  11.628  12.598
16582W        W87182  25.256  35.421  13.332
16583W        W87183  39.026  15.471  14.010
16584W        W87184   1.031  43.490   0.427
16585W        W87185  26.729  17.229   4.161
16586W        W87186  42.990   8.415  12.686
16587W        W87187  27.045   3.322   2.178
16588W        W87188  23.169  44.842  10.741
16589W        W87189  30.923  14.763   3.203
16590W        W87190   8.274  21.203  14.477
16591W        W87191  41.591  20.778   4.599
16592W        W87192  30.896   0.020  11.045
16593W        W87193  20.426  37.514   2.477
16594W        W87194  24.593  36.113   3.878
16595W        W87195  18.817  20.504   2.961
16596W        W87196  11.130  29.987   1.773
16597W        W87197   1.745  37.688   0.080
16598W        W87198  13.152  15.356   2.827
16599W        W87199  12.793  29.413   0.039
16600W        W87200  27.223  40.705  13.830
16601W        W87201   4.910  17.105  11.128
16602W        W87202   6.212   2.423  14.866
16603W        W87203  31.088  34.949   4.319
16604W        W87204   4.627   1.282   1.514
16605W        W87205   8.749   3.377   3.302
16606W        W87206  23.495  21.247  10.877
16607W        W87207   7.250  12.613  11.852
16608W        W87208  42.355  13.084  11.112
16609W        W87209  41.481  18.418   0.303
16610W        W87210  29.705  17.167   0.023
16611W        W87211  31.451   8.219   3.727
16612W        W87212  44.038   8.860  13.658
16613W        W87213  36.020  31.225   0.937
16614W        W87214  10.750  26.696  11.123
16615W        W87215   4.423   4.313   4.207
16616W        W87216  44.448  25.972  11.151
16617W        W87217  43.513  29.571   3.941
16618W        W87218  29.418  17.050  10.708
16619W        W87219  37.881  31.036  13.063
16620W        W87220   5.746  25.476  11.172
16621W        W87221   6.363  19.662   4.060
16622W        W87222   8.992   5.870   3.766
16623W        W87223  32.475   4.801  10.673
16624W        W87224  36.777  37.896   3.176
16625W        W87225  17.622  12.543  11.067
16626W        W87226   4.453  30.487  10.710
16627W        W87227  32.626  37.759   3.050
16628W        W87228   4.106  24.552  11.633
16629W        W87229  19.562   0.305   4.345
16630W        W87230  34.642  33.579   1.437
16631W        W87231  35.332  31.296  10.759
16632W        W87232   5.301  15.008   3.820
16633W        W87233  14.738  11.213  12.472
16634W        W87234  23.759  24.146  13.075
16635W        W87235  29.859  19.204   1.873
16636W        W87236   3.027  31.468   2.322
16637W        W87237  17.593   3.198   2.288
16638W        W87238  42.732  26.716   3.699
16639W        W87239  24.949  16.081  11.321
16640W        W87240   6.948  20.784  14.390
16641W        W87241  41.321   4.105  13.507
16642W        W87242   3.858  37.448  13.890
16643W        W87243  34.646   7.354  11.564
16644W        W87244  31.089  32.123   0.974
16645W        W87245  22.177  43.623  11.125
16646W        W87246  15.886  34.124  11.655
16647W        W87247  15.257  17.370  14.893
16648W        W87248  12.740  27.456   4.608
16649W        W87249  23.537  37.894  10.836
16650W        W87250  34.409  30.964   0.926
16651W        W87251   0.283   6.799   3.394
16652W        W87252   6.437  15.719   9.949
16653W        W87253   1.610  34.648   5.266
16654W        W87254  32.944   5.236   3.604
16655W        W87255  36.190  18.101   3.230
16656W        W87256   3.572   2.050   2.135
16657W        W87257   7.600  18.690  14.782
16658W        W87258   4.538  42.911  11.504
16659W        W87259  15.193  14.156  11.092
16660W        W87260  17.263  38.879  13.984
16661W        W87261   3.271  29.563   1.425
16662W        W87262   5.273   6.759   1.463
16663W        W87263  18.159  40.056   1.972
16664W        W87264   6.203  33.162  11.113
16665W        W87265  19.973   6.226  12.350
16666W        W87266  41.924  13.621  14.799
16667W        W87267   0.728  12.143  14.016
16668W        W87268   0.403  37.725   1.422
16669W        W87269  15.415  30.198   2.929
16670W        W87270  28.127  19.487   2.743
16671W        W87271  40.044  26.404   0.067
16672W        W87272  30.671  42.568  14.442
16673W        W87273  39.572  18.355  12.818
16674W        W87274  43.935  10.133  10.625
16675W        W87275  17.581  38.553  14.742
16676W        W87276  27.051  25.708   3.667
16677W        W87277  25.727  30.492   1.399
16678W        W87278  19.510   6.140   4.422
16679W        W87279  20.906  39.132   2.967
16680W        W87280  11.832  26.868   3.761
16681W        W87281  12.678  41.530  13.496
16682W        W87282  31.911  28.972   0.752
16683W        W87283  34.807  24.360   1.546
16684W        W87284  12.301  39.395   2.925
16685W        W87285  40.771  38.862   2.738
16686W        W87286  37.676  40.054  12.163
16687W        W87287  15.130  43.082  12.140
16688W        W87288  40.873  22.945   1.346
16689W        W87289  40.796  44.131  13.557
16690W        W87290  30.581  20.019   4.276
16691W        W87291   0.085   1.835   2.168
16692W        W87292  23.205  34.517  11.635
16693W        W87293  41.251  33.845   2.354
16694W        W87294  38.231   2.437   1.455
16695W        W87295   1.872  15.357  14.346
16696W        W87296   6.230  19.521   5.019
16697W        W87297  44.207  25.585   3.315
16698W        W87298  43.951  27.980   0.725
16699W        W87299  44.987   8.182  11.076
16700W        W87300  15.370  12.971  10.143
16701W        W87301  21.599  15.137  13.988
16702W        W87302  26.509  36.722   4.579
16703W        W87303  33.078  33.997   3.658
16704W        W87304  23.706   9.630   4.747
16705W        W87305  26.783  22.739  14.813
16706W        W87306  12.787   5.185   2.624
16707W        W87307   6.846  44.227   3.342
16708W        W87308  39.069  41.394   0.337
16709W        W87309  14.316  10.059   3.736
16710W        W87310  35.080  34.734  13.902
16711W        W87311  29.577  35.994   2.733
16712W        W87312   9.265  16.826  12.088
16713W        W87313  18.346  32.299   3.112
16714W        W87314  21.044  21.190  12.088
16715W        W87315  34.341  31.997   2.713
16716W        W87316  19.643  38.968  12.508
16717W        W87317  32.030  21.419   4.535
16718W        W87318  18.773   5.668  13.924
16719W        W87319  34.362  29.060  11.647
16720W        W87320  31.582  14.441   1.193
16721W        W87321  38.858  14.413  12.132
16722W        W87322  38.822  44.433  14.765
16723W        W87323  28.560  38.852   0.875
16724W        W87324   9.316  34.646  12.635
16725W        W87325  40.341  42.806   9.913
16726W        W87326  19.643  10.707   2.239
16727W        W87327   7.673  41.509   4.541
16728W        W87328   2.527  20.304  14.897
16729W        W87329   2.018  42.510   3.680
16730W        W87330  40.796  30.368  14.840
16731W        W87331  12.389   6.694   1.771
16732W        W87332   7.689  23.311  14.733
16733W        W87333   3.907  44.818  11.961
16734W        W87334  18.181  15.592   1.422
16735W        W87335  21.566  21.732   2.700
16736W        W87336  16.212  28.018  12.075
16737W        W87337   5.935  19.098   3.079
16738W        W87338  24.448  44.373   2.085
16739W        W87339  22.019  42.769   0.724
16740W        W87340  25.459  14.895   4.194
16741W        W87341  30.312  19.007  10.718
16742W        W87342  27.708   0.373  10.527
16743W        W87343  31.334  25.647   0.051
16744W        W87344  13.331  41.462  12.146
16745W        W87345  23.640  13.662  12.109
16746W        W87346   7.682  44.974  10.747
16747W        W87347  39.554  25.537  12.461
16748W        W87348  26.756  23.706  14.778
16749W        W87349  37.889  34.084   4.532
16750W        W87350  23.478  42.889  12.442
16751W        W87351  19.872  41.899   0.967
16752W        W87352  17.324   5.319   4.624
16753W        W87353   3.918   6.209   0.950
16754W        W87354   1.333  33.403   0.353
16755W        W87355  38.835  16.109   4.554
16756W        W87356  30.130   4.429   1.348
16757W        W87357  17.088  12.248   4.267
16758W        W87358  23.979  18.821   1.003
16759W        W87359   7.701  39.475  14.627
16760W        W87360   1.796  43.000  14.222
16761W        W87361  17.506   3.955   4.563
16762W        W87362   4.291  26.363   1.390
16763W        W87363   2.508  12.066  12.509
16764W        W87364  39.542  11.232   2.357
16765W        W87365  35.936  44.466  14.003
16766W        W87366  40.748  40.103   2.591
16767W        W87367  42.923  39.208  12.351
16768W        W87368  33.453  26.698   0.775
16769W        W87369   9.488  44.708   3.033
16770W        W87370   3.305   9.763  13.391
16771W        W87371  14.626  32.473   4.002
16772W        W87372  37.232   8.286  14.375
16773W        W87373  16.678  10.886   3.671
16774W        W87374  16.842  43.060  13.419
16775W        W87375  40.987  16.355  13.462
16776W        W87376  15.721  14.292   3.641
16777W        W87377  22.427  38.573  10.043
16778W        W87378  22.639  35.361  13.963
16779W        W87379  22.759  22.395  14.098
16780W        W87380  27.337   3.728  14.314
16781W        W87381  33.008  11.651  14.826
16782W        W87382   8.942  13.821  11.082
16783W        W87383  22.730  31.397  13.025
16784W        W87384  31.668  40.379   4.050
16785W        W87385  29.418  39.450  11.303
16786W        W87386  25.600   6.697  12.847
16787W        W87387  18.406   2.350   2.739
16788W        W87388  20.256  32.052   1.632
16789W        W87389  38.349  37.997   0.896
16790W        W87390   6.643  37.179   3.601
16791W        W87391  31.589  31.980   3.323
16792W        W87392  35.511   8.744  14.767
16793W        W87393  42.980  28.998   2.425
16794W        W87394  26.991  21.160  11.512
16795W        W87395  44.843  10.112  14.457
16796W        W87396  24.892   9.217  10.190
16797W        W87397  18.492  30.118   1.301
16798W        W87398  44.753  30.257   3.736
16799W        W87399  26.578  20.477  13.009
16800W        W87400  42.868   1.025  14.664
16801W        W87401  26.466  12.608   1.532
16802W        W87402  29.915  43.890  12.139
16803W        W87403  19.195  36.091  12.859
16804W        W87404  34.387  15.234   0.363
16805W        W87405  13.414  30.521  10.329
16806W        W87406  19.366  33.155   4.220
16807W        W87407  26.436  22.312   4.997
16808W        W87408  19.120  11.238   1.325
16809W        W87409  43.349  14.755  11.151
16810W        W87410  37.150   7.377   2.172
16811W        W87411   1.208  35.138   1.435
16812W        W87412  19.731  32.444  13.370
16813W        W87413   2.465  27.761  13.081
16814W        W87414   3.855  42.450  10.318
16815W        W87415  30.989  26.053  13.363
16816W        W87416  19.543  13.602   0.396
16817W        W87417   6.851  12.369   3.679
16818W        W87418  34.103  11.219   0.923
16819W        W87419  18.848  33.118   4.147
16820W        W87420  17.879  33.382  14.479
16821W        W87421  31.263   4.123   4.150
16822W        W87422   4.304   0.809   0.858
16823W        W87423  35.086  44.790   0.913
16824W        W87424  22.789  26.176   4.628
16825W        W87425  41.071  20.328   4.703
16826W        W87426  34.671  23.006  12.092
16827W        W87427  42.709  31.585   1.172
16828W        W87428  22.937  14.765  11.240
16829W        W87429  44.262  22.803  13.870
16830W        W87430  23.689   6.130   1.686
16831W        W87431   7.753   5.398  11.463
16832W        W87432  37.621  33.005  13.059
16833W        W87433  40.077   0.752   1.646
16834W        W87434  39.598   1.005  11.924
16835W        W87435  42.894  25.934  14.934
16836W        W87436  26.765  37.511   0.951
16837W        W87437  38.268  31.028   3.354
16838W        W87438   7.770  25.786  11.580
16839W        W87439  32.460  24.706   4.678
16840W        W87440   7.514   2.452   1.171
16841W        W87441  14.227  17.745   4.079
16842W        W87442  39.132  29.629  11.768
16843W        W87443  31.491  35.202   4.593
16844W        W87444  35.034  21.464  12.966
16845W        W87445  18.061  41.442   0.824
16846W        W87446  38.637  22.171  12.873
16847W        W87447  39.083  19.950  11.495
16848W        W87448   3.924  40.696  11.343
16849W        W87449  27.037  30.199  11.273
16850W        W87450  24.828  17.816   1.768
16851W        W87451   0.338  42.997   3.343
16852W        W87452  20.708  44.449   1.012
16853W        W87453  29.216  12.449  14.399
16854W        W87454  27.665  30.961  13.732
16855W        W87455  34.132  29.863  11.076
16856W        W87456  43.583  38.318   3.637
16857W        W87457  31.510  11.455  12.880
16858W        W87458  44.499  10.338  14.861
16859W        W87459   5.309  43.546   0.358
16860W        W87460   4.830  18.240  12.009
16861W        W87461  33.409  12.890   1.763
16862W        W87462  40.162  28.907  11.872
16863W        W87463  16.046   5.229   3.302
16864W        W87464  19.767  31.204  14.106
16865W        W87465  36.380  32.929  12.476
16866W        W87466  43.590  42.895  14.923
16867W        W87467  41.219  24.123   4.713
16868W        W87468  43.870  14.580  12.035
16869W        W87469  42.028  17.149   4.706
16870W        W87470  13.276   9.444  12.514
16871W        W87471  36.060  13.871  13.431
16872W        W87472  20.715  34.851  12.060
16873W        W87473  37.347   9.192   1.796
16874W        W87474   8.772   8.636   3.213
16875W        W87475   4.707  43.341  12.793
16876W        W87476  21.409  44.824  13.968
16877W        W87477  28.495   8.889  11.517
16878W        W87478   7.824  26.590   1.802
16879W        W87479   5.734  37.973   3.025
16880W        W87480  24.190  33.846  10.692
16881W        W87481  30.849  19.829   0.030
16882W        W87482  16.060   2.155   1.952
16883W        W87483  12.637  14.587   4.617
16884W        W87484  25.568  22.186  13.996
16885W        W87485  20.655  32.342   4.331
16886W        W87486   2.809  32.582   4.348
16887W        W87487   9.440  36.026   1.323
16888W        W87488  21.500   4.003   4.278
16889W        W87489  13.250  17.278   0.723
16890W        W87490   4.560  10.784   3.548
16891W        W87491  44.534  35.494  12.993
16892W        W87492  14.350   4.058   1.505
16893W        W87493  11.852   0.220  13.700
16894W        W87494  39.917  33.756  12.198
16895W        W87495   5.649   1.390  12.525
16896W        W87496   5.390  31.969   2.357
16897W        W87497   8.374   1.361   1.213
16898W        W87498  10.488  31.748   4.189
16899W        W87499  32.651  16.831  12.829
16900W        W87500  17.283   7.268  12.070
16901W        W87501  22.519  13.587   1.775
16902W        W87502  43.371   7.638   3.320
16903W        W87503  34.309  33.121  14.932
16904W        W87504  31.313  10.193   4.516
16905W        W87505   5.672   3.618  12.742
16906W        W87506  39.358  17.842  14.214
16907W        W87507  25.797  40.036  14.929
16908W        W87508  17.980   9.159   2.813
16909W        W87509  17.254  40.988   0.871
16910W        W87510  34.851  34.842   4.673
16911W        W87511   4.137  20.938   2.806
16912W        W87512  37.367  31.228   2.266
16913W        W87513  33.891  35.087  14.446
16914W        W87514   2.827  27.165   2.501
16915W        W87515  30.008  43.068   2.688
16916W        W87516   1.997   5.413   3.090
16917W        W87517  14.640  29.825  12.309
16918W        W87518  44.022  37.136  14.392
16919W        W87519  29.479  27.389  11.666
16920W        W87520  18.739  10.596  12.378
16921W        W87521  13.832   3.313  14.294
16922W        W87522   0.374  29.872   2.716
16923W        W87523  36.336  29.163   1.045
16924W        W87524  30.637  10.140   1.826
16925W        W87525   8.430   4.555  10.686
16926W        W87526   8.681   3.262   2.405
16927W        W87527  20.247  32.236  13.346
16928W        W87528  25.611  36.882   3.379
16929W        W87529  29.546  14.249  11.138
16930W        W87530  32.013  24.483   4.818
16931W        W87531   7.943  22.064   2.022
16932W        W87532  30.884  17.732  14.771
16933W        W87533  15.312  33.632   2.119
16934W        W87534  28.123  35.806   1.882
16935W        W87535  29.566  39.358   2.232
16936W        W87536  15.583  35.323   0.973
16937W        W87537  17.672  10.208  10.964
16938W        W87538  13.151  31.038  12.616
16939W        W87539  43.876   3.617  10.549
16940W        W87540  44.452  42.614  10.921
16941W        W87541  35.273   6.671  14.661
16942W        W87542  29.459  14.325  10.415
16943W        W87543  41.778  34.993  12.487
16944W        W87544  41.827  21.242   4.524
16945W        W87545  17.747  25.159  12.993
16946W        W87546  28.464  33.139  13.806
16947W        W87547   8.717  24.895   0.457
16948W        W87548   6.287  33.174   0.439
16949W        W87549  36.766  29.987   0.971
16950W        W87550   6.750  40.358   0.773
16951W        W87551  29.959   4.640   0.898
16952W        W87552  37.989  30.429  14.912
16953W        W87553  44.195   6.833  11.201
16954W        W87554  21.444   3.254  11.524
16955W        W87555   2.545  24.029   2.842
16956W        W87556   6.209  15.030   4.353
16957W        W87557  37.653  17.047  14.602
16958W        W87558  37.428  44.272   0.033
16959W        W87559  29.254   0.842   1.855
16960W        W87560   5.918  13.940  13.623
16961W        W87561  29.469   0.451   1.416
16962W        W87562  28.213  10.457   4.598
16963W        W87563  20.286  18.031  14.501
16964W        W87564  31.202  37.121   0.235
16965W        W87565  23.507  17.602   1.183
16966W        W87566  21.070   8.900  13.249
16967W        W87567  21.539  12.586  11.141
16968W        W87568  41.357  11.366   1.885
16969W        W87569  39.115   4.196   0.990
16970W        W87570  15.846  39.861   4.901
16971W        W87571  38.336   8.270   4.420
16972W        W87572   2.191  20.892  13.449
16973W        W87573  10.647  28.449  13.528
16974W        W87574  10.660  17.111   1.464
16975W        W87575  43.421  31.542   4.580
16976W        W87576  20.208  38.544   4.076
16977W        W87577   5.711  28.962   0.040
16978W        W87578  18.568  12.156  11.623
16979W        W87579   0.159  36.180  12.898
16980W        W87580   0.795   5.996  13.053
16981W        W87581  27.208  36.652   0.816
16982W        W87582   7.923   8.844  11.933
16983W        W87583  29.148  25.177   5.026
16984W        W87584  30.397   7.172  10.618
16985W        W87585  27.771  12.946   0.295
16986W        W87586  44.542  36.771   2.164
16987W        W87587  38.285  14.589   2.471
16988W        W87588   7.024  26.705  12.553
16989W        W87589  11.659  13.659  11.589
16990W        W87590  12.407  43.047   0.455
16991W        W87591  25.251   0.253   0.920
16992W        W87592  25.942  44.929  10.299
16993W        W87593  36.422  17.538   4.335
16994W        W87594   5.992  38.542  14.745
16995W        W87595  25.377   7.888  12.367
16996W        W87596   4.858   4.942   4.956
16997W        W87597  17.928  36.594  13.570
16998W        W87598  43.996  10.633   3.303
16999W        W87599  26.626  30.144   1.704
17000W        W87600  26.634  21.761   4.021
17001W        W87601  44.935  24.022   1.943
17002W        W87602  24.124  25.262  12.549
17003W        W87603  20.513  11.676   2.222
17004W        W87604   8.873  38.398   4.608
17005W        W87605  11.798  31.067  13.843
17006W        W87606  32.018  30.386  14.149
17007W        W87607  16.596  29.938  12.871
17008W        W87608   1.848   7.940  10.987
17009W        W87609  18.054  37.586   4.082
17010W        W87610  34.833  40.058   1.355
17011W        W87611  14.209  35.772   4.475
17012W        W87612  15.868  19.568   4.932
17013W        W87613  15.745  27.855  10.729
17014W        W87614  33.199  20.205   3.500
17015W        W87615   7.241  38.894   1.928
17016W        W87616  37.829  18.596   1.410
17017W        W87617  29.020  44.674   3.038
17018W        W87618  10.889   6.657   3.625
17019W        W87619  35.944  26.943  14.491
17020W        W87620   9.104  16.542   2.698
17021W        W87621  21.625   6.619   2.429
17022W        W87622   4.673   7.452  12.024
17023W        W87623  42.913   4.629   1.320
17024W        W87624  41.534  26.085  13.235
17025W        W87625  39.395  32.423   4.534
17026W        W87626  36.054  14.987  10.356
17027W        W87627  26.435  31.863  10.706
17028W        W87628  43.047  16.557  10.667
17029W        W87629  39.909  37.303   0.440
17030W        W87630   5.138  38.129   1.809
17031W        W87631   8.485   1.651   4.787
17032W        W87632  35.980  27.858  11.584
17033W        W87633  30.797  23.862  11.942
17034W        W87634   8.213  21.281  12.545
17035W        W87635  18.572  44.568  13.137
17036W        W87636  23.598  11.119   1.858
17037W        W87637  40.009  15.290   3.821
17038W        W87638  43.421   7.571  11.704
17039W        W87639  42.725  42.867   4.156
17040W        W87640  24.420   8.177   0.202
17041W        W87641   0.925  34.122  11.439
17042W        W87642  22.233   2.666  13.464
17043W        W87643   5.974  39.535   0.455
17044W        W87644  25.439  40.049   3.258
17045W        W87645   2.899  38.947   2.603
17046W        W87646  38.637   2.365  12.025
17047W        W87647  39.995  13.074  10.606
17048W        W87648  31.953  36.264   1.048
17049W        W87649  44.502  38.995   0.450
17050W        W87650  25.090  21.732   2.175
17051W        W87651  38.143  42.791  13.045
17052W        W87652  34.065  12.955   4.512
17053W        W87653  30.089  43.767  13.084
17054W        W87654  36.680  38.264   1.513
17055W        W87655  35.913   0.672   1.086
17056W        W87656   1.317  35.992   0.372
17057W        W87657  26.677  29.385  11.792
17058W        W87658  32.788  10.142  12.323
17059W        W87659  38.817  35.874   3.823
17060W        W87660  11.254  32.113  12.125
17061W        W87661  22.670  37.446   1.213
17062W        W87662   7.916   7.344   0.902
17063W        W87663  31.985  20.454   2.717
17064W        W87664  14.269  33.958  12.049
17065W        W87665  13.664  35.948  12.182
17066W        W87666   4.833  16.344   1.661
17067W        W87667  41.105  20.404  12.018
17068W        W87668  29.433  29.480  12.139
17069W        W87669  12.655  17.798  12.515
17070W        W87670  11.594   7.750   1.851
17071W        W87671  27.629  13.072   3.817
17072W        W87672  16.219  36.634  14.752
17073W        W87673  34.396   3.774  10.667
17074W        W87674  35.486  35.925   3.136
17075W        W87675  40.740  23.416   3.810
17076W        W87676  44.220  24.463  14.806
17077W        W87677  21.242  21.889  11.027
17078W        W87678  11.318  44.919   3.315
17079W        W87679  27.139  35.187  13.252
17080W        W87680  20.796  44.001  10.776
17081W        W87681  43.983   7.198   4.404
17082W        W87682  39.495  23.302   0.054
17083W        W87683   7.253   6.233  11.982
17084W        W87684  20.547  25.481   1.667
17085W        W87685  12.273  36.802  12.123
17086W        W87686  39.085  35.637  10.635
17087W        W87687   4.766   8.509  13.526
17088W        W87688  32.385  41.500   4.272
17089W        W87689   0.282  40.899  14.866
17090W        W87690  35.984   5.644  11.346
17091W        W87691  12.925  43.263   3.608
17092W        W87692   6.459  33.085   1.765
17093W        W87693  12.124  41.890   4.900
17094W        W87694   1.852  12.709  14.927
17095W        W87695  41.076  42.022   3.323
17096W        W87696  25.243  37.286  14.711
17097W        W87697  19.042  22.734  11.948
17098W        W87698  42.039  22.273   4.156
17099W        W87699   9.981  40.575   5.166
17100W        W87700  37.438  13.348  10.742
17101W        W87701  31.517   4.374   2.576
17102W        W87702  23.758   1.670  12.030
17103W        W87703  40.869  21.740  12.459
17104W        W87704  40.948  25.678   2.415
17105W        W87705   4.222   4.805   4.250
17106W        W87706  29.070  27.912  14.950
17107W        W87707  19.575  23.761  11.133
17108W        W87708  31.899  13.836   4.158
17109W        W87709  20.129   5.786   0.114
17110W        W87710  33.390  31.104   4.200
17111W        W87711  35.564   0.734   2.306
17112W        W87712   7.254  24.678  12.570
17113W        W87713  30.641  24.401   1.755
17114W        W87714  43.854  44.021  11.518
17115W        W87715  29.126  20.440   0.274
17116W        W87716  15.184   2.902   4.739
17117W        W87717  35.488  11.569   3.233
17118W        W87718  25.758  13.359   2.832
17119W        W87719  19.201  42.806   2.408
17120W        W87720  13.426  27.779  11.417
17121W        W87721   9.366  26.687  14.282
17122W        W87722  10.274  28.345  14.093
17123W        W87723  25.456  34.174   0.556
17124W        W87724  12.236  19.099  12.613
17125W        W87725   7.176  23.584   2.287
17126W        W87726  14.060  41.539   1.452
17127W        W87727  42.161   0.853   3.891
17128W        W87728  44.387  31.543  12.168
17129W        W87729  26.158  34.051   3.351
17130W        W87730  29.532   5.102  10.751
17131W        W87731  35.011  14.231  11.209
17132W        W87732  21.064   9.465   3.745
17133W        W87733  27.385   8.844   2.580
17134W        W87734  23.249  35.477  13.133
17135W        W87735  38.889  43.201   0.707
17136W        W87736   9.897   5.385  11.639
17137W        W87737   6.784  41.252   1.165
17138W        W87738  22.832  17.142   4.172
17139W        W87739   6.789   0.018   4.367
17140W        W87740  40.157  34.864  10.397
17141W        W87741  42.946   7.683  11.462
17142W        W87742  16.751  29.185  12.437
17143W        W87743  32.266  10.601  11.418
17144W        W87744  22.257  33.267  12.003
17145W        W87745  28.674  41.961   1.956
17146W        W87746   4.869  34.142  12.331
17147W        W87747  11.240  27.412   3.261
17148W        W87748  22.943  28.549   2.122
17149W        W87749   5.179  40.894   2.392
17150W        W87750  10.680  36.643   4.593
17151W        W87751  24.037  43.067   2.239
17152W        W87752   7.406  26.847  12.934
17153W        W87753  42.452  35.080   3.576
17154W        W87754  32.148   9.230  14.005
17155W        W87755  21.388  11.797  10.526
17156W        W87756  18.630  13.428  10.298
17157W        W87757  26.468  22.730   0.248
17158W        W87758  36.571  35.985  14.886
17159W        W87759  37.609   0.773  12.074
17160W        W87760  20.591   9.890   1.574
17161W        W87761  35.440  26.236   4.181
17162W        W87762  30.879  36.577  10.731
17163W        W87763  30.839   8.892  11.763
17164W        W87764  31.420  16.650  10.940
17165W        W87765  37.948  16.780  11.460
17166W        W87766   9.810  43.735   4.068
17167W        W87767  17.368   3.411  12.492
17168W        W87768  44.301  20.322   3.191
17169W        W87769  25.176   8.158   0.884
17170W        W87770  29.951  24.181   4.935
17171W        W87771   6.823   5.863  12.035
17172W        W87772  38.791  26.252  13.840
17173W        W87773  30.408  12.803   0.492
17174W        W87774  15.056  31.238  12.021
17175W        W87775  29.941  32.409   2.757
17176W        W87776  20.196  38.110   2.720
17177W        W87777   5.482  10.149  10.844
17178W        W87778  33.879   7.593   2.791
17179W        W87779   7.085  29.952  10.648
17180W        W87780   1.325  17.928  10.903
17181W        W87781  15.250   0.686  14.342
17182W        W87782  27.169  14.117   3.382
17183W        W87783  14.202  37.512  14.796
17184W        W87784   7.834  34.693  14.934
17185W        W87785  37.885  43.820  12.058
17186W        W87786   1.960  20.287   2.923
17187W        W87787  32.396  25.693   3.702
17188W        W87788  22.160  12.813   0.287
17189W        W87789   9.326  28.079   2.627
17190W        W87790  16.511  39.962  11.000
17191W        W87791   9.205  29.279   4.788
17192W        W87792   3.242  26.350   2.710
17193W        W87793  19.409  31.416   0.481
17194W        W87794  42.555  16.495  14.439
17195W        W87795  37.823  14.011  12.909
17196W        W87796   3.932  40.426   2.152
17197W        W87797   3.502   3.903  10.792
17198W        W87798  43.857  33.210  11.541
17199W        W87799  24.295   1.432   1.439
17200W        W87800  25.555  19.499   4.486
17201W        W87801  33.521  19.996  14.953
17202W        W87802  14.317  10.869  13.432
17203W        W87803  27.488   8.654   3.198
17204W        W87804   8.448  42.797   4.915
17205W        W87805  33.049  23.718  14.553
17206W        W87806   2.745  36.068  11.594
17207W        W87807   7.313  26.545   1.564
17208W        W87808   7.678  22.925  12.741
17209W        W87809  44.559  23.200  11.667
17210W        W87810  38.343  31.479   3.891
17211W        W87811  34.303   1.968   4.179
17212W        W87812  38.557  26.531  10.516
17213W        W87813  11.210  23.059  10.472
17214W        W87814  29.862  39.820   1.370
17215W        W87815  40.980  44.038  10.623
17216W        W87816   5.318  35.596  13.506
17217W        W87817  38.823  19.180   2.725
17218W        W87818  29.588  44.955   0.262
17219W        W87819  13.656  28.669   0.318
17220W        W87820  31.871  38.527  12.474
17221W        W87821  17.768  30.365   1.933
17222W        W87822  16.150  29.648  12.971
17223W        W87823  29.938   5.975   3.344
17224W        W87824  43.821  10.441  11.384
17225W        W87825  36.467   6.191  10.790
17226W        W87826  24.183  22.194  13.584
17227W        W87827  25.941  39.460  12.823
17228W        W87828  44.080  13.733  13.431
17229W        W87829  12.147  40.802   4.056
17230W        W87830  44.234  33.461  12.439
17231W        W87831  30.521  12.080  14.782
17232W        W87832  39.367  13.394  12.630
17233W        W87833  11.788   1.596  14.433
17234W        W87834  28.588   5.939  14.788
17235W        W87835   1.487   5.415   3.101
17236W        W87836  31.644  25.703  13.845
17237W        W87837  23.353  30.876   4.110
17238W        W87838  44.592  40.394  13.424
17239W        W87839  33.389  24.708   4.518
17240W        W87840   9.927  13.578  10.972
17241W        W87841  42.400  21.066  13.629
17242W        W87842   9.932   1.773  10.691
17243W        W87843   0.902   9.588  14.056
17244W        W87844   0.182  42.721  11.968
17245W        W87845  30.645  23.263   0.293
17246W        W87846  33.429  25.280   0.319
17247W        W87847  24.187  31.136   4.026
17248W        W87848  18.336  21.846  13.520
17249W        W87849  29.550  26.042   4.054
17250W        W87850   7.616  39.388   3.655
17251W        W87851  21.320  15.281  13.251
17252W        W87852  19.124  33.954   2.262
17253W        W87853  41.985  44.864  12.122
17254W        W87854   4.970   8.203  12.995
17255W        W87855  21.812  38.862  13.414
17256W        W87856  42.358  23.981  12.626
17257W        W87857  36.578   7.757   1.815
17258W        W87858  21.161  42.663  13.002
17259W        W87859  14.737   8.900   2.543
17260W        W87860  37.077  38.858  10.127
17261W        W87861  31.007  27.055   1.402
17262W        W87862  25.302  39.449  14.276
17263W        W87863  30.686  18.881  11.634
17264W        W87864  22.011  26.507   1.321
17265W        W87865  13.744   3.327  14.949
17266W        W87866  16.751   2.311   4.705
17267W        W87867  23.735  39.355  13.396
17268W        W87868  17.110   1.726   2.757
17269W        W87869  27.481  17.170  13.072
17270W        W87870  27.700  44.619  13.951
17271W        W87871  42.003  33.008  14.910
17272W        W87872   8.111  36.471  14.755
17273W        W87873  15.310  32.989   2.880
17274W        W87874  36.960  11.995   1.430
17275W        W87875  35.110  32.096   3.170
17276W        W87876  12.088  19.317  13.069
17277W        W87877  10.274   6.242  13.478
17278W        W87878  21.211  12.740  10.785
17279W        W87879  11.821  35.426   3.950
17280W        W87880  21.664   9.093   2.134
17281W        W87881  17.645  37.970   4.653
17282W        W87882  31.422  10.947  12.884
17283W        W87883   2.801  14.267  14.001
17284W        W87884   6.501  17.749   0.073
17285W        W87885  32.103   8.330  12.986
17286W        W87886  42.767  26.582   0.997
17287W        W87887  16.436   4.391   1.005
17288W        W87888  31.150  25.231   0.314
17289W        W87889   0.345  27.460   1.820
17290W        W87890  25.700  12.388  10.270
17291W        W87891  28.983   4.489   1.485
17292W        W87892  21.734  38.153   3.284
17293W        W87893   6.147   9.798   1.350
17294W        W87894   3.277  23.350   2.746
17295W        W87895  16.492  29.924  14.809
17296W        W87896   2.884  43.098   0.763
17297W        W87897  29.985   0.810   2.898
17298W        W87898   0.835  34.863   2.312
17299W        W87899  13.584  13.079   0.696
17300W        W87900   5.395  17.980   3.824
17301W        W87901  27.866  44.662   1.800
17302W        W87902  17.790   4.462   0.490
17303W        W87903  28.059  10.793  10.887
17304W        W87904  28.614  37.087   0.926
17305W        W87905  19.019   4.528   2.911
17306W        W87906  44.833  19.014  12.632
17307W        W87907  29.980   1.166  14.977
17308W        W87908  18.976  17.698   4.644
17309W        W87909  39.280  20.296   3.202
17310W        W87910  28.038  28.478   1.182
17311W        W87911  42.958  33.580   0.417
17312W        W87912   2.927  10.118  14.016
17313W        W87913  31.668  19.833  12.563
17314W        W87914  38.370   0.837   0.964
17315W        W87915   9.640  15.880   2.349
17316W        W87916  25.572   0.495   1.251
17317W        W87917  15.655  15.651  12.347
17318W        W87918  13.179  12.907  11.389
17319W        W87919   5.331   3.504  10.620
17320W        W87920  23.680  33.125   4.571
17321W        W87921  44.535  22.906  12.084
17322W        W87922  26.772  11.128  12.363
17323W        W87923   4.846  38.581   1.893
17324W        W87924  42.856  13.247   1.858
17325W        W87925  19.721  14.552  13.672
17326W        W87926  41.536  40.525  12.005
17327W        W87927  30.389  23.171  14.021
17328W        W87928  19.055   1.787  12.198
17329W        W87929  32.647  14.377   3.671
17330W        W87930   4.160  27.608  12.013
17331W        W87931  14.771  12.529   4.954
17332W        W87932  42.487  23.944  13.118
17333W        W87933  20.648  28.213   4.061
17334W        W87934   1.191  36.420  12.186
17335W        W87935  25.066  25.764  11.909
17336W        W87936   7.744  23.253   4.699
17337W        W87937  36.965  39.427   4.768
17338W        W87938  41.570  17.163   0.706
17339W        W87939   6.726  26.497   2.776
17340W        W87940  12.729  36.462   1.072
17341W        W87941  17.018  21.753   3.733
17342W        W87942  36.933   0.964   3.790
17343W        W87943   2.978  10.640  14.209
17344W        W87944   8.247  12.316   1.697
17345W        W87945   7.974  13.148  12.611
17346W        W87946  40.429  18.771  14.298
17347W        W87947  35.400   1.010   1.899
17348W        W87948   1.917  32.419  14.360
17349W        W87949   6.830  41.160  11.452
17350W        W87950  17.343  12.099   1.048
17351W        W87951  24.712  37.415   0.704
17352W        W87952  16.846  41.954   4.981
17353W        W87953  15.536  23.729  13.043
17354W        W87954  40.902  16.222   1.761
17355W        W87955  36.800  43.515  14.124
17356W        W87956  17.306  33.959  14.930
17357W        W87957  36.885   9.799   2.369
17358W        W87958  25.437  16.701   3.663
17359W        W87959  34.960   5.638  12.165
17360W        W87960   6.867  16.360   2.869
17361W        W87961  29.867  22.105  10.991
17362W        W87962  41.810  30.192   2.854
17363W        W87963  16.600  14.766  12.916
17364W        W87964   4.798  16.994   0.717
17365W        W87965  15.861  12.882  11.128
17366W        W87966  27.324   0.238   4.146
17367W        W87967  35.066  12.510   4.126
17368W        W87968  26.241   4.909   1.262
17369W        W87969   6.628   2.451  12.509
17370W        W87970   8.110   1.707   0.917
17371W        W87971  18.580  19.519   0.788
17372W        W87972  32.345  35.945   9.996
17373W        W87973  44.462  10.347   2.620
17374W        W87974   2.401  43.956   3.135
17375W        W87975  30.631   6.242  12.520
17376W        W87976  32.940  31.267  10.716
17377W        W87977  22.030  38.828   3.734
17378W        W87978  30.030  15.656   3.435
17379W        W87979  15.839   2.713  13.803
17380W        W87980   0.941  14.088  13.410
17381W        W87981  43.321  16.127   3.397
17382W        W87982  44.774  13.857   0.772
17383W        W87983  17.255   0.833   4.609
17384W        W87984  22.787  13.115   4.929
17385W        W87985  13.937  38.279   2.299
17386W        W87986   8.900   1.029   3.737
17387W        W87987  41.778   4.941   0.240
17388W        W87988  20.531  38.066   3.746
17389W        W87989  26.457   6.198   0.996
17390W        W87990   5.013  38.922  11.121
17391W        W87991  15.269  40.225   4.298
17392W        W87992  32.085   7.732   2.469
17393W        W87993  35.488  13.597  12.044
17394W        W87994  43.297   6.833  14.557
17395W        W87995  33.932   6.929   4.888
17396W        W87996   1.903   2.077   1.093
17397W        W87997   6.403  32.369  11.215
17398W        W87998  32.038  32.613   4.135
17399W        W87999  21.967  17.039  13.043
17400W        W88000   7.069   1.476  11.645
17401W        W88001  29.986   2.088   3.247
17402W        W88002  39.835  12.401  12.488
17403W        W88003  32.580   1.350  14.511
17404W        W88004  17.660  33.849   0.725
17405W        W88005   8.456  25.994   1.337
17406W        W88006   5.751  17.370   1.289
17407W        W88007  20.656  41.877  13.905
17408W        W88008  13.433  27.922   2.247
17409W        W88009   9.361  36.404  10.755
17410W        W88010  30.150  15.120  11.575
17411W        W88011  15.729   8.122  11.971
17412W        W88012  33.774  33.346  14.109
17413W        W88013  27.953  39.574   2.695
17414W        W88014  44.219  18.155   1.215
17415W        W88015  36.509   9.746   2.745
17416W        W88016  15.330  27.016   2.829
17417W        W88017  16.271  33.671  12.209
17418W        W88018  28.913  34.313  14.842
17419W        W88019   2.246  32.023  10.612
17420W        W88020  28.059  18.819  13.015
17421W        W88021  38.460  36.632  11.907
17422W        W88022   8.096  34.443  13.064
17423W        W88023  25.023  25.710   3.540
17424W        W88024  29.753  13.117   3.174
17425W        W88025  18.274  27.060   3.081
17426W        W88026   7.204  26.904   0.795
17427W        W88027  41.448  38.987  13.878
17428W        W88028  29.083  37.916   0.912
17429W        W88029  21.665  44.526   2.216
17430W        W88030  12.792  44.979  13.085
17431W        W88031  13.413   7.684  10.754
17432W        W88032   4.401   6.281   1.235
17433W        W88033  22.683  22.083   4.118
17434W        W88034  32.941   1.310  11.151
17435W        W88035  34.964  36.189  12.337
17436W        W88036  33.430  24.550   2.739
17437W        W88037  41.793  37.465   3.173
17438W        W88038  37.516  19.231   4.435
17439W        W88039  43.013  22.766  13.081
17440W        W88040  35.477   1.844   2.158
17441W        W88041   7.747  25.490  14.382
17442W        W88042  23.958  28.940   4.288
17443W        W88043  12.186  26.597   0.024
17444W        W88044  39.995  20.483  13.349
17445W        W88045  33.684   8.645   2.357
17446W        W88046  35.394   2.259  10.579
17447W        W88047  44.805  30.070   4.801
17448W        W88048   0.470  43.979   0.808
17449W        W88049  25.591  34.941  11.484
17450W        W88050   6.749  26.683  14.893
17451W        W88051  21.221  35.004  10.324
17452W        W88052  18.166  32.826  11.338
17453W        W88053   1.890  17.846   2.844
17454W        W88054  40.786  15.103  10.716
17455W        W88055   4.651  22.475   4.512
17456W        W88056  20.398  41.084  14.101
17457W        W88057  33.301  29.504   2.184
17458W        W88058  40.824  28.172  13.591
17459W        W88059  36.969   1.694   0.005
17460W        W88060  10.863  29.184   1.643
17461W        W88061  26.578  27.423   4.703
17462W        W88062  34.374  37.460  10.718
17463W        W88063  42.465  36.937  12.850
17464W        W88064  11.394  14.139  11.850
17465W        W88065  17.684  13.163  12.779
17466W        W88066  27.687  26.967   2.755
17467W        W88067   3.921   2.897  12.523
17468W        W88068  25.536  31.695   2.230
17469W        W88069  28.975  19.999  14.007
17470W        W88070   8.086   0.497   0.283
17471W        W88071  25.144   8.973  10.572
17472W        W88072   5.172  36.510  13.759
17473W        W88073  39.481  36.547  14.984
17474W        W88074  23.765  39.939  14.820
17475W        W88075  26.098  35.017  14.375
17476W        W88076   3.936  17.300   1.199
17477W        W88077  14.701  32.659  12.141
17478W        W88078  18.585  31.978   2.770
17479W        W88079  12.664  11.862  11.992
17480W        W88080   5.250  30.336  14.427
17481W        W88081  40.592  43.281  11.251
17482W        W88082  28.985  38.642   2.650
17483W        W88083   6.774  36.342   1.026
17484W        W88084  42.346   1.903  12.025
17485W        W88085  21.494   6.596  12.846
17486W        W88086   9.441  25.462  11.416
17487W        W88087  12.313  13.919   2.253
17488W        W88088  29.913  28.101   2.167
17489W        W88089  28.176  10.217   5.059
17490W        W88090  12.864   6.449  12.972
17491W        W88091   4.488  25.882   2.744
17492W        W88092  18.327   0.075  11.539
17493W        W88093  29.696  40.156   2.678
17494W        W88094  16.796  31.762   4.912
17495W        W88095  34.309  16.562   0.977
17496W        W88096  32.875  27.586   3.139
17497W        W88097   6.245  13.761   4.230
17498W        W88098  30.789  41.784   4.242
17499W        W88099   9.535   9.231   2.983
17500W        W88100  26.522  24.229   0.289
17501W        W88101  32.550  27.900  11.371
17502W        W88102  12.818  15.941  14.922
17503W        W88103  36.512  21.453  14.790
17504W        W88104  30.953  15.245  14.421
17505W        W88105   1.627  39.129  14.924
17506W        W88106  17.998   6.669  13.447
17507W        W88107  41.720  37.730   4.149
17508W        W88108  40.200   9.228  11.948
17509W        W88109  28.684   0.768   1.877
17510W        W88110  15.207  32.543   1.235
17511W        W88111   9.615  33.061  10.670
17512W        W88112  33.631  15.877   1.223
17513W        W88113   6.890   0.443  14.798
17514W        W88114  24.008  33.076   0.396
17515W        W88115  27.536  24.722   3.790
17516W        W88116  41.946   7.712  10.846
17517W        W88117  24.585  32.591   0.899
17518W        W88118  39.313  12.547   3.153
17519W        W88119  11.354  28.645  11.173
17520W        W88120  14.472  36.857  11.431
17521W        W88121  33.251  38.365  11.461
17522W        W88122  35.835  12.595  14.738
17523W        W88123  21.264  15.335   3.463
17524W        W88124   9.819  20.091   0.882
17525W        W88125  39.078  17.097  10.742
17526W        W88126  38.495  27.960   0.798
17527W        W88127  34.961  36.086  13.935
17528W        W88128  39.988   2.993   2.928
17529W        W88129   4.913  38.663   0.283
17530W        W88130  34.211   2.677  14.107
17531W        W88131   8.847   7.206   0.440
17532W        W88132  15.581  40.605   2.216
17533W        W88133   4.930  39.072  13.312
17534W        W88134   3.958  35.795   0.225
17535W        W88135  23.092  40.879  12.496
17536W        W88136  42.766  41.823   1.895
17537W        W88137   2.922  26.808  13.008
17538W        W88138  12.277  42.689  12.859
17539W        W88139   6.435  36.142   1.699
17540W        W88140  14.175  17.230  11.678
17541W        W88141  33.166   8.706  12.534
17542W        W88142   7.259  43.750  10.761
17543W        W88143  15.305  27.528  13.373
17544W        W88144  30.190   2.745   0.473
17545W        W88145  30.377  37.962  10.493
17546W        W88146  33.493  28.599  13.024
17547W        W88147  12.984   4.651   0.801
17548W        W88148  43.174  30.638  14.566
17549W        W88149  39.880   4.651   0.432
17550W        W88150  28.080  35.511  13.553
17551W        W88151  41.399  33.117   4.571
17552W        W88152  20.336  15.627   1.217
17553W        W88153   4.018  44.234  10.733
17554W        W88154   8.660  11.632  10.681
17555W        W88155  21.546  16.507   0.261
17556W        W88156   4.968  44.455   2.797
17557W        W88157  43.796  36.884  14.836
17558W        W88158  41.487  12.801   1.298
17559W        W88159   1.921   3.890  10.653
17560W        W88160  41.068  14.019  13.863
17561W        W88161   9.258  42.059  10.652
17562W        W88162  16.678  39.304   3.368
17563W        W88163   8.910   2.034   1.425
17564W        W88164  13.226  41.326   1.847
17565W        W88165  43.468  23.114  13.327
17566W        W88166   3.852   0.304  14.262
17567W        W88167  23.125  38.512  13.505
17568W        W88168  42.935  43.399  11.405
17569W        W88169  14.890   0.367  14.540
17570W        W88170   7.456  16.736  11.914
17571W        W88171  38.834   1.690   3.439
17572W        W88172  36.847  14.797  14.931
17573W        W88173  22.124  40.548  11.973
17574W        W88174  10.026  21.549   4.660
17575W        W88175  15.354   8.635   2.435
17576W        W88176  19.201  38.179   3.710
17577W        W88177  42.288   9.101  12.953
17578W        W88178  12.237   4.199  10.774
17579W        W88179  14.817   5.718  13.586
17580W        W88180  38.471  40.445  14.520
17581W        W88181  10.702  16.106   1.382
17582W        W88182  22.271  16.174   3.979
17583W        W88183  28.023  19.323  11.991
17584W        W88184  39.046  15.864  14.796
17585W        W88185   2.231  44.558  13.927
17586W        W88186  41.207  42.958   3.735
17587W        W88187  28.224  23.545  11.565
17588W        W88188   5.261  37.519  12.139
17589W        W88189  38.219  28.562   4.598
17590W        W88190   7.892  25.617   1.694
17591W        W88191  23.176   3.503   3.686
17592W        W88192  38.595  32.004   1.816
17593W        W88193  43.322  20.976  12.891
17594W        W88194  33.034   2.423   3.883
17595W        W88195  39.340  35.237   2.794
17596W        W88196  24.600  17.570  12.803
17597W        W88197  18.202  39.829  14.662
17598W        W88198  15.095   5.306  13.393
17599W        W88199   5.339  10.815   1.748
17600W        W88200  42.688   9.722  12.471
17601W        W88201  13.677   6.234   1.773
17602W        W88202  41.185   4.358   2.693
17603W        W88203   1.883  28.794   2.005
17604W        W88204   6.033  39.082   4.397
17605W        W88205  39.950  12.486   0.592
17606W        W88206  11.122  19.948  12.877
17607W        W88207  37.258  22.047  12.158
17608W        W88208  21.794  37.042  10.629
17609W        W88209  32.728  23.484  11.550
17610W        W88210   3.987  44.929   4.546
17611W        W88211   5.325  37.648   3.073
17612W        W88212  36.804  23.601  11.015
17613W        W88213  31.661  18.684  12.171
17614W        W88214  29.992  27.896   3.705
17615W        W88215  23.854   9.966   0.930
17616W        W88216  25.087  38.544  13.135
17617W        W88217  24.081  28.374   4.162
17618W        W88218  13.865  18.217  10.761
17619W        W88219  17.505   2.192  12.951
17620W        W88220  31.474   3.165   1.052
17621W        W88221  24.042  15.671  11.576
17622W        W88222  23.955   3.332   2.287
17623W        W88223   3.932  33.459  13.627
17624W        W88224  31.667  25.273   0.225
17625W        W88225  44.852  41.536  10.589
17626W        W88226   9.559  27.993   4.480
17627W        W88227  21.753  11.784  14.278
17628W        W88228  11.345  22.224  12.012
17629W        W88229  16.529  27.172   0.981
17630W        W88230   3.767  18.323   0.350
17631W        W88231  44.737   0.473   1.258
17632W        W88232  37.564  22.015  14.690
17633W        W88233  36.814  14.854   3.486
17634W        W88234   3.833  28.615  13.858
17635W        W88235  44.319  40.535   0.968
17636W        W88236  41.539   8.586  11.074
17637W        W88237  38.484   0.284  12.392
17638W        W88238  11.760   1.292  10.468
17639W        W88239  14.797   3.995   4.214
17640W        W88240  42.899  44.821  12.277
17641W        W88241  35.349  18.644  12.910
17642W        W88242  19.247  35.754   0.709
17643W        W88243   0.207   5.600  14.305
17644W        W88244  26.675  22.225   0.231
17645W        W88245  14.569  33.878   3.934
17646W        W88246  13.632  21.180  11.658
17647W        W88247  35.189  37.376   2.155
17648W        W88248  15.824  40.923   4.579
17649W        W88249  36.492  13.136  13.552
17650W        W88250   9.219  21.280  13.481
17651W        W88251  23.076  21.686  11.250
17652W        W88252  42.299  13.590   1.174
17653W        W88253  29.174  37.905  11.075
17654W        W88254   6.779  20.835   2.353
17655W        W88255  32.520  21.519   0.598
17656W        W88256  28.849   9.336  14.303
17657W        W88257  38.558  41.445   0.293
17658W        W88258  20.290   9.394  12.022
17659W        W88259  13.191  31.827   4.541
17660W        W88260  43.481  30.574   1.046
17661W        W88261  30.443  30.056   1.396
17662W        W88262  18.115  44.661  14.461
17663W        W88263   6.918  38.878   4.505
17664W        W88264   4.516  42.033   1.330
17665W        W88265  32.924   8.049   0.245
17666W        W88266  42.832  37.461   0.462
17667W        W88267   8.785  40.129   1.857
17668W        W88268   9.684  10.879  13.029
17669W        W88269  30.730  38.445   3.839
17670W        W88270  32.565  35.302   0.630
17671W        W88271   1.945   6.796   0.197
17672W        W88272  20.026  30.396  10.626
17673W        W88273  43.463  11.384  10.592
17674W        W88274  28.900  28.055  12.543
17675W        W88275   3.415  44.309   1.274
17676W        W88276  22.102  11.212  10.721
17677W        W88277  39.294  27.079   1.341
17678W        W88278  24.489  34.535  13.095
17679W        W88279   2.263  14.760   3.809
17680W        W88280   0.338  12.786  14.795
17681W        W88281  12.111  38.292   0.459
17682W        W88282  13.335   5.389  12.505
17683W        W88283  16.241  12.995   2.706
17684W        W88284  32.039  34.335   0.500
17685W        W88285  36.088  39.300  10.777
17686W        W88286  40.539  20.998  10.700
17687W        W88287  20.585  10.155   0.870
17688W        W88288  10.925  42.319  11.549
17689W        W88289  33.354   9.925  10.734
17690W        W88290  35.411  20.707  14.000
17691W        W88291   2.471  28.938   2.932
17692W        W88292  23.646   1.875   1.201
17693W        W88293   8.422  14.677   4.714
17694W        W88294  38.011  43.504  11.573
17695W        W88295   1.731   1.284   3.252
17696W        W88296  33.646   9.645  11.965
17697W        W88297  44.040  44.922  12.866
17698W        W88298  25.922  41.425  13.048
17699W        W88299  28.751  32.822  13.463
17700W        W88300   3.109  40.805  12.996
17701W        W88301   7.864  16.761  14.408
17702W        W88302  43.377  27.985  13.083
17703W        W88303   8.911   4.943   4.992
17704W        W88304  22.176   5.387   0.274
17705W        W88305   8.146  44.751   2.661
17706W        W88306  28.725  35.431   0.256
17707W        W88307  41.924  20.087   2.217
17708W        W88308   9.474  23.839   3.367
17709W        W88309  36.893  42.906  11.044
17710W        W88310  40.761  32.986  14.569
17711W        W88311   0.598   2.203  11.054
17712W        W88312   0.365  10.891   1.296
17713W        W88313  43.336   4.637  13.380
17714W        W88314  38.192   8.587  11.821
17715W        W88315  10.737  23.163   0.230
17716W        W88316  24.369   2.417   3.293
17717W        W88317  19.010   0.585  11.645
17718W        W88318   4.262  20.391  13.366
17719W        W88319  11.109   4.908   2.630
17720W        W88320   7.710  39.752   3.314
17721W        W88321  39.438  13.227  12.146
17722W        W88322  31.451  16.539  14.418
17723W        W88323   2.972  18.700  11.714
17724W        W88324   4.281  25.423   0.749
17725W        W88325  37.181  24.159   1.640
17726W        W88326  19.289  19.024   2.242
17727W        W88327  34.862  20.113  11.134
17728W        W88328  39.858  14.188   0.961
17729W        W88329  12.274  19.184   4.534
17730W        W88330  43.895  10.609  10.851
17731W        W88331  14.956  43.969   0.439
17732W        W88332   0.725   7.708  10.971
17733W        W88333  21.777  18.159   3.328
17734W        W88334  22.145   2.470  12.017
17735W        W88335  25.667  41.377  12.604
17736W        W88336  39.474  34.889   3.682
17737W        W88337   6.174  37.470   2.387
17738W        W88338  14.164  15.697  10.677
17739W        W88339  18.577   7.764  11.527
17740W        W88340  17.547  35.418   3.800
17741W        W88341  20.711  40.881   4.185
17742W        W88342  36.406   0.799  13.859
17743W        W88343  15.884  30.959   5.044
17744W        W88344   6.388  24.076  11.385
17745W        W88345  30.145  13.183   4.680
17746W        W88346  30.647  40.893   4.249
17747W        W88347  13.673   4.077   3.147
17748W        W88348   0.034   6.087   4.177
17749W        W88349  25.547   0.641   5.415
17750W        W88350  40.064  29.538   3.462
17751W        W88351  13.343   7.171  10.689
17752W        W88352   3.367   7.349   1.756
17753W        W88353  15.322   8.834   1.432
17754W        W88354  29.585  44.139  14.862
17755W        W88355   2.008  38.454  13.907
17756W        W88356   0.330  28.866  12.402
17757W        W88357  40.486  11.720  13.551
17758W        W88358  42.519   0.576   0.513
17759W        W88359   9.807  33.721   2.489
17760W        W88360  43.813  32.668  14.865
17761W        W88361  15.818  23.497   3.884
17762W        W88362   4.791  11.406   2.330
17763W        W88363  41.765  41.083   4.166
17764W        W88364   4.898  39.209   3.443
17765W        W88365  11.944  19.795  12.936
17766W        W88366  41.429  16.621  13.421
17767W        W88367  43.590  43.505  13.900
17768W        W88368   7.639  15.342  14.555
17769W        W88369  18.513   3.319   0.788
17770W        W88370  12.759  16.910   4.620
17771W        W88371  33.369  16.221  13.061
17772W        W88372   5.754   0.535  13.384
17773W        W88373  44.833  25.375  12.147
17774W        W88374   7.669  15.292   1.350
17775W        W88375  28.854  10.813   0.422
17776W        W88376   4.509  19.034  11.161
17777W        W88377  38.150  21.238  12.927
17778W        W88378  40.618  42.778   3.136
17779W        W88379  12.525  40.715  14.397
17780W        W88380  13.847   1.344   0.496
17781W        W88381  16.474   4.378   4.545
17782W        W88382  10.735  12.838  10.675
17783W        W88383  24.992  33.368   1.185
17784W        W88384  23.037   7.409  14.817
17785W        W88385  17.592   4.366   2.316
17786W        W88386  30.084  22.152   4.459
17787W        W88387  32.159  37.091  11.887
17788W        W88388   1.774  32.562   0.326
17789W        W88389  36.590   5.576   4.040
17790W        W88390  42.928  38.723   4.684
17791W        W88391  26.961  40.046   0.418
17792W        W88392  42.055  10.280   3.401
17793W        W88393  42.587  24.496  11.844
17794W        W88394  24.130  26.723   1.794
17795W        W88395  17.797  39.373  11.117
17796W        W88396  18.602  25.719  14.895
17797W        W88397  11.144  21.139   4.708
17798W        W88398  28.205  23.793  12.596
17799W        W88399   4.367  25.987  12.736
17800W        W88400  38.600   7.661   4.981
17801W        W88401  38.962  30.886  11.921
17802W        W88402  24.562  13.311  14.281
17803W        W88403   6.524  38.348  11.182
17804W        W88404  22.661  23.577  11.200
17805W        W88405  29.405  34.407   3.190
17806W        W88406   5.890  36.394  12.067
17807W        W88407  31.506  38.390   0.989
17808W        W88408  13.019   6.369   3.408
17809W        W88409   4.118  32.730  12.984
17810W        W88410  21.023  19.428  13.490
17811W        W88411   8.155  43.192   3.131
17812W        W88412   5.300  37.758   2.126
17813W        W88413   8.834  32.704  10.647
17814W        W88414   2.520  38.120  11.137
17815W        W88415   3.786  27.923  11.523
17816W        W88416  32.619  13.062  13.024
17817W        W88417  18.578  40.366   2.095
17818W        W88418   7.950  40.849  14.228
17819W        W88419  38.608  10.104  14.459
17820W        W88420  21.643   5.761  12.159
17821W        W88421  25.229  43.496   3.170
17822W        W88422  14.879   6.707   0.503
17823W        W88423  20.577  13.193  13.808
17824W        W88424  30.263  41.840   4.251
17825W        W88425  39.009   2.283  10.704
17826W        W88426  16.448   2.017  12.514
17827W        W88427  28.997  32.355   2.868
17828W        W88428   1.989   3.308  14.082
17829W        W88429  20.621   1.260   3.873
17830W        W88430  15.921  33.063   4.521
17831W        W88431  43.209  30.417   9.920
17832W        W88432  44.998   9.116  11.076
17833W        W88433  38.891  14.615   3.743
17834W        W88434  22.929  14.249   1.755
17835W        W88435  34.572   0.789  14.753
17836W        W88436   1.876  14.804   3.202
17837W        W88437   9.276   9.323   1.979
17838W        W88438   6.423  36.606   1.942
17839W        W88439  16.673   0.026  13.042
17840W        W88440  20.336  25.508   0.343
17841W        W88441   1.332  40.278   3.308
17842W        W88442  22.733  42.363   2.238
17843W        W88443  26.593  13.868  13.421
17844W        W88444  39.406  27.456   0.549
17845W        W88445   0.011  17.620   1.334
17846W        W88446  29.095  15.829   3.864
17847W        W88447  21.585  42.225  12.452
17848W        W88448  25.144  15.571   1.838
17849W        W88449  27.892  43.307   0.904
17850W        W88450  20.709  44.350  12.548
17851W        W88451  42.929  19.547  11.407
17852W        W88452  25.241  28.960   0.560
17853W        W88453  26.097   3.238   2.182
17854W        W88454   5.929  15.190  10.704
17855W        W88455   5.597   4.434   0.820
17856W        W88456  23.654  24.345   0.063
17857W        W88457  22.505  10.955  12.494
17858W        W88458  22.017  37.852  13.116
17859W        W88459  44.876   0.560   1.755
17860W        W88460  42.061  18.051  10.475
17861W        W88461  10.694  11.531   0.474
17862W        W88462  32.848   9.800  14.551
17863W        W88463  19.263   3.311  14.789
17864W        W88464  41.723  35.509   0.755
17865W        W88465  29.995   7.622  12.805
17866W        W88466  10.959  11.294  12.547
17867W        W88467   0.229   2.601   4.602
17868W        W88468  34.649  14.788  14.349
17869W        W88469  11.942  39.116   4.876
17870W        W88470  26.242   4.353  14.220
17871W        W88471  40.887   2.733  11.148
17872W        W88472   6.630  29.939   3.707
17873W        W88473   1.953  29.900  13.395
17874W        W88474   9.920  42.753  14.932
17875W        W88475  21.714  23.562  13.425
17876W        W88476  24.492  44.428   3.101
17877W        W88477  37.855   3.246  14.838
17878W        W88478  37.082  40.796   2.313
17879W        W88479  17.048  36.100   3.652
17880W        W88480  37.047  30.682   4.125
17881W        W88481  19.813  13.606   0.855
17882W        W88482   3.517  44.770   1.503
17883W        W88483  10.624  23.715   4.113
17884W        W88484   1.517  24.562  12.223
17885W        W88485  22.146  30.905   3.152
17886W        W88486  10.277  35.462  11.030
17887W        W88487  44.416  41.932  12.801
17888W        W88488  37.607   3.218   2.687
17889W        W88489   1.899  17.378   1.678
17890W        W88490  16.148  15.079   0.760
17891W        W88491  14.669  19.779   3.193
17892W        W88492  41.756  38.028  14.817
17893W        W88493  37.273  27.870   2.822
17894W        W88494   3.742   5.793   3.336
17895W        W88495  43.804  32.172   0.018
17896W        W88496   8.582  35.851  14.349
17897W        W88497  39.239  27.359  12.482
17898W        W88498  41.855  11.327   0.729
17899W        W88499   6.437  13.636  12.427
17900W        W88500  37.558  44.743   0.229
17901W        W88501  37.989  31.346   4.638
17902W        W88502  40.443  35.827   4.531
17903W        W88503  25.662  12.141  11.296
17904W        W88504   9.794  26.342  12.438
17905W        W88505  38.056  20.556   0.345
17906W        W88506   4.504  23.714  14.895
17907W        W88507  14.043  16.080   0.233
17908W        W88508  29.606  23.520   2.275
17909W        W88509  11.331  13.212   4.740
17910W        W88510  16.133   8.859  11.518
17911W        W88511  14.713  37.984  12.965
17912W        W88512  20.544  28.827  12.356
17913W        W88513  11.885  43.058   0.344
17914W        W88514   9.886  32.242   2.114
17915W        W88515  28.820  21.728   1.883
17916W        W88516  10.893   6.465  14.755
17917W        W88517  27.663  13.753  13.969
17918W        W88518   2.683  41.984  10.418
17919W        W88519  34.847  21.126   4.206
17920W        W88520  43.224  34.985  10.718
17921W        W88521  34.206  27.382  11.564
17922W        W88522  35.192   8.506  12.866
17923W        W88523  35.415  27.421   0.499
17924W        W88524  15.682  23.617  10.276
17925W        W88525  29.642  13.430   2.212
17926W        W88526  20.566  42.842   3.233
17927W        W88527  23.973  31.467  14.871
17928W        W88528  21.080  29.406   2.473
17929W        W88529  40.720  16.108   1.236
17930W        W88530  11.875  21.960   1.748
17931W        W88531  19.155  31.338   4.627
17932W        W88532  11.285  18.939   1.334
17933W        W88533  12.213  20.660   0.644
17934W        W88534  30.431  16.332  14.930
17935W        W88535   4.833  23.712  12.083
17936W        W88536  11.836   5.692  10.893
17937W        W88537  40.772  30.374  11.210
17938W        W88538   8.875  29.342   0.682
17939W        W88539  37.271  10.376   2.285
17940W        W88540  23.633  20.693  13.915
17941W        W88541  12.457  39.101   4.810
17942W        W88542  21.524   2.009  12.563
17943W        W88543   7.968  28.446   4.622
17944W        W88544  20.733  16.182  13.506
17945W        W88545  33.919  24.174  14.455
17946W        W88546  37.594  24.446  14.389
17947W        W88547  14.500  40.377   0.447
17948W        W88548  22.558  31.402   0.408
17949W        W88549  11.190  39.512  14.956
17950W        W88550  33.367  12.030  14.414
17951W        W88551  26.151  42.034   1.744
17952W        W88552  26.662  24.626   3.221
17953W        W88553  36.597   1.312   4.186
17954W        W88554  32.994  11.990   3.612
17955W        W88555  34.367  28.750  12.808
17956W        W88556  31.703   0.789   3.749
17957W        W88557  33.470  39.225  12.223
17958W        W88558  16.297   2.438  13.864
17959W        W88559  30.669  12.571  12.901
17960W        W88560  19.535  36.547   4.295
17961W        W88561   1.323  23.723   0.766
17962W        W88562  15.509  37.373  12.502
17963W        W88563  12.999  22.559  11.133
17964W        W88564  41.115  40.825  12.967
17965W        W88565  25.744  30.186   2.395
17966W        W88566   3.946   8.770  10.722
17967W        W88567  31.049  23.632   2.349
17968W        W88568  11.158  21.346  13.843
17969W        W88569  24.118  43.473   5.432
17970W        W88570  21.661  24.263  10.668
17971W        W88571  18.128  28.023   2.796
17972W        W88572  42.888  26.325   2.821
17973W        W88573   4.700  20.665  13.534
17974W        W88574  25.430  31.079   3.488
17975W        W88575   2.757  16.853   4.596
17976W        W88576  41.413  29.336   0.260
17977W        W88577  43.824  17.153  13.518
17978W        W88578  44.540  34.438   3.498
17979W        W88579  16.040  23.790   1.403
17980W        W88580  32.825   3.413  14.538
17981W        W88581   8.143  44.382  12.830
17982W        W88582  33.023  31.329   2.235
17983W        W88583  36.325  10.616  12.160
17984W        W88584   6.179  14.095  12.429
17985W        W88585  21.509  29.430   5.012
17986W        W88586   3.008  43.370  12.565
17987W        W88587  26.362  31.642  11.486
17988W        W88588  16.999  18.632   3.378
17989W        W88589   2.712  37.092  11.583
17990W        W88590  42.411  22.064  13.828
17991W        W88591   2.686  21.155  14.427
17992W        W88592  40.568   7.273  14.235
17993W        W88593  31.763   9.823  13.399
17994W        W88594  16.266  27.255   4.207
17995W        W88595  37.886  42.652   4.526
17996W        W88596  13.568  13.742  14.886
17997W        W88597  17.551   8.837  10.263
17998W        W88598  36.561  15.014  14.531
17999W        W88599  42.885  33.397  13.984
18000W        W88600  27.627  35.077   2.889
18001W        W88601  40.828  40.305  14.154
18002W        W88602  27.279  20.449  11.122
18003W        W88603  10.899   8.888  10.683
18004W        W88604  37.996   1.886  13.790
18005W        W88605  21.761  28.257  11.182
18006W        W88606  25.948  11.048  14.001
18007W        W88607  41.615  21.940   0.400
18008W        W88608  11.033  44.101   3.802
18009W        W88609  39.360  19.597   4.889
18010W        W88610  28.057   5.700  14.465
18011W        W88611   5.392  10.297  14.514
18012W        W88612  40.738  32.020   3.841
18013W        W88613  15.726  37.833   4.154
18014W        W88614  15.822  30.384  14.952
18015W        W88615  14.116  22.745  13.958
18016W        W88616  44.759  32.728  13.450
18017W        W88617  42.478  12.668   1.651
18018W        W88618   4.516  42.832   1.607
18019W        W88619  19.550   1.729  12.295
18020W        W88620  11.239  24.185   4.554
18021W        W88621  20.881   7.429  14.901
18022W        W88622  19.241  13.580  14.967
18023W        W88623  43.979  23.649  13.879
18024W        W88624  16.665  42.948  11.482
18025W        W88625  11.995  40.512  13.460
18026W        W88626  28.112  43.999   1.937
18027W        W88627  24.198  18.790  13.604
18028W        W88628  28.089  42.225  14.402
18029W        W88629   0.690  41.742  12.456
18030W        W88630  40.799  44.705   4.072
18031W        W88631   7.898  17.701  13.844
18032W        W88632  11.248  35.103   0.020
18033W        W88633  12.965  16.052   3.430
18034W        W88634  14.667   0.459  10.305
18035W        W88635  16.928  36.854   4.099
18036W        W88636  20.616  11.887   4.271
18037W        W88637  37.429  24.187   1.188
18038W        W88638  41.263  43.368   2.288
18039W        W88639  13.400   6.371  14.531
18040W        W88640  11.889  18.477   3.680
18041W        W88641  20.580   9.346   3.606
18042W        W88642  16.135   7.777   3.232
18043W        W88643   8.236  43.048   1.693
18044W        W88644  39.015  34.156   0.760
18045W        W88645  20.135  32.677  14.597
18046W        W88646  16.622  29.096  11.102
18047W        W88647  35.435   2.056  11.057
18048W        W88648   7.538  31.471   1.687
18049W        W88649   9.597  40.699   3.353
18050W        W88650  11.612  17.707  12.063
18051W        W88651  43.910  12.250  11.024
18052W        W88652  14.794  39.778  13.986
18053W        W88653  17.369   6.139  14.428
18054W        W88654  10.094  32.138  13.926
18055W        W88655  40.434   2.283   1.400
18056W        W88656  37.535  25.195  12.635
18057W        W88657   5.582  44.021   2.029
18058W        W88658  38.346  43.375  14.830
18059W        W88659  16.077  30.902   1.758
18060W        W88660  42.870   7.447  11.011
18061W        W88661  30.157  18.260   4.262
18062W        W88662  42.876  25.243  14.151
18063W        W88663  35.032  11.339   2.133
18064W        W88664  32.626  24.279  13.463
18065W        W88665  16.004  13.174  11.979
18066W        W88666  11.174  17.838  11.122
18067W        W88667  10.604  17.288   0.831
18068W        W88668  22.348  12.790   4.735
18069W        W88669  37.411  24.214  11.146
18070W        W88670  44.928   6.351  13.779
18071W        W88671   8.881  42.274  13.815
18072W        W88672  30.604  18.254   3.326
18073W        W88673  44.501  25.254  13.348
18074W        W88674  29.060  22.642   0.758
18075W        W88675   8.407  43.239  14.305
18076W        W88676  29.637  21.739  12.093
18077W        W88677  24.686   8.443  14.242
18078W        W88678  39.276  35.221   0.062
18079W        W88679  41.571   2.825  13.562
18080W        W88680  25.002  13.880  13.936
18081W        W88681  27.137  35.206  12.738
18082W        W88682  43.273  39.353   4.931
18083W        W88683  42.356  36.476  13.069
18084W        W88684  28.031  32.007   3.184
18085W        W88685   7.172   3.638  12.028
18086W        W88686  16.578  43.520  13.436
18087W        W88687  19.206  42.902   0.171
18088W        W88688  23.001  11.105  13.938
18089W        W88689  27.463   1.212  11.154
18090W        W88690  16.734  18.993   0.128
18091W        W88691  10.895   3.347   3.349
18092W        W88692   2.988  10.870   1.983
18093W        W88693  40.363  37.538  13.806
18094W        W88694  23.110  43.237   3.161
18095W        W88695   2.696   5.172   4.001
18096W        W88696   6.972  30.634  12.834
18097W        W88697  27.972   2.135   4.199
18098W        W88698  21.071  26.181   4.071
18099W        W88699  19.666  20.664  13.717
18100W        W88700  28.112  15.243  13.607
18101W        W88701  28.189  10.845   1.682
18102W        W88702  30.148  43.364  14.989
18103W        W88703  33.839  12.750  11.024
18104W        W88704  30.372  19.545  10.660
18105W        W88705  30.594  21.728   0.318
18106W        W88706   6.961  16.520  11.242
18107W        W88707  28.588  37.615   3.683
18108W        W88708   5.771  33.801   4.473
18109W        W88709  21.595  16.795  10.593
18110W        W88710  17.287  34.201   1.422
18111W        W88711  18.546  44.245   2.768
18112W        W88712  14.268   2.507   1.300
18113W        W88713  14.327  14.274   1.468
18114W        W88714  40.268   5.883   2.841
18115W        W88715  43.775  13.346  11.213
18116W        W88716  28.139  34.686  14.645
18117W        W88717  13.655  17.298   0.389
18118W        W88718  18.498  15.773   5.013
18119W        W88719  20.320  36.948   4.157
18120W        W88720  33.464   2.597   3.655
18121W        W88721   6.757  39.241  11.166
18122W        W88722   5.251  15.737  14.843
18123W        W88723   1.126   5.370   2.577
18124W        W88724  37.807   8.870  13.030
18125W        W88725   4.443  15.744  11.533
18126W        W88726  26.438   5.098   4.739
18127W        W88727  43.999  27.638  14.733
18128W        W88728  17.178  26.980   2.236
18129W        W88729  14.998   8.199   3.195
18130W        W88730  33.583   1.573   3.676
18131W        W88731  18.575  26.319   0.414
18132W        W88732   6.351   3.407  11.586
18133W        W88733   9.474   7.240   3.617
18134W        W88734  27.329  32.964   2.112
18135W        W88735  38.477  34.818  14.380
18136W        W88736  28.338  42.275  10.746
18137W        W88737  35.053  25.611  10.947
18138W        W88738  19.229  25.429   9.997
18139W        W88739  35.614   7.231   2.258
18140W        W88740  16.115  21.224   2.130
18141W        W88741  40.358  22.455  11.438
18142W        W88742  27.938  16.530   4.572
18143W        W88743  16.913  44.176   3.063
18144W        W88744   7.873  21.560   0.835
18145W        W88745  34.632  11.101   2.354
18146W        W88746   0.481   1.218   2.763
18147W        W88747  31.191   0.807   4.143
18148W        W88748  40.092  26.269  13.476
18149W        W88749   1.648   5.464   2.623
18150W        W88750  31.933  30.702   2.130
18151W        W88751  14.867  22.203   4.632
18152W        W88752  23.650  35.309  10.709
18153W        W88753  31.826  19.806   0.172
18154W        W88754  15.194   8.156  10.685
18155W        W88755   6.816   0.955  14.802
18156W        W88756  36.149  21.668  13.469
18157W        W88757  10.401  25.718   0.503
18158W        W88758  23.582  30.642  11.224
18159W        W88759  41.858  40.011   1.933
18160W        W88760   2.920  21.509  12.815
18161W        W88761  35.642  18.615  14.345
18162W        W88762   0.347  44.753   2.788
18163W        W88763   0.722  21.121  14.779
18164W        W88764  28.675  41.560  14.389
18165W        W88765  30.594   4.489   0.658
18166W        W88766  29.266  20.289   4.615
18167W        W88767  25.513  10.018   3.187
18168W        W88768  41.012  35.081  11.991
18169W        W88769  32.672  44.203   4.156
18170W        W88770  41.146  38.162  13.921
18171W        W88771  44.443  27.066  13.574
18172W        W88772  43.004  18.606  14.873
18173W        W88773  13.250   9.347   0.713
18174W        W88774   7.778  10.344  13.049
18175W        W88775  43.208   9.437   3.690
18176W        W88776  35.919  26.731   4.948
18177W        W88777   3.974  36.131   3.143
18178W        W88778  37.954  16.663  10.487
18179W        W88779  15.156  23.309  12.998
18180W        W88780  27.534  36.128  12.862
18181W        W88781  23.964  17.844   1.200
18182W        W88782  22.579   2.994  12.944
18183W        W88783  26.685  10.121   3.240
18184W        W88784  30.962  31.521   0.340
18185W        W88785   0.951  11.188   2.048
18186W        W88786  11.670  19.795  11.578
18187W        W88787  27.223  40.302   3.231
18188W        W88788  19.541   2.740  13.842
18189W        W88789  20.017   3.001   3.334
18190W        W88790  35.188   5.168  12.275
18191W        W88791  31.744   0.517  12.153
18192W        W88792  37.611   7.729   4.173
18193W        W88793  19.850  15.066  13.597
18194W        W88794  32.021  27.930   2.682
18195W        W88795  16.334  19.899   1.260
18196W        W88796  36.182  17.601  14.019
18197W        W88797  38.077  37.497  14.830
18198W        W88798  38.040   8.402  13.073
18199W        W88799  41.188  12.290   1.999
18200W        W88800  16.036   3.895  10.709
18201W        W88801  33.059   0.760   2.184
18202W        W88802  36.818   3.150   0.758
18203W        W88803  18.747  25.088  11.157
18204W        W88804  34.585  39.567  14.792
18205W        W88805  23.680  24.967  14.203
18206W        W88806   4.719  18.677   3.250
18207W        W88807   1.754  30.185  12.994
18208W        W88808  34.014  32.417  13.842
18209W        W88809  12.820  39.828  14.466
18210W        W88810  16.384   5.584  14.505
18211W        W88811   9.887  10.118   4.331
18212W        W88812   9.371  10.474  10.567
18213W        W88813  25.992  32.887   0.354
18214W        W88814  28.587  19.560   1.443
18215W        W88815  38.043  37.106   0.781
18216W        W88816  32.401  22.594   0.791
18217W        W88817  10.891  26.687  12.479
18218W        W88818   3.468  13.657   3.261
18219W        W88819  35.011   9.922  11.232
18220W        W88820  23.479   0.527   0.995
18221W        W88821   3.239  23.837  11.563
18222W        W88822  22.975   4.558  10.811
18223W        W88823   0.176  28.938  11.037
18224W        W88824   5.216  40.579  10.448
18225W        W88825  12.012  30.898   0.897
18226W        W88826  21.547   9.252  13.818
18227W        W88827  42.272  16.324  11.214
18228W        W88828  43.840  30.533   3.405
18229W        W88829   9.161  39.074  13.425
18230W        W88830  12.360  23.298   4.184
18231W        W88831  10.875   9.247   0.373
18232W        W88832  21.580   1.021  13.914
18233W        W88833  39.527  30.491   0.204
18234W        W88834  39.394  39.501   2.805
18235W        W88835  24.504  30.157   4.924
18236W        W88836   6.983  36.239  13.338
18237W        W88837  39.389   4.445  12.149
18238W        W88838  19.037  37.425   4.204
18239W        W88839  38.475  43.874  13.387
18240W        W88840  18.847  23.200  13.411
18241W        W88841   3.992   3.936  13.514
18242W        W88842  11.689  44.242   1.662
18243W        W88843   7.103  25.234   1.848
18244W        W88844  11.933  13.784   0.985
18245W        W88845  32.134  36.531  10.732
18246W        W88846  34.010  16.038   4.567
18247W        W88847   1.776  14.375  11.069
18248W        W88848  43.574  20.676  11.147
18249W        W88849  29.315  41.524  12.946
18250W        W88850  37.006  18.236   3.574
18251W        W88851   4.696  38.347   0.943
18252W        W88852  18.355  18.098   2.181
18253W        W88853  44.953  42.567  10.730
18254W        W88854   6.686   3.333  11.201
18255W        W88855  18.234  11.379   1.590
18256W        W88856   8.971  38.857   2.660
18257W        W88857   7.407   9.917  14.388
18258W        W88858   9.382  26.579  11.219
18259W        W88859  37.537   1.461  10.567
18260W        W88860  42.138  44.328  11.292
18261W        W88861  20.687  28.485  14.937
18262W        W88862  33.040  29.424   4.532
18263W        W88863  33.209  23.727  12.675
18264W        W88864  22.920  37.544   2.776
18265W        W88865  38.870  15.287  11.179
18266W        W88866  44.095  43.540   4.538
18267W        W88867  25.216   9.428  10.769
18268W        W88868   9.390   2.954  10.784
18269W        W88869   3.799  39.923   0.779
18270W        W88870  31.870  37.011  14.273
18271W        W88871   6.921  33.192  13.926
18272W        W88872  43.318  21.789  13.393
18273W        W88873  11.156  25.591  10.731
18274W        W88874  27.504  22.640   4.760
18275W        W88875   7.485  33.664  13.449
18276W        W88876  11.338  32.500  13.962
18277W        W88877  40.580   1.787   4.254
18278W        W88878  32.394  10.294  10.642
18279W        W88879   5.310  28.060   1.638
18280W        W88880  39.110  22.722  14.358
18281W        W88881  15.710  44.089   2.242
18282W        W88882  31.593  21.007   3.591
18283W        W88883  34.344   7.381   3.677
18284W        W88884  18.817  39.135  13.704
18285W        W88885  15.569   5.887  11.745
18286W        W88886  27.111  20.134   1.817
18287W        W88887   8.774  43.983   0.797
18288W        W88888   5.891  18.139  14.494
18289W        W88889  41.056  13.658  13.074
18290W        W88890  28.487   6.483  11.532
18291W        W88891  40.905  26.453   4.221
18292W        W88892  12.746   0.453   4.349
18293W        W88893  21.133   4.692  11.026
18294W        W88894  16.118  28.560   0.699
18295W        W88895  14.867  29.658   4.057
18296W        W88896  23.667  21.333  11.923
18297W        W88897   2.407  26.615  11.409
18298W        W88898  35.538   8.571  11.189
18299W        W88899  16.346  41.230  10.146
18300W        W88900  12.852  12.582   1.920
18301W        W88901  13.732  29.740  12.422
18302W        W88902  15.622   4.473  12.497
18303W        W88903  19.442  44.698   2.295
18304W        W88904  42.270  32.992   0.371
18305W        W88905  42.858  24.165   0.863
18306W        W88906  20.761  21.095   4.038
18307W        W88907  41.393  14.672  12.086
18308W        W88908  18.706  13.445   3.970
18309W        W88909  11.374  33.432  13.390
18310W        W88910  39.554  25.022  10.808
18311W        W88911  29.535  10.250   5.047
18312W        W88912  36.694  14.784  14.088
18313W        W88913  11.590   9.334  12.836
18314W        W88914  23.110  29.927   1.427
18315W        W88915  41.368  43.406   1.791
18316W        W88916  25.210   9.524   4.964
18317W        W88917  34.344  20.584   2.859
18318W        W88918  20.006  33.112   2.902
18319W        W88919  14.337  44.579   4.171
18320W        W88920  11.679  20.291  12.492
18321W        W88921  20.051  16.371   1.939
18322W        W88922   0.940  32.446   4.139
18323W        W88923  28.098  33.585   1.028
18324W        W88924   2.360  15.778  13.841
18325W        W88925  28.800  17.785  13.200
18326W        W88926  30.435  43.829   1.504
18327W        W88927  39.536   8.052   0.476
18328W        W88928  31.982  10.623  10.604
18329W        W88929  35.769   1.052   2.644
18330W        W88930  23.523   0.763  13.019
18331W        W88931  22.430   3.038   3.917
18332W        W88932  25.779  39.039   0.684
18333W        W88933  32.581  10.673   4.610
18334W        W88934   7.851  12.094  10.759
18335W        W88935  12.938  29.186   1.789
18336W        W88936  39.035  26.199   1.798
18337W        W88937  11.141   7.501   1.825
18338W        W88938  35.434   0.797   3.850
18339W        W88939  21.504  11.864   1.167
18340W        W88940  31.547  22.475  10.653
18341W        W88941  18.135   1.392   2.310
18342W        W88942  21.736  11.276   2.315
18343W        W88943  33.468  42.502   4.306
18344W        W88944  12.311  39.313   3.923
18345W        W88945  43.376  20.300   4.062
18346W        W88946   0.978   3.606  11.119
18347W        W88947  29.997  44.526  12.942
18348W        W88948  37.051  30.928  13.184
18349W        W88949  12.243  14.658  11.178
18350W        W88950  22.290  27.014   1.984
18351W        W88951  43.870  29.911  13.103
18352W        W88952   6.238   2.979   2.555
18353W        W88953  13.103  23.998   2.201
18354W        W88954  25.368  14.535   1.073
18355W        W88955  39.786  14.410  12.037
18356W        W88956   2.200  30.859   3.644
18357W        W88957   3.532  25.279   4.104
18358W        W88958  27.694  44.839  11.342
18359W        W88959  19.839  29.530  11.931
18360W        W88960   8.294   3.424  14.400
18361W        W88961  25.675   5.685  12.352
18362W        W88962   1.467  29.117   3.175
18363W        W88963   9.851  34.372   0.545
18364W        W88964  41.529  20.516   0.936
18365W        W88965  35.462  11.400  11.248
18366W        W88966  10.205  25.667  12.991
18367W        W88967  36.913  27.889  10.649
18368W        W88968  30.103  11.842   3.233
18369W        W88969  36.605  16.284   3.241
18370W        W88970  25.672  42.080   3.299
18371W        W88971  41.856  25.464   0.363
18372W        W88972  13.829  22.218  12.036
18373W        W88973   7.953  22.574   2.183
18374W        W88974   0.988  33.560  13.585
18375W        W88975   6.412   8.846  12.408
18376W        W88976  36.041  26.959   0.012
18377W        W88977  14.933  34.883  13.324
18378W        W88978  34.381  14.226  14.376
18379W        W88979  30.541   7.295  14.806
18380W        W88980  33.055  33.494   3.817
18381W        W88981  24.730   9.312   4.962
18382W        W88982  41.795  34.704  11.670
18383W        W88983   9.742  14.569   1.672
18384W        W88984  34.699  18.366   4.687
18385W        W88985   9.357  40.947   2.168
18386W        W88986  13.710  17.093  11.494
18387W        W88987  39.356  20.930   2.428
18388W        W88988  32.322   8.341  10.747
18389W        W88989   3.252   1.510   1.372
18390W        W88990  30.456   5.536  11.085
18391W        W88991  35.672   5.382   1.258
18392W        W88992  43.991  20.292   0.933
18393W        W88993  21.123  10.938  12.596
18394W        W88994  40.013  15.482   1.786
18395W        W88995  37.370  43.177   2.815
18396W        W88996  38.983  18.638  13.432
18397W        W88997   6.127  35.993  13.399
18398W        W88998  19.172  28.894  14.379
18399W        W88999  19.083  37.435   2.180
18400W        W89000   5.037  18.132   1.843
18401W        W89001  23.079  37.952  11.091
18402W        W89002  11.658  22.391  12.915
18403W        W89003  28.623  38.038   4.914
18404W        W89004  26.605  36.458  10.652
18405W        W89005   7.087  27.025  13.918
18406W        W89006  22.664  12.680  11.539
18407W        W89007  40.113  42.976  11.495
18408W        W89008  20.765  13.178   3.706
18409W        W89009   5.398  29.367   0.209
18410W        W89010  29.449  15.454   0.244
18411W        W89011  25.607  44.591   1.480
18412W        W89012   1.012  16.672   3.564
18413W        W89013   0.530   3.728  14.644
18414W        W89014  25.068   4.375  11.559
18415W        W89015  40.847  16.245  10.172
18416W        W89016  24.649  12.261   3.667
18417W        W89017  23.473  31.436   0.086
18418W        W89018   6.775  10.072  12.382
18419W        W89019  24.631  22.682  11.657
18420W        W89020  13.576   2.298  14.402
18421W        W89021   7.624  34.558  12.869
18422W        W89022  13.374  12.708  13.740
18423W        W89023  14.113  16.571   0.881
18424W        W89024  21.959  25.428  13.599
18425W        W89025  31.324   9.058  11.684
18426W        W89026  35.674  28.513  12.918
18427W        W89027  25.432  12.886  11.297
18428W        W89028  13.599  27.933  11.887
18429W        W89029  15.353  27.001  13.606
18430W        W89030  27.942  20.767   1.754
18431W        W89031  13.501  31.501  13.913
18432W        W89032   7.668  32.131  11.643
18433W        W89033  23.759   6.887  11.342
18434W        W89034  29.638  39.918  13.421
18435W        W89035   5.179   4.939   1.752
18436W        W89036   8.426  29.379   2.332
18437W        W89037   6.275  10.400  14.531
18438W        W89038  23.292  24.223  12.868
18439W        W89039  34.595  16.313  11.149
18440W        W89040  40.519  41.130  14.265
18441W        W89041  40.700   0.908   1.563
18442W        W89042  44.208  41.309   2.772
18443W        W89043  14.880   4.217  14.498
18444W        W89044  40.671  35.982  14.813
18445W        W89045  13.277   6.869   4.988
18446W        W89046  27.517  10.849   0.384
18447W        W89047  11.623  34.874  11.968
18448W        W89048   8.624  12.154  14.807
18449W        W89049  37.088  22.655  12.902
18450W        W89050   3.744  34.474   3.747
18451W        W89051  34.487  14.638  10.547
18452W        W89052   8.604  25.585   4.566
18453W        W89053  44.854   9.890   4.177
18454W        W89054  35.798  23.446   3.489
18455W        W89055  40.527  17.990   2.142
18456W        W89056   8.217  14.263   4.402
18457W        W89057  12.229  42.149  10.148
18458W        W89058  30.716  40.483  11.279
18459W        W89059  34.569  18.559   0.865
18460W        W89060  36.102  23.016   3.399
18461W        W89061  25.747   2.016   4.230
18462W        W89062  28.735  13.713   2.318
18463W        W89063   7.757   0.750  14.530
18464W        W89064  13.213  37.225   3.369
18465W        W89065  10.601  35.838  11.126
18466W        W89066  25.458  44.554   1.969
18467W        W89067  10.272  37.613  14.517
18468W        W89068  41.798  37.513   0.725
18469W        W89069   6.389   0.771   3.728
18470W        W89070  12.273  37.390   2.102
18471W        W89071  25.428  38.136   0.802
18472W        W89072  29.958  37.300  12.567
18473W        W89073  13.223  34.932   3.566
18474W        W89074  22.256  26.741  13.667
18475W        W89075   3.701  15.191  10.701
18476W        W89076  37.872  16.388   4.075
18477W        W89077   6.106  20.350   0.865
18478W        W89078  21.401  29.710  11.920
18479W        W89079  18.094  33.526  10.733
18480W        W89080  21.203   2.933   2.805
18481W        W89081  14.223   7.150  12.528
18482W        W89082  11.773  18.693  12.212
18483W        W89083  26.912   0.410  12.053
18484W        W89084  32.285   3.382  11.481
18485W        W89085  15.766  29.616  13.912
18486W        W89086  41.230  39.970   4.958
18487W        W89087  16.156   6.925   1.452
18488W        W89088   5.887  38.386   3.906
18489W        W89089  41.480  24.671  12.075
18490W        W89090  36.798  28.762  11.616
18491W        W89091  18.977  13.211  13.881
18492W        W89092  21.257   5.818  11.379
18493W        W89093  37.414  21.619  11.648
18494W        W89094  35.720  39.706   0.377
18495W        W89095  26.495  29.633  10.572
18496W        W89096  28.433  17.822  12.409
18497W        W89097  37.242  38.061   4.085
18498W        W89098  19.098  28.883   0.323
18499W        W89099   9.789  39.881  14.717
18500W        W89100  15.605   9.029  11.512
18501W        W89101  30.900  18.739   2.132
18502W        W89102  13.937  18.619  14.449
18503W        W89103  17.036  44.496   3.586
18504W        W89104  22.655  30.933  11.199
18505W        W89105   8.978   1.475   2.884
18506W        W89106  34.088  25.344   0.855
18507W        W89107  19.309  36.333  14.446
18508W        W89108  24.638  36.474   2.144
18509W        W89109  32.933  33.954   0.035
18510W        W89110  29.428   6.861   4.121
18511W        W89111  14.230  27.420   1.171
18512W        W89112  30.746  26.969  14.800
18513W        W89113   4.410  16.518  14.474
18514W        W89114  40.460   3.086   0.123
18515W        W89115  22.592  33.388   2.381
18516W        W89116  17.656   3.968  11.237
18517W        W89117  31.042  12.241  14.451
18518W        W89118  27.957  23.107   2.189
18519W        W89119  39.322  29.276   0.807
18520W        W89120  10.234  11.841   4.597
18521W        W89121   9.533  27.941   0.357
18522W        W89122   5.003   5.700  13.899
18523W        W89123   2.868  23.516  12.542
18524W        W89124  31.324  19.241  12.056
18525W        W89125  30.163  31.392   1.745
18526W        W89126  43.868  33.452  12.847
18527W        W89127  31.974  28.598  11.285
18528W        W89128   1.494  12.258   1.379
18529W        W89129  24.570  17.837   4.123
18530W        W89130  33.133  15.594  14.653
18531W        W89131   4.108  26.120  11.234
18532W        W89132  27.027   7.350   4.632
18533W        W89133  41.206   3.365   1.102
18534W        W89134  40.558  14.710  13.998
18535W        W89135  24.939   3.678   4.738
18536W        W89136  26.700  12.692   2.002
18537W        W89137   7.011   3.362  11.605
18538W        W89138   4.048  36.613   1.419
18539W        W89139  14.307  29.551  14.985
18540W        W89140  42.190  34.381  11.656
18541W        W89141   0.340  11.904  13.116
18542W        W89142   0.409  15.062   2.723
18543W        W89143  13.300  34.518  11.619
18544W        W89144   6.280  16.459  10.681
18545W        W89145  44.706  30.844  12.175
18546W        W89146  34.448  21.991   0.739
18547W        W89147   9.063  44.267  13.858
18548W        W89148  40.970  41.130  10.535
18549W        W89149   4.923  10.882  14.994
18550W        W89150  18.178  25.045   0.897
18551W        W89151  39.531  21.286  12.412
18552W        W89152  10.163   9.879  11.095
18553W        W89153  25.180  38.400  14.796
18554W        W89154   3.857  16.818   3.107
18555W        W89155  37.472  35.406  13.619
18556W        W89156   7.104  41.558   1.890
18557W        W89157   5.885  24.298  12.992
18558W        W89158  25.024  27.104  10.602
18559W        W89159  28.733   1.727   4.735
18560W        W89160  35.456  10.842   1.398
18561W        W89161  22.566  40.605   2.719
18562W        W89162  23.046  12.611   3.159
18563W        W89163  41.765  34.426   1.361
18564W        W89164  10.832  36.703  12.561
18565W        W89165  38.052  27.426  11.600
18566W        W89166  20.022  29.629  13.338
18567W        W89167  13.379  21.990   1.344
18568W        W89168  41.411  17.799  12.812
18569W        W89169  30.035  17.152   3.255
18570W        W89170  10.198  19.601  13.145
18571W        W89171  22.461  16.141  10.814
18572W        W89172  43.793  40.633  13.814
18573W        W89173   4.691  17.564  13.423
18574W        W89174  20.947  27.446  12.068
18575W        W89175   9.632   6.394  12.760
18576W        W89176  40.360  30.407   1.409
18577W        W89177  28.300   5.827   2.778
18578W        W89178  33.357  17.703   0.720
18579W        W89179  25.823  13.172  14.881
18580W        W89180  44.407  23.437  13.056
18581W        W89181  18.796   4.320   1.954
18582W        W89182  37.457  32.737  13.465
18583W        W89183  32.979  19.187  10.665
18584W        W89184   8.360  13.851  14.212
18585W        W89185   6.009  38.334  12.839
18586W        W89186  34.032  30.324  11.272
18587W        W89187  40.436  43.220  13.867
18588W        W89188  32.561  28.111  12.256
18589W        W89189   1.525  32.298  13.535
18590W        W89190  35.873  40.244  10.479
18591W        W89191  37.857  20.230   4.243
18592W        W89192  34.620  37.345  11.162
18593W        W89193  38.806  17.943   3.684
18594W        W89194  21.754   5.122   2.770
18595W        W89195  11.679  37.901   0.431
18596W        W89196  19.663  19.735  13.754
18597W        W89197  31.922  25.449   3.761
18598W        W89198  42.784  17.559   1.761
18599W        W89199   1.482  24.215   0.921
18600W        W89200  13.367   0.838  12.083
18601W        W89201  38.490   7.268  14.411
18602W        W89202   3.926  37.297  12.413
18603W        W89203   9.348  25.477  13.410
18604W        W89204   8.835  39.796  14.301
18605W        W89205  20.512  37.413   4.564
18606W        W89206  19.132  17.776  12.547
18607W        W89207  10.625  26.381  13.417
18608W        W89208   9.089  21.225  12.977
18609W        W89209  20.384  16.803  14.868
18610W        W89210  14.136  43.248  14.586
18611W        W89211   6.925  19.246   0.027
18612W        W89212   8.431  26.539   2.864
18613W        W89213  37.513  12.261  13.959
18614W        W89214  10.488  42.785   5.056
18615W        W89215  41.894  35.779   4.671
18616W        W89216  24.787  37.380   1.767
18617W        W89217  34.683   5.334   4.140
18618W        W89218  34.852  22.574  10.640
18619W        W89219  19.789   1.229   2.181
18620W        W89220  44.308  10.462   4.990
18621W        W89221  40.573  28.895  12.820
18622W        W89222   2.532  42.004   3.160
18623W        W89223  10.614  14.047  12.545
18624W        W89224  34.059   2.981  14.505
18625W        W89225  36.318  30.733  12.109
18626W        W89226  36.389  17.560   3.805
18627W        W89227  24.085  16.270   1.829
18628W        W89228  21.009   3.972  11.548
18629W        W89229  33.085  40.882   3.816
18630W        W89230  28.394  28.908   3.277
18631W        W89231  13.370   7.644  14.067
18632W        W89232  43.350  10.930   2.385
18633W        W89233  28.960  38.758   4.112
18634W        W89234  42.923   5.809  10.868
18635W        W89235  44.816   0.063   1.890
18636W        W89236  21.441   6.290   2.040
18637W        W89237   3.445  17.905   0.414
18638W        W89238  24.000  23.131   2.846
18639W        W89239   5.824  26.246   1.828
18640W        W89240  36.049  22.149   2.263
18641W        W89241  26.647   3.001  12.949
18642W        W89242  32.595  44.684   0.306
18643W        W89243  28.085   0.360   2.672
18644W        W89244   4.676   8.412  11.047
18645W        W89245  43.768  18.096   4.729
18646W        W89246  21.835  20.605   4.599
18647W        W89247  32.941  32.008   2.760
18648W        W89248  26.118  24.945  10.540
18649W        W89249  35.424   0.249   3.191
18650W        W89250  22.448   1.861   4.760
18651W        W89251  12.567  38.587  12.896
18652W        W89252  14.863  21.465  13.878
18653W        W89253  27.924  42.036   3.768
18654W        W89254  13.155  15.143   1.004
18655W        W89255  37.004   0.817  14.855
18656W        W89256   3.459  18.218  10.728
18657W        W89257  19.144   2.820   2.137
18658W        W89258  32.609  17.027   2.390
18659W        W89259   9.247  26.270   2.004
18660W        W89260  20.123  25.692  14.847
18661W        W89261  14.053  14.540  12.835
18662W        W89262  24.058  27.799   4.863
18663W        W89263  44.778  39.061   3.272
18664W        W89264  35.078  22.588  11.517
18665W        W89265  34.909  26.610  13.434
18666W        W89266  31.990  41.373   5.091
18667W        W89267  22.706  26.549  13.489
18668W        W89268  28.375  19.947   2.769
18669W        W89269  16.950  43.271   9.756
18670W        W89270  20.109  15.863   0.823
18671W        W89271  32.494  25.398   0.288
18672W        W89272  33.400  20.035  12.924
18673W        W89273  26.473  37.494   0.525
18674W        W89274  42.748  44.330   0.182
18675W        W89275  31.925   3.161   2.224
18676W        W89276   5.660  11.643  14.746
18677W        W89277  19.863  23.208  14.631
18678W        W89278  21.573  41.212  12.447
18679W        W89279   8.574   4.349  12.430
18680W        W89280  26.550   5.753   1.249
18681W        W89281  30.028  34.833   0.851
18682W        W89282  14.799  17.044   4.174
18683W        W89283  17.252  32.168   2.188
18684W        W89284  24.806  25.520  14.372
18685W        W89285  17.074  41.004  14.999
18686W        W89286  26.960  39.749   3.754
18687W        W89287  26.443  22.989   3.642
18688W        W89288  19.055  42.950  11.164
18689W        W89289   5.423  28.529  12.568
18690W        W89290  19.647   7.289  10.693
18691W        W89291  32.599  21.467   3.553
18692W        W89292   7.626   8.415  12.054
18693W        W89293  26.606   6.375  10.668
18694W        W89294  16.107   0.972  14.271
18695W        W89295   5.665  11.339   0.404
18696W        W89296   7.561  27.511  11.695
18697W        W89297  20.713  18.528  11.212
18698W        W89298  38.014  16.307   0.821
18699W        W89299  44.751  43.846   1.489
18700W        W89300  25.797  25.722  14.616
18701W        W89301  20.022  43.336   3.590
18702W        W89302  39.331   1.147  14.952
18703W        W89303   1.843  30.090  11.011
18704W        W89304  17.513   6.847   0.729
18705W        W89305  29.897  38.047   3.698
18706W        W89306  33.438   8.935   5.173
18707W        W89307  13.043  36.067  13.374
18708W        W89308  30.748   8.770  10.404
18709W        W89309  24.501   4.355   0.854
18710W        W89310  22.738  29.991   0.629
18711W        W89311  30.150  42.934   3.726
18712W        W89312   3.267  40.371  14.265
18713W        W89313  38.775  26.997  13.560
18714W        W89314  12.062  37.026   2.783
18715W        W89315   4.458  35.639   0.339
18716W        W89316  44.949  14.694   0.547
18717W        W89317  38.504   3.405  10.245
18718W        W89318  22.010  41.645  13.674
18719W        W89319   1.307  27.664   3.560
18720W        W89320  43.222   7.138  13.503
18721W        W89321  19.178  40.047  14.816
18722W        W89322  41.931  12.500  13.106
18723W        W89323  38.836   3.483   3.802
18724W        W89324  30.972  27.862  14.973
18725W        W89325  16.171   8.872  13.086
18726W        W89326  21.687  41.744   1.838
18727W        W89327  19.949  24.090  13.570
18728W        W89328   2.935   5.573   1.124
18729W        W89329  17.999  19.759   2.300
18730W        W89330   8.924  33.436   1.233
18731W        W89331  41.502  44.632   2.941
18732W        W89332  29.995  29.521  12.700
18733W        W89333  21.076  41.426  14.564
18734W        W89334  26.468  20.804   1.860
18735W        W89335  35.621   1.986  13.999
18736W        W89336   3.384  43.886   1.007
18737W        W89337   3.959  39.555  13.486
18738W        W89338  10.226   2.735  11.076
18739W        W89339   9.234  42.493   1.491
18740W        W89340  27.260  40.828   0.972
18741W        W89341   0.442  10.735   2.417
18742W        W89342  14.229   7.582  14.900
18743W        W89343  14.458  12.040   0.245
18744W        W89344  35.113  42.779  11.312
18745W        W89345  38.923   2.441   1.892
18746W        W89346  32.115  32.569   3.129
18747W        W89347  13.071  25.442  14.498
18748W        W89348  28.078  21.676  13.992
18749W        W89349  27.808  33.805  13.477
18750W        W89350  44.595  11.876   0.724
18751W        W89351  31.178  36.116  14.729
18752W        W89352  23.235  17.436   1.728
18753W        W89353  43.046  29.547  13.698
18754W        W89354   4.405  36.588  14.906
18755W        W89355   0.113  20.055  14.874
18756W        W89356   6.335  37.774  14.201
18757W        W89357  26.942  31.904  10.668
18758W        W89358  29.992  33.870   0.010
18759W        W89359  44.666  35.027  10.633
18760W        W89360  28.009  19.712   5.348
18761W        W89361  28.451  32.594  12.072
18762W        W89362   7.641  32.049   1.787
18763W        W89363   0.115  15.461  12.023
18764W        W89364  29.066  17.855   0.800
18765W        W89365  37.547  20.616  10.679
18766W        W89366  31.198  38.296   3.244
18767W        W89367  27.638   5.692   0.259
18768W        W89368  42.593   8.863  11.930
18769W        W89369   7.047  44.184  14.450
18770W        W89370  44.022   8.043  12.033
18771W        W89371  39.176  20.096   4.984
18772W        W89372  26.690  28.170   1.880
18773W        W89373  10.180  19.146   2.789
18774W        W89374  42.387  33.152  11.914
18775W        W89375  19.905  23.352   0.162
18776W        W89376  37.870  35.808   2.717
18777W        W89377   7.391   6.282  12.899
18778W        W89378   7.631   3.062  10.670
18779W        W89379   6.809  18.613  11.525
18780W        W89380   9.838  15.590  14.324
18781W        W89381  25.557  32.414  14.763
18782W        W89382  14.942  35.126  12.859
18783W        W89383  13.703  14.714  11.140
18784W        W89384  29.172  33.311  14.826
18785W        W89385  44.546  43.938   0.374
18786W        W89386  10.638  17.105   3.924
18787W        W89387   6.508  18.051  11.995
18788W        W89388   8.875  32.136   1.225
18789W        W89389   8.872  16.536   1.918
18790W        W89390   4.722  21.612   1.332
18791W        W89391   8.892   7.251   1.858
18792W        W89392  39.871   3.564  13.460
18793W        W89393   7.029  22.944   1.689
18794W        W89394  29.502  41.338  11.834
18795W        W89395   4.841   6.992   1.314
18796W        W89396  40.111  17.826  11.018
18797W        W89397  11.346  44.799   2.422
18798W        W89398  38.373  11.540   2.051
18799W        W89399   5.636  28.927   1.470
18800W        W89400  18.012  44.390  12.596
18801W        W89401  15.309  19.247  14.012
18802W        W89402   9.647   2.369   2.321
18803W        W89403   3.262  28.503  13.311
18804W        W89404   9.793  43.112   1.677
18805W        W89405  10.630  11.801   1.821
18806W        W89406  33.124  30.647  13.402
18807W        W89407  33.436  12.652   4.669
18808W        W89408  12.897  10.219  10.744
18809W        W89409  28.079  25.577   1.049
18810W        W89410  19.011  16.169   3.144
18811W        W89411  10.176  24.532  12.210
18812W        W89412  41.862  17.391  13.437
18813W        W89413   9.955  22.763  13.281
18814W        W89414   4.763  11.381  13.108
18815W        W89415   4.085  15.800   3.189
18816W        W89416  32.420  39.504   3.710
18817W        W89417  12.315  13.130   3.364
18818W        W89418  27.084  10.680  10.553
18819W        W89419   8.761   0.989   0.321
18820W        W89420  18.666  35.370  12.539
18821W        W89421   9.560  30.664  13.437
18822W        W89422   4.816  24.938   2.858
18823W        W89423  17.143  17.278   3.203
18824W        W89424  40.096  13.996   1.877
18825W        W89425  41.925   0.677  10.328
18826W        W89426  31.472  13.589   0.796
18827W        W89427   9.681  42.819  11.117
18828W        W89428  39.397   2.969  11.253
18829W        W89429  15.279  21.326  10.203
18830W        W89430   3.837  39.526   1.123
18831W        W89431  25.912  30.969  13.341
18832W        W89432  33.750  26.808   5.013
18833W        W89433  23.558  24.671   2.311
18834W        W89434  41.880  23.324  11.942
18835W        W89435   8.258  31.424   3.597
18836W        W89436  35.576  21.742   4.074
18837W        W89437  36.374  30.000   0.013
18838W        W89438   6.880   6.397  12.748
18839W        W89439  38.382   5.037  11.682
18840W        W89440  18.607  26.621  14.800
18841W        W89441  15.130  34.552  12.036
18842W        W89442  38.356  24.787   3.286
18843W        W89443  13.527  10.326  14.706
18844W        W89444  11.615   7.341   4.194
18845W        W89445  17.969   7.803  14.379
18846W        W89446   3.293  35.770  14.422
18847W        W89447  30.495   5.802   3.167
18848W        W89448  32.026   6.740   1.032
18849W        W89449  11.815  13.830   0.473
18850W        W89450  43.620  30.984   3.608
18851W        W89451  20.946  14.931   3.372
18852W        W89452   7.393  39.333   2.573
18853W        W89453   6.764  42.080   3.748
18854W        W89454   6.256  21.268  12.562
18855W        W89455  39.310  39.723  12.108
18856W        W89456  35.957  29.926  14.235
18857W        W89457  15.924   8.865   3.633
18858W        W89458  30.185  17.587  11.220
18859W        W89459  43.282  32.650  11.959
18860W        W89460   1.550   8.671  10.821
18861W        W89461  19.547  23.991  13.125
18862W        W89462  39.842  22.280  13.983
18863W        W89463  25.356  34.308   3.194
18864W        W89464  33.489   4.835   4.046
18865W        W89465  23.822   2.704  11.973
18866W        W89466  29.348  34.510  13.867
18867W        W89467   4.313  15.190   4.460
18868W        W89468  19.026  31.817   3.033
18869W        W89469  25.414  13.801  14.839
18870W        W89470  33.343  18.309  11.609
18871W        W89471  39.569   6.367   0.205
18872W        W89472  39.047  12.929   1.399
18873W        W89473  27.140   2.988  13.099
18874W        W89474  24.563   5.161   4.168
18875W        W89475   3.381   0.176   1.796
18876W        W89476  32.381   9.664   1.795
18877W        W89477  21.331  32.608   0.048
18878W        W89478   0.986  30.874   4.125
18879W        W89479  41.420  36.037   4.636
18880W        W89480   8.848  24.868  13.154
18881W        W89481  29.781   0.074   1.181
18882W        W89482  10.818  22.517  11.112
18883W        W89483  37.133  28.483  12.934
18884W        W89484   5.167  28.010  13.503
18885W        W89485  14.609  11.165   2.832
18886W        W89486   2.815  35.452  14.818
18887W        W89487   7.450  30.990  13.853
18888W        W89488  11.554   9.741   0.466
18889W        W89489  11.225  34.508   1.396
18890W        W89490  42.415  32.427  12.546
18891W        W89491  17.659  19.567   1.793
18892W        W89492   4.015  38.871  11.732
18893W        W89493  39.753   9.184  13.470
18894W        W89494  19.355  21.437  11.441
18895W        W89495  40.989  15.613  10.794
18896W        W89496  23.608  35.415   0.816
18897W        W89497  33.110  41.867  14.383
18898W        W89498   0.141   1.843  14.108
18899W        W89499  19.975  27.151  12.114
18900W        W89500  14.368  20.656   2.148
18901W        W89501  13.857  29.653   0.263
18902W        W89502  20.493  31.765   0.366
18903W        W89503  23.924  34.072   0.812
18904W        W89504  39.111  20.137   0.788
18905W        W89505  44.398  21.240  14.111
18906W        W89506  12.970   8.277  13.565
18907W        W89507  21.273  37.607   1.882
18908W        W89508   6.167  32.172   0.522
18909W        W89509  44.392  34.909   3.659
18910W        W89510  19.176  18.770   1.033
18911W        W89511  14.214  21.272   1.379
18912W        W89512   3.851  30.097  11.955
18913W        W89513  10.845  24.351  14.447
18914W        W89514  26.987   8.944   4.652
18915W        W89515  22.129  33.438  14.369
18916W        W89516  23.673  38.615  13.513
18917W        W89517  17.074  19.231  10.713
18918W        W89518  28.084  41.997  11.708
18919W        W89519  41.924  23.717   4.656
18920W        W89520  20.073   8.181   2.759
18921W        W89521   7.818  24.989  14.404
18922W        W89522  44.203  16.010  12.046
18923W        W89523  20.295  27.710   3.701
18924W        W89524  17.200  17.808   0.915
18925W        W89525  27.936  35.358  10.619
18926W        W89526  13.266  30.807   0.352
18927W        W89527   7.474  36.037  13.423
18928W        W89528  28.136  22.549  11.407
18929W        W89529  39.525  17.768   3.513
18930W        W89530  21.092   1.804   0.197
18931W        W89531  15.606  43.315  12.171
18932W        W89532  43.790  20.202   3.215
18933W        W89533   4.401  27.423  14.860
18934W        W89534   0.246  18.537  14.815
18935W        W89535  26.725   3.329  13.373
18936W        W89536  20.881  33.134   0.690
18937W        W89537  17.434  37.730   1.715
18938W        W89538   9.646  41.440  11.218
18939W        W89539  21.535  12.356   4.276
18940W        W89540  29.502  41.996  10.620
18941W        W89541  36.936  30.950  12.684
18942W        W89542  17.118  29.915   4.134
18943W        W89543   6.195  32.950  12.568
18944W        W89544  34.146  10.365   0.284
18945W        W89545  18.099  35.476  11.836
18946W        W89546  10.135  41.925  13.497
18947W        W89547  30.926  31.249   1.211
18948W        W89548  32.155  23.362  10.260
18949W        W89549   5.709   6.604   1.707
18950W        W89550  30.390   4.153  11.051
18951W        W89551  36.022  14.375  13.017
18952W        W89552   3.525  13.750   4.110
18953W        W89553  26.633  12.991   4.572
18954W        W89554  16.679  33.119   1.447
18955W        W89555  40.756  26.992  10.411
18956W        W89556  43.888  31.399  12.062
18957W        W89557  25.504  23.561  10.728
18958W        W89558  23.740  23.511  12.090
18959W        W89559  38.373  39.802  13.061
18960W        W89560  16.770  18.444   0.320
18961W        W89561  43.577  19.251   0.318
18962W        W89562  41.665  37.409  10.909
18963W        W89563  26.636  14.592   0.372
18964W        W89564  24.092  30.839   3.049
18965W        W89565  42.912   7.250  12.887
18966W        W89566  18.705   5.158  11.260
18967W        W89567  32.380  13.665   4.134
18968W        W89568   3.015  24.023  12.459
18969W        W89569  24.902   0.662   2.587
18970W        W89570  39.132  42.293   1.680
18971W        W89571  12.642  10.682  11.412
18972W        W89572  29.842  35.880   2.275
18973W        W89573  12.943   9.817  12.427
18974W        W89574  35.972  17.387   4.575
18975W        W89575  17.945  35.794   4.947
18976W        W89576  32.906  28.484  12.372
18977W        W89577  34.542   5.450  13.989
18978W        W89578   1.812  11.006   3.753
18979W        W89579  34.078  37.313   4.507
18980W        W89580  35.501   8.656   3.118
18981W        W89581  35.175  19.323   3.361
18982W        W89582  41.025   6.140   4.252
18983W        W89583   1.750  15.552   3.951
18984W        W89584  37.118   9.557  11.993
18985W        W89585  22.645  42.164   3.848
18986W        W89586  33.531  21.309  13.427
18987W        W89587  21.021   8.957   1.264
18988W        W89588   1.475  16.582  11.201
18989W        W89589  30.388  43.459   0.468
18990W        W89590  29.956  21.153   0.785
18991W        W89591   4.438   2.783  10.648
18992W        W89592  44.111  37.342  13.638
18993W        W89593  28.178   6.203  13.356
18994W        W89594   3.328   5.000  14.304
18995W        W89595   4.161  15.293   0.900
18996W        W89596  18.447  40.751  12.891
18997W        W89597   8.595  37.622   2.641
18998W        W89598  17.568  11.889   3.679
18999W        W89599  17.799  33.859   3.359
19000W        W89600   1.407  38.570   2.886
19001W        W89601  19.280  35.348  14.930
19002W        W89602  23.362  35.017  11.934
19003W        W89603   3.929   9.653   4.133
19004W        W89604   8.831  16.475  11.326
19005W        W89605  37.113  16.153   3.427
19006W        W89606  26.570  15.678   2.912
19007W        W89607  15.361   7.376   3.687
19008W        W89608  18.200  30.080  10.661
19009W        W89609  12.122  12.101  12.964
19010W        W89610   9.766   6.137   0.353
19011W        W89611  23.870   3.118   5.349
19012W        W89612  38.558   1.105  14.386
19013W        W89613  12.893  42.573   3.241
19014W        W89614  15.177  40.410   1.225
19015W        W89615  28.834  25.639  12.020
19016W        W89616  11.048   5.349   4.175
19017W        W89617  39.613  40.256   3.919
19018W        W89618  24.041  23.792   9.976
19019W        W89619  26.012   9.272  11.970
19020W        W89620  31.484  21.424   1.769
19021W        W89621   0.301  24.595   3.349
19022W        W89622  24.759   5.344  10.772
19023W        W89623  34.587  27.756   0.765
19024W        W89624   5.264   2.700   4.523
19025W        W89625  22.313   1.803   4.271
19026W        W89626  15.003   7.425   2.872
19027W        W89627  30.159   9.451  13.509
19028W        W89628  25.468  42.485  11.227
19029W        W89629  16.170  42.249   1.341
19030W        W89630  10.294  30.543  10.801
19031W        W89631   0.608  26.373  13.740
19032W        W89632  19.578  32.853  11.922
19033W        W89633   6.702  29.153   0.227
19034W        W89634  26.584  35.277   2.760
19035W        W89635  37.634  32.854  11.140
19036W        W89636  28.979  31.155   4.599
19037W        W89637  33.926  24.012   1.335
19038W        W89638  15.378  26.036  13.471
19039W        W89639  11.088  16.233   3.860
19040W        W89640  22.231  34.761  11.018
19041W        W89641  38.902  36.530  12.194
19042W        W89642  23.611  34.940   4.781
19043W        W89643  18.119  28.549   4.081
19044W        W89644  30.528  24.761   1.355
19045W        W89645  26.936  15.590   0.610
19046W        W89646  43.527  36.962  14.395
19047W        W89647  41.366   4.209  11.159
19048W        W89648  15.769   5.615  14.764
19049W        W89649  19.457  30.155   1.286
19050W        W89650  34.879  38.049  11.053
19051W        W89651  15.164  24.931   1.977
19052W        W89652  44.980   5.263  14.801
19053W        W89653  34.537  23.980  10.706
19054W        W89654  10.682  36.428   0.100
19055W        W89655  38.582  26.435   1.697
19056W        W89656  16.700  24.511  10.765
19057W        W89657  16.377  29.199   4.048
19058W        W89658   3.888  24.270  13.938
19059W        W89659  15.037   7.683   2.408
19060W        W89660   3.401  25.068  14.456
19061W        W89661  42.537   3.445  11.652
19062W        W89662  21.054  38.491  11.510
19063W        W89663   0.065  18.533   2.431
19064W        W89664  23.996  21.284  11.541
19065W        W89665  20.537  41.689   2.364
19066W        W89666  39.072  22.195   4.808
19067W        W89667  36.903  22.059   0.848
19068W        W89668  37.923  11.711  12.003
19069W        W89669  41.251  43.320  14.288
19070W        W89670  26.489  43.808  12.561
19071W        W89671  40.410  26.859   2.716
19072W        W89672   1.911  40.309  11.938
19073W        W89673  21.298  35.046  10.847
19074W        W89674  22.571  32.607   4.629
19075W        W89675  28.093  41.565   3.839
19076W        W89676   7.809  29.821  14.092
19077W        W89677  44.132  28.658  10.745
19078W        W89678  27.706  16.394   1.772
19079W        W89679  30.082   3.447  13.855
19080W        W89680   0.916  34.431  12.924
19081W        W89681   7.243  17.224  11.406
19082W        W89682  15.200  27.152   0.575
19083W        W89683  14.351  39.761  14.284
19084W        W89684  28.691   5.830   1.221
19085W        W89685  18.602   9.896   2.969
19086W        W89686  38.816  10.970  14.550
19087W        W89687  22.502  31.016   4.516
19088W        W89688  26.668  31.172   3.189
19089W        W89689   9.545  35.399  13.557
19090W        W89690  38.510   0.697   1.734
19091W        W89691  10.103  35.592   4.514
19092W        W89692  15.712  18.764  11.222
19093W        W89693  27.285  20.534  12.368
19094W        W89694  14.109  40.589   3.169
19095W        W89695  14.886  38.140   3.284
19096W        W89696  39.701  24.719  11.211
19097W        W89697  26.650  35.614  13.921
19098W        W89698  30.092  10.900  14.510
19099W        W89699  37.015  44.027   2.766
19100W        W89700  25.567  17.418  12.049
19101W        W89701  16.856  34.551  13.286
19102W        W89702  37.473  39.381  10.862
19103W        W89703   2.770   0.813   3.174
19104W        W89704  18.761  27.358   0.444
19105W        W89705   5.442  41.210  11.817
19106W        W89706  40.491  34.519  14.148
19107W        W89707  28.651   8.395   1.817
19108W        W89708   0.738  21.011   2.826
19109W        W89709  42.047  20.984  11.042
19110W        W89710  35.955  30.009   0.311
19111W        W89711  28.580  41.232  13.992
19112W        W89712  27.421  39.812   0.505
19113W        W89713  43.584  37.608   2.704
19114W        W89714   4.989  44.386  10.342
19115W        W89715  44.001  24.690  14.370
19116W        W89716  23.701  34.520  13.938
19117W        W89717   1.771   8.845   0.931
19118W        W89718  16.569   5.306   1.059
19119W        W89719   0.037  15.518   4.113
19120W        W89720  44.515  16.134  10.744
19121W        W89721  10.795  11.693  13.063
19122W        W89722  41.192  19.525   1.737
19123W        W89723  37.242  12.271  14.477
19124W        W89724  25.471   4.555   0.901
19125W        W89725  31.970  15.725  11.381
19126W        W89726  30.204  14.563   0.891
19127W        W89727  31.953  11.277   3.217
19128W        W89728  36.974   4.874  10.926
19129W        W89729  27.757  23.304  11.551
19130W        W89730  32.110  36.769  13.005
19131W        W89731  31.244  21.158   9.965
19132W        W89732  42.696  31.779  12.999
19133W        W89733  19.745  31.319   4.322
19134W        W89734  41.282  35.851   3.596
19135W        W89735   4.222  41.056   3.152
19136W        W89736  26.445  24.622   3.719
19137W        W89737  16.479  10.032  11.624
19138W        W89738  37.360  31.980  12.989
19139W        W89739  22.857  33.195  14.781
19140W        W89740  19.002  20.642   0.271
19141W        W89741   5.178   1.502   3.802
19142W        W89742  41.886  22.851  11.672
19143W        W89743   7.704  43.889   1.761
19144W        W89744  39.062   1.779  11.898
19145W        W89745  35.307  34.905  10.653
19146W        W89746  29.521  23.044   4.213
19147W        W89747  18.533   6.942   3.557
19148W        W89748  11.096  20.499   0.363
19149W        W89749  37.987  44.539   3.834
19150W        W89750   9.627  15.611  12.593
19151W        W89751  23.026  35.300   2.726
19152W        W89752   5.747  19.193   2.601
19153W        W89753   4.428   7.738  13.406
19154W        W89754  16.673  18.247   0.809
19155W        W89755  18.940  43.954   0.788
19156W        W89756   0.924   2.583  10.979
19157W        W89757  25.653   5.155  12.981
19158W        W89758   3.232  42.296  11.023
19159W        W89759  27.998   9.141  13.411
19160W        W89760  36.274  42.511  11.602
19161W        W89761   2.409   4.434   0.950
19162W        W89762  25.587  32.195  13.546
19163W        W89763   0.888  31.595   1.225
19164W        W89764  35.802  34.132  10.913
19165W        W89765  29.688   6.850   3.662
19166W        W89766  10.257  25.848  11.216
19167W        W89767  40.224  38.030  13.045
19168W        W89768  22.069  22.491  13.043
19169W        W89769  26.605  29.899  14.324
19170W        W89770  35.532  11.814   0.972
19171W        W89771  13.795  37.441  12.612
19172W        W89772  19.200  19.585   3.850
19173W        W89773  13.218  21.741   1.765
19174W        W89774  13.021  28.429   2.002
19175W        W89775  17.735   6.674   4.534
19176W        W89776  31.396  34.110  11.679
19177W        W89777  43.057  22.577   4.866
19178W        W89778  15.787   1.184   1.791
19179W        W89779  21.197  11.930  13.465
19180W        W89780  10.243   5.798  12.861
19181W        W89781  11.871  19.771   2.940
19182W        W89782   5.901  10.808   1.543
19183W        W89783  23.602   6.844   2.208
19184W        W89784  10.322  36.551   0.800
19185W        W89785  16.956   9.383  12.824
19186W        W89786  28.178  37.771   4.590
19187W        W89787   4.398  28.638  10.715
19188W        W89788  23.720  25.529   4.052
19189W        W89789  33.844  14.847  11.177
19190W        W89790   9.316  35.347   4.207
19191W        W89791  30.168   5.519   3.414
19192W        W89792  22.246  11.602   4.983
19193W        W89793  41.345  22.671  13.699
19194W        W89794  21.127  31.668  14.832
19195W        W89795  15.157   4.025   1.469
19196W        W89796  30.259  28.461   2.722
19197W        W89797  41.945  26.410  13.403
19198W        W89798  35.786  27.748   0.345
19199W        W89799  11.391  32.524  12.381
19200W        W89800  44.802  26.022  11.557
19201W        W89801  28.932  24.682  12.853
19202W        W89802  38.092  35.011  11.467
19203W        W89803  37.576  31.966   0.353
19204W        W89804   8.358  28.558   4.940
19205W        W89805   2.887  11.570   3.263
19206W        W89806  26.256  16.140   3.781
19207W        W89807  10.156  38.006  13.066
19208W        W89808  41.431  17.175   5.453
19209W        W89809  26.080  42.995   3.071
19210W        W89810   2.027  11.585   1.508
19211W        W89811  31.709  37.526  13.459
19212W        W89812  44.398  10.390  10.830
19213W        W89813  16.656  28.582   0.679
19214W        W89814  30.057  36.742  11.545
19215W        W89815  13.022   4.181  11.934
19216W        W89816  19.353   1.935   3.180
19217W        W89817  38.886  11.473  14.595
19218W        W89818  18.662   4.984   1.299
19219W        W89819  29.469  34.514   3.754
19220W        W89820  27.448  10.911  13.093
19221W        W89821  42.251  27.018  10.696
19222W        W89822  31.825  10.333   4.499
19223W        W89823  26.744  10.422   1.356
19224W        W89824  43.918  44.909  12.369
19225W        W89825   9.989   3.335   2.454
19226W        W89826  33.393   1.858   0.825
19227W        W89827   5.856   4.891   0.894
19228W        W89828   0.063  24.488  11.798
19229W        W89829  18.239  11.548  13.071
19230W        W89830   9.828   4.444   4.088
19231W        W89831  16.543   0.714   1.844
19232W        W89832  38.068  41.067  14.359
19233W        W89833  32.487  28.966   3.309
19234W        W89834  18.665   5.428   3.283
19235W        W89835  25.421  44.219   3.320
19236W        W89836  21.257  44.240   0.425
19237W        W89837   6.631  44.262   4.837
19238W        W89838  23.508   2.604   3.439
19239W        W89839  44.435  40.516  12.736
19240W        W89840  13.868  33.961  10.670
19241W        W89841  30.806  13.276  14.870
19242W        W89842  34.601  12.828   0.215
19243W        W89843   2.320  28.652   4.736
19244W        W89844  41.921  43.403   3.318
19245W        W89845   0.856   4.938   5.084
19246W        W89846  36.509  10.598   0.252
19247W        W89847   4.499  37.152   0.294
19248W        W89848  28.202  32.154   1.350
19249W        W89849   6.315   6.216  12.432
19250W        W89850   8.002  31.043  13.314
19251W        W89851  42.437  15.475   2.293
19252W        W89852  34.062  23.553  13.131
19253W        W89853  19.704  31.524   4.815
19254W        W89854  30.985   0.663  13.972
19255W        W89855  18.020  42.535  14.477
19256W        W89856   4.043  23.944  12.691
19257W        W89857   5.746  13.067   2.882
19258W        W89858  14.190   7.186  10.420
19259W        W89859   8.828  14.193   3.593
19260W        W89860  24.465  30.204   2.320
19261W        W89861  37.535   0.924   4.212
19262W        W89862  21.421  12.104  14.499
19263W        W89863  24.715  18.113  13.878
19264W        W89864   6.718  40.031   3.716
19265W        W89865  25.578   7.298   0.097
19266W        W89866  11.558  44.828   4.055
19267W        W89867  19.730  25.278  14.064
19268W        W89868   1.083   8.112  11.900
19269W        W89869  27.451  15.816   4.538
19270W        W89870   8.550  11.120   1.715
19271W        W89871  43.210   6.210  10.724
19272W        W89872  27.353  32.611  12.937
19273W        W89873  31.413  25.520  13.400
19274W        W89874  37.067  17.117  10.656
19275W        W89875  35.504  24.762  11.164
19276W        W89876  26.784   3.557   1.810
19277W        W89877  43.868  10.026  12.410
19278W        W89878  21.285  24.013   3.598
19279W        W89879  10.336  24.093   4.316
19280W        W89880   5.921   6.433  10.700
19281W        W89881  32.046  40.557  12.909
19282W        W89882  42.311  20.982   2.314
19283W        W89883   7.206   1.941   2.651
19284W        W89884   8.128  29.152   0.051
19285W        W89885  11.077  19.956   1.200
19286W        W89886  15.874   1.949  11.604
19287W        W89887  18.153   1.054  10.657
19288W        W89888  42.055  19.836  12.215
19289W        W89889  19.188  14.516  11.983
19290W        W89890  32.955  14.580   2.545
19291W        W89891  32.391  13.641  10.669
19292W        W89892  17.024   0.472  11.942
19293W        W89893  14.052  20.347  12.208
19294W        W89894  21.862  42.825  11.724
19295W        W89895  36.554  12.376   0.025
19296W        W89896   1.995  26.385   4.876
19297W        W89897   8.804  15.934  12.479
19298W        W89898  18.149   5.260  12.496
19299W        W89899  32.458   2.720  12.520
19300W        W89900  44.332  30.763   4.475
19301W        W89901  12.575   1.178  14.980
19302W        W89902   4.200   2.699   2.417
19303W        W89903  32.403  27.749   1.831
19304W        W89904  10.863  37.994   1.909
19305W        W89905  11.691  37.331   4.086
19306W        W89906  14.596  25.566  11.618
19307W        W89907  31.035  37.360  11.287
19308W        W89908  14.820  22.219   2.578
19309W        W89909  15.818  20.060   2.676
19310W        W89910   4.879  37.844   4.505
19311W        W89911  17.649  15.831   4.514
19312W        W89912  18.268  19.236  12.032
19313W        W89913  12.927  20.719   4.783
19314W        W89914  39.477  13.590  13.117
19315W        W89915  10.729  33.299  13.906
19316W        W89916  34.423  20.063   4.054
19317W        W89917  16.123  14.194  12.544
19318W        W89918  21.704   3.263  11.979
19319W        W89919  38.034  29.104  14.008
19320W        W89920  30.431  29.037   1.513
19321W        W89921  26.078   0.284  12.525
19322W        W89922   0.823  41.885  10.969
19323W        W89923   6.249  37.099  14.755
19324W        W89924  25.118  28.178   3.325
19325W        W89925   8.800  26.863  14.204
19326W        W89926  33.571   8.647  12.002
19327W        W89927  10.627  10.472  14.956
19328W        W89928  29.052  19.316   1.262
19329W        W89929  34.354  44.475  12.812
19330W        W89930  37.367  25.092  12.143
19331W        W89931  13.742  30.027   4.582
19332W        W89932  14.772  37.450  10.787
19333W        W89933  37.357  42.957   3.622
19334W        W89934  32.608  17.493   4.197
19335W        W89935   3.562  20.417   1.347
19336W        W89936  11.190  29.918   4.217
19337W        W89937   9.977  11.287   4.683
19338W        W89938  30.091  39.337   2.221
19339W        W89939  16.995  30.505   9.943
19340W        W89940  32.234  35.985   1.792
19341W        W89941  12.840  20.128  14.423
19342W        W89942  38.467  26.917  12.016
19343W        W89943  42.465  32.163  11.230
19344W        W89944   8.904  38.473  11.620
19345W        W89945  23.257   1.485  11.980
19346W        W89946  20.529   1.318  10.711
19347W        W89947  30.821  34.933  13.180
19348W        W89948  14.674  11.176  14.603
19349W        W89949  41.689  34.196  14.559
19350W        W89950  37.976  29.131   0.999
19351W        W89951  13.969  33.268   4.107
19352W        W89952  43.517   8.445  12.740
19353W        W89953  17.453   9.767  14.442
19354W        W89954  32.778  14.817   4.029
19355W        W89955  29.595  16.813   3.302
19356W        W89956  24.038  26.857   0.029
19357W        W89957   5.401  20.764  11.580
19358W        W89958  21.357  24.069   4.130
19359W        W89959  20.622  11.192   0.840
19360W        W89960  34.739  31.210  10.461
19361W        W89961  14.339   2.277   2.638
19362W        W89962  36.805   8.635   2.336
19363W        W89963  21.296  13.197   3.914
19364W        W89964  40.502   0.439   1.453
19365W        W89965  20.620  15.677   0.282
19366W        W89966  12.183   1.793  14.719
19367W        W89967  41.534   1.295  11.982
19368W        W89968  43.497  37.051   4.136
19369W        W89969  26.594  40.339   1.496
19370W        W89970  41.013   7.919   4.336
19371W        W89971   0.263   9.480  14.251
19372W        W89972  20.490   3.307  11.684
19373W        W89973  19.914  20.475   1.327
19374W        W89974  41.662  40.793  11.577
19375W        W89975  21.547   8.204  12.100
19376W        W89976  25.038  43.331  14.825
19377W        W89977   7.235  18.096  13.808
19378W        W89978   5.186  43.264  12.036
19379W        W89979  17.653  44.885   4.628
19380W        W89980   8.339  21.925  11.626
19381W        W89981  38.405  14.179  11.953
19382W        W89982   1.461  20.287  11.755
19383W        W89983   0.821   5.755   0.485
19384W        W89984  11.365   3.904  12.427
19385W        W89985  11.407  22.597  14.148
19386W        W89986   8.231  40.514  12.798
19387W        W89987  19.024  29.468   3.189
19388W        W89988   9.405  12.877   0.745
19389W        W89989  40.005   2.109  11.674
19390W        W89990  29.351   4.661  11.471
19391W        W89991  17.288  43.622  12.528
19392W        W89992  28.454  12.815   2.275
19393W        W89993  24.702   2.354  13.028
19394W        W89994  29.904  12.145   1.462
19395W        W89995  27.402  23.301   2.786
19396W        W89996   9.735   0.882   1.803
19397W        W89997  11.085   4.971   3.563
19398W        W89998  13.802  21.035   0.479
19399W        W89999  23.417  14.240   2.671
19400W        W90000  42.341  22.980   2.338
19401W        W90001   2.543  17.039   0.973
19402W        W90002  15.398  42.849   2.364
19403W        W90003   2.809  13.865  12.234
19404W        W90004  28.998   8.605   2.742
19405W        W90005  16.935   9.517   1.979
19406W        W90006  39.062   7.914   1.878
19407W        W90007  21.058  27.644   5.009
19408W        W90008  24.305  27.978  13.371
19409W        W90009  21.993  18.682   4.449
19410W        W90010  35.513  22.600   0.837
19411W        W90011  32.404  15.183   3.823
19412W        W90012  28.434  25.189  13.916
19413W        W90013  41.135  34.930  14.232
19414W        W90014  12.611  27.931  11.050
19415W        W90015   6.161  31.740  14.829
19416W        W90016  15.768   8.307  14.735
19417W        W90017  29.653   6.867   0.755
19418W        W90018  43.377  40.422   1.345
19419W        W90019   9.746   0.451   2.241
19420W        W90020  35.883  18.343  10.493
19421W        W90021  11.187   7.886  13.394
19422W        W90022   5.161  36.283  14.234
19423W        W90023  28.494  18.669   3.152
19424W        W90024   4.187  17.785   4.636
19425W        W90025   1.504  38.880   0.361
19426W        W90026   1.799  28.239  10.724
19427W        W90027  36.934  12.432  11.582
19428W        W90028  26.463  28.743   0.034
19429W        W90029  42.367   6.856  10.710
19430W        W90030   9.721  40.495   4.594
19431W        W90031   2.348  14.083  12.258
19432W        W90032  24.588  17.334   1.766
19433W        W90033   9.057   9.779   0.273
19434W        W90034   2.453  44.051  13.433
19435W        W90035  41.079  35.670  14.897
19436W        W90036  10.832  39.953  13.868
19437W        W90037   9.763  18.048   0.906
19438W        W90038  35.578  13.066  10.720
19439W        W90039   6.181   2.823   4.374
19440W        W90040  16.016  13.903   3.173
19441W        W90041  33.444  13.344  14.410
19442W        W90042  17.572  31.125   1.588
19443W        W90043  31.573  42.307  14.296
19444W        W90044  14.279  42.307   2.143
19445W        W90045  15.143  35.871   0.218
19446W        W90046  10.745   0.828  14.751
19447W        W90047  19.571  18.142   3.805
19448W        W90048  13.673  26.338   2.125
19449W        W90049  27.399   8.658   4.456
19450W        W90050  31.024  18.064   1.933
19451W        W90051  38.015  35.079  13.209
19452W        W90052  10.147   5.742   1.144
19453W        W90053  14.719  25.963  14.431
19454W        W90054  26.106   7.825  10.640
19455W        W90055  23.693  12.810  14.845
19456W        W90056  14.489  33.902  12.508
19457W        W90057  28.696  32.510   4.638
19458W        W90058   5.217  11.074   0.414
19459W        W90059  38.090  31.155   1.182
19460W        W90060  31.412  18.746   2.221
19461W        W90061  37.172   1.172  12.957
19462W        W90062  38.969   3.479  10.829
19463W        W90063  37.016   3.791   4.049
19464W        W90064   2.239  23.518  14.326
19465W        W90065  44.463  21.293   2.272
19466W        W90066  43.028  40.365   3.461
19467W        W90067  39.906  41.913  13.881
19468W        W90068   5.505  17.281   1.736
19469W        W90069  17.586   5.696   2.779
19470W        W90070  21.194  37.787  10.964
19471W        W90071  33.289  43.468  12.082
19472W        W90072   6.209   2.999  13.638
19473W        W90073   1.860  42.177  13.911
19474W        W90074  12.960  28.270   0.892
19475W        W90075  33.571   6.769  10.046
19476W        W90076  42.233  13.278   3.260
19477W        W90077  42.675  29.569  14.824
19478W        W90078  19.788   2.061   4.974
19479W        W90079  11.611  14.586  13.727
19480W        W90080  29.756   1.528  13.944
19481W        W90081  39.108  20.081   2.753
19482W        W90082  29.874  26.966  10.831
19483W        W90083   1.299  10.631   1.190
19484W        W90084  34.403  32.428  10.585
19485W        W90085  25.778  20.510  13.307
19486W        W90086  43.027   2.770   4.145
19487W        W90087  23.138   2.534   1.472
19488W        W90088  44.243   1.668  12.709
19489W        W90089  10.232   1.395  13.011
19490W        W90090  11.304  15.913   2.566
19491W        W90091  23.959  28.610  12.072
19492W        W90092   3.931  30.408   4.053
19493W        W90093  22.948  32.516   1.743
19494W        W90094  10.628  21.262   2.844
19495W        W90095  31.822   8.917  13.677
19496W        W90096  30.155  41.953  13.326
19497W        W90097  27.194   7.861  11.620
19498W        W90098   2.270  23.130  14.815
19499W        W90099   5.454  31.259  13.333
19500W        W90100  39.382  43.983   3.284
19501W        W90101  25.588  15.679  11.624
19502W        W90102  10.752  34.459   2.364
19503W        W90103  18.086  40.267   3.813
19504W        W90104  21.308  23.041  14.042
19505W        W90105  26.655  15.599   4.312
19506W        W90106  17.748  34.366  13.613
19507W        W90107  24.072  33.632   0.487
19508W        W90108  16.064   6.527   2.255
19509W        W90109   9.367  20.861   1.836
19510W        W90110  38.943  32.965  12.854
19511W        W90111   6.960  26.201  12.387
19512W        W90112  42.441  29.126  11.217
19513W        W90113  27.669  34.287  12.543
19514W        W90114  38.426  19.591   0.249
19515W        W90115  26.449  39.529  12.857
19516W        W90116  20.588   3.432   1.696
19517W        W90117  32.107  28.426  13.915
19518W        W90118  39.781  36.985  14.812
19519W        W90119  44.386  30.686  13.839
19520W        W90120   1.588  42.187   2.277
19521W        W90121  29.803   3.533  12.978
19522W        W90122  33.441  23.860   0.440
19523W        W90123  44.272  23.702  10.795
19524W        W90124  32.039  14.755  11.692
19525W        W90125  29.022  22.000  11.717
19526W        W90126  10.756  30.971   1.457
19527W        W90127  40.221  36.373   4.346
19528W        W90128  12.483  34.669   2.622
19529W        W90129  22.882  23.131   4.337
19530W        W90130  21.159  20.869   3.691
19531W        W90131  26.223   5.593  12.436
19532W        W90132  40.355   0.953   0.699
19533W        W90133  20.149   0.445  10.446
19534W        W90134   0.736  36.445  14.404
19535W        W90135   6.304  24.485   3.238
19536W        W90136  17.141   2.043  13.494
19537W        W90137  30.948  14.348  11.135
19538W        W90138  23.093  41.682   4.105
19539W        W90139  14.354  32.198  14.481
19540W        W90140   6.393  43.466   4.998
19541W        W90141  11.384  18.305   3.682
19542W        W90142  29.743  26.535   4.895
19543W        W90143  29.728  10.671  13.082
19544W        W90144  37.851  39.201  14.011
19545W        W90145  43.751  17.160   2.698
19546W        W90146  28.212  12.212  10.655
19547W        W90147  17.706  16.087   3.177
19548W        W90148  15.486   7.617  11.924
19549W        W90149  30.706  38.917  13.996
19550W        W90150  43.581  31.075   0.338
19551W        W90151  35.486  43.005  13.907
19552W        W90152  43.819   4.392  12.128
19553W        W90153  35.658   7.420  11.588
19554W        W90154  16.276  18.433  11.289
19555W        W90155  23.056  41.536  13.500
19556W        W90156  17.103  12.670  13.377
19557W        W90157  10.639  13.797   4.128
19558W        W90158  11.775  39.930  10.636
19559W        W90159  25.441  30.517  14.751
19560W        W90160   0.624  34.148   0.372
19561W        W90161   7.471  31.299  12.437
19562W        W90162  40.064  21.187  10.775
19563W        W90163  14.731  40.789  14.877
19564W        W90164   8.850  23.637   1.405
19565W        W90165  39.871   9.228   0.782
19566W        W90166  25.802  31.890   4.472
19567W        W90167   5.278  11.638  11.868
19568W        W90168  10.467  16.710  12.461
19569W        W90169  22.778   0.106  10.932
19570W        W90170  32.933  29.091   0.760
19571W        W90171  44.898  34.966   3.886
19572W        W90172  20.765  33.931  13.889
19573W        W90173  42.010  35.557   2.218
19574W        W90174  32.701  19.283  11.076
19575W        W90175  18.107  44.899  11.956
19576W        W90176  13.579  43.393   2.847
19577W        W90177   4.058   1.722  12.101
19578W        W90178  35.631  40.005   4.206
19579W        W90179   6.088  42.820   1.455
19580W        W90180  21.131  15.615   0.641
19581W        W90181  12.535  27.112  10.713
19582W        W90182  13.119  37.033  12.884
19583W        W90183  36.924  42.331  12.977
19584W        W90184  40.194  26.631   4.918
19585W        W90185  18.931  24.773  13.356
19586W        W90186   5.676  43.057  12.106
19587W        W90187   6.260  30.144   2.391
19588W        W90188   1.148  39.261  10.544
19589W        W90189  23.580  12.502  13.850
19590W        W90190  35.639   1.229  12.923
19591W        W90191  41.351   7.352   3.058
19592W        W90192  19.218  16.485   3.845
19593W        W90193  43.064  12.616  14.447
19594W        W90194  29.590  22.423   0.787
19595W        W90195  30.376  13.338  10.668
19596W        W90196  16.250  19.645  12.032
19597W        W90197  10.083   4.190   4.854
19598W        W90198   3.278  19.566   2.202
19599W        W90199  38.086  13.804  11.684
19600W        W90200  37.386  12.635  11.807
19601W        W90201  24.654   9.649   2.366
19602W        W90202   1.485  24.928   3.082
19603W        W90203  26.681  41.946   1.629
19604W        W90204  23.173   2.028   2.106
19605W        W90205   4.346  42.479  13.287
19606W        W90206  31.468  30.345  11.320
19607W        W90207  17.228  31.931   0.774
19608W        W90208  39.568  40.082  11.479
19609W        W90209  15.527   5.896  14.003
19610W        W90210  21.079  25.930   2.899
19611W        W90211  32.993   0.718  13.917
19612W        W90212  33.464  26.241   3.543
19613W        W90213  10.309  20.734  12.135
19614W        W90214  42.207  40.538  12.622
19615W        W90215  15.742   3.961  12.484
19616W        W90216  34.545   1.729  10.918
19617W        W90217   9.335   1.293   4.622
19618W        W90218  25.170  31.462   3.750
19619W        W90219  29.214  16.331   3.694
19620W        W90220   4.794  43.527  13.478
19621W        W90221   6.826  14.829  14.268
19622W        W90222  34.551  40.653  13.882
19623W        W90223  26.109  37.445  10.937
19624W        W90224  37.133  40.786   4.151
19625W        W90225  31.599  21.092   4.467
19626W        W90226  36.742  26.595   4.739
19627W        W90227  31.647   9.814   2.212
19628W        W90228  17.610  37.513  13.823
19629W        W90229  41.679  43.916   4.424
19630W        W90230  12.086  15.027   4.627
19631W        W90231  42.257  43.800   2.628
19632W        W90232  31.936  18.713   2.140
19633W        W90233  17.115   2.412   1.087
19634W        W90234  20.127  21.336   1.809
19635W        W90235   7.727  14.021   0.774
19636W        W90236  14.560  14.856   2.235
19637W        W90237   6.419  21.153   0.359
19638W        W90238  25.454  11.342   1.934
19639W        W90239  28.986  41.907  10.636
19640W        W90240  31.124  12.451   1.914
19641W        W90241   1.913   7.767  11.835
19642W        W90242  12.693   5.963   2.181
19643W        W90243  36.687  20.244   0.333
19644W        W90244  15.843  27.074  12.135
19645W        W90245  24.415  14.657  12.974
19646W        W90246   2.817  43.207   3.326
19647W        W90247  23.543  36.100  11.167
19648W        W90248  31.120   1.066   1.475
19649W        W90249  34.765  13.487   4.172
19650W        W90250  19.082  34.569  13.605
19651W        W90251  12.256   0.442   0.402
19652W        W90252  15.941  42.040   1.767
19653W        W90253   6.648  11.449  11.438
19654W        W90254  14.657   7.818   0.053
19655W        W90255  10.016   2.856   4.163
19656W        W90256  38.324  35.570  11.076
19657W        W90257  34.185  25.596  13.022
19658W        W90258  30.644   1.911   3.785
19659W        W90259   1.701  10.759   0.221
19660W        W90260  18.694  16.104   4.621
19661W        W90261  21.519  39.268   2.208
19662W        W90262  41.759  42.052  14.429
19663W        W90263  33.104  24.755  14.465
19664W        W90264  30.167  36.274   4.194
19665W        W90265  34.520  31.436   3.095
19666W        W90266  19.090  23.993   2.380
19667W        W90267   1.738  18.597  11.905
19668W        W90268  23.340   4.419   3.381
19669W        W90269  44.920  22.064   4.581
19670W        W90270  30.036  25.401   2.912
19671W        W90271  34.071  37.019   4.068
19672W        W90272  16.208  16.257   1.730
19673W        W90273  44.118   5.219  12.116
19674W        W90274  11.842  16.225   1.731
19675W        W90275  29.118  25.680  13.001
19676W        W90276  24.093  37.643  12.949
19677W        W90277   5.074   7.407   3.588
19678W        W90278   4.489  22.250   4.074
19679W        W90279  23.207  41.868  13.851
19680W        W90280  24.948  33.957   2.262
19681W        W90281  10.765   8.198   0.470
19682W        W90282  30.985  32.538  11.871
19683W        W90283  27.135  28.905   2.718
19684W        W90284  13.824  25.557   1.402
19685W        W90285  43.094  37.554   3.664
19686W        W90286   0.961  11.539   4.124
19687W        W90287  18.754  40.882  13.871
19688W        W90288   5.410  13.178  11.741
19689W        W90289   2.004   5.198   0.200
19690W        W90290  20.678  33.075  10.578
19691W        W90291  11.234  38.084   2.723
19692W        W90292  14.201  44.124   4.867
19693W        W90293   7.461  35.680  14.968
19694W        W90294  16.515  36.727   2.345
19695W        W90295  16.290  31.428   2.659
19696W        W90296  17.563  25.325  10.032
19697W        W90297  11.059  27.126   4.115
19698W        W90298  25.290  13.351  12.175
19699W        W90299  40.373  24.546  10.504
19700W        W90300  37.167  39.800   2.179
19701W        W90301  21.302  44.202  12.836
19702W        W90302  11.319  33.396  12.887
19703W        W90303  37.668  42.675  12.911
19704W        W90304  10.598  24.071  12.600
19705W        W90305   2.215  41.508  13.285
19706W        W90306   0.269  27.188  12.767
19707W        W90307   9.593  23.198  14.500
19708W        W90308   1.199  36.910   0.217
19709W        W90309  10.990  12.032   2.803
19710W        W90310  32.205  18.335   2.379
19711W        W90311   4.871  40.347  10.795
19712W        W90312  32.084  10.119  11.484
19713W        W90313   3.276   6.817   1.844
19714W        W90314  15.331  33.985  13.607
19715W        W90315  43.560  29.144   1.120
19716W        W90316   6.786  17.472   3.269
19717W        W90317  33.388  28.384   2.857
19718W        W90318  17.760  22.185   1.409
19719W        W90319   3.205  40.913   2.753
19720W        W90320  29.576  37.478   3.236
19721W        W90321  38.044  34.106  11.543
19722W        W90322   0.224   1.485   3.278
19723W        W90323  30.355  41.821   0.739
19724W        W90324  36.578  15.482  13.391
19725W        W90325  31.637  44.927  11.543
19726W        W90326  18.770  18.680  13.894
19727W        W90327   8.737  34.979   1.992
19728W        W90328  34.151  29.120   1.288
19729W        W90329  15.607   1.353  14.055
19730W        W90330  27.103  30.156  12.102
19731W        W90331  43.837   1.115  14.720
19732W        W90332  14.544  15.580   0.192
19733W        W90333  32.451  36.381  13.033
19734W        W90334  28.546  34.075   0.768
19735W        W90335  14.351   5.274  11.671
19736W        W90336  18.759  14.046   2.309
19737W        W90337   8.736  44.906  10.669
19738W        W90338   8.749  27.703  12.950
19739W        W90339  28.905   0.906  10.657
19740W        W90340  37.844  18.036   4.169
19741W        W90341   4.353  10.795  12.476
19742W        W90342  28.906  33.565   3.283
19743W        W90343  41.641   6.098   0.267
19744W        W90344  11.100  14.226   1.319
19745W        W90345  18.706  42.670   2.274
19746W        W90346   8.304  10.517   4.210
19747W        W90347  31.943   4.314  14.248
19748W        W90348   4.153   7.880   2.945
19749W        W90349  10.162  40.121   3.714
19750W        W90350  14.108  25.997   1.417
19751W        W90351  16.624  32.121   1.377
19752W        W90352   4.620  20.518   1.995
19753W        W90353  29.465  12.110  12.693
19754W        W90354  15.708  34.392  14.680
19755W        W90355  20.611  43.070   2.768
19756W        W90356  24.153  10.061   3.053
19757W        W90357  10.651  17.923  11.084
19758W        W90358  41.841  22.480   2.859
19759W        W90359  15.115  18.771  13.918
19760W        W90360  23.905  20.343  10.784
19761W        W90361  43.766  30.953  12.441
19762W        W90362  25.567   0.736   9.842
19763W        W90363  17.417  38.656  12.839
19764W        W90364  39.120  41.796   0.809
19765W        W90365   3.720  38.579   3.145
19766W        W90366   0.329  17.212  12.883
19767W        W90367  32.624   5.550  14.320
19768W        W90368  40.977  44.747   1.985
19769W        W90369  16.191  35.353   3.647
19770W        W90370  11.692  40.795   1.909
19771W        W90371  22.679  38.368   2.708
19772W        W90372   3.140  25.146  11.696
19773W        W90373  11.891  26.500  10.288
19774W        W90374  20.269  14.313  10.791
19775W        W90375  22.650  24.895  11.441
19776W        W90376   6.674  40.891  14.923
19777W        W90377  18.244  23.518   2.620
19778W        W90378  11.475   4.768  13.546
19779W        W90379  26.118  17.317  12.784
19780W        W90380  29.897  13.093   1.629
19781W        W90381  36.383  38.058  14.476
19782W        W90382  40.237  41.278  14.876
19783W        W90383  28.627  26.477  14.408
19784W        W90384  42.028   9.616  13.348
19785W        W90385  22.786  25.162  11.922
19786W        W90386  35.838  21.258  13.530
19787W        W90387  23.387  16.559   4.826
19788W        W90388  38.129  29.498  11.446
19789W        W90389  38.715  35.814   4.746
19790W        W90390  39.327  11.694  14.355
19791W        W90391  10.229  11.127   2.278
19792W        W90392  36.457  37.398   1.146
19793W        W90393  34.114  23.231   3.695
19794W        W90394  41.048  21.871   2.786
19795W        W90395   9.693  39.365   2.797
19796W        W90396   6.649  30.364  14.257
19797W        W90397  30.935  29.120  10.683
19798W        W90398  42.604   5.198   0.815
19799W        W90399  43.940  12.367  12.975
19800W        W90400  42.246   5.558   0.742
19801W        W90401   0.419  35.328  13.024
19802W        W90402  32.198   7.637  14.937
19803W        W90403  44.944  34.340  14.447
19804W        W90404  21.138  41.418  11.197
19805W        W90405  31.877   8.111   1.796
19806W        W90406  28.481   6.987  11.481
19807W        W90407  32.869   1.766   0.861
19808W        W90408  10.694  26.493  10.444
19809W        W90409  21.568  30.482   2.164
19810W        W90410  28.673   7.246   1.448
19811W        W90411  31.145  32.464  13.887
19812W        W90412   2.900  30.805   1.842
19813W        W90413   5.889  26.221  11.680
19814W        W90414   2.212  24.158   3.236
19815W        W90415  17.810  22.751   4.537
19816W        W90416  18.955  36.834  14.973
19817W        W90417  31.810  10.841   0.410
19818W        W90418  26.405   6.461   2.034
19819W        W90419  29.455   0.346  12.629
19820W        W90420  31.172  14.724   3.640
19821W        W90421  29.319  19.100   3.731
19822W        W90422   1.748  34.381   2.269
19823W        W90423  10.613  10.572   4.596
19824W        W90424  42.885  30.661   4.695
19825W        W90425   1.710  22.354  11.990
19826W        W90426  32.588  36.778  11.211
19827W        W90427  38.852  32.207   0.879
19828W        W90428   4.415   4.438  14.370
19829W        W90429  28.959  29.605  11.494
19830W        W90430  20.994  13.119  11.113
19831W        W90431  27.793  12.370  14.459
19832W        W90432  23.236  14.057   0.322
19833W        W90433  17.802   5.862   0.047
19834W        W90434   0.413  22.175  11.359
19835W        W90435  40.134  37.134  12.897
19836W        W90436  16.056  25.373   4.869
19837W        W90437  35.432  29.431  10.912
19838W        W90438  21.638  33.334   3.997
19839W        W90439  42.702   3.832   3.677
19840W        W90440  11.836  25.645   3.295
19841W        W90441   5.895   9.951  11.064
19842W        W90442  39.042   6.242  11.909
19843W        W90443  10.729  10.122   4.344
19844W        W90444  11.692  33.507   1.145
19845W        W90445  17.987  32.323  13.460
19846W        W90446  42.338  38.128   1.438
19847W        W90447  23.064  37.820   1.723
19848W        W90448  11.208  22.037  10.783
19849W        W90449  20.292  41.423   1.386
19850W        W90450  36.821  34.420  14.960
19851W        W90451  24.310   6.781   4.113
19852W        W90452  23.743  12.447   4.343
19853W        W90453   0.029  23.187  11.480
19854W        W90454  37.989  36.025  13.326
19855W        W90455   9.561  24.059   1.787
19856W        W90456  27.768  22.318  14.406
19857W        W90457  12.448  22.673  12.136
19858W        W90458   1.018  32.069   0.555
19859W        W90459  23.108  29.128  14.378
19860W        W90460  14.370  41.371   5.037
19861W        W90461  19.064  21.367   2.793
19862W        W90462  10.407  16.799  10.660
19863W        W90463  20.018  43.791  14.558
19864W        W90464  16.042  36.317   9.787
19865W        W90465   3.007   7.440   1.395
19866W        W90466   8.628   7.654  13.808
19867W        W90467   2.847   7.372   2.450
19868W        W90468  10.237  23.421   3.706
19869W        W90469  24.096  26.225   0.827
19870W        W90470  35.452  34.380   4.135
19871W        W90471   6.391   9.134  13.175
19872W        W90472  30.482  35.120  12.833
19873W        W90473  43.947  23.591   1.867
19874W        W90474  14.015  27.957  13.128
19875W        W90475  28.391  27.680   2.821
19876W        W90476  12.563  35.454  14.477
19877W        W90477  12.727  14.486  11.255
19878W        W90478  15.121   8.689  14.455
19879W        W90479  13.628  14.870   4.518
19880W        W90480  44.808   2.252   1.238
19881W        W90481  17.598  44.794  12.037
19882W        W90482   4.199  40.011   2.327
19883W        W90483  42.878   8.749   0.467
19884W        W90484  23.457  27.182   2.752
19885W        W90485   9.665  19.900  12.506
19886W        W90486   7.367   2.702  12.096
19887W        W90487   5.318  23.547  11.933
19888W        W90488  37.405  10.145  14.937
19889W        W90489   3.189   9.640   3.723
19890W        W90490  44.896  19.821   3.776
19891W        W90491  10.135  15.356  11.559
19892W        W90492  15.657  19.624  10.942
19893W        W90493  37.526  10.914  11.664
19894W        W90494  28.665   1.543  14.931
19895W        W90495   5.902  38.437   2.893
19896W        W90496  33.341  10.342  13.974
19897W        W90497  22.968  37.735  10.020
19898W        W90498  30.677  21.681   3.308
19899W        W90499  30.747  40.292   0.438
19900W        W90500  16.486  25.735  12.929
19901W        W90501   9.920  21.797  12.897
19902W        W90502  23.131   6.195   4.413
19903W        W90503  30.741  17.112  11.900
19904W        W90504  16.350   9.723  14.257
19905W        W90505  23.601  19.120  12.998
19906W        W90506  41.466  35.092   5.067
19907W        W90507  26.576  16.662   4.150
19908W        W90508  39.892  10.388   4.173
19909W        W90509  10.414  15.799  11.599
19910W        W90510  28.661   3.251   2.635
19911W        W90511  26.395  32.587  13.329
19912W        W90512  32.897  28.952   2.994
19913W        W90513   2.799  24.531   2.341
19914W        W90514  13.565  15.589  13.615
19915W        W90515  26.721  25.363   4.486
19916W        W90516  31.641  11.135   0.930
19917W        W90517  27.356  22.008   0.999
19918W        W90518  11.387  12.275  14.328
19919W        W90519  39.372  16.287  11.461
19920W        W90520  31.567  15.901  10.559
19921W        W90521  13.740  11.830  13.308
19922W        W90522   3.756  43.783  10.795
19923W        W90523  19.992   9.170  11.088
19924W        W90524  18.013  26.004  14.468
19925W        W90525  18.147  16.148   2.874
19926W        W90526   1.738  38.491   2.470
19927W        W90527  33.988  19.203   1.939
19928W        W90528   0.440  29.113   2.241
19929W        W90529  20.850  40.448  10.787
19930W        W90530   7.367  18.652   2.700
19931W        W90531  35.291   3.631   3.738
19932W        W90532  37.783  14.629   3.365
19933W        W90533  21.566  42.848   0.979
19934W        W90534   7.339  13.355   3.223
19935W        W90535  24.241  29.462   1.316
19936W        W90536  39.374  15.142  10.433
19937W        W90537   1.765  27.038  12.923
19938W        W90538  42.443   7.777  11.000
19939W        W90539   1.944  31.149   1.927
19940W        W90540  26.451   1.198   0.482
19941W        W90541  12.277  23.309  14.893
19942W        W90542  27.183  19.844  11.784
19943W        W90543  34.918  20.113   1.646
19944W        W90544  27.618  17.649  13.569
19945W        W90545   1.975  18.189  11.664
19946W        W90546  25.040  27.894  11.098
19947W        W90547  27.661  40.886  12.858
19948W        W90548  24.133  39.884  12.644
19949W        W90549   1.836  12.737   2.432
19950W        W90550  33.069  33.002  12.970
19951W        W90551   9.220  40.691   3.002
19952W        W90552  13.504   2.870  14.835
19953W        W90553  26.663  22.245   3.229
19954W        W90554  13.055  22.715  10.087
19955W        W90555  26.475  43.191   5.115
19956W        W90556  30.188  22.501  14.509
19957W        W90557  31.228  27.732  13.003
19958W        W90558   9.582  19.074  14.400
19959W        W90559  25.964  35.809   3.720
19960W        W90560  28.101   9.215   1.877
19961W        W90561  25.693   1.989   2.317
19962W        W90562  32.544  25.101   0.752
19963W        W90563  16.653  13.721   2.744
19964W        W90564  25.082  16.757  12.555
19965W        W90565  42.083  30.007  11.516
19966W        W90566  29.047  31.541  14.042
19967W        W90567  40.925  17.274   5.392
19968W        W90568   5.665  44.461   2.272
19969W        W90569  13.834   1.502   3.208
19970W        W90570  18.751   2.623  13.084
19971W        W90571   6.513  37.392   1.991
19972W        W90572  31.129   3.396  13.357
19973W        W90573  42.422   2.320   3.692
19974W        W90574  21.087  25.704  14.907
19975W        W90575  25.185  27.950  12.931
19976W        W90576  19.282  27.385  11.629
19977W        W90577   7.767  12.404  14.846
19978W        W90578  40.848  36.477   4.667
19979W        W90579  38.529  17.812   2.816
19980W        W90580  15.211   9.874   0.249
19981W        W90581  21.789  33.699  14.631
19982W        W90582  37.649  44.682  11.167
19983W        W90583   7.742   9.113   0.490
19984W        W90584   8.239  24.809   1.698
19985W        W90585  29.515   7.732  10.585
19986W        W90586  23.266  36.599   2.269
19987W        W90587  35.357  14.053  12.283
19988W        W90588  10.449   6.245  14.936
19989W        W90589  30.063  43.344  14.475
19990W        W90590  39.067   1.395  12.872
19991W        W90591  18.529   4.036  12.566
19992W        W90592  42.761  40.568   2.540
19993W        W90593  26.975  21.711  10.630
19994W        W90594  11.326  24.151  14.457
19995W        W90595  20.509  18.087   1.237
19996W        W90596  16.071  25.052  14.016
19997W        W90597   2.455   8.689   0.413
19998W        W90598  34.024   9.372  13.154
19999W        W90599   0.527  32.554   3.282
20000W        W90600  33.950  39.010  11.558
20001W        W90601  37.004  16.334   0.763
20002W        W90602   0.975  26.719  11.197
20003W        W90603  10.339  34.182  13.988
20004W        W90604  29.458  34.469  14.758
20005W        W90605  41.972   6.170   2.328
20006W        W90606  23.595  24.617  13.809
20007W        W90607   4.785  40.253   1.523
20008W        W90608  44.372  34.353   9.924
20009W        W90609   8.761  27.741  10.131
20010W        W90610  34.098  33.612   1.453
20011W        W90611  20.121   2.850  13.365
20012W        W90612  26.287  22.606  14.369
20013W        W90613  19.748  19.047  13.107
20014W        W90614  18.294  41.551  12.102
20015W        W90615  44.018  35.533  13.323
20016W        W90616  11.160  24.486   4.154
20017W        W90617  38.300  44.866   4.105
20018W        W90618   9.650  41.867  11.923
20019W        W90619  12.849  22.572  13.423
20020W        W90620  14.128  12.388   0.737
20021W        W90621   3.819  15.620   2.691
20022W        W90622   7.180  29.404   1.833
20023W        W90623   3.444   0.451   4.118
20024W        W90624  11.674  30.606  11.203
20025W        W90625  19.509  32.783  11.066
20026W        W90626  26.165  33.866  11.057
20027W        W90627  30.793  44.248  11.518
20028W        W90628   4.235   9.201   0.489
20029W        W90629  32.972   7.306   3.923
20030W        W90630  12.346  20.258  14.484
20031W        W90631  27.430  27.419  14.996
20032W        W90632  20.818   2.276   1.447
20033W        W90633  38.899  20.036   1.716
20034W        W90634  34.417   8.266  14.071
20035W        W90635  28.353   6.342   1.427
20036W        W90636  18.504  36.445   2.758
20037W        W90637  15.283  15.173  13.040
20038W        W90638  34.006  26.289  13.722
20039W        W90639   4.509  34.465  14.928
20040W        W90640  23.396   5.546  12.433
20041W        W90641  28.368   2.216  13.580
20042W        W90642  29.611  36.423  14.283
20043W        W90643  32.948  38.368   2.756
20044W        W90644  23.997  40.416  11.046
20045W        W90645  11.942   3.457   1.898
20046W        W90646   7.750  41.614   3.624
20047W        W90647  43.195  24.473   3.258
20048W        W90648  18.934  23.245  12.027
20049W        W90649  27.675  34.848   0.988
20050W        W90650  18.288  11.680  10.761
20051W        W90651  33.850  27.955   3.639
20052W        W90652  17.589  21.754  12.960
20053W        W90653   8.874  12.162   2.335
20054W        W90654  24.306  36.939   3.726
20055W        W90655  12.120  20.667  10.485
20056W        W90656  37.931  40.298   2.258
20057W        W90657  10.221  34.608   3.129
20058W        W90658  17.652  17.088   3.344
20059W        W90659  33.364  20.283  13.347
20060W        W90660   9.247  39.094  12.557
20061W        W90661   9.953  15.830  11.405
20062W        W90662  26.008  31.523   2.191
20063W        W90663  15.256  43.803   1.309
20064W        W90664  24.364  44.804   1.777
20065W        W90665  33.856  13.722  14.077
20066W        W90666  39.823  20.802   1.266
20067W        W90667  25.365  10.344  12.448
20068W        W90668  42.371  27.006   2.436
20069W        W90669   7.736  18.805  12.127
20070W        W90670  42.547   5.457  13.820
20071W        W90671   0.464  15.231   1.763
20072W        W90672   7.533  35.404  10.653
20073W        W90673   1.963  30.800   0.075
20074W        W90674  12.622  21.661  14.282
20075W        W90675   1.818  42.373  14.882
20076W        W90676  21.706  31.436  10.531
20077W        W90677  18.778  39.937   4.434
20078W        W90678  21.102  12.878  14.445
20079W        W90679  21.844  37.303   3.690
20080W        W90680  28.171  29.857  11.159
20081W        W90681  28.521  25.005   2.871
20082W        W90682  30.911  44.516  11.935
20083W        W90683   1.413  32.962   0.064
20084W        W90684   9.332   8.539   4.862
20085W        W90685  11.285  34.298   0.896
20086W        W90686  39.585  37.123   2.222
20087W        W90687  30.895   6.692   3.321
20088W        W90688  32.671   2.640   4.408
20089W        W90689   2.806  20.212   1.635
20090W        W90690   1.806  22.708  10.507
20091W        W90691  13.284  18.616  11.114
20092W        W90692  13.889  31.682   1.854
20093W        W90693  39.073  22.736   0.354
20094W        W90694   6.107  11.882  13.522
20095W        W90695  28.575  22.157  10.890
20096W        W90696  16.245  23.573  14.971
20097W        W90697  14.606  24.257   1.234
20098W        W90698  39.053  18.207   2.299
20099W        W90699   5.439  44.969   0.817
20100W        W90700   9.752   2.659   4.664
20101W        W90701  30.068  28.944  11.678
20102W        W90702  16.056  22.591  12.138
20103W        W90703  13.247  34.496  13.965
20104W        W90704  26.444  11.146   1.954
20105W        W90705  25.235  40.305   4.118
20106W        W90706  18.171  42.725   4.482
20107W        W90707  12.653  11.893   3.263
20108W        W90708  29.696  10.198   2.311
20109W        W90709  15.402  32.533  12.777
20110W        W90710  12.347  16.206  11.881
20111W        W90711  21.347  28.524   4.029
20112W        W90712  17.775   8.122   1.292
20113W        W90713  41.054  35.978  10.572
20114W        W90714   8.961  35.797  13.434
20115W        W90715  38.905  16.279  11.225
20116W        W90716  39.069   2.794   4.070
20117W        W90717  38.523  28.954  14.070
20118W        W90718  28.964  26.000  11.189
20119W        W90719  23.013  27.008  10.780
20120W        W90720  36.345   7.704  12.885
20121W        W90721  14.290   8.561   0.481
20122W        W90722  23.399  15.660  12.681
20123W        W90723   1.506  20.050   2.745
20124W        W90724  20.256  34.593   1.270
20125W        W90725  33.117   0.075   1.384
20126W        W90726  43.383  42.071   3.676
20127W        W90727  43.032  39.580  13.314
20128W        W90728  21.293  17.329   3.103
20129W        W90729  16.962  15.191   1.560
20130W        W90730  10.222  12.229  11.761
20131W        W90731  14.024  31.571  14.000
20132W        W90732  36.646  29.244  12.122
20133W        W90733   6.731   6.650   4.681
20134W        W90734  31.443  17.633   1.249
20135W        W90735  20.589  11.701   3.230
20136W        W90736  25.188  32.305   1.287
20137W        W90737   3.743  43.276   3.394
20138W        W90738  28.862  44.348   1.806
20139W        W90739  38.900  32.721   4.032
20140W        W90740  30.575   4.267   4.681
20141W        W90741  36.785  12.145   2.405
20142W        W90742   1.310  38.758   4.614
20143W        W90743  38.755  41.861   3.761
20144W        W90744  21.052  35.942  13.517
20145W        W90745  35.122   4.652  11.546
20146W        W90746   5.089  41.408   4.603
20147W        W90747  34.759  32.537  11.662
20148W        W90748   0.762  19.038   2.121
20149W        W90749  10.646  38.342  11.894
20150W        W90750  40.832  27.982  10.716
20151W        W90751  40.362   6.288  12.841
20152W        W90752  38.905  26.671   3.601
20153W        W90753   5.737  19.725   1.729
20154W        W90754  15.585  38.973   1.779
20155W        W90755  43.041  39.823   4.813
20156W        W90756   3.296  44.067   2.881
20157W        W90757  14.961  15.563  11.745
20158W        W90758  23.680   0.877  14.786
20159W        W90759  24.127  43.630   0.249
20160W        W90760  32.733   8.773   0.017
20161W        W90761  44.256   4.674  13.395
20162W        W90762  22.186  16.881  12.575
20163W        W90763  44.349  20.480   1.323
20164W        W90764  18.391   2.793   3.646
20165W        W90765  22.050  38.368  13.366
20166W        W90766   5.513  40.675  13.011
20167W        W90767   3.160  25.234   1.772
20168W        W90768   2.591   4.193   3.657
20169W        W90769  39.745  41.130   3.523
20170W        W90770  14.625   2.196   3.932
20171W        W90771   2.914  25.472   2.277
20172W        W90772  17.484  23.747   0.423
20173W        W90773  33.023  33.857   1.567
20174W        W90774  35.040  38.854   2.327
20175W        W90775  20.140  41.054  10.988
20176W        W90776  26.838   4.958  14.256
20177W        W90777  15.060  14.705  12.989
20178W        W90778  10.205  13.854  10.644
20179W        W90779  23.545  28.557  14.892
20180W        W90780   3.346  42.609   3.349
20181W        W90781  13.290  35.528   0.567
20182W        W90782   3.487  11.891  11.223
20183W        W90783  44.848  20.836   2.314
20184W        W90784  43.931   1.984   3.120
20185W        W90785   7.718  29.356  12.698
20186W        W90786  28.080  28.897  14.256
20187W        W90787  38.864   2.409   3.788
20188W        W90788  16.317  11.610   4.075
20189W        W90789  14.861   6.908   2.001
20190W        W90790  30.145  23.411   0.359
20191W        W90791   2.042  11.688  13.928
20192W        W90792  12.138  38.768   1.783
20193W        W90793   4.794  25.834  12.052
20194W        W90794  10.812  13.693  14.040
20195W        W90795   5.972  11.066   2.987
20196W        W90796  33.508  19.486  14.912
20197W        W90797  37.173  19.600   4.309
20198W        W90798  21.709   5.804   3.621
20199W        W90799   3.281  41.025   1.740
20200W        W90800   9.421  18.622  13.609
20201W        W90801   2.230  41.485   3.729
20202W        W90802  13.658   1.584  12.817
20203W        W90803  36.475   6.424  10.334
20204W        W90804  14.837   0.448  11.179
20205W        W90805  35.521  29.956  13.326
20206W        W90806   0.977  12.211  13.570
20207W        W90807  29.099  14.075  13.708
20208W        W90808  26.651  17.358  13.597
20209W        W90809   0.841  16.745  11.145
20210W        W90810  29.082  34.800  14.825
20211W        W90811  35.659  39.133   0.302
20212W        W90812  43.956   2.747  13.342
20213W        W90813  40.350  33.938  12.436
20214W        W90814  39.889  17.163   3.698
20215W        W90815  14.775  34.581   0.493
20216W        W90816  35.111   7.881   3.825
20217W        W90817  18.725  20.219   2.171
20218W        W90818  42.515  19.128  13.152
20219W        W90819  16.854  35.507  12.116
20220W        W90820   0.545  37.859   0.268
20221W        W90821  25.171  28.162   1.891
20222W        W90822   2.976  18.604   1.739
20223W        W90823  33.868  40.770   3.732
20224W        W90824   5.955  15.063   0.349
20225W        W90825  10.417  40.856   4.239
20226W        W90826  37.578  43.884   0.814
20227W        W90827   6.825  12.354   1.689
20228W        W90828  10.648  16.444   4.536
20229W        W90829  30.685  24.788  14.330
20230W        W90830   1.836  22.456  11.012
20231W        W90831  15.078  11.216   5.251
20232W        W90832  32.320  15.157  12.014
20233W        W90833  25.480  24.437   3.072
20234W        W90834  16.761  13.076  12.459
20235W        W90835   9.428  29.195  13.470
20236W        W90836   8.186  18.003   2.329
20237W        W90837  13.115  10.209   2.842
20238W        W90838  13.592   0.639  12.952
20239W        W90839  38.450  43.984  11.964
20240W        W90840  43.517  26.989  14.288
20241W        W90841  16.667  13.541   1.678
20242W        W90842   4.061  12.197  12.451
20243W        W90843  15.679   1.549   4.017
20244W        W90844  33.857  21.551   4.700
20245W        W90845  44.866  39.278  12.548
20246W        W90846   4.563  26.678   5.153
20247W        W90847   3.212  14.524   2.919
20248W        W90848  19.722  11.315  12.957
20249W        W90849  31.255  43.786   2.749
20250W        W90850   3.903  40.587  13.456
20251W        W90851  10.072   8.022  14.235
20252W        W90852  40.025  16.028  13.363
20253W        W90853  36.630   4.268   4.585
20254W        W90854  34.423   7.484  12.023
20255W        W90855  34.796  26.990   0.978
20256W        W90856  14.894  10.995  12.908
20257W        W90857   3.913   1.873  12.597
20258W        W90858  26.208  23.454   3.636
20259W        W90859  30.082   9.139   3.145
20260W        W90860  20.579  43.297   0.832
20261W        W90861   1.891  16.188   4.579
20262W        W90862  11.865   8.486  14.354
20263W        W90863  10.217   7.741   0.768
20264W        W90864  19.546  21.188   2.796
20265W        W90865  24.815  23.768   0.461
20266W        W90866  20.298  10.052   0.381
20267W        W90867  34.424  14.338   2.833
20268W        W90868   5.555  43.999  13.152
20269W        W90869  10.683  31.805   2.609
20270W        W90870  10.296  35.288  10.543
20271W        W90871  43.435  26.780   1.666
20272W        W90872  31.854  10.837   1.360
20273W        W90873  44.465   8.615  13.038
20274W        W90874  24.489  34.088  13.418
20275W        W90875  34.044  12.858   3.326
20276W        W90876  15.890  30.438   4.922
20277W        W90877  11.324  30.935   4.865
20278W        W90878   9.732   4.952  11.413
20279W        W90879   5.636  10.903  14.799
20280W        W90880  35.170   5.700  12.632
20281W        W90881   4.209   7.393  13.721
20282W        W90882  31.232  37.815  14.313
20283W        W90883  19.831   4.145  14.321
20284W        W90884   7.454  37.941   3.585
20285W        W90885  22.975  17.664  10.720
20286W        W90886  13.180   7.230  14.331
20287W        W90887  33.790  24.401  12.448
20288W        W90888  10.127  40.668  14.312
20289W        W90889   6.995  43.182   0.373
20290W        W90890  36.091  40.358   2.616
20291W        W90891  30.610  32.863   0.929
20292W        W90892  24.130   1.452  12.977
20293W        W90893  11.416  28.350   0.486
20294W        W90894  33.742   0.907  11.230
20295W        W90895  41.402   5.725  12.552
20296W        W90896  12.852  13.780   2.114
20297W        W90897  28.120  40.986  12.574
20298W        W90898  15.601   4.008  13.620
20299W        W90899   3.259  28.694  13.806
20300W        W90900  28.079  42.849  13.177
20301W        W90901  13.620  39.493   0.842
20302W        W90902   1.800  27.612  13.443
20303W        W90903  11.690  12.019   2.224
20304W        W90904  28.090  14.586   2.917
20305W        W90905  35.250   0.893   2.794
20306W        W90906  14.649  25.672  14.880
20307W        W90907  39.853   1.548   1.336
20308W        W90908  41.364  35.472  14.364
20309W        W90909  38.487  42.335  11.163
20310W        W90910   1.664  22.372  14.715
20311W        W90911  18.979  24.606  10.993
20312W        W90912   9.354  42.779   2.431
20313W        W90913  37.330  11.851   3.613
20314W        W90914  25.029  23.562  10.506
20315W        W90915  29.465  27.814   5.050
20316W        W90916   6.819  28.215  11.131
20317W        W90917  32.592  14.124  12.909
20318W        W90918  21.125  36.324   3.195
20319W        W90919  30.152  16.309   1.084
20320W        W90920  26.480  13.771  14.865
20321W        W90921  22.207   3.518  13.882
20322W        W90922  13.341   4.526   3.217
20323W        W90923  32.886  15.745  12.693
20324W        W90924  33.608  18.756   3.771
20325W        W90925  22.910  40.441   1.370
20326W        W90926  29.947  28.003   0.370
20327W        W90927  44.079   2.182  12.071
20328W        W90928  14.477  32.859  13.104
20329W        W90929  43.332  33.575   3.750
20330W        W90930  17.549  21.124  14.502
20331W        W90931  17.852  35.432   1.239
20332W        W90932   0.825  23.524  11.377
20333W        W90933  11.454  29.964   1.223
20334W        W90934  41.407   4.328  13.958
20335W        W90935  15.776  16.135   1.460
20336W        W90936  39.771  41.045  14.922
20337W        W90937  19.630   7.590   4.081
20338W        W90938  11.181  11.773   0.413
20339W        W90939  37.355   4.770  14.725
20340W        W90940  30.676   1.316   2.809
20341W        W90941  24.404  35.547   1.711
20342W        W90942  16.615   8.363   1.184
20343W        W90943  40.315  43.891  14.853
20344W        W90944  42.635  29.966  13.406
20345W        W90945   7.639  15.620  11.700
20346W        W90946  17.645  21.474   2.728
20347W        W90947  28.221  21.280  11.612
20348W        W90948  38.025  11.823   0.906
20349W        W90949   0.512   1.824   0.426
20350W        W90950  24.763  26.101   1.748
20351W        W90951  15.845  12.865  14.590
20352W        W90952  38.747   4.735   2.238
20353W        W90953  29.980  25.717   4.679
20354W        W90954   9.386  16.514  13.419
20355W        W90955  42.402   1.286  12.603
20356W        W90956  19.898   3.598   2.312
20357W        W90957   0.962  22.262   3.692
20358W        W90958  23.727  20.508   2.229
20359W        W90959  23.963  14.732   3.164
20360W        W90960  12.826  44.097  12.098
20361W        W90961  24.986  25.510  14.915
20362W        W90962  34.052  25.581  12.037
20363W        W90963  42.456  24.667   0.297
20364W        W90964  22.144  39.142  13.131
20365W        W90965  28.469  34.354   4.570
20366W        W90966  21.603  22.765   2.935
20367W        W90967  30.657  19.621  12.961
20368W        W90968  18.067  44.848  11.137
20369W        W90969   6.785  28.272   4.932
20370W        W90970  26.224   8.875   1.259
20371W        W90971  42.398  14.332  11.273
20372W        W90972  28.915  23.839  12.011
20373W        W90973  43.204  29.032   3.813
20374W        W90974  44.697  13.829   3.786
20375W        W90975   2.315  10.765  12.516
20376W        W90976  35.510  17.074   2.736
20377W        W90977  30.208  37.536  14.015
20378W        W90978   6.325  38.564  13.605
20379W        W90979  25.912  15.639  13.351
20380W        W90980   9.316  44.832  10.596
20381W        W90981   0.383  16.526   2.142
20382W        W90982   0.751  19.621   0.547
20383W        W90983  29.591   6.774  11.411
20384W        W90984  25.599  11.662  12.570
20385W        W90985  31.411  28.448   4.128
20386W        W90986  20.737  43.872  11.780
20387W        W90987   4.674  38.274  11.745
20388W        W90988   8.784  22.433   3.330
20389W        W90989  35.057  32.051  14.868
20390W        W90990  18.297  41.008   0.983
20391W        W90991  21.940  14.094  14.058
20392W        W90992  38.388  34.048   0.474
20393W        W90993  11.330  12.278  12.516
20394W        W90994  35.658   0.678   0.588
20395W        W90995  36.391  43.964   4.467
20396W        W90996  17.327   5.322   1.883
20397W        W90997  30.606   2.390  13.328
20398W        W90998  21.097   3.011  13.893
20399W        W90999   5.245  41.963  12.528
20400W        W91000  42.811  10.777   1.429
20401W        W91001  34.718  33.466   3.071
20402W        W91002  34.728   8.492  14.433
20403W        W91003  44.967  38.478   1.215
20404W        W91004  11.219  39.077  10.790
20405W        W91005  41.268  10.268   0.154
20406W        W91006   8.017  25.942  12.235
20407W        W91007   5.543   3.814   3.305
20408W        W91008  44.671  16.116  11.840
20409W        W91009   3.788  34.444  11.546
20410W        W91010  26.243  19.794   0.466
20411W        W91011  33.200  37.653  14.436
20412W        W91012  36.882  24.071   3.293
20413W        W91013  10.025  30.911  12.173
20414W        W91014   6.310  39.870  14.475
20415W        W91015  27.471  17.820  10.846
20416W        W91016  24.006   8.505   0.278
20417W        W91017  17.321   0.308   4.575
20418W        W91018  15.261   3.769  13.305
20419W        W91019  27.686  23.588   4.286
20420W        W91020  44.881  27.897  14.034
20421W        W91021   0.502  17.349   9.947
20422W        W91022  13.894   8.143  13.448
20423W        W91023  30.148   0.913   0.859
20424W        W91024   2.434   8.597  10.852
20425W        W91025  11.804  13.851  12.038
20426W        W91026  19.731  44.752  12.478
20427W        W91027  42.035  28.229  13.875
20428W        W91028  18.357  25.907   4.161
20429W        W91029  26.465  14.097   2.900
20430W        W91030  38.620  14.757  11.188
20431W        W91031  39.269  12.232   2.169
20432W        W91032  10.415  18.699   2.716
20433W        W91033   4.600   0.755  14.711
20434W        W91034   3.249  37.881   1.703
20435W        W91035  21.759  26.378  11.384
20436W        W91036  35.982  37.491  13.957
20437W        W91037  29.140  22.173  12.682
20438W        W91038  12.127  30.381  14.803
20439W        W91039  43.183  13.443  12.008
20440W        W91040   8.115  23.259   4.219
20441W        W91041  21.566  31.634  11.906
20442W        W91042  19.549  15.187  14.909
20443W        W91043  18.721  37.810  12.558
20444W        W91044  26.264   5.972   3.181
20445W        W91045  36.677  42.263   3.304
20446W        W91046  30.424  21.113  13.369
20447W        W91047  30.070   3.894   1.947
20448W        W91048  21.921  34.383  11.137
20449W        W91049   9.749  43.823   0.415
20450W        W91050  24.902  17.747  10.383
20451W        W91051   1.377  33.910  12.677
20452W        W91052  43.203  28.440  14.400
20453W        W91053  26.031  23.152   0.535
20454W        W91054  41.463  38.225   1.861
20455W        W91055  17.521  43.015  11.201
20456W        W91056  25.390  12.234  13.513
20457W        W91057   3.240  36.298  11.641
20458W        W91058  29.151  23.507  11.672
20459W        W91059  20.136  14.812   1.665
20460W        W91060  40.376  14.339   0.398
20461W        W91061  26.727  24.869   0.902
20462W        W91062  34.104  10.698  14.852
20463W        W91063  20.017  22.673  12.994
20464W        W91064  30.996   1.911  13.867
20465W        W91065  44.301  40.511  13.841
20466W        W91066  20.712   1.724   3.104
20467W        W91067  42.456   0.787   3.459
20468W        W91068  30.619  21.315  10.968
20469W        W91069  30.633  17.785   1.772
20470W        W91070  41.598  40.531   1.532
20471W        W91071  32.758  30.496  11.712
20472W        W91072  24.326   4.953  11.157
20473W        W91073  27.594  43.060  13.993
20474W        W91074  29.718  19.735  13.213
20475W        W91075   1.498  28.787   3.777
20476W        W91076   0.215   9.118  12.029
20477W        W91077   9.313  27.033   0.941
20478W        W91078  34.586  35.571   1.504
20479W        W91079  15.166  25.939  13.011
20480W        W91080  25.657  10.710  13.695
20481W        W91081  39.303  24.481   1.650
20482W        W91082   8.688  13.380  13.140
20483W        W91083   5.289  19.714  14.476
20484W        W91084   1.778  26.450   1.346
20485W        W91085  25.435  29.634  14.856
20486W        W91086  27.529  23.600   4.798
20487W        W91087  18.164  20.278   2.937
20488W        W91088  18.055  17.559  11.228
20489W        W91089  38.832  10.349  11.705
20490W        W91090  11.386   9.310   0.259
20491W        W91091  22.155  41.477   4.863
20492W        W91092  31.522  36.497   2.871
20493W        W91093  27.646  35.107  13.974
20494W        W91094  34.466  12.990  11.148
20495W        W91095  21.183  39.971   3.831
20496W        W91096  12.745  28.341   2.820
20497W        W91097  38.905  42.836  14.281
20498W        W91098   6.949  19.015  12.366
20499W        W91099  11.768  19.923   4.565
20500W        W91100  43.176  20.723   0.706
20501W        W91101   7.771  15.837   2.678
20502W        W91102  20.221   4.242   1.147
20503W        W91103  18.115  42.246  13.641
20504W        W91104  40.505  15.995  12.180
20505W        W91105  11.281  22.635   2.370
20506W        W91106  15.543  39.442  11.622
20507W        W91107  44.067  16.772   2.551
20508W        W91108  25.547  37.357   2.264
20509W        W91109  15.744  41.187   3.880
20510W        W91110  19.710  11.196   0.760
20511W        W91111  21.242   5.371   1.845
20512W        W91112   5.995  36.420  14.446
20513W        W91113  11.126  23.904  13.323
20514W        W91114  21.548  15.170  14.524
20515W        W91115  31.000  22.108   4.555
20516W        W91116  19.498  44.350   2.689
20517W        W91117  29.503  44.425  13.100
20518W        W91118   1.684  12.878   3.435
20519W        W91119   6.246  31.097   2.876
20520W        W91120  25.261   9.335  12.559
20521W        W91121  14.538   9.302   1.159
20522W        W91122  28.587  39.161  14.445
20523W        W91123   2.232  24.774  13.854
20524W        W91124   3.010   2.572   2.731
20525W        W91125  42.451  42.310   2.701
20526W        W91126  33.072  33.635  11.364
20527W        W91127  44.952   2.080  11.851
20528W        W91128   0.964   7.867  11.415
20529W        W91129  16.674  38.011  11.253
20530W        W91130  21.738  34.863  11.578
20531W        W91131  37.318   8.923  10.680
20532W        W91132  25.698  29.134  11.079
20533W        W91133  37.799  37.343  13.844
20534W        W91134  20.256  12.764   1.697
20535W        W91135  41.766  40.949  11.020
20536W        W91136   1.917  31.806  14.925
20537W        W91137  21.556  12.719   4.669
20538W        W91138  31.459  36.486   0.854
20539W        W91139  27.037  36.844   0.019
20540W        W91140  40.023  12.424   3.708
20541W        W91141  39.403   3.797   4.195
20542W        W91142   0.763  11.693  12.879
20543W        W91143  33.465   4.191  10.744
20544W        W91144  31.586  22.725   0.405
20545W        W91145   3.288  25.762   4.114
20546W        W91146   9.285  38.924  10.245
20547W        W91147  10.550  18.406  11.185
20548W        W91148  39.314   5.779   3.249
20549W        W91149  22.206  30.696   3.616
20550W        W91150  43.497  18.858  12.187
20551W        W91151   1.005  16.369  13.584
20552W        W91152   9.560   6.280  14.844
20553W        W91153  14.734   2.733  13.166
20554W        W91154  13.831  24.638  14.975
20555W        W91155   9.592  11.635  12.062
20556W        W91156  18.301  27.614  10.371
20557W        W91157   3.160  42.010   4.607
20558W        W91158  11.609   4.799   2.656
20559W        W91159  28.344  25.551  11.866
20560W        W91160  31.633  17.021  11.308
20561W        W91161  27.556  14.345   0.777
20562W        W91162  17.489  23.479   5.042
20563W        W91163  42.046   3.431   4.468
20564W        W91164  16.728  12.654  12.126
20565W        W91165  19.822  36.964   4.141
20566W        W91166  40.881  38.612   2.261
20567W        W91167  44.904   4.804  14.106
20568W        W91168  35.844  34.589  14.602
20569W        W91169   3.434  40.780  13.448
20570W        W91170  16.699  12.638   0.651
20571W        W91171  18.034  31.098  11.897
20572W        W91172  43.196  25.930  11.217
20573W        W91173  21.597  22.362  11.666
20574W        W91174  32.477  27.899   3.233
20575W        W91175  11.916  33.926  12.684
20576W        W91176  24.584  39.483  12.469
20577W        W91177  14.747  42.410  13.941
20578W        W91178  14.556  16.030  12.908
20579W        W91179  41.455   3.041   2.697
20580W        W91180  20.851   5.798  11.061
20581W        W91181   6.283  23.553   3.367
20582W        W91182   0.731  37.439   3.151
20583W        W91183   4.263  16.163   2.221
20584W        W91184   1.273  10.672  12.265
20585W        W91185  43.946  20.076  13.717
20586W        W91186   8.618  21.810   2.223
20587W        W91187  21.672  30.119   4.338
20588W        W91188  41.039   9.374   2.175
20589W        W91189  23.449  16.025   3.113
20590W        W91190  17.001  32.045  11.579
20591W        W91191  15.812   0.407  13.108
20592W        W91192   3.297  11.697   5.068
20593W        W91193  27.151  29.256  14.439
20594W        W91194  42.586  44.514  12.563
20595W        W91195  28.030  30.555  13.335
20596W        W91196  29.004  24.052   1.360
20597W        W91197  12.107  17.216   1.855
20598W        W91198  36.098  29.474  11.579
20599W        W91199  19.977   8.624  11.018
20600W        W91200  36.713  15.645  11.924
20601W        W91201   0.885  24.082   4.672
20602W        W91202  44.898  24.716   2.424
20603W        W91203  40.813  41.260   1.190
20604W        W91204   5.917  23.155  13.906
20605W        W91205   4.323   8.877  10.325
20606W        W91206  39.028  26.475   4.551
20607W        W91207  13.169  14.708   0.708
20608W        W91208  22.994  23.456  10.707
20609W        W91209  14.548   8.928   0.745
20610W        W91210   3.397   3.734   3.729
20611W        W91211  29.932   6.441   2.291
20612W        W91212  26.776  26.793   2.831
20613W        W91213  17.765  16.575   0.812
20614W        W91214   0.401  24.576  14.232
20615W        W91215  40.075   7.325  14.336
20616W        W91216  41.695   3.304   1.308
20617W        W91217  38.600  24.263  14.507
20618W        W91218  42.365  21.424  11.587
20619W        W91219  23.556  20.168  13.042
20620W        W91220  31.698  16.723   3.712
20621W        W91221  41.525  25.833   4.422
20622W        W91222   5.767  35.398   4.086
20623W        W91223  26.121  44.792   2.314
20624W        W91224  41.781  43.998  12.451
20625W        W91225  21.733  37.582  11.227
20626W        W91226   7.960  26.468  11.046
20627W        W91227  27.990  38.146   0.094
20628W        W91228  17.149  15.622  13.790
20629W        W91229  17.372  21.685   0.722
20630W        W91230  36.091   9.789   1.942
20631W        W91231   5.999  42.549  12.543
20632W        W91232  24.264  24.171   4.650
20633W        W91233  43.497  16.848   0.086
20634W        W91234  16.763  42.532   0.435
20635W        W91235  35.316  41.979   4.463
20636W        W91236  21.579  26.864  11.496
20637W        W91237  13.802   7.699  12.520
20638W        W91238  38.562  42.697  11.548
20639W        W91239  43.394   6.203  12.003
20640W        W91240  30.452  43.398  13.185
20641W        W91241  28.592  19.392   0.959
20642W        W91242  33.489  39.240  11.704
20643W        W91243   2.467  36.241  11.114
20644W        W91244  14.358  32.001  11.949
20645W        W91245  35.570  10.796   2.766
20646W        W91246  23.453   2.715   2.760
20647W        W91247  38.323  10.878   0.749
20648W        W91248  42.296  21.748  14.262
20649W        W91249   1.961   7.928   3.695
20650W        W91250  37.833   4.203  10.236
20651W        W91251   9.862  10.558  12.571
20652W        W91252  33.975  27.968   4.527
20653W        W91253  18.748  10.911   4.315
20654W        W91254  44.526  27.085   0.798
20655W        W91255  41.347  33.971   3.988
20656W        W91256  19.767   8.719  13.818
20657W        W91257  19.216  21.871  11.165
20658W        W91258   2.835  43.431   2.332
20659W        W91259  38.016   8.654  12.627
20660W        W91260  13.714  42.953   3.118
20661W        W91261  41.358  19.813   2.742
20662W        W91262   7.245   8.305   0.344
20663W        W91263  24.969  11.478   1.267
20664W        W91264  27.107   2.106   3.156
20665W        W91265   7.426  35.043  13.756
20666W        W91266  33.870  26.049  11.989
20667W        W91267  30.926  41.709  12.650
20668W        W91268  11.426  39.537  10.604
20669W        W91269   9.611  37.907   4.954
20670W        W91270  35.069   9.196   2.588
20671W        W91271   2.225  19.500   4.542
20672W        W91272  31.563   0.039  13.996
20673W        W91273  43.182  25.164  13.350
20674W        W91274   4.331  13.515  11.854
20675W        W91275   3.426  23.538  11.159
20676W        W91276  12.944  33.551  14.294
20677W        W91277  11.782  15.663   1.821
20678W        W91278  24.069  25.063  14.544
20679W        W91279  21.400  39.512   3.905
20680W        W91280  10.856  39.068  12.996
20681W        W91281  22.480   8.302  14.125
20682W        W91282  18.537  11.569   2.453
20683W        W91283  34.060   7.245   2.422
20684W        W91284   3.755  18.234  13.910
20685W        W91285  16.543  27.153  13.069
20686W        W91286  40.585  24.232   2.911
20687W        W91287   5.334  17.611  10.796
20688W        W91288  13.340  44.397  11.135
20689W        W91289   3.375   4.612   4.981
20690W        W91290   4.924  23.218   3.182
20691W        W91291  35.461  35.582  14.193
20692W        W91292  22.928  12.508  14.295
20693W        W91293  43.793  17.635   0.423
20694W        W91294  13.407  23.772   1.029
20695W        W91295  44.749  42.062   2.334
20696W        W91296  18.784  42.370   1.815
20697W        W91297  40.519  28.911   3.484
20698W        W91298  34.109  12.668  10.602
20699W        W91299   8.317  41.685  14.474
20700W        W91300  13.781  24.093   0.237
20701W        W91301  32.554  23.168  10.941
20702W        W91302  38.584  25.574  14.400
20703W        W91303  43.863   6.815   4.037
20704W        W91304  42.015   3.705  10.322
20705W        W91305   7.977  42.802   0.676
20706W        W91306  30.173  17.569   1.787
20707W        W91307   4.224  19.063  11.598
20708W        W91308  17.519  11.254  10.743
20709W        W91309  35.587  41.290   3.847
20710W        W91310   5.551  15.234  13.476
20711W        W91311   2.269  31.920   2.905
20712W        W91312  20.527  25.973   0.783
20713W        W91313  29.417  42.351   2.827
20714W        W91314  13.233  11.449   0.362
20715W        W91315   6.149   5.991   2.629
20716W        W91316  38.073  44.762   0.907
20717W        W91317  20.629  16.581   3.297
20718W        W91318  16.459  21.106   3.248
20719W        W91319  15.140  44.157  14.992
20720W        W91320  13.669   1.596  10.735
20721W        W91321  22.534  36.099   2.799
20722W        W91322   7.944  43.971  14.447
20723W        W91323  31.354  31.912   4.721
20724W        W91324  35.373  42.780   4.078
20725W        W91325  10.161  13.058   3.581
20726W        W91326  17.620  15.524  10.496
20727W        W91327  15.344  16.853   1.159
20728W        W91328  35.841  44.002   3.813
20729W        W91329  13.060  33.673   1.536
20730W        W91330  25.731  17.707   0.519
20731W        W91331  28.967  42.393   4.337
20732W        W91332   9.859   4.610   5.104
20733W        W91333  24.182  28.398  13.640
20734W        W91334  24.815  36.528   4.131
20735W        W91335  10.225   3.891   2.430
20736W        W91336   5.931  23.687   0.777
20737W        W91337  16.254  36.862  11.117
20738W        W91338  13.826  27.577   2.800
20739W        W91339   5.039  27.265  12.939
20740W        W91340  26.661  29.415  14.530
20741W        W91341   9.635   0.775   3.230
20742W        W91342  15.231  30.516  12.449
20743W        W91343  13.806  25.170   4.579
20744W        W91344  37.403  34.493  13.063
20745W        W91345  36.864   1.492   1.412
20746W        W91346  31.355  40.593  10.740
20747W        W91347  12.508  33.407  14.539
20748W        W91348  18.219  44.902  14.012
20749W        W91349  16.762  26.082   1.699
20750W        W91350  40.827  18.859  13.355
20751W        W91351  20.036  29.022  14.440
20752W        W91352   5.790  12.260  13.386
20753W        W91353  24.775  23.181  11.641
20754W        W91354  44.369  11.282   0.480
20755W        W91355   4.278  40.488   0.815
20756W        W91356   6.237  41.057   0.887
20757W        W91357  19.928  18.818  12.488
20758W        W91358   7.339  17.705   4.113
20759W        W91359  19.244  13.524   2.804
20760W        W91360  18.889  20.115   1.220
20761W        W91361  27.735   5.798   2.283
20762W        W91362  40.489  17.852  12.122
20763W        W91363   3.825  23.919  10.523
20764W        W91364  28.474  31.908   3.568
20765W        W91365  28.933  41.746   0.619
20766W        W91366   9.227   2.376   4.039
20767W        W91367  12.645   0.386   0.753
20768W        W91368  29.679  12.246  14.180
20769W        W91369  37.499  24.695   1.418
20770W        W91370  36.613  18.941   4.135
20771W        W91371  37.630  44.358   1.039
20772W        W91372  25.979   6.343   3.384
20773W        W91373  12.348  25.074   3.289
20774W        W91374   8.719  42.875  13.432
20775W        W91375   4.241  24.490  12.135
20776W        W91376  15.254   4.188   3.988
20777W        W91377   9.760  19.293   0.297
20778W        W91378  11.222   1.929  13.791
20779W        W91379  33.152  18.563   2.796
20780W        W91380  18.031  19.033   1.994
20781W        W91381  15.920  11.104   3.285
20782W        W91382  40.300  36.478  10.720
20783W        W91383  37.966  13.550   0.881
20784W        W91384  24.260   3.651  13.025
20785W        W91385  29.462   0.833  11.387
20786W        W91386  16.321  42.514  12.165
20787W        W91387  41.003  37.011  11.584
20788W        W91388   1.856  26.445   4.368
20789W        W91389  43.565  17.122  12.968
20790W        W91390  28.898   1.733   1.500
20791W        W91391  20.914  13.971  12.133
20792W        W91392  20.579   2.538   1.060
20793W        W91393   2.495  23.162  10.905
20794W        W91394   9.434  17.279  11.114
20795W        W91395  16.742  41.011   4.645
20796W        W91396  25.749  25.186  12.519
20797W        W91397  36.851   7.396   2.646
20798W        W91398  38.916  43.296  11.248
20799W        W91399  37.856  12.661  12.015
20800W        W91400  41.635  19.578  12.098
20801W        W91401   4.109  35.809   2.703
20802W        W91402   9.245  12.861  14.860
20803W        W91403  39.998  37.473  12.478
20804W        W91404  29.413  30.248   2.709
20805W        W91405  25.020  23.361  12.527
20806W        W91406   1.867  42.598  12.466
20807W        W91407   3.824  26.436   3.753
20808W        W91408  24.633   3.273   4.648
20809W        W91409  36.762  12.975   3.259
20810W        W91410  18.729  23.010  10.515
20811W        W91411   7.577   2.421   4.174
20812W        W91412  14.607  10.589   0.503
20813W        W91413  30.226  32.060  13.625
20814W        W91414  15.234  40.943  14.992
20815W        W91415  15.760  25.875   3.179
20816W        W91416  35.679  41.191  11.109
20817W        W91417   7.318  44.222  12.934
20818W        W91418  22.236  17.227  13.818
20819W        W91419  17.119  42.398  12.807
20820W        W91420  11.962   9.478   3.531
20821W        W91421  29.701  17.816  11.242
20822W        W91422  17.323  39.372  14.879
20823W        W91423  22.770  28.170  11.153
20824W        W91424  25.898  15.093   2.295
20825W        W91425  24.637  27.025   1.220
20826W        W91426   6.297  18.273  11.525
20827W        W91427  34.439  41.038   3.202
20828W        W91428   6.322  14.173   0.313
20829W        W91429  41.990  24.943  14.314
20830W        W91430  24.651  22.355   0.219
20831W        W91431  30.834  30.241   4.763
20832W        W91432  39.532  11.889   1.808
20833W        W91433   5.280   6.701   4.683
20834W        W91434  37.527  41.119  14.321
20835W        W91435  32.436  30.457   4.106
20836W        W91436  38.989  27.729  14.917
20837W        W91437   6.499  41.478  10.120
20838W        W91438   9.349  35.084   4.648
20839W        W91439  29.433  26.480   3.822
20840W        W91440  18.061  34.815   0.524
20841W        W91441  26.078  38.307  14.716
20842W        W91442  20.298  13.435  14.951
20843W        W91443   8.249  32.433  14.964
20844W        W91444   3.996  38.088   4.058
20845W        W91445  16.186  12.867   2.200
20846W        W91446  11.295  18.500   4.550
20847W        W91447  39.647  18.417  14.915
20848W        W91448  38.481   5.147  14.295
20849W        W91449  25.761  43.905  11.131
20850W        W91450  20.880  15.343  11.550
20851W        W91451  31.582  41.299  12.175
20852W        W91452   5.262  27.550   4.484
20853W        W91453  19.860  10.235   4.694
20854W        W91454  23.113  16.298   2.451
20855W        W91455  28.595   4.431  14.498
20856W        W91456  13.274  34.060   1.840
20857W        W91457  37.389   9.104   2.853
20858W        W91458  35.595  24.901   4.905
20859W        W91459  42.510  44.487  10.119
20860W        W91460  26.925  26.086  11.186
20861W        W91461  38.284  25.897   4.619
20862W        W91462  43.491  21.625   3.687
20863W        W91463  28.762   4.661  13.644
20864W        W91464  32.612  14.839   4.900
20865W        W91465   2.046  40.007  14.428
20866W        W91466  16.017  38.736  11.148
20867W        W91467  35.566  16.721   0.438
20868W        W91468  38.903  30.139  12.625
20869W        W91469   5.618   4.164   1.608
20870W        W91470  10.202  35.083   0.797
20871W        W91471   0.489   6.290  12.754
20872W        W91472   2.664  37.960  12.554
20873W        W91473   6.815  22.202   4.442
20874W        W91474  33.877  39.295  13.871
20875W        W91475  18.122  42.686  13.352
20876W        W91476   5.326  42.465  14.270
20877W        W91477  14.271   5.581  14.803
20878W        W91478  22.822  22.336  13.548
20879W        W91479  34.348  21.261   0.086
20880W        W91480  31.568  15.188   0.782
20881W        W91481  20.352  23.529   0.404
20882W        W91482  36.815  14.302  11.317
20883W        W91483  40.410   7.738   2.736
20884W        W91484  29.957  16.216   1.552
20885W        W91485  30.638  27.396  11.407
20886W        W91486  10.601  40.790   3.454
20887W        W91487  32.098  20.793   1.678
20888W        W91488  12.465   2.441  12.585
20889W        W91489  27.858   2.997  12.069
20890W        W91490  13.569  27.338   2.427
20891W        W91491  20.230  13.929   2.243
20892W        W91492  18.577  27.352  12.989
20893W        W91493  11.950  18.971  10.875
20894W        W91494  21.224  19.044   2.117
20895W        W91495  10.895  21.319  14.709
20896W        W91496  12.299  27.934   1.866
20897W        W91497  19.229  20.496  14.836
20898W        W91498   0.839   5.785   0.993
20899W        W91499  30.808  32.608   1.787
20900W        W91500  18.855   4.943  10.447
20901W        W91501  43.922  43.498   1.402
20902W        W91502   2.425  24.040   1.411
20903W        W91503  38.792  32.454  12.832
20904W        W91504  42.139  13.510  14.308
20905W        W91505  14.565  12.708   0.926
20906W        W91506   4.267  33.550   3.362
20907W        W91507  16.201   8.347  13.060
20908W        W91508   9.440  10.407  11.507
20909W        W91509   4.445   8.745   2.888
20910W        W91510  22.111  40.237  10.459
20911W        W91511  11.256  17.708   1.382
20912W        W91512  34.050  40.295   0.637
20913W        W91513  10.653  32.155   1.657
20914W        W91514  31.575  11.214   0.139
20915W        W91515  28.975  41.507  11.613
20916W        W91516   8.339   7.991  12.300
20917W        W91517  21.863  24.286   4.293
20918W        W91518  30.510   8.306  14.775
20919W        W91519  22.150  16.573  12.140
20920W        W91520  28.743   9.080   4.475
20921W        W91521  32.600  32.633   2.268
20922W        W91522   2.195   3.194  14.918
20923W        W91523  16.060   4.989   0.313
20924W        W91524  41.709  28.434   2.240
20925W        W91525  44.857  44.062  13.011
20926W        W91526   3.469  31.481  13.090
20927W        W91527   3.206   1.533   4.080
20928W        W91528   3.869  36.593   0.711
20929W        W91529   7.216  38.279   3.901
20930W        W91530  30.983   7.877  13.505
20931W        W91531  18.002   2.760  11.085
20932W        W91532  36.826   4.733  13.992
20933W        W91533  21.535  23.749   1.945
20934W        W91534  17.724  34.015   0.237
20935W        W91535  35.092  23.525  11.488
20936W        W91536   9.186  25.203   0.990
20937W        W91537   0.724  37.564   1.817
20938W        W91538  41.982  43.907   3.971
20939W        W91539   5.977   4.756   2.216
20940W        W91540  28.463  23.126  10.331
20941W        W91541  13.193  21.103  13.340
20942W        W91542  16.201  28.985   2.209
20943W        W91543  15.377  41.305   3.328
20944W        W91544  25.715  38.908   1.186
20945W        W91545  17.166   3.618   4.730
20946W        W91546  41.869  30.670   0.256
20947W        W91547  41.377   8.323   1.339
20948W        W91548  38.365  17.044   3.200
20949W        W91549  26.305  43.874   0.903
20950W        W91550  21.082  18.545   4.919
20951W        W91551  12.442  35.969   0.989
20952W        W91552  40.541  10.427  10.513
20953W        W91553  18.433  27.658   2.638
20954W        W91554   7.597   7.817  13.987
20955W        W91555  40.308  15.345  12.952
20956W        W91556  10.339  36.797   0.311
20957W        W91557   7.771   9.324  14.981
20958W        W91558  11.637  34.592   2.903
20959W        W91559  25.183  19.219  13.125
20960W        W91560  34.089  26.234  14.211
20961W        W91561  26.695  14.102  13.973
20962W        W91562  34.188   3.483  14.455
20963W        W91563  41.938  21.292   0.953
20964W        W91564  24.647  40.014   4.806
20965W        W91565   5.735   2.912  13.832
20966W        W91566  20.806  40.237   4.898
20967W        W91567  24.691  18.595  13.628
20968W        W91568  35.950   1.776   4.597
20969W        W91569  18.827   3.939  11.637
20970W        W91570  27.065  20.652  12.824
20971W        W91571  28.613  43.779   3.749
20972W        W91572  18.273   8.859  12.198
20973W        W91573  23.096  34.520   0.891
20974W        W91574  30.459  25.877   4.522
20975W        W91575  26.990   0.539   2.276
20976W        W91576   2.428  16.709   2.279
20977W        W91577  14.781  18.889  10.282
20978W        W91578  39.371   4.729  13.859
20979W        W91579   4.894  18.499   4.596
20980W        W91580  18.435   1.271  14.496
20981W        W91581  21.208  28.176   3.265
20982W        W91582  15.956   1.924  14.733
20983W        W91583  37.925  27.020   2.972
20984W        W91584  21.191  17.259  14.859
20985W        W91585  14.795  31.357   1.322
20986W        W91586  39.585  20.271   1.072
20987W        W91587   2.769  27.211   1.996
20988W        W91588  25.286   6.809   1.042
20989W        W91589  22.287  29.805  12.418
20990W        W91590  43.986   7.463  13.901
20991W        W91591  28.168  27.862  14.269
20992W        W91592  18.795   9.125  12.267
20993W        W91593  41.342  20.444  11.516
20994W        W91594  20.000  27.074   2.362
20995W        W91595  25.904  26.665   1.280
20996W        W91596   1.462   1.953   4.150
20997W        W91597  27.975  36.283  13.065
20998W        W91598   3.849   5.184   3.011
20999W        W91599  25.768  15.587  12.113
21000W        W91600  32.554  29.956   1.856
21001W        W91601   8.197  12.733   3.183
21002W        W91602  31.087   8.168  12.076
21003W        W91603  32.861  32.468  11.648
21004W        W91604  11.771  22.777   2.409
21005W        W91605  19.030  44.946   0.766
21006W        W91606  13.352  29.636  14.429
21007W        W91607  23.550  12.323   0.923
21008W        W91608  19.064  18.119   3.707
21009W        W91609  14.635  35.836   1.841
21010W        W91610   5.184  41.351  11.390
21011W        W91611   3.370   1.054   3.969
21012W        W91612   3.507  34.901   2.811
21013W        W91613   5.764  36.069   0.414
21014W        W91614   7.428   3.996   4.130
21015W        W91615  24.008  13.120  13.051
21016W        W91616   5.307  15.196   4.303
21017W        W91617   3.592  31.459   2.301
21018W        W91618   7.679  36.522   0.050
21019W        W91619  12.915  12.749  13.986
21020W        W91620   3.676  44.565   2.104
21021W        W91621   5.020  20.348   4.946
21022W        W91622   4.712   3.355  12.359
21023W        W91623  27.190  31.095  13.846
21024W        W91624  28.927  37.120  14.495
21025W        W91625  10.832  40.759  12.495
21026W        W91626  41.400   6.117   0.711
21027W        W91627  25.573  34.941   0.328
21028W        W91628   7.795  11.704   1.176
21029W        W91629   7.893  20.592   1.158
21030W        W91630  19.204  23.252   1.293
21031W        W91631  36.734  42.769   3.177
21032W        W91632  15.023  13.671   4.012
21033W        W91633   6.218  10.691  10.244
21034W        W91634  20.119  43.230   2.712
21035W        W91635  31.302   7.979   3.115
21036W        W91636   6.852   5.906   4.669
21037W        W91637  25.564  29.504  12.172
21038W        W91638  23.599  13.036  12.021
21039W        W91639  17.602   8.683   2.617
21040W        W91640  16.282  19.794  10.717
21041W        W91641  29.581  33.867   2.950
21042W        W91642   2.965  16.682   2.275
21043W        W91643  16.797  21.715   1.487
21044W        W91644  12.794  37.989  13.995
21045W        W91645  10.196  41.020   1.567
21046W        W91646  32.994  36.828  12.599
21047W        W91647  24.622  37.806  13.100
21048W        W91648  41.288  26.657   1.459
21049W        W91649  28.435  27.159   3.706
21050W        W91650  32.834  16.347   1.819
21051W        W91651   2.023  13.666  12.468
21052W        W91652   0.825  32.058  12.971
21053W        W91653  42.024  12.840  13.515
21054W        W91654  43.946  14.821  12.951
21055W        W91655  34.487  17.659   1.884
21056W        W91656  30.458  25.563  12.253
21057W        W91657  26.597   5.748   0.337
21058W        W91658   9.727  22.198   4.006
21059W        W91659  30.579  26.628   0.869
21060W        W91660  34.193  18.053   2.654
21061W        W91661  40.762  32.905   0.457
21062W        W91662  24.678  14.279  13.951
21063W        W91663  30.147  26.747  12.938
21064W        W91664  27.707  24.665  11.692
21065W        W91665  32.484   0.828  13.516
21066W        W91666   4.825   9.382   4.448
21067W        W91667  39.052   8.115  10.282
21068W        W91668   7.278  34.275  11.303
21069W        W91669  35.318  20.305   1.380
21070W        W91670  18.497  18.937   2.682
21071W        W91671  28.433   0.607   9.932
21072W        W91672  13.295  23.470   4.160
21073W        W91673   4.489  19.803  12.540
21074W        W91674  22.129  16.670  11.635
21075W        W91675  40.455  14.770   1.173
21076W        W91676  40.004  37.904  13.499
21077W        W91677  25.642  36.924   2.877
21078W        W91678  30.556  19.560  14.487
21079W        W91679  27.623  35.824   0.765
21080W        W91680  14.798  25.169   2.237
21081W        W91681  42.461  12.471   0.520
21082W        W91682  18.225  23.528  12.060
21083W        W91683   8.174  40.167   4.626
21084W        W91684   5.279  40.605  11.890
21085W        W91685  22.743  44.330  11.164
21086W        W91686  22.994  31.639   0.244
21087W        W91687  41.947  29.978  14.170
21088W        W91688  39.391  29.073  14.191
21089W        W91689   4.846  34.126   3.635
21090W        W91690  36.765  13.555   0.039
21091W        W91691  24.692  15.290   1.802
21092W        W91692   9.708  11.638   0.342
21093W        W91693  32.502  16.526   3.390
21094W        W91694   8.451  26.012  14.879
21095W        W91695  33.530  29.489  13.557
21096W        W91696  38.939   3.412  12.073
21097W        W91697  22.671  44.012   4.119
21098W        W91698   0.016   1.378   1.258
21099W        W91699  15.211  43.393   1.665
21100W        W91700  36.911   2.056   1.328
21101W        W91701  13.764  44.293   1.502
21102W        W91702  29.183  29.535   1.837
21103W        W91703  31.431  23.006   0.806
21104W        W91704  29.680   9.141   0.804
21105W        W91705  31.795   0.433   1.707
21106W        W91706   9.421  32.007   1.218
21107W        W91707  19.174  24.119   1.698
21108W        W91708   3.715  38.471   4.668
21109W        W91709   0.170  15.546  10.431
21110W        W91710  39.759  27.228  13.503
21111W        W91711  36.301  30.210  11.634
21112W        W91712   0.261  18.719   2.910
21113W        W91713  38.358  19.841   5.048
21114W        W91714  31.412  14.783   4.077
21115W        W91715  20.667   6.158   2.344
21116W        W91716   4.203  44.193   2.739
21117W        W91717  21.531  23.493  11.039
21118W        W91718   2.814  20.263  10.560
21119W        W91719  24.950  21.974   4.113
21120W        W91720  14.787   5.281  13.883
21121W        W91721  41.028  21.215   0.212
21122W        W91722  21.806  40.949  12.038
21123W        W91723   2.772  23.403   3.124
21124W        W91724  38.593  41.282   2.396
21125W        W91725  18.525  16.359   2.099
21126W        W91726  19.322  34.131  12.951
21127W        W91727  40.591  32.574   1.374
21128W        W91728  32.910   0.178   4.571
21129W        W91729  24.382   3.196  10.868
21130W        W91730  36.560  42.346  13.597
21131W        W91731  18.064  34.616   3.274
21132W        W91732  25.062   0.487  14.087
21133W        W91733  29.958  31.387  10.697
21134W        W91734  18.181  43.017  14.312
21135W        W91735  17.285   5.734  11.518
21136W        W91736   5.111   9.389   1.963
21137W        W91737  35.066  23.318  10.968
21138W        W91738  27.752   5.221  13.378
21139W        W91739  37.947  16.654   4.562
21140W        W91740  39.425  32.992  12.531
21141W        W91741  43.751  37.140   0.318
21142W        W91742  23.585  33.389   0.371
21143W        W91743  35.918  44.330   4.558
21144W        W91744  37.750   8.421  14.359
21145W        W91745  25.193  25.270  11.989
21146W        W91746   7.156   1.743  12.902
21147W        W91747  37.968  41.877   4.133
21148W        W91748   2.455  16.052   4.546
21149W        W91749  24.113  36.445   3.727
21150W        W91750   2.967   3.932  13.537
21151W        W91751  19.674  43.737   3.522
21152W        W91752  22.483  20.735   2.738
21153W        W91753  22.061  39.360  12.509
21154W        W91754  28.770  18.336  13.839
21155W        W91755  34.892   3.156   4.615
21156W        W91756  35.357   4.743   4.168
21157W        W91757  16.532   3.211  14.277
21158W        W91758  32.592  31.064  12.454
21159W        W91759   0.904  43.826  14.461
21160W        W91760   4.940  44.098  11.335
21161W        W91761  28.893   5.224  12.472
21162W        W91762  42.924  26.313  11.503
21163W        W91763   0.284  41.059  13.456
21164W        W91764  21.058  35.787  14.672
21165W        W91765   0.782  35.044   4.432
21166W        W91766  13.515  30.437   4.264
21167W        W91767  15.162   2.347  12.121
21168W        W91768   3.561  14.385   3.816
21169W        W91769   8.157  31.078  14.272
21170W        W91770  33.346  21.080   3.326
21171W        W91771  17.675  29.968  13.688
21172W        W91772  11.107  29.613  12.893
21173W        W91773   9.775  36.073   3.770
21174W        W91774  28.709  32.754  14.829
21175W        W91775  24.646  13.051  13.834
21176W        W91776   0.943   3.404   1.149
21177W        W91777  30.998   9.604  10.774
21178W        W91778   7.705   3.280   3.698
21179W        W91779  29.739  14.718   3.978
21180W        W91780   7.331   0.671   1.846
21181W        W91781   0.949  20.582   1.793
21182W        W91782  25.213  20.192  14.272
21183W        W91783   3.234  44.880   3.418
21184W        W91784  26.684  26.888   4.622
21185W        W91785   9.785   2.805  14.160
21186W        W91786  36.834  18.659   1.251
21187W        W91787   2.727   2.933  13.819
21188W        W91788  26.262  38.776   4.065
21189W        W91789  33.989  37.364  12.342
21190W        W91790  39.327  26.294   2.738
21191W        W91791  31.364  22.947  14.969
21192W        W91792  17.717  40.364   2.806
21193W        W91793  30.221   3.289  10.429
21194W        W91794  44.929  23.968  11.033
21195W        W91795  11.339  37.928  14.466
21196W        W91796   5.586   4.704  11.237
21197W        W91797  36.493  38.281   4.115
21198W        W91798  37.950  40.763  14.790
21199W        W91799  24.290  10.841   3.553
21200W        W91800  18.715  16.493   1.397
21201W        W91801  19.109   2.704   4.831
21202W        W91802  32.513  34.815  10.669
21203W        W91803  18.333  25.475   2.351
21204W        W91804   2.933   5.210   2.646
21205W        W91805   1.676  20.589  13.284
21206W        W91806  17.035  25.498   5.002
21207W        W91807  27.566   1.951  14.016
21208W        W91808  37.885  20.204  12.587
21209W        W91809  44.718   9.788   1.750
21210W        W91810   5.961   6.537  12.623
21211W        W91811  15.244   8.458   0.309
21212W        W91812  11.014   2.484  14.371
21213W        W91813  25.082  21.123  11.669
21214W        W91814  40.208  26.224   2.435
21215W        W91815   9.946  29.608  10.757
21216W        W91816   5.923   8.210  11.352
21217W        W91817   3.409  34.308  12.299
21218W        W91818   4.408  37.808  13.845
21219W        W91819  28.975  17.346   3.758
21220W        W91820  39.923   1.968  13.073
21221W        W91821   8.783  29.365  11.862
21222W        W91822  31.004  35.987   4.489
21223W        W91823  44.900  24.550   1.838
21224W        W91824  19.513  34.110  14.092
21225W        W91825  44.576  36.290   4.383
21226W        W91826  41.440  44.623   0.594
21227W        W91827   6.860  37.055  10.819
21228W        W91828  26.198  26.420   1.853
21229W        W91829  18.168   1.845   0.968
21230W        W91830   0.802  33.192  13.904
21231W        W91831  30.634  22.970  13.131
21232W        W91832  13.251  15.091   3.640
21233W        W91833   5.990  25.436   2.183
21234W        W91834  43.978  36.755  10.731
21235W        W91835  23.217  15.792  10.497
21236W        W91836  40.715   7.355  11.200
21237W        W91837  24.204   2.731  14.836
21238W        W91838  25.055  21.745  14.286
21239W        W91839  19.439  35.026   0.333
21240W        W91840   8.207  20.279  12.372
21241W        W91841  27.920  17.306  13.825
21242W        W91842   6.056  21.037  14.692
21243W        W91843  34.149  18.718   3.131
21244W        W91844  20.869   7.165   4.571
21245W        W91845  30.722   6.802  13.407
21246W        W91846   6.681  18.595  12.508
21247W        W91847  24.546   0.787  13.924
21248W        W91848  24.040  24.255  10.459
21249W        W91849  22.612   7.183   1.725
21250W        W91850  20.880  14.097  11.580
21251W        W91851   7.376  26.220  14.221
21252W        W91852  20.498   3.839   0.324
21253W        W91853   5.397  37.416  11.285
21254W        W91854  42.697   9.416  12.886
21255W        W91855  18.739  16.322  13.485
21256W        W91856   2.035  20.625  14.781
21257W        W91857  43.227  18.052  12.702
21258W        W91858   1.519  42.344   1.396
21259W        W91859  27.645  36.086   4.131
21260W        W91860  36.062  41.976  12.970
21261W        W91861   0.422  32.672   4.554
21262W        W91862  17.145   4.431   3.236
21263W        W91863  32.219   5.018   0.047
21264W        W91864  27.412  21.546   4.662
21265W        W91865  23.172   1.264   3.236
21266W        W91866  10.235  32.569   1.890
21267W        W91867  44.447  26.719   2.530
21268W        W91868  32.475  19.678  14.378
21269W        W91869  33.678  18.669   0.786
21270W        W91870  26.063  11.298  11.080
21271W        W91871  18.701  31.350  10.760
21272W        W91872  22.284  22.143  12.338
21273W        W91873   1.284  32.955   4.555
21274W        W91874  35.497   1.212  10.709
21275W        W91875  32.036  38.788  10.736
21276W        W91876  30.682  34.828  12.429
21277W        W91877   4.182  37.986  14.284
21278W        W91878  11.717   8.791  12.989
21279W        W91879  18.562  44.010  12.907
21280W        W91880  16.013   6.042  11.503
21281W        W91881  28.133   2.453   2.222
21282W        W91882   9.982  42.461  10.719
21283W        W91883  20.668  29.345  13.065
21284W        W91884  10.677  13.073   3.654
21285W        W91885   8.825  43.747   1.993
21286W        W91886  21.994  36.400   3.509
21287W        W91887  18.778  38.830  14.650
21288W        W91888  36.463  39.434   3.323
21289W        W91889  13.294  36.338   1.849
21290W        W91890  41.703  30.660   4.399
21291W        W91891   1.005   9.379   2.321
21292W        W91892  23.634  22.269  14.244
21293W        W91893  36.439   5.305   4.456
21294W        W91894  44.631  22.991  11.174
21295W        W91895   4.238  26.176  14.026
21296W        W91896  41.113  20.511  13.835
21297W        W91897  20.859   9.037   5.316
21298W        W91898  22.418  40.315   1.338
21299W        W91899   1.667  29.467  13.360
21300W        W91900  11.022  28.975   4.527
21301W        W91901  27.429  22.327   4.244
21302W        W91902   8.883   2.198   3.697
21303W        W91903  28.449  16.820   2.846
21304W        W91904   7.413  16.622   0.245
21305W        W91905  12.162  12.845   3.757
21306W        W91906   3.977  24.481   2.851
21307W        W91907  28.896  28.100   1.295
21308W        W91908  42.625  23.195   4.227
21309W        W91909  12.137   3.367   3.627
21310W        W91910  41.448   0.043  14.268
21311W        W91911  37.406   4.229  11.993
21312W        W91912   8.839  17.265  12.963
21313W        W91913  25.624  35.141   1.630
21314W        W91914  19.529   5.348   2.762
21315W        W91915  22.139  33.863   3.457
21316W        W91916  43.093   7.551   2.329
21317W        W91917  26.018  17.817  12.588
21318W        W91918  19.522  10.176  11.553
21319W        W91919   6.385  41.918   1.385
21320W        W91920  23.863   4.274   4.189
21321W        W91921  16.013  13.185  12.880
21322W        W91922   4.670  42.859  12.560
21323W        W91923   8.940  22.036  14.649
21324W        W91924  34.568  39.511   0.805
21325W        W91925   9.032   0.785  14.909
21326W        W91926  26.038  33.790   3.785
21327W        W91927  18.888  28.058   0.925
21328W        W91928  29.019  14.572   2.916
21329W        W91929  19.020  31.936  12.582
21330W        W91930  17.696  43.913   4.103
21331W        W91931  21.665  27.522  10.733
21332W        W91932  44.792  36.453   3.708
21333W        W91933  12.856   3.904  10.708
21334W        W91934  43.923  24.381   4.079
21335W        W91935  43.394  22.556  11.288
21336W        W91936  13.305  29.130  14.828
21337W        W91937  22.632  33.526   2.910
21338W        W91938  42.250  39.848   3.583
21339W        W91939  32.154  21.246  14.808
21340W        W91940  40.830  24.143   1.254
21341W        W91941  19.267  26.683   1.744
21342W        W91942  16.678  41.371   3.821
21343W        W91943  15.879  44.183  12.703
21344W        W91944  18.268  21.610   3.163
21345W        W91945  36.780  12.692  14.666
21346W        W91946   8.608  39.028  10.489
21347W        W91947  26.722  34.339  11.312
21348W        W91948  21.083  42.790   3.290
21349W        W91949  14.262  17.195   4.080
21350W        W91950  15.803  11.649   4.156
21351W        W91951  36.399  13.616  13.779
21352W        W91952  15.411   4.455   1.578
21353W        W91953  22.345  18.022   0.809
21354W        W91954  39.275  40.970   1.179
21355W        W91955  36.513  28.900   1.453
21356W        W91956  13.823  34.338   1.383
21357W        W91957   8.319  37.984  13.192
21358W        W91958  16.175  17.077   2.398
21359W        W91959  38.643  39.442   0.806
21360W        W91960  12.726  36.739  14.254
21361W        W91961  31.133  36.535  14.446
21362W        W91962  34.957  14.313  10.712
21363W        W91963   5.770  22.251   3.302
21364W        W91964  37.022  19.581   3.768
21365W        W91965  15.549  37.556   1.518
21366W        W91966  14.842  37.834  14.531
21367W        W91967   5.910  21.716  11.018
21368W        W91968   1.482  14.256   3.704
21369W        W91969  14.539  32.854   0.030
21370W        W91970  20.486   0.082  14.557
21371W        W91971  39.274  10.622   0.022
21372W        W91972   8.407  35.273   1.648
21373W        W91973  12.538  11.295   3.738
21374W        W91974  20.662  16.401   0.787
21375W        W91975  15.608  21.729   0.891
21376W        W91976   8.559  10.898  14.370
21377W        W91977   1.454  21.491   1.781
21378W        W91978  13.633   7.191   3.637
21379W        W91979   9.673  11.793  13.547
21380W        W91980  39.151   8.417   1.399
21381W        W91981  43.268  42.960  10.441
21382W        W91982  14.273  29.081  13.748
21383W        W91983  43.831  15.065  11.184
21384W        W91984  32.898   3.695   0.762
21385W        W91985   4.057  42.999   2.268
21386W        W91986  25.978  24.164   2.284
21387W        W91987   3.736  22.529  14.307
21388W        W91988  40.808   6.930   1.527
21389W        W91989  18.681   3.618   0.344
21390W        W91990   5.326  33.844  11.561
21391W        W91991  18.135  19.561  13.915
21392W        W91992  31.156  27.874  10.978
21393W        W91993   2.826  40.060   4.624
21394W        W91994  30.407  32.212   2.892
21395W        W91995  41.233  13.531  11.616
21396W        W91996  32.999  44.976   2.683
21397W        W91997  29.169   2.666  14.529
21398W        W91998  11.816  38.076  10.531
21399W        W91999  32.226  33.430   0.397
21400W        W92000   7.999  30.227  10.327
21401W        W92001  18.210  44.024   3.193
21402W        W92002  13.921  42.915   0.515
21403W        W92003  28.071  32.969   3.685
21404W        W92004  19.052  29.703   3.687
21405W        W92005  41.087  35.840  13.532
21406W        W92006  17.724  35.445  12.177
21407W        W92007  14.198  11.168  14.811
21408W        W92008  37.891  16.578  11.938
21409W        W92009  37.546   7.782  11.740
21410W        W92010  22.031  19.641  12.117
21411W        W92011  27.077   5.804  12.621
21412W        W92012  39.524  18.201   0.847
21413W        W92013  23.299  36.390  14.616
21414W        W92014  41.664  38.924   0.756
21415W        W92015  43.816   8.637  10.498
21416W        W92016   9.448  43.414  11.921
21417W        W92017   1.021  39.622  12.412
21418W        W92018  42.532  44.509   3.847
21419W        W92019  41.115  16.731   1.795
21420W        W92020   3.415   2.858  12.586
21421W        W92021   8.720  44.441   0.554
21422W        W92022   4.230  15.028   0.463
21423W        W92023   6.860  34.016   0.920
21424W        W92024   2.864  11.049  13.839
21425W        W92025   2.520   3.161  11.559
21426W        W92026  10.066  25.907  12.547
21427W        W92027  37.357  32.439   3.164
21428W        W92028  18.244   7.773   0.492
21429W        W92029  41.752  38.575   2.643
21430W        W92030  31.247  12.257  13.945
21431W        W92031   9.414  41.583   0.288
21432W        W92032  21.304   4.538  12.562
21433W        W92033  30.969  22.201   2.559
21434W        W92034   2.317  14.336   0.208
21435W        W92035  20.740  30.489  14.477
21436W        W92036   1.243   2.427  11.549
21437W        W92037  43.100  44.798   3.071
21438W        W92038  21.756  10.768   3.326
21439W        W92039  11.579  42.775  13.968
21440W        W92040   5.700  17.166  11.565
21441W        W92041   6.923   4.324   1.322
21442W        W92042  35.344  31.229   2.195
21443W        W92043  17.460   8.523  14.116
21444W        W92044  15.644   3.870   1.425
21445W        W92045   0.684   8.614   1.786
21446W        W92046  21.771  29.127   1.996
21447W        W92047  34.411  13.133   4.166
21448W        W92048   0.991  34.074   1.861
21449W        W92049  13.825  11.024   1.037
21450W        W92050   2.552  32.955  13.997
21451W        W92051  44.900  12.341  13.579
21452W        W92052  18.217  11.409  12.091
21453W        W92053   0.115  33.651  13.482
21454W        W92054  36.466  44.501  13.610
21455W        W92055  12.316  32.361  14.460
21456W        W92056   9.559  37.946   3.903
21457W        W92057  17.919  32.280  12.574
21458W        W92058   4.327   0.337  12.760
21459W        W92059  26.156  18.314  12.516
21460W        W92060  43.998  32.375  14.439
21461W        W92061   6.317   0.244   4.500
21462W        W92062  25.754  25.215  13.375
21463W        W92063  33.542  29.383   2.870
21464W        W92064  19.064  44.901   3.310
21465W        W92065  23.146  30.228  10.864
21466W        W92066  29.513  31.091   0.809
21467W        W92067   0.408  23.579  11.680
21468W        W92068  12.818  39.511  14.859
21469W        W92069  13.655  33.160  13.580
21470W        W92070  23.583  18.507  14.855
21471W        W92071  26.605  35.564   3.626
21472W        W92072  21.081  43.920   4.674
21473W        W92073  37.413  19.341   0.993
21474W        W92074  11.635  14.699   2.333
21475W        W92075  26.019  39.776  11.103
21476W        W92076  30.635   2.927   0.273
21477W        W92077   4.290  31.348  12.148
21478W        W92078  15.375  25.722   3.512
21479W        W92079  33.410  43.005   3.185
21480W        W92080  19.486   9.197  14.878
21481W        W92081  32.099  12.979  12.401
21482W        W92082  32.206   0.798  11.169
21483W        W92083  31.875   9.818   3.259
21484W        W92084  38.416  16.209   1.438
21485W        W92085  38.943  29.353   5.331
21486W        W92086   7.791  17.948  12.473
21487W        W92087  30.951  14.216  14.462
21488W        W92088  32.817  43.664  14.938
21489W        W92089  12.237  23.431   3.278
21490W        W92090  31.047  38.503   9.844
21491W        W92091  26.392   2.618  13.834
21492W        W92092  14.089  23.248   1.288
21493W        W92093   1.704  21.423  11.098
21494W        W92094  15.293  37.756   0.821
21495W        W92095   5.774  18.361   0.499
21496W        W92096  28.150  13.569  11.964
21497W        W92097  42.497  23.141  10.762
21498W        W92098  35.913   1.575  10.764
21499W        W92099   0.162  39.057   4.416
21500W        W92100  34.824  35.835  12.003
21501W        W92101  23.103  10.289   2.114
21502W        W92102  18.589   9.822   2.392
21503W        W92103  14.336  15.075  14.527
21504W        W92104  20.049  17.244   1.425
21505W        W92105  27.567   0.800   3.293
21506W        W92106  37.361  29.097   3.766
21507W        W92107  41.794   9.155  13.100
21508W        W92108   9.627  37.606  14.838
21509W        W92109  26.998   6.946   1.661
21510W        W92110  37.547  39.410  14.387
21511W        W92111   6.223  22.930  11.078
21512W        W92112  13.925  27.056  11.153
21513W        W92113  22.321  40.322  14.048
21514W        W92114  43.562  40.212   2.325
21515W        W92115  41.420  11.034   2.355
21516W        W92116  30.144  11.645  12.881
21517W        W92117  37.634  28.616  10.550
21518W        W92118  26.071  41.084  12.383
21519W        W92119  40.853  38.437  10.782
21520W        W92120  39.267   9.320  13.306
21521W        W92121  33.648  23.297   3.177
21522W        W92122   2.199  20.110  13.528
21523W        W92123  35.335  31.972   2.724
21524W        W92124  42.518  13.714   4.953
21525W        W92125   1.030   6.416   3.240
21526W        W92126  32.158  38.469   1.392
21527W        W92127  40.961  16.222  12.174
21528W        W92128  34.978   0.392   1.180
21529W        W92129  30.709  41.481  14.883
21530W        W92130  42.239  41.669  14.435
21531W        W92131   5.434  26.300   1.305
21532W        W92132  12.312   3.900  14.991
21533W        W92133  22.247  21.267   3.208
21534W        W92134  18.297  24.878   9.872
21535W        W92135   7.808  42.075  12.491
21536W        W92136  12.461   9.695  12.485
21537W        W92137  13.228   3.790  12.919
21538W        W92138  22.886  23.532   3.398
21539W        W92139  44.902  14.563  12.046
21540W        W92140  11.099  28.133   1.297
21541W        W92141  27.323  17.545  11.630
21542W        W92142  18.499  13.532   0.515
21543W        W92143   0.797  17.103   0.173
21544W        W92144  10.887  19.100   2.418
21545W        W92145   8.203  36.783   3.140
21546W        W92146   9.267  27.955  12.771
21547W        W92147  27.098  16.167   4.730
21548W        W92148  43.953   1.999   1.352
21549W        W92149   6.130   5.697  10.661
21550W        W92150   2.008   8.130  14.202
21551W        W92151  39.992   8.507  14.915
21552W        W92152   3.429   4.433  13.121
21553W        W92153  36.474  26.464  12.460
21554W        W92154  19.495  13.240   1.659
21555W        W92155  35.318  27.442   2.258
21556W        W92156  26.919  33.391   3.316
21557W        W92157  36.925  38.565  12.117
21558W        W92158   9.335  36.589  13.462
21559W        W92159  37.664  26.859   1.678
21560W        W92160  36.203  13.040   0.861
21561W        W92161  15.576  12.579  14.937
21562W        W92162  21.756  19.791   5.025
21563W        W92163  42.863   4.128  13.097
21564W        W92164  42.805  42.346   2.292
21565W        W92165  17.656   7.124  12.376
21566W        W92166  15.559  28.512  13.483
21567W        W92167  36.791  20.779   0.413
21568W        W92168   7.152   2.862   0.922
21569W        W92169  38.819  13.029  11.601
21570W        W92170   5.781  38.083  14.585
21571W        W92171  17.474   3.145   3.998
21572W        W92172  27.235   4.670   0.345
21573W        W92173   2.182  43.909  10.572
21574W        W92174  16.736  41.111   2.090
21575W        W92175  17.374  28.201  13.816
21576W        W92176  43.024  38.526  13.041
21577W        W92177  41.398  42.449  14.432
21578W        W92178  15.912  28.122  14.489
21579W        W92179  19.222  36.409  10.770
21580W        W92180  29.439  32.933   4.173
21581W        W92181   0.450   2.766   1.226
21582W        W92182  19.476  33.458  13.437
21583W        W92183   9.450   4.350  13.028
21584W        W92184  19.164  16.749  14.151
21585W        W92185  19.546  37.081  12.498
21586W        W92186  11.277  32.075  12.633
21587W        W92187  18.148  32.583   3.718
21588W        W92188  13.571   3.267  13.418
21589W        W92189   3.294  17.794   3.184
21590W        W92190  35.893  43.792  11.215
21591W        W92191  34.152   7.221   3.191
21592W        W92192  29.152   8.150   2.484
21593W        W92193  27.656  35.817  13.274
21594W        W92194   3.702  19.165  13.855
21595W        W92195  33.113   6.241   3.846
21596W        W92196  32.565  20.242   1.312
21597W        W92197  26.417  42.650  14.710
21598W        W92198  21.062  22.467  12.234
21599W        W92199   3.486  19.673   3.684
21600W        W92200  35.410   9.378   4.879
21601W        W92201  38.091   5.589   3.791
21602W        W92202  13.387   0.810  10.736
21603W        W92203  41.878  16.676   0.995
21604W        W92204   1.423  35.384   4.537
21605W        W92205   9.584  19.723   3.121
21606W        W92206  19.762  21.441   3.209
21607W        W92207  29.602  40.247  11.658
21608W        W92208  34.883  11.283  10.405
21609W        W92209  35.042   5.333   2.628
21610W        W92210  26.000  36.099   1.226
21611W        W92211  44.744  32.419  13.882
21612W        W92212  25.615   3.738   2.360
21613W        W92213   0.442   8.922  12.496
21614W        W92214   3.499   0.250   3.170
21615W        W92215  24.279  23.806   0.436
21616W        W92216  39.325  38.786  11.062
21617W        W92217  24.269  32.133   0.999
21618W        W92218  32.680  42.854  12.012
21619W        W92219  23.874  17.597  11.201
21620W        W92220  12.115  20.245  13.128
21621W        W92221   2.804   5.666   4.209
21622W        W92222  18.574  29.075  11.858
21623W        W92223  22.520  34.488  13.037
21624W        W92224  26.929  16.375   3.355
21625W        W92225  16.172   5.399   4.313
21626W        W92226   7.729   0.806   0.046
21627W        W92227  33.915   3.282   2.099
21628W        W92228   8.261  30.203   3.256
21629W        W92229  26.047  13.873  14.352
21630W        W92230   4.191  11.986  10.350
21631W        W92231   0.098   4.307   1.196
21632W        W92232  26.411  31.649   3.143
21633W        W92233  41.795  44.379   1.245
21634W        W92234   5.586   5.791   0.037
21635W        W92235  39.382   9.686   2.462
21636W        W92236   4.118  22.895  12.422
21637W        W92237   0.066  21.716  10.673
21638W        W92238  12.370   9.684  13.772
21639W        W92239  24.906  28.153   3.808
21640W        W92240  27.072  30.429   2.982
21641W        W92241  38.336  26.686   0.329
21642W        W92242   8.865   2.901   0.035
21643W        W92243  18.851  18.558   2.820
21644W        W92244   2.393  43.468  12.114
21645W        W92245   1.347  37.325  11.447
21646W        W92246  30.564   9.734  13.282
21647W        W92247  35.416  27.098  14.493
21648W        W92248  10.201  27.980   1.374
21649W        W92249  21.513  33.985   0.253
21650W        W92250   0.192   7.908   0.526
21651W        W92251  40.018  10.714   1.902
21652W        W92252  42.882   4.187  14.024
21653W        W92253  41.760   6.723   4.619
21654W        W92254  12.694  30.970  13.855
21655W        W92255  36.502  14.763   3.080
21656W        W92256  16.219  16.651   2.115
21657W        W92257  25.294  32.142  12.452
21658W        W92258  22.017  13.702  12.840
21659W        W92259  12.900  31.132   4.448
21660W        W92260  38.496  43.998   0.642
21661W        W92261  43.299   7.178   1.543
21662W        W92262  18.599  39.473  10.653
21663W        W92263   4.335   4.944   0.885
21664W        W92264  37.306  35.995   3.687
21665W        W92265  26.672  34.398   0.809
21666W        W92266   2.295  23.592   0.474
21667W        W92267  36.082  15.745   5.006
21668W        W92268   5.946  39.255   2.130
21669W        W92269  31.638  32.298   4.520
21670W        W92270  39.920  17.080  11.595
21671W        W92271  41.853   9.170  12.583
21672W        W92272  43.952  42.631   0.286
21673W        W92273  37.949  24.238   3.689
21674W        W92274   2.409  30.202   1.362
21675W        W92275  43.341   1.501  10.727
21676W        W92276  22.746  37.810  11.456
21677W        W92277   2.639  25.125  13.959
21678W        W92278   1.984  44.362   1.841
21679W        W92279  21.474  30.322   0.728
21680W        W92280  31.953  38.319   4.130
21681W        W92281  18.817  17.135   9.840
21682W        W92282  44.193   9.490  13.024
21683W        W92283  33.437  30.098  12.797
21684W        W92284  28.405  40.998   4.131
21685W        W92285   0.476  15.399  12.906
21686W        W92286   9.359  25.170   4.549
21687W        W92287  43.047  13.648   3.145
21688W        W92288  35.903  43.515   1.678
21689W        W92289  33.349  13.652  13.988
21690W        W92290  39.459  37.814   3.587
21691W        W92291  42.552   8.353   0.376
21692W        W92292  21.982  21.242   3.701
21693W        W92293   3.686   4.145   3.553
21694W        W92294  28.248  26.495   2.577
21695W        W92295  14.191  43.281   2.232
21696W        W92296  12.599  38.501   0.665
21697W        W92297   4.008  26.434  13.582
21698W        W92298  33.899  30.021   1.275
21699W        W92299  40.922  39.572   3.147
21700W        W92300  22.503  31.938   4.235
21701W        W92301  13.937  27.129  11.998
21702W        W92302  27.217  17.049   2.870
21703W        W92303  29.619  22.342   4.297
21704W        W92304  17.436   5.936  13.937
21705W        W92305   5.367  44.780  10.338
21706W        W92306   6.484  31.042  13.500
21707W        W92307  34.031  43.496  13.973
21708W        W92308  14.324   1.994   1.275
21709W        W92309  36.932  43.764   1.852
21710W        W92310  35.869   6.146   3.165
21711W        W92311  35.884  27.956  14.784
21712W        W92312   4.702  24.251  11.997
21713W        W92313  35.881  42.398  10.652
21714W        W92314  42.030  33.461   0.490
21715W        W92315   5.917  32.358   3.165
21716W        W92316   5.807  23.263  12.971
21717W        W92317  30.059  40.932  12.095
21718W        W92318   1.818  42.328   1.817
21719W        W92319  31.192  15.745   1.487
21720W        W92320  22.555  18.385  11.988
21721W        W92321  41.962  37.625  13.032
21722W        W92322  16.152  26.947  12.542
21723W        W92323  31.671   7.263  14.031
21724W        W92324  24.738  12.255   2.780
21725W        W92325  28.030   5.000   4.295
21726W        W92326  32.261  22.269  14.914
21727W        W92327  10.704  27.800   1.351
21728W        W92328   0.515  28.227   0.579
21729W        W92329  43.626  19.578  10.013
21730W        W92330  35.061   8.993  12.769
21731W        W92331   6.821   1.186   0.282
21732W        W92332  32.246   8.956  14.951
21733W        W92333  29.294  28.236  10.335
21734W        W92334   7.498  38.015   1.512
21735W        W92335  26.206  30.472   2.832
21736W        W92336  30.888  14.108  11.598
21737W        W92337  28.710   2.801  14.276
21738W        W92338  28.443  23.976   2.136
21739W        W92339  11.179  38.038   3.227
21740W        W92340  10.033  33.648  12.503
21741W        W92341  13.385  12.230  13.279
21742W        W92342  31.038  25.716   0.559
21743W        W92343  12.278   9.708   0.244
21744W        W92344  19.486  21.617   0.953
21745W        W92345  39.773  34.980  14.847
21746W        W92346  44.509  42.779   1.853
21747W        W92347  35.877  18.048   2.817
21748W        W92348  44.403  40.593   3.293
21749W        W92349   8.777  27.201  12.204
21750W        W92350  29.389  13.741  13.419
21751W        W92351  13.299  29.609  10.768
21752W        W92352  28.128   6.421  14.817
21753W        W92353  25.976  15.209  14.381
21754W        W92354  25.719  37.820  12.036
21755W        W92355   1.982  10.742   4.174
21756W        W92356  12.155  12.882   4.511
21757W        W92357   0.084  22.063   3.652
21758W        W92358   7.178   3.975  10.767
21759W        W92359   1.732  40.507   1.289
21760W        W92360   6.863  30.420  10.585
21761W        W92361   9.889  25.389  12.405
21762W        W92362  22.812  18.449  11.046
21763W        W92363  39.825  30.026   0.843
21764W        W92364  13.843  23.435   0.760
21765W        W92365  42.926  43.971  12.969
21766W        W92366  31.867  27.683   2.250
21767W        W92367   0.910  10.584  14.902
21768W        W92368  18.697  21.918   3.146
21769W        W92369  16.192  12.512  11.119
21770W        W92370  10.416  31.377   2.501
21771W        W92371  23.076  16.839  12.092
21772W        W92372  32.669  16.920  11.148
21773W        W92373  10.852  24.570  13.490
21774W        W92374  17.618  35.167  10.844
21775W        W92375   7.380   7.765   0.432
21776W        W92376   0.499  15.866  10.694
21777W        W92377  32.975   3.398  12.427
21778W        W92378   3.333  32.188   1.907
21779W        W92379  40.892  29.263  12.582
21780W        W92380  11.226  24.449   2.201
21781W        W92381   4.922   8.555  12.586
21782W        W92382   0.989  22.973   2.768
21783W        W92383  40.929  14.530  12.254
21784W        W92384  33.962  39.966  10.558
21785W        W92385   9.718  23.651   2.481
21786W        W92386  39.740  13.585   1.823
21787W        W92387  27.649  38.535  14.278
21788W        W92388   2.728  18.856  12.132
21789W        W92389  23.151  37.260   4.303
21790W        W92390  15.631  32.567  14.505
21791W        W92391  12.797   1.542  11.134
21792W        W92392  31.106   4.441   1.883
21793W        W92393  10.414  42.469  11.503
21794W        W92394  38.019   1.740   2.660
21795W        W92395  41.863  12.705  12.183
21796W        W92396  11.787  23.098  14.094
21797W        W92397  16.662  12.850  14.835
21798W        W92398  33.108  33.685  12.377
21799W        W92399   8.132   2.952   3.858
21800W        W92400  15.260  36.821   4.343
21801W        W92401  44.187  10.374  13.338
21802W        W92402  23.218  22.536   0.292
21803W        W92403  22.806  29.972  13.127
21804W        W92404  32.946  19.167  12.140
21805W        W92405  26.072  41.014   1.780
21806W        W92406  39.510  26.895   3.317
21807W        W92407  33.873  15.346   0.459
21808W        W92408  29.034  44.088  10.754
21809W        W92409   2.690  21.314   2.729
21810W        W92410  41.962  29.601  12.665
21811W        W92411  26.445   1.236  13.348
21812W        W92412  32.481  43.946   4.556
21813W        W92413   8.242   6.941   2.938
21814W        W92414   9.951  25.047   3.558
21815W        W92415  20.499  15.764  11.539
21816W        W92416   9.910   0.971  13.102
21817W        W92417   9.124  21.548   3.114
21818W        W92418  22.321  23.964  11.088
21819W        W92419   5.177  37.169   3.812
21820W        W92420   1.096  26.158  12.995
21821W        W92421  19.701  23.818  14.007
21822W        W92422  20.108  33.787   3.532
21823W        W92423  36.587  24.572   3.415
21824W        W92424   4.269  18.274  13.969
21825W        W92425  43.818  11.320  11.984
21826W        W92426  16.217   7.180  10.846
21827W        W92427  38.893  36.843   1.368
21828W        W92428  32.681  37.487   1.351
21829W        W92429  12.846   5.359  11.615
21830W        W92430   7.122   0.668   5.286
21831W        W92431  21.190  27.144   1.826
21832W        W92432  17.480  25.078  13.481
21833W        W92433  27.553  39.241   2.767
21834W        W92434   7.837  34.172  14.843
21835W        W92435  16.732  27.193   2.001
21836W        W92436  16.574   7.859  11.161
21837W        W92437   9.181   0.259  13.066
21838W        W92438  32.148  41.164  12.472
21839W        W92439  17.534  25.416  11.509
21840W        W92440  19.054  21.633  12.339
21841W        W92441  22.311  41.408   2.866
21842W        W92442  36.088   0.629   2.808
21843W        W92443  27.102   0.176   3.625
21844W        W92444   6.415  44.897  11.657
21845W        W92445   3.775  34.275  14.544
21846W        W92446  36.477  33.674  11.599
21847W        W92447  29.582  25.383   2.176
21848W        W92448  42.336  39.529  10.562
21849W        W92449  19.074  14.991  14.894
21850W        W92450  35.508  35.113  11.077
21851W        W92451  31.486  32.387   0.743
21852W        W92452  24.444  14.723  13.503
21853W        W92453   8.831  18.162   0.426
21854W        W92454  16.689  12.169   1.366
21855W        W92455   4.977   4.920  12.851
21856W        W92456  29.631  18.801  13.968
21857W        W92457  26.758  12.253   0.365
21858W        W92458  21.209  32.501   2.456
21859W        W92459  13.893  37.283  13.101
21860W        W92460  28.542  44.896   2.937
21861W        W92461  39.506  27.206  12.937
21862W        W92462  20.579  31.217   1.173
21863W        W92463  34.398  29.541   1.929
21864W        W92464  15.172  42.490   2.667
21865W        W92465  20.717  12.425  10.516
21866W        W92466  31.562  26.276   0.547
21867W        W92467   4.551  32.173   4.196
21868W        W92468   8.144  18.519   2.317
21869W        W92469  35.998  43.676  13.502
21870W        W92470  25.473  44.201  12.974
21871W        W92471  27.256  44.909  11.021
21872W        W92472   1.126  26.226   0.403
21873W        W92473  12.656   6.730   3.276
21874W        W92474   0.755  43.783   1.811
21875W        W92475   6.873  15.645   1.264
21876W        W92476  27.636   6.916   3.655
21877W        W92477  14.024  34.104   3.192
21878W        W92478  17.680  23.799   2.088
21879W        W92479  33.582  36.915   4.151
21880W        W92480  21.532  23.119  13.217
21881W        W92481  30.478  37.573  14.471
21882W        W92482  29.183  21.217  11.111
21883W        W92483  20.225   6.144   5.182
21884W        W92484  13.653  20.583  11.006
21885W        W92485  35.201  13.329   0.869
21886W        W92486  30.508   0.891  13.843
21887W        W92487  33.583  35.396  11.512
21888W        W92488  12.754  11.003  13.992
21889W        W92489  42.496  41.220  14.483
21890W        W92490  11.878   5.272  14.482
21891W        W92491  43.672  30.972   1.821
21892W        W92492  35.922  41.987  10.970
21893W        W92493  16.714  36.200   4.572
21894W        W92494   8.419  43.450  11.103
21895W        W92495  31.648  21.712   0.121
21896W        W92496  44.197  28.325  14.417
21897W        W92497  12.319  16.653  13.972
21898W        W92498   7.988   7.341  12.586
21899W        W92499  36.580   6.233   1.849
21900W        W92500  13.777  10.219   0.130
21901W        W92501  13.081  17.071  14.705
21902W        W92502  11.756   4.739  14.530
21903W        W92503  16.285  10.359   0.008
21904W        W92504   9.677   3.005  14.603
21905W        W92505  26.547  16.784   0.668
21906W        W92506  31.248  14.875   1.783
21907W        W92507   6.897  42.052   4.631
21908W        W92508  22.246  34.054  10.760
21909W        W92509  14.165  32.533  10.659
21910W        W92510  42.296  15.719   1.842
21911W        W92511  39.360   2.413  13.430
21912W        W92512   9.281   5.434   3.687
21913W        W92513  23.949  30.569   0.866
21914W        W92514  21.105  26.765  13.604
21915W        W92515  31.887  34.709  10.010
21916W        W92516   4.376  42.822  14.288
21917W        W92517   2.868  11.316   0.930
21918W        W92518  10.674  12.155  12.656
21919W        W92519   8.682  33.166  10.416
21920W        W92520  17.769  10.553  10.064
21921W        W92521   0.904  37.936   0.630
21922W        W92522  44.914  31.409  12.893
21923W        W92523  38.467  23.047  12.866
21924W        W92524  28.328  18.946  14.477
21925W        W92525  28.205  19.808  12.882
21926W        W92526   5.576  10.244  12.066
21927W        W92527   5.761  19.036  12.957
21928W        W92528  27.676  30.996   2.334
21929W        W92529  40.805  21.699  14.332
21930W        W92530  38.003  29.501   4.104
21931W        W92531  39.350  29.362  11.384
21932W        W92532  36.871   0.348   3.065
21933W        W92533   2.518  27.729  14.016
21934W        W92534   8.838   9.881  13.249
21935W        W92535  29.006  36.591  12.212
21936W        W92536  38.966  24.647  14.504
21937W        W92537  39.316  35.686  11.656
21938W        W92538  14.554  18.069   2.747
21939W        W92539   8.933  25.765  14.831
21940W        W92540   5.548   8.146  13.114
21941W        W92541  44.766  33.506  14.770
21942W        W92542  39.340  15.140  10.945
21943W        W92543  43.627  35.346   2.728
21944W        W92544  36.048  19.167   2.167
21945W        W92545  19.011  11.881  11.931
21946W        W92546  30.393  28.121  13.065
21947W        W92547  24.159  18.060   2.022
21948W        W92548  29.067  20.167   2.354
21949W        W92549  24.047  37.707  10.868
21950W        W92550  19.419   6.578  11.202
21951W        W92551  44.426  35.366  14.918
21952W        W92552  42.298  22.388   3.183
21953W        W92553  10.406   1.155  10.688
21954W        W92554   9.100   0.674   4.079
21955W        W92555  31.974   3.350  11.023
21956W        W92556  40.566  30.582   2.204
21957W        W92557   7.422  34.426  10.794
21958W        W92558   2.886  24.596   0.986
21959W        W92559   2.838  42.077  11.886
21960W        W92560  35.311  15.909  11.587
21961W        W92561  36.191  22.232   4.261
21962W        W92562  43.728  34.905  10.729
21963W        W92563  32.867  22.369   0.781
21964W        W92564  25.184   9.022   5.057
21965W        W92565  27.463  30.603  11.231
21966W        W92566   8.202   9.602  14.012
21967W        W92567  34.066  17.015  14.415
21968W        W92568  30.412  11.430   1.404
21969W        W92569  24.250  33.025   0.839
21970W        W92570  33.002  10.591  12.466
21971W        W92571   5.896  38.977  10.725
21972W        W92572   2.076  40.534  12.395
21973W        W92573  17.594  32.104  14.883
21974W        W92574   2.998  33.375  14.499
21975W        W92575  12.663  35.940  13.734
21976W        W92576  20.917  12.845  13.585
21977W        W92577  40.890   2.020   1.413
21978W        W92578  33.490  24.361   1.329
21979W        W92579  32.713  15.660   3.022
21980W        W92580  18.106  13.807  12.830
21981W        W92581  29.441   4.727   0.698
21982W        W92582  37.802  30.624   1.114
21983W        W92583  16.683  19.802   0.398
21984W        W92584   2.293  37.664  14.403
21985W        W92585  29.999  32.553  11.807
21986W        W92586  29.040  15.163   0.371
21987W        W92587   6.923   8.938   4.228
21988W        W92588   9.606  44.763   4.390
21989W        W92589  21.336  35.534  11.050
21990W        W92590   6.128  26.597  12.510
21991W        W92591   7.340  23.903   0.378
21992W        W92592  34.148  22.324   4.866
21993W        W92593   0.891  34.568  14.084
21994W        W92594  31.447  22.969  11.657
21995W        W92595  33.574  28.538  11.962
21996W        W92596  22.642  42.223   4.864
21997W        W92597  28.785  11.275   3.172
21998W        W92598  36.626  37.367   4.200
21999W        W92599   3.248  13.667   1.902
22000W        W92600  23.104  11.888  14.279
22001W        W92601  18.809  32.420  10.365
22002W        W92602  38.993  16.677   0.935
22003W        W92603  22.764  15.531   1.826
22004W        W92604  31.428  44.026  10.686
22005W        W92605  30.003  20.991  12.207
22006W        W92606  27.216   0.551  14.537
22007W        W92607  44.365  33.455   1.266
22008W        W92608  17.026  27.162   0.359
22009W        W92609  25.537  31.928  11.543
22010W        W92610  32.993  19.933   1.036
22011W        W92611  21.017  31.417  12.523
22012W        W92612  43.706  29.150   3.719
22013W        W92613  20.320  40.909   2.105
22014W        W92614  30.895   1.771  11.301
22015W        W92615  27.868  26.916  11.586
22016W        W92616  22.189  36.125   2.224
22017W        W92617  35.969  12.921   3.908
22018W        W92618  35.712  18.309   3.323
22019W        W92619  43.510  43.146   2.248
22020W        W92620  42.409  25.988   3.216
22021W        W92621  11.033  34.323   3.756
22022W        W92622  22.857   1.703  13.925
22023W        W92623   3.285  15.059  11.057
22024W        W92624  40.363  26.593   1.725
22025W        W92625  11.431  35.824   3.877
22026W        W92626  39.896  24.030  11.039
22027W        W92627  10.295  17.518  11.075
22028W        W92628   1.034  16.654  12.990
22029W        W92629  43.797  22.178   0.142
22030W        W92630  28.421  22.678   1.405
22031W        W92631  16.968  24.883   1.764
22032W        W92632  32.944   2.881  14.697
22033W        W92633  29.438   0.347   0.873
22034W        W92634   3.660   7.894   2.670
22035W        W92635  40.862  18.583  11.669
22036W        W92636  34.118  44.457   1.954
22037W        W92637  23.682   1.410   0.968
22038W        W92638   5.705  33.926  13.995
22039W        W92639  43.033   6.502   3.809
22040W        W92640   8.567   2.840   4.124
22041W        W92641  17.255  10.896  10.433
22042W        W92642  28.037   7.920  11.967
22043W        W92643  33.351  37.878  11.217
22044W        W92644   8.520  16.000   5.069
22045W        W92645  30.116  10.491  13.458
22046W        W92646  31.892   5.666  11.055
22047W        W92647  42.427   9.258  12.462
22048W        W92648  16.223  30.065   2.935
22049W        W92649  35.425  32.459   3.358
22050W        W92650  32.950  30.135   0.919
22051W        W92651  11.607  36.356  11.209
22052W        W92652  30.398  43.243   3.392
22053W        W92653   0.479  13.271  14.780
22054W        W92654  20.240  37.398  10.333
22055W        W92655  31.948   6.789  12.402
22056W        W92656  27.453  34.742   0.540
22057W        W92657  17.821   7.612   1.343
22058W        W92658  33.495   6.988  13.329
22059W        W92659  42.676  14.047  14.388
22060W        W92660  29.244  24.717   4.185
22061W        W92661  40.815  19.065  12.882
22062W        W92662  21.252  19.445  10.630
22063W        W92663  43.552  20.917  11.983
22064W        W92664  13.064  23.618  12.539
22065W        W92665  38.050   2.048  12.362
22066W        W92666   5.403  16.434   4.225
22067W        W92667  30.567  15.817  13.380
22068W        W92668   4.939  18.241   3.096
22069W        W92669   7.314   4.822  10.639
22070W        W92670  22.278  11.229  12.867
22071W        W92671  25.895   6.856  13.521
22072W        W92672  33.684  40.038  12.185
22073W        W92673  34.900  19.200  13.505
22074W        W92674  41.034  37.450   0.003
22075W        W92675   0.808   4.320  13.056
22076W        W92676  15.631  14.566   4.084
22077W        W92677   5.405  28.230  11.126
22078W        W92678  31.400  33.278   2.206
22079W        W92679  37.983  34.289   1.827
22080W        W92680  28.112  13.622   3.051
22081W        W92681  15.404  38.787   2.223
22082W        W92682   5.192  36.847   2.498
22083W        W92683  19.570  35.182  12.564
22084W        W92684  35.053   3.166   0.335
22085W        W92685   0.658  19.864   0.028
22086W        W92686  17.249  11.781   4.080
22087W        W92687   7.293  32.432   2.461
22088W        W92688  42.167  18.302  14.406
22089W        W92689  44.469  14.822  12.955
22090W        W92690  19.241  28.521   9.896
22091W        W92691  12.721   3.294   2.868
22092W        W92692  13.281  33.620   0.150
22093W        W92693  11.799  24.320  13.225
22094W        W92694  10.070  12.124  11.048
22095W        W92695  39.485  29.641   1.696
22096W        W92696  20.649  36.333  11.154
22097W        W92697  24.469  15.526   3.764
22098W        W92698  18.049  38.903  11.112
22099W        W92699   3.653   3.409  10.879
22100W        W92700  16.919  26.403  13.800
22101W        W92701  31.665   6.301  12.090
22102W        W92702  33.647  23.796  12.938
22103W        W92703  14.358  23.953   1.870
22104W        W92704  34.112   5.307  12.134
22105W        W92705  36.416  33.203  12.022
22106W        W92706   2.896  30.120   4.807
22107W        W92707  37.891  10.203  14.762
22108W        W92708  18.771  15.882  14.774
22109W        W92709  43.249   8.277  14.476
22110W        W92710  18.065  42.567  12.833
22111W        W92711   7.829  23.129  13.275
22112W        W92712   1.240  42.948   4.349
22113W        W92713  36.046  42.069   2.170
22114W        W92714   1.256  29.102  12.184
22115W        W92715   8.406  36.375   2.904
22116W        W92716  24.098  24.710   3.130
22117W        W92717  38.810  18.549  11.618
22118W        W92718  32.648  24.705  13.791
22119W        W92719  18.622  11.100  13.506
22120W        W92720   6.892   9.711  11.128
22121W        W92721  44.303  34.879  14.744
22122W        W92722   7.830  31.805  13.857
22123W        W92723  35.580  34.628   1.668
22124W        W92724  35.737  41.647   2.789
22125W        W92725  27.973   4.671   4.697
22126W        W92726   1.018  32.174   3.672
22127W        W92727  37.651   7.938  14.485
22128W        W92728   7.490  26.607  11.225
22129W        W92729  36.521  22.471  11.153
22130W        W92730  22.529  13.568  14.742
22131W        W92731  31.915   2.913   0.919
22132W        W92732  26.092   6.901   4.567
22133W        W92733  10.497  17.474   2.412
22134W        W92734  26.879  19.398   2.693
22135W        W92735   6.150  15.723  14.908
22136W        W92736  29.071  28.878  14.721
22137W        W92737  28.671  43.242   4.835
22138W        W92738  44.781  42.023  13.480
22139W        W92739   2.359  23.428  12.583
22140W        W92740  30.083  44.883   0.057
22141W        W92741  18.694  38.502   1.735
22142W        W92742   6.708  25.241   1.328
22143W        W92743  23.727   5.935  13.057
22144W        W92744  42.135  16.240  14.231
22145W        W92745  33.974  15.679  14.993
22146W        W92746  20.068   8.298   1.021
22147W        W92747   0.909  33.482  13.093
22148W        W92748  36.787  31.343   2.304
22149W        W92749  36.348  25.692  11.144
22150W        W92750   0.197  17.888  11.590
22151W        W92751  19.547  22.069  13.289
22152W        W92752  23.565  12.335   0.031
22153W        W92753  30.876  41.843  11.556
22154W        W92754  37.595   2.677   2.666
22155W        W92755   3.449  19.288   4.703
22156W        W92756   6.049   5.308   2.270
22157W        W92757  17.687  32.406  14.254
22158W        W92758   2.260  13.797   0.923
22159W        W92759  41.847  44.343   3.224
22160W        W92760   0.155  19.869  13.971
22161W        W92761  43.749  14.048   4.677
22162W        W92762   5.933  42.180   1.476
22163W        W92763  12.170  14.874   0.838
22164W        W92764  35.396   6.809   2.069
22165W        W92765  36.712  17.038   3.826
22166W        W92766  42.928  22.738  12.545
22167W        W92767   7.722  39.455  13.610
22168W        W92768  40.469  19.185   0.835
22169W        W92769  31.968  17.065   2.791
22170W        W92770  14.705  37.844   1.868
22171W        W92771  33.079  14.092  13.872
22172W        W92772  18.221  39.307  14.613
22173W        W92773   2.916   2.991  10.672
22174W        W92774   9.854  27.085   0.232
22175W        W92775  14.133  12.888  10.629
22176W        W92776  18.157  15.787   4.633
22177W        W92777  32.999  12.107  13.904
22178W        W92778  24.654   7.823   4.505
22179W        W92779  16.524   4.208  14.907
22180W        W92780  39.617  38.539   2.388
22181W        W92781  24.523  34.536   2.921
22182W        W92782  42.286  24.681   2.301
22183W        W92783  43.942  42.883   2.157
22184W        W92784  36.388  18.134   2.723
22185W        W92785  38.295  39.478  13.993
22186W        W92786  10.264  39.866   0.652
22187W        W92787  23.614  28.576   4.197
22188W        W92788   8.677  39.884   3.132
22189W        W92789  24.849  15.677  11.021
22190W        W92790  33.527  16.131   0.774
22191W        W92791  20.113  34.047  11.372
22192W        W92792   1.751  16.658   0.721
22193W        W92793  38.277  14.556  10.312
22194W        W92794  39.463  32.848  13.971
22195W        W92795  39.935  33.034  14.061
22196W        W92796  15.276   6.720  11.733
22197W        W92797  34.397  12.048  11.996
22198W        W92798  22.343  20.046  14.450
22199W        W92799  25.965   7.742  11.130
22200W        W92800   4.735  27.753  13.533
22201W        W92801  39.102  16.536   4.504
22202W        W92802  32.631  33.779  12.179
22203W        W92803  11.801  15.438  12.976
22204W        W92804  38.532  24.524   0.984
22205W        W92805  35.523  27.095  12.987
22206W        W92806  27.381  36.421  12.476
22207W        W92807  20.119  12.194  14.922
22208W        W92808  34.404  34.511   0.989
22209W        W92809  23.760  11.448   2.235
22210W        W92810   4.900  14.835  12.399
22211W        W92811  36.831  20.832  11.290
22212W        W92812  24.073   3.546  10.612
22213W        W92813   9.626  18.266   2.226
22214W        W92814  42.887   4.426  13.560
22215W        W92815   7.933  41.972   4.556
22216W        W92816  44.409   2.365  10.362
22217W        W92817   0.733   8.348   4.379
22218W        W92818  33.206  21.356   5.068
22219W        W92819   3.922  44.747  14.316
22220W        W92820  23.544  26.523  11.585
22221W        W92821  11.097  26.317  11.198
22222W        W92822  36.446  23.998  12.101
22223W        W92823   9.086  15.939   0.232
22224W        W92824   5.397  13.612  13.616
22225W        W92825  16.693  28.691  13.352
22226W        W92826   9.155  12.659   3.580
22227W        W92827   8.441   5.061   2.427
22228W        W92828  28.186  15.504  12.977
22229W        W92829  17.361  35.590  13.936
22230W        W92830  37.383  41.373   3.171
22231W        W92831  40.826  43.368  11.696
22232W        W92832   3.738  33.840  14.997
22233W        W92833  15.326  38.154  10.642
22234W        W92834   6.914   9.885  13.344
22235W        W92835  20.415   7.631  11.124
22236W        W92836  15.777   8.741  11.132
22237W        W92837  18.567  15.407  14.879
22238W        W92838  34.969  25.588   2.990
22239W        W92839  10.732  20.471  11.948
22240W        W92840  37.944  44.548  11.558
22241W        W92841  25.836  11.658  10.769
22242W        W92842  25.672   8.327   0.933
22243W        W92843  37.655   1.337  12.856
22244W        W92844  30.005  23.089  12.546
22245W        W92845   4.008  40.521   4.105
22246W        W92846  39.823  18.125  14.113
22247W        W92847  41.043  35.136   2.454
22248W        W92848  28.204  23.791   3.540
22249W        W92849  10.810  35.524   3.251
22250W        W92850  44.649  31.833   2.392
22251W        W92851  19.121  38.443  10.827
22252W        W92852  39.288  44.997   4.072
22253W        W92853  40.528  44.916   1.439
22254W        W92854  26.634  21.283   1.799
22255W        W92855  13.898  31.510   3.565
22256W        W92856  30.142  42.226   0.961
22257W        W92857  36.545  42.999  12.461
22258W        W92858  20.573  43.960  12.246
22259W        W92859  30.834  44.711  14.447
22260W        W92860  30.549  37.021   4.624
22261W        W92861   0.519  34.934  13.355
22262W        W92862   4.685  23.692   0.920
22263W        W92863   3.698  29.852   1.318
22264W        W92864   2.303  40.422  14.557
22265W        W92865  44.210  18.764   0.859
22266W        W92866  12.345  14.127  11.219
22267W        W92867  24.734  32.848  11.987
22268W        W92868  34.395   4.398  13.488
22269W        W92869  27.508  26.020   2.683
22270W        W92870  18.469  37.957   2.433
22271W        W92871  24.619  36.924  11.529
22272W        W92872  39.951   6.013   4.456
22273W        W92873  40.335  27.636  14.700
22274W        W92874  34.078   4.308  14.493
22275W        W92875  14.804  16.772   4.608
22276W        W92876  26.736  15.728   2.417
22277W        W92877  32.441   0.798   2.810
22278W        W92878  28.615  22.996   3.435
22279W        W92879   0.866   6.121   0.135
22280W        W92880   9.799   6.540   1.220
22281W        W92881  31.081   8.892   4.639
22282W        W92882  40.405  21.819  14.682
22283W        W92883  18.680   5.254  14.211
22284W        W92884  23.213  34.802   2.694
22285W        W92885  27.954  12.040   2.338
22286W        W92886  31.572  42.908   0.507
22287W        W92887  41.993   8.957  14.911
22288W        W92888  40.803  30.600  14.384
22289W        W92889  20.881  24.859  11.137
22290W        W92890  21.614  27.243  14.123
22291W        W92891  21.099   4.745   3.804
22292W        W92892   9.387  16.083   2.781
22293W        W92893  26.117   0.837   4.544
22294W        W92894  20.213  26.273   1.978
22295W        W92895  22.476  30.843  12.201
22296W        W92896  13.621   5.006  12.954
22297W        W92897   3.613  42.968   1.965
22298W        W92898  40.037  15.033  14.820
22299W        W92899   2.723  16.810   2.732
22300W        W92900  41.433   8.842  14.327
22301W        W92901  10.320  10.626   2.331
22302W        W92902  22.615  39.948   3.698
22303W        W92903  19.678  43.588  12.582
22304W        W92904  30.960   8.586  10.901
22305W        W92905  42.917   9.913   1.633
22306W        W92906  27.999  18.672   2.994
22307W        W92907  40.065  25.928   0.275
22308W        W92908   5.722  15.382  14.942
22309W        W92909   4.000   4.348  12.589
22310W        W92910   8.767   6.943   4.674
22311W        W92911  18.001  39.019  13.432
22312W        W92912  42.353  42.532   0.448
22313W        W92913  40.306  39.065   2.850
22314W        W92914  25.561  42.611  13.953
22315W        W92915  11.602   9.193  11.085
22316W        W92916  21.973  24.826   4.194
22317W        W92917   9.972   0.175   0.167
22318W        W92918  23.458  29.468   3.230
22319W        W92919   9.212   1.117  13.334
22320W        W92920  22.865  17.654   2.071
22321W        W92921   2.483  14.405  11.509
22322W        W92922  22.057  11.105   3.615
22323W        W92923  40.007  19.303   2.202
22324W        W92924  13.859  25.806  14.259
22325W        W92925  12.735   5.011   3.255
22326W        W92926  21.951  36.685   4.570
22327W        W92927  26.209   4.402  12.981
22328W        W92928  27.664  30.083   4.220
22329W        W92929  23.572   8.908   3.547
22330W        W92930  44.411  26.763  10.654
22331W        W92931  29.612   1.147   2.891
22332W        W92932   7.772   8.267   4.116
22333W        W92933  19.933   6.822  13.490
22334W        W92934  32.526  42.372   4.356
22335W        W92935  19.974  27.006  12.969
22336W        W92936  11.532  20.709  11.047
22337W        W92937  34.922  30.565   3.617
22338W        W92938  36.612  10.303  11.006
22339W        W92939  28.455  39.570   2.261
22340W        W92940  10.135  22.543  14.536
22341W        W92941  21.738   3.781  12.001
22342W        W92942  35.152  10.746  11.498
22343W        W92943  12.882  33.479   2.504
22344W        W92944   3.438  29.545  12.009
22345W        W92945  34.838  11.669   1.788
22346W        W92946  30.611  44.776  10.660
22347W        W92947   3.968  17.320   3.224
22348W        W92948  16.211  39.449   1.403
22349W        W92949  40.458  25.337   4.583
22350W        W92950  36.987  23.431   0.991
22351W        W92951  26.607  23.058  13.423
22352W        W92952  18.101  22.736  14.414
22353W        W92953   6.903  38.182   2.305
22354W        W92954  15.792  36.316  14.480
22355W        W92955  26.673  36.707   5.059
22356W        W92956  12.466  33.648  14.074
22357W        W92957  31.899  33.064  14.225
22358W        W92958   3.455  30.600  11.634
22359W        W92959  42.721   0.419  13.430
22360W        W92960   4.250  29.094   3.084
22361W        W92961  25.490  10.188   2.658
22362W        W92962  35.827  22.202   3.201
22363W        W92963   1.788  40.805   2.001
22364W        W92964  29.671  22.786  11.101
22365W        W92965  11.761  22.162  11.125
22366W        W92966  33.092  39.200   4.616
22367W        W92967   0.726  34.370   1.390
22368W        W92968  43.546  22.153   4.095
22369W        W92969  39.515   6.411  10.402
22370W        W92970  14.730  20.694   3.394
22371W        W92971   2.002  32.187  13.717
22372W        W92972  13.574  29.094  13.525
22373W        W92973  16.625  33.096  10.151
22374W        W92974   0.720  14.375   5.022
22375W        W92975  33.129  40.414  13.510
22376W        W92976  26.618  37.099   2.910
22377W        W92977   9.246  33.260   2.750
22378W        W92978  28.710  42.779   0.354
22379W        W92979   2.691  36.778   0.164
22380W        W92980  26.629   6.359  13.569
22381W        W92981  32.185   8.936   2.323
22382W        W92982   0.506   1.510  10.921
22383W        W92983  11.271  43.319  10.561
22384W        W92984  39.885  13.958  12.263
22385W        W92985  26.438  10.721  11.085
22386W        W92986   9.401  12.131  14.473
22387W        W92987   9.939  19.604   2.756
22388W        W92988   4.755  34.673   4.912
22389W        W92989  41.683  29.080   4.605
22390W        W92990  36.944  23.189   4.552
22391W        W92991   2.814  16.314  14.977
22392W        W92992  33.527  31.468   2.213
22393W        W92993   3.023   4.155   2.728
22394W        W92994  33.998  41.311   0.647
22395W        W92995   9.303  40.411  13.861
22396W        W92996   9.915  18.245   4.571
22397W        W92997  38.001  41.596  10.591
22398W        W92998  22.070  11.295   1.399
22399W        W92999  27.026  36.951   2.603
22400W        W93000  42.342  38.055  12.166
22401W        W93001  32.114   4.865   1.433
22402W        W93002   3.042  40.218  12.922
22403W        W93003   3.668  36.474   3.412
22404W        W93004  14.131  26.944   3.679
22405W        W93005  22.704  30.528  10.815
22406W        W93006  15.069   1.934  10.744
22407W        W93007   8.330  28.974   3.749
22408W        W93008  38.259  25.173  14.311
22409W        W93009   9.193  39.782   3.099
22410W        W93010  33.867  13.246   4.131
22411W        W93011  40.316  27.714   4.032
22412W        W93012  10.221  44.043   4.215
22413W        W93013  17.499  42.492   1.282
22414W        W93014  43.019   1.178   3.451
22415W        W93015  34.361   9.987  12.661
22416W        W93016  11.674  25.398   4.887
22417W        W93017  21.792  28.128   0.920
22418W        W93018   2.861  36.428   0.509
22419W        W93019  25.589  17.260  10.678
22420W        W93020  41.906  31.193   0.292
22421W        W93021   4.939  23.757   3.860
22422W        W93022   2.832  37.587  11.530
22423W        W93023  39.865  13.370  12.877
22424W        W93024  22.471  32.070   2.918
22425W        W93025  20.037  17.545  12.854
22426W        W93026  19.142  18.703   3.233
22427W        W93027  41.664  22.461   0.440
22428W        W93028  12.715  10.287   1.236
22429W        W93029  31.199  38.848  14.992
22430W        W93030  16.167  20.110  13.705
22431W        W93031  23.969  19.944  12.813
22432W        W93032  13.287  25.411  12.060
22433W        W93033  25.303   1.855   1.299
22434W        W93034  35.188  14.731   4.869
22435W        W93035  33.965  29.059   2.736
22436W        W93036  15.186   7.325  12.952
22437W        W93037  30.788  22.189  13.416
22438W        W93038  18.156  43.724  12.774
22439W        W93039   1.402  32.480   3.798
22440W        W93040   2.329  37.594   2.147
22441W        W93041   2.214   3.785  12.850
22442W        W93042  38.135  19.337  12.398
22443W        W93043  12.190  25.158   2.800
22444W        W93044   5.913  30.726   0.717
22445W        W93045  17.277  38.248  12.023
22446W        W93046   4.419  37.404   1.543
22447W        W93047  31.511  21.051   2.296
22448W        W93048  18.730  24.820  13.838
22449W        W93049   8.296  39.079   1.207
22450W        W93050  35.479  23.911   0.484
22451W        W93051  43.031  18.234  14.047
22452W        W93052   9.111  26.948  10.787
22453W        W93053  21.758  14.686  12.420
22454W        W93054  41.390  40.085  14.948
22455W        W93055   3.744  18.839  14.339
22456W        W93056  39.575   5.183   3.853
22457W        W93057  34.937  38.541  11.098
22458W        W93058  40.025  30.034  13.398
22459W        W93059  30.493  10.191  11.668
22460W        W93060  26.550  26.537   3.626
22461W        W93061  21.625   7.343   2.614
22462W        W93062  27.148  29.705  13.189
22463W        W93063  29.175  36.403   4.113
22464W        W93064   1.333  10.704   2.188
22465W        W93065  11.872  38.523  14.033
22466W        W93066  38.720  40.644   5.050
22467W        W93067  15.391  43.321   1.170
22468W        W93068   7.552  41.975   3.306
22469W        W93069   0.842  28.429  13.824
22470W        W93070   9.331  18.075  10.622
22471W        W93071  14.876  40.296   1.884
22472W        W93072   3.449  33.151  10.234
22473W        W93073  10.013  33.540  11.155
22474W        W93074  22.448  10.939  11.660
22475W        W93075  31.737  33.450  12.644
22476W        W93076  42.361   6.708   4.268
22477W        W93077  37.607   5.884  11.158
22478W        W93078  44.117   5.644   9.854
22479W        W93079  26.097  19.149   4.935
22480W        W93080  43.811  31.101  10.927
22481W        W93081   6.036  40.750   5.136
22482W        W93082  24.947  18.186  10.688
22483W        W93083   2.017   9.853  14.896
22484W        W93084  28.391   7.303  10.606
22485W        W93085   9.396   0.265  12.618
22486W        W93086  36.655  39.828   1.274
22487W        W93087  24.603  41.494   0.243
22488W        W93088  13.232  42.365  13.654
22489W        W93089  26.929  24.603  13.599
22490W        W93090  27.942   0.315  14.935
22491W        W93091   5.117  19.996   3.204
22492W        W93092  24.092  13.755  11.047
22493W        W93093  12.166  10.941  14.384
22494W        W93094  26.429  11.222   2.784
22495W        W93095  44.444   3.388  12.079
22496W        W93096  17.183  41.550   4.096
22497W        W93097  22.392  21.052  12.303
22498W        W93098   5.336  28.743  11.171
22499W        W93099  41.498   6.289   5.447
22500W        W93100  37.870  22.937  10.707
22501W        W93101  22.151   4.990  11.090
22502W        W93102   7.341  29.659   4.564
22503W        W93103  12.344  37.798  10.684
22504W        W93104   7.733  22.574  10.508
22505W        W93105  35.617  38.026  11.498
22506W        W93106  33.606  12.423  13.457
22507W        W93107  40.088  44.468  12.081
22508W        W93108  43.003  29.364  14.200
22509W        W93109  30.887   2.201   1.964
22510W        W93110  26.143  27.935   4.142
22511W        W93111  26.617  30.913   4.753
22512W        W93112  21.993  42.501   1.498
22513W        W93113  25.555  39.315   1.481
22514W        W93114  26.867  18.024  11.567
22515W        W93115  44.375  19.018  14.833
22516W        W93116  28.170   3.848   1.325
22517W        W93117  23.156  12.951   1.823
22518W        W93118  40.750  14.772   4.301
22519W        W93119   8.200  43.845  12.570
22520W        W93120  34.724   0.721   2.764
22521W        W93121  16.375  30.482  14.648
22522W        W93122  14.641   1.232  10.778
22523W        W93123   5.120  12.564   1.288
22524W        W93124  15.115  29.261   3.226
22525W        W93125  37.530   8.770  11.928
22526W        W93126  24.953  31.078   2.656
22527W        W93127  31.128  10.752   0.966
22528W        W93128  19.798  43.548   4.018
22529W        W93129  38.831  30.608   2.778
22530W        W93130  34.425  33.028  13.674
22531W        W93131  13.735  28.976   3.077
22532W        W93132  18.236  18.811   3.115
22533W        W93133  32.708  33.564  10.636
22534W        W93134  20.243  23.507  14.801
22535W        W93135  30.531  19.414   0.156
22536W        W93136  37.502  33.196  12.095
22537W        W93137  13.634  22.540  14.049
22538W        W93138   3.239  28.943   3.088
22539W        W93139  30.392   3.875   4.997
22540W        W93140   4.835  32.622   1.409
22541W        W93141  30.594  36.183   2.829
22542W        W93142  41.480  36.708  13.789
22543W        W93143  37.051   6.662  11.753
22544W        W93144  43.285  19.572   3.654
22545W        W93145  14.778  35.998   3.230
22546W        W93146   8.604  33.412  12.400
22547W        W93147  42.931  14.572   4.147
22548W        W93148  30.649  27.466   3.241
22549W        W93149   0.874  30.950   3.172
22550W        W93150   5.960  19.111  14.811
22551W        W93151  20.738   4.178   1.232
22552W        W93152  11.145  26.671  12.020
22553W        W93153   6.371  26.103  11.523
22554W        W93154  32.317  23.630  14.902
22555W        W93155  36.065  20.676   3.319
22556W        W93156  31.242  25.598  11.209
22557W        W93157  21.332  20.080   5.057
22558W        W93158   7.641  41.057   1.364
22559W        W93159  24.805  27.647  10.690
22560W        W93160  19.740   7.748   1.695
22561W        W93161  41.441  28.914  13.140
22562W        W93162  19.865  26.015  14.493
22563W        W93163  27.761  18.206  14.845
22564W        W93164  20.174  10.936   2.384
22565W        W93165  24.793   1.839  12.399
22566W        W93166  20.307  29.174  13.995
22567W        W93167   1.922  25.603  13.662
22568W        W93168   6.907   3.473  10.752
22569W        W93169   0.880  43.208   0.835
22570W        W93170  40.640  10.287   4.634
22571W        W93171  40.645  23.815   0.091
22572W        W93172  37.563   1.326   2.189
22573W        W93173  25.350  44.784   9.661
22574W        W93174  39.437  11.391   1.845
22575W        W93175  27.746  15.113  13.947
22576W        W93176  29.920   9.911   3.448
22577W        W93177  36.351  26.426   5.025
22578W        W93178   2.400  16.251  14.079
22579W        W93179  11.911  36.085  11.548
22580W        W93180   7.938   8.618  14.257
22581W        W93181   9.327  30.466   4.067
22582W        W93182  37.484  16.913  10.379
22583W        W93183  27.896   8.657   4.286
22584W        W93184   6.217  27.408   2.444
22585W        W93185  36.512   6.892  14.048
22586W        W93186  39.970  36.350   0.022
22587W        W93187  11.911  30.480  13.117
22588W        W93188  38.949  44.334   2.415
22589W        W93189  29.349  43.051  12.369
22590W        W93190  42.216  28.446   2.460
22591W        W93191   3.964  27.392   2.770
22592W        W93192   6.245   3.811  14.930
22593W        W93193  16.583  39.337   0.168
22594W        W93194  28.925   6.699  12.999
22595W        W93195  27.781  35.072  11.556
22596W        W93196  31.141   5.681  10.933
22597W        W93197  13.333  28.499  11.936
22598W        W93198  23.772  42.334   1.243
22599W        W93199  16.226  18.309   0.378
22600W        W93200  40.454  27.146   3.175
22601W        W93201  25.392  19.017   0.504
22602W        W93202  29.430  14.071  11.697
22603W        W93203  24.188  31.086   0.799
22604W        W93204   4.290   9.601   3.202
22605W        W93205  34.741   6.290  13.235
22606W        W93206  24.427  22.642  13.699
22607W        W93207  14.805  23.397   5.105
22608W        W93208  30.541   2.174   5.034
22609W        W93209  43.002   1.297   2.948
22610W        W93210  19.334  15.213  13.653
22611W        W93211   0.985  33.044  13.393
22612W        W93212  30.726  44.020  14.804
22613W        W93213   7.802   2.382   3.218
22614W        W93214   8.487  15.124  13.478
22615W        W93215   5.835  26.260  12.784
22616W        W93216  21.131   3.358   0.936
22617W        W93217   0.043  19.751  11.169
22618W        W93218  28.213  21.816  13.020
22619W        W93219  38.506  17.606   1.466
22620W        W93220   3.786  16.338   1.346
22621W        W93221   2.488  37.115  14.848
22622W        W93222  30.083  35.909  13.294
22623W        W93223   1.083  43.758   1.363
22624W        W93224  12.776  15.030  12.937
22625W        W93225  34.203  24.840   0.892
22626W        W93226  41.953  34.631   2.257
22627W        W93227  30.549  32.295   0.866
22628W        W93228  31.325  22.196  13.447
22629W        W93229  37.510  16.231   2.373
22630W        W93230  25.930  18.712  14.927
22631W        W93231  10.591  18.068   2.393
22632W        W93232  12.239   7.431   3.658
22633W        W93233  11.770  29.167  12.644
22634W        W93234  11.394  13.075   0.906
22635W        W93235  33.305  16.381   3.339
22636W        W93236  10.567  38.009   4.312
22637W        W93237  20.529   2.347  12.963
22638W        W93238  35.035  29.674  13.386
22639W        W93239   3.444  44.925  14.331
22640W        W93240  15.202  32.254  11.418
22641W        W93241  28.491   7.327  14.450
22642W        W93242  38.126  26.045  11.781
22643W        W93243   9.158  16.060  13.219
22644W        W93244   6.145  35.452   2.198
22645W        W93245  11.367  33.953   1.278
22646W        W93246   9.627   4.813  14.461
22647W        W93247  13.176  22.403  13.834
22648W        W93248  44.961  34.048  10.990
22649W        W93249  33.564  36.294   4.914
22650W        W93250  28.556   2.297  10.813
22651W        W93251  34.058  36.883   1.758
22652W        W93252  21.932  10.484   0.955
22653W        W93253  14.243  35.063  14.898
22654W        W93254  11.325  24.226  10.763
22655W        W93255  30.345  30.534   4.697
22656W        W93256  43.537   6.650  14.983
22657W        W93257  34.566  44.762   3.531
22658W        W93258  38.834  42.761   0.246
22659W        W93259   4.342  42.542  11.195
22660W        W93260  14.865   7.996   0.993
22661W        W93261  23.715  44.394  13.462
22662W        W93262  16.655  36.967   1.439
22663W        W93263  37.717  39.347   4.058
22664W        W93264  18.233  43.491  14.605
22665W        W93265  37.946  18.543   4.038
22666W        W93266  34.065  20.664   3.861
22667W        W93267  34.010  28.959  10.696
22668W        W93268  42.416  25.539   3.436
22669W        W93269  36.347   4.724   4.680
22670W        W93270  12.298  17.156   4.638
22671W        W93271  38.742   8.109   1.495
22672W        W93272  31.969   2.954  12.401
22673W        W93273  38.118   5.915   1.904
22674W        W93274  31.890  15.329   2.409
22675W        W93275  18.183  42.526   3.005
22676W        W93276  42.021  38.428   4.592
22677W        W93277  36.933  17.615  11.642
22678W        W93278   0.184   3.695  13.112
22679W        W93279  30.940  10.709  13.577
22680W        W93280  23.530  20.716  13.095
22681W        W93281  14.086  40.920   1.738
22682W        W93282   7.425  18.547  10.602
22683W        W93283  39.345  44.274  13.401
22684W        W93284  32.027  31.441   4.577
22685W        W93285  19.689   5.135  11.495
22686W        W93286  37.638   0.933   0.487
22687W        W93287  37.560  15.689   4.586
22688W        W93288  17.263  35.386  14.797
22689W        W93289  29.010  12.283  14.857
22690W        W93290  36.965   3.163   3.219
22691W        W93291  36.793   3.520  12.195
22692W        W93292  25.705  36.021  12.895
22693W        W93293   0.692  21.844   3.841
22694W        W93294  30.906   6.854  11.955
22695W        W93295  15.610   2.880  10.721
22696W        W93296  17.071   0.243  11.487
22697W        W93297   6.436   1.128   4.232
22698W        W93298  26.248  26.934  10.315
22699W        W93299  29.884   5.436   1.307
22700W        W93300   3.024  11.277  12.082
22701W        W93301  31.160   0.707  14.509
22702W        W93302  10.788  26.409   2.111
22703W        W93303   4.639  41.331  14.296
22704W        W93304  39.239  21.526   1.796
22705W        W93305  42.324  27.379  11.503
22706W        W93306   1.565  38.055   4.234
22707W        W93307  18.617   3.915   1.703
22708W        W93308  24.303  39.454  14.504
22709W        W93309  33.140  22.770   3.704
22710W        W93310  40.296  35.707   0.689
22711W        W93311   8.315  42.481  11.952
22712W        W93312  25.078   6.806   1.914
22713W        W93313   8.160  39.318   3.703
22714W        W93314  16.611  15.602   2.934
22715W        W93315  26.722  28.552  11.339
22716W        W93316  13.412   3.411   0.809
22717W        W93317  21.954  25.906  11.432
22718W        W93318   4.394  40.340   1.886
22719W        W93319  26.554   0.991   2.193
22720W        W93320   2.433  35.070  13.442
22721W        W93321   0.942  13.528  10.799
22722W        W93322  35.930  35.838  12.554
22723W        W93323  25.887   4.359   1.653
22724W        W93324  30.400  35.794  14.210
22725W        W93325  41.183  35.895   2.672
22726W        W93326  12.915  19.848  13.414
22727W        W93327  18.740  33.091   2.576
22728W        W93328  27.670   3.346  12.397
22729W        W93329   4.491  36.212   3.200
22730W        W93330   2.704   6.760   2.764
22731W        W93331   3.165  20.153  10.978
22732W        W93332  41.795   8.704   4.632
22733W        W93333  10.441   9.233  14.745
22734W        W93334  40.303  11.628   4.636
22735W        W93335  16.452   4.115   2.786
22736W        W93336   5.174   5.888   2.412
22737W        W93337  44.338   0.408  10.585
22738W        W93338   6.196  33.489  11.908
22739W        W93339   3.009  26.439  13.365
22740W        W93340  32.466  12.343   0.837
22741W        W93341  14.196  44.534   0.313
22742W        W93342  21.006  20.493   3.387
22743W        W93343   9.926  34.735  14.582
22744W        W93344   8.964  30.211   2.279
22745W        W93345  29.321   0.049   2.839
22746W        W93346   1.753  35.684   0.386
22747W        W93347  15.539  28.868  12.983
22748W        W93348  22.118  23.996  10.577
22749W        W93349  11.070  29.127   3.107
22750W        W93350  42.392  20.961  12.637
22751W        W93351   3.920   2.374   1.840
22752W        W93352   1.455   1.897  12.421
22753W        W93353  41.533   9.377  10.619
22754W        W93354  26.627  18.048   2.091
22755W        W93355  29.976  31.058  11.910
22756W        W93356  13.079  25.078  14.894
22757W        W93357  38.916  12.967  12.872
22758W        W93358  18.126  30.685  13.804
22759W        W93359  36.389  35.564  13.120
22760W        W93360  22.205   9.924   9.645
22761W        W93361  13.306  11.831  11.546
22762W        W93362   6.763  34.926  13.053
22763W        W93363  14.374  27.005  13.355
22764W        W93364  22.584  24.287  14.212
22765W        W93365   8.968  14.710   4.783
22766W        W93366  28.571  30.938   4.947
22767W        W93367  40.521  17.119   2.414
22768W        W93368   2.718  20.564  12.486
22769W        W93369  43.077  23.086   1.549
22770W        W93370  10.857  30.062  12.892
22771W        W93371  36.709   3.297  14.632
22772W        W93372  32.928  39.994   3.168
22773W        W93373  36.830   5.702  14.929
22774W        W93374   4.732   6.126   1.674
22775W        W93375  14.715  14.581   1.266
22776W        W93376  15.328  30.094   1.208
22777W        W93377  44.258  13.263   3.266
22778W        W93378  40.993  10.421   3.425
22779W        W93379  10.738  43.164  12.207
22780W        W93380  34.813  30.189   2.788
22781W        W93381  22.273  27.065  11.978
22782W        W93382  32.302  31.803  11.156
22783W        W93383   7.720   8.114   0.226
22784W        W93384  29.458  43.568   1.261
22785W        W93385   0.414   7.042  11.541
22786W        W93386  17.485  31.985  12.554
22787W        W93387  16.038   5.699  12.868
22788W        W93388   7.218  28.634   2.302
22789W        W93389   7.864  23.087   2.153
22790W        W93390  17.065  19.557   2.304
22791W        W93391  20.135  19.270  12.514
22792W        W93392  27.011  44.279   2.043
22793W        W93393  40.511   0.198  12.772
22794W        W93394  13.703  43.706  13.122
22795W        W93395  38.834  39.149   4.162
22796W        W93396  31.734   7.354  12.895
22797W        W93397  39.520  43.972  13.008
22798W        W93398  10.363  29.033   0.906
22799W        W93399  18.761  34.453   0.048
22800W        W93400  26.652  17.741   3.791
22801W        W93401  34.489  42.950   4.017
22802W        W93402   7.811  16.503  14.945
22803W        W93403  13.699  43.494   3.874
22804W        W93404  25.456   4.357   1.963
22805W        W93405  22.245   8.568   4.495
22806W        W93406  24.523  24.039   2.195
22807W        W93407  12.393  13.935   3.864
22808W        W93408   2.766  37.703   0.305
22809W        W93409  41.955  10.090   3.869
22810W        W93410  33.162   0.859  12.017
22811W        W93411  33.632  42.801  14.523
22812W        W93412  19.591  37.547  13.773
22813W        W93413  36.236  41.802   2.686
22814W        W93414  38.997  20.701  12.084
22815W        W93415  39.130  25.101   3.719
22816W        W93416  41.017  15.314  13.384
22817W        W93417  43.758  16.551  11.505
22818W        W93418  13.312  37.295  10.734
22819W        W93419  34.173  37.580   2.258
22820W        W93420  10.803   2.537   3.737
22821W        W93421  37.899  35.000  10.544
22822W        W93422  43.052   6.507  13.310
22823W        W93423  10.046  41.137  14.528
22824W        W93424   4.541  37.204   2.966
22825W        W93425   0.447  27.738   4.150
22826W        W93426  32.598  26.984  12.399
22827W        W93427   6.629  11.155   2.870
22828W        W93428  20.105  21.469  13.959
22829W        W93429  14.872  27.678   0.758
22830W        W93430  23.025  16.995  13.499
22831W        W93431  37.456  42.500  12.170
22832W        W93432  21.714  19.509  14.336
22833W        W93433  26.240  13.215  13.075
22834W        W93434  23.514  32.472   0.009
22835W        W93435  30.435   1.910  10.657
22836W        W93436  20.995  35.800  12.958
22837W        W93437  32.687  37.419   4.154
22838W        W93438  38.084   6.683   1.822
22839W        W93439   2.169   1.716  14.478
22840W        W93440  27.534  37.582   4.690
22841W        W93441   0.387  35.397   2.635
22842W        W93442  31.894  19.741  13.918
22843W        W93443   7.388  30.110   1.270
22844W        W93444  35.362  20.009  13.499
22845W        W93445  26.162   2.168  14.061
22846W        W93446  23.551  35.591  11.130
22847W        W93447  34.429  31.637  14.407
22848W        W93448  12.793  27.481  12.754
22849W        W93449  20.028  44.802   1.063
22850W        W93450   8.798  14.740  13.308
22851W        W93451  17.044  16.211  14.849
22852W        W93452  14.506  26.081  12.214
22853W        W93453  18.243  18.712  11.463
22854W        W93454  30.015  43.603   2.717
22855W        W93455  12.777  11.822  13.757
22856W        W93456  39.033  38.904   0.376
22857W        W93457  20.687  35.415  12.888
22858W        W93458   1.988  33.428   3.206
22859W        W93459  36.770  20.690  11.996
22860W        W93460   6.304  28.673   4.152
22861W        W93461  35.610  19.998  11.487
22862W        W93462   8.657  14.575   0.028
22863W        W93463  17.114  14.361  12.713
22864W        W93464   6.865  22.917  14.267
22865W        W93465  12.637  29.311  14.552
22866W        W93466   6.757  20.665  14.855
22867W        W93467  23.981  11.295   4.113
22868W        W93468  24.271  28.166  12.876
22869W        W93469  13.012  22.292  11.588
22870W        W93470  23.529  18.790  14.430
22871W        W93471   5.311  17.698   2.672
22872W        W93472  41.540   9.800  13.244
22873W        W93473  19.994   1.341   4.627
22874W        W93474  44.281   4.350  10.235
22875W        W93475  14.724  11.397   0.059
22876W        W93476  35.145  34.570   2.001
22877W        W93477   6.707  43.866   0.823
22878W        W93478  14.846   7.143   3.287
22879W        W93479  29.457  43.831  10.946
22880W        W93480  26.293  31.830   1.909
22881W        W93481   7.503   3.222  12.044
22882W        W93482  29.463  38.871  11.987
22883W        W93483  24.341   7.312   4.877
22884W        W93484   3.811  28.147  10.303
22885W        W93485  29.897  23.040  13.931
22886W        W93486  32.890  38.551   4.073
22887W        W93487  22.638  37.924   3.007
22888W        W93488  37.728  34.803   5.047
22889W        W93489  36.362  17.161   3.480
22890W        W93490  31.619  42.461   0.213
22891W        W93491  36.629  24.030  10.773
22892W        W93492   3.242  13.618   0.899
22893W        W93493   1.695  11.286   2.866
22894W        W93494  17.169   6.018  11.119
22895W        W93495  38.847  16.670  14.443
22896W        W93496   2.802  44.289   2.775
22897W        W93497  43.323   7.554  13.154
22898W        W93498  35.531  18.553  11.540
22899W        W93499  42.113  44.013  13.939
22900W        W93500   2.004  12.255   2.278
22901W        W93501  33.824  31.991  14.018
22902W        W93502  33.352  24.843   1.184
22903W        W93503  22.199  37.425   4.074
22904W        W93504   8.815  43.521  14.494
22905W        W93505   3.303   2.986   2.466
22906W        W93506   4.277  25.611  11.338
22907W        W93507  37.749  26.501   2.089
22908W        W93508  42.359  26.501  14.811
22909W        W93509  31.513  28.084  10.678
22910W        W93510  41.475   8.281  12.489
22911W        W93511   4.497  26.592  14.283
22912W        W93512  30.573  13.546  13.007
22913W        W93513  41.498  37.966   2.319
22914W        W93514   0.540  38.144   4.880
22915W        W93515  26.983  44.930   0.325
22916W        W93516   4.140  36.665  11.067
22917W        W93517  40.893  29.538   3.006
22918W        W93518  39.982  38.615   1.110
22919W        W93519  19.555  35.390  14.480
22920W        W93520  24.218  29.056  11.973
22921W        W93521   2.854  25.540  13.266
22922W        W93522   8.303  18.750  10.629
22923W        W93523  22.725  20.236  13.559
22924W        W93524  39.907  13.360  13.887
22925W        W93525  22.014  11.092  12.412
22926W        W93526   7.925  25.566   0.749
22927W        W93527  15.628  13.632  14.968
22928W        W93528  42.542   0.880  14.217
22929W        W93529  37.584   6.370  11.338
22930W        W93530  29.526  24.392  10.429
22931W        W93531  13.200  18.319  14.555
22932W        W93532  15.755  21.510  10.117
22933W        W93533  21.093  38.835  14.860
22934W        W93534  22.184   0.270  12.465
22935W        W93535  44.776   3.292   1.476
22936W        W93536   0.204  16.056   2.293
22937W        W93537   7.412  11.722   1.540
22938W        W93538   8.050  41.962  14.127
22939W        W93539   9.208  34.783   2.822
22940W        W93540  42.343  14.623  11.702
22941W        W93541  26.952   7.348   3.692
22942W        W93542  19.010  12.943  12.701
22943W        W93543  39.144  37.552  10.649
22944W        W93544  31.338  31.038   4.135
22945W        W93545  36.880  41.114  13.411
22946W        W93546   1.877  23.228  12.641
22947W        W93547  36.819  19.104   3.673
22948W        W93548  21.198  37.781   1.373
22949W        W93549  23.241  36.858   2.861
22950W        W93550   7.372   4.876   4.215
22951W        W93551   8.213   0.458  14.420
22952W        W93552  34.129  41.187  11.734
22953W        W93553  20.997  17.359   4.103
22954W        W93554  38.764  13.590   4.584
22955W        W93555   6.115  38.802  14.307
22956W        W93556   0.405  22.153  11.861
22957W        W93557  15.277  42.937  14.414
22958W        W93558  18.489  21.500  13.027
22959W        W93559  37.441  15.074  11.086
22960W        W93560  41.195  15.640  11.683
22961W        W93561  18.625   8.320  11.238
22962W        W93562  33.660   4.819   1.456
22963W        W93563  25.578   6.573   1.425
22964W        W93564  18.425  30.933  12.171
22965W        W93565  25.566  21.769  13.534
22966W        W93566  14.636  30.927  14.168
22967W        W93567  44.829  30.392  12.944
22968W        W93568   5.024  23.807   4.361
22969W        W93569  21.209  11.143  14.073
22970W        W93570   0.197   9.121   2.826
22971W        W93571  21.470   1.231   4.118
22972W        W93572  37.018   0.976   4.325
22973W        W93573   3.325  32.653   3.658
22974W        W93574  17.313  25.591   2.227
22975W        W93575  17.077   7.730  12.083
22976W        W93576  18.193  22.682  11.630
22977W        W93577  33.936   7.139  10.393
22978W        W93578  32.414   9.315   3.866
22979W        W93579  38.607  19.172   2.235
22980W        W93580  19.526  17.182  12.945
22981W        W93581  17.700   1.964   0.300
22982W        W93582  42.047  24.949  12.427
22983W        W93583  21.398   4.914   4.198
22984W        W93584   5.471  16.211  11.944
22985W        W93585  38.267  34.895  11.973
22986W        W93586  16.625   0.117   3.287
22987W        W93587  15.372   4.882  13.575
22988W        W93588  39.783  19.275  11.972
22989W        W93589  27.397  11.671   0.459
22990W        W93590  24.718  32.193   3.223
22991W        W93591  19.446  39.352   3.273
22992W        W93592  30.549  10.905  12.241
22993W        W93593  33.508  42.630  14.038
22994W        W93594  24.541  11.206  14.943
22995W        W93595  29.269   1.742   4.712
22996W        W93596  34.169  14.562   1.740
22997W        W93597  18.222  16.824   3.255
22998W        W93598  14.345  35.469   0.189
22999W        W93599   2.672   1.054   0.817
23000W        W93600   5.869  16.797   0.456
23001W        W93601   1.448  15.036   2.014
23002W        W93602  15.362   5.663   3.259
23003W        W93603  24.044   7.089   4.509
23004W        W93604   5.200  18.681   3.080
23005W        W93605  28.896  10.650  13.442
23006W        W93606  39.458  27.683  12.047
23007W        W93607  18.707  28.467  11.568
23008W        W93608  39.486   6.817  11.217
23009W        W93609  28.125  13.933  10.646
23010W        W93610  33.401  39.507   1.464
23011W        W93611  17.385   3.815  14.354
23012W        W93612  43.415  35.845   0.216
23013W        W93613   5.443   6.389  12.545
23014W        W93614  17.354  44.379   3.207
23015W        W93615  42.799   8.879  13.918
23016W        W93616  36.037   1.850   3.681
23017W        W93617   2.739  42.089  14.952
23018W        W93618  28.782  22.974   0.370
23019W        W93619  43.072  37.238   3.261
23020W        W93620  21.802  18.452  13.885
23021W        W93621   3.914  41.819   3.500
23022W        W93622  28.629  24.908   3.553
23023W        W93623  24.482  42.478  13.121
23024W        W93624  13.581  38.787  14.959
23025W        W93625   7.285  32.820   2.120
23026W        W93626  27.530   5.741  14.424
23027W        W93627  44.987  11.631   3.197
23028W        W93628  44.994   3.928  11.028
23029W        W93629  27.467  11.156   2.830
23030W        W93630   7.579   9.109   1.529
23031W        W93631  28.506   9.223   2.193
23032W        W93632  36.599   6.429  12.681
23033W        W93633  21.067  38.131   2.798
23034W        W93634  30.081  15.623  11.688
23035W        W93635  14.891  21.609   4.813
23036W        W93636  23.702  28.629   2.782
23037W        W93637  16.979  30.119   4.650
23038W        W93638   8.272  44.317   2.927
23039W        W93639  35.035  27.376  13.783
23040W        W93640  15.089  30.884   0.783
23041W        W93641  28.009  18.064   4.119
23042W        W93642  35.063  29.016  10.806
23043W        W93643  16.532  22.543   4.170
23044W        W93644  19.623   3.372  13.025
23045W        W93645   8.274  29.483   3.743
23046W        W93646  28.397  15.650  13.460
23047W        W93647   3.948  21.598  10.644
23048W        W93648  16.577  10.880   4.508
23049W        W93649   5.440  28.546   2.680
23050W        W93650  20.515  23.578   1.695
23051W        W93651  43.942  37.059   3.400
23052W        W93652  17.672  14.711  12.446
23053W        W93653   5.243   6.778   4.186
23054W        W93654  32.887  15.183  14.380
23055W        W93655  17.832  30.501   4.764
23056W        W93656  22.174   2.676   4.161
23057W        W93657   9.214  24.521   1.723
23058W        W93658  21.042  28.912   4.219
23059W        W93659  34.001  19.441  13.813
23060W        W93660   9.834  27.585   0.145
23061W        W93661  19.723  37.251  10.571
23062W        W93662   3.839  23.238  11.074
23063W        W93663   8.446  35.460  13.981
23064W        W93664   1.744  10.681  10.531
23065W        W93665  44.399  27.058  12.579
23066W        W93666  11.167  19.438   1.229
23067W        W93667  14.643  10.779  14.272
23068W        W93668  40.946   8.968   2.904
23069W        W93669  43.313  35.952  12.560
23070W        W93670  13.775  40.550  14.291
23071W        W93671  20.571  19.342   4.965
23072W        W93672  26.259  20.337  11.006
23073W        W93673  15.259  11.633  10.111
23074W        W93674  36.074   4.137  14.354
23075W        W93675  32.364  29.996   2.803
23076W        W93676  24.772  43.787  14.791
23077W        W93677  22.629  19.729   5.028
23078W        W93678  15.306  28.131  13.832
23079W        W93679  12.734  31.607   4.650
23080W        W93680   0.473  30.359  10.621
23081W        W93681  21.621  38.532   2.953
23082W        W93682  43.013  31.229   1.375
23083W        W93683  34.361  18.214   3.864
23084W        W93684   6.443  22.608   2.894
23085W        W93685  18.435  31.552   1.501
23086W        W93686  37.657  19.093   0.168
23087W        W93687   6.809  36.974  12.220
23088W        W93688  18.446  15.176  14.320
23089W        W93689   5.806  15.837  12.633
23090W        W93690  28.745  24.505  12.399
23091W        W93691  17.367   5.783  13.422
23092W        W93692  26.048  43.531  12.632
23093W        W93693  27.756  22.521   0.742
23094W        W93694  24.591  19.580  14.350
23095W        W93695  11.279  13.708  13.781
23096W        W93696  27.685  18.255   1.001
23097W        W93697  33.122  24.209  13.932
23098W        W93698  28.282  20.109  13.507
23099W        W93699  17.213  10.574  13.338
23100W        W93700  28.976  37.751   4.068
23101W        W93701  36.964  14.747  12.644
23102W        W93702  14.112  28.732   3.762
23103W        W93703   7.635  37.883  10.700
23104W        W93704   1.332  25.207  11.474
23105W        W93705  23.719  37.321  13.395
23106W        W93706  39.468  27.781   2.879
23107W        W93707  33.036   4.194  11.049
23108W        W93708  14.800  37.974   4.294
23109W        W93709  18.144  29.725   1.284
23110W        W93710  33.750  38.989   3.544
23111W        W93711  32.523  40.345   2.355
23112W        W93712   1.862  31.509  12.532
23113W        W93713  35.422  40.044   2.899
23114W        W93714   5.343  41.854   0.889
23115W        W93715  12.856  40.334   1.914
23116W        W93716  31.568  18.027   4.816
23117W        W93717   4.770  15.391  13.957
23118W        W93718  23.243  32.820  12.902
23119W        W93719   8.859  26.407   3.691
23120W        W93720   6.256  43.893  14.342
23121W        W93721  28.173  35.783   4.143
23122W        W93722  33.976  22.528   4.401
23123W        W93723  32.006  10.273  14.732
23124W        W93724   2.471  44.389   0.150
23125W        W93725  36.311  37.947  10.932
23126W        W93726  42.450  10.851   2.395
23127W        W93727  38.069  27.157  14.716
23128W        W93728  31.680  38.113   1.947
23129W        W93729  19.117  18.968  14.777
23130W        W93730  36.442  42.719  12.041
23131W        W93731  36.713  42.581   4.236
23132W        W93732  12.225   8.699  12.508
23133W        W93733  19.247  26.874   3.282
23134W        W93734  25.191  19.075   3.811
23135W        W93735   2.187   6.751   2.755
23136W        W93736  16.159   6.325   0.145
23137W        W93737  34.365  38.762   3.696
23138W        W93738   3.535  37.279   1.183
23139W        W93739  43.930  33.103   4.106
23140W        W93740  18.346   1.331  12.045
23141W        W93741  28.385  26.287   2.120
23142W        W93742  16.631  18.244   4.598
23143W        W93743  20.540  21.263  12.125
23144W        W93744  30.736  34.009   2.232
23145W        W93745  40.488   2.307  10.479
23146W        W93746  23.753  31.376   2.074
23147W        W93747   0.672  22.674   3.576
23148W        W93748  41.991  42.564  12.576
23149W        W93749  32.808  15.248  12.107
23150W        W93750  38.964   0.499  13.586
23151W        W93751  41.877  16.884  13.393
23152W        W93752   4.897  13.712  14.491
23153W        W93753  11.412  23.589   3.695
23154W        W93754  19.723  16.506   3.081
23155W        W93755  41.913  14.072   0.315
23156W        W93756  33.265  15.536  12.396
23157W        W93757  43.827  10.487   3.780
23158W        W93758  12.090   4.772   1.726
23159W        W93759  23.178   7.957  14.338
23160W        W93760  18.574  42.071  13.789
23161W        W93761  37.133  44.550   4.142
23162W        W93762  36.027  30.496  12.984
23163W        W93763  34.140  27.073  10.638
23164W        W93764  33.908  29.420  13.036
23165W        W93765   8.060  34.361   1.759
23166W        W93766  43.718  14.797  12.494
23167W        W93767  32.978  16.317   4.651
23168W        W93768  34.413  28.437  12.421
23169W        W93769  27.657  40.803   4.953
23170W        W93770  29.354  41.523  10.809
23171W        W93771  25.410  32.900  10.510
23172W        W93772  10.876   7.287  12.103
23173W        W93773  19.204  25.569   3.871
23174W        W93774  13.918  11.660   2.018
23175W        W93775  44.107  31.479  14.054
23176W        W93776  39.998  44.413   4.161
23177W        W93777  43.477  27.722  14.821
23178W        W93778  37.956   8.892  12.183
23179W        W93779  29.063  37.950   4.540
23180W        W93780   2.516  32.512   3.159
23181W        W93781  19.711  33.211   2.127
23182W        W93782   9.153  13.536  13.311
23183W        W93783  29.159   9.450   2.838
23184W        W93784  18.091  39.630   4.608
23185W        W93785  24.984  24.036  12.356
23186W        W93786  38.068  29.455  13.338
23187W        W93787   6.392  24.034  14.370
23188W        W93788  16.716  25.427  10.211
23189W        W93789  12.114  10.723   1.189
23190W        W93790  44.249  16.338  11.640
23191W        W93791  10.717  14.289   0.924
23192W        W93792   5.710  23.454  14.845
23193W        W93793   7.434   9.850  13.368
23194W        W93794  44.975  29.120   1.851
23195W        W93795   0.283  41.798   2.231
23196W        W93796  16.009  42.921   3.040
23197W        W93797   6.937  17.271  12.547
23198W        W93798  23.085  28.189  14.362
23199W        W93799  23.018  15.621   1.387
23200W        W93800  11.126  34.602  13.508
23201W        W93801  39.890  41.084   2.208
23202W        W93802  25.090  39.543   2.184
23203W        W93803  44.252  25.470  11.063
23204W        W93804   6.922  44.336   1.945
23205W        W93805  16.213   3.665  11.153
23206W        W93806  39.732  16.213   3.978
23207W        W93807  35.852  22.502   2.601
23208W        W93808  23.719  36.539  14.328
23209W        W93809  28.628   6.263   1.877
23210W        W93810   2.204  27.225   1.363
23211W        W93811   3.954  13.818  14.862
23212W        W93812  28.932  12.750   3.656
23213W        W93813  18.622  12.199   0.134
23214W        W93814  40.286  30.149  14.799
23215W        W93815  39.931  29.525   0.525
23216W        W93816   6.798   6.335  12.225
23217W        W93817   2.718  30.368  13.388
23218W        W93818  39.033  17.206  11.732
23219W        W93819  38.387  15.566   3.398
23220W        W93820  15.875  34.392   1.112
23221W        W93821  40.859  15.249   2.242
23222W        W93822   7.309  31.051   1.891
23223W        W93823   9.844  34.650  12.087
23224W        W93824  29.132  16.741  14.285
23225W        W93825   9.397  36.085  13.348
23226W        W93826   7.648  28.291   2.242
23227W        W93827  33.344  16.596   2.459
23228W        W93828  11.839  37.470   1.807
23229W        W93829  31.945  32.030   1.932
23230W        W93830  14.765  41.457   5.391
23231W        W93831  18.458  28.237   2.173
23232W        W93832  28.903  30.123  11.630
23233W        W93833  28.953  44.013  11.756
23234W        W93834  26.441  32.000   3.821
23235W        W93835  13.715  12.612  10.699
23236W        W93836  12.603   4.781   1.663
23237W        W93837  31.483   9.908  12.020
23238W        W93838  41.995  39.549  12.469
23239W        W93839  36.488  22.530  10.139
23240W        W93840  43.340  11.744   0.013
23241W        W93841  11.225  33.843  11.610
23242W        W93842  33.532   7.371   2.354
23243W        W93843  35.557   9.258   3.000
23244W        W93844   9.234  32.351  13.336
23245W        W93845  36.007   1.920   0.905
23246W        W93846  35.603  22.124  12.618
23247W        W93847   4.635  20.225   4.613
23248W        W93848   2.414  24.521   2.848
23249W        W93849  36.090  40.733   2.242
23250W        W93850  26.690  33.902  11.020
23251W        W93851  33.327  36.369   0.677
23252W        W93852   4.312   6.382  10.326
23253W        W93853  18.221  41.041   1.833
23254W        W93854  27.438  37.939  10.721
23255W        W93855  23.639  36.444  14.997
23256W        W93856  38.781   9.417  13.382
23257W        W93857   3.835  35.661  14.261
23258W        W93858   1.788  23.662   2.729
23259W        W93859   4.476   2.163   0.278
23260W        W93860  38.578  35.040  13.910
23261W        W93861  12.088  30.183  14.301
23262W        W93862  25.040  17.594   3.432
23263W        W93863   7.824  38.811  11.554
23264W        W93864  24.598  24.459   3.072
23265W        W93865  36.971  13.315  13.328
23266W        W93866  12.407  10.193   0.347
23267W        W93867   6.786   2.454  10.743
23268W        W93868  29.702   7.313   2.468
23269W        W93869  14.043  41.521  13.987
23270W        W93870  19.747  37.573   1.334
23271W        W93871  30.142   8.474  14.407
23272W        W93872  37.066  31.447  12.977
23273W        W93873  28.962   1.758   0.363
23274W        W93874  36.789  37.843   4.033
23275W        W93875  41.360   7.827   4.717
23276W        W93876   6.206  34.247   5.058
23277W        W93877  31.213  37.987  14.798
23278W        W93878  17.760  43.384   1.277
23279W        W93879  40.998  19.552  12.899
23280W        W93880  19.735  40.543  14.334
23281W        W93881  26.365  31.023  13.003
23282W        W93882  10.757  33.907   3.260
23283W        W93883  31.028  19.649  12.235
23284W        W93884  38.924  33.020  11.461
23285W        W93885  27.000  18.603   0.811
23286W        W93886  30.388   9.617  12.386
23287W        W93887  32.030  22.710   1.753
23288W        W93888  17.805  41.898   3.531
23289W        W93889  40.438   4.497   3.324
23290W        W93890   5.503   7.336  12.629
23291W        W93891  27.907   2.712   0.760
23292W        W93892   9.167  26.611   0.235
23293W        W93893   4.689  22.714  14.027
23294W        W93894   0.843  26.151   2.746
23295W        W93895  15.460  30.558  10.135
23296W        W93896  13.228  29.528  11.997
23297W        W93897   8.705  43.505   0.002
23298W        W93898   5.863  43.849   0.043
23299W        W93899  25.200  11.031  10.586
23300W        W93900   2.123  42.835  10.593
23301W        W93901  17.672  40.415  11.473
23302W        W93902   7.401  13.782  11.099
23303W        W93903  39.164  29.203   2.441
23304W        W93904  13.966  17.282   1.348
23305W        W93905  31.890  39.065   3.363
23306W        W93906  24.436   3.694   4.924
23307W        W93907  41.029  38.559  13.056
23308W        W93908  26.670   4.484   1.463
23309W        W93909  42.564  22.263   4.128
23310W        W93910  44.085   9.959   4.552
23311W        W93911   1.782   7.430  10.879
23312W        W93912   0.120  25.685  12.488
23313W        W93913   8.624  10.649  11.038
23314W        W93914   4.043  28.157  13.756
23315W        W93915  26.453   2.218  14.815
23316W        W93916  34.188   9.760   2.784
23317W        W93917  10.641   9.889  11.584
23318W        W93918  24.814  11.846  11.529
23319W        W93919  29.991  18.675   4.888
23320W        W93920  31.178  15.790   2.004
23321W        W93921  11.640  29.422   1.189
23322W        W93922  14.382  27.216   1.617
23323W        W93923  42.793   3.728  12.066
23324W        W93924  20.047  20.312  13.058
23325W        W93925   4.430   6.734  13.448
23326W        W93926  37.323   0.892  11.596
23327W        W93927  32.902  39.967  13.380
23328W        W93928  30.636  36.450  14.536
23329W        W93929  24.536   8.304  12.006
23330W        W93930   3.512   4.886  12.896
23331W        W93931  19.348  22.019   2.359
23332W        W93932  39.465  36.412   3.612
23333W        W93933   1.255  36.314  10.809
23334W        W93934  32.580  39.443   4.659
23335W        W93935  38.766  21.523   2.829
23336W        W93936  31.998   0.224   3.995
23337W        W93937  26.056  11.383   4.629
23338W        W93938  23.867  44.888   3.173
23339W        W93939  27.071  43.677  13.355
23340W        W93940  32.566  13.324   0.551
23341W        W93941  29.185  33.489  12.959
23342W        W93942  22.697  25.009   3.473
23343W        W93943  36.257  37.896  12.884
23344W        W93944  31.402   9.744  13.759
23345W        W93945  15.545  39.429   1.342
23346W        W93946  34.081  39.830   0.877
23347W        W93947  30.369  11.432   2.301
23348W        W93948  42.782  22.672   2.298
23349W        W93949   1.159  24.478  12.576
23350W        W93950   0.447  15.828   4.109
23351W        W93951  28.876  16.044  14.825
23352W        W93952   5.921  25.226   2.693
23353W        W93953  43.019  11.117  11.962
23354W        W93954  33.279  22.776   1.387
23355W        W93955  21.468  28.889   5.062
23356W        W93956   2.811  27.588  13.470
23357W        W93957  38.583   7.326  10.347
23358W        W93958  17.526  23.196   4.590
23359W        W93959  35.178   2.235   4.266
23360W        W93960  28.889  42.751   1.908
23361W        W93961  34.960  39.782  11.637
23362W        W93962  29.106  16.724  13.780
23363W        W93963  42.346  39.866   1.859
23364W        W93964  25.652  15.846  14.879
23365W        W93965  14.555  36.329  13.495
23366W        W93966   0.379  37.934  13.947
23367W        W93967  17.062  43.175  14.662
23368W        W93968   6.955  18.398   4.025
23369W        W93969  42.148  30.107  13.311
23370W        W93970  37.885  29.796   3.669
23371W        W93971   8.273   8.667   1.229
23372W        W93972  21.149   5.893  12.903
23373W        W93973  31.126  42.482   0.391
23374W        W93974  13.554  29.248   0.323
23375W        W93975  32.630  25.237  11.178
23376W        W93976  25.480  21.159   2.842
23377W        W93977   2.535  13.511  11.574
23378W        W93978   9.424  21.484   2.602
23379W        W93979  37.685  36.347   1.299
23380W        W93980   9.818   8.836   1.752
23381W        W93981  43.763  30.568   0.375
23382W        W93982   0.822  36.460  11.799
23383W        W93983  17.294   8.137  11.875
23384W        W93984  35.625  13.429  12.960
23385W        W93985   0.791  25.017  14.044
23386W        W93986  27.910  31.067   4.144
23387W        W93987  40.425  36.306   3.234
23388W        W93988  25.197   7.318  13.137
23389W        W93989  19.536  33.151   0.733
23390W        W93990  10.068   6.368   2.811
23391W        W93991  29.589  36.442   1.394
23392W        W93992   5.642  26.278  10.783
23393W        W93993  10.629  30.230   0.917
23394W        W93994  22.538  23.201  10.425
23395W        W93995  41.213  18.753  13.014
23396W        W93996  40.918   9.442   0.254
23397W        W93997  23.091  13.528  14.454
23398W        W93998  14.886   2.805   0.825
23399W        W93999  23.164  41.385   2.315
23400W        W94000  30.563  30.433   3.270
23401W        W94001  35.189   3.698  12.343
23402W        W94002  29.610   4.634   1.278
23403W        W94003  14.657   4.891  11.457
23404W        W94004  29.518  35.469  14.363
23405W        W94005   6.646   2.973  11.704
23406W        W94006   1.810  26.881   4.599
23407W        W94007  17.235  26.930  14.463
23408W        W94008  41.637  44.693  10.427
23409W        W94009  31.483   0.773   2.879
23410W        W94010  39.029  38.275  12.928
23411W        W94011  19.999  29.750   1.848
23412W        W94012  38.998  44.728   5.044
23413W        W94013  16.513   7.099   1.088
23414W        W94014   5.882  39.764   3.147
23415W        W94015   4.145  22.039  12.930
23416W        W94016  16.109  31.585   3.114
23417W        W94017   3.026  23.283   0.243
23418W        W94018   5.662  12.803   3.321
23419W        W94019  15.263   5.468  12.470
23420W        W94020   5.832  30.620   2.234
23421W        W94021   7.798  33.536   2.439
23422W        W94022  25.263  44.082  12.218
23423W        W94023  41.511  30.040  11.543
23424W        W94024  36.811   7.460  14.715
23425W        W94025   9.928  28.352  14.477
23426W        W94026   7.344   8.825  11.540
23427W        W94027  34.462  35.194  12.941
23428W        W94028   4.096  10.581   0.906
23429W        W94029  25.927  13.568   1.124
23430W        W94030  37.287  29.421  14.349
23431W        W94031  34.046  17.209  10.632
23432W        W94032  33.044   7.793   1.189
23433W        W94033  26.077   7.951   4.756
23434W        W94034  42.927  30.650  11.553
23435W        W94035   6.943  39.716   4.108
23436W        W94036  44.019  41.479   3.690
23437W        W94037  13.069   6.445   0.901
23438W        W94038   9.079  42.103   1.183
23439W        W94039  34.997  42.637   3.715
23440W        W94040   5.792  13.362  12.927
23441W        W94041  13.149  38.821  12.400
23442W        W94042  43.356  38.889  11.760
23443W        W94043   2.319  37.204   2.483
23444W        W94044  23.280   0.490   0.509
23445W        W94045  35.867  26.123   1.968
23446W        W94046  40.829  43.984  14.940
23447W        W94047  21.030  12.255   4.304
23448W        W94048  36.432  40.451  14.481
23449W        W94049  41.073   8.835   3.371
23450W        W94050  10.132  42.765  13.240
23451W        W94051  34.565  23.072   1.783
23452W        W94052  29.755  43.877  10.526
23453W        W94053  36.002   3.694   4.453
23454W        W94054  22.529  38.890   2.765
23455W        W94055  23.179  19.271  11.576
23456W        W94056  30.679  25.355   0.491
23457W        W94057  44.929  15.715  11.601
23458W        W94058   5.943  39.853  11.169
23459W        W94059  22.516  31.808  10.557
23460W        W94060  44.786  32.115  12.444
23461W        W94061  25.926  43.474   3.853
23462W        W94062   5.118  24.100   4.759
23463W        W94063  19.024  16.249   0.729
23464W        W94064   3.278  27.154   2.872
23465W        W94065   7.729  15.489  11.212
23466W        W94066  11.252  35.987   1.807
23467W        W94067  29.084  22.962  11.698
23468W        W94068  28.874   1.976  13.848
23469W        W94069  34.423  22.514   2.659
23470W        W94070  25.163  25.240  11.127
23471W        W94071   4.938  30.134   0.238
23472W        W94072  18.138  43.715   1.160
23473W        W94073  34.877  36.150   0.958
23474W        W94074  21.009   5.388  12.632
23475W        W94075  24.252  28.660  13.023
23476W        W94076  17.648  38.959  11.406
23477W        W94077  10.075  14.095   3.744
23478W        W94078  44.329  41.329   0.402
23479W        W94079  41.346  32.029   2.734
23480W        W94080  13.068  35.362  14.504
23481W        W94081  11.249   7.922  11.893
23482W        W94082  39.526   9.111  13.981
23483W        W94083  29.055  10.677  13.942
23484W        W94084  31.627  25.188  12.505
23485W        W94085  35.073  14.222   3.560
23486W        W94086  44.494  23.418  12.134
23487W        W94087  14.410  12.562   3.674
23488W        W94088   7.726  20.339   3.687
23489W        W94089  19.928  22.531   0.591
23490W        W94090  25.590  43.331  12.804
23491W        W94091  26.703  26.293  13.832
23492W        W94092  44.498   7.130  10.744
23493W        W94093   6.727  25.728  13.904
23494W        W94094  13.102  15.466  13.230
23495W        W94095  11.366  31.002  11.120
23496W        W94096   4.912   2.687  14.987
23497W        W94097  34.092  14.155  11.655
23498W        W94098  43.989  24.163   0.903
23499W        W94099  38.896  39.818   2.837
23500W        W94100  33.094  10.857  10.943
23501W        W94101  40.793  19.705  12.447
23502W        W94102  11.732  23.116  13.052
23503W        W94103  12.651  23.644  13.856
23504W        W94104  30.696  41.387  13.019
23505W        W94105  15.216  15.737   0.834
23506W        W94106   9.378  16.932   5.010
23507W        W94107  14.106   3.712  14.994
23508W        W94108  30.656   1.435  10.601
23509W        W94109  28.909  24.957  13.597
23510W        W94110  11.205  22.414   0.959
23511W        W94111   1.908  41.392  14.209
23512W        W94112  19.611  34.810  12.930
23513W        W94113   6.758  35.132  10.646
23514W        W94114  20.366  41.948  11.639
23515W        W94115  42.751  23.661   1.386
23516W        W94116  18.746  15.336   3.601
23517W        W94117  35.438   6.500   3.886
23518W        W94118   3.451  34.930  12.471
23519W        W94119  18.595   4.942   4.533
23520W        W94120  27.622  25.676  13.858
23521W        W94121  18.144  35.914  11.152
23522W        W94122  23.755  24.164   3.877
23523W        W94123  25.043  11.956  10.715
23524W        W94124  15.400  29.788  11.935
23525W        W94125   3.471  35.085   1.893
23526W        W94126   2.807   1.270   3.872
23527W        W94127  19.634  33.625  14.288
23528W        W94128   2.981  35.601   4.710
23529W        W94129  32.109   4.343   2.266
23530W        W94130   0.970  44.240   0.802
23531W        W94131  30.838  41.734  13.999
23532W        W94132  38.431  33.427   4.551
23533W        W94133  27.502   5.173   2.759
23534W        W94134  42.417  35.830  11.523
23535W        W94135   0.791   0.221   1.715
23536W        W94136  11.398   0.372   0.683
23537W        W94137   6.232   8.651  11.961
23538W        W94138  44.879   1.460  14.356
23539W        W94139  22.221  34.833   2.332
23540W        W94140  26.657  23.773  13.016
23541W        W94141  31.631  20.062   1.412
23542W        W94142  31.837  24.447  10.765
23543W        W94143  10.349  39.336  12.798
23544W        W94144  40.656  12.625   4.114
23545W        W94145  30.408   2.294   1.752
23546W        W94146  10.712  37.903   1.149
23547W        W94147  25.070  15.784   0.467
23548W        W94148  23.013  20.627  14.745
23549W        W94149  22.729  36.024   0.911
23550W        W94150   6.846   2.641  12.082
23551W        W94151   7.222  24.377  12.015
23552W        W94152  17.938  30.065  12.395
23553W        W94153  41.363  42.541  13.538
23554W        W94154  36.623  22.644  13.883
23555W        W94155  22.764  37.296  11.265
23556W        W94156  28.931   6.255   2.339
23557W        W94157  30.856  41.855  10.652
23558W        W94158  28.670  21.098  13.451
23559W        W94159  18.593  17.201  14.581
23560W        W94160  33.364  18.229   3.136
23561W        W94161   8.715  13.717   3.415
23562W        W94162  35.527  33.828   2.314
23563W        W94163  17.145  26.072   2.287
23564W        W94164   1.484   3.091  13.158
23565W        W94165  38.910  26.127   0.711
23566W        W94166  30.623   9.001  13.817
23567W        W94167   0.736  18.732  14.998
23568W        W94168  35.924  24.677   0.387
23569W        W94169  29.104  20.295  10.716
23570W        W94170   9.369  40.932  13.948
23571W        W94171  44.896  13.456   4.145
23572W        W94172  11.994  32.214  11.511
23573W        W94173  20.634   7.583   2.303
23574W        W94174   8.217  34.201  14.461
23575W        W94175  15.211  19.735  13.938
23576W        W94176  44.450  10.736   4.196
23577W        W94177  21.168  21.383  11.016
23578W        W94178  44.789   2.258   3.914
23579W        W94179  34.843   0.174   4.282
23580W        W94180   5.657  28.018  12.028
23581W        W94181  43.360  18.753   0.241
23582W        W94182  25.628  32.143   0.177
23583W        W94183  23.015  31.833   4.162
23584W        W94184  24.144   6.575   4.576
23585W        W94185  23.322  28.499  10.448
23586W        W94186  18.100  33.848  11.253
23587W        W94187  36.701  36.184  11.524
23588W        W94188  42.909   6.009   3.829
23589W        W94189  27.352  28.259   0.291
23590W        W94190   2.529  20.770   3.604
23591W        W94191  39.004   0.291   3.681
23592W        W94192   8.721  35.079  14.887
23593W        W94193   2.478  24.919   1.215
23594W        W94194   1.178   8.929  12.266
23595W        W94195   6.601  29.156  11.919
23596W        W94196  20.758  40.403   3.879
23597W        W94197  24.401   7.358   2.620
23598W        W94198  41.971  10.089  11.556
23599W        W94199  14.230  10.627  13.914
23600W        W94200  25.631   9.145  10.586
23601W        W94201  44.571  34.510   4.006
23602W        W94202  43.660  26.528  14.480
23603W        W94203  40.384  21.977  11.662
23604W        W94204  10.851  13.537   3.733
23605W        W94205  13.546   7.852  14.553
23606W        W94206  41.931  43.500  12.387
23607W        W94207  33.942   0.258  13.812
23608W        W94208  32.900   2.838   3.045
23609W        W94209  42.047  36.703   4.177
23610W        W94210   5.888  12.214   1.461
23611W        W94211   3.209   7.904  12.903
23612W        W94212  32.787  36.380  11.501
23613W        W94213  14.563  15.250  12.344
23614W        W94214   1.733  37.229   0.785
23615W        W94215   7.238  14.092   2.726
23616W        W94216  33.926   9.894   0.216
23617W        W94217   6.353  23.489   4.755
23618W        W94218  12.676   0.776   0.281
23619W        W94219  31.409  40.888   1.708
23620W        W94220  15.701   3.728  14.563
23621W        W94221  31.101  11.801   4.034
23622W        W94222   7.137  37.935  13.445
23623W        W94223   8.134  38.551  13.802
23624W        W94224  16.381  17.105  11.212
23625W        W94225   6.183  27.831   1.712
23626W        W94226  41.999   7.595  13.032
23627W        W94227  12.066  42.245   4.527
23628W        W94228  39.033  31.514  14.666
23629W        W94229  37.305   6.900   0.234
23630W        W94230  18.720  35.690  10.361
23631W        W94231  26.685   0.305  10.767
23632W        W94232  15.902  41.384  12.919
23633W        W94233  13.825  34.266  13.959
23634W        W94234  16.653   9.389   0.903
23635W        W94235  23.172  23.038  12.529
23636W        W94236  11.805  11.801   4.104
23637W        W94237  11.311  17.188  14.714
23638W        W94238  13.715   9.684  12.607
23639W        W94239   0.931  35.878   0.047
23640W        W94240  16.188  42.575  12.663
23641W        W94241   8.909  34.763   2.416
23642W        W94242  17.033   0.788  10.673
23643W        W94243  24.114  28.438   5.146
23644W        W94244  33.854  42.588  11.170
23645W        W94245  15.264  44.931  11.936
23646W        W94246  25.136   6.374   0.751
23647W        W94247  14.571  21.040  14.481
23648W        W94248  41.463  23.736  12.804
23649W        W94249   4.294   2.714  13.852
23650W        W94250  33.462  35.260   2.193
23651W        W94251  36.136  40.716  14.147
23652W        W94252  34.822   5.304  10.871
23653W        W94253  17.562  44.262  13.890
23654W        W94254  22.075  26.674  11.671
23655W        W94255  40.066   0.767  12.061
23656W        W94256   7.020  27.662  14.226
23657W        W94257  37.270  34.066   2.217
23658W        W94258  20.054  36.631   0.915
23659W        W94259  34.988   8.797   1.629
23660W        W94260   5.423  29.173  13.849
23661W        W94261  34.083  24.617  12.030
23662W        W94262  37.766  34.545  11.584
23663W        W94263  28.705   7.378   3.440
23664W        W94264  17.689   3.469   1.851
23665W        W94265  27.216  28.721   3.680
23666W        W94266  40.213  22.733  13.396
23667W        W94267  12.405  43.280  13.592
23668W        W94268   8.143  22.459  14.366
23669W        W94269   5.856  39.584  14.436
23670W        W94270   5.994  13.821  11.131
23671W        W94271   3.155   6.996   9.933
23672W        W94272  10.275  31.448   2.000
23673W        W94273  43.401  25.299   4.175
23674W        W94274  28.420   1.470   3.518
23675W        W94275  37.011  39.976  14.258
23676W        W94276  35.822   3.300  13.542
23677W        W94277   7.960  42.040  14.643
23678W        W94278  19.771   1.854  13.847
23679W        W94279  34.059  22.233  13.977
23680W        W94280   4.240   7.884  13.897
23681W        W94281  36.608  24.568   1.976
23682W        W94282  18.035  11.225   3.807
23683W        W94283  11.254   7.249   2.339
23684W        W94284   8.294   3.709  12.414
23685W        W94285  10.917  14.858   2.752
23686W        W94286  20.592  38.147  13.016
23687W        W94287  23.055  33.535  13.548
23688W        W94288  29.945  14.850   4.435
23689W        W94289  32.478  15.627   0.326
23690W        W94290  29.357  35.992   1.496
23691W        W94291  23.058  32.522  14.752
23692W        W94292  40.185   0.212  14.890
23693W        W94293  28.357  11.566  14.420
23694W        W94294   7.709  40.823   0.645
23695W        W94295  32.514   7.110  14.314
23696W        W94296  23.750  38.928   4.065
23697W        W94297  24.233  31.921  13.544
23698W        W94298   5.774  25.231   4.424
23699W        W94299  24.333  24.968  12.168
23700W        W94300  33.450  24.047   2.649
23701W        W94301  10.638  29.644   1.917
23702W        W94302   0.712  43.780   3.568
23703W        W94303  39.238   0.375   3.228
23704W        W94304  32.081  35.496   3.249
23705W        W94305  40.147  37.646   2.804
23706W        W94306  27.188  30.938   0.073
23707W        W94307  16.374  20.230   0.365
23708W        W94308  20.609  35.319   1.879
23709W        W94309   6.453  36.843   0.340
23710W        W94310  43.572  20.147  11.156
23711W        W94311   9.823   2.846   2.306
23712W        W94312  43.883  24.155   1.842
23713W        W94313  22.114  12.599   3.189
23714W        W94314  38.764  10.825   2.180
23715W        W94315  25.518   2.541  10.989
23716W        W94316  44.240  15.268   0.389
23717W        W94317  24.702  41.458   0.757
23718W        W94318  15.802   3.422  10.012
23719W        W94319   9.322  18.061   1.873
23720W        W94320  40.347  11.062  14.476
23721W        W94321   2.376  31.167  10.971
23722W        W94322   6.893  31.818  12.113
23723W        W94323  29.210  13.077   3.277
23724W        W94324  15.251  40.102  10.779
23725W        W94325  22.655  35.396  10.486
23726W        W94326  42.829  40.355   4.495
23727W        W94327   2.778  18.758   1.221
23728W        W94328  34.099  28.216  11.140
23729W        W94329  23.164   6.144   2.879
23730W        W94330  35.998   5.125   4.695
23731W        W94331  39.066  14.708  10.890
23732W        W94332  20.629  42.446  10.598
23733W        W94333  20.722  42.503  11.090
23734W        W94334   2.239  29.990  12.967
23735W        W94335   4.989  38.578  13.422
23736W        W94336  22.810  33.560  12.642
23737W        W94337  37.848  14.770  13.476
23738W        W94338   8.540   5.930   2.785
23739W        W94339   1.327  14.037   2.805
23740W        W94340  28.591  12.547  12.983
23741W        W94341  27.599   1.498  13.086
23742W        W94342  44.519  15.693  12.862
23743W        W94343  11.372  39.592   3.687
23744W        W94344  16.214  23.172   3.878
23745W        W94345  44.843  23.087   1.876
23746W        W94346  23.308   0.181   1.848
23747W        W94347   7.824  41.266   0.887
23748W        W94348  10.163  43.473   1.787
23749W        W94349  40.525  35.542   1.659
23750W        W94350  21.677  44.357   1.718
23751W        W94351  30.158   8.917   0.367
23752W        W94352  38.074   7.601   1.897
23753W        W94353  11.483  26.662  14.498
23754W        W94354  35.505   5.301  10.711
23755W        W94355  37.580  14.997   4.182
23756W        W94356  31.383   7.712   3.748
23757W        W94357  11.266  11.632   2.595
23758W        W94358  11.758  43.005  14.796
23759W        W94359  39.534   3.729   2.120
23760W        W94360  34.116  35.570  14.448
23761W        W94361  38.288  34.139  12.634
23762W        W94362  32.962  24.241  11.573
23763W        W94363  42.373  38.352  11.074
23764W        W94364  41.083  42.691  12.992
23765W        W94365  44.204  22.248  14.330
23766W        W94366   9.176   3.817   3.689
23767W        W94367   0.357   7.340   3.732
23768W        W94368  42.571   7.229  13.741
23769W        W94369  39.828   2.585   3.759
23770W        W94370  11.292  10.297  14.316
23771W        W94371  20.615  41.295  11.635
23772W        W94372  24.744  16.862   1.901
23773W        W94373  37.415  31.061  12.831
23774W        W94374  21.841   6.974   4.172
23775W        W94375  37.021  34.017   0.747
23776W        W94376  42.396  11.431   0.813
23777W        W94377   3.743  26.452   5.018
23778W        W94378  16.272  36.375  14.279
23779W        W94379  43.100   9.244  14.791
23780W        W94380  41.960  27.417  13.436
23781W        W94381  17.181  42.234   0.303
23782W        W94382  44.792  24.974  10.486
23783W        W94383   5.433  35.017   4.501
23784W        W94384  43.579   4.417   4.639
23785W        W94385   3.645  23.284   3.096
23786W        W94386  40.402  14.201   4.194
23787W        W94387   1.821  18.821   1.131
23788W        W94388   5.740   5.286   3.293
23789W        W94389  41.310   3.926  14.404
23790W        W94390  14.304  25.052   2.179
23791W        W94391   2.147  26.104  13.022
23792W        W94392  24.412   8.762  12.407
23793W        W94393   2.858  13.068   4.614
23794W        W94394  32.262   3.342  10.569
23795W        W94395  27.795   6.781   4.914
23796W        W94396  30.440  25.007  13.921
23797W        W94397  23.608  32.697   2.298
23798W        W94398  22.362  24.593  10.426
23799W        W94399  44.646   2.684   1.001
23800W        W94400  30.729  34.949  10.847
23801W        W94401   1.514   7.185  11.280
23802W        W94402  40.029  29.489   2.952
23803W        W94403  19.098  15.989  13.265
23804W        W94404  22.989  14.359  14.879
23805W        W94405  25.590  15.708   2.747
23806W        W94406  28.665  20.451   3.916
23807W        W94407  10.383  44.806   2.257
23808W        W94408  37.707  37.295  12.074
23809W        W94409  14.082   8.473  12.194
23810W        W94410   9.602   8.528  12.668
23811W        W94411  23.763  32.020   0.850
23812W        W94412  26.302   4.730  11.796
23813W        W94413  30.002  17.984  13.367
23814W        W94414   2.772  25.390   0.430
23815W        W94415  38.124   8.804   3.340
23816W        W94416  39.592   9.906   3.934
23817W        W94417  17.118   1.739  12.575
23818W        W94418  41.303  14.703  14.873
23819W        W94419  41.017  27.003  12.909
23820W        W94420  37.892  40.092  13.387
23821W        W94421  34.368   4.048   2.590
23822W        W94422  44.071  16.087  13.453
23823W        W94423   2.749  21.081  10.792
23824W        W94424  28.609  19.210   3.225
23825W        W94425  19.018  35.560  12.224
23826W        W94426  14.491  43.049   1.294
23827W        W94427  12.930  43.688   9.697
23828W        W94428  24.641   0.235  13.881
23829W        W94429  44.974   0.755  14.510
23830W        W94430  44.019  14.500   3.343
23831W        W94431  34.231  22.413  11.216
23832W        W94432  24.528   9.506   4.103
23833W        W94433  22.086  32.342   0.266
23834W        W94434  20.646   4.167  11.851
23835W        W94435   5.871   8.325  12.721
23836W        W94436  33.101  24.508  13.498
23837W        W94437  25.465  22.677  13.893
23838W        W94438   5.610  36.284  13.942
23839W        W94439  32.595   8.446   3.322
23840W        W94440  13.601   1.773   4.451
23841W        W94441  16.124  21.256  13.336
23842W        W94442   9.236  30.675  12.547
23843W        W94443  17.070  17.383  12.097
23844W        W94444  19.464  27.075  13.015
23845W        W94445  27.978  40.412   5.077
23846W        W94446  26.894  33.687  14.492
23847W        W94447   3.395   4.894   3.053
23848W        W94448  44.251   1.162  12.669
23849W        W94449  34.301  24.961  14.521
23850W        W94450  22.726  16.881  11.075
23851W        W94451  40.974  23.531  12.837
23852W        W94452  28.997  35.610  10.907
23853W        W94453  40.086   8.728  14.441
23854W        W94454  16.317  30.183   3.418
23855W        W94455  32.438  23.926  10.673
23856W        W94456   7.093  21.111  12.905
23857W        W94457  11.526  40.281   3.607
23858W        W94458  44.312  42.031  11.809
23859W        W94459   5.867  13.571   2.842
23860W        W94460   7.679  11.235  13.431
23861W        W94461   6.298  44.236  12.565
23862W        W94462  37.387  33.080  14.799
23863W        W94463  35.278   0.500   1.954
23864W        W94464  10.278   8.206   2.344
23865W        W94465   9.275   2.346   4.537
23866W        W94466  22.653  24.514   3.715
23867W        W94467  22.759  10.878   4.236
23868W        W94468  31.152  18.314   2.349
23869W        W94469  10.576   9.742   0.292
23870W        W94470   6.365   9.720  11.131
23871W        W94471   3.184  15.224  12.915
23872W        W94472  24.518   2.299  11.895
23873W        W94473  38.363   6.627   2.274
23874W        W94474  15.750  25.893   0.449
23875W        W94475  28.108  14.764  10.348
23876W        W94476  19.115   9.639   1.451
23877W        W94477  12.215  25.058  14.787
23878W        W94478  44.990  18.884  11.120
23879W        W94479  18.466   3.508  14.395
23880W        W94480  44.179   9.788  10.311
23881W        W94481  15.262  23.681  11.948
23882W        W94482  14.884  28.279  12.934
23883W        W94483  20.266   1.425   3.114
23884W        W94484  20.297  13.445   3.629
23885W        W94485   2.228  22.190  11.224
23886W        W94486  10.560  39.906  14.304
23887W        W94487  40.386   1.476   2.696
23888W        W94488  31.160  15.231   0.475
23889W        W94489  13.198   4.348   2.327
23890W        W94490  42.398   3.407  12.949
23891W        W94491  42.298  39.828  12.842
23892W        W94492  41.365   8.764   2.607
23893W        W94493  33.866  10.223  11.573
23894W        W94494  25.471   1.218  14.025
23895W        W94495  41.809   4.246   3.328
23896W        W94496   8.120   6.325  10.979
23897W        W94497   4.858   4.849  14.308
23898W        W94498  12.425  36.844   5.007
23899W        W94499  27.955  32.355   1.865
23900W        W94500  10.393  10.891  14.762
23901W        W94501  24.107  15.359   2.452
23902W        W94502  27.131  28.132  13.802
23903W        W94503   1.299  10.643   2.710
23904W        W94504  31.954   7.924  12.510
23905W        W94505  37.546   3.857  11.588
23906W        W94506  14.144  10.931  14.338
23907W        W94507  32.000  19.450  12.624
23908W        W94508  16.842  16.977  10.533
23909W        W94509  10.798  18.646  14.487
23910W        W94510  36.333  36.477  11.693
23911W        W94511  27.672  36.353  14.763
23912W        W94512   7.918  42.690  11.636
23913W        W94513  26.114  10.730   1.990
23914W        W94514   9.328  21.931  14.283
23915W        W94515   2.273  44.095  12.563
23916W        W94516  11.761   6.953  14.558
23917W        W94517  27.526   6.133  13.418
23918W        W94518   3.529   8.920  10.469
23919W        W94519   5.170  22.851  13.933
23920W        W94520  35.074  42.651   1.741
23921W        W94521   6.929   3.280  14.472
23922W        W94522  28.147   0.298  10.768
23923W        W94523  26.967   8.672   2.102
23924W        W94524   1.538  13.655  11.660
23925W        W94525   2.574  18.382  11.974
23926W        W94526  34.012  10.808   3.482
23927W        W94527  15.136   0.441  13.873
23928W        W94528  15.826  12.955   1.307
23929W        W94529  37.951  22.546   1.287
23930W        W94530  30.378  33.119   2.376
23931W        W94531   9.807  26.929  14.320
23932W        W94532  33.687  27.166  13.297
23933W        W94533   9.314   6.624   2.333
23934W        W94534  20.089  16.218   4.293
23935W        W94535   3.946  28.517   1.103
23936W        W94536  40.663  40.587  12.916
23937W        W94537  37.453  32.612   2.704
23938W        W94538  16.271   0.921  11.488
23939W        W94539  28.694  18.611   1.171
23940W        W94540   7.398  23.253   1.908
23941W        W94541  29.375  30.161  14.858
23942W        W94542  37.253  13.592  14.891
23943W        W94543  37.889  18.450  11.046
23944W        W94544   0.774  21.168   9.788
23945W        W94545   8.616   5.798  14.236
23946W        W94546  12.038  38.504   2.610
23947W        W94547   0.014  10.169   4.633
23948W        W94548  36.574  38.803   4.162
23949W        W94549  15.720  43.078   2.044
23950W        W94550  39.107   9.828  13.390
23951W        W94551   5.310  36.132   0.154
23952W        W94552   9.875  30.276   2.331
23953W        W94553   5.672  33.857  14.522
23954W        W94554  12.846  12.573  10.631
23955W        W94555  34.024  11.916  13.902
23956W        W94556  28.707  43.777   0.651
23957W        W94557  14.094   5.153  10.349
23958W        W94558  15.842  43.483  13.909
23959W        W94559  20.327   4.949  11.662
23960W        W94560  42.762  17.078  14.844
23961W        W94561   2.315  37.838   5.020
23962W        W94562  19.329  14.261   4.304
23963W        W94563  32.246  12.835   5.016
23964W        W94564   7.828  41.001  11.968
23965W        W94565  37.998  37.299  11.453
23966W        W94566  25.930  18.139   0.245
23967W        W94567  21.592  10.532   0.179
23968W        W94568   9.824  14.184  11.705
23969W        W94569  36.075  20.540  14.711
23970W        W94570  32.401   3.649  12.643
23971W        W94571  36.910  15.151  11.907
23972W        W94572   4.904   1.912  11.802
23973W        W94573  37.976  27.638  11.142
23974W        W94574  20.479   2.734  12.034
23975W        W94575  29.567   2.268  10.815
23976W        W94576  43.398  38.958   4.629
23977W        W94577   2.796  16.569  14.487
23978W        W94578  44.428  39.801   2.625
23979W        W94579  40.314  41.551  12.338
23980W        W94580  16.284  10.822   2.340
23981W        W94581   4.859  15.482   0.998
23982W        W94582  11.777  37.855  11.377
23983W        W94583  16.093  16.461  10.425
23984W        W94584  38.038  40.569   2.718
23985W        W94585  33.670  38.071  11.554
23986W        W94586  21.266  34.026  14.802
23987W        W94587  40.456  36.683  12.951
23988W        W94588  31.164  25.702  12.982
23989W        W94589  39.489  15.136  11.959
23990W        W94590  36.991  29.842   3.860
23991W        W94591   7.487  36.886  11.616
23992W        W94592  34.430  34.827   4.366
23993W        W94593  32.485   4.610   0.873
23994W        W94594  32.961  15.775  13.196
23995W        W94595  16.683  15.885   4.490
23996W        W94596  27.200   4.656  14.475
23997W        W94597  32.646  18.462  12.666
23998W        W94598   9.390   1.643   0.445
23999W        W94599  25.459  34.987  12.363
24000W        W94600   0.929  27.019  14.822
24001W        W94601  34.935   0.763   4.043
24002W        W94602  43.794   7.120   1.817
24003W        W94603  15.333   3.612  12.443
24004W        W94604  13.405   5.366   2.335
24005W        W94605  29.135  41.609  12.079
24006W        W94606   9.363   5.083   4.555
24007W        W94607  18.906  13.942   0.859
24008W        W94608   6.153  22.668  13.872
24009W        W94609  21.045  30.548   4.464
24010W        W94610   4.855  31.635  12.801
24011W        W94611   5.886  20.355   2.324
24012W        W94612  27.506  26.429   3.903
24013W        W94613   9.360  23.077  12.683
24014W        W94614  26.094   5.947  12.939
24015W        W94615  12.156  39.528   4.659
24016W        W94616   4.486  27.798   1.426
24017W        W94617   8.874  27.945  13.492
24018W        W94618   9.600  24.603  13.027
24019W        W94619  36.934  25.509  14.815
24020W        W94620  12.958  12.506   1.219
24021W        W94621   6.011  33.372   4.655
24022W        W94622  25.602   7.121  10.726
24023W        W94623  42.991   2.644  14.937
24024W        W94624   4.213  15.419  13.823
24025W        W94625  35.330  19.264  12.820
24026W        W94626  25.323  13.324   5.227
24027W        W94627  30.030  12.699   2.332
24028W        W94628  11.395  23.233  14.435
24029W        W94629  34.666  36.382  13.624
24030W        W94630   0.984  24.620  12.119
24031W        W94631  11.935  30.099   0.407
24032W        W94632   4.857  10.655  12.785
24033W        W94633   4.484  41.528   1.337
24034W        W94634  40.729  29.578  11.531
24035W        W94635   2.984  44.283  10.769
24036W        W94636  12.538   4.451   4.084
24037W        W94637  29.657   7.231  12.090
24038W        W94638  34.603  13.931  11.046
24039W        W94639  19.762  23.605   2.674
24040W        W94640  21.940  42.192   1.922
24041W        W94641  39.365   7.649  10.729
24042W        W94642  15.471   5.925   3.735
24043W        W94643  24.756   5.389  13.107
24044W        W94644   9.987  16.847  14.013
24045W        W94645  18.702  38.602  12.125
24046W        W94646  42.052   8.281   4.765
24047W        W94647  32.395  18.638   1.155
24048W        W94648  38.601  31.930   2.643
24049W        W94649  15.708   6.277  14.882
24050W        W94650  15.521  21.285   3.160
24051W        W94651  12.193  22.142   3.735
24052W        W94652   5.903  24.804  13.030
24053W        W94653  10.933   4.953   9.615
24054W        W94654   6.278   7.557   3.054
24055W        W94655  34.940   1.454  14.450
24056W        W94656   8.126   7.277   1.400
24057W        W94657  32.971  15.183  11.622
24058W        W94658  37.811   3.526   5.306
24059W        W94659  35.527  34.078   0.406
24060W        W94660  20.057  15.202   2.853
24061W        W94661   2.782  25.209  10.735
24062W        W94662  30.983  32.535   0.677
24063W        W94663  41.922  32.824  11.131
24064W        W94664  33.747  16.854   4.758
24065W        W94665   2.796   6.228   2.308
24066W        W94666  10.389  26.971   1.471
24067W        W94667   7.524  44.110   3.938
24068W        W94668  30.464  15.046  14.470
24069W        W94669  33.125  27.156   2.935
24070W        W94670  30.065   4.962   1.300
24071W        W94671  22.053  39.413   4.559
24072W        W94672  36.752   2.563   1.392
24073W        W94673  24.043  31.587   0.818
24074W        W94674  17.677  32.202  13.035
24075W        W94675  15.830  12.322  13.509
24076W        W94676  20.473  25.495   2.620
24077W        W94677  33.042  28.029  11.518
24078W        W94678  37.016  18.130  12.446
24079W        W94679  43.894  14.425   1.870
24080W        W94680  42.828  16.283   2.191
24081W        W94681  31.979  35.513  11.110
24082W        W94682  41.853  16.147   2.784
24083W        W94683  36.010  26.802  10.709
24084W        W94684   2.832  43.257  13.504
24085W        W94685   8.318  13.238   3.283
24086W        W94686  39.702  29.233   3.719
24087W        W94687  19.809  22.011  12.837
24088W        W94688   3.575   6.193  14.989
24089W        W94689   9.154  33.266   4.913
24090W        W94690  41.251  19.101   4.115
24091W        W94691   3.454  44.960   2.333
24092W        W94692  34.666   8.908  14.758
24093W        W94693  44.918  28.486   3.685
24094W        W94694   8.013  12.109  12.077
24095W        W94695  40.607  38.503   0.314
24096W        W94696  10.189  14.685   1.928
24097W        W94697   3.209  20.054   1.348
24098W        W94698  20.159   6.266  11.168
24099W        W94699  32.574   2.358   2.613
24100W        W94700  14.350  38.957  12.888
24101W        W94701   0.846  15.314  11.113
24102W        W94702  34.315  35.480  14.939
24103W        W94703  20.993   3.557  12.402
24104W        W94704  12.845   7.220   3.156
24105W        W94705  31.061   1.252  11.555
24106W        W94706  17.658  12.361  14.744
24107W        W94707  39.631  26.067   0.009
24108W        W94708   5.686   1.606  10.753
24109W        W94709  30.970   2.784  10.912
24110W        W94710  35.497  24.393   0.259
24111W        W94711   7.189   9.115   4.984
24112W        W94712  40.966  15.661   1.388
24113W        W94713  25.109  12.143   0.975
24114W        W94714  18.582  21.546   2.752
24115W        W94715  15.070  35.525  12.504
24116W        W94716   8.261  16.047   2.903
24117W        W94717  36.940  32.495   2.628
24118W        W94718  13.283  11.256   3.412
24119W        W94719   8.762   8.434   1.197
24120W        W94720  26.618  20.539   3.662
24121W        W94721  39.343   9.432   3.876
24122W        W94722   7.723  27.724   2.710
24123W        W94723  20.027  43.473   1.674
24124W        W94724  23.980  30.328   3.084
24125W        W94725  17.589  17.396   0.833
24126W        W94726  37.654  34.099  11.926
24127W        W94727  27.490  24.098  12.891
24128W        W94728  19.188  13.274   4.143
24129W        W94729  17.746  17.552   4.074
24130W        W94730  39.354  39.047  13.028
24131W        W94731  16.073  43.007  14.810
24132W        W94732   6.159   1.438  12.526
24133W        W94733  20.621  31.023  10.943
24134W        W94734  12.086  19.697  14.529
24135W        W94735  18.175   1.964  14.815
24136W        W94736  10.268  15.131   0.718
24137W        W94737  31.902  41.473   2.777
24138W        W94738  33.783  30.983  12.917
24139W        W94739  14.762   7.452   0.836
24140W        W94740   2.708  25.155   3.724
24141W        W94741  23.608   6.734   3.715
24142W        W94742  39.104  39.468   2.257
24143W        W94743  26.203  23.997  14.060
24144W        W94744  22.223   7.678  12.500
24145W        W94745  15.766  21.448  10.630
24146W        W94746   6.712  23.299   2.135
24147W        W94747   5.915  13.868   3.287
24148W        W94748  25.909  43.869   4.554
24149W        W94749   1.078   8.955   2.611
24150W        W94750  29.317   0.474   5.081
24151W        W94751   7.590  34.146  11.681
24152W        W94752  17.697  23.970  11.656
24153W        W94753  43.976  12.164   4.077
24154W        W94754  11.889  17.779   2.521
24155W        W94755  32.393   8.757  12.776
24156W        W94756   5.466  15.216   2.645
24157W        W94757  36.119   4.361  11.583
24158W        W94758  24.574  18.236   4.653
24159W        W94759  24.662  36.523   1.101
24160W        W94760  38.439  40.997  12.812
24161W        W94761  17.420  30.493  10.585
24162W        W94762  28.409  27.267   2.482
24163W        W94763  16.242  44.730   3.303
24164W        W94764  25.611  12.114   4.420
24165W        W94765  25.979  12.199  11.949
24166W        W94766  32.146  41.834   3.891
24167W        W94767  13.596  41.367  13.795
24168W        W94768   2.490  15.759   2.231
24169W        W94769  18.548  34.619  11.333
24170W        W94770  14.802   7.339  14.296
24171W        W94771  11.925  30.606  11.704
24172W        W94772  10.255   3.749   4.293
24173W        W94773  36.005  26.539   4.062
24174W        W94774  39.862  20.386  11.139
24175W        W94775  32.642  25.161   2.858
24176W        W94776  32.977  10.219   3.159
24177W        W94777  13.253  24.632   3.344
24178W        W94778  24.807  17.315  14.277
24179W        W94779  42.726  14.865   0.409
24180W        W94780  19.150  29.514   4.575
24181W        W94781   9.829  11.069   1.220
24182W        W94782   4.743  26.491  13.838
24183W        W94783   5.235  17.537  12.172
24184W        W94784  44.566  15.207  14.362
24185W        W94785  20.693  32.985   1.768
24186W        W94786  42.363  39.109  12.324
24187W        W94787  18.197  28.096  10.609
24188W        W94788  27.465  35.963   3.097
24189W        W94789  22.570  12.604  12.970
24190W        W94790   4.228  18.602  10.937
24191W        W94791  24.693  19.218   3.765
24192W        W94792  26.484  38.442   1.617
24193W        W94793  21.578  28.206   3.608
24194W        W94794  21.233  41.138  13.246
24195W        W94795  23.989  43.702   4.976
24196W        W94796  39.600   7.258  12.956
24197W        W94797   2.461  11.164   2.620
24198W        W94798  13.099   4.856   1.818
24199W        W94799  10.145   4.806  12.728
24200W        W94800  15.856  35.735  12.139
24201W        W94801  24.128  20.714   4.639
24202W        W94802  16.707   0.028   4.173
24203W        W94803  11.883  29.514   3.167
24204W        W94804  18.467  31.439  12.118
24205W        W94805  23.542  33.240  11.525
24206W        W94806  33.052  17.257  12.613
24207W        W94807  20.027   2.767  14.828
24208W        W94808   4.162  30.461   1.789
24209W        W94809  28.777  27.846  11.094
24210W        W94810   6.509  43.729  12.851
24211W        W94811  21.163   8.141   1.654
24212W        W94812  24.109  35.987   4.004
24213W        W94813  31.477  14.705   2.660
24214W        W94814  43.531  25.326  12.565
24215W        W94815  39.009  25.812   0.298
24216W        W94816  35.704  28.492  10.494
24217W        W94817  39.766   0.491   1.290
24218W        W94818   5.171  31.568   0.034
24219W        W94819   7.101   7.833   4.615
24220W        W94820   6.584   2.665  13.458
24221W        W94821  26.662  33.629  14.974
24222W        W94822  26.162  22.823  14.809
24223W        W94823  10.787  42.789   0.368
24224W        W94824  41.717  34.170  12.899
24225W        W94825  25.292   3.335   4.577
24226W        W94826  43.051  14.615   0.736
24227W        W94827  13.050   1.395  14.900
24228W        W94828  34.341   5.278   3.242
24229W        W94829  28.073  14.446  10.755
24230W        W94830  24.121  34.194   3.119
24231W        W94831  32.488  26.263   1.636
24232W        W94832  23.627  17.947   0.792
24233W        W94833   4.914  18.622   1.774
24234W        W94834  15.718  30.629  11.922
24235W        W94835  36.238  15.369   0.885
24236W        W94836   8.226   7.910   1.883
24237W        W94837  40.911   4.745  11.943
24238W        W94838  12.146   0.535   2.272
24239W        W94839  29.941  21.964   3.545
24240W        W94840   5.779   3.753   0.169
24241W        W94841  37.843   7.623   3.690
24242W        W94842  38.388   7.372   0.750
24243W        W94843  14.844  43.383  11.763
24244W        W94844  43.578   3.432  12.451
24245W        W94845  26.656  37.881   0.240
24246W        W94846  32.084  35.174  14.064
24247W        W94847  14.326  15.868   1.533
24248W        W94848  26.134  23.731   3.152
24249W        W94849  18.157   7.268  10.466
24250W        W94850  16.179  22.726  14.838
24251W        W94851  17.191  37.637   4.559
24252W        W94852  39.784  42.918  14.280
24253W        W94853  15.284   3.674   1.812
24254W        W94854   8.261  27.007  11.977
24255W        W94855   3.715  29.530  13.594
24256W        W94856  25.069  10.204  13.458
24257W        W94857  24.982  31.824   1.375
24258W        W94858   9.313  30.617   3.194
24259W        W94859  15.332  18.343   4.146
24260W        W94860  14.492   2.940  11.566
24261W        W94861  43.821  24.240   3.578
24262W        W94862  20.309  44.155   4.430
24263W        W94863  31.886  34.730   2.729
24264W        W94864  18.206  13.048  14.333
24265W        W94865  25.953  40.910   0.440
24266W        W94866  28.877  43.292   2.600
24267W        W94867  42.044  38.617  14.033
24268W        W94868  35.925  44.012   2.824
24269W        W94869  11.537  24.286   4.945
24270W        W94870   7.475  26.550   3.779
24271W        W94871   2.489   5.630   3.822
24272W        W94872  22.262  38.263   0.563
24273W        W94873  39.014   9.052  13.701
24274W        W94874  25.682  31.589   3.613
24275W        W94875  32.314   8.876   4.600
24276W        W94876  11.061  36.698  14.847
24277W        W94877  12.932  30.616  14.599
24278W        W94878  36.639   3.201  13.070
24279W        W94879  43.719   3.191  13.477
24280W        W94880  26.810  22.086  14.602
24281W        W94881   4.459   3.855   3.285
24282W        W94882  40.625  31.147  12.141
24283W        W94883  12.742  24.467  12.870
24284W        W94884  30.128  42.392  10.739
24285W        W94885  18.302  33.907   4.383
24286W        W94886  41.869  14.677  12.358
24287W        W94887  38.966  41.404   1.713
24288W        W94888  37.611  36.806  12.037
24289W        W94889   8.848  44.524   3.658
24290W        W94890  25.705  36.664  14.323
24291W        W94891  35.640  31.077  13.345
24292W        W94892   6.662  33.954   4.177
24293W        W94893  15.608  30.145  10.929
24294W        W94894  34.813  23.735  11.065
24295W        W94895  42.155   0.029  14.922
24296W        W94896  18.678  39.439   0.428
24297W        W94897  40.114  38.327   0.287
24298W        W94898  14.363  43.537   0.435
24299W        W94899  34.692  26.654  10.744
24300W        W94900  44.999  28.881  13.935
24301W        W94901  22.929  35.735   5.158
24302W        W94902   8.400  33.608   1.194
24303W        W94903  13.375   7.851   0.051
24304W        W94904  21.606  34.241   4.581
24305W        W94905  22.277   9.608  14.920
24306W        W94906  24.833  12.352  11.526
24307W        W94907  28.005  17.877   2.920
24308W        W94908  23.644  36.415  10.717
24309W        W94909  42.445  35.889  10.620
24310W        W94910  44.925  33.478  13.013
24311W        W94911  31.924  30.429  13.637
24312W        W94912   5.394  27.715  11.066
24313W        W94913  18.262  20.546  13.883
24314W        W94914  18.087   8.786  10.317
24315W        W94915  40.267  16.126   4.040
24316W        W94916  43.332  30.649  13.574
24317W        W94917  37.463  26.045  11.741
24318W        W94918  38.946  41.437  10.846
24319W        W94919  28.071  14.598   5.110
24320W        W94920  39.245  36.292  12.551
24321W        W94921  23.009  10.705   0.301
24322W        W94922  37.133  31.184   4.156
24323W        W94923   0.956  18.736   1.360
24324W        W94924   8.988  30.534  14.181
24325W        W94925  29.802  40.389   1.755
24326W        W94926   4.211  32.847  14.269
24327W        W94927  40.565  39.357   2.314
24328W        W94928   6.732  16.325   2.310
24329W        W94929  19.113  30.479  13.892
24330W        W94930  14.246   4.116  11.095
24331W        W94931  34.947  22.220  14.995
24332W        W94932  33.933  14.104   1.004
24333W        W94933  43.864  30.561  13.605
24334W        W94934   1.934   4.717   3.620
24335W        W94935  30.168  29.181   3.233
24336W        W94936   2.641  24.653   3.730
24337W        W94937  38.321   7.955  13.055
24338W        W94938   3.166   8.348   4.168
24339W        W94939   0.872  30.686   4.609
24340W        W94940  44.330  14.123   2.642
24341W        W94941  28.542  40.773   1.426
24342W        W94942  41.960  11.652  13.835
24343W        W94943  37.955   6.665   0.811
24344W        W94944  31.415  15.908  12.528
24345W        W94945   5.687  10.303   0.761
24346W        W94946  21.268  16.384  11.632
24347W        W94947   4.003  14.661   3.896
24348W        W94948  17.119  30.310   1.370
24349W        W94949  21.202  27.673   4.525
24350W        W94950  28.573  22.266  11.394
24351W        W94951  10.615  23.467   3.316
24352W        W94952  19.669   8.725   3.137
24353W        W94953   8.794   3.446   0.014
24354W        W94954  14.381  22.125  13.064
24355W        W94955   2.476  22.720  12.927
24356W        W94956   6.080  32.045  13.467
24357W        W94957   4.837  21.275   2.186
24358W        W94958  11.765   0.528   4.080
24359W        W94959  11.511  26.886   1.753
24360W        W94960  20.232  43.284   4.071
24361W        W94961  36.608   4.662   0.854
24362W        W94962  21.027  29.928   2.480
24363W        W94963   0.239  13.914  12.055
24364W        W94964  16.442  15.767   2.374
24365W        W94965  36.409  19.276  13.485
24366W        W94966  32.279  12.948  10.267
24367W        W94967   8.945   8.346  13.131
24368W        W94968  32.516   9.452  10.736
24369W        W94969  43.071  19.292   2.271
24370W        W94970  44.798  18.627  12.153
24371W        W94971  10.610  21.778   2.807
24372W        W94972  21.352   6.697  11.785
24373W        W94973  18.759  21.409   3.234
24374W        W94974  11.194  25.826  14.699
24375W        W94975  41.996  10.268  10.702
24376W        W94976  25.147   4.832   3.308
24377W        W94977   0.025  34.496   4.252
24378W        W94978  44.560  43.565   5.093
24379W        W94979   5.501  31.634   1.473
24380W        W94980  12.421  24.586   2.392
24381W        W94981  35.931  42.733  13.470
24382W        W94982  38.085  20.631   3.777
24383W        W94983  17.031  26.009  14.929
24384W        W94984  14.627   4.801  13.084
24385W        W94985  25.897   2.342   2.871
24386W        W94986  13.313  24.409   3.821
24387W        W94987  22.858   1.043   4.897
24388W        W94988  18.455   3.499   9.877
24389W        W94989  36.969  43.491   2.768
24390W        W94990  20.567  14.801  10.812
24391W        W94991  44.301  11.197  13.324
24392W        W94992  21.527  18.716   4.699
24393W        W94993  34.104   5.102   2.795
24394W        W94994   5.242   5.409  13.026
24395W        W94995  16.449  19.429   2.746
24396W        W94996  40.801  27.064  10.920
24397W        W94997  35.035  18.727  12.500
24398W        W94998  36.442  37.348   2.386
24399W        W94999  37.418  13.377   1.194
24400W        W95000  27.458  36.635   2.497
24401W        W95001  13.297   8.411  12.774
24402W        W95002  24.004  21.528  13.090
24403W        W95003   6.445  30.695  12.809
24404W        W95004  25.688  17.274  13.883
24405W        W95005  28.558  12.869  13.404
24406W        W95006  35.009  18.029  14.313
24407W        W95007  35.036  19.286  11.478
24408W        W95008  18.080  27.393  14.307
24409W        W95009  34.408  13.038  12.000
24410W        W95010  18.662   2.869  12.600
24411W        W95011   5.660  43.447   3.496
24412W        W95012  29.901  31.620  13.483
24413W        W95013  22.758  23.933  11.590
24414W        W95014   7.815  35.006  13.040
24415W        W95015  40.254  10.536   1.446
24416W        W95016   2.882  20.677  14.447
24417W        W95017  11.965   7.163   2.947
24418W        W95018  35.149  15.147  10.731
24419W        W95019  30.554  24.502  13.885
24420W        W95020  37.405  11.196   4.133
24421W        W95021  19.638  15.659  12.604
24422W        W95022  20.764  43.512  12.861
24423W        W95023  40.346  42.966   0.788
24424W        W95024  39.641   8.255   1.522
24425W        W95025  36.003   5.700   0.355
24426W        W95026  35.327  32.948  13.501
24427W        W95027  37.152   5.754  11.382
24428W        W95028  35.155   2.717   4.470
24429W        W95029  39.011   9.083  14.904
24430W        W95030  44.478  33.952  11.215
24431W        W95031  31.232  38.736  12.442
24432W        W95032   3.747  17.728  13.121
24433W        W95033  43.018  43.725   4.040
24434W        W95034   1.853  18.562  10.958
24435W        W95035  25.678  38.091  12.461
24436W        W95036   9.786  24.569  13.556
24437W        W95037   2.080  32.369   2.219
24438W        W95038  26.071  14.609  14.884
24439W        W95039  25.999  34.297   3.781
24440W        W95040  20.595  42.473   3.804
24441W        W95041  12.725  36.191   0.597
24442W        W95042  37.920  42.517  13.443
24443W        W95043  15.094  36.124   3.613
24444W        W95044  34.522  27.781  11.653
24445W        W95045  31.566  28.991   2.382
24446W        W95046  42.835  27.085  14.189
24447W        W95047  35.466  36.867  12.034
24448W        W95048  38.038  31.567  11.236
24449W        W95049   1.619  43.091  13.755
24450W        W95050  10.929   9.351   2.293
24451W        W95051  21.660   0.749   4.860
24452W        W95052  30.285  32.997   1.387
24453W        W95053  13.308  32.834   4.224
24454W        W95054  15.470  17.258   5.017
24455W        W95055  14.114  37.364   2.230
24456W        W95056  30.882  26.751   0.264
24457W        W95057  40.244   6.762  12.112
24458W        W95058   9.894  38.316  11.478
24459W        W95059  39.909  37.620  12.967
24460W        W95060  25.293   8.800  12.277
24461W        W95061  34.658  25.089  13.547
24462W        W95062   7.084  43.388   2.463
24463W        W95063  31.554  24.832   1.136
24464W        W95064  22.063  23.733  11.966
24465W        W95065  19.822  39.716   3.161
24466W        W95066  14.765  16.174  14.402
24467W        W95067  13.727  19.794   4.701
24468W        W95068   2.407  35.709  11.140
24469W        W95069  42.679   0.962   0.883
24470W        W95070  28.376  34.312   2.062
24471W        W95071   3.235  10.153   2.266
24472W        W95072   3.447  19.681  13.977
24473W        W95073  16.872  21.812  13.878
24474W        W95074  25.534  31.414  11.451
24475W        W95075  42.786  42.309   0.051
24476W        W95076   9.143  11.312   2.775
24477W        W95077   8.820  22.493  10.557
24478W        W95078   8.642  38.536  14.959
24479W        W95079   4.374  33.308  13.877
24480W        W95080  23.505   6.830  12.991
24481W        W95081  40.594   3.445  12.959
24482W        W95082  16.106  17.708   1.716
24483W        W95083  30.229  12.726   1.798
24484W        W95084  38.333  23.471  13.392
24485W        W95085  13.722   9.239  10.910
24486W        W95086  20.727  17.579  12.211
24487W        W95087  11.015  15.582   2.258
24488W        W95088  38.769  43.647   2.859
24489W        W95089  28.666  13.264  11.127
24490W        W95090   9.400  34.414  11.220
24491W        W95091  25.744  24.493  11.251
24492W        W95092  35.588  36.781   2.792
24493W        W95093  32.901  30.935   3.330
24494W        W95094   0.843  17.277  14.202
24495W        W95095  16.734  10.370   3.674
24496W        W95096  35.018  13.774   3.832
24497W        W95097  37.772   0.212   1.718
24498W        W95098  30.694  22.415  14.557
24499W        W95099  31.585  42.311  12.999
24500W        W95100  20.654   8.859  12.466
24501W        W95101  36.305  18.711   5.039
24502W        W95102  31.080  12.752   4.167
24503W        W95103   3.809  14.194   4.626
24504W        W95104  12.193  30.497  11.271
24505W        W95105  11.608  38.956  11.554
24506W        W95106  20.221  28.760  11.941
24507W        W95107   2.715   7.198  12.168
24508W        W95108  26.620   5.915  12.371
24509W        W95109  41.577  10.793   2.899
24510W        W95110  15.871  27.435  12.511
24511W        W95111   1.002  28.070   0.451
24512W        W95112  41.467  35.167  11.049
24513W        W95113  13.665   6.787   4.637
24514W        W95114   1.254  17.988  11.404
24515W        W95115   2.025  37.647   2.885
24516W        W95116  35.555  19.072   4.720
24517W        W95117   8.022  15.199  11.502
24518W        W95118   1.912  30.952  14.566
24519W        W95119   7.153   0.589   1.327
24520W        W95120  40.839   5.169   3.231
24521W        W95121   8.185  37.396   0.935
24522W        W95122   1.708  27.279   1.407
24523W        W95123  37.004  13.922  14.055
24524W        W95124  12.951  36.556  13.807
24525W        W95125  37.689  37.132  14.836
24526W        W95126  22.374  29.636   4.230
24527W        W95127   2.406  44.918   3.185
24528W        W95128  42.928  39.565  13.813
24529W        W95129   4.789   3.735   2.775
24530W        W95130  11.336  15.774   3.854
24531W        W95131  41.246  35.593  12.996
24532W        W95132  21.301  23.959  10.895
24533W        W95133  27.712  32.587   4.655
24534W        W95134  43.818  20.212   5.449
24535W        W95135  39.744  36.410  11.644
24536W        W95136  17.587  27.291  13.879
24537W        W95137   6.258  40.481   0.241
24538W        W95138  38.135  29.623  11.936
24539W        W95139  36.850  25.510  11.130
24540W        W95140  13.660  41.085   2.772
24541W        W95141  17.011  13.012  13.977
24542W        W95142  44.853  37.448   1.455
24543W        W95143  13.196   9.161  14.837
24544W        W95144  43.223  22.477   1.307
24545W        W95145  19.323  25.468  11.647
24546W        W95146   5.356  29.943  13.498
24547W        W95147  18.049   1.336   2.858
24548W        W95148  28.856  20.531  14.869
24549W        W95149   8.417  40.367   0.911
24550W        W95150  37.877  16.735   3.197
24551W        W95151  32.213  11.739   3.300
24552W        W95152  25.308  39.001  12.665
24553W        W95153  39.797  40.330   2.669
24554W        W95154   3.563  10.238  13.410
24555W        W95155  15.067  29.051  10.662
24556W        W95156  19.774  27.585   4.517
24557W        W95157  42.358  13.908  12.208
24558W        W95158  26.459  22.337  13.952
24559W        W95159  42.963  42.781   1.412
24560W        W95160  42.921  33.607  11.709
24561W        W95161   0.192  38.630   0.477
24562W        W95162  17.256  34.487   0.242
24563W        W95163  15.502  42.474  14.499
24564W        W95164  23.924  28.545  11.199
24565W        W95165  22.031  29.182   3.769
24566W        W95166  13.318  23.113   1.722
24567W        W95167   1.535  12.220  14.504
24568W        W95168  41.987  41.237   3.280
24569W        W95169  31.510  20.680   1.370
24570W        W95170  13.801  22.982   2.632
24571W        W95171  39.133  18.502  12.037
24572W        W95172   2.743  25.970  14.960
24573W        W95173  19.203  34.724   2.612
24574W        W95174  17.948   6.700   2.173
24575W        W95175   0.442   4.713  14.727
24576W        W95176  21.729  39.443  10.953
24577W        W95177  20.207  20.991   0.873
24578W        W95178  28.245  33.671  14.440
24579W        W95179  25.481   6.314   1.880
24580W        W95180  17.687   4.957   4.679
24581W        W95181  23.459  36.537  11.996
24582W        W95182   8.967   7.491  13.319
24583W        W95183  25.752  30.627  11.991
24584W        W95184  13.127  35.335   3.865
24585W        W95185  25.116  42.558  11.590
24586W        W95186   7.775  28.915   2.782
24587W        W95187  44.526  23.268  10.755
24588W        W95188   8.845   8.825  14.286
24589W        W95189  19.183  39.532  14.758
24590W        W95190  24.923  34.922  12.009
24591W        W95191  10.506  15.816  10.714
24592W        W95192  13.561  35.908  12.679
24593W        W95193  40.003   3.895  13.034
24594W        W95194  17.691  33.806  11.569
24595W        W95195   6.515  11.827   2.923
24596W        W95196   7.237  43.037   4.265
24597W        W95197  37.065  35.779   4.085
24598W        W95198  22.553  29.032  12.149
24599W        W95199  20.998   7.338  13.870
24600W        W95200   8.104  22.993  14.965
24601W        W95201  20.510  38.569   3.603
24602W        W95202  11.939  14.679   2.829
24603W        W95203  41.968   1.977  13.119
24604W        W95204  38.878   9.329   3.644
24605W        W95205  23.092  25.745  11.208
24606W        W95206  38.720  17.849  11.033
24607W        W95207  13.644  30.494   1.123
24608W        W95208   7.308  22.719  14.447
24609W        W95209  35.778  16.622   1.391
24610W        W95210  24.709  32.381   3.708
24611W        W95211   8.373  11.060  13.877
24612W        W95212  36.517  10.359   3.675
24613W        W95213  29.301  28.664   2.354
24614W        W95214  10.725  29.697   4.242
24615W        W95215  28.422  13.217   2.915
24616W        W95216  14.824  21.765  12.459
24617W        W95217   2.390  37.815   3.234
24618W        W95218  27.162  23.735   2.252
24619W        W95219  38.544  22.754  14.035
24620W        W95220  35.375  34.412  14.815
24621W        W95221  18.396  41.574  10.875
24622W        W95222  26.854  22.025   0.950
24623W        W95223   7.234   4.286  12.958
24624W        W95224  22.144   6.486  11.969
24625W        W95225   5.843  16.209  10.539
24626W        W95226  17.532  12.596  12.049
24627W        W95227  31.487  34.378   1.860
24628W        W95228  39.666  17.998   3.960
24629W        W95229   3.978  43.318  10.671
24630W        W95230  24.085  22.234  10.593
24631W        W95231   8.163  23.770  14.333
24632W        W95232  15.917  17.846   4.500
24633W        W95233  19.955  34.836   3.842
24634W        W95234  37.801  27.418  13.354
24635W        W95235  24.616  21.143   4.369
24636W        W95236  42.256  14.851  11.247
24637W        W95237  20.341  38.402  10.848
24638W        W95238   0.967  42.199   0.550
24639W        W95239  33.187   6.290   4.843
24640W        W95240  14.922   2.145   4.378
24641W        W95241  12.192  14.395   2.464
24642W        W95242  18.415   3.928  11.948
24643W        W95243  21.227  18.289  11.202
24644W        W95244  12.493  30.539   4.107
24645W        W95245   1.598   5.447   0.434
24646W        W95246  13.873  32.927   3.562
24647W        W95247  26.405  34.311  10.924
24648W        W95248   3.503  21.732   0.042
24649W        W95249  35.654  17.806  11.178
24650W        W95250  40.119   2.459  12.995
24651W        W95251  38.335  33.569  14.262
24652W        W95252  22.183  19.333  11.514
24653W        W95253  24.022  15.644   2.886
24654W        W95254  44.935  32.469   0.928
24655W        W95255  12.656   3.233   3.395
24656W        W95256  30.161   2.657   4.294
24657W        W95257  36.353  23.078  13.992
24658W        W95258  35.584   6.910   3.577
24659W        W95259  33.066  18.671   2.236
24660W        W95260  19.801   3.667   3.698
24661W        W95261  25.641  14.285   3.131
24662W        W95262  10.833  26.258  14.858
24663W        W95263  38.999   0.154  11.643
24664W        W95264  14.292  36.986  13.945
24665W        W95265   6.849  30.531   3.350
24666W        W95266  29.260   1.058  13.159
24667W        W95267   7.596   9.550   3.380
24668W        W95268   6.370  36.251  10.419
24669W        W95269  42.726  44.094   3.606
24670W        W95270  42.688  10.653   4.174
24671W        W95271   4.721  20.302   0.917
24672W        W95272  17.689  35.978   0.425
24673W        W95273  20.646  35.719   1.053
24674W        W95274  28.005  11.765  14.718
24675W        W95275  40.009  20.252   1.378
24676W        W95276  20.115   2.504   1.937
24677W        W95277   0.388  23.624   4.885
24678W        W95278  44.736  30.594   0.778
24679W        W95279  33.096  17.020  13.646
24680W        W95280  19.997  20.488  14.337
24681W        W95281   6.260  38.071   3.075
24682W        W95282  44.727   9.515  11.298
24683W        W95283  36.595   0.661   2.750
24684W        W95284  39.458   9.554  13.718
24685W        W95285  30.082  43.504   1.786
24686W        W95286  35.850  27.042  12.077
24687W        W95287  17.587  30.642  11.062
24688W        W95288  41.471  40.810   1.083
24689W        W95289   8.761   7.911  14.633
24690W        W95290  42.887  42.613   2.745
24691W        W95291   7.438  25.614   1.948
24692W        W95292  27.047  24.923  10.768
24693W        W95293  19.089  18.877   1.624
24694W        W95294   6.328  37.358  12.930
24695W        W95295  24.646   6.664   0.220
24696W        W95296  30.075  37.070   3.764
24697W        W95297  11.136  17.118   4.025
24698W        W95298   7.634  22.778   1.811
24699W        W95299  21.194  38.305   1.338
24700W        W95300  14.332  40.856  10.785
24701W        W95301  21.501  38.660  12.895
24702W        W95302  27.118  15.621   2.939
24703W        W95303  32.652  22.245  12.909
24704W        W95304  40.503  29.860  13.276
24705W        W95305  19.299  35.963  11.888
24706W        W95306  29.240  34.388  12.485
24707W        W95307  15.141   0.102   0.900
24708W        W95308  34.793  30.764   4.506
24709W        W95309  21.874  13.559   1.334
24710W        W95310   3.889  28.598  14.864
24711W        W95311   1.418  25.415  13.361
24712W        W95312  40.989  39.134  14.282
24713W        W95313   0.055  20.791   0.411
24714W        W95314  16.760   7.525   0.957
24715W        W95315  24.978   9.383   5.409
24716W        W95316  22.558  28.171  14.341
24717W        W95317   7.230  37.390  11.599
24718W        W95318  32.347  22.117   2.889
24719W        W95319  18.028  42.832   0.728
24720W        W95320  29.501   4.879   2.831
24721W        W95321   9.683  24.557  12.092
24722W        W95322  37.716  42.784  11.206
24723W        W95323  12.564  36.440   3.289
24724W        W95324  38.497  17.209  14.285
24725W        W95325   7.300   0.807  14.767
24726W        W95326  31.426  42.276  12.105
24727W        W95327  13.651   9.137  13.386
24728W        W95328  43.601  17.825   4.273
24729W        W95329  42.037  34.850   1.203
24730W        W95330  37.838  39.091  12.060
24731W        W95331   9.118  12.166  12.711
24732W        W95332  34.460  35.936   0.214
24733W        W95333  32.626  41.655   1.141
24734W        W95334  39.411  31.049  12.140
24735W        W95335   1.709   8.168   4.102
24736W        W95336  28.012   3.296   3.669
24737W        W95337  17.062  21.258  14.858
24738W        W95338  39.002  35.410   1.253
24739W        W95339  41.923  41.930   2.940
24740W        W95340  14.292  42.607  11.946
24741W        W95341  43.472   1.457   2.707
24742W        W95342   2.174  19.738  11.964
24743W        W95343  15.528  40.820   3.184
24744W        W95344  42.591  27.071  12.910
24745W        W95345  35.124  40.338   0.991
24746W        W95346  39.023  23.109  12.894
24747W        W95347  44.896  37.108   1.955
24748W        W95348  35.760  27.518  11.277
24749W        W95349  41.877  40.309  11.660
24750W        W95350  43.346  10.121  13.680
24751W        W95351  33.377   5.997   2.214
24752W        W95352  28.441  43.035   1.731
24753W        W95353  16.096   8.602  12.146
24754W        W95354  41.407   7.492   0.905
24755W        W95355  41.395  20.123   2.301
24756W        W95356   2.314  14.215  13.803
24757W        W95357   7.508  10.160  11.647
24758W        W95358  32.993  36.419  12.923
24759W        W95359  16.773  11.705   1.177
24760W        W95360  12.277   8.813   0.518
24761W        W95361  27.670  32.408  11.703
24762W        W95362   1.871  25.414   1.249
24763W        W95363   9.267  27.549   1.674
24764W        W95364  31.061  10.678   4.142
24765W        W95365  11.989   3.587   0.238
24766W        W95366  20.994  13.675   4.522
24767W        W95367  43.935   7.412   3.342
24768W        W95368  25.240  12.421  10.501
24769W        W95369  39.723  28.690   3.534
24770W        W95370  39.068  31.571  11.216
24771W        W95371  30.419  36.007   4.592
24772W        W95372  33.614   8.147  12.006
24773W        W95373  41.808  25.740  12.152
24774W        W95374  26.480  18.604   0.806
24775W        W95375  37.808  41.539  14.403
24776W        W95376  17.157  41.270   3.662
24777W        W95377   0.295  11.019   0.325
24778W        W95378  32.004   6.222   0.904
24779W        W95379   2.788  17.304  12.273
24780W        W95380  43.686  36.704   1.467
24781W        W95381   8.220  23.287  14.533
24782W        W95382  21.938   6.430  11.150
24783W        W95383   0.646  34.911  14.806
24784W        W95384  36.961  20.019  12.547
24785W        W95385  30.994  28.219  12.899
24786W        W95386  40.737  14.021   3.707
24787W        W95387  22.548  22.721  11.913
24788W        W95388  12.185  40.372  14.754
24789W        W95389  21.410  14.543  12.783
24790W        W95390  44.049  38.514   3.697
24791W        W95391  12.185  20.641   4.116
24792W        W95392  20.640  37.022   2.426
24793W        W95393  41.725  22.750  10.846
24794W        W95394  39.524  43.208  10.582
24795W        W95395  31.346  43.832  13.118
24796W        W95396  39.045  20.188  14.647
24797W        W95397  26.816   7.905  12.903
24798W        W95398   7.371  35.798   2.242
24799W        W95399   1.331  13.262   0.482
24800W        W95400  31.479  37.130   4.459
24801W        W95401  22.992  27.887   0.237
24802W        W95402  14.271  19.445   4.019
24803W        W95403  13.472   8.636  11.536
24804W        W95404  39.379   0.246  13.453
24805W        W95405  15.240  15.951  10.090
24806W        W95406  20.258  10.345   1.725
24807W        W95407  43.475  41.793   2.889
24808W        W95408  25.400   3.886  12.490
24809W        W95409   3.930   1.239   3.231
24810W        W95410  18.315   9.686  13.725
24811W        W95411  19.306  16.994   3.691
24812W        W95412  31.241  29.383  11.067
24813W        W95413  18.337  29.101   4.784
24814W        W95414  12.836  37.082   3.726
24815W        W95415   6.133   9.773   3.300
24816W        W95416  12.757  31.440  11.054
24817W        W95417  19.498  17.674  14.968
24818W        W95418  16.105  40.059   2.801
24819W        W95419  31.526  40.787   3.270
24820W        W95420  37.908  29.552  13.801
24821W        W95421   8.752  39.609   1.907
24822W        W95422  32.415  39.838   3.301
24823W        W95423  38.059  12.752   1.360
24824W        W95424   1.837   2.527  12.114
24825W        W95425  13.343  23.888  13.514
24826W        W95426  19.384  22.567   0.511
24827W        W95427  39.487   8.307   0.992
24828W        W95428   0.061   8.464  10.638
24829W        W95429  29.484  29.044   2.684
24830W        W95430  24.266  14.103   0.516
24831W        W95431  22.888   6.454   2.591
24832W        W95432   8.335   3.902   0.367
24833W        W95433  22.986  30.628  11.671
24834W        W95434  31.366  12.698   1.286
24835W        W95435  10.182  21.292  13.629
24836W        W95436  24.952   4.682   4.667
24837W        W95437  15.106  16.322  10.397
24838W        W95438   3.779  14.735  12.664
24839W        W95439  15.735  14.577  11.626
24840W        W95440  32.971  25.465   4.719
24841W        W95441   2.431  19.066  11.178
24842W        W95442   2.702  32.402  12.000
24843W        W95443  27.760   3.857  14.028
24844W        W95444   1.841  28.386  13.980
24845W        W95445   4.914  25.558  13.909
24846W        W95446   5.731  20.207  13.351
24847W        W95447  38.064   2.886  14.352
24848W        W95448   7.821  21.181   2.336
24849W        W95449   0.367   5.934  12.417
24850W        W95450  28.709  26.995   0.876
24851W        W95451   4.179   3.433  14.884
24852W        W95452  30.466  17.253   3.762
24853W        W95453  30.077  34.889   3.145
24854W        W95454  26.091  41.746   2.192
24855W        W95455  18.735  23.998  13.135
24856W        W95456   7.472   4.700   4.725
24857W        W95457   4.703   1.332   2.537
24858W        W95458  37.000  27.164   4.943
24859W        W95459  16.798   0.890   4.852
24860W        W95460   1.326  24.683  13.886
24861W        W95461  26.950  37.819   2.131
24862W        W95462  31.823   7.325   0.866
24863W        W95463  34.833   9.132  11.526
24864W        W95464  29.710  11.268  14.572
24865W        W95465  28.509  23.903   0.680
24866W        W95466   1.185  37.095  13.291
24867W        W95467  23.090  41.800  10.761
24868W        W95468  28.065  20.845  11.343
24869W        W95469  14.609  15.497  14.688
24870W        W95470  19.196   3.794   0.353
24871W        W95471  17.289  14.836   0.110
24872W        W95472   5.598  29.774  11.106
24873W        W95473  36.696  44.308  11.132
24874W        W95474  37.662  32.599  12.543
24875W        W95475  32.875  10.067  14.998
24876W        W95476  19.471  41.412  12.443
24877W        W95477  11.795  13.419  12.927
24878W        W95478  21.577  44.796  13.487
24879W        W95479   4.242   7.826  14.511
24880W        W95480  19.751  42.520   3.195
24881W        W95481  11.306  42.644  10.116
24882W        W95482  32.644   0.320   2.884
24883W        W95483   6.342  37.609   2.848
24884W        W95484   5.684  42.053   2.308
24885W        W95485  36.838   7.682  10.702
24886W        W95486   0.369  12.932  11.186
24887W        W95487   6.825  21.070   3.239
24888W        W95488  35.901  29.605   4.675
24889W        W95489   5.942  15.862  10.003
24890W        W95490  43.441  28.202  14.018
24891W        W95491  31.661  41.395   1.861
24892W        W95492  29.992   8.581   1.461
24893W        W95493   1.826   8.278   2.671
24894W        W95494  25.002  12.181   2.341
24895W        W95495  10.332  37.475   3.370
24896W        W95496  39.697  39.882  12.848
24897W        W95497  24.108  34.386  10.742
24898W        W95498  29.963  32.192   4.157
24899W        W95499  20.258  37.451  11.129
24900W        W95500  41.091  42.947  12.533
24901W        W95501  44.905   2.300   3.407
24902W        W95502   8.005  41.105   4.470
24903W        W95503  38.968  22.250  13.502
24904W        W95504   6.749   2.015   4.322
24905W        W95505  25.129  12.865  12.139
24906W        W95506  42.874  12.581  10.721
24907W        W95507  16.414  26.051  13.497
24908W        W95508  41.554  42.263   3.381
24909W        W95509  13.547  26.571   2.781
24910W        W95510   8.863  36.817  13.475
24911W        W95511   3.790  17.617   4.945
24912W        W95512  34.107  21.384  12.890
24913W        W95513  33.990  27.404   2.731
24914W        W95514   6.280   4.075   4.850
24915W        W95515  17.681   6.347  12.788
24916W        W95516  27.508   4.275  13.296
24917W        W95517  40.439  42.052   1.329
24918W        W95518  23.662  25.525  11.851
24919W        W95519  23.738   8.505  11.975
24920W        W95520  15.822  36.575   4.549
24921W        W95521  41.626  30.497   3.924
24922W        W95522  25.461   0.411   2.201
24923W        W95523  40.914  21.454   2.346
24924W        W95524  16.048  24.729  14.421
24925W        W95525  31.430  13.425  13.609
24926W        W95526  33.904  37.404   1.789
24927W        W95527  12.648  37.621   0.332
24928W        W95528  36.430  44.723   2.670
24929W        W95529  20.654  37.056   1.325
24930W        W95530  28.316  41.411   4.829
24931W        W95531  24.684   6.292  14.350
24932W        W95532  26.574  10.662  12.991
24933W        W95533  24.208  13.236   4.674
24934W        W95534   9.443  24.448  12.531
24935W        W95535  15.869  43.810   4.460
24936W        W95536   0.576  19.560   2.285
24937W        W95537   5.844  14.109   0.050
24938W        W95538  21.680  33.515  13.639
24939W        W95539  44.523  38.454  12.447
24940W        W95540  33.332  10.813  12.968
24941W        W95541  36.569   7.897  11.827
24942W        W95542  34.536  19.008  14.831
24943W        W95543   4.845  18.826   0.363
24944W        W95544  12.805  25.709  10.818
24945W        W95545  39.361  28.059  11.088
24946W        W95546   2.375   7.694   0.597
24947W        W95547  17.328  30.584  14.264
24948W        W95548  18.925  44.412  14.330
24949W        W95549  17.117  29.499   4.446
24950W        W95550  39.749  43.258   0.361
24951W        W95551  12.027  27.501   0.770
24952W        W95552  11.333   1.680   2.593
24953W        W95553  32.926  16.888   1.162
24954W        W95554  38.159  35.095  10.976
24955W        W95555  31.051  29.540   0.839
24956W        W95556   8.126  28.679  14.823
24957W        W95557  13.202  20.957  11.985
24958W        W95558  11.219  23.550  13.709
24959W        W95559  30.080  12.895  10.753
24960W        W95560  17.819  18.283   4.621
24961W        W95561   6.269  40.545   0.765
24962W        W95562  28.269   8.865   9.824
24963W        W95563  33.827  10.833   0.265
24964W        W95564  17.330  41.523  14.547
24965W        W95565  25.635   7.991   3.168
24966W        W95566  17.388  24.172  12.855
24967W        W95567   9.349  23.635   2.901
24968W        W95568   5.405  34.904  12.127
24969W        W95569  24.611   3.312  12.826
24970W        W95570   8.083   2.517   4.152
24971W        W95571  16.277  23.635   3.673
24972W        W95572  16.542  43.829  11.000
24973W        W95573  23.103  33.592  11.824
24974W        W95574  12.756  31.191   3.172
24975W        W95575  10.812   0.282  10.668
24976W        W95576   6.410  35.474   0.319
24977W        W95577  36.428  15.515  14.527
24978W        W95578  42.233  29.512  11.468
24979W        W95579  28.958  26.718  13.859
24980W        W95580  35.329  34.534   0.311
24981W        W95581  16.377  21.913  14.624
24982W        W95582   9.640  25.231   1.248
24983W        W95583   2.683  18.715   3.647
24984W        W95584  42.046   5.185  13.877
24985W        W95585   5.921   1.068   4.271
24986W        W95586   2.975   8.754  12.496
24987W        W95587  24.224  15.279  12.887
24988W        W95588  27.418   6.633   3.232
24989W        W95589   8.362  18.156  11.608
24990W        W95590  33.585  41.938   4.731
24991W        W95591  11.368  28.206  12.930
24992W        W95592  15.601  22.672   3.339
24993W        W95593   8.502   9.870   4.391
24994W        W95594  35.377  10.720   4.554
24995W        W95595  25.950   2.459   3.756
24996W        W95596   1.389  25.935  13.350
24997W        W95597  18.961  22.119  12.449
24998W        W95598  31.430  14.602  11.137
24999W        W95599  28.214  24.167   3.920
25000W        W95600  28.441  39.760   1.305
25001W        W95601  24.188  39.372   1.781
25002W        W95602   9.836  12.078   1.426
25003W        W95603  31.830   5.951   5.098
25004W        W95604  40.452   4.477  11.897
25005W        W95605  15.638   7.169   4.524
25006W        W95606   6.909  17.634   4.654
25007W        W95607  43.476  14.106   1.900
25008W        W95608  19.769  26.055  12.296
25009W        W95609   4.084  42.010  14.358
25010W        W95610  11.161  35.001   2.281
25011W        W95611  39.114   1.947   1.953
25012W        W95612  30.092  20.514  13.516
25013W        W95613   4.444  19.072   2.324
25014W        W95614  19.952  34.073  13.525
25015W        W95615  33.049  26.629   2.282
25016W        W95616  26.743   1.796  14.883
25017W        W95617  21.807  44.050   3.572
25018W        W95618  24.609  37.638   0.254
25019W        W95619  26.015  25.225   3.316
25020W        W95620   5.973  16.230  14.288
25021W        W95621  33.452   0.432  12.902
25022W        W95622  30.358  39.369  12.901
25023W        W95623  21.547  27.235  12.636
25024W        W95624  19.425  20.954   5.189
25025W        W95625  41.424   7.358   4.482
25026W        W95626   7.828  14.220  14.873
25027W        W95627  43.485  12.784   2.147
25028W        W95628   1.708  20.769   2.272
25029W        W95629  32.489  31.502  14.831
25030W        W95630  29.873  24.898  13.962
25031W        W95631  36.893   2.963   3.700
25032W        W95632  39.434  11.826  11.061
25033W        W95633  26.216  19.633   3.197
25034W        W95634  40.854  20.914  12.030
25035W        W95635   1.235   5.048  14.109
25036W        W95636  35.591  13.686   0.725
25037W        W95637  16.413  42.590  14.782
25038W        W95638  28.229  10.422   0.920
25039W        W95639   8.169  41.541   4.709
25040W        W95640  44.275  36.637  14.888
25041W        W95641  37.853  10.177  13.328
25042W        W95642  29.568  10.625  14.028
25043W        W95643  32.054   6.763  13.522
25044W        W95644  15.631  29.524   3.619
25045W        W95645  28.412  21.288   2.324
25046W        W95646  29.482  38.485   0.246
25047W        W95647  35.608  22.851   1.309
25048W        W95648   8.070  22.972  10.527
25049W        W95649  10.044   3.904   2.911
25050W        W95650   2.517  44.579  13.467
25051W        W95651  15.194   0.287   2.696
25052W        W95652  43.378   8.597  10.777
25053W        W95653  15.588  42.842   1.039
25054W        W95654  26.314  14.613  13.149
25055W        W95655  23.436  38.767   3.667
25056W        W95656   1.982  26.080  14.880
25057W        W95657   0.017  35.017  11.073
25058W        W95658  16.080   6.808   0.956
25059W        W95659  31.863  38.648   3.730
25060W        W95660  20.766  33.412   2.803
25061W        W95661   4.294   3.494  14.356
25062W        W95662   8.347  11.578  13.852
25063W        W95663  14.197  14.422   3.153
25064W        W95664   2.829   5.697   2.156
25065W        W95665   9.191  21.784  13.388
25066W        W95666  20.989   7.588  13.393
25067W        W95667  11.264  18.215   0.688
25068W        W95668   2.542  40.446   1.046
25069W        W95669  13.036  33.288   4.237
25070W        W95670   1.190  27.690  14.290
25071W        W95671  40.652  10.125  12.900
25072W        W95672  14.197  17.465   1.778
25073W        W95673  42.882  23.268  13.957
25074W        W95674  12.817   5.088   0.323
25075W        W95675   5.939  38.386  12.088
25076W        W95676  41.839  34.856   0.355
25077W        W95677   8.975   0.468   2.752
25078W        W95678   8.392  13.191   1.353
25079W        W95679  10.739   2.654   2.285
25080W        W95680  29.152  38.479   4.517
25081W        W95681  33.060  13.096   0.202
25082W        W95682  29.535  21.250   1.083
25083W        W95683  32.029   8.151  14.946
25084W        W95684   6.381  25.655   0.264
25085W        W95685   2.004  15.801   2.406
25086W        W95686  11.897  37.699   2.288
25087W        W95687  34.457  28.164   3.588
25088W        W95688  25.916  23.009   3.624
25089W        W95689  43.210  28.204  10.217
25090W        W95690  36.014  18.053  13.854
25091W        W95691  12.427  36.872  13.416
25092W        W95692  42.267  15.045   1.226
25093W        W95693  23.101   0.677  11.126
25094W        W95694  27.883  14.281  10.268
25095W        W95695  44.800  24.275  11.413
25096W        W95696  25.403  41.362  13.046
25097W        W95697  14.701  28.176  14.931
25098W        W95698  44.329  20.353  10.786
25099W        W95699  17.825  25.157   1.888
25100W        W95700  25.431  21.132   3.692
25101W        W95701  18.767  35.951   0.410
25102W        W95702  32.160   9.417  11.115
25103W        W95703   6.565  40.015   2.798
25104W        W95704  19.764   2.725   0.798
25105W        W95705  37.604  18.210   4.627
25106W        W95706  13.091  39.931   3.686
25107W        W95707  18.984  26.998   2.377
25108W        W95708  15.805  23.964   0.701
25109W        W95709  42.893  43.869  11.633
25110W        W95710   8.577   4.549   2.748
25111W        W95711  27.207  41.377   0.245
25112W        W95712  36.474  41.736   0.273
25113W        W95713  37.450  39.373   4.951
25114W        W95714  33.024  29.433   3.076
25115W        W95715   4.813  19.613  12.137
25116W        W95716  32.597  17.388  10.938
25117W        W95717  17.114  30.062  12.765
25118W        W95718  35.123  30.727   2.090
25119W        W95719  38.792   8.850  12.157
25120W        W95720  27.262  37.269   3.638
25121W        W95721   6.197  11.486   0.386
25122W        W95722   3.334  23.038  11.154
25123W        W95723  32.666  22.225  11.199
25124W        W95724  35.032  20.751   0.891
25125W        W95725  39.035  41.913   3.325
25126W        W95726  16.813  32.824   9.769
25127W        W95727   0.574  19.536  10.543
25128W        W95728   5.425  24.079  13.109
25129W        W95729  12.768  26.674  14.454
25130W        W95730  15.585  28.603   4.205
25131W        W95731   7.437  25.486   4.625
25132W        W95732  27.072  12.592   3.334
25133W        W95733  25.393  20.209   3.638
25134W        W95734  40.177  22.527  12.531
25135W        W95735   6.159  26.223  12.128
25136W        W95736   2.452   7.838   2.013
25137W        W95737  21.074  15.204   1.448
25138W        W95738  13.295   8.232   2.287
25139W        W95739  18.204   4.816  12.241
25140W        W95740  42.308  23.103   4.628
25141W        W95741  43.269   1.381  13.053
25142W        W95742  32.933  24.600  12.377
25143W        W95743  18.831  11.055  13.981
25144W        W95744  10.893  18.615   1.275
25145W        W95745  43.444  19.674   2.177
25146W        W95746   6.756  32.885  14.302
25147W        W95747  32.501   2.147  12.380
25148W        W95748  10.862  19.257  13.873
25149W        W95749   6.805  18.464  12.020
25150W        W95750   1.708  20.165  13.963
25151W        W95751   8.491   3.120  10.652
25152W        W95752   0.991   2.864  14.595
25153W        W95753  12.847   3.730   2.256
25154W        W95754  27.599  38.242  11.982
25155W        W95755  22.261  38.550   1.415
25156W        W95756  22.975   5.334   0.567
25157W        W95757  42.864  26.499  14.973
25158W        W95758   4.481  12.804   2.423
25159W        W95759  20.856  43.325  14.845
25160W        W95760   6.619  11.317   1.308
25161W        W95761  18.532  28.924  12.383
25162W        W95762  18.680  37.526   1.845
25163W        W95763  21.088  34.437  13.065
25164W        W95764  12.710  19.933   4.552
25165W        W95765  20.249  41.244  12.862
25166W        W95766  44.386  14.967  11.282
25167W        W95767  35.400  10.917  13.509
25168W        W95768   9.331  32.537  10.179
25169W        W95769  36.951  12.716   0.154
25170W        W95770   2.856  17.769   2.383
25171W        W95771  23.662   7.815  13.585
25172W        W95772   1.884   4.775  14.937
25173W        W95773  31.177  41.335  13.969
25174W        W95774  43.443  18.817  10.880
25175W        W95775  13.006   4.757  13.989
25176W        W95776  39.425  42.721  10.768
25177W        W95777  17.741  29.186   0.715
25178W        W95778   9.388  29.704  13.478
25179W        W95779  10.810  30.653   1.907
25180W        W95780  43.597  11.515   1.505
25181W        W95781  14.160  39.815  11.445
25182W        W95782  41.611  34.529   1.863
25183W        W95783  31.141  41.200  14.862
25184W        W95784  40.922  16.782  14.429
25185W        W95785   3.714  22.729  11.042
25186W        W95786  29.973   0.271  10.923
25187W        W95787  35.095  12.651   1.369
25188W        W95788  10.210   9.715   4.290
25189W        W95789   8.542   8.897  11.091
25190W        W95790  39.439  29.520   0.381
25191W        W95791   0.119  14.239  14.890
25192W        W95792   0.165  40.007  11.568
25193W        W95793  30.467  42.651  13.593
25194W        W95794  39.293  14.212   1.164
25195W        W95795  40.380   7.426   4.566
25196W        W95796  26.646  22.805  13.880
25197W        W95797   6.844   6.608   0.433
25198W        W95798  15.049  23.196   2.316
25199W        W95799   2.069  41.459  11.633
25200W        W95800  40.108  32.050  13.450
25201W        W95801   9.179  38.038  11.182
25202W        W95802  20.082  34.559  12.084
25203W        W95803  35.411  19.533   0.434
25204W        W95804   6.293  14.407   2.293
25205W        W95805  38.702  20.504   4.594
25206W        W95806  42.653  39.077   0.817
25207W        W95807  10.303   5.304   1.425
25208W        W95808  23.397  30.049  13.331
25209W        W95809  30.640   5.460  11.993
25210W        W95810  15.015  12.599   0.691
25211W        W95811   5.490  10.140   0.290
25212W        W95812  17.543  43.831   1.901
25213W        W95813  17.029  19.813   4.136
25214W        W95814  43.328   3.360   3.061
25215W        W95815  36.320  11.527   2.798
25216W        W95816   6.168  13.684   0.316
25217W        W95817   0.695   0.430  12.139
25218W        W95818  28.186  33.032  11.650
25219W        W95819  43.541  22.672  13.627
25220W        W95820   1.777  40.816  13.476
25221W        W95821  39.528   3.379   3.276
25222W        W95822   1.225  38.310  11.497
25223W        W95823  44.370   4.098  14.626
25224W        W95824   5.419   2.158  12.993
25225W        W95825  44.582  20.841  10.204
25226W        W95826  32.198  20.287   0.018
25227W        W95827  28.402  37.198  13.007
25228W        W95828  33.972  40.587  12.941
25229W        W95829  39.956  22.253  11.711
25230W        W95830  38.611   7.154  11.987
25231W        W95831  17.383  13.648   1.290
25232W        W95832  33.239   4.829  12.926
25233W        W95833  15.798  30.975   3.717
25234W        W95834  13.581  25.073  14.838
25235W        W95835  28.523  26.036   2.650
25236W        W95836  10.291  15.165   1.748
25237W        W95837  37.798  21.969  12.266
25238W        W95838  31.333  21.439   3.854
25239W        W95839  42.956  32.629   1.760
25240W        W95840  42.836  29.817  12.071
25241W        W95841  37.924  34.632  14.961
25242W        W95842  26.482   7.437  10.515
25243W        W95843  30.039  21.749  13.945
25244W        W95844   2.006  18.083  10.256
25245W        W95845  26.244  43.957  11.221
25246W        W95846  10.800  16.857   4.939
25247W        W95847  36.554   3.795  13.197
25248W        W95848  21.612  18.675  13.415
25249W        W95849  21.230  27.056  11.810
25250W        W95850  41.385  40.043   4.426
25251W        W95851  25.752   4.433  14.341
25252W        W95852  40.411   9.854  14.921
25253W        W95853  18.478  18.771   3.723
25254W        W95854  28.551  18.053  12.851
25255W        W95855  42.630  39.440  11.002
25256W        W95856   5.326  43.586  13.435
25257W        W95857   4.670  29.965  14.796
25258W        W95858   6.428  17.106   3.176
25259W        W95859  30.704  17.715   2.723
25260W        W95860   8.168  30.858   2.369
25261W        W95861  24.990  14.089   3.701
25262W        W95862  24.230  15.795   4.147
25263W        W95863  43.027  27.172  11.969
25264W        W95864  34.610  17.260  11.141
25265W        W95865  30.390   0.379   0.540
25266W        W95866   0.970  16.610   0.266
25267W        W95867   0.423  36.630  11.103
25268W        W95868  34.963  41.493   2.120
25269W        W95869  17.947  40.772   3.899
25270W        W95870  24.981  35.568  14.710
25271W        W95871  19.083  22.193   3.390
25272W        W95872  33.949  32.909  12.999
25273W        W95873   4.899  28.758   4.227
25274W        W95874  39.922   9.230   1.330
25275W        W95875  18.171  30.381   3.300
25276W        W95876  32.106  27.693  10.724
25277W        W95877   1.343   2.945  13.628
25278W        W95878  42.425  22.285  10.464
25279W        W95879  28.993  14.039  10.990
25280W        W95880  20.234  32.005  10.362
25281W        W95881  27.484  28.974  13.168
25282W        W95882   9.305  44.356   4.375
25283W        W95883  44.008  28.153  10.819
25284W        W95884  40.533  34.485  10.221
25285W        W95885  13.743  11.535   0.965
25286W        W95886  38.273  32.039   1.424
25287W        W95887  15.404  15.612   2.292
25288W        W95888  23.537  19.011  13.933
25289W        W95889  12.268  19.707  11.498
25290W        W95890  10.066  32.721   4.142
25291W        W95891  10.770  27.468   0.504
25292W        W95892   0.586  24.132  10.820
25293W        W95893  43.843   4.330   1.965
25294W        W95894  44.771   3.497   2.961
25295W        W95895  17.114  10.858  11.443
25296W        W95896  17.725  17.813  12.217
25297W        W95897  33.599  26.138  11.520
25298W        W95898  37.923  35.355   3.637
25299W        W95899   1.271  37.690  14.905
25300W        W95900   4.662  14.430  10.633
25301W        W95901  40.366  26.103   1.950
25302W        W95902  30.455  10.293   0.348
25303W        W95903  27.334  24.127  14.157
25304W        W95904  26.827   9.787   3.612
25305W        W95905  38.428  37.013  10.601
25306W        W95906   2.312  41.065   1.716
25307W        W95907   3.590  28.183   4.164
25308W        W95908  40.299  33.098  10.550
25309W        W95909  42.478  11.129   3.245
25310W        W95910  16.666   5.314   2.490
25311W        W95911  16.946  18.730  13.628
25312W        W95912  18.774  41.440  10.532
25313W        W95913  37.495  16.115   0.790
25314W        W95914   4.814   6.939   0.204
25315W        W95915  20.816  27.682   3.620
25316W        W95916  22.711  11.665   1.665
25317W        W95917   9.912  40.328   4.135
25318W        W95918   2.021  44.370   2.401
25319W        W95919  36.281   4.414   3.823
25320W        W95920   6.173  24.444   1.257
25321W        W95921   8.708  26.002   1.877
25322W        W95922  24.606  20.478  11.436
25323W        W95923  15.257  38.727   0.397
25324W        W95924  37.089  30.077   1.396
25325W        W95925  44.799  18.801   3.747
25326W        W95926  26.454  24.605  13.358
25327W        W95927  30.584  25.286  14.493
25328W        W95928  39.792  16.602   2.332
25329W        W95929  38.630  38.770   2.629
25330W        W95930  25.874  24.004  13.197
25331W        W95931  41.451  26.449  13.606
25332W        W95932  37.582  41.064  12.059
25333W        W95933  17.533  17.871   4.416
25334W        W95934  11.564  27.465  13.523
25335W        W95935  25.161  10.772   0.785
25336W        W95936  20.589  37.291   0.837
25337W        W95937  23.511  43.209   3.826
25338W        W95938   4.876  26.231   2.808
25339W        W95939   4.368  39.468   1.055
25340W        W95940   9.329  43.320   2.404
25341W        W95941  39.814  40.307   3.188
25342W        W95942  31.646  26.047   3.547
25343W        W95943  11.590  40.489   2.729
25344W        W95944  12.889  19.562   2.155
25345W        W95945  12.706  32.394   0.843
25346W        W95946  43.963  13.986  14.391
25347W        W95947  14.160   5.014  12.089
25348W        W95948   3.120  32.339  11.636
25349W        W95949  34.865  42.120  14.082
25350W        W95950  37.004  37.606  10.379
25351W        W95951   6.719  40.005  10.759
25352W        W95952  13.910  21.465  13.727
25353W        W95953  31.979   1.051   0.775
25354W        W95954  26.460  33.485  11.205
25355W        W95955  18.233  16.210   4.343
25356W        W95956  28.068  15.166  10.010
25357W        W95957  19.194   6.260   1.442
25358W        W95958  11.295  41.076   3.622
25359W        W95959  37.399  11.644  13.160
25360W        W95960  21.878   7.186  13.460
25361W        W95961  29.043  21.159   0.888
25362W        W95962  24.236  17.893   2.519
25363W        W95963  24.992   7.303   3.254
25364W        W95964  23.147  22.981   1.204
25365W        W95965  14.522  41.931   2.407
25366W        W95966  38.894  25.767  13.974
25367W        W95967  18.254  29.003  11.025
25368W        W95968  33.138   6.652  13.549
25369W        W95969  37.578   7.714  11.233
25370W        W95970   5.846  38.781   3.404
25371W        W95971   4.406  29.936  13.298
25372W        W95972  27.601  32.101  12.170
25373W        W95973   0.862  32.409  11.100
25374W        W95974  21.492   4.849   3.119
25375W        W95975  30.954   2.985   0.877
25376W        W95976  13.868  24.694  13.619
25377W        W95977  44.621  38.653  13.691
25378W        W95978  23.457  35.786  11.585
25379W        W95979  10.800  28.224  12.956
25380W        W95980  23.147  29.831   1.936
25381W        W95981  28.692  26.109   1.722
25382W        W95982   3.086  12.252   3.677
25383W        W95983  30.628  26.862  10.657
25384W        W95984  25.662  28.549  11.366
25385W        W95985  12.876   2.398   2.153
25386W        W95986  42.494  14.396   0.738
25387W        W95987  13.095  16.304   1.231
25388W        W95988  35.768   7.362  12.408
25389W        W95989  40.355   6.767  11.621
25390W        W95990  25.934  37.985   4.148
25391W        W95991  43.365  44.369  10.098
25392W        W95992  34.303  33.154   1.298
25393W        W95993  44.982   3.853  12.635
25394W        W95994  25.666  18.029   3.162
25395W        W95995   5.798  17.609  14.346
25396W        W95996  16.639   2.740   2.910
25397W        W95997  30.143  30.375  10.574
25398W        W95998  25.631  20.213  14.951
25399W        W95999  25.150  38.545   1.831
25400W        W96000  30.214  29.658   3.440
25401W        W96001  39.780  25.239  11.230
25402W        W96002   4.330  27.045  14.487
25403W        W96003  15.557   3.301   3.264
25404W        W96004  32.952   4.312  13.506
25405W        W96005  35.651  38.890   3.559
25406W        W96006  12.624  19.450   0.262
25407W        W96007   2.807  11.642  12.532
25408W        W96008  36.948  27.499   2.192
25409W        W96009  24.925  11.189  14.600
25410W        W96010  34.035  33.874  12.321
25411W        W96011  19.493  15.037  11.656
25412W        W96012   2.367  40.932   0.268
25413W        W96013  11.274  43.959   1.613
25414W        W96014  34.963  32.826  11.294
25415W        W96015  31.943  35.886  12.893
25416W        W96016  41.931  35.172   3.500
25417W        W96017  33.698  20.112   3.313
25418W        W96018  11.562  23.967   0.857
25419W        W96019  36.394  28.127  14.720
25420W        W96020  20.623  29.197   1.505
25421W        W96021  12.595  22.487  14.392
25422W        W96022  20.299  20.348   2.655
25423W        W96023  11.376  37.908  12.192
25424W        W96024   9.227  40.044   3.989
25425W        W96025   2.049  23.126  13.566
25426W        W96026  19.626  14.415   3.130
25427W        W96027  11.827  28.203  14.318
25428W        W96028   3.445  33.631   3.341
25429W        W96029   6.385  23.549   3.860
25430W        W96030  35.757  13.199   3.073
25431W        W96031   5.885  22.950   1.805
25432W        W96032  26.416   6.829  13.488
25433W        W96033  26.902   9.173  11.454
25434W        W96034  22.560  10.430   3.729
25435W        W96035  25.385  11.442  12.136
25436W        W96036  43.412  14.319  10.403
25437W        W96037   0.984  15.764  10.791
25438W        W96038   0.471   3.329   4.596
25439W        W96039   6.772  37.577  10.638
25440W        W96040  23.269  42.798   2.845
25441W        W96041  42.517   4.958   1.317
25442W        W96042   9.907   8.374  13.894
25443W        W96043   2.178  24.180   1.866
25444W        W96044  15.654  14.138   2.257
25445W        W96045  18.608  27.119  14.969
25446W        W96046  11.370   4.478   3.466
25447W        W96047   6.423  13.501  14.710
25448W        W96048  33.736  42.991   1.812
25449W        W96049  41.934  22.309  11.599
25450W        W96050  41.222  31.582  11.266
25451W        W96051  22.308  29.995  12.952
25452W        W96052  11.966   7.255   1.233
25453W        W96053  40.498   7.186   4.140
25454W        W96054  35.318   6.327   2.282
25455W        W96055  21.446  30.532  13.601
25456W        W96056  19.440  31.945  14.229
25457W        W96057   8.797  11.369  14.024
25458W        W96058   9.286  16.262   1.705
25459W        W96059   5.402  42.764   2.762
25460W        W96060  20.116  19.204  14.984
25461W        W96061  32.914  27.543   2.630
25462W        W96062  11.032  30.362   3.600
25463W        W96063  35.938   1.298  12.516
25464W        W96064  10.201   2.764  13.431
25465W        W96065  25.638  16.556  13.403
25466W        W96066  31.557  35.919   1.140
25467W        W96067   9.844  22.055   3.075
25468W        W96068  21.123   6.861   3.773
25469W        W96069   1.678  44.736   3.694
25470W        W96070  10.809   7.644  13.118
25471W        W96071  10.218  33.861  13.608
25472W        W96072   8.858  10.848  13.919
25473W        W96073  43.250  15.754  13.383
25474W        W96074  15.177  39.406   4.723
25475W        W96075  20.138   8.374  13.925
25476W        W96076  22.750  24.326  14.945
25477W        W96077  13.121  39.220   4.571
25478W        W96078  24.516  23.265   2.658
25479W        W96079  14.626  30.912  12.920
25480W        W96080  14.207  36.257  14.433
25481W        W96081   6.978  27.626   2.246
25482W        W96082  27.078  16.515   4.190
25483W        W96083  32.059  42.907   2.683
25484W        W96084  20.669  13.566   0.313
25485W        W96085  31.392  34.873   2.649
25486W        W96086   4.328  19.581  11.960
25487W        W96087  13.606  16.158   4.061
25488W        W96088  10.248  13.756   0.706
25489W        W96089  37.159  14.403  14.799
25490W        W96090   3.910  36.110  13.328
25491W        W96091  18.867  15.159  13.972
25492W        W96092  24.233  18.291  13.830
25493W        W96093  18.769  14.646   3.215
25494W        W96094  12.599  39.617  14.065
25495W        W96095  12.777  11.724  13.258
25496W        W96096  42.451  42.208  13.169
25497W        W96097  36.051   5.909   0.830
25498W        W96098   1.464  20.658  10.646
25499W        W96099  16.610  31.358   3.726
25500W        W96100  39.805  27.006   1.328
25501W        W96101  22.248  30.597  11.066
25502W        W96102   2.733  29.891  11.567
25503W        W96103  28.043  13.559  13.164
25504W        W96104  37.249  22.478   2.823
25505W        W96105  32.709  32.127   0.384
25506W        W96106  37.379  39.871  12.545
25507W        W96107   0.905  30.377  14.397
25508W        W96108  16.284  25.909  12.420
25509W        W96109  13.230  44.266  11.635
25510W        W96110   8.897  32.245  11.636
25511W        W96111  16.507  32.898  10.605
25512W        W96112   0.876  14.683  13.644
25513W        W96113  20.634  43.734  13.524
25514W        W96114  37.624  32.352  11.250
25515W        W96115   4.152   8.377  12.404
25516W        W96116  23.013  19.519  11.988
25517W        W96117  12.260   7.242   2.308
25518W        W96118  12.851  35.657  14.871
25519W        W96119   3.990  42.260   4.829
25520W        W96120  16.001  17.142   4.998
25521W        W96121  29.050  39.841   1.941
25522W        W96122  26.279  39.666  14.308
25523W        W96123   8.271   0.942  13.790
25524W        W96124  38.720  13.898   9.973
25525W        W96125  23.437  23.969   1.973
25526W        W96126  25.940  16.276  11.541
25527W        W96127  12.173   1.316  11.265
25528W        W96128   4.168  16.777   4.532
25529W        W96129  31.951  27.036   4.992
25530W        W96130  20.880  37.529   3.744
25531W        W96131   0.325  35.920   0.837
25532W        W96132   4.869  19.630   1.898
25533W        W96133  27.611  39.041   3.847
25534W        W96134   5.928  41.964   3.162
25535W        W96135  33.465  17.078   0.291
25536W        W96136  20.868  31.918  12.562
25537W        W96137  32.697  18.084  14.994
25538W        W96138   3.248  33.004   1.445
25539W        W96139   0.167  12.589  12.463
25540W        W96140  12.546  14.683  14.549
25541W        W96141  33.029  31.851  11.470
25542W        W96142  12.344  10.151  14.031
25543W        W96143  18.854  23.354   2.842
25544W        W96144  19.484  24.990  13.633
25545W        W96145  33.004  34.721  13.458
25546W        W96146  29.975  18.040  13.903
25547W        W96147  42.845  27.764   4.272
25548W        W96148  25.482  13.656  13.982
25549W        W96149   0.552  34.436  11.591
25550W        W96150  41.647   6.273  11.883
25551W        W96151  38.285   6.424   1.395
25552W        W96152  13.514  27.076   1.636
25553W        W96153   3.910  22.078   3.272
25554W        W96154  18.164  13.691   0.065
25555W        W96155  42.312   0.295  11.486
25556W        W96156   5.190  24.183  12.125
25557W        W96157  31.436  14.311   3.830
25558W        W96158   7.404   0.935   4.529
25559W        W96159  15.201  16.712   3.586
25560W        W96160  32.094  32.508   2.142
25561W        W96161  13.043  23.569   1.924
25562W        W96162  28.208  14.900  14.046
25563W        W96163   2.361  14.070   2.101
25564W        W96164  27.468   5.160  13.813
25565W        W96165   7.214  39.816   0.246
25566W        W96166  34.896  14.361   5.127
25567W        W96167   3.744  12.178   1.362
25568W        W96168  29.831  39.478   1.783
25569W        W96169  29.608  34.238  12.135
25570W        W96170  40.561  44.788   3.324
25571W        W96171  12.805  21.153  14.107
25572W        W96172   9.255  15.526   4.594
25573W        W96173  20.726  15.829  13.894
25574W        W96174  29.310  10.431   4.047
25575W        W96175  38.318  39.995  14.241
25576W        W96176  18.260   1.330  13.034
25577W        W96177  27.020  39.115  14.813
25578W        W96178  16.684  16.826   4.757
25579W        W96179   6.669   4.320   4.627
25580W        W96180   3.964  44.901   2.384
25581W        W96181   8.660  25.496   4.008
25582W        W96182  42.314   2.248  14.399
25583W        W96183  28.077   8.009  12.477
25584W        W96184  41.410  13.096  13.941
25585W        W96185  14.154  42.755  12.782
25586W        W96186  23.141  14.497  13.323
25587W        W96187  21.447   3.059   1.235
25588W        W96188   7.472  19.629   1.312
25589W        W96189   4.650  32.964   4.123
25590W        W96190   7.284  35.039   1.751
25591W        W96191   3.561  18.525  14.715
25592W        W96192  12.586  26.023   4.355
25593W        W96193  41.261  28.507   4.425
25594W        W96194  28.758  22.780   2.762
25595W        W96195  16.694  18.252   4.058
25596W        W96196  19.186  35.591  13.132
25597W        W96197  42.839  11.027  14.951
25598W        W96198  15.100  16.716  10.706
25599W        W96199  13.576  25.739   3.553
25600W        W96200  37.945   4.239  14.092
25601W        W96201  27.469  14.431  12.830
25602W        W96202  11.520  15.650  14.537
25603W        W96203  33.667   8.148   1.198
25604W        W96204   2.743   1.265  11.897
25605W        W96205   0.909   4.753  12.733
25606W        W96206  33.126  42.811   4.075
25607W        W96207  14.625  10.266   2.683
25608W        W96208  22.493  29.126  13.148
25609W        W96209  21.753  15.125  13.491
25610W        W96210  27.934   2.851  10.554
25611W        W96211  30.147  36.589  14.420
25612W        W96212  24.216  21.669   3.663
25613W        W96213   3.239  42.502  14.345
25614W        W96214   9.255  11.648  13.867
25615W        W96215  23.643  21.126   4.064
25616W        W96216  44.340  28.682  13.000
25617W        W96217  16.047  24.923  14.958
25618W        W96218  40.795  12.874   2.814
25619W        W96219  30.918   1.778   2.858
25620W        W96220  42.108  33.914  10.630
25621W        W96221  26.818  11.854  11.636
25622W        W96222  22.981  21.176   3.671
25623W        W96223  14.234  21.596  11.527
25624W        W96224   5.480  20.106  14.751
25625W        W96225  16.171  30.500   1.157
25626W        W96226   9.262  29.561   3.019
25627W        W96227  15.855  32.705   9.795
25628W        W96228  40.689   3.469   4.187
25629W        W96229  26.458   5.237   2.945
25630W        W96230  21.749  28.840  14.443
25631W        W96231  38.834  44.145  10.729
25632W        W96232  13.206  43.780   1.005
25633W        W96233  43.779  21.040  14.916
25634W        W96234  38.456  12.374  13.554
25635W        W96235  38.371  16.785   2.772
25636W        W96236   4.145  14.612  11.814
25637W        W96237  39.156  42.862   4.516
25638W        W96238  30.083   1.426   4.555
25639W        W96239  13.157  20.198   0.003
25640W        W96240  20.644  22.451   2.360
25641W        W96241  15.315  26.030   0.736
25642W        W96242  37.873  14.118  12.059
25643W        W96243  30.064  24.477  13.749
25644W        W96244  21.288  34.662  11.785
25645W        W96245  23.460   5.206  11.202
25646W        W96246  40.386  43.563  14.239
25647W        W96247   7.933  16.534  11.958
25648W        W96248  38.230  26.946  10.794
25649W        W96249  27.029   9.200  10.526
25650W        W96250  42.327   3.632  12.484
25651W        W96251   1.717  24.096   1.630
25652W        W96252   0.461  19.590  12.021
25653W        W96253  20.167  41.077  11.487
25654W        W96254   1.365   1.170  11.949
25655W        W96255   8.933  26.665   0.898
25656W        W96256  20.573  38.601   0.002
25657W        W96257  30.048  33.916  12.676
25658W        W96258  15.186  30.964   2.322
25659W        W96259  35.220  31.262  11.269
25660W        W96260   0.168  23.999   2.429
25661W        W96261  41.818  12.191  14.590
25662W        W96262  41.035  24.097   0.263
25663W        W96263   8.283  14.150  12.939
25664W        W96264  26.029   8.470   4.795
25665W        W96265  41.052   7.008   1.970
25666W        W96266   7.884  44.067   3.183
25667W        W96267   6.027  16.127   1.049
25668W        W96268  22.692  23.433   2.230
25669W        W96269  35.093  39.305   3.762
25670W        W96270  22.521   9.830   5.035
25671W        W96271  23.770  23.745   0.386
25672W        W96272   2.999  26.984  11.602
25673W        W96273  35.918  36.375   1.872
25674W        W96274   5.025  31.265  11.428
25675W        W96275  17.255  18.544  12.148
25676W        W96276  43.486  37.587   1.228
25677W        W96277  36.490   3.193  11.078
25678W        W96278  22.538  43.952  14.913
25679W        W96279   0.035  30.656   1.759
25680W        W96280   5.249   8.120   4.156
25681W        W96281  19.256  14.198  12.910
25682W        W96282  10.770  10.361  13.480
25683W        W96283  39.913  24.386   4.675
25684W        W96284  13.601  16.604   0.872
25685W        W96285  35.368  15.130  12.008
25686W        W96286  23.585  26.870   3.176
25687W        W96287   6.018   5.751  12.989
25688W        W96288  39.480  17.397   0.060
25689W        W96289  38.860  10.795   4.693
25690W        W96290   5.671  35.244   3.255
25691W        W96291  21.111  14.104   4.877
25692W        W96292  43.824  44.826   4.842
25693W        W96293  32.123  19.566   2.685
25694W        W96294   9.205  36.977   3.674
25695W        W96295   5.374   3.027  11.413
25696W        W96296  36.961  31.423  14.053
25697W        W96297  14.503  38.514   1.264
25698W        W96298  14.678  31.187  10.723
25699W        W96299  41.747  44.195  10.347
25700W        W96300   4.931   6.407   1.285
25701W        W96301  26.217  32.311   1.792
25702W        W96302  26.192  11.175   4.179
25703W        W96303  36.963  13.365   4.187
25704W        W96304  33.071  35.281   1.855
25705W        W96305  30.236  25.116  12.133
25706W        W96306  39.366  38.388  14.795
25707W        W96307   3.397  42.678  14.842
25708W        W96308   3.685  35.409  12.464
25709W        W96309   8.653   5.797   1.731
25710W        W96310  19.800  10.116   1.710
25711W        W96311  27.815  26.074   4.177
25712W        W96312  31.918  33.366   1.451
25713W        W96313  10.108   7.421   2.765
25714W        W96314  28.608  13.835  10.481
25715W        W96315  25.705  29.023  13.611
25716W        W96316  10.181  43.827  13.285
25717W        W96317  19.036  11.037  14.987
25718W        W96318  22.985  35.790   0.440
25719W        W96319   5.719   3.771  14.132
25720W        W96320   3.709  15.288  13.858
25721W        W96321  32.496  10.396  13.531
25722W        W96322  33.355  41.348  12.094
25723W        W96323  38.027  31.936  11.713
25724W        W96324   1.523  44.891   4.162
25725W        W96325  16.761  39.965  10.564
25726W        W96326  16.655  34.483  11.928
25727W        W96327  28.282  33.524   1.566
25728W        W96328  37.590   6.664   2.782
25729W        W96329  20.756  43.892  11.278
25730W        W96330  42.130  28.155   2.048
25731W        W96331  30.726   7.283  14.332
25732W        W96332  24.679  44.200  13.943
25733W        W96333   6.144  42.816  11.987
25734W        W96334  24.020  26.508  12.882
25735W        W96335  43.406  26.370  13.456
25736W        W96336  16.131   6.338   4.373
25737W        W96337  22.500  24.130  10.194
25738W        W96338   9.153  19.761  14.865
25739W        W96339  11.712  30.179  11.470
25740W        W96340  41.819   4.547   0.580
25741W        W96341   8.897  19.348  13.883
25742W        W96342  23.068  20.989   1.873
25743W        W96343  14.285  44.332   0.803
25744W        W96344   1.895  40.043   1.068
25745W        W96345  38.572  18.668  10.622
25746W        W96346   7.124   9.497  14.232
25747W        W96347  25.826   7.304   1.784
25748W        W96348  11.808  12.584   2.796
25749W        W96349   3.801  12.202   2.417
25750W        W96350  19.167  21.759  10.673
25751W        W96351  34.877  31.040  10.923
25752W        W96352  39.793   8.203   2.428
25753W        W96353   5.071  19.042   1.033
25754W        W96354  34.128   1.671  13.903
25755W        W96355  20.890  18.595  14.878
25756W        W96356  24.260   0.296   1.592
25757W        W96357  36.423  32.018  13.495
25758W        W96358  18.282  22.012  12.998
25759W        W96359   9.563  32.916   3.327
25760W        W96360  35.333  44.948   1.890
25761W        W96361  38.404  31.534   4.884
25762W        W96362   7.561  26.402   2.815
25763W        W96363  22.728  30.903   0.241
25764W        W96364   1.500  38.847  14.510
25765W        W96365  19.297  16.541   2.769
25766W        W96366  40.315  41.493   3.360
25767W        W96367  38.581  37.384   2.779
25768W        W96368   0.324  23.557   0.943
25769W        W96369  32.850  42.024  13.933
25770W        W96370  44.446   7.829   4.722
25771W        W96371  30.967  25.627  12.168
25772W        W96372  43.835  20.612  10.721
25773W        W96373  39.096  20.292   1.284
25774W        W96374  42.344  16.143   4.584
25775W        W96375  39.128  21.302  13.184
25776W        W96376  13.848  20.306  11.405
25777W        W96377  26.256  41.102   2.761
25778W        W96378  41.418   1.604   1.962
25779W        W96379   7.255  12.288   0.724
25780W        W96380   5.480   9.743  14.352
25781W        W96381  22.804  10.624   1.386
25782W        W96382  20.587  28.399  11.454
25783W        W96383  33.058  41.522  14.780
25784W        W96384   2.851   8.202  11.190
25785W        W96385  32.946  25.138   0.411
25786W        W96386  29.586  37.038   3.579
25787W        W96387  33.869  31.900   2.868
25788W        W96388   5.380  19.726  12.579
25789W        W96389  41.791  23.955  14.352
25790W        W96390  11.354  16.574  12.153
25791W        W96391  13.413  17.251   1.274
25792W        W96392  42.746  24.796  13.184
25793W        W96393  37.491   8.839  13.431
25794W        W96394  37.856  26.688   3.798
25795W        W96395   8.219  34.807   0.327
25796W        W96396  26.755  37.137  11.993
25797W        W96397  13.758  19.465   0.875
25798W        W96398  21.901  16.750  14.956
25799W        W96399   2.679  15.587  14.498
25800W        W96400   9.483  42.192  13.001
25801W        W96401  18.839   6.247   3.835
25802W        W96402  35.048  11.290  12.629
25803W        W96403  23.373  34.063   0.911
25804W        W96404  30.886   0.065  11.959
25805W        W96405   9.836  18.691   1.251
25806W        W96406  10.082  36.396  10.901
25807W        W96407  20.436  40.479  12.103
25808W        W96408  15.294  14.584   3.692
25809W        W96409  36.342   8.710   2.915
25810W        W96410   5.120  20.670   4.139
25811W        W96411   4.232   6.732  12.504
25812W        W96412  24.178  15.251  14.747
25813W        W96413   0.245  31.655  11.984
25814W        W96414  30.461  39.061  14.436
25815W        W96415  43.994  25.978  12.083
25816W        W96416  24.051  15.623   4.847
25817W        W96417  39.424  39.746   4.640
25818W        W96418   2.472  24.687  12.880
25819W        W96419   2.389  24.186  11.224
25820W        W96420  37.113  43.522   1.434
25821W        W96421  28.911  14.901   4.348
25822W        W96422  12.899  10.878  14.886
25823W        W96423   2.178   4.780  14.506
25824W        W96424   6.440   0.278  10.996
25825W        W96425   6.944  21.614  12.998
25826W        W96426  37.611   4.712   0.202
25827W        W96427  37.013  17.318   3.087
25828W        W96428  36.053   3.741   0.832
25829W        W96429   1.904  16.376  13.452
25830W        W96430  30.170   6.658   2.795
25831W        W96431  26.136  38.450  12.523
25832W        W96432  37.005  23.695   1.436
25833W        W96433   4.547  31.299  11.671
25834W        W96434  34.411  11.555  12.074
25835W        W96435  28.569   0.330   1.480
25836W        W96436  10.766  14.629   0.143
25837W        W96437  13.706  19.657   2.673
25838W        W96438  44.351  13.902  12.947
25839W        W96439  42.911  31.146   4.960
25840W        W96440   0.461  18.044  14.812
25841W        W96441  36.453   5.833  12.603
25842W        W96442  43.250  25.782   4.337
25843W        W96443  28.146  40.895   3.189
25844W        W96444   8.549  21.617  12.000
25845W        W96445  14.275  41.069  14.940
25846W        W96446  40.814  23.996  12.112
25847W        W96447  37.128  16.292   1.513
25848W        W96448  15.679  27.643   5.627
25849W        W96449   7.146  24.120   2.160
25850W        W96450  15.679  35.445   2.959
25851W        W96451  10.822  41.464  11.940
25852W        W96452  40.297  41.309   4.237
25853W        W96453  25.466  11.570   0.261
25854W        W96454   4.849  12.867  14.882
25855W        W96455  29.203  43.842   3.891
25856W        W96456  10.263   6.906   0.408
25857W        W96457  18.384   2.419  10.972
25858W        W96458   5.726   8.908   2.159
25859W        W96459  24.160  13.229  13.952
25860W        W96460  34.144  28.989  11.192
25861W        W96461  34.849   5.717   3.345
25862W        W96462   4.474  27.220   2.876
25863W        W96463  38.297  43.745   1.630
25864W        W96464  14.689  40.433  11.607
25865W        W96465   5.698  40.874   4.289
25866W        W96466  38.932  27.828   4.658
25867W        W96467   6.863   0.311   0.959
25868W        W96468   1.292   6.623   0.966
25869W        W96469  43.917  19.150  10.738
25870W        W96470   4.425  21.527  11.072
25871W        W96471  20.787  17.978  11.904
25872W        W96472  42.940  38.196   4.921
25873W        W96473  36.917  16.931   0.667
25874W        W96474  40.720  14.577   0.757
25875W        W96475   8.823  24.996   2.356
25876W        W96476  37.646  31.838  14.391
25877W        W96477  31.822  21.024  12.498
25878W        W96478  32.951  39.365   0.386
25879W        W96479  40.538  13.762  12.337
25880W        W96480   4.167  40.814   2.365
25881W        W96481   0.301   8.220  13.101
25882W        W96482   5.734  26.938   1.300
25883W        W96483  41.628  28.585   4.789
25884W        W96484   1.230   6.458   0.310
25885W        W96485  27.085  24.669  12.529
25886W        W96486  17.739  12.473  11.575
25887W        W96487   4.468   8.322   3.680
25888W        W96488  22.437  36.916   3.191
25889W        W96489  37.583  36.638  11.552
25890W        W96490  21.112  27.209   3.758
25891W        W96491  41.574  18.120   3.164
25892W        W96492  27.041  38.291  10.657
25893W        W96493  24.081  23.097  14.523
25894W        W96494  30.740  15.239   3.066
25895W        W96495  20.160   8.098   0.216
25896W        W96496  17.071  13.850  12.612
25897W        W96497  27.433  36.909   1.234
25898W        W96498  23.125  35.212  14.014
25899W        W96499  20.522  11.194   3.246
25900W        W96500  12.700   8.154  14.428
25901W        W96501  26.833   4.326   0.408
25902W        W96502  31.061  35.560   1.276
25903W        W96503  21.675  40.456   4.351
25904W        W96504  21.701  24.872   4.630
25905W        W96505  31.523  19.724  13.530
25906W        W96506   0.266  22.227   0.823
25907W        W96507  26.684   4.568   9.840
25908W        W96508  30.442  36.869  10.639
25909W        W96509   1.656  23.621  12.905
25910W        W96510   9.202   6.239  12.957
25911W        W96511   7.722  13.399  13.899
25912W        W96512   3.904  43.729   3.217
25913W        W96513  16.758  21.199   1.339
25914W        W96514   4.661   9.125   1.976
25915W        W96515   5.354  40.916   2.910
25916W        W96516  27.196  29.117   0.812
25917W        W96517  41.499  43.945  10.746
25918W        W96518  35.056  43.476  13.267
25919W        W96519   9.744  14.116   4.560
25920W        W96520  36.067   6.176  13.532
25921W        W96521   2.104  43.015   5.090
25922W        W96522  35.135  44.580   2.254
25923W        W96523  17.605  10.378   3.694
25924W        W96524  30.007  17.196  11.937
25925W        W96525   8.681  40.452   3.697
25926W        W96526  21.822  42.368  14.218
25927W        W96527  20.590   4.651   3.676
25928W        W96528   5.111  20.997  14.294
25929W        W96529  21.248  39.699  10.770
25930W        W96530  30.439   9.891   1.402
25931W        W96531  35.466  20.985   2.697
25932W        W96532  28.911  11.282   0.707
25933W        W96533  11.089  28.702   1.825
25934W        W96534  17.842  10.573   4.104
25935W        W96535  13.293  29.818  13.899
25936W        W96536   3.453  43.593  12.438
25937W        W96537  41.805  36.108  11.168
25938W        W96538  29.711  14.441   1.753
25939W        W96539  28.498  18.956   4.088
25940W        W96540  32.337  22.765  14.985
25941W        W96541  25.772   3.322  10.011
25942W        W96542  37.762  38.121   0.064
25943W        W96543  34.093   2.461  11.422
25944W        W96544   0.627  30.305   2.683
25945W        W96545   6.037   3.938   1.828
25946W        W96546  34.366  10.816   0.316
25947W        W96547  43.456  20.993   1.138
25948W        W96548  13.000   8.858   3.040
25949W        W96549  14.600  24.411   1.761
25950W        W96550   5.424  37.856  13.786
25951W        W96551  39.085  15.184  14.479
25952W        W96552  42.838  36.167  10.829
25953W        W96553   6.681  29.001   3.832
25954W        W96554   7.128  16.250  13.382
25955W        W96555   1.218  39.050   2.869
25956W        W96556  18.280  33.655  12.908
25957W        W96557  29.733  15.167  14.916
25958W        W96558  20.015  17.717   0.695
25959W        W96559  44.342  42.830   3.828
25960W        W96560  13.618  24.202  12.308
25961W        W96561  40.481  28.890  11.474
25962W        W96562  33.912  38.874  13.300
25963W        W96563  21.156  16.316  14.988
25964W        W96564  42.330  24.118   3.778
25965W        W96565  19.026  32.806   4.528
25966W        W96566  43.831  36.562   3.243
25967W        W96567  22.518   1.648   3.370
25968W        W96568  40.968   3.591   4.611
25969W        W96569  36.580  13.177   4.481
25970W        W96570  28.128  23.740  13.103
25971W        W96571  19.714  44.930   2.668
25972W        W96572  43.688  31.971  13.261
25973W        W96573   3.049  20.609   1.333
25974W        W96574  42.422  33.393  12.779
25975W        W96575  25.146  15.333   3.349
25976W        W96576  36.902  15.579  10.711
25977W        W96577  14.121  19.630  11.925
25978W        W96578  29.494  30.341   1.906
25979W        W96579  12.605  30.143   2.801
25980W        W96580  17.132  37.133  14.936
25981W        W96581  27.511  38.775  12.008
25982W        W96582  39.136  10.199  12.093
25983W        W96583  33.348  43.785   0.452
25984W        W96584  28.960   4.489  14.115
25985W        W96585   6.051  27.418  10.220
25986W        W96586  37.579  39.945  11.191
25987W        W96587   7.418  37.377   0.393
25988W        W96588  23.020   1.278   1.790
25989W        W96589  26.984  12.062  14.422
25990W        W96590  41.605  21.710   3.452
25991W        W96591  24.211  40.962   4.195
25992W        W96592  24.332  35.016   1.891
25993W        W96593  13.569  17.705   0.748
25994W        W96594  12.159  23.063  11.924
25995W        W96595  17.232  34.012   0.461
25996W        W96596  27.164  31.864  11.390
25997W        W96597   7.176  43.043  13.793
25998W        W96598  39.503  27.954   0.779
25999W        W96599  27.957  15.823  11.620
26000W        W96600  16.922  14.813  14.768
26001W        W96601  41.992  15.711   1.415
26002W        W96602  37.600  12.994   1.524
26003W        W96603   3.272  27.663  10.617
26004W        W96604   1.803  44.773   2.163
26005W        W96605  26.217   1.860  13.650
26006W        W96606  44.961  14.781   3.771
26007W        W96607  19.067  41.519   0.915
26008W        W96608  27.097  25.224   0.941
26009W        W96609  38.792  15.112  13.165
26010W        W96610   5.783  18.735   2.395
26011W        W96611  34.518  13.859  14.861
26012W        W96612  10.783  39.786  14.774
26013W        W96613  35.524  11.284  14.902
26014W        W96614   1.762  33.298   2.310
26015W        W96615  41.403  23.820   3.874
26016W        W96616  35.113  40.516   4.640
26017W        W96617  14.289  19.023  12.386
26018W        W96618  19.540   6.916  12.152
26019W        W96619  14.085  23.545  14.395
26020W        W96620   3.608  36.079  14.915
26021W        W96621  35.119  36.446   1.346
26022W        W96622  13.256  12.377   1.651
26023W        W96623  14.722  23.145   2.732
26024W        W96624  38.409  33.920  10.742
26025W        W96625  26.775   9.802   0.750
26026W        W96626  15.834  17.591  12.118
26027W        W96627  10.861  34.929  12.413
26028W        W96628  37.839  15.266  10.811
26029W        W96629  34.519   5.374   4.639
26030W        W96630  17.706  15.748  11.903
26031W        W96631  15.578  36.476   4.087
26032W        W96632  37.095  35.896  14.925
26033W        W96633  33.378   4.306  14.917
26034W        W96634  35.613   5.283  12.006
26035W        W96635  37.547   6.321   4.675
26036W        W96636  18.171  18.891  12.446
26037W        W96637  14.579  16.228   1.237
26038W        W96638  20.868  44.321   2.414
26039W        W96639  21.133   4.488  13.431
26040W        W96640  29.562  28.977   1.293
26041W        W96641  36.573  20.511   1.967
26042W        W96642  11.276  10.862  10.912
26043W        W96643  22.755  24.177   4.136
26044W        W96644  42.801  16.381   4.486
26045W        W96645  18.743   9.746  10.597
26046W        W96646  21.017  39.357  12.526
26047W        W96647   5.329   7.774   0.251
26048W        W96648   6.189  30.138  14.446
26049W        W96649  20.236  37.118   2.763
26050W        W96650  20.021  16.187  12.089
26051W        W96651   1.947  24.823   0.495
26052W        W96652  23.590  11.261   1.355
26053W        W96653  10.592  36.351  11.011
26054W        W96654  34.517  11.714   4.882
26055W        W96655  43.087  31.440  12.993
26056W        W96656  44.482  31.676  12.657
26057W        W96657  43.864  10.172  13.739
26058W        W96658  28.139  35.078  14.979
26059W        W96659  24.982  14.102  11.784
26060W        W96660  12.128   6.699   3.203
26061W        W96661   8.584   6.015  12.347
26062W        W96662  32.124  17.060  14.526
26063W        W96663   0.525  41.263  14.575
26064W        W96664  41.335   3.794   0.832
26065W        W96665  21.751   4.870  10.630
26066W        W96666  12.887  36.002   1.241
26067W        W96667  25.064  19.541   4.657
26068W        W96668  16.162  11.789   1.995
26069W        W96669  30.470  10.243  12.185
26070W        W96670  41.780  27.034   2.579
26071W        W96671  16.941  24.289  12.035
26072W        W96672  29.155  13.274  12.624
26073W        W96673  20.124  23.977  12.018
26074W        W96674  27.046  16.588   0.006
26075W        W96675  27.684  26.955   0.876
26076W        W96676  39.042  31.319   1.932
26077W        W96677   5.050  28.514  13.716
26078W        W96678   7.236   6.409   1.833
26079W        W96679  18.584  39.408   3.713
26080W        W96680  14.557  10.835   0.946
26081W        W96681  42.048   3.871   3.091
26082W        W96682   5.233  42.248  12.971
26083W        W96683  31.070   4.376  12.404
26084W        W96684  28.995   4.267  11.548
26085W        W96685  13.213  29.130   3.119
26086W        W96686  33.384  28.115   2.397
26087W        W96687  24.664   4.355  13.403
26088W        W96688   9.195   0.808  12.912
26089W        W96689  37.486  33.733   4.521
26090W        W96690  25.348  14.284   2.018
26091W        W96691  13.857  23.940   1.784
26092W        W96692   4.951   9.209   0.018
26093W        W96693  41.466  34.692   4.639
26094W        W96694   6.383   6.658   3.667
26095W        W96695  27.914   9.666  13.594
26096W        W96696  27.984   1.935  14.332
26097W        W96697  21.685  13.343   4.290
26098W        W96698  28.696  21.068   1.309
26099W        W96699  11.162   0.362   2.927
26100W        W96700   8.797   4.284   4.307
26101W        W96701  13.120  38.919   1.779
26102W        W96702  39.901  32.698  11.007
26103W        W96703   5.834  30.751   0.191
26104W        W96704   1.362  36.472   3.734
26105W        W96705  19.231   6.728  12.541
26106W        W96706  16.406  12.147   2.257
26107W        W96707   9.445   9.762   2.839
26108W        W96708  13.646  37.413   3.633
26109W        W96709  12.613  10.487   4.917
26110W        W96710  11.567  17.086   3.739
26111W        W96711  13.851   5.901  13.370
26112W        W96712  42.738  37.143   3.752
26113W        W96713  15.114   5.892   2.881
26114W        W96714  33.296  30.523   1.863
26115W        W96715   7.781   3.148   5.006
26116W        W96716  43.904  37.620  12.398
26117W        W96717  11.116  20.862  14.788
26118W        W96718  19.132  31.263   3.765
26119W        W96719  28.462  26.448   4.185
26120W        W96720  28.466   8.920  13.505
26121W        W96721  39.734   5.330   3.378
26122W        W96722  43.923   9.126  10.634
26123W        W96723  44.642  14.881   1.567
26124W        W96724  18.211  16.309  11.465
26125W        W96725  21.796  30.977   3.808
26126W        W96726  38.822  23.170  13.360
26127W        W96727  21.680  43.033  13.055
26128W        W96728  25.959  42.449  12.992
26129W        W96729  34.656  34.370   1.958
26130W        W96730  28.724  17.761  11.477
26131W        W96731   2.264  16.584  12.527
26132W        W96732  36.497   5.670   0.780
26133W        W96733  30.534  43.030  14.643
26134W        W96734  28.529  10.911   0.850
26135W        W96735  25.057   6.660  14.508
26136W        W96736   7.440  19.523   4.589
26137W        W96737   2.985   7.425   3.910
26138W        W96738  42.039  17.745  11.137
26139W        W96739   8.872  17.629  14.446
26140W        W96740  37.156  25.022  13.041
26141W        W96741  17.160  40.801   2.274
26142W        W96742  36.806   8.639  12.872
26143W        W96743   3.269  19.157  11.640
26144W        W96744  28.690  34.575   2.364
26145W        W96745  43.568  35.807   5.050
26146W        W96746  24.487  22.117   3.971
26147W        W96747  36.957  20.752   2.215
26148W        W96748  28.074  38.089  14.584
26149W        W96749  18.588  44.517  13.946
26150W        W96750  20.494  11.455  10.646
26151W        W96751   9.228  32.118   4.246
26152W        W96752   4.295  42.761   4.288
26153W        W96753   8.772  41.249  13.765
26154W        W96754  38.014  29.105  14.520
26155W        W96755  39.414  37.902  13.896
26156W        W96756   7.063  30.943  12.408
26157W        W96757  37.345  38.421  10.252
26158W        W96758  24.911   7.828  12.594
26159W        W96759  41.615  42.835  11.818
26160W        W96760  40.241   9.112   3.908
26161W        W96761  32.280   3.664  10.032
26162W        W96762  12.834  41.860  12.724
26163W        W96763  28.380   6.810   3.383
26164W        W96764  13.812  25.122  12.993
26165W        W96765  33.852  30.035  13.776
26166W        W96766  16.186  40.767  13.493
26167W        W96767  20.708  41.764  14.814
26168W        W96768  20.824   9.619  14.811
26169W        W96769   4.745  20.306   4.114
26170W        W96770  40.149   0.155   1.168
26171W        W96771   4.355  12.836   0.790
26172W        W96772  14.737   5.356  14.818
26173W        W96773   8.363  37.115  14.142
26174W        W96774   4.905   8.374  12.094
26175W        W96775   7.417   2.778   0.474
26176W        W96776  24.584  23.097   3.732
26177W        W96777  26.699  19.109  13.919
26178W        W96778  22.135   2.778   0.748
26179W        W96779  43.932  25.739  13.837
26180W        W96780  39.229   6.213   1.161
26181W        W96781  37.479  38.900   4.130
26182W        W96782  25.604   3.472   5.006
26183W        W96783  28.901  30.566   2.274
26184W        W96784  18.255  16.250   4.866
26185W        W96785  10.235  44.870   3.762
26186W        W96786   0.264  42.940  12.427
26187W        W96787   2.809  14.855   2.114
26188W        W96788  18.243  22.039  14.914
26189W        W96789  19.181   1.752  13.089
26190W        W96790  31.852  19.574  11.255
26191W        W96791  33.477   1.204  13.366
26192W        W96792  23.125  32.657  13.837
26193W        W96793  24.994  11.793   2.707
26194W        W96794  27.431  32.961   1.255
26195W        W96795  21.083   7.641   3.750
26196W        W96796  21.351   6.111   1.318
26197W        W96797  11.100   0.796  12.039
26198W        W96798  22.099  23.549   2.704
26199W        W96799  38.865  43.644   4.147
26200W        W96800   9.913   5.910  11.633
26201W        W96801  39.680  28.900   2.264
26202W        W96802  42.100  24.970   4.957
26203W        W96803   3.749   0.447  13.757
26204W        W96804  28.947   6.342   3.236
26205W        W96805  34.451  29.650   3.668
26206W        W96806  43.881  22.643   0.820
26207W        W96807  17.746  24.740  12.261
26208W        W96808  35.539  42.534  14.779
26209W        W96809   8.417  18.598   3.697
26210W        W96810  14.961  37.729   3.598
26211W        W96811  12.090  21.905   4.178
26212W        W96812  34.513   7.339  14.405
26213W        W96813  30.034  26.869  14.972
26214W        W96814  35.033  36.666  12.203
26215W        W96815   8.922  12.574  13.398
26216W        W96816  27.349  44.536  12.530
26217W        W96817  13.737  42.359  13.794
26218W        W96818  34.856  11.202  13.952
26219W        W96819   6.808   3.536   3.521
26220W        W96820  17.112  39.960  13.928
26221W        W96821   5.127   6.733   0.928
26222W        W96822   7.628  17.045  11.019
26223W        W96823  37.974  12.069   4.206
26224W        W96824  40.013  19.731  12.835
26225W        W96825  25.370  27.221  12.976
26226W        W96826  26.024   5.241   3.742
26227W        W96827  40.143  30.464   1.888
26228W        W96828  32.570  16.384   0.817
26229W        W96829  13.590  25.146   4.109
26230W        W96830  21.858  39.618  13.057
26231W        W96831  32.147  15.579  12.797
26232W        W96832  25.667  31.687  13.512
26233W        W96833  39.380   1.715   2.684
26234W        W96834  19.494  24.175   4.525
26235W        W96835  16.633  23.557  10.625
26236W        W96836  13.637  19.810   3.255
26237W        W96837  43.345  42.858  12.002
26238W        W96838  20.760  34.895   0.787
26239W        W96839  43.979  33.473   0.353
26240W        W96840  39.497  27.388   3.215
26241W        W96841   6.380  13.536   5.053
26242W        W96842  27.951  10.259   2.843
26243W        W96843  26.779  10.090  12.598
26244W        W96844  30.750   3.784  13.333
26245W        W96845  19.984   3.392  13.397
26246W        W96846  18.878  29.481   0.192
26247W        W96847   8.036   2.255   1.129
26248W        W96848   5.330  11.573   4.398
26249W        W96849  17.907  12.292  13.757
26250W        W96850  24.530  21.087   3.160
26251W        W96851  24.042   6.342  12.575
26252W        W96852  30.078  44.988   1.811
26253W        W96853  37.200  44.169  11.582
26254W        W96854  44.896   9.370  14.882
26255W        W96855  27.839  14.087   0.056
26256W        W96856  16.137  25.602  11.484
26257W        W96857  40.702  42.923   3.612
26258W        W96858  23.316  23.385   0.178
26259W        W96859  24.442  23.027  12.998
26260W        W96860  42.456  14.153   0.272
26261W        W96861  38.362  13.583  12.153
26262W        W96862   2.883  14.710  11.673
26263W        W96863   4.041  13.128  14.266
26264W        W96864  37.000  15.712  12.577
26265W        W96865  17.307   6.351  12.045
26266W        W96866  43.932   1.401   3.033
26267W        W96867   6.811  36.844   4.686
26268W        W96868   0.471   7.696  14.577
26269W        W96869   4.696  12.890   1.961
26270W        W96870  39.948   8.539   2.822
26271W        W96871   0.853  36.660   2.785
26272W        W96872  18.484  12.279   4.208
26273W        W96873  44.926   9.155   4.545
26274W        W96874   8.553  20.748   0.167
26275W        W96875  29.638  36.086  13.072
26276W        W96876  12.058  29.753   1.252
26277W        W96877  33.603   6.311   5.137
26278W        W96878  31.741  13.009  11.521
26279W        W96879   8.661  30.903   2.132
26280W        W96880   4.009   0.908   2.854
26281W        W96881   3.655  34.479  13.246
26282W        W96882  40.368  15.955   4.523
26283W        W96883  24.190  25.432  13.047
26284W        W96884  24.247  11.178  12.989
26285W        W96885  15.141  29.609   1.073
26286W        W96886  27.634   5.944  13.942
26287W        W96887  33.141   3.598   2.713
26288W        W96888  44.465  20.256  12.583
26289W        W96889  16.347   1.931   0.659
26290W        W96890  19.096  30.732  12.046
26291W        W96891  25.770  35.090  12.765
26292W        W96892  41.912  43.486  14.949
26293W        W96893  44.022  20.232   4.579
26294W        W96894   5.037  18.765  13.946
26295W        W96895  25.204  38.781   1.371
26296W        W96896  33.510  32.601  10.022
26297W        W96897   2.597  17.241  11.450
26298W        W96898   0.896   3.520  11.982
26299W        W96899   5.855   7.882   4.457
26300W        W96900  41.051  29.997  10.739
26301W        W96901  37.312  42.993  13.504
26302W        W96902   3.227  35.787  11.649
26303W        W96903  29.774  11.323  10.498
26304W        W96904   8.363  42.964   2.288
26305W        W96905  41.938   9.895  13.791
26306W        W96906  28.919  24.206  13.104
26307W        W96907  34.130   6.457   4.789
26308W        W96908  36.405   3.069   3.806
26309W        W96909  13.532   4.249   1.397
26310W        W96910  16.328  11.346   0.932
26311W        W96911  14.571  12.422  14.910
26312W        W96912  14.557  31.096  11.206
26313W        W96913  13.179   7.363   4.232
26314W        W96914   6.257  10.849  12.745
26315W        W96915  19.603  33.118   3.718
26316W        W96916  13.404   7.202  11.538
26317W        W96917  36.544  19.526  10.805
26318W        W96918  44.206  16.732   0.711
26319W        W96919  40.124  34.474  11.136
26320W        W96920  39.298  24.395   2.703
26321W        W96921  38.412  23.862   4.581
26322W        W96922  42.324   7.873  12.536
26323W        W96923  12.612  33.384   3.968
26324W        W96924  43.373  14.821   3.979
26325W        W96925   1.787  37.525  14.562
26326W        W96926   9.746  41.794   1.471
26327W        W96927   4.183   5.549  14.677
26328W        W96928  31.447  43.229  14.672
26329W        W96929  12.816   9.740  13.503
26330W        W96930   3.983  11.329  10.681
26331W        W96931  21.055  37.232  10.740
26332W        W96932   1.750  41.902   1.530
26333W        W96933  19.629  29.453  11.028
26334W        W96934  36.001   3.086   0.270
26335W        W96935  25.576  37.595   4.153
26336W        W96936   0.056  10.749   3.351
26337W        W96937  38.554  16.740  12.893
26338W        W96938   6.652  38.307   1.856
26339W        W96939  18.342   9.625   0.890
26340W        W96940  23.745  30.952   3.791
26341W        W96941  28.513  41.286   1.431
26342W        W96942  15.487  29.298  14.334
26343W        W96943  41.330  39.522  11.682
26344W        W96944  11.232  10.943  11.900
26345W        W96945  43.018  30.380  12.893
26346W        W96946  36.881  40.298   1.339
26347W        W96947   1.871  10.553   1.288
26348W        W96948  11.132   3.523   1.258
26349W        W96949  30.462  17.606   2.236
26350W        W96950   6.073   3.736   3.187
26351W        W96951   7.919  14.669  13.529
26352W        W96952  37.545  18.204   2.171
26353W        W96953   4.891  23.668  13.630
26354W        W96954  34.165  21.964  10.976
26355W        W96955  13.834  16.126   0.810
26356W        W96956  22.280  40.725   1.665
26357W        W96957  32.927   5.101   0.128
26358W        W96958  11.758   7.889  14.113
26359W        W96959  27.428  27.411   2.773
26360W        W96960  18.469  10.670   2.284
26361W        W96961  13.234   1.679  10.251
26362W        W96962  13.832  40.615  10.755
26363W        W96963  17.049  41.477   0.848
26364W        W96964  41.988  44.804  11.198
26365W        W96965  13.803  16.942   4.124
26366W        W96966  33.034  16.788  14.203
26367W        W96967  34.155  30.470  14.965
26368W        W96968  39.829  20.546  12.494
26369W        W96969  18.585  25.959  11.231
26370W        W96970  10.204  23.516   0.804
26371W        W96971   0.906   4.942  11.439
26372W        W96972  32.179  19.510   1.620
26373W        W96973  27.740  39.901  14.728
26374W        W96974  28.145  17.175  11.521
26375W        W96975  34.928  27.145  12.363
26376W        W96976  32.831  10.323  13.953
26377W        W96977  41.864   2.002  14.488
26378W        W96978  44.022   8.584   2.397
26379W        W96979  15.184  34.965   1.141
26380W        W96980  31.405   6.754  11.976
26381W        W96981  23.843  44.006  13.137
26382W        W96982  29.472  21.007   2.079
26383W        W96983   3.413  43.082  12.455
26384W        W96984   0.767  30.341   0.788
26385W        W96985   3.802  32.543   3.063
26386W        W96986  10.882  22.054   3.163
26387W        W96987  10.443  14.240   0.001
26388W        W96988  20.688  44.968   4.339
26389W        W96989  36.892  42.709  10.540
26390W        W96990  25.383  41.370   5.165
26391W        W96991  13.597  32.330   4.084
26392W        W96992  31.700   2.323  13.935
26393W        W96993  16.634  29.326  14.725
26394W        W96994   2.857   9.682   1.023
26395W        W96995  38.071  21.860  11.819
26396W        W96996  37.362  38.449  11.265
26397W        W96997  19.387   4.570  11.209
26398W        W96998  37.144  37.769  13.468
26399W        W96999   2.739  14.371   3.251
26400W        W97000   1.812  39.285   1.774
26401W        W97001  12.876  30.547  14.108
26402W        W97002  19.489  19.222   2.681
26403W        W97003  41.997  22.252  13.558
26404W        W97004  11.967  27.065  12.023
26405W        W97005  16.741  19.502   1.644
26406W        W97006   5.214   3.966  11.497
26407W        W97007  33.526  21.410   3.770
26408W        W97008  12.250  24.428  13.055
26409W        W97009  35.984  15.830   0.739
26410W        W97010  44.116  25.279   0.135
26411W        W97011  26.493  43.556  13.358
26412W        W97012   7.779  23.996   3.747
26413W        W97013  13.699  32.230  13.175
26414W        W97014   0.552  34.342   1.902
26415W        W97015  43.205  28.620   2.157
26416W        W97016  21.548  26.912   2.166
26417W        W97017  35.917  31.982   2.200
26418W        W97018  14.654   2.432   0.506
26419W        W97019  40.877   4.246  11.012
26420W        W97020  33.760  35.433  14.846
26421W        W97021  31.503  32.002   2.789
26422W        W97022  14.252  35.113   1.772
26423W        W97023   3.742  27.973  13.350
26424W        W97024  40.873  21.672   1.854
26425W        W97025  39.084   4.583   2.683
26426W        W97026  35.344  39.336   4.210
26427W        W97027  29.545  20.766  14.380
26428W        W97028  42.456  29.478  12.450
26429W        W97029  34.072   3.406   3.156
26430W        W97030   5.672   2.624   1.323
26431W        W97031  40.979  13.716   2.342
26432W        W97032  40.981   0.474  12.080
26433W        W97033   5.919  28.313  11.163
26434W        W97034   7.753  40.596   1.601
26435W        W97035   6.261  28.726   2.328
26436W        W97036  12.169  33.283   2.443
26437W        W97037   5.544   8.000  11.080
26438W        W97038  39.133  26.442  14.494
26439W        W97039  26.171  16.261   3.258
26440W        W97040  38.272  24.448  11.034
26441W        W97041   2.377  32.981  13.037
26442W        W97042  40.804  16.811   3.663
26443W        W97043  33.012   0.027  11.590
26444W        W97044   5.127   1.058  14.564
26445W        W97045  32.154   4.918   2.779
26446W        W97046  38.075  33.965  13.346
26447W        W97047  10.193  23.784   3.322
26448W        W97048   3.643  22.515   2.437
26449W        W97049   0.565  24.141   4.258
26450W        W97050  35.503  23.018   4.112
26451W        W97051  37.020  14.208  13.331
26452W        W97052  19.574  36.849   0.860
26453W        W97053  21.247   0.359  13.459
26454W        W97054   6.644   6.579  14.496
26455W        W97055  23.691  39.247   4.481
26456W        W97056  24.907  30.860  12.937
26457W        W97057  41.876  13.648  10.606
26458W        W97058  21.359  37.646  12.063
26459W        W97059   3.802  17.148   4.654
26460W        W97060  44.339   4.608   4.297
26461W        W97061  42.917  15.615  10.399
26462W        W97062  39.431  33.154   1.799
26463W        W97063  26.525  26.196  14.774
26464W        W97064  37.838  27.524   0.353
26465W        W97065   1.971  11.988  13.521
26466W        W97066  36.678  28.531  14.452
26467W        W97067  36.008  31.662   4.876
26468W        W97068  14.738  39.551  13.388
26469W        W97069   2.475  27.465  12.661
26470W        W97070   8.912   1.245  12.878
26471W        W97071   3.639  20.270  14.051
26472W        W97072  38.005  44.091  13.332
26473W        W97073   4.714   3.311  13.422
26474W        W97074  11.085  29.940  12.434
26475W        W97075  10.712  28.880  10.757
26476W        W97076  17.120  44.384   1.645
26477W        W97077  40.551  43.054   1.348
26478W        W97078   3.134  27.393  11.903
26479W        W97079  30.477  30.672   3.756
26480W        W97080   7.273  33.118   3.590
26481W        W97081  33.819  15.613  12.488
26482W        W97082  44.310  41.522  11.987
26483W        W97083  40.345   0.413  13.784
26484W        W97084  15.080  15.046  13.929
26485W        W97085  28.569   6.638  12.021
26486W        W97086   5.354  23.467   2.273
26487W        W97087  15.543  32.948   0.525
26488W        W97088  18.155   2.329   0.740
26489W        W97089  16.557   5.751   3.608
26490W        W97090  24.633  10.518  11.221
26491W        W97091  19.089  20.573  10.602
26492W        W97092  32.593  44.312   1.244
26493W        W97093  30.138  15.306  14.048
26494W        W97094  43.179  10.834  14.573
26495W        W97095   1.744   1.161   2.329
26496W        W97096  40.579   6.819   2.910
26497W        W97097  43.446  42.544  10.731
26498W        W97098  12.703  20.900  11.661
26499W        W97099  29.944  21.468   3.717
26500W        W97100  25.270  14.598   1.618
26501W        W97101  15.291  32.004  13.427
26502W        W97102  26.533  23.222   0.439
26503W        W97103  21.045  19.534  10.152
26504W        W97104  31.866  19.863  11.701
26505W        W97105  18.198  23.522  14.795
26506W        W97106  21.664  14.661  13.768
26507W        W97107  23.253  25.383   0.353
26508W        W97108   9.562  29.934   2.831
26509W        W97109  23.242   9.664  11.689
26510W        W97110  25.464  16.560  11.851
26511W        W97111  36.887   7.370   1.697
26512W        W97112   9.319  23.611  13.837
26513W        W97113  23.461  28.895  11.485
26514W        W97114   8.013  30.139   4.086
26515W        W97115  37.490  20.630  11.552
26516W        W97116  10.148  11.598   5.074
26517W        W97117  38.237  19.262   9.892
26518W        W97118  31.923  26.871   2.674
26519W        W97119  15.864  24.206  10.402
26520W        W97120  17.254  23.100  12.087
26521W        W97121   1.757  14.542   4.171
26522W        W97122  12.430  27.583   3.727
26523W        W97123  17.920  13.285   3.607
26524W        W97124  33.812   7.839   3.253
26525W        W97125   6.262  19.169   2.679
26526W        W97126  21.159  18.405  13.251
26527W        W97127  27.507  19.468   3.169
26528W        W97128   6.845  34.433   4.209
26529W        W97129   7.670  25.260  13.927
26530W        W97130  17.020  43.930  11.155
26531W        W97131   2.985   5.438  13.460
26532W        W97132  22.503  11.672  13.432
26533W        W97133  22.020  30.288  11.572
26534W        W97134  20.786  42.377   1.849
26535W        W97135  28.396  14.313  10.336
26536W        W97136  34.150  31.744   3.278
26537W        W97137  13.114  33.174   1.772
26538W        W97138  36.072   3.395   4.047
26539W        W97139  34.149   5.836  11.145
26540W        W97140   7.155   9.390  13.435
26541W        W97141  23.013   3.523   4.976
26542W        W97142  36.052  18.993  13.953
26543W        W97143   2.442   5.022  12.158
26544W        W97144  18.571  29.728   0.515
26545W        W97145  17.578  37.686  14.310
26546W        W97146  28.705  24.131   4.703
26547W        W97147  12.244  11.542  12.096
26548W        W97148   4.769  21.074   0.065
26549W        W97149   6.989  27.524  10.908
26550W        W97150  23.550  17.131  13.428
26551W        W97151  43.279  26.803  12.428
26552W        W97152   5.197  10.329   1.886
26553W        W97153   1.795  20.212  11.026
26554W        W97154   4.737  16.619  11.054
26555W        W97155  27.979  24.905   4.127
26556W        W97156  10.791  37.952   3.835
26557W        W97157  14.296  11.720   2.413
26558W        W97158  19.777  18.223  11.971
26559W        W97159  26.081  36.606   3.282
26560W        W97160  37.060  15.744  13.998
26561W        W97161  37.983  43.987  10.617
26562W        W97162   5.755  31.988  10.705
26563W        W97163  22.440  40.311  14.989
26564W        W97164   6.604   6.800  14.986
26565W        W97165  16.242  30.087  11.508
26566W        W97166  33.342  32.939   4.736
26567W        W97167   5.330  12.190  13.043
26568W        W97168  18.817   6.013  11.031
26569W        W97169  28.655  19.054   1.449
26570W        W97170  12.623  24.965   0.081
26571W        W97171  44.551   0.967   3.736
26572W        W97172  41.764  37.058  14.917
26573W        W97173  41.884  43.074   4.535
26574W        W97174  24.504  16.869   3.320
26575W        W97175  44.318  27.552  12.440
26576W        W97176  17.992  39.736   2.345
26577W        W97177  42.782  43.026  14.622
26578W        W97178  22.214  16.068   1.290
26579W        W97179  42.440   1.703   4.362
26580W        W97180  12.071  33.069   3.303
26581W        W97181  12.303  26.576   2.141
26582W        W97182  16.866  16.206   0.786
26583W        W97183  43.819  22.811   4.759
26584W        W97184  43.830   1.278   1.735
26585W        W97185  31.355  29.564   0.253
26586W        W97186  36.463   7.928   4.088
26587W        W97187  41.182  24.933   4.069
26588W        W97188  35.556  21.777  14.320
26589W        W97189  38.430  18.338   3.727
26590W        W97190  21.593  10.168   0.720
26591W        W97191  17.086  40.698   0.440
26592W        W97192  19.263  38.649   2.415
26593W        W97193   1.886   4.521   4.113
26594W        W97194  19.213  40.421  12.844
26595W        W97195   4.692   9.391   2.939
26596W        W97196  42.390  11.629   1.695
26597W        W97197  35.348  30.638   2.932
26598W        W97198  12.899  29.953   1.217
26599W        W97199   6.284   4.753  12.819
26600W        W97200   9.657   4.822  12.942
26601W        W97201  20.658  29.543  14.059
26602W        W97202  37.579  43.974  13.089
26603W        W97203  16.541  40.431   2.544
26604W        W97204   3.008  23.103  14.359
26605W        W97205  20.169  19.071  13.446
26606W        W97206  15.678  17.528  10.669
26607W        W97207   7.864  42.636   3.840
26608W        W97208   0.823  11.545  14.815
26609W        W97209  35.065  31.368  13.854
26610W        W97210  33.570  39.598  10.204
26611W        W97211  23.156   9.240   3.588
26612W        W97212  11.801   7.947   3.406
26613W        W97213  28.172   5.782  13.964
26614W        W97214  43.710  16.755   1.659
26615W        W97215  31.449   4.429  13.361
26616W        W97216   9.091  23.927  15.000
26617W        W97217  37.026  40.923  10.563
26618W        W97218  10.219  31.936  10.737
26619W        W97219  39.982  42.869   2.911
26620W        W97220   5.612  26.471   3.254
26621W        W97221   5.320  21.236   4.717
26622W        W97222  10.328  43.056   4.250
26623W        W97223  32.160  30.619   1.321
26624W        W97224   8.746  34.514  14.012
26625W        W97225  33.620  40.268  10.865
26626W        W97226  31.528  36.322   2.397
26627W        W97227  24.259  40.102  13.109
26628W        W97228  41.169  35.029   3.263
26629W        W97229  18.779   4.248  11.143
26630W        W97230  16.734  23.582  14.794
26631W        W97231  18.953  27.610   1.789
26632W        W97232   0.743  25.464   0.068
26633W        W97233  40.018  35.343  10.589
26634W        W97234   1.789   0.550  12.022
26635W        W97235  14.653  37.811   2.878
26636W        W97236  35.986  35.130   3.249
26637W        W97237  34.570  22.321  13.883
26638W        W97238   4.541  36.249  12.103
26639W        W97239  38.547  10.159  10.732
26640W        W97240  18.371  42.840  10.527
26641W        W97241  36.437  22.257   1.376
26642W        W97242  26.319  24.501   1.809
26643W        W97243   8.333   6.149   4.493
26644W        W97244  34.148  19.675   1.839
26645W        W97245  22.472  35.927  13.479
26646W        W97246  17.842  42.060  11.539
26647W        W97247  35.911  25.190   0.407
26648W        W97248  42.960   5.899  12.480
26649W        W97249  33.614  10.851  10.158
26650W        W97250  19.036  35.847   3.796
26651W        W97251  21.822  33.135   0.270
26652W        W97252  10.299  35.292   0.327
26653W        W97253  39.969  29.002   2.690
26654W        W97254  43.798   3.541   3.806
26655W        W97255  21.687   2.724   4.295
26656W        W97256  37.344   9.790  11.605
26657W        W97257  33.490  28.879   2.867
26658W        W97258  39.892  22.636   4.478
26659W        W97259  25.398  14.339   2.677
26660W        W97260  34.836  40.588   1.318
26661W        W97261  30.866  29.717   0.372
26662W        W97262   6.186   0.721  10.880
26663W        W97263   2.373  25.448   1.481
26664W        W97264  29.709  40.319   0.374
26665W        W97265  33.844  17.620   3.702
26666W        W97266  20.753  36.328   1.855
26667W        W97267   2.284  37.073   1.971
26668W        W97268  14.393   4.204  14.315
26669W        W97269  26.434  23.565  10.609
26670W        W97270  42.914  35.606   2.255
26671W        W97271  42.841  40.025   1.780
26672W        W97272  32.692  14.545  11.390
26673W        W97273   6.204  38.762   0.293
26674W        W97274  44.103   2.466   3.000
26675W        W97275   5.340  11.299  14.973
26676W        W97276  38.435  44.324  11.531
26677W        W97277   1.309  14.438  13.490
26678W        W97278  27.385  10.500  11.617
26679W        W97279  11.467  27.585   3.682
26680W        W97280  21.881  32.940  13.614
26681W        W97281  24.595   0.511  11.881
26682W        W97282  40.542  35.243   5.204
26683W        W97283  41.160  34.410  12.158
26684W        W97284  43.767  27.203   0.286
26685W        W97285   4.427  30.421  14.592
26686W        W97286  27.705  35.656  13.917
26687W        W97287  14.501   2.899   4.133
26688W        W97288  17.157  23.774  13.555
26689W        W97289  12.129  14.286  12.508
26690W        W97290  28.576  17.262   3.458
26691W        W97291  42.222  12.335  14.908
26692W        W97292  16.265  24.179  14.385
26693W        W97293  32.103  40.041  12.992
26694W        W97294   8.186  44.805  10.744
26695W        W97295  20.438  29.555   4.236
26696W        W97296   6.990   6.881  12.919
26697W        W97297  44.651  15.174   4.106
26698W        W97298  43.446  30.134   0.778
26699W        W97299   6.386  42.430   1.305
26700W        W97300   2.434  33.166   0.782
26701W        W97301   1.475   5.970  13.574
26702W        W97302  16.775   2.693  14.879
26703W        W97303  28.746   7.177   4.255
26704W        W97304   0.033  24.137   4.213
26705W        W97305  20.138  36.204  11.198
26706W        W97306  41.506  36.582  12.909
26707W        W97307  38.936  11.744   3.248
26708W        W97308   8.877  42.995  14.290
26709W        W97309  35.635  40.349  13.501
26710W        W97310   0.983  26.545  14.633
26711W        W97311   1.358  33.440  12.858
26712W        W97312   6.831  19.731   4.324
26713W        W97313  17.094  28.948   3.118
26714W        W97314   5.713  14.327  13.320
26715W        W97315  14.667  11.103  10.551
26716W        W97316  35.470   2.290  11.910
26717W        W97317  19.678  32.883   1.735
26718W        W97318   4.624   1.782   1.320
26719W        W97319  42.584   7.161   2.873
26720W        W97320  43.011  27.689  12.825
26721W        W97321  18.686   5.776   3.703
26722W        W97322  13.316  36.317   0.267
26723W        W97323   8.927  27.888   2.953
26724W        W97324  16.396  33.815   4.145
26725W        W97325  31.134  41.063  12.053
26726W        W97326  39.237  43.496   0.410
26727W        W97327   4.226  30.130   1.316
26728W        W97328  22.525   5.201  14.299
26729W        W97329  32.840  44.821  12.105
26730W        W97330   7.019  32.683  13.824
26731W        W97331  25.770   3.495   1.866
26732W        W97332   4.079  34.689  14.630
26733W        W97333  37.820  19.116   3.652
26734W        W97334  24.702   4.945   1.004
26735W        W97335  41.615  17.713   2.788
26736W        W97336  20.220  31.654   3.472
26737W        W97337  26.641  32.336   4.618
26738W        W97338  39.505  28.299   2.787
26739W        W97339  10.361  22.065  12.988
26740W        W97340  16.643  29.623   0.685
26741W        W97341  29.067  14.264  12.763
26742W        W97342   0.201  44.427  14.369
26743W        W97343  17.873  22.690   1.428
26744W        W97344  41.108   6.979  11.998
26745W        W97345   1.188  16.760  14.359
26746W        W97346  25.178   4.700  13.363
26747W        W97347  41.453  18.798  14.810
26748W        W97348  16.921  42.920   2.754
26749W        W97349  21.131  32.175   5.107
26750W        W97350  24.012  32.590   0.195
26751W        W97351  20.787  38.958   1.090
26752W        W97352  40.913  18.846  14.504
26753W        W97353  23.954  25.541   4.512
26754W        W97354  19.394  18.130   2.216
26755W        W97355  12.640  27.947   4.467
26756W        W97356  33.798  16.204  12.020
26757W        W97357  15.639   1.903   4.431
26758W        W97358  31.603  38.231  14.104
26759W        W97359  41.838  29.712  13.154
26760W        W97360  24.265  30.875  11.216
26761W        W97361  13.544  39.841   2.795
26762W        W97362  11.691  29.521  12.060
26763W        W97363  22.639  18.788   3.800
26764W        W97364  27.661  16.686   2.212
26765W        W97365  15.541  39.574  13.919
26766W        W97366  28.242  44.380  10.314
26767W        W97367   2.944  29.795   2.026
26768W        W97368  29.495  27.395   0.587
26769W        W97369  11.420  16.633   3.930
26770W        W97370  43.236   8.268   2.775
26771W        W97371  38.975  26.668   2.628
26772W        W97372  23.366   2.512  12.055
26773W        W97373  18.215   6.781  12.733
26774W        W97374  29.967  36.541   3.751
26775W        W97375  42.574   9.612   1.858
26776W        W97376   9.172  43.839   1.592
26777W        W97377  33.809  32.163  13.424
26778W        W97378  33.551  20.330  11.522
26779W        W97379  24.971  29.537  10.731
26780W        W97380  31.885  12.896   2.371
26781W        W97381  10.561   9.187   3.287
26782W        W97382  42.964  36.462   0.327
26783W        W97383  44.651  25.183   4.914
26784W        W97384  18.147   7.537  12.877
26785W        W97385  40.556   1.995   0.977
26786W        W97386  30.925   0.984   2.319
26787W        W97387   8.132  24.110   4.649
26788W        W97388  10.421  16.166   1.851
26789W        W97389   9.372  33.905  11.959
26790W        W97390  10.094  32.432  13.509
26791W        W97391   4.806  18.067  14.863
26792W        W97392  33.330   4.794  14.277
26793W        W97393  18.291  22.536   4.563
26794W        W97394   1.757  18.115   0.900
26795W        W97395  19.755  18.040   0.220
26796W        W97396  17.478  12.118  10.828
26797W        W97397  37.867  22.710  11.565
26798W        W97398  12.022   7.591   2.647
26799W        W97399  39.356  26.270   2.211
26800W        W97400  17.666  23.420   3.676
26801W        W97401  32.030  23.279  13.074
26802W        W97402   9.181   2.332   3.120
26803W        W97403  10.345  26.466  14.915
26804W        W97404  27.022  12.102  10.708
26805W        W97405   7.238  16.693   0.720
26806W        W97406  16.068  14.844   1.356
26807W        W97407  38.420  35.440  11.550
26808W        W97408  23.542   2.305   4.134
26809W        W97409  16.806   6.746   3.117
26810W        W97410  21.332  43.257   1.665
26811W        W97411  23.605   9.564   1.856
26812W        W97412  19.496  15.139  12.578
26813W        W97413  24.096   6.666  10.544
26814W        W97414   6.635  35.002   0.355
26815W        W97415  40.526  22.122  12.586
26816W        W97416  16.097  39.227   3.519
26817W        W97417  13.334  43.542   0.564
26818W        W97418   6.022  30.015  12.080
26819W        W97419   1.385  37.822  10.551
26820W        W97420  34.383   2.257   4.596
26821W        W97421  18.189  36.681   2.117
26822W        W97422  39.131  18.498   1.877
26823W        W97423   7.187   6.845   2.163
26824W        W97424  22.972   2.036   0.352
26825W        W97425  31.516   1.835   1.270
26826W        W97426  15.786  37.886   3.621
26827W        W97427  30.099  27.354  14.215
26828W        W97428   0.277  24.694  14.725
26829W        W97429   9.123  12.608   0.308
26830W        W97430  38.920  16.316   1.294
26831W        W97431   1.814   4.043  12.028
26832W        W97432   9.751  15.405  13.841
26833W        W97433  18.702  19.145  14.145
26834W        W97434   4.222  12.295   3.357
26835W        W97435   4.959  30.468  10.696
26836W        W97436  11.660  41.940   4.640
26837W        W97437  41.876  22.737   1.867
26838W        W97438  44.906  31.592  12.389
26839W        W97439  40.421   4.296  14.379
26840W        W97440  16.121   2.753   2.710
26841W        W97441  44.365   6.229  11.164
26842W        W97442  39.282  37.346  11.103
26843W        W97443  39.013  13.806   3.278
26844W        W97444  23.117   3.887   0.640
26845W        W97445  30.348  11.684   3.685
26846W        W97446  15.772  40.610  13.207
26847W        W97447  43.542  31.478   4.081
26848W        W97448  13.530  44.932   1.712
26849W        W97449   4.251  28.103  10.621
26850W        W97450  11.815  35.898   3.095
26851W        W97451  14.133   9.815   4.705
26852W        W97452  20.680   6.169  12.947
26853W        W97453  43.535   7.243  13.905
26854W        W97454  17.620  32.478  11.919
26855W        W97455   4.140  32.545  13.452
26856W        W97456  43.456  33.070   3.817
26857W        W97457  35.594  34.413  12.622
26858W        W97458  41.369   5.762   2.832
26859W        W97459  26.916  33.507   4.206
26860W        W97460  21.754  35.302   3.761
26861W        W97461   2.216  39.127   0.853
26862W        W97462   3.433  22.508  13.550
26863W        W97463  39.291   5.860   5.685
26864W        W97464   6.225  18.762   5.093
26865W        W97465  18.725  19.608   1.808
26866W        W97466  10.390  17.708   5.079
26867W        W97467  14.731  19.747  12.548
26868W        W97468  22.779   1.401  13.453
26869W        W97469  18.123  17.519  12.060
26870W        W97470  20.011   7.862  13.858
26871W        W97471  28.579  15.878   1.774
26872W        W97472  29.510  39.869   0.992
26873W        W97473  33.856  17.061  14.924
26874W        W97474  10.141  17.396  12.015
26875W        W97475  31.563   9.147   2.818
26876W        W97476  36.959   4.791  10.424
26877W        W97477   6.188  26.284  11.033
26878W        W97478  35.898  29.394  10.705
26879W        W97479  14.172  18.297   1.429
26880W        W97480   8.278  27.017  12.978
26881W        W97481  44.302  39.063  13.692
26882W        W97482  19.522  15.185   2.874
26883W        W97483  24.958  20.829   3.090
26884W        W97484  34.659  39.843  12.068
26885W        W97485  30.483   8.355   2.715
26886W        W97486   1.340  10.312   4.386
26887W        W97487  15.622  35.291  14.462
26888W        W97488  31.682  27.469  13.927
26889W        W97489  40.473  37.296   3.121
26890W        W97490  10.408  33.103  12.926
26891W        W97491   5.490  24.569  10.538
26892W        W97492  40.316  37.432   3.618
26893W        W97493  23.147  15.594   3.219
26894W        W97494  31.622  39.968   3.681
26895W        W97495  14.662   4.265  12.928
26896W        W97496   1.375  41.799  13.461
26897W        W97497  25.605  12.225  12.592
26898W        W97498   7.172  26.025  13.769
26899W        W97499  20.190  38.832  14.703
26900W        W97500  27.430  42.593   4.199
26901W        W97501  16.299  13.493   3.018
26902W        W97502  38.439  20.785  11.627
26903W        W97503   7.891  26.003  12.783
26904W        W97504  31.566   4.227  12.427
26905W        W97505  44.855  23.597   1.174
26906W        W97506  15.354   1.191   0.151
26907W        W97507   4.173  10.977   2.635
26908W        W97508  13.929  29.634   3.698
26909W        W97509  28.927  34.275  14.039
26910W        W97510  18.568  42.165   2.254
26911W        W97511  26.141   0.977   0.047
26912W        W97512  23.030  18.041  13.475
26913W        W97513  30.531  35.632  12.813
26914W        W97514  18.169  25.972   2.141
26915W        W97515  15.108   0.890   4.357
26916W        W97516   4.648  18.691   3.779
26917W        W97517   8.921  42.809   3.148
26918W        W97518  32.164  42.782  13.493
26919W        W97519   4.505  15.656   2.795
26920W        W97520  36.866  23.086  12.669
26921W        W97521  28.471  10.954   2.876
26922W        W97522  14.319  23.086  11.168
26923W        W97523  36.478  31.043  14.335
26924W        W97524  27.121   9.712  13.595
26925W        W97525  16.057  32.181  11.151
26926W        W97526  26.597   5.915   3.685
26927W        W97527  31.121  41.926   0.339
26928W        W97528  33.599   8.179   4.719
26929W        W97529   4.921  21.775  11.160
26930W        W97530   8.412   5.341  14.939
26931W        W97531   5.251  43.293  13.866
26932W        W97532  36.813  35.691  14.483
26933W        W97533  29.346  27.416   1.477
26934W        W97534  25.253   2.660   0.984
26935W        W97535  21.002  34.063   1.152
26936W        W97536  39.635  32.648   0.783
26937W        W97537  44.999   3.457   0.991
26938W        W97538   0.748  37.493  14.399
26939W        W97539  38.466  35.811   4.261
26940W        W97540  44.857  27.632   1.915
26941W        W97541  12.593   7.289  11.922
26942W        W97542   5.224  13.586  11.500
26943W        W97543  14.088  21.068  13.337
26944W        W97544  34.939  36.552  10.737
26945W        W97545  28.053  16.791   2.522
26946W        W97546  24.124   1.679   4.122
26947W        W97547  10.874   3.101  11.723
26948W        W97548  30.523   5.232   1.410
26949W        W97549  23.013  26.689  12.370
26950W        W97550  43.345  34.473  10.690
26951W        W97551  37.946   1.941   1.368
26952W        W97552  16.510  42.375   4.770
26953W        W97553  29.586   5.890   4.143
26954W        W97554  13.274  10.188  13.949
26955W        W97555  35.021  33.053   0.820
26956W        W97556   2.289  39.500   3.552
26957W        W97557  31.602  28.661  13.073
26958W        W97558  36.266   8.886  11.637
26959W        W97559  28.879  10.339  10.699
26960W        W97560  22.753   6.295   1.664
26961W        W97561  26.065  25.144   0.508
26962W        W97562  31.092   9.586   2.870
26963W        W97563  23.642  16.147   3.564
26964W        W97564  16.039  33.037  10.730
26965W        W97565   9.384  39.332   3.260
26966W        W97566   4.395  22.485  13.105
26967W        W97567  32.704  27.320   0.474
26968W        W97568  25.257  36.552  14.908
26969W        W97569  13.115  16.796   0.916
26970W        W97570  30.367  44.959  11.073
26971W        W97571  40.371  43.414   4.276
26972W        W97572  32.101  44.340   4.539
26973W        W97573  29.405  28.126   4.568
26974W        W97574   7.355   0.807  10.714
26975W        W97575   0.988   6.417   4.192
26976W        W97576   6.063  22.883   4.601
26977W        W97577  13.417  33.974  13.807
26978W        W97578  21.114  18.859   1.367
26979W        W97579  19.074  35.008   3.307
26980W        W97580  18.278  30.178  11.157
26981W        W97581  18.190  20.728   2.658
26982W        W97582  19.017  41.559   3.224
26983W        W97583  20.137  44.291   1.200
26984W        W97584  17.702  38.549   0.731
26985W        W97585  18.297  18.582   1.876
26986W        W97586  38.894  20.637  10.374
26987W        W97587  12.090  20.704  14.320
26988W        W97588   7.818  13.215  11.081
26989W        W97589  10.665  34.080  10.892
26990W        W97590   3.887   9.988   4.540
26991W        W97591   7.236  11.392   4.514
26992W        W97592  39.628  21.065   1.782
26993W        W97593   2.773  32.356   0.761
26994W        W97594  42.654  32.481   4.234
26995W        W97595  10.269  22.009   4.682
26996W        W97596  40.427  43.453   0.624
26997W        W97597  36.170  10.356  14.394
26998W        W97598  43.826   7.188  12.428
26999W        W97599  37.159  44.999   3.339
27000W        W97600  42.064   6.703   3.653
27001W        W97601  11.321  26.775  11.135
27002W        W97602  11.158   2.350   2.433
27003W        W97603  40.438  20.232  13.139
27004W        W97604  24.366   0.889  12.148
27005W        W97605  26.064  41.399  11.709
27006W        W97606  22.852   8.330   1.409
27007W        W97607  12.884  14.118   0.277
27008W        W97608   8.100  23.091  11.971
27009W        W97609  33.900  21.413  13.804
27010W        W97610   1.369  25.145   2.232
27011W        W97611  15.982  31.874  11.566
27012W        W97612  17.062  20.718  10.172
27013W        W97613  10.622  15.238   3.698
27014W        W97614  37.888   4.894  10.679
27015W        W97615  23.973  22.535   3.662
27016W        W97616  25.571  36.113   3.591
27017W        W97617  25.668  39.076  14.594
27018W        W97618   5.837  31.666   0.808
27019W        W97619  28.587   4.165   4.630
27020W        W97620  36.011  28.312  10.869
27021W        W97621  41.891  13.351   1.412
27022W        W97622  12.301  43.140   1.303
27023W        W97623   8.783   9.375   3.540
27024W        W97624  27.358  16.996  11.991
27025W        W97625   1.422  13.947  13.601
27026W        W97626  20.122  11.347  10.968
27027W        W97627  33.486  36.044   3.599
27028W        W97628  18.598   6.780  11.466
27029W        W97629  32.360  11.172   9.935
27030W        W97630  44.202  29.313   5.038
27031W        W97631   8.904  14.415   3.138
27032W        W97632  34.245  23.046   4.450
27033W        W97633  35.860  27.139   1.462
27034W        W97634  14.042  24.213   2.202
27035W        W97635  30.934  24.631  10.533
27036W        W97636  38.041   4.887   0.473
27037W        W97637  28.229   4.909   1.200
27038W        W97638  17.648  44.013   0.451
27039W        W97639  37.151  44.995   1.384
27040W        W97640  43.164  13.050  11.650
27041W        W97641  32.444  24.177   3.897
27042W        W97642  39.712  25.730   0.814
27043W        W97643  10.910   7.168   3.674
27044W        W97644  37.468   0.495   1.412
27045W        W97645  18.546  12.596   0.938
27046W        W97646  43.052  14.700  14.929
27047W        W97647  15.174  34.084  12.938
27048W        W97648  40.782  42.609  10.711
27049W        W97649  31.035  21.311  10.570
27050W        W97650  35.926  36.351  12.368
27051W        W97651   7.479  18.537   4.574
27052W        W97652  38.441  42.816  10.745
27053W        W97653  21.185  44.758   0.368
27054W        W97654  42.023  40.994  11.920
27055W        W97655   0.139  26.972   4.580
27056W        W97656  16.506  24.230   4.707
27057W        W97657  22.471  31.558   2.340
27058W        W97658  24.189  17.347   2.598
27059W        W97659   8.896  15.546  14.812
27060W        W97660  16.512  11.898   3.676
27061W        W97661  12.996  17.328   3.644
27062W        W97662  15.695  18.475   2.864
27063W        W97663  15.362  19.606   4.784
27064W        W97664  26.703   0.721   0.732
27065W        W97665  21.780  20.150  13.501
27066W        W97666  13.294   8.677   1.222
27067W        W97667  24.109  35.302   3.922
27068W        W97668  10.223  14.238   4.825
27069W        W97669  10.922  33.450   1.796
27070W        W97670  40.878  15.771   4.527
27071W        W97671  31.091  10.755   2.289
27072W        W97672  25.167  11.687  13.382
27073W        W97673  17.155   8.775   1.066
27074W        W97674  43.284  29.498  11.019
27075W        W97675  24.465  32.776   0.414
27076W        W97676  35.429  32.342  12.066
27077W        W97677  28.479  37.338   4.683
27078W        W97678  25.672  35.861   0.437
27079W        W97679  31.477   3.172   2.583
27080W        W97680   9.753  22.251  14.319
27081W        W97681  34.893  20.650  14.131
27082W        W97682  44.751  17.614  11.530
27083W        W97683  32.618   4.954   1.495
27084W        W97684  25.720  42.417   4.172
27085W        W97685   2.535  42.277  12.741
27086W        W97686  13.948  13.006   1.932
27087W        W97687  25.243  42.782   4.816
27088W        W97688   4.181   1.328   2.615
27089W        W97689  42.945  44.083  13.846
27090W        W97690  31.807   9.865  11.087
27091W        W97691  35.918  20.282   4.077
27092W        W97692  40.685  21.574   2.977
27093W        W97693  14.228  42.420   3.650
27094W        W97694  35.761  40.550   1.842
27095W        W97695  18.607  27.687  12.063
27096W        W97696  37.023  19.754  12.991
27097W        W97697   3.946   9.194   3.870
27098W        W97698  41.787  28.202  10.265
27099W        W97699  28.384   5.414   1.050
27100W        W97700  23.200  14.713  11.664
27101W        W97701  23.704  44.755   3.653
27102W        W97702  26.966  30.160   4.767
27103W        W97703  30.902  23.070  12.699
27104W        W97704  28.659  12.223   1.326
27105W        W97705   6.793  30.934  11.874
27106W        W97706  26.240   2.906   3.772
27107W        W97707  23.697  35.627  14.227
27108W        W97708   9.724  41.102   0.933
27109W        W97709  34.396  32.496  12.028
27110W        W97710   1.048  25.781   1.472
27111W        W97711  23.957  21.226  13.905
27112W        W97712  25.437  19.275  14.530
27113W        W97713  33.109  32.380   4.212
27114W        W97714  35.499  43.500  11.081
27115W        W97715   5.465   0.960  13.373
27116W        W97716  33.504  39.259   5.501
27117W        W97717   2.816  43.580   0.995
27118W        W97718   0.004   7.905  13.844
27119W        W97719   1.776  29.611   1.728
27120W        W97720  27.485  32.440   1.287
27121W        W97721   2.296  12.849   1.208
27122W        W97722   7.445  29.883  11.009
27123W        W97723   9.667  22.016  13.342
27124W        W97724  23.764  42.733  11.050
27125W        W97725  41.089   5.987  11.316
27126W        W97726  35.608  31.766  12.924
27127W        W97727  13.929  19.617  10.626
27128W        W97728  23.055  31.566  13.467
27129W        W97729   4.488   0.941   3.835
27130W        W97730   3.941  37.150  13.303
27131W        W97731  44.390   5.308  11.689
27132W        W97732   8.409   4.669   4.340
27133W        W97733  20.775   0.866  12.870
27134W        W97734  21.286  40.014   4.957
27135W        W97735  26.904  41.373   3.206
27136W        W97736  39.248  26.140   4.168
27137W        W97737   0.191  43.459  11.466
27138W        W97738   9.226  31.935  14.547
27139W        W97739   3.985  29.917   3.179
27140W        W97740   7.353  42.545   0.822
27141W        W97741  38.823   8.853   4.466
27142W        W97742  11.611  38.085  14.009
27143W        W97743  29.008  39.759  11.278
27144W        W97744  33.475  12.298  13.976
27145W        W97745  31.658  25.470   2.242
27146W        W97746  44.831  36.367  13.841
27147W        W97747  21.037  21.033   2.657
27148W        W97748  11.826  24.490   4.566
27149W        W97749  15.602  25.629   3.968
27150W        W97750  38.753   9.843   3.663
27151W        W97751   9.802  22.638  11.018
27152W        W97752  14.149   3.040   2.155
27153W        W97753  35.376  11.675   1.859
27154W        W97754  10.239   9.573   3.377
27155W        W97755  33.378  19.039   2.822
27156W        W97756  22.436  20.742  13.517
27157W        W97757  41.606  37.935  13.918
27158W        W97758  14.449   6.388  14.496
27159W        W97759  23.025  17.363   1.251
27160W        W97760  40.991  30.704   3.276
27161W        W97761  27.001   8.882   3.118
27162W        W97762  12.653  21.441  10.797
27163W        W97763   2.652  24.420  12.483
27164W        W97764  37.310   7.684   2.818
27165W        W97765   5.653  44.979   3.775
27166W        W97766  41.753  34.370  10.869
27167W        W97767  19.663   9.863  13.894
27168W        W97768  21.893   3.238  11.160
27169W        W97769  33.157  14.147   0.214
27170W        W97770  38.376  40.657   1.512
27171W        W97771  34.135  37.527  13.459
27172W        W97772  18.230  27.184  11.492
27173W        W97773  26.338  12.133  14.501
27174W        W97774  43.434   3.416  10.295
27175W        W97775  26.643  25.679  14.883
27176W        W97776  40.475   2.761  14.651
27177W        W97777  31.544  24.246   4.687
27178W        W97778  29.686  36.842  13.533
27179W        W97779  20.228  30.956  12.332
27180W        W97780  15.232   7.915  12.814
27181W        W97781  29.857   3.210  14.253
27182W        W97782  43.862  26.590   0.960
27183W        W97783  17.096  14.590  11.810
27184W        W97784  43.775  18.084  11.438
27185W        W97785  13.221  22.749  11.648
27186W        W97786  21.587  41.448  12.989
27187W        W97787  28.629   7.905   0.715
27188W        W97788   7.338  10.645  13.065
27189W        W97789  11.435  35.864   1.341
27190W        W97790  30.929  20.508  12.379
27191W        W97791  24.205  17.065   0.831
27192W        W97792  41.026  31.071   1.310
27193W        W97793   8.763  27.134   0.967
27194W        W97794  13.432  40.908  10.682
27195W        W97795  16.303   8.740   1.645
27196W        W97796  27.226  25.547   0.560
27197W        W97797  16.051  12.186  11.969
27198W        W97798  21.952  28.831   1.273
27199W        W97799  35.872  18.695  12.951
27200W        W97800  28.434  43.726   0.190
27201W        W97801  39.359  33.527  12.480
27202W        W97802  43.001  14.090  13.994
27203W        W97803  23.959  18.442  14.512
27204W        W97804  27.124  30.181  10.744
27205W        W97805   1.895  33.745  12.590
27206W        W97806  15.166  33.825   3.762
27207W        W97807  19.327   4.437   4.645
27208W        W97808  33.944  17.336  12.591
27209W        W97809  44.088  24.101  10.516
27210W        W97810  27.474  41.469  10.781
27211W        W97811  27.950   2.654   4.315
27212W        W97812  20.117   7.118   1.225
27213W        W97813  33.162  38.321   3.246
27214W        W97814  10.423   8.695  14.763
27215W        W97815  28.069   9.896   4.602
27216W        W97816   3.007   5.709  13.039
27217W        W97817  33.428  21.819   0.408
27218W        W97818   1.538   3.974  13.463
27219W        W97819  36.489   1.569   2.799
27220W        W97820  24.989  20.523   2.671
27221W        W97821  44.752  25.613   1.857
27222W        W97822  21.530  18.601  10.591
27223W        W97823   8.133  36.986  10.460
27224W        W97824  25.919   3.226  12.827
27225W        W97825   1.219  23.126  13.230
27226W        W97826  15.808  42.779  13.539
27227W        W97827  31.017  26.523  11.190
27228W        W97828  15.271  26.738   4.395
27229W        W97829  22.010  15.431   0.655
27230W        W97830  30.182  34.655   0.372
27231W        W97831  25.110  40.503  13.535
27232W        W97832  40.489   2.389  11.722
27233W        W97833  26.748  44.840  11.917
27234W        W97834  20.496  15.525  13.486
27235W        W97835  34.998  29.205  14.379
27236W        W97836  19.037   6.900  11.938
27237W        W97837  20.304  25.564  10.653
27238W        W97838  17.354  25.520  13.752
27239W        W97839  12.197  32.021   3.086
27240W        W97840  21.300  42.527   4.562
27241W        W97841   7.654   6.875   0.857
27242W        W97842  10.711  20.534  10.719
27243W        W97843  33.047  11.912  11.570
27244W        W97844  22.239  29.935   2.068
27245W        W97845  21.298   0.004  13.082
27246W        W97846  17.272  44.537   4.549
27247W        W97847  39.053  23.247  11.164
27248W        W97848  20.523   2.334  13.588
27249W        W97849  42.331  22.074   4.545
27250W        W97850  32.572  34.404   0.478
27251W        W97851  14.446  36.899   1.019
27252W        W97852  31.894  38.911  14.560
27253W        W97853  44.892  39.806   4.482
27254W        W97854  19.021  33.836   3.709
27255W        W97855  41.274  32.721  13.033
27256W        W97856   0.023   9.398   4.096
27257W        W97857  42.985   4.878  12.614
27258W        W97858  34.090  12.314   3.255
27259W        W97859   5.444  21.048  13.497
27260W        W97860  37.822  32.770  10.669
27261W        W97861  42.581  38.589   0.943
27262W        W97862  25.634  32.616   3.908
27263W        W97863  36.135  10.216   0.287
27264W        W97864  36.978  26.447  13.985
27265W        W97865   7.761  22.215   3.923
27266W        W97866  16.096  24.617   1.785
27267W        W97867   3.343  12.825  14.380
27268W        W97868  39.900  10.453  12.425
27269W        W97869  35.648   2.069  14.946
27270W        W97870  39.599   7.696   3.453
27271W        W97871  38.483  24.702  14.287
27272W        W97872  41.344   7.693   2.667
27273W        W97873   9.418   9.170   4.227
27274W        W97874  39.535  30.397  13.792
27275W        W97875  24.667   3.647   3.417
27276W        W97876   6.786  41.821   0.929
27277W        W97877   2.466  28.654   1.371
27278W        W97878  16.803  31.489  11.454
27279W        W97879  44.739  36.282   0.878
27280W        W97880  29.717  16.474   4.295
27281W        W97881   7.848  35.028  14.474
27282W        W97882  21.135   1.306   3.707
27283W        W97883  38.867  36.859   0.693
27284W        W97884  39.996  40.501  11.084
27285W        W97885  11.942  40.469  12.537
27286W        W97886  37.979   8.594   1.626
27287W        W97887  33.457  44.394  11.133
27288W        W97888  21.085  14.800  10.722
27289W        W97889  22.763  28.801   1.644
27290W        W97890  37.742   4.784   2.367
27291W        W97891  20.374  27.025  10.412
27292W        W97892  20.461   3.404  11.188
27293W        W97893  38.048  36.914   0.322
27294W        W97894   5.426  40.427   3.451
27295W        W97895   4.894   8.444   2.861
27296W        W97896   7.999   8.712  13.736
27297W        W97897  25.954  29.208   2.226
27298W        W97898  29.155  21.905   2.301
27299W        W97899  28.600  11.127  14.480
27300W        W97900  31.621  17.157  11.957
27301W        W97901   0.472   3.006  12.613
27302W        W97902  31.567  19.553  13.020
27303W        W97903  29.688  30.612  11.713
27304W        W97904  25.439  26.641  12.620
27305W        W97905  19.050  28.522   4.058
27306W        W97906   3.302  13.359  12.921
27307W        W97907  12.645  13.263  14.776
27308W        W97908  11.918  25.570  13.036
27309W        W97909  41.278  42.937  10.458
27310W        W97910   2.728  13.290  12.081
27311W        W97911  35.820  38.972  12.432
27312W        W97912  39.052   3.482  13.013
27313W        W97913  34.626   0.259   3.466
27314W        W97914  39.219   2.954   3.202
27315W        W97915   0.953  23.390   1.246
27316W        W97916  22.572   0.600   3.205
27317W        W97917  33.675  31.191  14.293
27318W        W97918  44.274  33.010   0.463
27319W        W97919  42.040  28.728  13.735
27320W        W97920  40.009   1.263   1.772
27321W        W97921  13.919  18.669  12.609
27322W        W97922  24.072   6.766   0.056
27323W        W97923  23.614  34.234  11.637
27324W        W97924   3.264  28.964  11.163
27325W        W97925  17.186  27.472   2.137
27326W        W97926  40.002   6.044  11.626
27327W        W97927   4.761   9.510   1.151
27328W        W97928  34.590  12.126   2.387
27329W        W97929  21.325  17.200  10.784
27330W        W97930  19.623  11.136   3.079
27331W        W97931  40.467  12.887   2.209
27332W        W97932   2.231  18.675  12.917
27333W        W97933  16.576   1.902   4.387
27334W        W97934  16.334  19.279   3.998
27335W        W97935  24.841   8.673   1.428
27336W        W97936   5.649  22.711  13.816
27337W        W97937  29.062  24.636  13.979
27338W        W97938  16.571  34.327   1.700
27339W        W97939  34.055   5.205  13.941
27340W        W97940  24.312  14.973   2.757
27341W        W97941  23.465  40.129  12.068
27342W        W97942   8.309  36.928  14.642
27343W        W97943   7.663  20.044  11.580
27344W        W97944  23.522  13.767  10.779
27345W        W97945   2.984  43.043  14.822
27346W        W97946   2.877   1.932   0.864
27347W        W97947   9.718  35.158   3.851
27348W        W97948  30.450  41.280   0.337
27349W        W97949  41.972  12.162   4.392
27350W        W97950  32.599  24.857   3.312
27351W        W97951  22.877  39.992   2.227
27352W        W97952   9.724   3.330  14.045
27353W        W97953  39.343  33.093  14.437
27354W        W97954  37.290  31.911  14.033
27355W        W97955   5.923   8.176   1.674
27356W        W97956  43.328  10.385   4.526
27357W        W97957  15.779  29.709  14.428
27358W        W97958  36.451  30.448  14.782
27359W        W97959  27.542  24.166   1.418
27360W        W97960  36.250  21.132   4.036
27361W        W97961  33.898  30.557   0.983
27362W        W97962  35.075  29.458  13.849
27363W        W97963  15.193   7.413  14.641
27364W        W97964   1.001   6.297  11.820
27365W        W97965   2.036   6.566  12.032
27366W        W97966  23.004   2.575   0.357
27367W        W97967   9.281  24.793   2.174
27368W        W97968  40.229   0.816   4.138
27369W        W97969  44.359  33.044  10.824
27370W        W97970   1.359   1.411  13.533
27371W        W97971  25.217  43.738  12.911
27372W        W97972  28.661  24.174   4.180
27373W        W97973   2.770   0.996  10.960
27374W        W97974  17.316  37.509   2.694
27375W        W97975  36.386  11.562  11.940
27376W        W97976  13.724  39.007   4.583
27377W        W97977  39.761  28.418   0.785
27378W        W97978  31.141   5.409   0.222
27379W        W97979  34.327   0.999   4.611
27380W        W97980   3.584  22.080  10.164
27381W        W97981  40.755  21.943   1.405
27382W        W97982  38.972   1.924  13.943
27383W        W97983  13.184  39.910  10.441
27384W        W97984  33.146  26.240  14.256
27385W        W97985  38.577  39.160   0.364
27386W        W97986   6.843   4.898  10.821
27387W        W97987  38.906   3.342   3.303
27388W        W97988  35.118   7.644   3.344
27389W        W97989  15.311   1.540   3.151
27390W        W97990   4.840   8.502   4.850
27391W        W97991  15.333  23.625   2.254
27392W        W97992   1.686  39.308   0.895
27393W        W97993  10.194   8.152   1.220
27394W        W97994  19.201  26.948  12.436
27395W        W97995  24.977  36.917   5.271
27396W        W97996   0.401  42.956  14.414
27397W        W97997  29.213   9.226  11.142
27398W        W97998  23.410  41.456  10.991
27399W        W97999   5.461  16.355  12.755
27400W        W98000  11.599   8.015  10.997
27401W        W98001  19.097  19.208   0.274
27402W        W98002  12.040  11.334   3.862
27403W        W98003  36.687  37.683  11.935
27404W        W98004  24.055   7.956   1.847
27405W        W98005  27.159  36.809   2.120
27406W        W98006  38.970   1.889   1.280
27407W        W98007   3.105  12.373  13.500
27408W        W98008  22.920  14.339  11.883
27409W        W98009  43.070   2.194  13.995
27410W        W98010   0.893  38.009  14.337
27411W        W98011  32.120   7.198   4.572
27412W        W98012  20.547   8.692   1.331
27413W        W98013  20.720  38.088   1.288
27414W        W98014  27.946  21.578   2.726
27415W        W98015  35.504  26.734  14.864
27416W        W98016  15.900  33.029  11.571
27417W        W98017  12.028  13.369  13.406
27418W        W98018  18.943  30.796  10.099
27419W        W98019  20.466  27.770   3.230
27420W        W98020  16.857  17.507  10.612
27421W        W98021  28.956  30.191   3.740
27422W        W98022  16.173  42.532   1.763
27423W        W98023   0.505  44.777   0.276
27424W        W98024  28.447  20.084   2.295
27425W        W98025  16.310  24.197   0.421
27426W        W98026   4.350  11.776   0.442
27427W        W98027   7.877  15.517  14.090
27428W        W98028   9.273   3.193   1.933
27429W        W98029  23.569  30.107   1.233
27430W        W98030   4.926   6.984  12.022
27431W        W98031  20.051  23.696   2.222
27432W        W98032  43.520  11.324   3.312
27433W        W98033  18.148  22.131   2.330
27434W        W98034  38.403  33.374  14.741
27435W        W98035   0.410  19.068  13.016
27436W        W98036  33.625  15.982  11.084
27437W        W98037   5.195  19.672  13.069
27438W        W98038  39.013  17.159  14.379
27439W        W98039  43.759   6.127   2.782
27440W        W98040  29.169  41.441  14.757
27441W        W98041  21.517  27.087  13.645
27442W        W98042  22.968   0.285   0.914
27443W        W98043  19.540  34.994   2.314
27444W        W98044   5.885   5.892   4.553
27445W        W98045   3.245  28.524   1.899
27446W        W98046  43.422  18.563   0.732
27447W        W98047   1.366  22.302  13.203
27448W        W98048  17.043   1.717   4.519
27449W        W98049  12.163  11.888  14.365
27450W        W98050  18.542  37.171  11.210
27451W        W98051  35.365  12.666   1.830
27452W        W98052  43.885  41.781  12.105
27453W        W98053  17.087  14.626   1.346
27454W        W98054  22.643   6.097  13.338
27455W        W98055   4.442  18.015  11.743
27456W        W98056  22.634  36.061   1.907
27457W        W98057  28.144  15.485   4.490
27458W        W98058  33.699  36.485   0.298
27459W        W98059  14.648  19.660  13.914
27460W        W98060  24.545  30.604   3.103
27461W        W98061   7.322  29.534  13.928
27462W        W98062  15.353  12.357  10.736
27463W        W98063  13.350  33.727   2.782
27464W        W98064   1.486  24.526  12.966
27465W        W98065  44.703  21.647  13.953
27466W        W98066  11.189  14.514   4.578
27467W        W98067  19.523  35.147   4.057
27468W        W98068  21.758  10.410  14.104
27469W        W98069  36.038  19.713   2.194
27470W        W98070  39.954   3.606  11.039
27471W        W98071  41.410  15.988  12.006
27472W        W98072  17.772  31.963   0.364
27473W        W98073  19.006  24.165   3.111
27474W        W98074   3.329  12.916   4.096
27475W        W98075  15.310  29.711  12.885
27476W        W98076  30.935   5.179   4.179
27477W        W98077  10.740  37.392   1.044
27478W        W98078  42.827  38.633   1.944
27479W        W98079  20.110  27.483   0.679
27480W        W98080  32.715  31.725   4.779
27481W        W98081  15.444  17.871  14.790
27482W        W98082  40.779   9.968  10.237
27483W        W98083  33.370  14.637  12.489
27484W        W98084   3.898  13.318  12.082
27485W        W98085   1.431  43.090  14.912
27486W        W98086  23.869   6.737   1.515
27487W        W98087  13.103  38.065   1.268
27488W        W98088  28.189  36.908   4.602
27489W        W98089  40.019  30.534  13.265
27490W        W98090   1.752   0.813  11.197
27491W        W98091  26.960  43.749  11.585
27492W        W98092  27.955   1.553   1.766
27493W        W98093  26.700  31.983  11.658
27494W        W98094  13.911  30.355  11.928
27495W        W98095  26.518   4.757  12.810
27496W        W98096  34.310  22.080   4.261
27497W        W98097   0.886  25.696  11.198
27498W        W98098  20.191   5.917   2.642
27499W        W98099  22.950  24.471   3.169
27500W        W98100  24.038  37.632  11.617
27501W        W98101   9.348  30.459  11.076
27502W        W98102   5.443  40.055   1.813
27503W        W98103   2.168  43.035   4.155
27504W        W98104  23.691  42.124  12.996
27505W        W98105  20.238  27.225   1.943
27506W        W98106  41.749  10.914  12.430
27507W        W98107  24.395  23.066   0.829
27508W        W98108  30.504  11.915  13.734
27509W        W98109  40.816   9.826   4.203
27510W        W98110  17.746  35.154   2.640
27511W        W98111  26.649   1.478   4.185
27512W        W98112   7.535  27.616  10.745
27513W        W98113   4.759  30.120  12.909
27514W        W98114   6.429  42.197   2.619
27515W        W98115   8.207  12.580   2.157
27516W        W98116   7.351  23.779   1.834
27517W        W98117  22.044   1.478  11.681
27518W        W98118  31.493  27.431  13.381
27519W        W98119  22.907  12.896   0.954
27520W        W98120  33.988  30.523  14.016
27521W        W98121  28.203  19.045  12.398
27522W        W98122   3.093  39.458  13.866
27523W        W98123  11.716  26.689   1.270
27524W        W98124  41.307   2.361   1.365
27525W        W98125   8.320   7.758  13.333
27526W        W98126  29.161  24.548   2.942
27527W        W98127  11.848  21.447   1.875
27528W        W98128   3.315  10.159   5.203
27529W        W98129  22.379  18.441   1.198
27530W        W98130   2.373  17.596   1.605
27531W        W98131  21.616  16.986   0.461
27532W        W98132  17.307   6.263  11.547
27533W        W98133   1.290   8.204  12.912
27534W        W98134   3.013   1.871   2.285
27535W        W98135  20.272  15.605  11.085
27536W        W98136  10.371   6.502  14.489
27537W        W98137  41.081   2.988   5.355
27538W        W98138  32.471   4.415   2.663
27539W        W98139  20.481  34.995   0.339
27540W        W98140  14.557  15.937   3.588
27541W        W98141   3.235  32.491   0.565
27542W        W98142  24.140  26.501   1.321
27543W        W98143  38.963   4.992   0.483
27544W        W98144   0.508  27.571   1.323
27545W        W98145  41.278  20.715   1.364
27546W        W98146  14.065  28.921  10.799
27547W        W98147  19.506  44.333   4.313
27548W        W98148  21.440  38.695   4.986
27549W        W98149  26.497  12.155   4.285
27550W        W98150   2.776  39.967   3.203
27551W        W98151  28.238  38.943  12.952
27552W        W98152  13.293  36.337  11.084
27553W        W98153  41.373  39.480   2.402
27554W        W98154  27.143  31.065  11.276
27555W        W98155  27.532   2.527  14.851
27556W        W98156   2.704  44.256  12.875
27557W        W98157  22.830  23.548   0.394
27558W        W98158  17.040   9.660  13.786
27559W        W98159  15.183  18.801  14.925
27560W        W98160   2.302  23.561   4.117
27561W        W98161  31.906  14.801   4.205
27562W        W98162  21.744  42.511  10.444
27563W        W98163  32.414  15.756  10.160
27564W        W98164   2.354  18.542  11.103
27565W        W98165  18.669   4.513  10.636
27566W        W98166  30.029  18.777   3.350
27567W        W98167  25.526   5.620  13.798
27568W        W98168  28.638  30.735  13.337
27569W        W98169  30.385  34.459   3.882
27570W        W98170  24.586  43.671   4.144
27571W        W98171  43.488   4.824   1.749
27572W        W98172  11.818  37.097  14.260
27573W        W98173  32.709  42.580  12.528
27574W        W98174  31.521  28.487   1.486
27575W        W98175  14.122  22.533   0.894
27576W        W98176   0.323  36.348  13.606
27577W        W98177   9.196  33.604   4.537
27578W        W98178  20.633   0.740  10.548
27579W        W98179   5.603  44.730  11.874
27580W        W98180  36.718   3.930  11.878
27581W        W98181  29.626   7.763   4.510
27582W        W98182  39.616  25.522  14.436
27583W        W98183  33.804  32.485  11.568
27584W        W98184  18.426  40.692  14.849
27585W        W98185  26.628  21.519   2.256
27586W        W98186  39.507  11.884  13.337
27587W        W98187  27.748  33.590   4.549
27588W        W98188  28.998   3.824   1.381
27589W        W98189  14.244  38.739  14.528
27590W        W98190  38.094  10.806  12.539
27591W        W98191  29.734  42.514   3.759
27592W        W98192  43.165  27.695  10.349
27593W        W98193   6.451  42.309  12.627
27594W        W98194  32.108  16.042  10.490
27595W        W98195   9.462  44.706   2.514
27596W        W98196  21.697   9.253   1.268
27597W        W98197  21.603  27.788  14.317
27598W        W98198  43.066  16.076   4.162
27599W        W98199  21.650  33.202  14.474
27600W        W98200  30.532   1.668  14.992
27601W        W98201  18.690  31.049  12.605
27602W        W98202  38.464  26.407   0.740
27603W        W98203   2.745  18.815  10.830
27604W        W98204  41.936  35.109  11.995
27605W        W98205  28.984  29.619  12.907
27606W        W98206  36.909   2.870   4.504
27607W        W98207  30.017  20.857   1.199
27608W        W98208  27.103  13.095   3.382
27609W        W98209  10.337  27.875  11.585
27610W        W98210   8.285  34.470  11.393
27611W        W98211  31.686  44.810   3.736
27612W        W98212  44.051  28.884  13.423
27613W        W98213  11.720   2.100  14.444
27614W        W98214  32.999  29.921   3.201
27615W        W98215  28.414  39.945   4.015
27616W        W98216  24.461  18.227   3.768
27617W        W98217  33.135  27.422   4.677
27618W        W98218   6.999  39.361   0.305
27619W        W98219   2.806  29.366   2.280
27620W        W98220  25.351   7.727  12.878
27621W        W98221  18.829  40.031  13.903
27622W        W98222   7.145  32.274   2.936
27623W        W98223  14.671   2.145  10.427
27624W        W98224  13.222  12.111  11.094
27625W        W98225   5.010   1.423   4.340
27626W        W98226  43.909  36.776  12.483
27627W        W98227   9.891  10.328  13.024
27628W        W98228   9.671  15.985  12.191
27629W        W98229  20.075  28.594   2.157
27630W        W98230   4.775  11.794  12.141
27631W        W98231  14.715  10.828  13.770
27632W        W98232  13.139  30.186  12.519
27633W        W98233  42.043  18.173   1.590
27634W        W98234  37.483  30.201   2.458
27635W        W98235   7.959   6.822  11.699
27636W        W98236  19.097  14.337  10.458
27637W        W98237  12.736  18.867   4.503
27638W        W98238  35.871   6.643  12.844
27639W        W98239  35.938   5.682  11.852
27640W        W98240   4.532  23.985  12.878
27641W        W98241   6.687  22.607   1.943
27642W        W98242  39.635  11.745  10.590
27643W        W98243   0.838  20.226   1.397
27644W        W98244  29.946  20.735  10.971
27645W        W98245  40.452  31.177  10.706
27646W        W98246  10.434  42.761  12.836
27647W        W98247  31.795  18.949  12.622
27648W        W98248   3.429   5.109   3.731
27649W        W98249  17.643  23.534  10.919
27650W        W98250  13.707  43.485  14.404
27651W        W98251  42.778   7.617   2.740
27652W        W98252  31.012  16.541  12.793
27653W        W98253   2.022  21.495   1.816
27654W        W98254  27.158   7.725   4.003
27655W        W98255   3.019  30.953   0.784
27656W        W98256   4.806  37.193  13.325
27657W        W98257   2.482   7.028  11.044
27658W        W98258  12.157  32.140  12.545
27659W        W98259  33.111  35.057   1.330
27660W        W98260  23.508  32.744  14.514
27661W        W98261  42.957  31.666  13.454
27662W        W98262  17.346  21.613  12.081
27663W        W98263  12.381  43.203  14.961
27664W        W98264  24.248  33.497   4.171
27665W        W98265  42.192  37.877   2.649
27666W        W98266  37.392  42.419   2.708
27667W        W98267  18.270   3.313   3.727
27668W        W98268  13.369  33.023   1.353
27669W        W98269   5.175  40.010   3.642
27670W        W98270  34.850   7.450  12.318
27671W        W98271  28.217   5.243  11.129
27672W        W98272  27.115   5.675   1.367
27673W        W98273  24.182   9.757   3.471
27674W        W98274  39.155  13.267   0.264
27675W        W98275  32.002  22.256   0.805
27676W        W98276  12.364  27.114   0.788
27677W        W98277  42.562  20.649  11.937
27678W        W98278  37.396   3.146   4.386
27679W        W98279  41.207  42.261   3.777
27680W        W98280   2.396  34.381   2.737
27681W        W98281  18.663  36.515   2.212
27682W        W98282  19.626   0.772  12.498
27683W        W98283  32.625  44.424   4.654
27684W        W98284  13.678  26.900  11.589
27685W        W98285  21.899   7.450  12.185
27686W        W98286  30.727  40.491   2.714
27687W        W98287  32.271  11.883  11.181
27688W        W98288  44.828  20.322   3.301
27689W        W98289   1.282   8.852   0.045
27690W        W98290  41.881  25.225  12.838
27691W        W98291  27.652  17.941  12.045
27692W        W98292  34.555  37.624   4.734
27693W        W98293  38.087  26.634  14.859
27694W        W98294   0.793  35.023  14.324
27695W        W98295  42.022  42.425   2.999
27696W        W98296  42.807  27.435  13.726
27697W        W98297  17.369   2.329   1.925
27698W        W98298  20.107  37.080  11.439
27699W        W98299  14.764  44.902  14.748
27700W        W98300  35.933  13.874  12.062
27701W        W98301   6.424  21.232  13.758
27702W        W98302   5.492  32.969   0.817
27703W        W98303  44.675   3.283  14.335
27704W        W98304  42.952  21.926   4.097
27705W        W98305  24.804  24.722   2.626
27706W        W98306  33.048  39.222   2.872
27707W        W98307   1.952  32.561   1.297
27708W        W98308  19.581   7.749  14.939
27709W        W98309  43.042  42.830   3.191
27710W        W98310  27.089  29.381  11.476
27711W        W98311  20.660   1.951   0.421
27712W        W98312  35.712  39.882  11.966
27713W        W98313   2.178   6.894  12.471
27714W        W98314  25.141  29.252  11.998
27715W        W98315  19.042  23.753  10.416
27716W        W98316  41.282  37.028   4.498
27717W        W98317   0.315   0.296   0.368
27718W        W98318  30.368  39.497   1.807
27719W        W98319  37.068  38.034  12.122
27720W        W98320  13.758  23.056  11.013
27721W        W98321   0.166  14.891   1.460
27722W        W98322   5.402  38.851   0.273
27723W        W98323  32.183  40.484   0.844
27724W        W98324  23.736  14.246   3.118
27725W        W98325   8.730  16.750   0.962
27726W        W98326  35.801  32.283   3.654
27727W        W98327  23.583  11.970   4.724
27728W        W98328  11.601  34.852  10.273
27729W        W98329  42.301   5.498  12.067
27730W        W98330   6.669  35.917   4.750
27731W        W98331  43.021  38.614   2.947
27732W        W98332  15.636  15.764   3.677
27733W        W98333  25.413  22.183   0.747
27734W        W98334   7.887  43.101  12.608
27735W        W98335  42.658  30.667  14.453
27736W        W98336   5.311   4.072  10.623
27737W        W98337  21.573  34.031  11.021
27738W        W98338  10.258  31.450   0.483
27739W        W98339  22.174  39.378   2.814
27740W        W98340   7.310  23.624   1.348
27741W        W98341  40.748  29.465   0.925
27742W        W98342  32.657  25.120   1.825
27743W        W98343  16.310   2.957  13.860
27744W        W98344  14.339  29.241   1.892
27745W        W98345  39.140  40.913  13.504
27746W        W98346  34.894  10.332  12.517
27747W        W98347  22.103   7.172  14.494
27748W        W98348  44.827  36.486  14.354
27749W        W98349  25.196   3.763  11.936
27750W        W98350  23.170  11.201   0.359
27751W        W98351  23.104   3.503   0.268
27752W        W98352  19.020  33.952  11.488
27753W        W98353  25.647  42.642  10.781
27754W        W98354  22.537  31.362  12.181
27755W        W98355  30.081  26.710   4.490
27756W        W98356   2.243  22.223  13.027
27757W        W98357  35.829  17.157  14.874
27758W        W98358  10.490  24.618   5.099
27759W        W98359  10.784  13.118   1.610
27760W        W98360  39.092  13.838   0.825
27761W        W98361  17.263  10.830   2.864
27762W        W98362  18.313  12.788   2.258
27763W        W98363  13.124   2.096  11.176
27764W        W98364  44.385  21.323  10.434
27765W        W98365   3.162  32.067   9.862
27766W        W98366  33.874  42.536  10.078
27767W        W98367  13.380  17.863  14.736
27768W        W98368  22.770  37.758  14.306
27769W        W98369  44.776  44.786   4.924
27770W        W98370   5.853  18.251   0.003
27771W        W98371  17.924  23.828   0.135
27772W        W98372  38.674  31.122   3.684
27773W        W98373  30.106  22.098  12.829
27774W        W98374  37.089  22.973  14.882
27775W        W98375  35.348   9.350  13.370
27776W        W98376  44.689  26.168  13.659
27777W        W98377  41.183  36.435   4.228
27778W        W98378  37.824  33.605  11.190
27779W        W98379  23.153  12.785  13.858
27780W        W98380  11.557  17.958   4.269
27781W        W98381  29.008  25.142  14.877
27782W        W98382  36.050  13.610   2.905
27783W        W98383   9.367  10.025   3.282
27784W        W98384  15.307  38.098   3.674
27785W        W98385  29.232   5.938  13.451
27786W        W98386  42.282  11.825   4.652
27787W        W98387  24.976  27.409  14.478
27788W        W98388  34.486  39.269  10.746
27789W        W98389  25.737  15.192   3.638
27790W        W98390   3.880   3.304  11.796
27791W        W98391  12.603  27.905   1.409
27792W        W98392  26.047  27.727   2.325
27793W        W98393  35.057   0.775  11.149
27794W        W98394  33.944  28.402  12.950
27795W        W98395  40.993  16.127  10.663
27796W        W98396  37.385   5.609   0.682
27797W        W98397   7.319  42.952   1.165
27798W        W98398  37.569  33.936   1.800
27799W        W98399  38.570  35.622   1.067
27800W        W98400  33.339  28.501   1.198
27801W        W98401  34.219  14.583  11.397
27802W        W98402  39.012  17.623   4.524
27803W        W98403  36.620  36.404  12.110
27804W        W98404  19.948  25.567  12.433
27805W        W98405  16.339  17.792   1.251
27806W        W98406  14.493  16.373  14.940
27807W        W98407  18.932  13.568   2.341
27808W        W98408  36.912  20.218  12.082
27809W        W98409  22.171  12.641  13.872
27810W        W98410  35.047   8.993   3.827
27811W        W98411  19.301  17.674   1.693
27812W        W98412  40.670  40.807   1.412
27813W        W98413  36.479   6.652  11.223
27814W        W98414  22.716  43.968  14.254
27815W        W98415   8.267  16.054  13.752
27816W        W98416  15.110  22.692  12.100
27817W        W98417   7.446  12.013   0.315
27818W        W98418   6.305   6.458  13.589
27819W        W98419  35.602  41.796  14.442
27820W        W98420  22.142  32.062  10.859
27821W        W98421  42.033   1.272  11.167
27822W        W98422  30.763   5.742   1.324
27823W        W98423  13.839  44.501   3.311
27824W        W98424  26.530   8.611  13.822
27825W        W98425  17.007  23.556  10.264
27826W        W98426  14.603  19.679   3.692
27827W        W98427  11.694  37.997   1.900
27828W        W98428  14.844  11.170  11.035
27829W        W98429  28.928  19.033   2.850
27830W        W98430  27.442   9.350  14.375
27831W        W98431   6.089  25.958   3.550
27832W        W98432  37.379  35.767  14.505
27833W        W98433  13.282  28.393   2.468
27834W        W98434  26.224  19.068   0.894
27835W        W98435  43.533  21.047   1.892
27836W        W98436   2.124  43.151  11.827
27837W        W98437   4.781   0.823  13.164
27838W        W98438  36.250   2.154   4.815
27839W        W98439   2.312  30.858   4.546
27840W        W98440  42.656  43.933   4.470
27841W        W98441  39.383  42.227   0.017
27842W        W98442  40.789  43.423   2.463
27843W        W98443  17.758   9.683  11.826
27844W        W98444   6.164  32.957   1.340
27845W        W98445  33.324  35.822  11.162
27846W        W98446  39.952  14.887  11.950
27847W        W98447  39.533  16.840  13.293
27848W        W98448  25.385  13.078   4.243
27849W        W98449  36.134  21.043   0.405
27850W        W98450  15.786  42.539  14.002
27851W        W98451   2.296  24.175  11.735
27852W        W98452  38.137  21.569   0.320
27853W        W98453  40.386  23.577   1.283
27854W        W98454  17.722  12.300   4.656
27855W        W98455  33.931  44.270  11.578
27856W        W98456  40.299  10.368  14.894
27857W        W98457  42.280  37.301   2.233
27858W        W98458   0.017  28.345   0.482
27859W        W98459  16.250  41.018   1.816
27860W        W98460   8.203   6.898   0.967
27861W        W98461  26.172   9.223   3.927
27862W        W98462  43.447  17.090  14.602
27863W        W98463  26.500  14.131  11.962
27864W        W98464  32.092  40.272   2.673
27865W        W98465  27.611   5.780  12.584
27866W        W98466  28.571  12.410   3.440
27867W        W98467  15.594   6.995   0.877
27868W        W98468  32.129  18.536   0.708
27869W        W98469  16.739  41.084  10.510
27870W        W98470  20.580  26.014  10.406
27871W        W98471  28.600  43.211  13.909
27872W        W98472  17.162  31.535   9.799
27873W        W98473  21.946  11.066  11.584
27874W        W98474  39.497  28.972   4.489
27875W        W98475  23.129   0.061  14.926
27876W        W98476  17.407  19.475   4.911
27877W        W98477  40.760  26.613  11.179
27878W        W98478  41.573  27.436   0.476
27879W        W98479   4.161  41.005   3.954
27880W        W98480  33.989  11.002   1.380
27881W        W98481  29.473  31.686   0.272
27882W        W98482   4.952  35.042  10.651
27883W        W98483  21.950  16.275  10.712
27884W        W98484  21.135  14.362   0.409
27885W        W98485  17.512  14.571   3.094
27886W        W98486  34.401  21.313  13.695
27887W        W98487  24.612  36.047   4.839
27888W        W98488   5.713  24.791   3.484
27889W        W98489  40.569  42.709  13.042
27890W        W98490  37.064   9.919  11.124
27891W        W98491  18.330  25.751   0.354
27892W        W98492  16.795  21.002  12.834
27893W        W98493  32.141  41.455  13.887
27894W        W98494  43.236  13.262  14.464
27895W        W98495  26.210  29.690   1.021
27896W        W98496  20.744  30.520   0.386
27897W        W98497  14.580  11.802   3.993
27898W        W98498  12.196  43.476   3.088
27899W        W98499  35.941  34.438  14.110
27900W        W98500   5.074  10.314  12.022
27901W        W98501  35.493  38.531  12.318
27902W        W98502  20.725  29.682  10.646
27903W        W98503  43.786  35.090   2.070
27904W        W98504  34.897   5.991   4.181
27905W        W98505  44.501   7.570  13.927
27906W        W98506  37.566  12.182   3.912
27907W        W98507   5.933  22.523   1.463
27908W        W98508  30.379  21.032   3.312
27909W        W98509  20.215  28.077  11.564
27910W        W98510  10.172   5.651   4.725
27911W        W98511  10.919  17.719  10.690
27912W        W98512  33.101  12.233   4.086
27913W        W98513   5.825   6.021  12.586
27914W        W98514   2.339  32.988   0.298
27915W        W98515  31.833  31.105   4.221
27916W        W98516  18.050  37.989  13.266
27917W        W98517   1.742  18.439   5.128
27918W        W98518  14.266   6.407   1.523
27919W        W98519  42.932   6.773   2.606
27920W        W98520   0.897  37.322   4.004
27921W        W98521  10.686  32.581   2.128
27922W        W98522  38.989  12.414  14.352
27923W        W98523  42.423  24.959  13.986
27924W        W98524  37.251  38.970  14.332
27925W        W98525  26.240  34.384  12.639
27926W        W98526   0.971  15.306   1.326
27927W        W98527  28.491  38.534   4.128
27928W        W98528  19.638   4.904  14.838
27929W        W98529  23.232   9.128   9.584
27930W        W98530  42.271   6.700  12.509
27931W        W98531  27.175  25.975   1.543
27932W        W98532  10.820  28.625  12.067
27933W        W98533  26.524   7.422  11.809
27934W        W98534  19.017  29.389   4.090
27935W        W98535  14.861   6.849  12.621
27936W        W98536  26.618   7.251   2.739
27937W        W98537  41.609   5.641   0.002
27938W        W98538  14.507  28.432  14.493
27939W        W98539   0.260   5.070  14.381
27940W        W98540  15.099   7.574   1.465
27941W        W98541  35.390  27.272   1.257
27942W        W98542  24.663  35.955   2.370
27943W        W98543  11.056  35.024   1.362
27944W        W98544  39.847  18.561   0.373
27945W        W98545   4.190  41.087  12.884
27946W        W98546  35.610  20.947   0.353
27947W        W98547  25.422  20.808   1.852
27948W        W98548   2.466   2.178  11.589
27949W        W98549  35.400  35.951  12.395
27950W        W98550  22.729  22.189  10.491
27951W        W98551   0.420  28.023  13.988
27952W        W98552  28.425  24.496  14.357
27953W        W98553   1.542  27.525  12.949
27954W        W98554   4.929  37.488   2.789
27955W        W98555   5.664   9.262   2.811
27956W        W98556  39.032  30.172   1.272
27957W        W98557  16.041  23.222  11.602
27958W        W98558  43.411   1.974  10.530
27959W        W98559   6.848  24.006   1.721
27960W        W98560   7.332  42.831   2.175
27961W        W98561  22.656  36.928  14.933
27962W        W98562   7.885  20.895   4.542
27963W        W98563  25.589  36.530  11.585
27964W        W98564  10.841   4.839   3.120
27965W        W98565   3.960  41.769   2.056
27966W        W98566   3.874  37.717   0.292
27967W        W98567  19.216  21.161  13.055
27968W        W98568  29.116  10.469   2.300
27969W        W98569  37.157  16.139   2.906
27970W        W98570  12.282  24.572   1.019
27971W        W98571  13.878  37.596  11.600
27972W        W98572  23.052  44.254   3.234
27973W        W98573  44.848  29.435   0.482
27974W        W98574  40.845  40.291   4.773
27975W        W98575  39.889  43.811   2.146
27976W        W98576  40.287  20.698  12.879
27977W        W98577  12.522   4.751  13.831
27978W        W98578  39.834   3.784   3.439
27979W        W98579  44.256   6.164   2.681
27980W        W98580  27.236  15.926   3.342
27981W        W98581  39.499  39.940  13.575
27982W        W98582  38.377  39.216   2.768
27983W        W98583  38.832  15.534   3.690
27984W        W98584  37.258   2.172  10.855
27985W        W98585  34.365  32.708   0.248
27986W        W98586   0.363   0.455   1.868
27987W        W98587  10.669  36.228  12.378
27988W        W98588  37.187  27.945   2.290
27989W        W98589  39.848  26.221   0.642
27990W        W98590  22.434  25.685  13.739
27991W        W98591  30.116   8.190   2.308
27992W        W98592  28.194  13.284   1.044
27993W        W98593  11.946  35.543  12.304
27994W        W98594  28.887  27.438  14.747
27995W        W98595   3.037  21.542  14.937
27996W        W98596   2.207  10.341   4.481
27997W        W98597  43.246  34.081   3.628
27998W        W98598  31.423  38.421   4.608
27999W        W98599   4.528   8.233  12.717
28000W        W98600  41.554   2.461   3.579
28001W        W98601  28.953  10.272   4.376
28002W        W98602   1.749  15.202  12.479
28003W        W98603  44.055  13.392  14.150
28004W        W98604  21.303  38.639  11.981
28005W        W98605   4.390  18.557  10.443
28006W        W98606   1.972   3.144  12.973
28007W        W98607  37.024  25.622  12.459
28008W        W98608  29.907  18.124   0.563
28009W        W98609  44.232  12.178  12.384
28010W        W98610   7.435   2.685  11.073
28011W        W98611  28.934   0.840   1.441
28012W        W98612  40.468  13.864   2.252
28013W        W98613  29.137  30.544   4.057
28014W        W98614  26.021  44.899  14.938
28015W        W98615  43.197  19.828   3.185
28016W        W98616  12.992   7.980   1.938
28017W        W98617   8.824   3.840  11.069
28018W        W98618  22.408  18.782  11.123
28019W        W98619  10.060  11.447   2.639
28020W        W98620  19.652  28.225   1.404
28021W        W98621  15.104  25.471  11.650
28022W        W98622  14.596  22.959   3.205
28023W        W98623  24.646  12.419   4.586
28024W        W98624  40.810  18.136   0.459
28025W        W98625   6.252  34.028   0.161
28026W        W98626  27.526  44.423  11.093
28027W        W98627   3.871  38.488  14.838
28028W        W98628   1.301   1.439  14.508
28029W        W98629  20.311  16.133   0.401
28030W        W98630   1.530  25.160   4.303
28031W        W98631  10.607   9.871  13.449
28032W        W98632  40.810   4.233   3.084
28033W        W98633  19.073  10.614  10.651
28034W        W98634  16.310  36.832  13.002
28035W        W98635  35.970  32.804   2.667
28036W        W98636  31.287  18.852  12.512
28037W        W98637  41.671  23.551  10.564
28038W        W98638  30.686  31.939   3.226
28039W        W98639  31.361   3.325  12.879
28040W        W98640   3.904   3.809  11.720
28041W        W98641   5.385  25.086   4.733
28042W        W98642  35.368  22.845   0.383
28043W        W98643  18.126  32.604   4.640
28044W        W98644   9.113   0.043  11.018
28045W        W98645  37.946  43.311   1.758
28046W        W98646  19.569  24.543   0.417
28047W        W98647  43.867   0.927   2.760
28048W        W98648  42.033  29.176  12.363
28049W        W98649  42.397   7.266   1.002
28050W        W98650  25.539  32.647   0.246
28051W        W98651  26.919   2.956  12.177
28052W        W98652  13.695  23.514  12.985
28053W        W98653  24.490   3.523  11.289
28054W        W98654   2.477  21.968  14.230
28055W        W98655  44.512  35.617  13.491
28056W        W98656   7.751   2.453   0.723
28057W        W98657  43.288  40.396   0.037
28058W        W98658  43.009  34.509  14.505
28059W        W98659  30.637  11.446  13.978
28060W        W98660  40.967  12.029  11.698
28061W        W98661  31.828  31.916  11.323
28062W        W98662   8.527   9.893   0.304
28063W        W98663  36.519  20.124   4.725
28064W        W98664   3.753  16.527   2.679
28065W        W98665   4.868  24.973   1.277
28066W        W98666  26.275   5.019  13.574
28067W        W98667  39.488  38.656   0.450
28068W        W98668   6.351  37.263  14.275
28069W        W98669  11.659   0.912   0.536
28070W        W98670  38.796  31.945   0.251
28071W        W98671  17.243   0.391   2.124
28072W        W98672  35.429  15.334   3.216
28073W        W98673  41.244  32.782  10.727
28074W        W98674  17.263  30.392  13.229
28075W        W98675  39.107  17.499   3.621
28076W        W98676  32.514  36.023   4.220
28077W        W98677  29.130  25.729   4.259
28078W        W98678  21.124   3.045   4.864
28079W        W98679  24.699  22.905  11.205
28080W        W98680  13.168   3.899   1.864
28081W        W98681  44.198  38.975   9.833
28082W        W98682  43.277  33.044   0.338
28083W        W98683  20.186  38.155   0.883
28084W        W98684  13.076  14.016   2.517
28085W        W98685  38.432  43.234  12.566
28086W        W98686   0.035  42.506   5.052
28087W        W98687  31.898  11.630   3.702
28088W        W98688  22.571  28.031  11.626
28089W        W98689   9.896  26.212  14.919
28090W        W98690  44.241  32.119   3.286
28091W        W98691  28.679   5.720   4.290
28092W        W98692  40.478   1.922  11.509
28093W        W98693  41.866   5.354  14.357
28094W        W98694  22.433   0.072   2.606
28095W        W98695  20.572  27.134  13.761
28096W        W98696  27.923  17.238  12.812
28097W        W98697   3.472   2.845  14.945
28098W        W98698  41.266  40.045  14.276
28099W        W98699  13.017  40.989   3.214
28100W        W98700  23.777  19.182   3.681
28101W        W98701  23.403   5.045  12.450
28102W        W98702   4.643  21.179  11.993
28103W        W98703  23.945  31.127   2.635
28104W        W98704  20.630  12.672   3.829
28105W        W98705  29.238  28.988  13.618
28106W        W98706  40.777   6.754  13.387
28107W        W98707  33.075  31.173  13.406
28108W        W98708  26.368  13.853   1.214
28109W        W98709   6.360  27.547  11.451
28110W        W98710  38.591  35.547  12.387
28111W        W98711   4.178  20.943  12.027
28112W        W98712  15.938   1.764   3.581
28113W        W98713  40.058  40.823   4.475
28114W        W98714  27.737   5.142   4.738
28115W        W98715  36.796   3.600  12.749
28116W        W98716  17.637  19.060   1.649
28117W        W98717  34.517  14.118  10.571
28118W        W98718  40.358   8.665   1.880
28119W        W98719  23.618  42.290   4.267
28120W        W98720  13.914  14.123  14.852
28121W        W98721   1.669  35.336   4.090
28122W        W98722  21.789  28.647   3.798
28123W        W98723   9.560  22.477   3.028
28124W        W98724  29.530  43.234   2.570
28125W        W98725  11.717  25.661   0.391
28126W        W98726   3.520  22.722   3.319
28127W        W98727  43.381   7.062  11.650
28128W        W98728  14.691  21.704   2.649
28129W        W98729  28.181  37.344   3.843
28130W        W98730  24.282  21.605  14.073
28131W        W98731  17.228  37.624  13.023
28132W        W98732   5.639  12.122  11.635
28133W        W98733  26.074  35.318   1.870
28134W        W98734  12.483  39.987  12.176
28135W        W98735  43.981  12.404   0.772
28136W        W98736  11.674  40.826   1.396
28137W        W98737  18.747  35.575   2.689
28138W        W98738  13.943   7.983   3.960
28139W        W98739  24.800  43.629   2.367
28140W        W98740   8.538  20.143   1.213
28141W        W98741  14.276   3.871   4.269
28142W        W98742  35.832  38.463   3.877
28143W        W98743  35.087  24.628  11.970
28144W        W98744  26.231  14.120   2.197
28145W        W98745  43.646   3.705   2.150
28146W        W98746   9.304  10.245   4.989
28147W        W98747  42.552  10.983  10.378
28148W        W98748   1.330  26.966  12.050
28149W        W98749  24.246  38.146  13.022
28150W        W98750  24.767  36.439   2.624
28151W        W98751   7.328  11.982   1.120
28152W        W98752  34.921  29.607   3.910
28153W        W98753   5.355  32.540   1.047
28154W        W98754  24.109  43.228  12.178
28155W        W98755  23.272  39.974  11.086
28156W        W98756  36.773  31.601  14.502
28157W        W98757  18.338   9.347   3.167
28158W        W98758  31.258   6.266  10.357
28159W        W98759  11.948  13.819   4.629
28160W        W98760  28.662  23.932   3.717
28161W        W98761  21.020   7.373   0.803
28162W        W98762   2.946  34.092  14.564
28163W        W98763  12.442   5.720  12.300
28164W        W98764  38.071  27.646  14.863
28165W        W98765  26.381  43.058  13.516
28166W        W98766  18.501  10.582  12.838
28167W        W98767  14.064  31.008   0.745
28168W        W98768  33.347   5.238   1.381
28169W        W98769   2.354  30.702   1.334
28170W        W98770  22.012  10.634  12.655
28171W        W98771  32.363  24.449  10.717
28172W        W98772  14.785  10.091  10.501
28173W        W98773  24.580  16.719   2.424
28174W        W98774  16.818   2.682   1.964
28175W        W98775  18.281  36.994  12.904
28176W        W98776  19.003  10.129   2.239
28177W        W98777  30.603   3.192  14.811
28178W        W98778  13.791  38.988  14.044
28179W        W98779  40.410   1.773   3.381
28180W        W98780  42.442  20.327   0.977
28181W        W98781  28.710  30.237   4.204
28182W        W98782  21.809  40.322   3.877
28183W        W98783   9.032  15.198  13.371
28184W        W98784   9.985   9.779  11.960
28185W        W98785  17.750   1.735   3.170
28186W        W98786  39.576  30.954   2.482
28187W        W98787   7.941  26.737  13.784
28188W        W98788  29.428  13.078  14.227
28189W        W98789  28.197  27.142  14.913
28190W        W98790   9.815  32.626   4.604
28191W        W98791   8.653   9.566   1.651
28192W        W98792  31.002  20.910  10.904
28193W        W98793  18.683  31.479   4.796
28194W        W98794   2.440  22.644  14.822
28195W        W98795  42.493   9.751  11.632
28196W        W98796  17.150  32.361  14.864
28197W        W98797  41.558  35.913  14.801
28198W        W98798   0.496   9.384   3.788
28199W        W98799  21.190  29.209  10.763
28200W        W98800  30.638  26.597  13.000
28201W        W98801  43.477  37.870  14.161
28202W        W98802  34.727  40.774   0.268
28203W        W98803  35.998  24.637   2.603
28204W        W98804  29.689  38.955  12.441
28205W        W98805   9.421  21.508   3.539
28206W        W98806  10.323  20.144  11.316
28207W        W98807   6.333  17.208  13.553
28208W        W98808  29.823   4.382  11.103
28209W        W98809  12.787  38.493  11.577
28210W        W98810  20.786  21.477   1.386
28211W        W98811  10.834  33.031  13.324
28212W        W98812   5.370  35.378   1.774
28213W        W98813  35.428  32.640  11.142
28214W        W98814  41.363  17.746   1.777
28215W        W98815  21.467  34.524  14.913
28216W        W98816  13.372  18.160   0.971
28217W        W98817   9.444  37.956   2.761
28218W        W98818  16.326  22.251  10.919
28219W        W98819  34.029  29.564   2.873
28220W        W98820  15.830  15.709  13.299
28221W        W98821   1.473  31.060   0.913
28222W        W98822   3.886  29.750   2.643
28223W        W98823  38.499   2.289  10.633
28224W        W98824  26.571  17.658   1.320
28225W        W98825  12.076  33.353  14.255
28226W        W98826  32.941  25.061   1.409
28227W        W98827  44.475  30.214   3.190
28228W        W98828   4.395  11.943  14.273
28229W        W98829  38.836  38.897   4.649
28230W        W98830  36.485  25.559  13.516
28231W        W98831  44.234  44.841  11.922
28232W        W98832   9.823  35.183   4.364
28233W        W98833  34.984   7.945  10.952
28234W        W98834   6.957  27.041   2.816
28235W        W98835  35.615  33.039   0.299
28236W        W98836  43.331  32.934  12.413
28237W        W98837  36.008  34.109  12.778
28238W        W98838   2.704  22.952   3.371
28239W        W98839  42.293  16.105  13.511
28240W        W98840   8.130  12.922  10.746
28241W        W98841  33.190   3.108  14.274
28242W        W98842  21.076   3.879   0.957
28243W        W98843  32.862  37.956   1.892
28244W        W98844  13.207  19.885   1.758
28245W        W98845  36.611  24.261   2.923
28246W        W98846  39.615   1.020   0.423
28247W        W98847   8.795  30.081  14.382
28248W        W98848  37.917  37.847  14.103
28249W        W98849  10.836  20.080  13.272
28250W        W98850  27.183  40.850  14.890
28251W        W98851  41.407  12.366  10.787
28252W        W98852  42.032   0.703  14.224
28253W        W98853  43.843  19.561   2.798
28254W        W98854  18.248   1.358  13.550
28255W        W98855  30.344  19.194  12.892
28256W        W98856  27.805  23.754   1.166
28257W        W98857  30.388   0.722  14.837
28258W        W98858   2.916   9.207  10.970
28259W        W98859  44.358  10.953   0.917
28260W        W98860  17.170  37.010   3.690
28261W        W98861   7.243  28.993  11.242
28262W        W98862   6.661   3.037   0.893
28263W        W98863   7.863  29.991   2.160
28264W        W98864  42.402  40.315  13.957
28265W        W98865  31.383   8.472   4.537
28266W        W98866  13.755  38.523  10.669
28267W        W98867  12.799  25.906   1.510
28268W        W98868  27.215   2.218   0.965
28269W        W98869  10.941   6.963  14.944
28270W        W98870  38.466  36.594  11.397
28271W        W98871  33.648  39.936   3.880
28272W        W98872  38.741  19.372  12.985
28273W        W98873  35.359   8.428   1.839
28274W        W98874  39.852   9.668  12.931
28275W        W98875  43.470   5.622   3.038
28276W        W98876  43.021  38.804   1.112
28277W        W98877  20.018  36.913  13.324
28278W        W98878   2.716  38.773   1.673
28279W        W98879  18.008   2.310  11.323
28280W        W98880   3.769  28.900  10.940
28281W        W98881  27.629  19.536   2.646
28282W        W98882  21.225  34.287   3.252
28283W        W98883   8.424  17.688   1.021
28284W        W98884  38.596  41.702   0.959
28285W        W98885   7.406  28.600  12.366
28286W        W98886  12.142   6.768   2.661
28287W        W98887  11.827  14.203   1.587
28288W        W98888  36.517  18.689   3.635
28289W        W98889  40.863  22.210  10.763
28290W        W98890  33.482   4.346  11.246
28291W        W98891  27.699   4.007   1.300
28292W        W98892  13.382  21.032   1.131
28293W        W98893  20.232  33.948   1.718
28294W        W98894  13.847  32.736  11.032
28295W        W98895  12.397  32.875  14.549
28296W        W98896  23.136  26.626   0.806
28297W        W98897  18.328  32.468  12.336
28298W        W98898  40.444  36.200   0.742
28299W        W98899   6.793   5.404   0.186
28300W        W98900  11.599  28.628   0.937
28301W        W98901  18.211  11.691   3.110
28302W        W98902   1.233   3.430   0.309
28303W        W98903  14.556  32.012   4.230
28304W        W98904  12.815  44.571  12.347
28305W        W98905  34.168  17.101   4.622
28306W        W98906   5.270  13.703   1.799
28307W        W98907  15.912  42.780   2.520
28308W        W98908  14.215  42.959  10.270
28309W        W98909  35.808  30.652   3.167
28310W        W98910  29.574  25.843   3.082
28311W        W98911  34.005  37.537   0.768
28312W        W98912  31.945  18.128  13.006
28313W        W98913  11.138  15.229   1.368
28314W        W98914   4.160  30.540  10.284
28315W        W98915  17.131  40.432  11.565
28316W        W98916   3.721  28.816  12.463
28317W        W98917  35.817  14.458  11.560
28318W        W98918  12.736  43.084   3.159
28319W        W98919  44.791   2.221   0.707
28320W        W98920  27.580  35.076  12.946
28321W        W98921  42.048  15.368   4.248
28322W        W98922  17.816  29.107   3.056
28323W        W98923  21.513  43.752   0.885
28324W        W98924   5.182  16.334   3.773
28325W        W98925   3.821   4.662  10.635
28326W        W98926  36.894   8.223   0.306
28327W        W98927  23.285   2.773   4.199
28328W        W98928  39.345   9.208   3.379
28329W        W98929  37.341   7.621  12.188
28330W        W98930   2.781   9.585   1.540
28331W        W98931  14.863   1.357  12.923
28332W        W98932   4.242  19.167  13.754
28333W        W98933  31.306  15.118  11.067
28334W        W98934  36.367  10.616   2.316
28335W        W98935  29.037   2.697  11.581
28336W        W98936  14.956  18.580  14.380
28337W        W98937  39.193   5.281   3.320
28338W        W98938  21.708  17.112  13.558
28339W        W98939  40.716   3.002  10.721
28340W        W98940  27.983  29.678   4.241
28341W        W98941  25.713  42.757   0.317
28342W        W98942  30.208  15.279   3.098
28343W        W98943  17.217  24.764  10.792
28344W        W98944  30.582  16.539   1.295
28345W        W98945   8.275  29.929  14.463
28346W        W98946  16.177  37.046  11.649
28347W        W98947  30.694  14.150  13.545
28348W        W98948   1.248   0.834   4.345
28349W        W98949  14.234   5.669  10.940
28350W        W98950  34.047  31.325  11.457
28351W        W98951  39.959  14.267   3.938
28352W        W98952   0.952   1.554   0.364
28353W        W98953  43.353  44.903   4.506
28354W        W98954  36.953  41.786  13.091
28355W        W98955  43.794  43.051  10.144
28356W        W98956   1.993  29.023   4.013
28357W        W98957  14.233  27.851   3.966
28358W        W98958  31.152  24.106  14.454
28359W        W98959  42.774  32.144   1.757
28360W        W98960  40.952  20.957   2.131
28361W        W98961  32.871  33.966  13.974
28362W        W98962  10.302  15.778  14.501
28363W        W98963  29.438  32.422  14.584
28364W        W98964  32.920  38.071  14.591
28365W        W98965   7.145  36.234  11.101
28366W        W98966  38.947  43.759   0.740
28367W        W98967   9.706  14.283  12.186
28368W        W98968  34.634   1.929   4.935
28369W        W98969  23.525  41.904   1.403
28370W        W98970  40.028  16.695   2.785
28371W        W98971   9.207   4.249  14.985
28372W        W98972  29.011  41.045   3.487
28373W        W98973  26.513   0.507   4.471
28374W        W98974   6.002  43.219  10.746
28375W        W98975  30.997  14.509   2.357
28376W        W98976   4.896  37.022  10.711
28377W        W98977  23.920  33.872   1.774
28378W        W98978  29.727   0.193  14.823
28379W        W98979  39.262  36.956   0.985
28380W        W98980  15.173  28.352  11.162
28381W        W98981   6.717  25.635   2.576
28382W        W98982   1.252  22.062  10.777
28383W        W98983  40.267   8.731  13.324
28384W        W98984  43.834  39.081   4.343
28385W        W98985  33.356  36.957   4.614
28386W        W98986  16.311  42.516  13.978
28387W        W98987  11.536  21.070  13.552
28388W        W98988  27.355  15.254   2.623
28389W        W98989  20.691  31.055   2.925
28390W        W98990  17.469   7.648  14.311
28391W        W98991  20.650   8.881   2.680
28392W        W98992  42.033   3.203   0.902
28393W        W98993  35.023  41.457  14.767
28394W        W98994  12.507   3.286  14.306
28395W        W98995  30.537  26.149   1.828
28396W        W98996  30.108  32.118   2.196
28397W        W98997  32.118  24.130  13.486
28398W        W98998  11.121  39.553   0.488
28399W        W98999  13.106  30.101  14.300
28400W        W99000  20.938   5.815   5.270
28401W        W99001  27.067  26.994  11.930
28402W        W99002  14.605  35.333  10.717
28403W        W99003   9.169  29.055  11.705
28404W        W99004  27.833  39.473   3.655
28405W        W99005  33.594  23.993  13.842
28406W        W99006  15.070  21.657  14.844
28407W        W99007  21.253  22.732  10.688
28408W        W99008  30.410  34.602  12.059
28409W        W99009  29.984  12.585   0.763
28410W        W99010  40.352  31.988   4.636
28411W        W99011  33.155   6.958   2.321
28412W        W99012  26.074  22.038   1.431
28413W        W99013  42.525  22.387   0.736
28414W        W99014  12.600  40.864  10.998
28415W        W99015  44.943  12.387   2.747
28416W        W99016  19.009  29.870  11.553
28417W        W99017  30.091  39.392  14.944
28418W        W99018  41.303  29.001  14.023
28419W        W99019   5.689  40.325  12.057
28420W        W99020  21.284  43.806   2.717
28421W        W99021  16.824   6.419  11.708
28422W        W99022  44.491  31.158   3.211
28423W        W99023  12.776  44.822   0.532
28424W        W99024  21.693  11.310   4.313
28425W        W99025  27.002  26.476  14.718
28426W        W99026  26.884  21.027   2.730
28427W        W99027  34.335  35.753  11.932
28428W        W99028  27.530   3.192   2.188
28429W        W99029  28.928  14.617   3.409
28430W        W99030  16.541  24.030  12.510
28431W        W99031  37.182  17.599  13.950
28432W        W99032   5.474  32.069   4.794
28433W        W99033   6.627  34.074  14.385
28434W        W99034   3.449  22.269   0.965
28435W        W99035  17.049  13.144  14.988
28436W        W99036  37.873   4.415   0.544
28437W        W99037  12.586  41.575  11.525
28438W        W99038  24.708  24.041   3.392
28439W        W99039  42.160  19.465  12.605
28440W        W99040  14.787  17.913   0.556
28441W        W99041   0.038   2.126   4.777
28442W        W99042  34.060  20.209  12.188
28443W        W99043  27.647  14.813   0.414
28444W        W99044  13.201  31.699  13.361
28445W        W99045   9.774  43.736  11.208
28446W        W99046  39.000  25.374   1.180
28447W        W99047  22.393   4.421  12.827
28448W        W99048  28.496  35.375  10.700
28449W        W99049  38.446   2.804  13.296
28450W        W99050   0.259   2.271   0.471
28451W        W99051  36.875  16.019   0.363
28452W        W99052  19.193  19.599   4.882
28453W        W99053  33.374  44.938  14.929
28454W        W99054  22.338  42.944  11.620
28455W        W99055  28.392  37.172   3.260
28456W        W99056   9.196  28.215  10.396
28457W        W99057  29.964  29.444  11.730
28458W        W99058   9.317  18.941   4.665
28459W        W99059  35.293   0.967   4.856
28460W        W99060  20.255  32.536   2.823
28461W        W99061  32.641  37.942   3.568
28462W        W99062  16.338  28.979   3.602
28463W        W99063  14.403   8.459   4.739
28464W        W99064   2.316   7.210  14.360
28465W        W99065  26.300   5.733   0.778
28466W        W99066   8.257  34.430   2.693
28467W        W99067  41.887  36.057   2.934
28468W        W99068  41.761  38.374  11.025
28469W        W99069  33.351  21.877   4.677
28470W        W99070  43.345  19.317   3.129
28471W        W99071   7.412  31.935  13.315
28472W        W99072  13.298  26.322  13.524
28473W        W99073  11.847   4.129   0.016
28474W        W99074   7.132  42.441  14.830
28475W        W99075  21.653  20.519  13.071
28476W        W99076  18.408  21.110   1.289
28477W        W99077  25.025   8.191   1.374
28478W        W99078   3.310  17.639   4.131
28479W        W99079  26.232  15.154   1.907
28480W        W99080  18.947  44.892  13.329
28481W        W99081  33.310  10.247   3.950
28482W        W99082   7.694  37.849   4.037
28483W        W99083  33.380   1.535   1.938
28484W        W99084  10.933   6.234  10.642
28485W        W99085  27.110  27.843   2.705
28486W        W99086  35.506  37.063  13.359
28487W        W99087  36.684   1.728  12.886
28488W        W99088   1.707   9.212  12.433
28489W        W99089  27.662  30.537  14.530
28490W        W99090  37.413   3.404   3.149
28491W        W99091  21.236  43.450  11.966
28492W        W99092  43.841   7.760   2.731
28493W        W99093  26.198  34.183  11.467
28494W        W99094  33.599  21.753  13.180
28495W        W99095  21.040  22.200   0.333
28496W        W99096  17.729  23.357   0.176
28497W        W99097  24.503  31.417  14.996
28498W        W99098  23.843  33.075  11.929
28499W        W99099  18.022  32.507   1.208
28500W        W99100  29.993  13.041  11.699
28501W        W99101   2.267  30.158  11.643
28502W        W99102  38.389  31.008   4.135
28503W        W99103   0.683  25.085   1.955
28504W        W99104  14.703  34.051  13.790
28505W        W99105  17.252  38.754   0.539
28506W        W99106  30.133  12.143   1.000
28507W        W99107  19.722   3.406  12.095
28508W        W99108   2.761  16.044   0.435
28509W        W99109  23.824  43.680   2.896
28510W        W99110   9.134  22.933  14.599
28511W        W99111  15.213  31.088   4.431
28512W        W99112   3.830  25.427  13.601
28513W        W99113  28.883   9.847  11.983
28514W        W99114   9.337  33.755  14.894
28515W        W99115  27.943  23.064  10.316
28516W        W99116   7.926   3.996  13.097
28517W        W99117  24.181  21.194  14.374
28518W        W99118  10.557   4.854  11.053
28519W        W99119  22.715  29.922  12.116
28520W        W99120  19.319  12.201   2.899
28521W        W99121  17.303   3.756   0.380
28522W        W99122  34.504  18.544  13.915
28523W        W99123   7.723  38.279  13.969
28524W        W99124  42.513   6.325   4.678
28525W        W99125   1.820   8.994  11.138
28526W        W99126  36.640  25.517   3.215
28527W        W99127  11.474  31.474  13.962
28528W        W99128   8.772   5.334  13.955
28529W        W99129  16.762  13.627   0.302
28530W        W99130  40.586  27.587   0.203
28531W        W99131  26.092  11.810   3.813
28532W        W99132   7.945   7.376  10.770
28533W        W99133  42.851  32.885  12.128
28534W        W99134  43.821  26.484   1.465
28535W        W99135  39.247   2.293   1.484
28536W        W99136  11.363  31.872   1.284
28537W        W99137  36.468   5.697  11.530
28538W        W99138  21.533  42.715  12.630
28539W        W99139  14.822  10.069   1.841
28540W        W99140  40.607  12.140  12.847
28541W        W99141  43.805   8.887   1.305
28542W        W99142   6.716  41.319  13.442
28543W        W99143   5.140  20.242   4.448
28544W        W99144  22.199   5.964   0.326
28545W        W99145  35.703  23.343   1.261
28546W        W99146  19.035  18.410   1.374
28547W        W99147  33.983  22.763   0.913
28548W        W99148   1.556  28.730   2.418
28549W        W99149  27.088   6.264   3.418
28550W        W99150  25.078   5.926  11.585
28551W        W99151  38.803   8.972   2.662
28552W        W99152  33.144  28.075   1.424
28553W        W99153  11.816  36.127  10.786
28554W        W99154  44.001  19.679  14.090
28555W        W99155  18.528   0.986   3.900
28556W        W99156  34.557   8.240   3.658
28557W        W99157  12.328  34.461   1.210
28558W        W99158   9.664  23.150   2.311
28559W        W99159  28.183  12.524  10.243
28560W        W99160   0.986  35.915   3.247
28561W        W99161  23.114  13.621   3.187
28562W        W99162  23.643  29.979  13.770
28563W        W99163  44.860  38.784  13.126
28564W        W99164   3.701   8.253   2.263
28565W        W99165  32.376  27.026  11.216
28566W        W99166  12.182  27.063  14.760
28567W        W99167  39.016  27.155   4.228
28568W        W99168  39.661  41.930   0.802
28569W        W99169   1.955  39.066   1.297
28570W        W99170  22.363   9.749   2.328
28571W        W99171  18.261  32.021   1.267
28572W        W99172  41.763  16.553   3.850
28573W        W99173  23.064  16.659  10.746
28574W        W99174  43.065  26.063   4.736
28575W        W99175  15.269  12.543   9.868
28576W        W99176   7.891   8.162  13.035
28577W        W99177  34.859  25.206   1.293
28578W        W99178  42.778  34.157   2.173
28579W        W99179  32.356  24.453  14.996
28580W        W99180   9.797  27.338   3.151
28581W        W99181  25.101  22.055  13.833
28582W        W99182  33.362  30.188  10.685
28583W        W99183  42.679   8.936  14.750
28584W        W99184  18.331   1.677   4.344
28585W        W99185  34.365  36.329   3.296
28586W        W99186  22.658  17.266  14.790
28587W        W99187   4.444  29.964   1.796
28588W        W99188  25.184  10.583   0.304
28589W        W99189  11.848  23.121   1.794
28590W        W99190   6.379  25.132  12.935
28591W        W99191  12.522  33.775   0.680
28592W        W99192  24.653   5.976   3.692
28593W        W99193  15.514  40.295  12.265
28594W        W99194  26.513  20.301   4.102
28595W        W99195  13.962  13.286   3.986
28596W        W99196  18.727  12.899  13.483
28597W        W99197  27.234  44.492   2.980
28598W        W99198  13.703   7.630   0.391
28599W        W99199  19.024   3.154  12.409
28600W        W99200   2.979  12.394  11.006
28601W        W99201  13.500  42.984   1.422
28602W        W99202  21.608  12.803   0.799
28603W        W99203  43.359  22.194  10.453
28604W        W99204  17.831  37.660  10.255
28605W        W99205  40.144  14.135   2.648
28606W        W99206  15.654  17.141   4.148
28607W        W99207   7.701  42.729  13.916
28608W        W99208  28.997  23.480  12.995
28609W        W99209  41.309  39.363  12.500
28610W        W99210   2.533  28.447  11.140
28611W        W99211  32.300  30.743   3.128
28612W        W99212  30.031  42.854  13.770
28613W        W99213  25.156  12.855   1.543
28614W        W99214  40.975  31.715   1.740
28615W        W99215   4.946   0.444  14.402
28616W        W99216  23.636   0.484   2.700
28617W        W99217  37.051  44.797  14.426
28618W        W99218  34.180  23.388  11.561
28619W        W99219  11.509   9.198  13.335
28620W        W99220   7.089  28.637   4.688
28621W        W99221  38.683  27.828  12.993
28622W        W99222  18.153  12.218  14.897
28623W        W99223   9.600  39.365   2.225
28624W        W99224  35.844  11.186   3.218
28625W        W99225  27.416  34.456   4.512
28626W        W99226  16.129   1.941   4.619
28627W        W99227  13.707   4.518  14.470
28628W        W99228   3.211   8.583   3.338
28629W        W99229   9.687  41.181   2.771
28630W        W99230  17.088  25.122   2.281
28631W        W99231  30.934  18.717  14.805
28632W        W99232   9.316   1.809   4.698
28633W        W99233  40.565  39.067  10.815
28634W        W99234  41.560   3.326   3.658
28635W        W99235   4.327  29.430  13.133
28636W        W99236  13.700  24.047  11.809
28637W        W99237   3.743   8.746   3.655
28638W        W99238   8.254  36.733   0.168
28639W        W99239  36.076  23.091   4.404
28640W        W99240  15.667   9.158  13.740
28641W        W99241   7.338  44.762  12.975
28642W        W99242  42.331  30.071   2.200
28643W        W99243  33.660  27.523   1.914
28644W        W99244  32.590  42.487   0.017
28645W        W99245  43.114  18.883   4.924
28646W        W99246  34.333  30.427   1.261
28647W        W99247   6.917  43.782   4.784
28648W        W99248  19.516  13.158  14.772
28649W        W99249  42.838  34.494   4.549
28650W        W99250   0.374  32.391  12.587
28651W        W99251   4.438  13.734  14.985
28652W        W99252   9.825  34.309   3.361
28653W        W99253  34.515  35.861  14.248
28654W        W99254  12.797  14.387   1.268
28655W        W99255  27.557   4.287   2.521
28656W        W99256  24.856  40.017   2.225
28657W        W99257  27.423  33.538  12.893
28658W        W99258  31.502  27.176   1.735
28659W        W99259  22.093  38.378  11.184
28660W        W99260  35.496   5.750  13.036
28661W        W99261  41.496  17.253   4.541
28662W        W99262  42.482   8.684  14.301
28663W        W99263  43.802   1.339   0.178
28664W        W99264  17.202  18.039   0.396
28665W        W99265  41.930  30.333   2.381
28666W        W99266  11.813  33.466   1.686
28667W        W99267  24.720  36.340  13.488
28668W        W99268  42.459  15.486   1.388
28669W        W99269  10.587  29.584  12.900
28670W        W99270  33.663  32.638   0.806
28671W        W99271  33.342  36.931  12.238
28672W        W99272  41.829  28.055  12.950
28673W        W99273  39.054  27.147   3.373
28674W        W99274  39.002   0.340   4.652
28675W        W99275   3.719  25.012   3.706
28676W        W99276  27.612  42.452  14.387
28677W        W99277  14.573   6.733   2.397
28678W        W99278   2.955  42.410  11.526
28679W        W99279  29.101  14.613  12.376
28680W        W99280  17.279  33.586   3.776
28681W        W99281  16.100  12.653  14.967
28682W        W99282  40.089  26.070  11.506
28683W        W99283  15.640  28.584  11.425
28684W        W99284   6.925  40.396   2.796
28685W        W99285  33.858  34.751  13.899
28686W        W99286  44.365  18.804  12.372
28687W        W99287  27.129   1.068   3.370
28688W        W99288  21.558   9.721  13.459
28689W        W99289  41.535   2.958   0.954
28690W        W99290  10.708   1.978   0.868
28691W        W99291   0.325  26.780  13.584
28692W        W99292   3.206  10.226   3.759
28693W        W99293  10.906  36.514  10.589
28694W        W99294  30.504   0.439   3.907
28695W        W99295  31.413  34.457   2.940
28696W        W99296  14.118  40.996   5.324
28697W        W99297  28.503  42.989  13.422
28698W        W99298  41.971  37.362   0.282
28699W        W99299  29.602  11.034   1.901
28700W        W99300  36.187  28.610  12.987
28701W        W99301  21.551   0.384  11.637
28702W        W99302   6.289   5.307   5.220
28703W        W99303  17.485  10.309  12.960
28704W        W99304  12.207  10.054   3.028
28705W        W99305  34.515  19.279  11.399
28706W        W99306  36.826  22.517  14.926
28707W        W99307  27.923   1.941   9.948
28708W        W99308  12.357  16.673  11.066
28709W        W99309   6.624  21.564  12.130
28710W        W99310  26.075  29.062   3.790
28711W        W99311  20.663  24.534  13.505
28712W        W99312  39.528  38.854  10.167
28713W        W99313  22.268  16.702   4.040
28714W        W99314  13.036  21.161   2.284
28715W        W99315  43.536  33.113  14.881
28716W        W99316  27.955  36.906  11.564
28717W        W99317  12.927  24.491   4.154
28718W        W99318  35.011   4.744  13.750
28719W        W99319  10.781  24.368  12.183
28720W        W99320  21.167  11.162   4.124
28721W        W99321  39.135  18.582  12.943
28722W        W99322  18.039   1.002   1.987
28723W        W99323   5.937  14.186  12.869
28724W        W99324  33.934   6.433   0.470
28725W        W99325  39.091   9.847   4.103
28726W        W99326   0.462   0.683  14.352
28727W        W99327  13.982  26.972   1.358
28728W        W99328  43.370  21.365  14.852
28729W        W99329  23.194   0.429   2.977
28730W        W99330   1.236  17.037  11.035
28731W        W99331   8.876  41.015   4.370
28732W        W99332  15.588  18.297   1.953
28733W        W99333   8.807  36.329   2.341
28734W        W99334  18.198  21.060  13.897
28735W        W99335  11.898  29.016  12.106
28736W        W99336  39.747  33.089   0.524
28737W        W99337  25.430  35.932  12.464
28738W        W99338  17.787  44.389  13.424
28739W        W99339  44.047  23.329  14.402
28740W        W99340  39.327   6.888  14.521
28741W        W99341  24.395  23.039   1.689
28742W        W99342   5.261  33.829   2.693
28743W        W99343   6.949  23.963  12.050
28744W        W99344   4.410  13.796  11.409
28745W        W99345   1.238   7.841   1.343
28746W        W99346   3.859   9.609  13.920
28747W        W99347  13.813  40.046  14.490
28748W        W99348  34.605  44.388  10.575
28749W        W99349  22.021  32.786   1.397
28750W        W99350  15.111  25.897   2.648
28751W        W99351  11.416  12.539  11.209
28752W        W99352  31.029  19.976  11.223
28753W        W99353  13.852   2.248  12.317
28754W        W99354   2.835  34.099   4.026
28755W        W99355  16.497  30.837   1.458
28756W        W99356  32.844  22.746  14.972
28757W        W99357  35.085  27.855   4.771
28758W        W99358  14.800  26.948   0.321
28759W        W99359  12.686  14.548  11.978
28760W        W99360  26.685   1.824  11.157
28761W        W99361  25.642  30.693   2.328
28762W        W99362  17.531  12.828  13.149
28763W        W99363  17.886   8.738   0.448
28764W        W99364  11.685   2.954   3.940
28765W        W99365  39.770  36.306   0.486
28766W        W99366  31.980  33.861  14.074
28767W        W99367  12.730  44.897   1.029
28768W        W99368  20.627  14.285   1.263
28769W        W99369  15.168  31.391   0.867
28770W        W99370  43.304  41.656   3.361
28771W        W99371  40.490  33.270  13.203
28772W        W99372  37.358  14.296  10.721
28773W        W99373   0.045  22.605  13.564
28774W        W99374   2.981   4.741  13.920
28775W        W99375  18.428  20.856   5.359
28776W        W99376   8.022  40.734  12.385
28777W        W99377  33.017  27.971  14.497
28778W        W99378  22.253  30.036  11.949
28779W        W99379  11.219  42.887   2.851
28780W        W99380   1.907  18.892   2.687
28781W        W99381  14.569   9.971   3.100
28782W        W99382  16.092  32.147   0.234
28783W        W99383  21.258  31.394  10.738
28784W        W99384  37.464  30.030  10.829
28785W        W99385  41.976   8.983   4.235
28786W        W99386  27.359   6.690  14.528
28787W        W99387  10.298   6.405   4.637
28788W        W99388  26.705  41.264  13.484
28789W        W99389  30.165   0.347   2.961
28790W        W99390  32.383   0.316  12.758
28791W        W99391  28.938  37.409   4.455
28792W        W99392   9.645   3.368  11.563
28793W        W99393  14.621   9.127  10.689
28794W        W99394   7.360   3.777   1.768
28795W        W99395  14.136  23.890   0.557
28796W        W99396  34.384  28.600  10.959
28797W        W99397   8.365  16.639   1.854
28798W        W99398  34.876   7.210   0.442
28799W        W99399  18.566  22.625   3.997
28800W        W99400  14.611  34.597   0.983
28801W        W99401   2.842   3.166  11.987
28802W        W99402  37.071  44.436  12.009
28803W        W99403  15.479   6.241   5.021
28804W        W99404  17.206  24.910   2.748
28805W        W99405   3.255  22.569   3.738
28806W        W99406  41.527  44.844  14.746
28807W        W99407  44.371  32.036   1.962
28808W        W99408  26.701  21.728   0.344
28809W        W99409  15.935  13.868  14.490
28810W        W99410  41.019  23.840   2.122
28811W        W99411  28.375  11.675   4.111
28812W        W99412  29.687  43.429  12.165
28813W        W99413  39.512  34.405   0.529
28814W        W99414   8.789  28.688  14.039
28815W        W99415  26.192  40.533  13.642
28816W        W99416  15.557  27.519  12.074
28817W        W99417  40.594  31.365   1.703
28818W        W99418  14.276  44.670  14.802
28819W        W99419   4.761  28.536   2.781
28820W        W99420   3.397  21.733  11.418
28821W        W99421  18.814  36.474   0.321
28822W        W99422  21.234   7.597  11.624
28823W        W99423  19.464  16.206  13.543
28824W        W99424  17.992   4.844  10.754
28825W        W99425  44.209  10.148  12.012
28826W        W99426  33.909  27.679   4.081
28827W        W99427  37.626  17.952   3.027
28828W        W99428  20.723  34.663  12.564
28829W        W99429   7.513  26.578  13.395
28830W        W99430  33.969  25.770  14.401
28831W        W99431  19.469  34.471  10.349
28832W        W99432   7.813  19.720   0.349
28833W        W99433  19.433  14.834   0.882
28834W        W99434   1.959  30.413   3.595
28835W        W99435   6.470  33.655   0.446
28836W        W99436   9.406  11.801  14.912
28837W        W99437  13.184  41.310  14.090
28838W        W99438  33.740  30.090  14.876
28839W        W99439   5.875  42.321   4.346
28840W        W99440  13.199  36.392   4.510
28841W        W99441  43.099  29.116  13.378
28842W        W99442  38.956  13.877   2.403
28843W        W99443   9.689  28.010  11.084
28844W        W99444  40.807  11.734   4.425
28845W        W99445   8.683  20.720  11.120
28846W        W99446  19.574  26.040   3.685
28847W        W99447  13.412  22.210   3.098
28848W        W99448  28.770  38.896  13.009
28849W        W99449  10.570  12.217  13.155
28850W        W99450   0.893  20.074  14.436
28851W        W99451  22.551   2.068   1.646
28852W        W99452  11.831  17.724   3.030
28853W        W99453  25.883   6.824   3.248
28854W        W99454  26.410  26.561   3.140
28855W        W99455  17.176   9.605   3.757
28856W        W99456  30.126  23.600   1.167
28857W        W99457  27.090   0.926   1.941
28858W        W99458  27.189  25.654  11.118
28859W        W99459   2.121  17.756  14.356
28860W        W99460  43.739  29.074   2.783
28861W        W99461  32.159  24.296  14.397
28862W        W99462  40.998  30.621  12.590
28863W        W99463  28.621  19.064   2.377
28864W        W99464   5.555  36.252  10.784
28865W        W99465  35.070  18.112   2.221
28866W        W99466  26.650  22.638   1.908
28867W        W99467   8.311  40.814   2.115
28868W        W99468  15.795  18.786  14.545
28869W        W99469  24.541  21.823   1.394
28870W        W99470  21.669  28.337  14.317
28871W        W99471  36.509  18.766  13.473
28872W        W99472   9.370  18.675  12.210
28873W        W99473   7.655  33.943  11.181
28874W        W99474  15.116  22.562   0.726
28875W        W99475   5.797  19.839  10.584
28876W        W99476  14.637  43.402   1.702
28877W        W99477  29.273  40.515  12.916
28878W        W99478  35.526  40.392  12.632
28879W        W99479  27.081  24.315  11.258
28880W        W99480   7.830  12.376  13.885
28881W        W99481  32.682  11.294   0.938
28882W        W99482  21.729  22.998  12.263
28883W        W99483  30.583  42.259   4.193
28884W        W99484  33.689  23.532  11.618
28885W        W99485   0.584  42.346  11.491
28886W        W99486  29.837  39.768   2.362
28887W        W99487  35.559  38.477   4.354
28888W        W99488  32.473   0.424   4.748
28889W        W99489  10.973  25.487  13.405
28890W        W99490  22.616   5.227   2.227
28891W        W99491  36.109  37.931  10.464
28892W        W99492  15.174   9.393   0.525
28893W        W99493  40.570  39.255   1.343
28894W        W99494  17.245  38.211   3.097
28895W        W99495   9.055  41.393   4.065
28896W        W99496  20.013   3.633  11.074
28897W        W99497  13.433  35.957   4.614
28898W        W99498  39.545  41.837  12.642
28899W        W99499  36.285  23.810   5.022
28900W        W99500  20.500  42.272   4.897
28901W        W99501   3.361  42.537  13.265
28902W        W99502  29.067   9.872  12.470
28903W        W99503  23.342   3.690  12.999
28904W        W99504  36.090  24.738  10.646
28905W        W99505  39.394  25.542  11.430
28906W        W99506   0.075   9.649   4.571
28907W        W99507  40.374  26.135  10.755
28908W        W99508  13.994  17.302  10.644
28909W        W99509   8.413  19.679   1.463
28910W        W99510  29.105  31.200   3.665
28911W        W99511  38.635   5.439   4.540
28912W        W99512  23.948  21.508  11.064
28913W        W99513   0.335  37.069  14.885
28914W        W99514  37.862  22.682   4.163
28915W        W99515   7.243  36.548   4.739
28916W        W99516   6.276  20.528   2.667
28917W        W99517  19.047   3.533  13.764
28918W        W99518  14.509  21.697   2.167
28919W        W99519  17.760  39.914  10.586
28920W        W99520   8.950  35.533  13.886
28921W        W99521  26.593  27.698   4.246
28922W        W99522  20.062  13.391   4.573
28923W        W99523  34.067  31.926  12.617
28924W        W99524  36.994  31.178   1.862
28925W        W99525  32.934  31.678   1.292
28926W        W99526   7.969   8.578  10.349
28927W        W99527  43.607   2.323  14.023
28928W        W99528  23.713   7.769  11.460
28929W        W99529   8.395  32.028   0.291
28930W        W99530  36.505  30.241  12.107
28931W        W99531  27.437   0.472  12.003
28932W        W99532  40.511  37.270   4.702
28933W        W99533   5.344  27.509   3.486
28934W        W99534  41.826  19.478   1.078
28935W        W99535   5.172  37.792   4.946
28936W        W99536  38.830  19.541   1.932
28937W        W99537  16.769  23.631   3.329
28938W        W99538  14.032  23.076  12.887
28939W        W99539  25.442   0.766   3.924
28940W        W99540  36.384   7.531   3.770
28941W        W99541  19.842   2.323   0.040
28942W        W99542  43.078  32.472   4.552
28943W        W99543  38.361  43.840   3.192
28944W        W99544   3.474  11.419  12.876
28945W        W99545   9.923  10.606  13.460
28946W        W99546  25.942   4.012  11.142
28947W        W99547   4.607  13.131  10.665
28948W        W99548  19.687   3.618  14.438
28949W        W99549  16.313   6.766  12.543
28950W        W99550  23.548  10.485   3.793
28951W        W99551   2.026  21.495   0.843
28952W        W99552  23.950  35.646  12.916
28953W        W99553  22.744  31.094   9.955
28954W        W99554  22.976  41.391   1.827
28955W        W99555   1.918  34.891  12.018
28956W        W99556   5.643   1.415   2.846
28957W        W99557  23.465  26.175   0.471
28958W        W99558  12.590   7.325  12.890
28959W        W99559  39.070  24.169  14.287
28960W        W99560   8.238  18.150  14.735
28961W        W99561   6.752  15.272  14.571
28962W        W99562  26.070  35.667   0.920
28963W        W99563  22.046  37.054  13.594
28964W        W99564  28.312  39.805   4.512
28965W        W99565  30.881  12.691  14.224
28966W        W99566  17.195   5.416  14.817
28967W        W99567  25.113  19.338  12.630
28968W        W99568   6.697  37.243   3.093
28969W        W99569  37.020  11.425  13.515
28970W        W99570  39.034  10.288  11.242
28971W        W99571  34.915  25.273  13.952
28972W        W99572  15.303   2.393   4.675
28973W        W99573  36.807  32.443  11.665
28974W        W99574   9.263  35.602   3.291
28975W        W99575  32.719  24.999  14.216
28976W        W99576  43.273  27.225   3.078
28977W        W99577  28.705  30.565   0.374
28978W        W99578  20.628   5.161   1.411
28979W        W99579   5.341  38.460  13.048
28980W        W99580  19.545  13.454   3.269
28981W        W99581   7.921  35.669  10.844
28982W        W99582   0.293  40.155   4.240
28983W        W99583  10.784  10.429   2.177
28984W        W99584  28.183   2.861   0.352
28985W        W99585  38.303  14.972   2.101
28986W        W99586  16.277   3.853   3.201
28987W        W99587   2.720  42.597   0.786
28988W        W99588   8.815  26.561   3.215
28989W        W99589  16.284  43.615   4.125
28990W        W99590   7.847  32.064   4.273
28991W        W99591   5.528  16.294  11.029
28992W        W99592  37.984  30.175  10.745
28993W        W99593   2.874   2.377   2.223
28994W        W99594  31.151  17.313  12.152
28995W        W99595   6.293   2.325   4.274
28996W        W99596  19.109  39.868  14.341
28997W        W99597  44.386  22.001  11.805
28998W        W99598   3.677  35.141   2.371
28999W        W99599  33.625  14.060  11.198
29000W        W99600   0.419   0.994   0.816
29001W        W99601  25.692  21.349   3.295
29002W        W99602   5.920   8.426   2.153
29003W        W99603  14.528   1.772   2.690
29004W        W99604  20.010  35.688   4.322
29005W        W99605   9.892   7.581  13.547
29006W        W99606  41.343  12.903  14.820
29007W        W99607  21.343  12.382  12.485
29008W        W99608  39.822  34.581   3.415
29009W        W99609  25.656   9.170   4.915
29010W        W99610   1.258  25.007  14.318
29011W        W99611  39.266  19.261  12.019
29012W        W99612  25.480  39.994   0.357
29013W        W99613  26.477  21.305   1.303
29014W        W99614  31.983   1.472   0.436
29015W        W99615  31.070  12.396   0.938
29016W        W99616  22.509  13.866   0.765
29017W        W99617  21.565   0.866  12.525
29018W        W99618   1.948   0.500   2.857
29019W        W99619  14.610   6.918  10.577
29020W        W99620  33.393  39.433  13.926
29021W        W99621  21.540  35.113  12.626
29022W        W99622   6.242  20.014   2.665
29023W        W99623  10.609  10.582   3.243
29024W        W99624  13.734   4.041  14.285
29025W        W99625  18.510  28.289  14.590
29026W        W99626   1.290  41.517   0.917
29027W        W99627  11.139  29.517   1.986
29028W        W99628   1.351  11.883   0.437
29029W        W99629  34.993  17.347   0.836
29030W        W99630   1.929  35.098  10.725
29031W        W99631  30.101  34.128   3.060
29032W        W99632   6.302  44.806  10.663
29033W        W99633   0.834  12.641  14.821
29034W        W99634  28.136  42.797   4.266
29035W        W99635  29.222   7.153   0.036
29036W        W99636  20.009  14.819   2.170
29037W        W99637  35.537   9.565  12.065
29038W        W99638  34.718   6.691  11.009
29039W        W99639   5.309  40.950   0.962
29040W        W99640  13.651  26.081   4.742
29041W        W99641  17.123  30.885  13.083
29042W        W99642   7.793  29.722  13.042
29043W        W99643  35.296  33.481  13.438
29044W        W99644  31.669  18.235  14.892
29045W        W99645  39.474  42.921   3.210
29046W        W99646  36.975   2.319   1.811
29047W        W99647  14.373  29.576  13.026
29048W        W99648   9.654   5.722  13.476
29049W        W99649  33.459  17.339   2.877
29050W        W99650  25.538  34.926  10.079
29051W        W99651   7.951   3.875   4.331
29052W        W99652  35.430  28.581  11.516
29053W        W99653  42.811  33.150   2.714
29054W        W99654   5.667  37.434   2.308
29055W        W99655  44.069  30.957   0.228
29056W        W99656  30.562  28.189  14.957
29057W        W99657   7.058  10.342   1.276
29058W        W99658   8.255  35.583   4.167
29059W        W99659  11.207  35.565   0.598
29060W        W99660  27.670  16.665  14.351
29061W        W99661   1.423  35.393   1.822
29062W        W99662  38.627  24.112   0.229
29063W        W99663  39.525   6.165  11.767
29064W        W99664  27.032  15.291  14.352
29065W        W99665  36.712  30.581  11.778
29066W        W99666   2.263   1.329   3.055
29067W        W99667  38.582   6.809   1.827
29068W        W99668  32.840  33.509  14.277
29069W        W99669  17.742  30.578   3.066
29070W        W99670  44.364  29.931   3.597
29071W        W99671   1.925  29.657   2.341
29072W        W99672  24.043  17.492   3.899
29073W        W99673  33.528  29.614   4.127
29074W        W99674  40.989  19.013   5.027
29075W        W99675  33.479  16.367  13.914
29076W        W99676  17.188   0.901   2.339
29077W        W99677   7.797  25.279   9.814
29078W        W99678   1.922  34.674   1.871
29079W        W99679  31.933  38.556   1.874
29080W        W99680  40.480  44.267   5.259
29081W        W99681  15.818  24.784   3.673
29082W        W99682  34.652  34.082   0.729
29083W        W99683  30.173  18.252  10.635
29084W        W99684  27.541  41.096   2.312
29085W        W99685   8.405   0.313   1.535
29086W        W99686  37.024  23.760   1.946
29087W        W99687  28.058  22.315   1.462
29088W        W99688  24.048  14.710   1.309
29089W        W99689  31.205  12.917   3.308
29090W        W99690  15.308  15.840  11.478
29091W        W99691  31.151  31.508   0.830
29092W        W99692  21.259  18.021  10.227
29093W        W99693  32.915  24.551   1.254
29094W        W99694  12.280  44.217   0.009
29095W        W99695  41.003  16.738  12.100
29096W        W99696   6.108  40.875  14.081
29097W        W99697   0.319  31.414   3.578
29098W        W99698  30.954   1.571   1.033
29099W        W99699  19.608  37.200  11.572
29100W        W99700  23.240  39.475   2.877
29101W        W99701  23.098  31.229  14.330
29102W        W99702  42.339  15.321  14.005
29103W        W99703  33.617  18.653  13.757
29104W        W99704  30.752   5.893   0.818
29105W        W99705  21.719  15.039  11.940
29106W        W99706  35.960  19.685   3.702
29107W        W99707  29.566   6.328  13.610
29108W        W99708  24.128  44.445  14.834
29109W        W99709  40.193  41.986   0.844
29110W        W99710  37.235  18.562   5.012
29111W        W99711   7.005  32.049  12.992
29112W        W99712   6.740  28.428  14.437
29113W        W99713  35.351  18.657   1.929
29114W        W99714   6.702  41.855  12.670
29115W        W99715  11.098   1.329   3.948
29116W        W99716  35.424  11.728  11.902
29117W        W99717  24.282  43.630  11.009
29118W        W99718  25.424  16.814   3.120
29119W        W99719  42.534  42.275   1.818
29120W        W99720  39.373   4.350  11.236
29121W        W99721  34.635  40.331  10.728
29122W        W99722  25.098  12.115   4.604
29123W        W99723  17.747   7.650  10.417
29124W        W99724  13.348  16.827  11.253
29125W        W99725  26.150  31.177  10.933
29126W        W99726  24.024  42.438   1.688
29127W        W99727  42.983  33.140   1.699
29128W        W99728  34.797  26.180   0.937
29129W        W99729  31.390  38.370   0.091
29130W        W99730  24.041  31.641   4.112
29131W        W99731   4.310   4.431  11.197
29132W        W99732  10.144  27.025  12.596
29133W        W99733  33.059  39.705   4.596
29134W        W99734  34.907  15.382   2.649
29135W        W99735   7.704  12.366  12.999
29136W        W99736  10.567   7.443   4.813
29137W        W99737   8.770  38.491   1.016
29138W        W99738  39.580  31.511  14.628
29139W        W99739  19.485  34.004  14.652
29140W        W99740  11.387   0.774   2.700
29141W        W99741  37.320  40.279  11.506
29142W        W99742   4.656  31.210   3.548
29143W        W99743  17.827  18.240  10.622
29144W        W99744  11.028   1.403   1.660
29145W        W99745  32.341  28.684   1.453
29146W        W99746  41.533  38.460   1.368
29147W        W99747  24.242  28.232  10.579
29148W        W99748  25.692  12.552  13.888
29149W        W99749  18.024  11.184  10.572
29150W        W99750  29.184  20.839   1.248
29151W        W99751   5.550   4.760   3.226
29152W        W99752  14.206  41.741   9.819
29153W        W99753   9.776   8.017   0.899
29154W        W99754   5.656  23.612  11.542
29155W        W99755   7.773  44.375  12.010
29156W        W99756  23.037   5.840   0.107
29157W        W99757  11.696   0.456  10.635
29158W        W99758  14.581  28.321  13.804
29159W        W99759  39.388   0.695   3.625
29160W        W99760  11.701  19.909  10.701
29161W        W99761   9.797  19.221   2.445
29162W        W99762  13.148  10.419  13.521
29163W        W99763  23.452  12.831   1.222
29164W        W99764  11.119   3.954  11.977
29165W        W99765   5.742  22.161  13.641
29166W        W99766   6.697  16.344  11.632
29167W        W99767  11.226  42.536  12.762
29168W        W99768  44.881  40.543   2.269
29169W        W99769   3.545  31.213   2.780
29170W        W99770   8.289  10.725  10.589
29171W        W99771  22.836  40.974  12.950
29172W        W99772  36.341  13.392   2.146
29173W        W99773  19.720  21.712  11.172
29174W        W99774  43.573  36.938   1.920
29175W        W99775   2.030  32.148   1.667
29176W        W99776  23.935  20.130   1.305
29177W        W99777  19.726  12.668  12.150
29178W        W99778   2.891  44.447   0.476
29179W        W99779  37.595  29.632  11.975
29180W        W99780   7.669  27.444  12.445
29181W        W99781  35.638   0.520   4.501
29182W        W99782   7.466  21.551  13.068
29183W        W99783   5.338  21.480  12.484
29184W        W99784  42.970  28.827  10.639
29185W        W99785   5.140  42.875   4.636
29186W        W99786  29.835  14.821   3.203
29187W        W99787  24.687  34.135  13.891
29188W        W99788   5.889   3.747  13.619
29189W        W99789   3.322  10.098  12.945
29190W        W99790  38.550  31.567  12.101
29191W        W99791   4.815   9.506   4.972
29192W        W99792   6.631  42.836  13.966
29193W        W99793   9.207  36.060  12.402
29194W        W99794  19.058  35.875  14.342
29195W        W99795   9.818  18.755   0.334
29196W        W99796  44.424  28.305   5.225
29197W        W99797  34.298  40.509  14.341
29198W        W99798  22.288   4.712  14.246
29199W        W99799  32.463   7.808  12.388
29200W        W99800  16.512   5.860   0.658
29201W        W99801  38.019  44.351  11.000
29202W        W99802  32.368  23.091   3.089
29203W        W99803  15.177  28.584   4.620
29204W        W99804  16.340  44.909   1.321
29205W        W99805   7.702  27.720  12.908
29206W        W99806  43.052  22.523  13.573
29207W        W99807  38.402  12.298  12.501
29208W        W99808  44.926  42.124  12.418
29209W        W99809  27.388  24.872   2.172
29210W        W99810   6.395  17.659   2.796
29211W        W99811   2.886  29.990   4.250
29212W        W99812  33.600   3.449   2.923
29213W        W99813  39.444   3.915   3.143
29214W        W99814  42.659  38.766  12.587
29215W        W99815  15.525  12.732   0.813
29216W        W99816   7.783  14.461   5.190
29217W        W99817  15.473   4.775   4.150
29218W        W99818  38.421  33.500   2.216
29219W        W99819  12.617  31.582   1.429
29220W        W99820  11.709  18.687   3.237
29221W        W99821   7.160  20.514   3.176
29222W        W99822  28.818  14.716  12.792
29223W        W99823  13.873  44.985   3.095
29224W        W99824  37.428  43.992   3.271
29225W        W99825  17.824   4.684   4.196
29226W        W99826  12.326  36.978   3.859
29227W        W99827   0.596   7.243   1.589
29228W        W99828  29.075  42.565   2.393
29229W        W99829  10.323  27.209   3.221
29230W        W99830  40.741  20.450   5.099
29231W        W99831   5.941  32.969  13.020
29232W        W99832  24.515  26.994   3.139
29233W        W99833  15.882   8.090  13.356
29234W        W99834  28.546  20.697  11.115
29235W        W99835  20.733  15.299  13.902
29236W        W99836  36.047  15.806  12.461
29237W        W99837  17.292   8.222   0.008
29238W        W99838   5.009  22.373   4.105
29239W        W99839   1.291  37.928   1.878
29240W        W99840  23.475  26.538   3.621
29241W        W99841  12.901  23.587  12.055
29242W        W99842  32.680  22.126   1.942
29243W        W99843   9.860   3.811  13.847
29244W        W99844  22.067  15.038  14.719
29245W        W99845  22.495  38.855  14.883
29246W        W99846   7.641  16.182   1.362
29247W        W99847   9.937  38.023   2.746
29248W        W99848  19.018  28.948   3.129
29249W        W99849  15.822  31.994   3.674
29250W        W99850  16.638  14.281  11.237
29251W        W99851   3.036   9.715  12.672
29252W        W99852  25.266  29.404  11.214
29253W        W99853  11.072  10.523   2.981
29254W        W99854  26.993  20.946  12.386
29255W        W99855  25.765  31.435   2.636
29256W        W99856  32.590  33.873   0.886
29257W        W99857  40.750  19.584   3.572
29258W        W99858  24.566  43.069   0.888
29259W        W99859   7.194   0.799   0.268
29260W        W99860  42.431  18.438  10.322
29261W        W99861  31.427  27.110  12.208
29262W        W99862  10.139  23.152   1.181
29263W        W99863  12.204  23.311  13.761
29264W        W99864   5.026  29.187   2.126
29265W        W99865  35.515  12.606  13.293
29266W        W99866  26.692  29.873   0.817
29267W        W99867  40.831  32.067   4.339
29268W        W99868  39.311  16.774  11.634
29269W        W99869   9.794   0.507  13.888
29270W        W99870  20.624  26.491  14.344
29271W        W99871  32.674  10.718   1.679
29272W        W99872   7.671  14.819   2.733
29273W        W99873  25.848  22.128  11.846
29274W        W99874   2.852   3.014  13.015
29275W        W99875  34.129  16.092  12.472
29276W        W99876  23.709   4.847  14.519
29277W        W99877  34.257   5.634  12.941
29278W        W99878  25.218  14.757  12.053
29279W        W99879  29.197   7.336   1.471
29280W        W99880  42.202  41.287  14.050
29281W        W99881  26.255  39.318   2.854
29282W        W99882  40.323   8.440   3.159
29283W        W99883  27.581  31.564  12.055
29284W        W99884  31.578  17.202   3.931
29285W        W99885  16.191  13.117  14.324
29286W        W99886   4.010  35.411  13.841
29287W        W99887  40.380  38.631  10.621
29288W        W99888  16.437   0.588   3.165
29289W        W99889   4.146  44.117   4.139
29290W        W99890  20.703  17.867   2.558
29291W        W99891  15.985  40.910  12.672
29292W        W99892  40.367   9.932  10.582
29293W        W99893  13.340   6.957   1.807
29294W        W99894  27.561  40.871   4.392
29295W        W99895  35.951  17.651   3.215
29296W        W99896  25.679  17.627  13.007
29297W        W99897  27.164   3.950  13.087
29298W        W99898  40.298  44.509  10.767
29299W        W99899   2.284  10.662  10.582
29300W        W99900  30.830  35.447   4.044
29301W        W99901  15.206  12.412  14.004
29302W        W99902  10.711  10.021   0.740
29303W        W99903   5.679   1.051   2.442
29304W        W99904   5.294  25.753   3.300
29305W        W99905  21.309  40.506  14.026
29306W        W99906  20.051  17.399   2.347
29307W        W99907  15.858  24.507   2.270
29308W        W99908   4.301  39.428  11.647
29309W        W99909  21.853  24.862  14.275
29310W        W99910  26.551  37.127  13.780
29311W        W99911   2.510   4.725  13.032
29312W        W99912   8.667  25.484  12.010
29313W        W99913  41.826  33.074   1.308
29314W        W99914   4.434  41.524   2.252
29315W        W99915  39.935  43.256  11.040
29316W        W99916  38.353  14.320   0.711
29317W        W99917  22.574  24.691  10.887
29318W        W99918   7.373  42.997   2.656
29319W        W99919  44.533  22.031  14.889
29320W        W99920  34.512  33.881  10.646
29321W        W99921  28.494  25.026  10.425
29322W        W99922  17.841   1.650   4.252
29323W        W99923  42.240  32.569  11.519
29324W        W99924  41.967  37.410  13.912
29325W        W99925  27.126   9.824  12.033
29326W        W99926  11.904  27.882  11.692
29327W        W99927   4.819  15.602  13.496
29328W        W99928  23.134  38.071   1.255
29329W        W99929  26.893  34.611   4.571
29330W        W99930  26.463  23.269   3.210
29331W        W99931  11.837   3.316   2.975
29332W        W99932  21.710  12.626   2.752
29333W        W99933  20.648  39.492   2.676
29334W        W99934  16.158  26.745   4.069
29335W        W99935  15.944  27.094   2.751
29336W        W99936  32.113  19.687  12.127
29337W        W99937  33.668  44.440  12.038
29338W        W99938  27.640  12.728   2.772
29339W        W99939  43.356   3.263  14.744
29340W        W99940  40.317  34.191  13.355
29341W        W99941  31.403  12.354   3.235
29342W        W99942  24.082  35.149  11.610
29343W        W99943  33.068   5.527  11.617
29344W        W99944   1.232   6.816  11.085
29345W        W99945  36.031  12.206   1.286
29346W        W99946  41.045  13.563   1.841
29347W        W99947   7.132   9.620   4.143
29348W        W99948   5.879  14.632  10.765
29349W        W99949  11.299  33.340  11.519
29350W        W99950  29.371  35.410   2.708
29351W        W99951  16.410  43.832   3.668
29352W        W99952  18.757  44.486   0.766
29353W        W99953  43.222  16.491  13.444
29354W        W99954  37.570  41.541   3.603
29355W        W99955  36.482  21.022   0.789
29356W        W99956  40.554   8.741   4.081
29357W        W99957   6.960  17.664   1.014
29358W        W99958   3.963   2.288  12.907
29359W        W99959  38.991  28.634  11.653
29360W        W99960  27.899  16.292  14.625
29361W        W99961   4.860  41.766  10.447
29362W        W99962   8.372  21.200   0.020
29363W        W99963   5.962  24.038  12.564
29364W        W99964  39.841  25.556   1.962
29365W        W99965  44.751  28.403  13.040
29366W        W99966  31.334  32.027   4.196
29367W        W99967   2.748   3.262   1.629
29368W        W99968  24.601  29.248   2.107
29369W        W99969  11.576  15.169  11.631
29370W        W99970   1.526   8.434   0.251
29371W        W99971  31.827  23.198   1.820
29372W        W99972  17.772  13.561  10.377
29373W        W99973  31.559  42.244   5.064
29374W        W99974   1.293  25.204   4.772
29375W        W99975  30.311  10.618  11.463
29376W        W99976   9.775  36.368   0.487
29377W        W99977   4.874   1.315   3.420
29378W        W99978  17.765  17.860  14.938
29379W        W99979  12.753   8.241   2.315
29380W        W99980  26.949  39.344  13.768
29381W        W99981  11.592  42.564   2.696
29382W        W99982   7.319  35.167  11.971
29383W        W99983  31.920  20.300   4.121
29384W        W99984  38.495  34.670   1.463
29385W        W99985  15.050   8.469  13.955
29386W        W99986  28.003  15.955  13.799
29387W        W99987  17.931  32.034  14.487
29388W        W99988  37.624  38.912  12.481
29389W        W99989  42.943  26.159  12.925
29390W        W99990  37.379  10.755   0.799
29391W        W99991  26.305  40.952  11.933
29392W        W99992   3.915  31.856  10.569
29393W        W99993   7.700  24.682   0.782
29394W        W99994  11.400   0.902  11.634
29395W        W99995  19.701  19.513   1.789
29396W        W99996  27.446  40.884   0.347
29397W        W99997  43.393   3.504   1.768
29398W        W99998   4.460  16.513  13.422
29399W        W99999   1.731  24.858  11.583
29400W        W    0  13.322  14.224   0.522
29401W        W    1  27.227  30.421  11.686
29402W        W    2  29.602  16.017  14.366
29403W        W    3  40.507  18.673   0.745
29404W        W    4  23.004  33.428  14.343
29405W        W    5  28.471  23.356  13.016
29406W        W    6  28.064  14.336   1.319
29407W        W    7   4.467  25.838   1.328
29408W        W    8  43.686  32.241  12.006
29409W        W    9   7.886  14.414  13.083
29410W        W   10  21.672   2.350  13.665
29411W        W   11  24.590  32.747  13.010
29412W        W   12  19.619  43.352   2.663
29413W        W   13  31.683  38.985   1.803
29414W        W   14  34.671  38.054   1.354
29415W        W   15  24.252  11.592   2.240
29416W        W   16  34.412  20.681   4.697
29417W        W   17  21.627   3.166   4.596
29418W        W   18  33.449   0.421   0.119
29419W        W   19   3.430   8.184   4.594
29420W        W   20  43.589   9.215  14.906
29421W        W   21   2.488   5.386   2.880
29422W        W   22  23.981  36.062  14.267
29423W        W   23  42.872  21.608   0.738
29424W        W   24  33.479   9.101   1.018
29425W        W   25   0.960   8.216  10.475
29426W        W   26   4.418  25.305   1.268
29427W        W   27  10.886  33.099   1.395
29428W        W   28  24.329  36.038  11.599
29429W        W   29  31.184   5.876   3.715
29430W        W   30  43.974  17.087   3.323
29431W        W   31   1.792  10.474   3.758
29432W        W   32  43.067   2.428   4.517
29433W        W   33  12.284  13.635   3.387
29434W        W   34  17.774   1.959   1.733
29435W        W   35  15.570   4.672   4.829
29436W        W   36  25.287  34.266  11.689
29437W        W   37  17.193  10.850  11.941
29438W        W   38  12.832  12.816  12.018
29439W        W   39   2.696  14.759  11.180
29440W        W   40  43.390   2.715   3.720
29441W        W   41   8.409  24.671   2.171
29442W        W   42  12.421  32.583  12.423
29443W        W   43  12.416  25.647  13.005
29444W        W   44  32.137  25.189  11.048
29445W        W   45   0.638  28.779  12.836
29446W        W   46  28.775   5.999   4.728
29447W        W   47  16.524  28.221  11.638
29448W        W   48  18.252  43.980  14.756
29449W        W   49  27.379  28.686   0.609
29450W        W   50  34.540  33.963  13.922
29451W        W   51  38.369  10.381  14.834
29452W        W   52   9.195   4.301   1.823
29453W        W   53  11.213  33.649  10.621
29454W        W   54  33.114  40.934  10.633
29455W        W   55   6.124  20.632  12.067
29456W        W   56  42.516  24.482   1.786
29457W        W   57  44.229  19.878   0.702
29458W        W   58   6.342   0.386   9.963
29459W        W   59  22.642   3.753  11.970
29460W        W   60   6.008  26.501   0.364
29461W        W   61  27.759  42.996   2.877
29462W        W   62   8.307   7.391   3.206
29463W        W   63  16.849  42.942   5.175
29464W        W   64  20.282  15.281   3.856
29465W        W   65   7.301  44.054  13.781
29466W        W   66   3.986  25.928   2.845
29467W        W   67  38.983  13.482  12.986
29468W        W   68  23.040  12.605   4.036
29469W        W   69  39.824  30.759  12.195
29470W        W   70  33.014  34.021  11.929
29471W        W   71  13.056  44.885  13.546
29472W        W   72  28.698  19.254  14.678
29473W        W   73  24.506  32.627  12.421
29474W        W   74   0.286  20.356  13.790
29475W        W   75  12.337  36.573  12.985
29476W        W   76  11.589  28.066   1.441
29477W        W   77  36.287  42.927   1.208
29478W        W   78   2.057  23.099   0.306
29479W        W   79  42.953   9.883   4.446
29480W        W   80  42.050  27.079  11.176
29481W        W   81   4.832  32.741   5.022
29482W        W   82  12.768   5.475   0.667
29483W        W   83   0.236  26.801   2.810
29484W        W   84  15.732  38.107  11.421
29485W        W   85  42.773  17.096  12.630
29486W        W   86  10.298  38.437  13.299
29487W        W   87  14.857  16.066  11.656
29488W        W   88  36.631  17.334  12.637
29489W        W   89  43.459  41.795   1.396
29490W        W   90  44.895  26.892  13.016
29491W        W   91  36.928  20.836   3.130
29492W        W   92  12.649  16.171   2.116
29493W        W   93  35.409   5.480   0.310
29494W        W   94  30.677  43.991   3.879
29495W        W   95  42.721   2.931  10.773
29496W        W   96   8.080   7.275  11.475
29497W        W   97  24.186   7.756   4.066
29498W        W   98  44.080   7.573   1.759
29499W        W   99  34.638   8.708  11.322
29500W        W  100   0.365  20.331  13.283
29501W        W  101  44.287   0.712   1.272
29502W        W  102   6.904  30.454  11.561
29503W        W  103  33.434   4.733   3.221
29504W        W  104  24.921  40.433  10.802
29505W        W  105  21.703   2.273  11.449
29506W        W  106  44.380  32.968  12.284
29507W        W  107  21.068  24.364   0.408
29508W        W  108  40.429   6.791  12.966
29509W        W  109  22.470  19.933  12.017
29510W        W  110  28.420  17.072   5.052
29511W        W  111  19.588  31.610   0.042
29512W        W  112  35.599   1.401   4.368
29513W        W  113  32.349  30.972   4.125
29514W        W  114   5.137  42.722   3.207
29515W        W  115  10.848  37.020  11.747
29516W        W  116  13.932   4.412  10.830
29517W        W  117   7.423  20.080   3.329
29518W        W  118   3.658  36.772   0.249
29519W        W  119   9.613   9.189  13.740
29520W        W  120  40.247  43.463  11.574
29521W        W  121  40.789  43.507   0.138
29522W        W  122  13.796  13.342   5.400
29523W        W  123  32.166  10.701   1.826
29524W        W  124  43.459  43.714   3.230
29525W        W  125  18.581  12.274  14.108
29526W        W  126  28.917  24.899  11.211
29527W        W  127  24.180  12.648  13.113
29528W        W  128  11.363  26.356   3.000
29529W        W  129  40.874  37.581   2.375
29530W        W  130  24.150  31.538   1.772
29531W        W  131   9.674  33.930   4.249
29532W        W  132  24.043  30.009   4.020
29533W        W  133  13.154  15.693   4.227
29534W        W  134   9.752  29.187  10.548
29535W        W  135  19.554  26.734   1.298
29536W        W  136  30.497  20.668   2.346
29537W        W  137  21.690  38.008   1.274
29538W        W  138   3.648  37.762  12.501
29539W        W  139  32.049   3.811   3.663
29540W        W  140  26.898  38.851   3.273
29541W        W  141  31.489  11.564  13.831
29542W        W  142  35.514  32.347  10.715
29543W        W  143  37.491  17.890  12.463
29544W        W  144   8.425  16.490  13.018
29545W        W  145  23.858  28.153  14.837
29546W        W  146   9.665  10.410  14.847
29547W        W  147  41.084  43.099   2.737
29548W        W  148   2.867  10.765   0.645
29549W        W  149  39.578  34.851   2.224
29550W        W  150  30.629  41.707   5.083
29551W        W  151   3.446   5.792  13.310
29552W        W  152   7.111  20.349   1.676
29553W        W  153  11.837  31.081  11.871
29554W        W  154  44.130  27.185  14.918
29555W        W  155  25.851   8.079  12.395
29556W        W  156   7.667  42.389   2.166
29557W        W  157  23.981  38.704  11.718
29558W        W  158  14.327   0.176  14.821
29559W        W  159  38.691  23.146   3.265
29560W        W  160  37.424  13.317   2.759
29561W        W  161  39.415   9.755  12.081
29562W        W  162  21.231  12.196   2.615
29563W        W  163  32.500   6.154  11.857
29564W        W  164  40.920  18.186  14.763
29565W        W  165  38.439  14.206   0.207
29566W        W  166   9.810  41.417   4.660
29567W        W  167  25.076  16.108   4.191
29568W        W  168  33.803  44.899   0.790
29569W        W  169  34.532  32.885   0.914
29570W        W  170  21.786   0.855  10.537
29571W        W  171  42.531   7.938   3.554
29572W        W  172  28.621   6.041   3.645
29573W        W  173  31.909   6.729  11.872
29574W        W  174  29.507  21.517   2.348
29575W        W  175  14.707  42.047  13.110
29576W        W  176  35.441   8.329   0.925
29577W        W  177  17.126  14.969   4.695
29578W        W  178   8.782  40.689  12.098
29579W        W  179  43.789  32.339  13.962
29580W        W  180  10.811  26.373   2.650
29581W        W  181  25.619   2.342  14.224
29582W        W  182  42.280   8.569  14.756
29583W        W  183  32.348  24.987  11.532
29584W        W  184   6.852  25.807  11.556
29585W        W  185  28.202  16.253  11.487
29586W        W  186  29.153  42.111  12.022
29587W        W  187  12.834  16.201  13.169
29588W        W  188  42.948  20.277   0.897
29589W        W  189  44.290  42.892  13.289
29590W        W  190  10.616  30.732   1.004
29591W        W  191  11.422  38.897   0.294
29592W        W  192   8.368   2.914  14.386
29593W        W  193  28.101   3.722  11.654
29594W        W  194  42.325  15.089   4.579
29595W        W  195  37.265  10.690   4.126
29596W        W  196  24.954   3.133   4.246
29597W        W  197  24.220  38.127   2.223
29598W        W  198  23.431  32.097  10.344
29599W        W  199   4.038  14.018   3.155
29600W        W  200  40.603  44.963   4.507
29601W        W  201  24.568  14.362   4.250
29602W        W  202  12.799  17.008  11.197
29603W        W  203  42.316  40.727   2.759
29604W        W  204  39.307  43.691   1.875
29605W        W  205  36.899   8.230  11.573
29606W        W  206   2.404   3.163   3.087
29607W        W  207  42.528  12.628  12.591
29608W        W  208  39.603  15.823   4.284
29609W        W  209  17.513  24.092   4.644
29610W        W  210  24.937   1.408   1.992
29611W        W  211  31.649   1.406  12.402
29612W        W  212  40.610  43.664  13.670
29613W        W  213  35.103  18.200   1.727
29614W        W  214  42.915  31.006   3.626
29615W        W  215  44.214  16.103   1.493
29616W        W  216  27.114  21.656  11.466
29617W        W  217  44.479   9.943  14.100
29618W        W  218  32.537  27.106   1.303
29619W        W  219  23.440  35.555   4.223
29620W        W  220  13.019  41.517  13.090
29621W        W  221  28.840  11.622   3.779
29622W        W  222   4.603  10.224   2.719
29623W        W  223  43.544  39.557   0.762
29624W        W  224  30.623   3.049  13.840
29625W        W  225   5.058  13.224  10.429
29626W        W  226  29.632  34.911  14.528
29627W        W  227  18.210   9.302   4.021
29628W        W  228  15.386  12.640  11.614
29629W        W  229  25.918  22.739   0.263
29630W        W  230  20.720  16.989   4.728
29631W        W  231  36.236  14.260   0.260
29632W        W  232   9.286  29.435  13.929
29633W        W  233   5.811  40.342   0.555
29634W        W  234  40.357  13.366   2.357
29635W        W  235  24.584  17.218   2.304
29636W        W  236   6.442  34.594  14.358
29637W        W  237  36.356  37.913  13.906
29638W        W  238  13.718   2.537   3.262
29639W        W  239  13.725  10.408  13.835
29640W        W  240  20.550   0.953  12.412
29641W        W  241  19.826  36.414  10.775
29642W        W  242  37.245  37.023   3.639
29643W        W  243  18.071  15.169  10.922
29644W        W  244  16.635   8.270   1.725
29645W        W  245   3.751  40.235   0.215
29646W        W  246  29.612  19.243   2.362
29647W        W  247  10.085  23.054  11.049
29648W        W  248  18.718   6.669   2.695
29649W        W  249  18.366  28.508  10.306
29650W        W  250  30.001  17.335   2.237
29651W        W  251   3.721   2.376  14.838
29652W        W  252   2.510   9.223   1.215
29653W        W  253  35.570  33.207  13.084
29654W        W  254  33.952   6.133  10.745
29655W        W  255  20.606  26.089   3.797
29656W        W  256  37.308  23.773   3.278
29657W        W  257   1.737   0.031   2.871
29658W        W  258  24.037  15.683   5.407
29659W        W  259   1.975   5.769  14.483
29660W        W  260  39.405  20.613   1.996
29661W        W  261   1.995  29.133   3.069
29662W        W  262  26.973  37.209   5.162
29663W        W  263  41.345  44.273   0.964
29664W        W  264  34.959  32.105   4.248
29665W        W  265  30.943  29.648  11.498
29666W        W  266  16.209  15.147  12.896
29667W        W  267  27.818   5.104   3.175
29668W        W  268  37.963  40.008  10.336
29669W        W  269  25.802  13.409  12.203
29670W        W  270   5.163   0.247   2.631
29671W        W  271   0.825  28.562  10.469
29672W        W  272  17.801   9.810  12.986
29673W        W  273   2.002  32.080   0.357
29674W        W  274  40.326  27.863   2.747
29675W        W  275  14.306  22.265  13.973
29676W        W  276  11.085  41.967   3.009
29677W        W  277   9.784   1.349   4.054
29678W        W  278  16.345   1.442   0.449
29679W        W  279  19.147  44.822  11.967
29680W        W  280  22.621  40.323  14.503
29681W        W  281  27.836  36.494  11.222
29682W        W  282  17.817  42.043  14.584
29683W        W  283  18.674  17.837  13.450
29684W        W  284  39.938  36.871  10.711
29685W        W  285   0.692  42.093   2.353
29686W        W  286   4.817  14.164   0.593
29687W        W  287  36.570   2.457  12.089
29688W        W  288  20.550   6.397  14.965
29689W        W  289   8.664   0.807  12.991
29690W        W  290  34.650  31.730  13.790
29691W        W  291  30.183  35.476   2.308
29692W        W  292   0.086   1.580  12.164
29693W        W  293  15.387   5.260  12.954
29694W        W  294  33.987   7.302  14.323
29695W        W  295  18.067  24.992  12.589
29696W        W  296   1.035   5.215  12.914
29697W        W  297  17.250  24.203  14.456
29698W        W  298  38.754  40.947   0.306
29699W        W  299  23.691  15.919   1.759
29700W        W  300   9.946  33.294   3.425
29701W        W  301  40.617   6.271   0.262
29702W        W  302  12.566  28.806  12.514
29703W        W  303   5.421  29.582   2.237
29704W        W  304  12.801  33.823   4.913
29705W        W  305   6.583  31.986  13.358
29706W        W  306  43.853   0.951   3.279
29707W        W  307  23.608  36.064   4.098
29708W        W  308   9.983  11.112  13.448
29709W        W  309  11.752   8.543  14.865
29710W        W  310   8.900   2.218   0.924
29711W        W  311   2.278  17.943   0.759
29712W        W  312  28.642   8.169   0.222
29713W        W  313   7.034  16.951  10.460
29714W        W  314  35.812  21.300   4.215
29715W        W  315  33.727  32.841   2.568
29716W        W  316  21.292   2.655  14.254
29717W        W  317  36.674  26.372  10.341
29718W        W  318  28.722  26.911  12.924
29719W        W  319   6.158  26.600  11.416
29720W        W  320   7.969  31.053  12.383
29721W        W  321   5.353  28.224  10.262
29722W        W  322  24.563  18.980  14.934
29723W        W  323  27.056   2.038  13.413
29724W        W  324   4.735  36.132   2.720
29725W        W  325   9.452  36.092  12.841
29726W        W  326  20.384  32.494  12.909
29727W        W  327  21.503  41.413   0.922
29728W        W  328  10.260  12.237   0.191
29729W        W  329  21.685  19.365   3.869
29730W        W  330  20.888  33.323  12.012
29731W        W  331  40.022  37.138   4.841
29732W        W  332  39.883  28.172  11.374
29733W        W  333  18.853  43.206  12.497
29734W        W  334   0.210  19.856  10.708
29735W        W  335   0.782  25.571   4.197
29736W        W  336  41.558   5.890  11.019
29737W        W  337  31.970  18.136   2.791
29738W        W  338   1.146  35.424  11.232
29739W        W  339   8.369  44.691  14.749
29740W        W  340  32.717   8.455  13.841
29741W        W  341   6.232  38.324   2.197
29742W        W  342  20.775  25.262   1.276
29743W        W  343  44.532   6.256  14.552
29744W        W  344  31.771  23.645  12.810
29745W        W  345  35.204  43.453   2.648
29746W        W  346  37.271  38.528  12.498
29747W        W  347  11.843  39.294  11.856
29748W        W  348   4.170   8.820  13.203
29749W        W  349   6.678  37.748   3.207
29750W        W  350  37.939  28.589   1.171
29751W        W  351   2.742  14.339   1.862
29752W        W  352   0.874  29.706  10.288
29753W        W  353  41.411  21.633   4.231
29754W        W  354  14.527  30.948  14.892
29755W        W  355  38.983  30.292  10.050
29756W        W  356   6.136   1.226   3.826
29757W        W  357  32.673  20.246  11.568
29758W        W  358   5.047  35.097  12.484
29759W        W  359  44.241  20.727   0.819
29760W        W  360  17.432  15.622   2.315
29761W        W  361  23.236  26.241  11.282
29762W        W  362  14.517  12.304   5.363
29763W        W  363  44.775  32.604  14.776
29764W        W  364  24.410  38.487   0.830
29765W        W  365  30.741  18.296   0.985
29766W        W  366  22.320  20.807   4.438
29767W        W  367   5.212  13.316   0.912
29768W        W  368  31.548  44.064  14.108
29769W        W  369   1.860  24.019   0.156
29770W        W  370  27.859  44.348   2.225
29771W        W  371  38.382   0.052   0.271
29772W        W  372  15.620  23.121  13.777
29773W        W  373  13.678  35.474  10.619
29774W        W  374  26.629  39.392  11.617
29775W        W  375   1.444   2.471  13.823
29776W        W  376  43.751  29.908   2.721
29777W        W  377  11.782  30.999  10.829
29778W        W  378  16.932  33.183   2.378
29779W        W  379  34.518  30.978   3.337
29780W        W  380   8.293   1.399  14.042
29781W        W  381  41.004  11.751   3.373
29782W        W  382   3.020  23.877  11.110
29783W        W  383  40.509  22.448   3.066
29784W        W  384  31.722   9.158  14.934
29785W        W  385   5.321  28.923  11.643
29786W        W  386  41.307  39.592   0.523
29787W        W  387  36.122  11.243  14.223
29788W        W  388   6.450  18.255   1.813
29789W        W  389   2.902  25.976  14.464
29790W        W  390  33.588  38.350  11.093
29791W        W  391  34.658  10.210   4.107
29792W        W  392   9.112  27.595  13.797
29793W        W  393  35.958  34.088   3.197
29794W        W  394   4.712   2.029  14.326
29795W        W  395   2.926  34.100  12.566
29796W        W  396  12.054  14.741  10.700
29797W        W  397  19.739  12.667   3.755
29798W        W  398  41.796  31.424  12.059
29799W        W  399   2.440  15.460  11.558
29800W        W  400  40.293  36.093  11.051
29801W        W  401   1.269  39.206   1.845
29802W        W  402  29.937   0.002   3.288
29803W        W  403   9.897  11.826  11.704
29804W        W  404   9.769   1.528   3.149
29805W        W  405  19.096  23.335   2.365
29806W        W  406  24.024  26.511   3.653
29807W        W  407   6.674  25.385  13.510
29808W        W  408  22.983  12.413  12.450
29809W        W  409   5.840  15.682   4.766
29810W        W  410   0.491  26.946   1.796
29811W        W  411  40.450  19.070   3.581
29812W        W  412  36.314   2.174  14.463
29813W        W  413  41.494  38.519   4.556
29814W        W  414  31.024  10.278  13.322
29815W        W  415  27.016  34.148   2.728
29816W        W  416  36.296   8.634  12.928
29817W        W  417  10.819  36.148   4.634
29818W        W  418  44.818  34.818  14.588
29819W        W  419  18.649  30.038  13.529
29820W        W  420  11.241  35.573  12.983
29821W        W  421  18.239   2.267  14.354
29822W        W  422  26.442  29.645   1.801
29823W        W  423  27.146  44.506  12.026
29824W        W  424  43.368  38.517   0.810
29825W        W  425  38.841   9.756   5.039
29826W        W  426  43.974  34.446  13.886
29827W        W  427  40.879  11.208   1.167
29828W        W  428  20.525  22.172   1.907
29829W        W  429  13.111  24.852  11.925
29830W        W  430  39.544  31.489   0.427
29831W        W  431  14.612  22.622   5.532
29832W        W  432  29.681  13.938   1.924
29833W        W  433  43.103  15.253  14.882
29834W        W  434  16.223  10.569  14.437
29835W        W  435  18.301  44.385  13.542
29836W        W  436   2.182  42.879   0.168
29837W        W  437   0.846  25.135  13.117
29838W        W  438  15.795  22.459  10.602
29839W        W  439  31.972  25.496  12.006
29840W        W  440   3.237  14.571   5.051
29841W        W  441   5.767   2.444   3.204
29842W        W  442  38.075  25.488   3.173
29843W        W  443  43.927  28.972   3.247
29844W        W  444  40.351  20.759   3.842
29845W        W  445   3.886  26.683  13.143
29846W        W  446  25.546  17.192   2.729
29847W        W  447  22.826  11.152   1.964
29848W        W  448  11.748  26.224   2.160
29849W        W  449  22.615  39.146   2.315
29850W        W  450  20.664  16.347   4.143
29851W        W  451  31.857  31.498  12.560
29852W        W  452  35.321  44.438  12.939
29853W        W  453  25.624  41.744   1.932
29854W        W  454  20.087  15.742   4.068
29855W        W  455  20.598   6.227  13.458
29856W        W  456  33.537  20.229   4.987
29857W        W  457  18.219  38.775  12.130
29858W        W  458   8.711  32.400   3.090
29859W        W  459   2.187   3.490  13.325
29860W        W  460  23.225  36.417  12.441
29861W        W  461   0.673  26.112   0.629
29862W        W  462   7.597  21.097  12.889
29863W        W  463  10.573  22.533   1.838
29864W        W  464  26.135   3.815   3.825
29865W        W  465  27.670  19.526  14.720
29866W        W  466  32.922  44.172  14.910
29867W        W  467  25.478   3.262   2.220
29868W        W  468  31.001  40.589   3.242
29869W        W  469  12.686   1.077  11.371
29870W        W  470  18.592  31.575   3.871
29871W        W  471  20.654   0.557  13.905
29872W        W  472  33.769  14.221   1.483
29873W        W  473  35.602  38.180   0.647
29874W        W  474  33.567  17.287   3.382
29875W        W  475  41.891  10.246   1.423
29876W        W  476  23.444  36.023   2.576
29877W        W  477   4.896   1.369   0.470
29878W        W  478  19.717  11.134   9.964
29879W        W  479  39.429  16.977   2.371
29880W        W  480  39.920  40.079   2.233
29881W        W  481   0.888  12.866   4.596
29882W        W  482   0.379  42.975   0.965
29883W        W  483  21.815   6.242   0.621
29884W        W  484  10.079   6.169   0.834
29885W        W  485  18.477  29.092  13.011
29886W        W  486  32.154   2.026   3.799
29887W        W  487  26.539  29.505  12.398
29888W        W  488   6.265  16.470   4.183
29889W        W  489  22.578  18.612  13.235
29890W        W  490  33.012   5.233  14.092
29891W        W  491   7.593  29.988   0.816
29892W        W  492  40.843  32.459  13.821
29893W        W  493  36.151  31.161  11.327
29894W        W  494  20.042   2.598   0.406
29895W        W  495  43.170  35.327   0.834
29896W        W  496   6.930   9.580  12.542
29897W        W  497  10.521  19.359   4.103
29898W        W  498  16.447  37.757   2.988
29899W        W  499   6.938  33.523   4.122
29900W        W  500  38.340  42.790   4.046
29901W        W  501  27.879  31.559  12.474
29902W        W  502  29.449  37.824  12.709
29903W        W  503  17.598  12.673  12.662
29904W        W  504  13.071   3.795   3.797
29905W        W  505   7.815  42.418  12.082
29906W        W  506  13.269  25.577   4.134
29907W        W  507  23.230  36.077  10.764
29908W        W  508  26.005  40.131  12.113
29909W        W  509  25.003  30.973   1.209
29910W        W  510   0.514  15.893  13.041
29911W        W  511  22.217   7.685  10.764
29912W        W  512  37.476  38.078   2.689
29913W        W  513  16.206  35.067   0.853
29914W        W  514   2.370  24.394  10.505
29915W        W  515  11.184  40.649   1.307
29916W        W  516   1.537  17.706   0.223
29917W        W  517  27.464   6.606  13.639
29918W        W  518   0.336  38.452  14.005
29919W        W  519  43.014  27.934  13.866
29920W        W  520  42.465  38.788   2.299
29921W        W  521  15.684  41.928   2.664
29922W        W  522  31.087  26.442   0.681
29923W        W  523  42.787   6.349  14.057
29924W        W  524  17.458  24.773   1.931
29925W        W  525  29.734  32.035  13.792
29926W        W  526  28.228  24.254  12.306
29927W        W  527  36.548   8.351   4.393
29928W        W  528  44.989  16.270   2.747
29929W        W  529   7.844   1.292  13.771
29930W        W  530  23.097  23.363   1.551
29931W        W  531   8.780   3.868   4.605
29932W        W  532  36.064  44.152  13.330
29933W        W  533  36.452  22.432   3.786
29934W        W  534  19.789  30.041  12.145
29935W        W  535  12.351  35.583  14.922
29936W        W  536  41.387  27.006  12.068
29937W        W  537  24.673   7.951  13.543
29938W        W  538  37.019  36.237  13.508
29939W        W  539  31.652  15.647  12.906
29940W        W  540  33.947   0.751  13.582
29941W        W  541  18.811  30.097  12.004
29942W        W  542  37.756  15.187   0.853
29943W        W  543  20.681  28.632   2.672
29944W        W  544  15.290  41.846   3.436
29945W        W  545  20.484   0.483  13.081
29946W        W  546  29.602   5.799  14.903
29947W        W  547  39.842   7.815   1.283
29948W        W  548  20.114  16.976  13.509
29949W        W  549  34.994   5.272   3.127
29950W        W  550   1.186  29.122  12.680
29951W        W  551  41.905  33.514   2.975
29952W        W  552  42.982  16.084  11.737
29953W        W  553  25.578  40.474   0.524
29954W        W  554  44.410  16.113   4.311
29955W        W  555  26.758  10.516   2.519
29956W        W  556  35.645  29.592   0.409
29957W        W  557  16.372   6.246  12.501
29958W        W  558  18.158  30.188  13.717
29959W        W  559  42.537  42.009  12.369
29960W        W  560  27.916  26.550   0.139
29961W        W  561  18.629   1.121  14.957
29962W        W  562  42.750   1.469  14.462
29963W        W  563  44.676   6.823  12.909
29964W        W  564  17.774  12.883   1.392
29965W        W  565  20.686   3.508   2.775
29966W        W  566  39.681   1.447   3.253
29967W        W  567  27.003  41.991   0.311
29968W        W  568  31.911  18.820   4.079
29969W        W  569  39.675  24.139   2.461
29970W        W  570  17.049  15.775  12.498
29971W        W  571  14.308   2.234   5.236
29972W        W  572   2.915  22.565   0.048
29973W        W  573  17.588  37.380   0.317
29974W        W  574  41.879  42.908  14.822
29975W        W  575   5.495  32.528   5.078
29976W        W  576  39.556   6.637   3.711
29977W        W  577  13.858  40.364   0.401
29978W        W  578  12.176  18.394   3.182
29979W        W  579  35.793  44.789   0.200
29980W        W  580  19.327   6.025   0.307
29981W        W  581  11.267   8.796   3.784
29982W        W  582  42.475  17.341  11.954
29983W        W  583  14.818  31.249  14.559
29984W        W  584  26.061  15.128   3.238
29985W        W  585  32.261   6.745   3.472
29986W        W  586  25.336   8.828  11.014
29987W        W  587  41.284  17.236   1.730
29988W        W  588  34.019  17.931   4.168
29989W        W  589  42.618   0.274  12.841
29990W        W  590  35.325  24.532   1.832
29991W        W  591  27.254  30.577   4.012
29992W        W  592  41.016   5.111  11.600
29993W        W  593   9.351   4.551   2.282
29994W        W  594  27.635   5.817   1.346
29995W        W  595  30.405  37.423  10.618
29996W        W  596  40.837  16.672   2.248
29997W        W  597  10.330  22.108  14.347
29998W        W  598  36.073  32.717   0.823
29999W        W  599   4.830  28.018   2.731
30000W        W  600  33.966  34.546  11.543
30001W        W  601  29.244  11.286  10.516
30002W        W  602  30.354  29.549   4.452
30003W        W  603  36.427  43.431  13.379
30004W        W  604  12.773  12.857  11.054
30005W        W  605  21.418  41.949   2.218
30006W        W  606  44.413  35.672  12.519
30007W        W  607  25.981  13.259   0.503
30008W        W  608  17.515  28.566   1.285
30009W        W  609  12.445  36.812  14.994
30010W        W  610  38.424  32.978  13.355
30011W        W  611  38.849  11.917  12.913
30012W        W  612  17.373   1.595   9.755
30013W        W  613   3.453  28.439  14.199
30014W        W  614  18.988  37.484   3.324
30015W        W  615  22.028  16.558  13.889
30016W        W  616  20.515  20.554  14.253
30017W        W  617  14.192   2.512   2.179
30018W        W  618  21.654  21.764  14.786
30019W        W  619  24.763  44.143   4.085
30020W        W  620   0.014   5.188   3.909
30021W        W  621  42.828  32.422   2.222
30022W        W  622  20.296   9.699   2.838
30023W        W  623   0.975  30.511  12.426
30024W        W  624  10.769  38.679   0.712
30025W        W  625   3.209  11.926  12.930
30026W        W  626  39.103  38.540   2.488
30027W        W  627  29.153  15.307  13.350
30028W        W  628  33.658  11.098  12.331
30029W        W  629  30.865   8.734  14.837
30030W        W  630  20.738  18.632  13.007
30031W        W  631   0.028  41.174  14.417
30032W        W  632  43.163  20.684   4.346
30033W        W  633   0.466   2.364   0.007
30034W        W  634   7.090  28.479   4.152
30035W        W  635  28.862  25.994  14.386
30036W        W  636  34.429  16.878   4.257
30037W        W  637  13.371  20.531   4.191
30038W        W  638  44.044  20.218  12.880
30039W        W  639  27.473  26.041   2.172
30040W        W  640  40.428  40.971  10.573
30041W        W  641  22.637  32.213  13.014
30042W        W  642  33.461  23.341   0.460
30043W        W  643   5.240  27.072  11.676
30044W        W  644   7.210  32.343   1.937
30045W        W  645  20.517  39.064  12.932
30046W        W  646  44.764  22.976  13.794
30047W        W  647   0.217  16.730   1.686
30048W        W  648   4.242  23.676   4.577
30049W        W  649   3.930  24.280   0.513
30050W        W  650  34.965  28.173  12.107
30051W        W  651  39.792  34.588   4.894
30052W        W  652   1.776  36.027   0.005
30053W        W  653  40.451  37.886   3.807
30054W        W  654  28.968  38.408  13.005
30055W        W  655  35.338  20.275  14.786
30056W        W  656  26.862  16.226  13.760
30057W        W  657  39.077  12.775  10.764
30058W        W  658  10.808   8.368  10.620
30059W        W  659  26.924  43.414   5.020
30060W        W  660  32.950  25.980   0.894
30061W        W  661  42.439  42.473  10.826
30062W        W  662  30.832  39.408   2.720
30063W        W  663  33.364  32.218   0.709
30064W        W  664  44.717  18.680   0.868
30065W        W  665  14.871   2.266   1.463
30066W        W  666  41.992  23.101   3.621
30067W        W  667   3.854  43.917   1.780
30068W        W  668  34.367  42.009   3.580
30069W        W  669  22.005  21.969   2.842
30070W        W  670   2.521  17.198  13.633
30071W        W  671  38.078  36.743   4.944
30072W        W  672  25.302  32.646  11.377
30073W        W  673  14.860  44.916   1.276
30074W        W  674  36.110  17.403   0.310
30075W        W  675  19.912  39.565  11.146
30076W        W  676   0.868  34.373  12.006
30077W        W  677  12.283   3.625  11.581
30078W        W  678  28.689  18.872  12.541
30079W        W  679   2.358   8.244  14.855
30080W        W  680  35.500   3.828   4.623
30081W        W  681  43.342  16.557   0.507
30082W        W  682  16.467  34.873  13.171
30083W        W  683  22.226  30.085   4.539
30084W        W  684  34.492  35.321   2.315
30085W        W  685  12.702  22.179   2.815
30086W        W  686  32.225  41.968  11.075
30087W        W  687  30.734  24.829   4.868
30088W        W  688  11.316  34.063  14.831
30089W        W  689  33.008   5.732   3.782
30090W        W  690  23.956  39.213  10.192
30091W        W  691  43.794   4.303  14.040
30092W        W  692  21.127  15.817  10.734
30093W        W  693  20.760   2.756  13.395
30094W        W  694  16.379   9.037  12.094
30095W        W  695  18.309  28.151   4.330
30096W        W  696  41.083  26.943   0.696
30097W        W  697  28.924  14.255  14.687
30098W        W  698   9.787  14.782   4.332
30099W        W  699  17.213  15.120  13.785
30100W        W  700  20.226  29.224  12.145
30101W        W  701  41.993  39.006  14.417
30102W        W  702  16.828  17.597  11.453
30103W        W  703   9.707  12.507   4.297
30104W        W  704   4.700  27.486  10.354
30105W        W  705   3.710  11.386   4.202
30106W        W  706  17.277  24.004  10.283
30107W        W  707   9.614   6.866  14.940
30108W        W  708  15.201  44.975   4.503
30109W        W  709   8.151  23.521  13.385
30110W        W  710   9.817  25.972   3.934
30111W        W  711  32.617  35.568   3.327
30112W        W  712  32.828  36.058   0.716
30113W        W  713  31.076  21.318  11.234
30114W        W  714  17.157  38.812   4.779
30115W        W  715  30.350  17.108  13.879
30116W        W  716   2.844  19.815   2.662
30117W        W  717  17.595   8.940   0.826
30118W        W  718  24.341  27.503  10.925
30119W        W  719   5.284   9.102   2.359
30120W        W  720   2.625   8.354  12.564
30121W        W  721   5.155  21.201   1.387
30122W        W  722   8.064  20.560   0.192
30123W        W  723  15.649   6.197   4.526
30124W        W  724  21.032  44.668  12.792
30125W        W  725  34.357  20.132   0.814
30126W        W  726  35.594  24.719  14.848
30127W        W  727   7.922   2.731   1.309
30128W        W  728  41.414  25.322   0.877
30129W        W  729  19.507   9.608  11.917
30130W        W  730  23.549  21.696   0.799
30131W        W  731  33.916  29.862  14.338
30132W        W  732  13.829  14.553   1.621
30133W        W  733  21.480  34.488  10.318
30134W        W  734   7.450  24.226   0.751
30135W        W  735  33.879  22.386  10.782
30136W        W  736   3.063   6.875  11.889
30137W        W  737  11.417  34.144  12.765
30138W        W  738  27.703   2.014  10.919
30139W        W  739  27.549  33.853   1.028
30140W        W  740  12.681  23.493   2.899
30141W        W  741  24.220  17.687   2.984
30142W        W  742  41.950   8.357   4.260
30143W        W  743  35.598  26.738  11.033
30144W        W  744  18.701   2.081  10.190
30145W        W  745  44.859  19.807   3.270
30146W        W  746  32.574  42.262   1.819
30147W        W  747  36.645  27.620  14.527
30148W        W  748  20.082  23.684  12.921
30149W        W  749  15.655  37.048   1.486
30150W        W  750  14.242  36.669   1.681
30151W        W  751  16.574   8.562  12.334
30152W        W  752  13.171  12.712   3.742
30153W        W  753  27.817  35.416   5.198
30154W        W  754   7.599  21.112   2.790
30155W        W  755  44.386  13.398   4.285
30156W        W  756  20.378   3.801   2.395
30157W        W  757  20.077  22.274   1.659
30158W        W  758  39.409  43.413  11.034
30159W        W  759   8.530  27.687  10.670
30160W        W  760  27.783  28.236  11.201
30161W        W  761  23.333  20.477   2.563
30162W        W  762  11.573  44.681  11.097
30163W        W  763  31.990  40.537  11.840
30164W        W  764  13.151  37.095   4.332
30165W        W  765  31.061  41.580  14.469
30166W        W  766  37.055  14.692  13.126
30167W        W  767  10.900  25.388   2.407
30168W        W  768  30.588  29.916   3.202
30169W        W  769  18.055   1.632  12.376
30170W        W  770  28.391   2.403   4.166
30171W        W  771  39.639  15.764  13.614
30172W        W  772   7.829   5.240  13.297
30173W        W  773  12.834   0.534   1.859
30174W        W  774  34.549  34.932   2.912
30175W        W  775  28.151  40.996   2.197
30176W        W  776   4.935  36.123   2.210
30177W        W  777  35.424  12.088   3.288
30178W        W  778  39.546   8.223  13.875
30179W        W  779  14.936   1.312   0.528
30180W        W  780  43.395  21.455  13.925
30181W        W  781   3.725   2.768  14.051
30182W        W  782  17.983  29.503   2.237
30183W        W  783  38.771  10.877   0.489
30184W        W  784  13.233  11.801  13.003
30185W        W  785   0.340   9.722   0.753
30186W        W  786  25.202  18.212   2.261
30187W        W  787  32.890  25.786   3.573
30188W        W  788  22.066  44.403   1.325
30189W        W  789  27.838  16.711   3.277
30190W        W  790  33.344  25.054  11.712
30191W        W  791  36.365  25.056  12.025
30192W        W  792  38.298  41.491   4.127
30193W        W  793  10.602  41.392   4.194
30194W        W  794  39.530  10.841  12.569
30195W        W  795   0.945  18.657  13.431
30196W        W  796  37.390   3.135   3.590
30197W        W  797  22.023  38.602   3.277
30198W        W  798  25.462   8.122  10.643
30199W        W  799   2.936   2.836  14.973
30200W        W  800  27.968   5.695  11.167
30201W        W  801   8.334  18.737   4.214
30202W        W  802  34.758  42.434   1.377
30203W        W  803  44.673  34.931   0.102
30204W        W  804  30.608  19.242  13.338
30205W        W  805  36.887  13.297   3.664
30206W        W  806  13.069  13.299  14.025
30207W        W  807  14.694  29.160  12.993
30208W        W  808   1.884  34.050  11.654
30209W        W  809  10.841   1.977  14.427
30210W        W  810   1.550  32.577   3.294
30211W        W  811  27.097   3.178   4.150
30212W        W  812  23.807  30.086   0.741
30213W        W  813  28.254   2.415   5.223
30214W        W  814   7.943  26.028   1.378
30215W        W  815   3.719  20.985  11.616
30216W        W  816  12.311  16.118  14.876
30217W        W  817  10.243  10.153  10.404
30218W        W  818  32.280  36.332  12.221
30219W        W  819  13.327   9.355  11.975
30220W        W  820   1.388  23.265   4.983
30221W        W  821  10.456   0.077   0.813
30222W        W  822   8.598   6.247  11.122
30223W        W  823  44.306  20.553  11.749
30224W        W  824  36.136  42.475   2.454
30225W        W  825  13.226   6.034   0.326
30226W        W  826  36.059  13.184   4.507
30227W        W  827  31.960  18.602  13.303
30228W        W  828  15.930   7.252   4.967
30229W        W  829  13.417  12.497   3.208
30230W        W  830  32.818   4.655  11.999
30231W        W  831   9.366   0.818   0.933
30232W        W  832  22.170   2.927   3.236
30233W        W  833  28.648  26.209  13.505
30234W        W  834  31.080  44.958   0.248
30235W        W  835  13.632  10.603  10.637
30236W        W  836  42.345  26.993   3.860
30237W        W  837  14.686   0.515  14.998
30238W        W  838  32.078  13.435  11.668
30239W        W  839  32.998  22.774  12.498
30240W        W  840  44.080   1.804  14.247
30241W        W  841  10.928  14.109  13.762
30242W        W  842   2.271  30.416  11.173
30243W        W  843  44.408  41.704   2.488
30244W        W  844  23.974   2.529   0.673
30245W        W  845  27.212  17.974  14.791
30246W        W  846  39.535  34.371   4.177
30247W        W  847   6.304  29.676   1.335
30248W        W  848  13.217   5.054   3.073
30249W        W  849  24.172   5.430  12.066
30250W        W  850  37.157   8.667   3.523
30251W        W  851   5.473  30.417  10.754
30252W        W  852   0.517  44.490  14.845
30253W        W  853  21.691  17.271  10.409
30254W        W  854  28.376  21.593  12.573
30255W        W  855  43.404   3.933   4.576
30256W        W  856  11.373   0.530  12.944
30257W        W  857  32.831   3.705   1.291
30258W        W  858  33.007  33.981  10.509
30259W        W  859  44.750   5.678  12.985
30260W        W  860  37.482  29.142  12.283
30261W        W  861  39.538  24.068  13.883
30262W        W  862  34.426   3.096  11.968
30263W        W  863  21.196  34.959   2.115
30264W        W  864  14.900  24.645   3.271
30265W        W  865   9.685  14.095   1.880
30266W        W  866  42.409  32.093   0.294
30267W        W  867  40.821  24.857   2.218
30268W        W  868  14.015   1.332   0.015
30269W        W  869  25.171   2.830   1.799
30270W        W  870  32.207  18.691  14.765
30271W        W  871   8.421  42.781   3.325
30272W        W  872   6.353  22.074   2.144
30273W        W  873   5.801  31.074  11.708
30274W        W  874  14.865  28.417   3.364
30275W        W  875  41.569   0.718   4.571
30276W        W  876   1.461  33.092   3.162
30277W        W  877  15.795  28.779  14.293
30278W        W  878  40.782   3.432  12.482
30279W        W  879  32.550  17.042   3.284
30280W        W  880  11.870   9.127  14.878
30281W        W  881  42.416  25.995  14.729
30282W        W  882  29.925   2.306   0.281
30283W        W  883  33.638  18.983  14.896
30284W        W  884  25.382  16.944  12.175
30285W        W  885  42.692  39.286   4.049
30286W        W  886   4.677  37.820   1.810
30287W        W  887  25.715  32.471   1.756
30288W        W  888  37.062   6.248  11.435
30289W        W  889   3.195  43.250   1.168
30290W        W  890   4.848  29.584  10.640
30291W        W  891   5.327   3.494  11.563
30292W        W  892  43.825   7.385  12.905
30293W        W  893  19.634  28.988  10.768
30294W        W  894  38.804  31.694   3.685
30295W        W  895  18.334  12.439  11.049
30296W        W  896  12.287  15.168  13.919
30297W        W  897  29.423  19.314   0.752
30298W        W  898   0.423  22.655   0.405
30299W        W  899  14.675  36.924   1.764
30300W        W  900   2.821  18.259   1.356
30301W        W  901   1.825  12.679  10.779
30302W        W  902   5.431  21.086  11.171
30303W        W  903  14.277  35.503  13.148
30304W        W  904   7.563  30.113  13.279
30305W        W  905  33.565  14.857  14.743
30306W        W  906  35.652  41.531  12.034
30307W        W  907  18.388  42.347  10.417
30308W        W  908  41.535   7.751   3.637
30309W        W  909  32.056  17.690  13.882
30310W        W  910  18.609  20.172  10.614
30311W        W  911  28.440  18.373  12.466
30312W        W  912  40.540  19.261   1.382
30313W        W  913  11.608  18.826  14.906
30314W        W  914  23.324  40.903   4.694
30315W        W  915   4.234   4.468   2.346
30316W        W  916  32.975  16.749  12.432
30317W        W  917  22.703  43.492   4.171
30318W        W  918  29.573  26.738  13.366
30319W        W  919   4.489   0.770  11.917
30320W        W  920  37.104  17.102  12.625
30321W        W  921  26.167   0.855  12.202
30322W        W  922  21.900  31.488  11.554
30323W        W  923  15.903  38.913   2.198
30324W        W  924  24.110  37.176   3.268
30325W        W  925  20.631   2.411  10.631
30326W        W  926  26.180   7.899   0.222
30327W        W  927   1.519   0.260   4.558
30328W        W  928  10.407  21.498   3.743
30329W        W  929   1.689  28.196  12.621
30330W        W  930  20.193  14.213   0.314
30331W        W  931  14.987  13.084   1.533
30332W        W  932  10.629  20.704   3.284
30333W        W  933  32.086   3.770   4.207
30334W        W  934  19.294  12.657  10.863
30335W        W  935  16.666   9.130   2.294
30336W        W  936  37.353   6.205   1.391
30337W        W  937  16.586   6.883  11.094
30338W        W  938  19.620  35.953   4.617
30339W        W  939   3.681   7.395  11.936
30340W        W  940  41.426  36.735   2.368
30341W        W  941  32.083  11.191  10.618
30342W        W  942  21.654   3.348  10.690
30343W        W  943  41.909  27.698  14.762
30344W        W  944  43.198  44.812  11.464
30345W        W  945  26.971  38.343   3.468
30346W        W  946  19.615  10.176   2.199
30347W        W  947  37.448  27.329   1.778
30348W        W  948   8.915  30.174  11.662
30349W        W  949   1.810  20.089   1.795
30350W        W  950  25.557  37.027  11.467
30351W        W  951   2.628   3.898   4.104
30352W        W  952  20.985  39.136  13.856
30353W        W  953  19.570  39.317  12.880
30354W        W  954   3.036  16.527  12.157
30355W        W  955  42.827  36.641  13.901
30356W        W  956  41.348  28.404   0.282
30357W        W  957  13.326  17.840  10.432
30358W        W  958  36.795  16.527  11.423
30359W        W  959  10.399  30.985   1.824
30360W        W  960  16.751  13.359  13.325
30361W        W  961  18.034  31.966  11.666
30362W        W  962   3.189  32.852  11.535
30363W        W  963  40.449  30.329  13.477
30364W        W  964  28.404   3.455   3.349
30365W        W  965   4.402  20.860  14.754
30366W        W  966  44.259  24.409   3.268
30367W        W  967  34.694   0.757   3.566
30368W        W  968  33.427   7.126  12.835
30369W        W  969  34.774  34.044  11.674
30370W        W  970  40.935   0.416  13.076
30371W        W  971   6.390  40.990  11.212
30372W        W  972  23.838   9.309   5.147
30373W        W  973  41.009  33.373   3.822
30374W        W  974  36.249  41.217   2.185
30375W        W  975  43.961  38.099   2.015
30376W        W  976  23.011  39.447  13.556
30377W        W  977  43.613  44.270  13.460
30378W        W  978  18.487  18.277  11.600
30379W        W  979  34.304  40.955  11.275
30380W        W  980   0.225  30.943  14.425
30381W        W  981  38.999   1.866  14.478
30382W        W  982  43.791  36.141  14.289
30383W        W  983  17.575   2.639   1.300
30384W        W  984  12.632  11.639  12.473
30385W        W  985   5.145  44.295   2.317
30386W        W  986   8.122  16.178   4.766
30387W        W  987   5.716  39.445  10.661
30388W        W  988  44.752   5.203  12.757
30389W        W  989  11.666   2.657   4.980
30390W        W  990   0.449  14.897  12.941
30391W        W  991   4.231   6.312   4.875
30392W        W  992  44.521  21.934  12.844
30393W        W  993  31.458  24.006  11.562
30394W        W  994  24.206  22.542  12.589
30395W        W  995  24.968  13.536   3.386
30396W        W  996   9.997  27.179   4.857
30397W        W  997  30.847  34.463  10.280
30398W        W  998  37.336  42.518   0.832
30399W        W  999  15.652  21.657  13.576
30400W        W 1000   4.920  11.434  11.128
30401W        W 1001  40.651  33.006   3.873
30402W        W 1002  42.586  38.493   3.382
30403W        W 1003  20.941  18.378  11.624
30404W        W 1004  23.414  26.248  14.960
30405W        W 1005  19.757  38.783  14.061
30406W        W 1006   8.733   9.871  10.551
30407W        W 1007  36.815   5.383   3.629
30408W        W 1008   2.504   7.399  12.600
30409W        W 1009  29.686  13.131  12.870
30410W        W 1010  35.540   8.944   0.275
30411W        W 1011  27.631  41.387   5.495
30412W        W 1012  12.801   4.825  10.909
30413W        W 1013  15.808  22.589   1.439
30414W        W 1014  16.051   9.960   0.254
30415W        W 1015  18.980  10.893  11.986
30416W        W 1016  36.859  37.342   9.950
30417W        W 1017  21.901  29.558   2.263
30418W        W 1018  38.518  37.080  12.135
30419W        W 1019  40.000  35.530   4.434
30420W        W 1020  38.924   2.685  13.429
30421W        W 1021   7.921  26.467   0.755
30422W        W 1022  24.556  17.033   1.286
30423W        W 1023   0.307  28.070   1.060
30424W        W 1024   4.798  34.023  13.217
30425W        W 1025  27.244  19.480  11.435
30426W        W 1026  39.830  15.594   3.291
30427W        W 1027  17.190   7.469  14.766
30428W        W 1028   2.132  43.192  13.799
30429W        W 1029  32.207   5.853  14.847
30430W        W 1030  24.781  14.855   0.333
30431W        W 1031  27.139  38.906   4.663
30432W        W 1032  24.943   7.557   1.725
30433W        W 1033  18.689  13.308  14.352
30434W        W 1034  21.000  18.799  14.385
30435W        W 1035  19.264  24.081  14.492
30436W        W 1036  13.574   1.858   2.672
30437W        W 1037  39.411  40.251   4.521
30438W        W 1038   2.229  27.630  11.703
30439W        W 1039  18.743  24.180  10.256
30440W        W 1040   5.925  23.799  14.496
30441W        W 1041  36.947  13.672   0.538
30442W        W 1042  35.687   2.753  12.040
30443W        W 1043  43.571  20.225  14.505
30444W        W 1044  10.622   6.912   0.813
30445W        W 1045  23.583  41.487   3.632
30446W        W 1046  32.160  31.467   4.075
30447W        W 1047   2.809  17.254  13.011
30448W        W 1048  18.720  33.978   2.816
30449W        W 1049  23.207  34.154  12.034
30450W        W 1050  15.963   4.830   4.369
30451W        W 1051  30.056  12.273   1.927
30452W        W 1052  37.318  24.712  12.594
30453W        W 1053  36.549  21.983   2.320
30454W        W 1054   9.783  32.338  11.566
30455W        W 1055   3.049   7.444  13.420
30456W        W 1056   7.849   1.932  12.106
30457W        W 1057  25.056   7.417  14.944
30458W        W 1058   6.799  32.484   0.978
30459W        W 1059  25.335  40.904   2.579
30460W        W 1060  39.239  35.850   3.537
30461W        W 1061  10.353  36.081  14.842
30462W        W 1062   5.258  27.114   1.667
30463W        W 1063  31.083  29.204  12.598
30464W        W 1064   7.146   1.959   3.565
30465W        W 1065  32.488   0.415  10.926
30466W        W 1066  37.717  25.963   4.713
30467W        W 1067   1.971  35.462  11.918
30468W        W 1068  19.931  30.722   5.025
30469W        W 1069  19.089  12.232   0.390
30470W        W 1070  24.287  37.564  12.448
30471W        W 1071   0.444  41.497   1.201
30472W        W 1072  17.574  15.049   4.954
30473W        W 1073   7.338  19.507   0.335
30474W        W 1074  40.294  19.244  12.089
30475W        W 1075  25.300  18.060  12.957
30476W        W 1076  35.395   6.481   0.327
30477W        W 1077  27.952  32.502  12.125
30478W        W 1078  33.195  16.184   4.173
30479W        W 1079  24.360  14.797  12.477
30480W        W 1080  19.623  26.215   2.313
30481W        W 1081   2.266  10.336   3.973
30482W        W 1082  33.304   4.327  10.275
30483W        W 1083  40.327   6.810   1.419
30484W        W 1084   2.641   7.684   2.878
30485W        W 1085  39.589   6.908  14.057
30486W        W 1086  25.951  25.525   2.780
30487W        W 1087  39.027  21.953  12.609
30488W        W 1088  26.609  35.924  12.437
30489W        W 1089  15.665   0.268   2.935
30490W        W 1090  40.314  33.598   1.337
30491W        W 1091  38.909  40.379   4.648
30492W        W 1092  17.238   8.436  10.404
30493W        W 1093  40.161  29.082   2.205
30494W        W 1094  26.667  33.035  13.886
30495W        W 1095   4.015  17.994   2.626
30496W        W 1096   3.315   3.501  14.308
30497W        W 1097  32.045  40.428  14.975
30498W        W 1098  41.071  11.367   4.690
30499W        W 1099   8.313  36.273   1.793
30500W        W 1100   6.859  11.582  12.456
30501W        W 1101  42.171   9.912  11.102
30502W        W 1102   5.459  33.229   1.757
30503W        W 1103   9.385  15.383   1.624
30504W        W 1104   0.640  24.391   5.065
30505W        W 1105  10.722  12.792   2.203
30506W        W 1106  26.769  19.550   5.125
30507W        W 1107  28.556  35.964   2.885
30508W        W 1108  11.440  32.119  13.639
30509W        W 1109   7.864  17.361  10.191
30510W        W 1110  14.090  18.512   4.593
30511W        W 1111  19.717  13.033   2.325
30512W        W 1112  31.680  28.616   4.546
30513W        W 1113  17.731  20.473   2.744
30514W        W 1114  17.876   3.197  10.844
30515W        W 1115  42.402   1.788   0.310
30516W        W 1116  15.184  14.716  13.503
30517W        W 1117   9.636  44.956  11.028
30518W        W 1118   1.398  31.008   3.169
30519W        W 1119  37.527  38.009  11.552
30520W        W 1120   5.833   5.108   1.841
30521W        W 1121   6.902   6.426   1.410
30522W        W 1122  37.754  36.848   3.720
30523W        W 1123   2.054  37.924  11.336
30524W        W 1124   6.270  16.509   2.277
30525W        W 1125  36.978  16.811  13.348
30526W        W 1126   0.308  19.068   4.795
30527W        W 1127   4.726  42.356  12.980
30528W        W 1128  31.131  25.731  11.686
30529W        W 1129  19.619  44.258   1.357
30530W        W 1130   0.814  44.537   2.862
30531W        W 1131  20.696  41.162  12.577
30532W        W 1132   1.126  15.210  14.998
30533W        W 1133  17.058  26.015   1.259
30534W        W 1134  38.350  32.892   3.652
30535W        W 1135  24.169  15.643   0.524
30536W        W 1136  44.958  38.986   1.226
30537W        W 1137  11.874  33.467  13.438
30538W        W 1138   7.269  10.143  10.251
30539W        W 1139   1.235  42.574  11.041
30540W        W 1140  31.371  21.312  12.565
30541W        W 1141  12.571  23.869   3.293
30542W        W 1142  24.916  24.833  12.032
30543W        W 1143  11.806  21.480  12.424
30544W        W 1144  12.766   2.793  13.400
30545W        W 1145   3.099  39.834   3.643
30546W        W 1146  12.752  36.534  10.785
30547W        W 1147  37.530  15.206  11.570
30548W        W 1148  17.375   0.152  12.331
30549W        W 1149  19.337  26.758   0.821
30550W        W 1150  32.330  19.010   0.774
30551W        W 1151  21.727  33.634   3.173
30552W        W 1152  19.594  35.773  14.868
30553W        W 1153  43.348  18.700  13.489
30554W        W 1154  27.452   5.373  14.811
30555W        W 1155  17.573  18.624   2.674
30556W        W 1156  33.093  28.517  10.487
30557W        W 1157  33.111   5.891   4.271
30558W        W 1158   4.830  10.288   4.540
30559W        W 1159  12.039  28.950   4.526
30560W        W 1160  30.469  21.580   1.930
30561W        W 1161   3.857  41.495  11.591
30562W        W 1162   2.702  14.256  11.027
30563W        W 1163  15.663  13.414   3.240
30564W        W 1164  19.115  26.902  11.541
30565W        W 1165   5.430  32.171   4.253
30566W        W 1166  15.558  39.917  12.636
30567W        W 1167  15.612  26.517  10.303
30568W        W 1168  32.870  35.618   2.831
30569W        W 1169   8.290  28.788  12.307
30570W        W 1170  35.802  31.862  14.124
30571W        W 1171  11.536  42.120  13.148
30572W        W 1172  21.205  18.159   4.170
30573W        W 1173  23.048  33.836   3.668
30574W        W 1174  15.352  34.858   3.045
30575W        W 1175  13.996  37.260  14.360
30576W        W 1176  42.289  28.649   0.977
30577W        W 1177   6.141  15.568   1.770
30578W        W 1178  32.588  42.666   1.503
30579W        W 1179   3.293  20.075   3.168
30580W        W 1180  18.231  43.030  13.788
30581W        W 1181   4.158  19.282   0.206
30582W        W 1182  22.542  34.370   2.251
30583W        W 1183  42.382  23.319   2.724
30584W        W 1184  44.781  13.546   2.128
30585W        W 1185  10.023  32.396  14.388
30586W        W 1186   7.817  16.340   0.448
30587W        W 1187  22.552  19.941  13.177
30588W        W 1188  36.953  15.791   0.820
30589W        W 1189  10.311  44.054   2.619
30590W        W 1190  26.950  16.122  11.505
30591W        W 1191   4.420  10.052  13.323
30592W        W 1192   0.020  43.038  13.969
30593W        W 1193  41.463  21.440   0.578
30594W        W 1194  23.989  17.735  10.696
30595W        W 1195  26.680   7.457   2.268
30596W        W 1196  29.073  27.959   3.061
30597W        W 1197  41.563  21.761  11.178
30598W        W 1198  27.481  17.322  12.593
30599W        W 1199   3.646  44.559  12.965
30600W        W 1200   5.867  11.559  12.941
30601W        W 1201  28.518   4.497   1.014
30602W        W 1202   6.500  11.962   3.596
30603W        W 1203  20.801   1.551   1.760
30604W        W 1204  39.470   3.745  13.762
30605W        W 1205  34.401  10.240  13.946
30606W        W 1206   9.236   6.148   3.284
30607W        W 1207  27.397  28.090  12.555
30608W        W 1208  25.660  23.055  11.479
30609W        W 1209   2.894   7.297  11.688
30610W        W 1210  11.137  29.477  14.126
30611W        W 1211  19.658  24.648  12.472
30612W        W 1212  37.499  22.030  10.773
30613W        W 1213   7.132  33.597  12.198
30614W        W 1214   4.740   8.824   1.190
30615W        W 1215   5.646   9.405   1.993
30616W        W 1216  19.260  36.529   3.852
30617W        W 1217  24.013  32.639   3.173
30618W        W 1218  11.321   5.089   1.283
30619W        W 1219  17.796  23.017   2.729
30620W        W 1220   6.530  32.422   1.423
30621W        W 1221  18.915  21.038   1.089
30622W        W 1222  41.419  28.615  11.833
30623W        W 1223   8.973  44.259   1.826
30624W        W 1224  39.864  13.284   0.850
30625W        W 1225  31.875  40.403  13.942
30626W        W 1226  12.878   5.915  12.499
30627W        W 1227   1.351  41.175   4.241
30628W        W 1228  41.614  26.061  10.547
30629W        W 1229  30.712  35.928   1.833
30630W        W 1230  23.911  18.210  10.122
30631W        W 1231  28.828  18.022  14.524
30632W        W 1232   7.731  24.537  12.045
30633W        W 1233  34.137  30.046   1.767
30634W        W 1234  18.383  14.147   1.388
30635W        W 1235  31.876   9.751  12.476
30636W        W 1236   2.905   8.103   1.937
30637W        W 1237   8.732   2.310   1.828
30638W        W 1238  35.878  21.581  12.351
30639W        W 1239  38.379  21.106  12.457
30640W        W 1240  23.185  18.665  12.490
30641W        W 1241  40.323  32.373   1.802
30642W        W 1242  11.994  23.510   4.530
30643W        W 1243  43.144   4.135   3.701
30644W        W 1244  35.134  23.046  11.831
30645W        W 1245  44.444  21.517   2.747
30646W        W 1246   6.744  19.267   0.523
30647W        W 1247  12.069  22.586  14.456
30648W        W 1248  38.470   2.029   2.593
30649W        W 1249  30.898   6.735   2.417
30650W        W 1250  29.497  28.595  12.055
30651W        W 1251  34.214   4.292   3.017
30652W        W 1252  29.571  35.916  14.066
30653W        W 1253  33.918  19.986   0.542
30654W        W 1254  42.876   7.993   1.313
30655W        W 1255  38.991  37.067   4.641
30656W        W 1256  10.102  19.776   3.241
30657W        W 1257  44.290   0.028   2.056
30658W        W 1258  38.316   4.481   2.975
30659W        W 1259  33.893  22.090  13.452
30660W        W 1260  27.056  31.899   3.040
30661W        W 1261   6.820   6.308  14.970
30662W        W 1262   5.147  25.718  12.407
30663W        W 1263  24.692  19.280  12.100
30664W        W 1264  19.412  39.447  11.085
30665W        W 1265   6.710   4.918  13.062
30666W        W 1266  27.705  13.219  12.689
30667W        W 1267  42.709  39.635   2.188
30668W        W 1268  31.383  13.913   4.179
30669W        W 1269   2.134  22.161  12.169
30670W        W 1270  41.829  33.712  11.465
30671W        W 1271  11.818  31.096   4.871
30672W        W 1272  31.499  28.425   0.988
30673W        W 1273  14.314   2.231   0.175
30674W        W 1274  23.218  12.341  10.594
30675W        W 1275  21.133   0.279   0.354
30676W        W 1276  14.813  28.689  11.438
30677W        W 1277  22.691   9.424   3.473
30678W        W 1278  41.096  19.130   0.729
30679W        W 1279  10.929  14.477  12.506
30680W        W 1280   2.310  27.233   3.185
30681W        W 1281   8.718   2.520   0.497
30682W        W 1282  10.033  25.607   2.752
30683W        W 1283  16.631  21.566   1.014
30684W        W 1284  18.640  26.211   3.473
30685W        W 1285  12.672  28.013  13.354
30686W        W 1286   4.477   4.957  12.960
30687W        W 1287   7.633  37.436   5.144
30688W        W 1288  19.828   9.484   2.717
30689W        W 1289   1.194  15.689  11.254
30690W        W 1290  35.174   6.951   3.923
30691W        W 1291  18.243   7.562   3.743
30692W        W 1292   4.240  35.144   1.357
30693W        W 1293  14.784  10.671  11.314
30694W        W 1294   0.445  23.598   0.435
30695W        W 1295  38.447  33.044   1.931
30696W        W 1296  24.016  37.055   4.134
30697W        W 1297  42.625  30.563   1.840
30698W        W 1298  36.297   7.819  13.938
30699W        W 1299  30.002  26.422  13.883
30700W        W 1300  38.554  15.780  14.973
30701W        W 1301  43.061  16.830  11.142
30702W        W 1302   4.241  44.488  13.992
30703W        W 1303  27.641  37.638   3.706
30704W        W 1304   6.013  39.669  12.871
30705W        W 1305  44.303  19.065   1.713
30706W        W 1306  26.673  41.570  11.700
30707W        W 1307  13.712  15.495  10.542
30708W        W 1308  25.829  39.058   0.132
30709W        W 1309   1.203  11.132   2.864
30710W        W 1310  19.167  10.191   0.288
30711W        W 1311  29.730  14.374   0.878
30712W        W 1312  39.887  25.561  12.910
30713W        W 1313  11.240  39.255   4.095
30714W        W 1314  24.192  22.261   0.498
30715W        W 1315  37.763  10.350  12.477
30716W        W 1316  24.216  16.497   0.026
30717W        W 1317  17.659   8.718  14.558
30718W        W 1318  25.637  23.378  14.245
30719W        W 1319  43.938  14.315  12.551
30720W        W 1320  24.589  16.820  10.682
30721W        W 1321  42.300  11.731  11.645
30722W        W 1322  43.099  10.305  14.384
30723W        W 1323  36.966  40.219   2.377
30724W        W 1324  32.910  26.941   1.875
30725W        W 1325  32.034   0.974   0.256
30726W        W 1326  24.566   3.181  12.337
30727W        W 1327  10.324  12.780  13.939
30728W        W 1328   6.357   1.067  14.978
30729W        W 1329  21.757   5.414   1.730
30730W        W 1330  15.076  34.447  14.167
30731W        W 1331  15.091  41.034   1.029
30732W        W 1332  25.005  12.852  14.155
30733W        W 1333   3.432   1.965  12.448
30734W        W 1334  13.496  20.102  13.300
30735W        W 1335   1.785   5.024  13.387
30736W        W 1336  41.607  14.125  10.677
30737W        W 1337  33.475  12.132   3.614
30738W        W 1338  20.702  15.626   3.328
30739W        W 1339  33.323  16.010  12.093
30740W        W 1340  23.139  40.332  12.484
30741W        W 1341  42.606  24.029  13.616
30742W        W 1342   5.900   6.919  10.468
30743W        W 1343   8.323  21.777   1.768
30744W        W 1344  35.990  24.195   2.299
30745W        W 1345   6.454  19.604   1.291
30746W        W 1346   1.569   0.231  11.095
30747W        W 1347   2.805   4.203   0.676
30748W        W 1348  17.233  30.832   3.195
30749W        W 1349  17.743  22.982  11.624
30750W        W 1350  28.698   2.029  14.706
30751W        W 1351   6.187   6.866  14.502
30752W        W 1352   7.705  29.021   3.287
30753W        W 1353   3.486   2.204  13.986
30754W        W 1354  23.686  40.981   1.326
30755W        W 1355  33.477  19.503  12.116
30756W        W 1356  39.322   9.935   4.935
30757W        W 1357   0.520  43.954   2.260
30758W        W 1358  41.871  14.750  13.390
30759W        W 1359  24.108   5.597  12.967
30760W        W 1360  24.449   0.579   4.675
30761W        W 1361  33.581   6.175   3.603
30762W        W 1362   5.703  19.994   0.800
30763W        W 1363  34.159  12.779  11.533
30764W        W 1364  44.430  31.142   0.527
30765W        W 1365  44.220  14.802  10.558
30766W        W 1366   0.774   8.239  12.879
30767W        W 1367  16.144  26.191   2.989
30768W        W 1368   6.886   1.991  12.539
30769W        W 1369  25.923  19.078  10.664
30770W        W 1370  39.470   1.937   3.130
30771W        W 1371   5.306   4.455  12.943
30772W        W 1372  31.129   6.276  13.369
30773W        W 1373  20.218  35.392   3.555
30774W        W 1374  12.886  37.376  14.951
30775W        W 1375   8.357  21.135   3.212
30776W        W 1376  11.260  24.560  14.806
30777W        W 1377  42.128  39.991  10.717
30778W        W 1378  24.795  16.996  13.844
30779W        W 1379  44.089  29.587  11.614
30780W        W 1380  24.185  41.773  12.163
30781W        W 1381  23.560   5.249   2.722
30782W        W 1382  20.161   0.924  10.656
30783W        W 1383   0.273  36.438   3.390
30784W        W 1384   8.497  25.059   3.787
30785W        W 1385  13.035  22.269  10.700
30786W        W 1386   9.380  26.919  11.675
30787W        W 1387   1.701  27.520  14.999
30788W        W 1388  19.130  14.358  14.514
30789W        W 1389   0.779  44.474  13.867
30790W        W 1390  10.282  27.974   2.835
30791W        W 1391   1.765  12.172  14.985
30792W        W 1392  31.040   4.332   2.383
30793W        W 1393  24.200  14.227   4.598
30794W        W 1394   7.051  15.550   4.313
30795W        W 1395  10.299  41.792  10.466
30796W        W 1396  43.816  35.455  11.291
30797W        W 1397   4.398  17.300  13.978
30798W        W 1398  23.705   2.483  10.515
30799W        W 1399  30.343  43.278   1.286
30800W        W 1400   3.507   7.376   3.728
30801W        W 1401  42.699   9.420  12.007
30802W        W 1402   3.838  28.878   1.438
30803W        W 1403  10.976  17.629   2.691
30804W        W 1404  24.054  20.346  11.553
30805W        W 1405  38.593  11.472   1.550
30806W        W 1406  16.266   3.715   0.783
30807W        W 1407  29.449  26.737  14.297
30808W        W 1408  26.574  20.683   0.093
30809W        W 1409  18.184   0.830   4.631
30810W        W 1410  30.845  38.713  11.526
30811W        W 1411  11.786  30.006  14.707
30812W        W 1412  20.363  39.562   1.741
30813W        W 1413  38.562   3.942   1.880
30814W        W 1414  22.668  15.359   3.159
30815W        W 1415  11.893  15.100   3.345
30816W        W 1416  25.202  10.284  11.001
30817W        W 1417   4.825   3.491   0.325
30818W        W 1418  28.757  12.715  14.298
30819W        W 1419  11.820  31.929  10.773
30820W        W 1420  25.964  33.024   1.273
30821W        W 1421   7.890  42.440  14.330
30822W        W 1422  43.516   5.468  11.422
30823W        W 1423  29.805  42.335  12.948
30824W        W 1424  43.182  29.512   2.259
30825W        W 1425  10.483  12.207   3.657
30826W        W 1426  12.905  27.785   3.663
30827W        W 1427  27.942  38.509  12.879
30828W        W 1428  16.638  20.317   1.268
30829W        W 1429   0.681  35.454   4.089
30830W        W 1430  30.952  12.549   2.394
30831W        W 1431  17.801   6.204   2.819
30832W        W 1432   1.705  21.360   1.342
30833W        W 1433  33.137  39.635  12.286
30834W        W 1434  41.279  41.006   4.306
30835W        W 1435  25.519  33.160  14.465
30836W        W 1436  39.278  41.502  14.371
30837W        W 1437  20.745   4.799   4.169
30838W        W 1438  16.024  37.521  12.437
30839W        W 1439  13.915  22.555   0.402
30840W        W 1440  42.028  40.368   3.648
30841W        W 1441   1.823  23.469  11.605
30842W        W 1442  15.227  43.315   2.196
30843W        W 1443  11.783  34.226  13.931
30844W        W 1444  15.508  18.403  14.809
30845W        W 1445  31.951  34.066   0.076
30846W        W 1446  15.735  18.950  11.707
30847W        W 1447   4.763  13.763  11.761
30848W        W 1448  35.188  18.651  14.587
30849W        W 1449  36.890  42.676  13.384
30850W        W 1450  38.823  20.987  13.439
30851W        W 1451  10.469  14.186  13.976
30852W        W 1452  28.348  39.922   2.646
30853W        W 1453  14.721  38.623   3.150
30854W        W 1454  33.029  21.305  14.878
30855W        W 1455  16.375   0.059  12.441
30856W        W 1456   0.843   3.420   0.648
30857W        W 1457   6.877  24.210   3.822
30858W        W 1458  33.086   5.688  14.469
30859W        W 1459  25.166   1.161  10.391
30860W        W 1460  20.177   6.373  12.807
30861W        W 1461  13.748  24.628   4.639
30862W        W 1462  11.714  41.727  11.235
30863W        W 1463  40.449  42.890  14.891
30864W        W 1464  43.524  43.144  13.017
30865W        W 1465  24.985  25.623   4.586
30866W        W 1466   5.184  23.230   2.706
30867W        W 1467   2.807  24.810   4.238
30868W        W 1468  41.126  17.004  12.976
30869W        W 1469  42.704  19.965   5.317
30870W        W 1470   5.171  36.968   0.894
30871W        W 1471  31.159  34.600   2.251
30872W        W 1472  10.784  22.500   2.324
30873W        W 1473  25.541   7.197  11.643
30874W        W 1474   7.731  42.780   2.967
30875W        W 1475  18.406  21.097   1.925
30876W        W 1476  38.987  41.301   2.715
30877W        W 1477  38.074  15.857   1.788
30878W        W 1478  44.392  31.616  10.683
30879W        W 1479  18.768  43.432   3.268
30880W        W 1480   9.129   3.328   4.555
30881W        W 1481  22.101  27.095   2.923
30882W        W 1482  37.697  11.188   0.704
30883W        W 1483  36.502  44.450  10.654
30884W        W 1484  24.807  32.384   0.452
30885W        W 1485  19.881  28.898  13.917
30886W        W 1486  30.891  16.347   2.633
30887W        W 1487   0.865  35.872  12.481
30888W        W 1488   7.365  44.688   3.236
30889W        W 1489  32.659  35.050  11.665
30890W        W 1490  40.887  44.336   0.729
30891W        W 1491  34.413  27.515   2.461
30892W        W 1492   2.675  14.706   4.204
30893W        W 1493   5.214  44.345  13.988
30894W        W 1494  33.941  40.013  11.652
30895W        W 1495   3.565   8.421   2.744
30896W        W 1496   1.084  27.505  12.570
30897W        W 1497  35.652   6.428   1.839
30898W        W 1498   6.197   6.961  12.436
30899W        W 1499  26.092  13.722  13.121
30900W        W 1500  21.011  17.629   1.844
30901W        W 1501  26.981  24.161   3.187
30902W        W 1502  20.708  38.962  14.278
30903W        W 1503  31.117   7.416  12.644
30904W        W 1504  26.660  18.324  12.644
30905W        W 1505  32.536   3.746  11.946
30906W        W 1506  12.369  31.855  11.631
30907W        W 1507  31.567   6.210   3.704
30908W        W 1508  14.222   3.833   4.912
30909W        W 1509  25.731  28.571  12.345
30910W        W 1510   3.822  39.252  12.557
30911W        W 1511  17.189   6.021   2.659
30912W        W 1512   8.923  28.777   2.147
30913W        W 1513  42.765  21.030  11.610
30914W        W 1514   4.257   1.927   4.614
30915W        W 1515   5.256  17.345  14.956
30916W        W 1516  23.178  10.709  13.415
30917W        W 1517  12.782   5.357  12.531
30918W        W 1518   6.389  35.024  11.013
30919W        W 1519   7.177   7.728   2.436
30920W        W 1520  41.139   3.832  14.890
30921W        W 1521  18.775  28.183   4.619
30922W        W 1522  13.716  42.386  12.868
30923W        W 1523   4.394  41.280   2.706
30924W        W 1524  24.921  25.209  13.773
30925W        W 1525  33.233  16.788   3.708
30926W        W 1526  42.610  34.595  11.820
30927W        W 1527  25.881   0.225  13.012
30928W        W 1528  27.722   4.887   1.299
30929W        W 1529   8.432  26.565  10.908
30930W        W 1530  11.324   6.927  12.147
30931W        W 1531  35.011  28.466   0.164
30932W        W 1532  26.549  30.376  11.300
30933W        W 1533  32.763  15.344   4.854
30934W        W 1534  18.759  31.145  14.511
30935W        W 1535  18.188  43.640   0.138
30936W        W 1536   4.662  33.411   0.810
30937W        W 1537  41.632  21.231   2.849
30938W        W 1538  18.301  39.518  12.528
30939W        W 1539  38.819  14.485  11.626
30940W        W 1540  41.353  38.326  13.475
30941W        W 1541   5.901  24.825   4.071
30942W        W 1542  15.701  27.474  14.237
30943W        W 1543  43.370  39.004   4.124
30944W        W 1544  35.594  36.217   2.687
30945W        W 1545  44.366   1.434  10.586
30946W        W 1546   6.886   0.907   1.660
30947W        W 1547  11.000  32.974   1.979
30948W        W 1548  10.268  34.640   1.706
30949W        W 1549  32.466  20.179   4.167
30950W        W 1550  35.156  37.434  13.384
30951W        W 1551  37.095  12.234  11.070
30952W        W 1552  22.050  38.573   4.630
30953W        W 1553  34.684  12.942  13.275
30954W        W 1554  40.246  13.437  12.084
30955W        W 1555  24.462  18.386   0.296
30956W        W 1556  28.882  35.909   3.293
30957W        W 1557   5.167  43.757   2.218
30958W        W 1558  38.432  24.412  13.381
30959W        W 1559   7.869  39.860  13.331
30960W        W 1560  39.997  36.948  14.279
30961W        W 1561   9.844  19.592   1.027
30962W        W 1562  13.342   2.262   0.424
30963W        W 1563  26.936  34.613  12.111
30964W        W 1564   2.182  18.962  13.780
30965W        W 1565  12.857  26.876  11.857
30966W        W 1566   3.425  23.693   4.803
30967W        W 1567  41.355  30.018   4.672
30968W        W 1568  38.779  31.976   1.336
30969W        W 1569  40.191   1.337   3.151
30970W        W 1570  18.071  33.310   3.166
30971W        W 1571  30.144  26.091   3.691
30972W        W 1572   0.001  44.564  13.324
30973W        W 1573  17.688  42.530  13.639
30974W        W 1574  21.637  10.917  13.902
30975W        W 1575  37.293  13.499  12.359
30976W        W 1576  37.912  35.274   4.490
30977W        W 1577  23.170  43.945   3.627
30978W        W 1578  37.721   7.449   4.610
30979W        W 1579  21.107  43.419   4.519
30980W        W 1580  16.650  19.005  11.424
30981W        W 1581  21.698  10.362  13.064
30982W        W 1582  25.280  15.041   0.995
30983W        W 1583  36.623  25.261   2.774
30984W        W 1584  17.323  41.428   3.207
30985W        W 1585  40.949  13.987  11.562
30986W        W 1586  41.089   2.277  14.857
30987W        W 1587   0.922  34.624   2.765
30988W        W 1588  30.627  11.868   3.107
30989W        W 1589  32.330  28.925   1.912
30990W        W 1590  19.196  11.334   4.778
30991W        W 1591  36.116  41.803  14.292
30992W        W 1592  27.614  18.248  10.611
30993W        W 1593   9.881  30.593   1.913
30994W        W 1594  33.652  22.417   1.278
30995W        W 1595  43.075   3.388  11.652
30996W        W 1596  32.930  26.242   0.456
30997W        W 1597  32.451  26.887   4.137
30998W        W 1598  29.968  21.522  11.651
30999W        W 1599  15.604   7.087   4.023
31000W        W 1600  13.834  32.654   1.809
31001W        W 1601  32.483   0.779  14.407
31002W        W 1602  31.364  44.343  12.864
31003W        W 1603  28.531   9.453   1.711
31004W        W 1604  41.520  27.222   4.281
31005W        W 1605   1.252   1.699  14.957
31006W        W 1606  37.639  32.178   4.561
31007W        W 1607  38.445   4.848   0.791
31008W        W 1608  32.024  14.954   0.599
31009W        W 1609  37.902  10.680  13.493
31010W        W 1610  34.666  27.104   2.966
31011W        W 1611  35.772  18.236   0.361
31012W        W 1612  40.528  23.300  14.985
31013W        W 1613  13.810  29.638  10.685
31014W        W 1614  21.698   5.379  10.413
31015W        W 1615  24.947  43.455   1.894
31016W        W 1616  27.992   4.481   2.317
31017W        W 1617   4.672  29.927  12.422
31018W        W 1618  11.326  33.788   0.790
31019W        W 1619  33.274  11.155   4.554
31020W        W 1620   2.774  29.034  12.617
31021W        W 1621  30.734  12.034   0.301
31022W        W 1622  27.193  28.550  11.092
31023W        W 1623  26.029  34.500  14.349
31024W        W 1624  37.746   0.197   1.059
31025W        W 1625  12.514  13.276   5.085
31026W        W 1626  41.351   5.271  14.275
31027W        W 1627  19.458  25.109   3.219
31028W        W 1628  19.516   0.902   1.761
31029W        W 1629   5.911  37.348  11.054
31030W        W 1630  28.002   9.360   3.776
31031W        W 1631   9.576   0.962   2.304
31032W        W 1632  29.354  42.602  14.240
31033W        W 1633   5.066  27.558  11.582
31034W        W 1634  31.643  34.597  12.941
31035W        W 1635  26.903  23.440   2.639
31036W        W 1636  39.431  18.336  13.321
31037W        W 1637   2.408  19.291  12.039
31038W        W 1638  19.885  37.634   1.828
31039W        W 1639  26.113  14.121  14.812
31040W        W 1640  22.675  37.404   1.757
31041W        W 1641  14.235  37.082   2.802
31042W        W 1642  41.293  40.956  13.871
31043W        W 1643  43.195  36.828  11.710
31044W        W 1644  25.432  32.137  10.165
31045W        W 1645  16.233   1.549   2.819
31046W        W 1646  15.662  19.093   3.655
31047W        W 1647  22.320  43.180   5.075
31048W        W 1648  37.544  35.974   4.170
31049W        W 1649  11.704  24.392  13.736
31050W        W 1650  39.861   4.927  13.881
31051W        W 1651  26.937  22.123  14.037
31052W        W 1652   3.391  26.697   3.055
31053W        W 1653  22.754  24.500   0.839
31054W        W 1654  24.678  17.722  11.337
31055W        W 1655  13.361   1.349   4.258
31056W        W 1656  28.145   9.918   1.277
31057W        W 1657  30.439  25.662   3.720
31058W        W 1658  32.135  20.083   0.492
31059W        W 1659  36.130  40.732  11.918
31060W        W 1660  30.572  28.332  13.497
31061W        W 1661  20.510   3.649   3.401
31062W        W 1662  12.088  22.070   0.968
31063W        W 1663  26.093  36.618  11.500
31064W        W 1664  30.641   6.372  13.139
31065W        W 1665   9.256  30.498   0.081
31066W        W 1666  38.561  36.574   3.667
31067W        W 1667  44.035  39.460  13.398
31068W        W 1668  21.748  27.315   0.764
31069W        W 1669   9.926  22.258  10.675
31070W        W 1670  11.563   6.139  13.532
31071W        W 1671  20.494  31.120   1.686
31072W        W 1672  19.004  39.056   0.639
31073W        W 1673  42.362  44.294   0.779
31074W        W 1674   0.411  44.030   4.144
31075W        W 1675  15.355  13.832  12.048
31076W        W 1676  43.734   4.149  13.138
31077W        W 1677   9.609  28.964   4.634
31078W        W 1678  36.097  29.967   3.682
31079W        W 1679  11.057  22.686  11.963
31080W        W 1680  16.364  17.629   4.591
31081W        W 1681   2.224  18.767  12.019
31082W        W 1682  18.199  43.216   1.016
31083W        W 1683   2.443   2.702   3.320
31084W        W 1684  18.519  22.075   2.671
31085W        W 1685   4.954   3.745  10.365
31086W        W 1686   7.401  36.597  12.019
31087W        W 1687  38.554  19.139   1.700
31088W        W 1688   3.209  39.924   4.974
31089W        W 1689  38.991  43.278   2.050
31090W        W 1690   4.549   4.252  10.221
31091W        W 1691  13.657  19.239  13.150
31092W        W 1692  39.859  25.421  12.075
31093W        W 1693  32.996  17.244   1.531
31094W        W 1694  10.124  25.350  11.192
31095W        W 1695   5.836  35.540  13.450
31096W        W 1696  39.296  23.457   0.575
31097W        W 1697  34.004  10.436  11.108
31098W        W 1698   9.640  17.777   4.520
31099W        W 1699  26.955  22.981   0.698
31100W        W 1700  23.394  29.410  12.155
31101W        W 1701  18.749  39.966  11.495
31102W        W 1702  38.814  41.834   4.591
31103W        W 1703  37.575  23.110   4.251
31104W        W 1704   1.860  36.841   4.465
31105W        W 1705   7.940  10.786  14.809
31106W        W 1706  26.192   4.849   0.225
31107W        W 1707  16.768   0.831   2.748
31108W        W 1708   8.872   0.470   4.517
31109W        W 1709  20.116   7.158   3.839
31110W        W 1710  28.705   4.719  10.096
31111W        W 1711  10.654  38.015  12.888
31112W        W 1712   4.679  43.446   0.931
31113W        W 1713  29.256  25.142   3.144
31114W        W 1714  31.046  21.088  12.925
31115W        W 1715  42.754  31.624  14.475
31116W        W 1716  10.011  39.574   1.896
31117W        W 1717  28.610  23.574   1.808
31118W        W 1718  14.125   3.312  11.493
31119W        W 1719  25.202   6.074  12.083
31120W        W 1720  43.286   7.740   2.808
31121W        W 1721  35.846  13.342   2.075
31122W        W 1722   0.892  30.676   1.209
31123W        W 1723   9.898  32.735   2.272
31124W        W 1724   0.259  33.297  13.877
31125W        W 1725  33.484  21.261  12.446
31126W        W 1726  26.346  17.235   3.223
31127W        W 1727  41.081  21.161  14.717
31128W        W 1728  33.526  21.697   3.314
31129W        W 1729   7.193   8.757   4.621
31130W        W 1730  27.841   8.898   2.899
31131W        W 1731  41.953   2.661   0.838
31132W        W 1732  34.977  14.050   1.494
31133W        W 1733  42.520  38.335  13.984
31134W        W 1734   9.418  36.589  14.358
31135W        W 1735  12.674  41.692  10.645
31136W        W 1736  44.741  42.771  11.724
31137W        W 1737  35.352  16.419  11.636
31138W        W 1738  36.137   6.377   1.012
31139W        W 1739  29.925   4.376   3.805
31140W        W 1740  44.980  28.013  10.703
31141W        W 1741   7.436   6.386   0.784
31142W        W 1742  32.712  26.693   3.645
31143W        W 1743   0.844  42.857   1.204
31144W        W 1744  17.231   0.864   1.375
31145W        W 1745  39.506   0.469   2.290
31146W        W 1746  32.340  30.240   4.594
31147W        W 1747  35.518  10.209   4.545
31148W        W 1748  10.269   8.186   3.229
31149W        W 1749  24.972   4.557   2.234
31150W        W 1750  40.991   8.474  10.718
31151W        W 1751  26.557  30.375   0.806
31152W        W 1752   3.173  36.781  11.541
31153W        W 1753  38.910  19.976  10.106
31154W        W 1754  11.136  13.429   2.822
31155W        W 1755   2.243  22.608   9.983
31156W        W 1756  12.249  40.416  13.004
31157W        W 1757  26.119  25.525  12.082
31158W        W 1758   9.763   2.918  12.628
31159W        W 1759  35.851   1.201   1.657
31160W        W 1760  31.651  32.903   3.272
31161W        W 1761  21.626   9.217  13.288
31162W        W 1762  25.734  40.359   4.223
31163W        W 1763  29.405  40.582  14.964
31164W        W 1764  41.339  44.355   1.472
31165W        W 1765  42.897   2.528   3.573
31166W        W 1766  43.280  19.652   1.220
31167W        W 1767  15.117  17.721  13.926
31168W        W 1768  16.785  39.045  10.999
31169W        W 1769  35.323   3.123  14.895
31170W        W 1770  18.380   0.495  14.855
31171W        W 1771  38.387  27.497   3.963
31172W        W 1772  22.479   9.159   1.716
31173W        W 1773   1.150  33.356  10.904
31174W        W 1774   7.348  21.905   0.379
31175W        W 1775   1.015  16.330   2.669
31176W        W 1776   5.505  10.455   3.577
31177W        W 1777  38.651  24.222  11.566
31178W        W 1778  14.356  42.423  12.435
31179W        W 1779   1.232   7.395   3.290
31180W        W 1780  19.822  44.888   4.547
31181W        W 1781  43.301  33.096   3.310
31182W        W 1782  14.297  32.929  12.238
31183W        W 1783   6.673   5.382  12.610
31184W        W 1784  40.203  14.616   3.370
31185W        W 1785   9.881   8.515   3.247
31186W        W 1786  25.282  28.813  11.172
31187W        W 1787  34.591  22.132  12.320
31188W        W 1788  28.732  25.852   3.107
31189W        W 1789  42.882   6.953   3.592
31190W        W 1790   4.892   7.482  13.414
31191W        W 1791  11.791  41.479  10.716
31192W        W 1792   0.257   1.992   0.902
31193W        W 1793  35.087  44.370   2.764
31194W        W 1794  16.361  44.205  11.279
31195W        W 1795  44.874  13.586  13.804
31196W        W 1796  40.286  21.566  14.246
31197W        W 1797   9.260   9.395   0.569
31198W        W 1798   3.201   0.818  14.561
31199W        W 1799   7.283  23.436  10.724
31200W        W 1800  22.950   0.028   3.863
31201W        W 1801  14.690  15.686   0.699
31202W        W 1802  37.929   4.449   4.626
31203W        W 1803  40.866   9.619  13.918
31204W        W 1804  30.118   0.357  14.463
31205W        W 1805   7.668  33.489  12.951
31206W        W 1806  43.356  35.408   3.204
31207W        W 1807  19.555  38.306  14.161
31208W        W 1808  13.406  38.137   2.383
31209W        W 1809  21.436  20.053  11.151
31210W        W 1810   1.210   9.831   1.646
31211W        W 1811  25.792  35.311   1.189
31212W        W 1812   5.791   8.842   3.076
31213W        W 1813  30.234  22.079  10.631
31214W        W 1814  29.632  16.707  14.051
31215W        W 1815  32.877  31.581   3.588
31216W        W 1816  22.740  15.695   0.944
31217W        W 1817  13.441   9.820  12.186
31218W        W 1818   3.643  17.125   5.131
31219W        W 1819  35.396  16.210  12.924
31220W        W 1820  25.781  16.023   2.117
31221W        W 1821  36.802   1.918  10.772
31222W        W 1822  32.945   8.423   4.771
31223W        W 1823  28.880  21.147   3.512
31224W        W 1824  13.840   5.625   0.649
31225W        W 1825  37.106  25.988   2.635
31226W        W 1826  14.527   5.316   3.357
31227W        W 1827  40.200  13.363  11.559
31228W        W 1828  27.280  23.323  13.364
31229W        W 1829  17.527  33.341   4.585
31230W        W 1830   3.004  15.144   1.695
31231W        W 1831  14.042  43.746   3.249
31232W        W 1832  11.849  35.781  13.496
31233W        W 1833   3.382  28.536  10.895
31234W        W 1834   8.211  14.822   2.169
31235W        W 1835  14.728  12.163   4.600
31236W        W 1836  13.170  43.719  11.933
31237W        W 1837  40.485  16.293  10.573
31238W        W 1838  39.330  29.406  13.300
31239W        W 1839  35.421  40.976   0.775
31240W        W 1840   2.871  32.394   3.884
31241W        W 1841  28.659  30.629   3.868
31242W        W 1842  20.279   1.513   1.794
31243W        W 1843   0.937  27.563   4.233
31244W        W 1844  32.928   5.044  10.729
31245W        W 1845  37.208   2.169  12.555
31246W        W 1846   4.493  29.581   1.029
31247W        W 1847  13.232  34.938  14.277
31248W        W 1848  37.778  11.625   0.446
31249W        W 1849   8.525  25.962  12.123
31250W        W 1850  31.553  33.476   2.681
31251W        W 1851  31.474   4.964  11.590
31252W        W 1852  25.131  10.075   0.310
31253W        W 1853  10.722  26.679   4.154
31254W        W 1854  17.499  37.327  12.668
31255W        W 1855  27.987  36.607  13.468
31256W        W 1856  11.951  27.383   3.751
31257W        W 1857  13.681   8.771  10.674
31258W        W 1858   4.688  15.330  11.752
31259W        W 1859  27.507  39.576  12.834
31260W        W 1860  39.907  32.842  12.665
31261W        W 1861  41.948  42.245   2.516
31262W        W 1862   9.850  37.749  12.266
31263W        W 1863  42.991  10.334  11.048
31264W        W 1864   1.222  38.762  12.737
31265W        W 1865  30.704   5.676  10.665
31266W        W 1866   4.488  29.399  14.200
31267W        W 1867  29.152  25.566   2.843
31268W        W 1868   9.396  28.990   1.295
31269W        W 1869   5.848  42.085  12.346
31270W        W 1870  33.609  22.643  13.166
31271W        W 1871  18.972  27.901  13.775
31272W        W 1872  36.238  26.476   4.534
31273W        W 1873  39.985  26.707   3.322
31274W        W 1874  13.072  16.004  14.300
31275W        W 1875  27.972  32.054  14.930
31276W        W 1876  17.432  13.152   3.669
31277W        W 1877  21.530  37.131  11.090
31278W        W 1878  41.533  38.231   4.150
31279W        W 1879  12.330  25.074  12.312
31280W        W 1880  23.751  17.386  12.240
31281W        W 1881   3.527   3.184   0.706
31282W        W 1882   7.435  11.849  11.505
31283W        W 1883  30.565   3.750   1.880
31284W        W 1884  32.554  41.002  13.822
31285W        W 1885  41.472  31.869  10.373
31286W        W 1886  29.742  17.316  10.402
31287W        W 1887  11.958   4.277  11.182
31288W        W 1888  20.990   2.793  12.123
31289W        W 1889   5.765   5.453  14.371
31290W        W 1890   8.839   7.864  12.973
31291W        W 1891  10.569   9.218  14.061
31292W        W 1892  28.623  13.125   0.238
31293W        W 1893   3.895   7.242  14.358
31294W        W 1894  13.866  21.029  10.808
31295W        W 1895  15.594   1.361   2.260
31296W        W 1896  23.251  12.389   4.473
31297W        W 1897  31.138  27.382  14.866
31298W        W 1898  14.612  20.974   0.361
31299W        W 1899  24.518  13.608  12.319
31300W        W 1900  14.251   7.075  14.892
31301W        W 1901   1.601  11.201  12.599
31302W        W 1902  19.825  44.199   2.181
31303W        W 1903  23.769  12.756  13.420
31304W        W 1904   1.416  14.083  14.400
31305W        W 1905  12.278   9.636   4.265
31306W        W 1906  19.728  27.927  13.351
31307W        W 1907   1.825  38.214  13.203
31308W        W 1908  39.018  38.031   4.939
31309W        W 1909  31.086  36.077   1.313
31310W        W 1910  21.188   4.848  11.948
31311W        W 1911  29.463  43.819   0.406
31312W        W 1912   0.460  18.551  11.112
31313W        W 1913  32.450  22.365  13.390
31314W        W 1914  42.002  18.053   2.774
31315W        W 1915   5.465  22.014  12.438
31316W        W 1916  29.057  26.607  12.493
31317W        W 1917   1.400  44.439  12.454
31318W        W 1918  15.832  12.690   3.857
31319W        W 1919   4.806   4.437  13.081
31320W        W 1920  20.100   6.362  13.303
31321W        W 1921  32.446  23.744  13.378
31322W        W 1922  43.512  17.384  11.978
31323W        W 1923   0.619  34.683   0.439
31324W        W 1924  20.547  11.904   0.150
31325W        W 1925  25.436  21.817   4.211
31326W        W 1926  21.395  29.257   1.649
31327W        W 1927  16.922  42.882  10.615
31328W        W 1928  23.536  25.868   4.419
31329W        W 1929  36.950  40.016   3.661
31330W        W 1930  43.815  33.100   3.210
31331W        W 1931  25.898  11.285  14.479
31332W        W 1932  13.000  39.564   4.125
31333W        W 1933  26.232   0.340   1.722
31334W        W 1934  28.617   6.236  10.639
31335W        W 1935  44.369  44.972  11.415
31336W        W 1936  27.219  26.676  13.849
31337W        W 1937  19.760  16.250  10.722
31338W        W 1938  29.443   0.226   3.332
31339W        W 1939  42.927   2.919  13.364
31340W        W 1940   3.459  12.073  14.307
31341W        W 1941  35.422  20.493   4.697
31342W        W 1942  23.594  35.007  11.137
31343W        W 1943  31.526  34.172   0.384
31344W        W 1944   1.417  22.307   4.661
31345W        W 1945  36.791   9.092   1.682
31346W        W 1946  14.306  37.174  13.389
31347W        W 1947  10.895  13.269  14.920
31348W        W 1948  38.029  10.289  13.798
31349W        W 1949  14.743  38.053  14.981
31350W        W 1950  15.694  18.274  10.251
31351W        W 1951  14.757   0.919   2.240
31352W        W 1952  18.149  40.207  11.376
31353W        W 1953  23.279  28.642  14.445
31354W        W 1954  43.796  19.321   3.620
31355W        W 1955   2.635   4.735  11.254
31356W        W 1956   5.989  30.026   1.684
31357W        W 1957  13.158   0.887   1.676
31358W        W 1958  35.930  30.559  12.465
31359W        W 1959  42.780  16.754   3.638
31360W        W 1960  27.575  29.450  13.344
31361W        W 1961  14.288  41.729   0.588
31362W        W 1962  36.349  31.567  11.539
31363W        W 1963  42.791  43.509   1.966
31364W        W 1964  21.051  36.127  12.145
31365W        W 1965  35.276  13.350  12.577
31366W        W 1966  10.200  30.243  12.355
31367W        W 1967  30.499   9.443   3.078
31368W        W 1968  25.855  10.150  12.469
31369W        W 1969  12.579  21.000   4.158
31370W        W 1970  11.307  17.844   3.435
31371W        W 1971   4.359   6.964  14.449
31372W        W 1972  30.411  39.964  11.187
31373W        W 1973  38.903  33.637   4.671
31374W        W 1974  40.856  37.345  12.579
31375W        W 1975  23.740  33.096   4.046
31376W        W 1976  15.058  36.279  13.505
31377W        W 1977  30.465  20.691   0.417
31378W        W 1978  22.221  18.129  13.845
31379W        W 1979  25.615  11.438  13.072
31380W        W 1980  30.928   6.835   0.034
31381W        W 1981  34.620  43.108   1.014
31382W        W 1982  32.890  35.149   4.719
31383W        W 1983   5.086  32.694  13.958
31384W        W 1984  12.821   6.607  10.768
31385W        W 1985  39.142   0.724  10.459
31386W        W 1986  26.765   0.997   4.041
31387W        W 1987   2.932   0.481  12.511
31388W        W 1988  41.228  39.249   4.060
31389W        W 1989  29.921  23.222   0.884
31390W        W 1990  13.393  32.035   2.250
31391W        W 1991  26.542   2.011   4.961
31392W        W 1992   1.162  23.584  12.775
31393W        W 1993  43.322  20.873  14.707
31394W        W 1994  39.815  27.825   1.598
31395W        W 1995  24.583  24.552   2.194
31396W        W 1996  36.519  22.084  13.543
31397W        W 1997  28.813  11.001   5.049
31398W        W 1998  19.133  20.202   3.257
31399W        W 1999  34.316  35.027   0.821
31400W        W 2000  41.525  27.191   0.923
31401W        W 2001  14.131  31.090   1.677
31402W        W 2002  42.292  15.621   4.660
31403W        W 2003  40.027   4.349   0.949
31404W        W 2004  37.480  14.626   3.800
31405W        W 2005  35.388  18.566   0.408
31406W        W 2006  29.676  21.250   0.106
31407W        W 2007  32.352  28.967  12.352
31408W        W 2008  35.773  23.162   0.399
31409W        W 2009  40.435  43.444   1.723
31410W        W 2010  13.015  41.542   0.514
31411W        W 2011  38.750  15.186  13.669
31412W        W 2012  25.967   4.298   3.650
31413W        W 2013   0.472  37.388  11.428
31414W        W 2014  19.599  12.276  14.878
31415W        W 2015  13.441   8.560  10.240
31416W        W 2016  23.293  18.138  12.803
31417W        W 2017   0.555  25.713   2.588
31418W        W 2018   2.376  23.528  13.444
31419W        W 2019  44.640   2.736  14.962
31420W        W 2020  34.365   0.490   3.860
31421W        W 2021   0.746  31.187   4.487
31422W        W 2022  18.084  39.422  13.739
31423W        W 2023  33.635  37.625  13.529
31424W        W 2024  39.997  30.996   2.808
31425W        W 2025   6.958  12.216  13.575
31426W        W 2026  16.713  23.972  13.355
31427W        W 2027  38.938  37.993  13.685
31428W        W 2028  14.292  35.996   0.805
31429W        W 2029  42.057   8.522  11.056
31430W        W 2030  38.048   9.352   2.148
31431W        W 2031  28.660  17.298   2.949
31432W        W 2032  11.676  23.646   2.417
31433W        W 2033   3.271  41.444   0.169
31434W        W 2034  16.725   7.724   4.595
31435W        W 2035   2.978  29.457  12.877
31436W        W 2036  21.143   8.421  13.064
31437W        W 2037  26.544   0.943  14.720
31438W        W 2038  35.298  16.833   1.304
31439W        W 2039  22.048  10.232   4.261
31440W        W 2040  10.460  16.691   1.803
31441W        W 2041   2.024  25.480   3.630
31442W        W 2042  44.439  38.862  14.145
31443W        W 2043  27.679  30.574   3.698
31444W        W 2044  32.647  25.945  12.445
31445W        W 2045  19.855   6.324   2.680
31446W        W 2046  31.592   2.797  14.118
31447W        W 2047  43.020  10.200  12.478
31448W        W 2048  18.992   1.482  11.794
31449W        W 2049   1.355  14.870  12.589
31450W        W 2050   6.841  17.759  12.900
31451W        W 2051   3.459   0.734  12.049
31452W        W 2052  39.962  38.844   0.625
31453W        W 2053  27.656   8.738  11.562
31454W        W 2054  32.746  28.783   3.896
31455W        W 2055  20.758   5.327   3.119
31456W        W 2056   9.286  43.264   4.268
31457W        W 2057   0.307  20.540   3.623
31458W        W 2058  44.317  34.334  12.086
31459W        W 2059   7.994  30.586  11.465
31460W        W 2060  19.941  16.861   1.742
31461W        W 2061  22.168  27.602  12.496
31462W        W 2062  27.076  17.935   2.353
31463W        W 2063  42.048  12.812   3.123
31464W        W 2064   7.841  14.568  12.081
31465W        W 2065  23.746  10.109  10.888
31466W        W 2066  20.966  15.319  10.750
31467W        W 2067   0.287  39.469  11.563
31468W        W 2068   5.649   7.358   0.803
31469W        W 2069  35.330  11.647  13.142
31470W        W 2070  14.756  28.549   3.873
31471W        W 2071  25.567  28.887   2.761
31472W        W 2072  12.823   5.236   3.786
31473W        W 2073  39.861  10.951  12.177
31474W        W 2074   9.108  42.086  14.816
31475W        W 2075  29.524  13.514   3.407
31476W        W 2076  20.477  18.624  11.712
31477W        W 2077  37.044  14.890   3.967
31478W        W 2078  26.189  14.658  11.939
31479W        W 2079  40.615  31.838  11.747
31480W        W 2080  38.110  28.650  14.247
31481W        W 2081  18.154   1.456  14.943
31482W        W 2082  15.662  36.216  12.090
31483W        W 2083  24.314  17.906   0.193
31484W        W 2084   6.004   7.893  12.956
31485W        W 2085  32.934  41.944   3.254
31486W        W 2086  18.086  38.506   4.158
31487W        W 2087  34.542   8.890  12.151
31488W        W 2088  15.580   6.792   0.021
31489W        W 2089   1.883  14.350   0.699
31490W        W 2090  13.139  11.740   3.400
31491W        W 2091  44.621  25.829   3.152
31492W        W 2092  27.667  19.883  11.604
31493W        W 2093   6.786  42.134  14.590
31494W        W 2094  17.669  38.962   4.669
31495W        W 2095  26.507  37.477  12.487
31496W        W 2096   9.443  34.594  14.472
31497W        W 2097   3.000  40.753   4.126
31498W        W 2098  14.615  44.461   1.266
31499W        W 2099  26.693  30.115  10.434
31500W        W 2100   1.872   7.909   2.300
31501W        W 2101  43.190   9.692   2.027
31502W        W 2102  15.130  40.544  14.382
31503W        W 2103  25.603  20.790  12.447
31504W        W 2104  15.994   0.581   0.785
31505W        W 2105  39.442  43.015   4.106
31506W        W 2106  25.643   1.679   2.781
31507W        W 2107  10.362  29.989  11.484
31508W        W 2108  41.326  27.259  11.606
31509W        W 2109  34.404  22.021  10.503
31510W        W 2110  16.777  37.953   4.695
31511W        W 2111  17.299   2.683  12.960
31512W        W 2112  37.051  11.582   3.259
31513W        W 2113  40.646  41.814  12.058
31514W        W 2114  31.092   4.825  10.285
31515W        W 2115  23.482  25.436   0.932
31516W        W 2116  31.043  13.116  13.444
31517W        W 2117   7.184  43.920   1.745
31518W        W 2118  13.517   6.097   0.745
31519W        W 2119  11.289  28.168  14.053
31520W        W 2120  33.051  33.087  13.475
31521W        W 2121  35.057  32.116  12.553
31522W        W 2122   1.324  42.536  14.918
31523W        W 2123  39.949   3.313  11.943
31524W        W 2124  14.785  18.547  13.062
31525W        W 2125  24.231  34.827   4.952
31526W        W 2126  15.739  11.048  11.106
31527W        W 2127  17.055   0.443   4.108
31528W        W 2128  14.109  10.140   1.377
31529W        W 2129  15.771  22.241   4.708
31530W        W 2130  19.135   1.680   2.775
31531W        W 2131  31.501  17.318   2.700
31532W        W 2132  43.275  29.504  13.040
31533W        W 2133   3.189   4.739  11.213
31534W        W 2134  44.194   6.830   4.804
31535W        W 2135  15.372   8.721  13.557
31536W        W 2136  11.709   4.184   4.621
31537W        W 2137  37.217  41.925  11.576
31538W        W 2138  31.469  28.394  13.603
31539W        W 2139  29.121  40.805   0.941
31540W        W 2140  24.487  12.629  10.999
31541W        W 2141  25.542   8.752   0.193
31542W        W 2142  41.513  16.570  14.315
31543W        W 2143  35.169  22.332  10.999
31544W        W 2144  13.929  21.523  10.669
31545W        W 2145  26.693  19.604  13.664
31546W        W 2146  16.328  18.610   2.249
31547W        W 2147  24.712   6.225   0.505
31548W        W 2148   1.853   4.138   1.750
31549W        W 2149  13.656   0.998   3.278
31550W        W 2150   2.462  12.215  12.032
31551W        W 2151  11.289  12.359   4.768
31552W        W 2152  33.532  10.318  12.994
31553W        W 2153  41.262  23.430  14.301
31554W        W 2154   8.233  30.498  13.611
31555W        W 2155   1.806  19.402   2.859
31556W        W 2156  41.343  39.957   3.323
31557W        W 2157   8.776  31.502   3.739
31558W        W 2158  34.570  13.068   4.657
31559W        W 2159  22.697  27.668   2.211
31560W        W 2160  44.677   3.207  10.795
31561W        W 2161  42.581  29.827  11.617
31562W        W 2162  31.145  27.994  11.484
31563W        W 2163  17.631  16.033  13.563
31564W        W 2164  25.552  25.660  12.482
31565W        W 2165  23.089  12.865  11.780
31566W        W 2166  43.548  37.792   3.582
31567W        W 2167  33.006  44.741  12.596
31568W        W 2168   2.481  44.988   2.244
31569W        W 2169  29.192  18.074  14.913
31570W        W 2170  11.187  11.297  10.661
31571W        W 2171  18.981  31.012   3.220
31572W        W 2172  35.734  37.452   1.948
31573W        W 2173   2.140   2.313  11.195
31574W        W 2174  40.840  38.340  13.488
31575W        W 2175  24.194   9.667   0.687
31576W        W 2176  24.639  26.589   1.971
31577W        W 2177  22.694  30.650   1.964
31578W        W 2178  40.827  12.145   0.850
31579W        W 2179   8.463  35.826   0.289
31580W        W 2180  39.568  19.439   0.931
31581W        W 2181  23.216   2.078  13.927
31582W        W 2182  20.202  17.716   3.948
31583W        W 2183  40.745   3.834   5.441
31584W        W 2184   4.943  23.178  12.064
31585W        W 2185   6.223  31.488  12.091
31586W        W 2186  29.105   3.190  11.472
31587W        W 2187  25.597  25.668  11.973
31588W        W 2188  34.068  35.636   4.408
31589W        W 2189  25.480  21.798  14.934
31590W        W 2190   3.944   5.635   0.245
31591W        W 2191  15.957   6.027   2.232
31592W        W 2192  25.305  31.891   4.538
31593W        W 2193  10.986   7.159   1.430
31594W        W 2194   5.604  29.229  11.021
31595W        W 2195  24.115  14.070  14.467
31596W        W 2196  39.093  22.694  12.570
31597W        W 2197   7.289   6.915   1.675
31598W        W 2198  32.871  32.135  13.451
31599W        W 2199  29.358  31.940  13.413
31600W        W 2200  33.459   3.204  12.455
31601W        W 2201   6.654  26.512   3.290
31602W        W 2202  28.088  37.152  13.423
31603W        W 2203  43.329  23.957  12.761
31604W        W 2204  25.665   0.187   3.170
31605W        W 2205  18.960  21.535  12.836
31606W        W 2206  12.673  16.687   2.896
31607W        W 2207  12.779   2.753  14.295
31608W        W 2208  35.563  17.030  10.959
31609W        W 2209  17.742   9.826  12.453
31610W        W 2210  41.273  15.347   1.851
31611W        W 2211   9.344   9.245  14.609
31612W        W 2212  36.054   4.715   3.304
31613W        W 2213  42.987  29.015   3.339
31614W        W 2214  10.624  36.533   3.206
31615W        W 2215  26.045  36.863   3.721
31616W        W 2216  13.604  29.178  13.003
31617W        W 2217  38.768  10.704  14.988
31618W        W 2218   9.408  12.594   2.692
31619W        W 2219  22.164  19.111   2.246
31620W        W 2220  15.804   3.406  10.662
31621W        W 2221   1.557  19.089  14.949
31622W        W 2222  26.666  30.716   2.852
31623W        W 2223  23.489  12.522  11.001
31624W        W 2224   1.252  11.368  14.583
31625W        W 2225  43.543   0.492   2.007
31626W        W 2226   5.199  35.785  10.850
31627W        W 2227  37.870  41.782  14.875
31628W        W 2228  23.409  14.816  12.957
31629W        W 2229  11.202  17.715   3.950
31630W        W 2230  40.246  36.024   3.630
31631W        W 2231  28.368   9.890  14.999
31632W        W 2232  16.640   2.912  12.542
31633W        W 2233   4.906  43.320   2.381
31634W        W 2234   8.852   8.927  13.767
31635W        W 2235  44.360  28.483  13.499
31636W        W 2236  35.956   7.671   4.913
31637W        W 2237  35.598  14.630  12.877
31638W        W 2238   3.710   2.647  11.965
31639W        W 2239  39.661  13.400   0.369
31640W        W 2240  34.923  40.453  11.462
31641W        W 2241  26.758  34.471  12.602
31642W        W 2242   9.075  12.833   2.133
31643W        W 2243   4.173   9.548   4.572
31644W        W 2244  27.624   5.254  11.870
31645W        W 2245  10.759  44.611   4.576
31646W        W 2246  40.799  25.132  11.198
31647W        W 2247  41.501  33.089   2.258
31648W        W 2248   9.851   3.675   0.265
31649W        W 2249  18.659  25.798   3.180
31650W        W 2250  12.586   8.396  13.978
31651W        W 2251  20.963   7.712   0.373
31652W        W 2252  12.171  40.979  11.994
31653W        W 2253  29.363  17.155  14.056
31654W        W 2254   2.200  39.820  13.972
31655W        W 2255  44.788  41.033   2.096
31656W        W 2256  17.263  37.118  13.078
31657W        W 2257  26.726  19.101  12.450
31658W        W 2258  25.945  22.193   0.816
31659W        W 2259  21.346  18.631   2.864
31660W        W 2260   3.478  39.434   4.643
31661W        W 2261  34.041  42.019  13.522
31662W        W 2262   9.359  37.496  12.538
31663W        W 2263  44.398  43.521  14.354
31664W        W 2264  22.136  14.978   3.638
31665W        W 2265  42.483   3.418  14.769
31666W        W 2266   3.510  21.046   2.191
31667W        W 2267  42.638  24.142   0.380
31668W        W 2268  32.199   8.441   4.286
31669W        W 2269  17.115  39.488   3.160
31670W        W 2270  33.864  18.069   0.288
31671W        W 2271  25.480  12.604   1.170
31672W        W 2272  21.988  27.383   1.748
31673W        W 2273   6.426   9.554   3.745
31674W        W 2274  22.845  35.502  14.415
31675W        W 2275  17.615  33.688  12.489
31676W        W 2276  25.180   7.136   5.066
31677W        W 2277  18.721   6.872  13.933
31678W        W 2278  21.509  32.027   1.661
31679W        W 2279  44.758  19.771   4.676
31680W        W 2280   1.915   5.332  11.230
31681W        W 2281  14.479   4.484  14.779
31682W        W 2282  15.678   6.855   2.248
31683W        W 2283  29.277  20.833  14.862
31684W        W 2284  27.638   3.825  12.592
31685W        W 2285  37.900  36.303   2.590
31686W        W 2286  14.705  18.116  12.529
31687W        W 2287   4.284   8.645   0.564
31688W        W 2288   5.807  14.737  11.647
31689W        W 2289  16.802  24.800  12.080
31690W        W 2290  31.542  39.548  12.494
31691W        W 2291  29.251  28.426  12.477
31692W        W 2292  40.021   9.010  14.865
31693W        W 2293  28.174  43.778   3.447
31694W        W 2294  44.574  27.250  12.106
31695W        W 2295   8.336  32.064   4.120
31696W        W 2296  38.389  18.135  10.614
31697W        W 2297  40.574  39.819  14.912
31698W        W 2298  11.868   8.173   2.057
31699W        W 2299  35.540  17.849   4.820
31700W        W 2300  19.777  20.097   0.996
31701W        W 2301  12.504  32.484   1.339
31702W        W 2302  30.126  28.676  11.242
31703W        W 2303  15.184  35.331   2.840
31704W        W 2304  43.480  22.037  11.440
31705W        W 2305  37.961   6.205  11.940
31706W        W 2306  39.127  24.783  12.417
31707W        W 2307  31.710  38.789   0.042
31708W        W 2308  17.586  12.109  11.952
31709W        W 2309  30.560   9.193  13.334
31710W        W 2310  38.868   8.807  12.686
31711W        W 2311   9.336  44.198  11.553
31712W        W 2312   8.270  26.449   1.514
31713W        W 2313  10.337  22.452  10.358
31714W        W 2314  12.059  20.598  11.006
31715W        W 2315  26.311  24.453  14.839
31716W        W 2316  24.524  27.072   4.539
31717W        W 2317  26.894  41.218   5.005
31718W        W 2318  27.593   9.068  11.105
31719W        W 2319  13.180  31.635  11.305
31720W        W 2320  30.858  31.765  12.615
31721W        W 2321   9.498   6.716   3.558
31722W        W 2322  35.471   6.180  11.080
31723W        W 2323  25.967  42.261  10.651
31724W        W 2324  29.400   3.423  14.281
31725W        W 2325  27.472  38.289   0.236
31726W        W 2326  27.128  23.986   2.697
31727W        W 2327  16.218  21.028  14.623
31728W        W 2328  35.321  34.695  12.954
31729W        W 2329  20.738  26.496   1.667
31730W        W 2330  37.030  31.828  12.259
31731W        W 2331  44.082   6.911   0.038
31732W        W 2332  29.475  43.429   3.659
31733W        W 2333  17.112  41.473  14.080
31734W        W 2334  31.012   8.540   1.768
31735W        W 2335   8.887  12.890   4.454
31736W        W 2336  24.466  31.030   4.871
31737W        W 2337  10.249  28.082   2.308
31738W        W 2338  43.637  11.094  13.835
31739W        W 2339  29.448  10.890   3.838
31740W        W 2340  25.879   5.570   4.125
31741W        W 2341  17.240  30.677  13.727
31742W        W 2342  32.872  39.271   1.325
31743W        W 2343  38.943  10.869  14.060
31744W        W 2344  28.595  32.639  11.131
31745W        W 2345  23.561  34.320  13.472
31746W        W 2346  27.667  27.131   3.235
31747W        W 2347  25.485  22.081  11.480
31748W        W 2348   5.356  34.537  10.335
31749W        W 2349  39.330  12.844   1.830
31750W        W 2350   1.826  38.581  10.645
31751W        W 2351  11.842  14.256  13.293
31752W        W 2352  24.609  20.071   4.633
31753W        W 2353   6.493  14.771   0.250
31754W        W 2354  41.940  25.321  10.381
31755W        W 2355  22.126  43.048  14.675
31756W        W 2356   8.729   7.315  14.784
31757W        W 2357  23.656  35.499   3.362
31758W        W 2358  33.510   8.428   3.144
31759W        W 2359  12.558  44.979  12.605
31760W        W 2360  11.593  22.861  12.638
31761W        W 2361  10.195  41.397   5.061
31762W        W 2362   0.859  42.734  13.482
31763W        W 2363  26.245  14.311   4.959
31764W        W 2364  30.355   6.089   3.667
31765W        W 2365   1.700   6.695  12.417
31766W        W 2366  38.457  12.847   1.697
31767W        W 2367  13.337  34.006  11.926
31768W        W 2368  21.536  25.099   2.279
31769W        W 2369  19.559  28.584   4.834
31770W        W 2370   4.370  30.962   1.002
31771W        W 2371   7.349  24.509   4.555
31772W        W 2372  23.167  34.637  13.342
31773W        W 2373   3.891  43.473   2.464
31774W        W 2374  39.918  25.088   1.746
31775W        W 2375   6.972  22.100  11.986
31776W        W 2376  43.032  39.993   0.854
31777W        W 2377  12.953  38.782  14.597
31778W        W 2378  32.628   8.300  12.885
31779W        W 2379  40.923  34.789   3.894
31780W        W 2380  13.046  22.329   0.284
31781W        W 2381  24.550  30.510   3.610
31782W        W 2382  13.201  32.485  12.967
31783W        W 2383  24.801   1.878  11.896
31784W        W 2384  32.894   6.389   1.477
31785W        W 2385  19.860  10.099   3.110
31786W        W 2386  21.626  13.384  13.349
31787W        W 2387  36.682  15.272   3.202
31788W        W 2388   3.619  41.963   1.183
31789W        W 2389  22.940   4.135  10.530
31790W        W 2390  37.098  31.647  11.118
31791W        W 2391  24.883  42.352   0.568
31792W        W 2392  40.350  31.187   0.279
31793W        W 2393   1.205  21.690   3.938
31794W        W 2394  33.650  12.785   4.199
31795W        W 2395  12.332  15.913   3.622
31796W        W 2396  15.640  36.449  11.635
31797W        W 2397  15.143  33.457  14.931
31798W        W 2398   5.687  41.045   0.022
31799W        W 2399  16.946   8.893  14.558
31800W        W 2400  43.444  11.236   0.878
31801W        W 2401  30.879  30.601   0.722
31802W        W 2402  43.126  39.856  10.620
31803W        W 2403  19.778  26.980   1.701
31804W        W 2404  14.207   8.940   3.913
31805W        W 2405  16.015  18.045   2.831
31806W        W 2406  11.453  11.389  12.633
31807W        W 2407   6.403  29.186   4.224
31808W        W 2408  42.566  27.906   2.249
31809W        W 2409   6.218  39.279  12.510
31810W        W 2410  37.639  23.928  10.704
31811W        W 2411  16.697  40.959  11.483
31812W        W 2412   5.661  20.721   1.822
31813W        W 2413   4.388  20.671   3.179
31814W        W 2414  16.097  15.089   4.256
31815W        W 2415   9.880  21.590  13.919
31816W        W 2416  21.368  38.173   0.441
31817W        W 2417   7.176  40.908  14.742
31818W        W 2418  12.604  30.111  14.290
31819W        W 2419   2.252  37.312  12.908
31820W        W 2420  25.362  44.818  14.759
31821W        W 2421  26.078  13.550   4.265
31822W        W 2422  34.990  44.676   4.212
31823W        W 2423   5.335  35.564   1.277
31824W        W 2424   6.700  26.242  13.807
31825W        W 2425  21.490  28.037  11.570
31826W        W 2426  18.639  37.829   4.699
31827W        W 2427  21.795  25.569   3.170
31828W        W 2428   6.283  22.990   2.172
31829W        W 2429  42.928  22.211  12.624
31830W        W 2430  37.493  17.823   0.415
31831W        W 2431  29.576   3.753   1.940
31832W        W 2432  21.263   4.710   5.184
31833W        W 2433  12.750  23.358   3.374
31834W        W 2434   5.667  33.090   1.290
31835W        W 2435  32.528   4.932   4.937
31836W        W 2436  28.314   6.319  12.366
31837W        W 2437  27.539  32.052   4.577
31838W        W 2438  31.840  20.173  12.114
31839W        W 2439  33.478  17.041  12.908
31840W        W 2440   3.465   3.881   2.704
31841W        W 2441  29.403   2.370   3.301
31842W        W 2442  40.316  10.869   3.652
31843W        W 2443  34.485   0.616  13.469
31844W        W 2444   3.336  42.067  10.539
31845W        W 2445  24.702   4.816   0.520
31846W        W 2446   2.347   8.093  10.903
31847W        W 2447  19.680  33.554  10.794
31848W        W 2448   4.805  27.471   3.683
31849W        W 2449   5.285   7.216  14.354
31850W        W 2450  10.534  11.453  11.697
31851W        W 2451  40.455  15.014   2.665
31852W        W 2452  19.829  14.837  11.977
31853W        W 2453  16.387  31.726   0.271
31854W        W 2454  32.232   7.804   3.448
31855W        W 2455  14.807   9.732  14.355
31856W        W 2456  39.983   6.517   4.526
31857W        W 2457  24.401  13.902  10.665
31858W        W 2458   3.504  25.039  13.620
31859W        W 2459  42.045   2.788  14.949
31860W        W 2460  42.727  35.767  11.121
31861W        W 2461  32.829  14.204   1.381
31862W        W 2462   9.780  16.666   1.019
31863W        W 2463  35.921  34.818  12.583
31864W        W 2464  16.720  27.620  13.291
31865W        W 2465   0.921  19.639  11.805
31866W        W 2466  10.424  38.966   2.735
31867W        W 2467  44.076  25.977  13.028
31868W        W 2468  42.911  44.197  10.288
31869W        W 2469  25.738  44.525  10.594
31870W        W 2470  23.267  27.255  11.138
31871W        W 2471  16.518   9.854   1.052
31872W        W 2472  25.988   0.758  14.599
31873W        W 2473  24.660  42.088   4.861
31874W        W 2474  25.053  11.117  11.920
31875W        W 2475  20.509   3.218  14.243
31876W        W 2476   1.719  10.647  11.468
31877W        W 2477  30.021  21.016  11.699
31878W        W 2478  13.399  35.940   1.246
31879W        W 2479  11.364  14.022   1.742
31880W        W 2480  11.479  27.676  14.041
31881W        W 2481  18.252   9.089   0.728
31882W        W 2482  11.900   9.362   4.014
31883W        W 2483   7.638  25.137   1.879
31884W        W 2484  35.066  37.410   4.490
31885W        W 2485  11.221  40.811   2.195
31886W        W 2486   0.905  38.379   0.899
31887W        W 2487  23.540  42.919   2.431
31888W        W 2488   6.817   5.108   1.796
31889W        W 2489  28.520   6.880   2.391
31890W        W 2490  17.236  16.259   2.923
31891W        W 2491  36.546  43.782   2.669
31892W        W 2492   3.208  16.238   4.084
31893W        W 2493  30.441  39.360  13.776
31894W        W 2494  26.504  40.805   4.565
31895W        W 2495  33.665  19.554   1.791
31896W        W 2496   2.130   6.284  13.894
31897W        W 2497   7.960  41.953   2.117
31898W        W 2498  25.886  44.235  11.491
31899W        W 2499   6.388  15.255   2.952
31900W        W 2500   3.747  38.181  13.359
31901W        W 2501  43.541   6.310   4.631
31902W        W 2502  25.976  33.398   0.326
31903W        W 2503   0.621  17.639   0.632
31904W        W 2504  38.856  40.431   0.270
31905W        W 2505  28.544  11.086  12.726
31906W        W 2506  21.218  17.923  11.562
31907W        W 2507  26.187  28.447   1.876
31908W        W 2508  17.797   6.387  11.885
31909W        W 2509  43.937  32.933   1.312
31910W        W 2510  17.478  39.783   0.188
31911W        W 2511  31.433   7.142  10.268
31912W        W 2512   2.402   5.422   4.366
31913W        W 2513  28.584  38.464  14.271
31914W        W 2514  11.200  43.615   3.662
31915W        W 2515  35.660   0.450  12.096
31916W        W 2516  14.402  17.793  14.739
31917W        W 2517  43.546  28.967   4.227
31918W        W 2518  35.968  29.219   0.288
31919W        W 2519  14.784   9.075   2.042
31920W        W 2520  10.902   0.801  10.703
31921W        W 2521   0.451  43.674  13.261
31922W        W 2522  42.837  28.661  13.487
31923W        W 2523  42.049  42.206  13.981
31924W        W 2524  18.979   2.218   0.402
31925W        W 2525  44.867   8.354  12.838
31926W        W 2526   4.855   8.934   2.627
31927W        W 2527  22.888  23.097   4.835
31928W        W 2528  23.730  13.542  13.952
31929W        W 2529  18.436  17.653   4.589
31930W        W 2530   5.013   4.852   1.260
31931W        W 2531  38.356  18.850   9.621
31932W        W 2532  22.030  10.599   3.784
31933W        W 2533  16.272   0.476  14.446
31934W        W 2534  44.261  38.675  14.623
31935W        W 2535   2.376  10.145   2.427
31936W        W 2536  38.367  11.596  10.222
31937W        W 2537  32.843  34.385   0.921
31938W        W 2538  20.059  16.077   2.880
31939W        W 2539  27.490  19.994  13.190
31940W        W 2540  15.596  20.603  11.938
31941W        W 2541  15.875  25.903   2.260
31942W        W 2542   7.750  18.717  14.300
31943W        W 2543   6.163  19.041   2.197
31944W        W 2544  33.642  40.522  12.274
31945W        W 2545  12.497   5.708  11.767
31946W        W 2546   6.464  15.246  12.022
31947W        W 2547  10.926  11.453  13.566
31948W        W 2548  40.785  42.780   1.777
31949W        W 2549   3.944  25.029  14.520
31950W        W 2550  11.422  23.473  13.249
31951W        W 2551   9.064  36.541   0.180
31952W        W 2552   8.544  27.587   0.773
31953W        W 2553   3.916   1.633   0.911
31954W        W 2554   0.256  19.268   1.973
31955W        W 2555   8.644  19.627   3.779
31956W        W 2556  36.576  29.744  12.172
31957W        W 2557   9.542  28.894  12.501
31958W        W 2558  34.071  30.350  11.775
31959W        W 2559  26.975  23.119   0.172
31960W        W 2560   7.315  31.262   2.814
31961W        W 2561  22.117  25.694  11.890
31962W        W 2562  27.453   4.747   4.558
31963W        W 2563  42.482  12.137   4.269
31964W        W 2564  34.802  24.235   3.273
31965W        W 2565  16.602  17.539  13.050
31966W        W 2566  34.367  33.104   3.145
31967W        W 2567  31.483  25.207   2.660
31968W        W 2568  28.148  28.526  13.353
31969W        W 2569  17.539  21.180   2.303
31970W        W 2570  33.849  13.720  11.507
31971W        W 2571  43.313  41.210  11.198
31972W        W 2572  30.048  17.785   4.536
31973W        W 2573  12.310  18.208   1.740
31974W        W 2574  39.303  16.497   2.256
31975W        W 2575  36.943  16.688   4.119
31976W        W 2576   3.743  26.663  13.978
31977W        W 2577  18.635  38.371  13.916
31978W        W 2578  18.300   4.667   0.691
31979W        W 2579   8.939  16.352  10.486
31980W        W 2580   5.407  40.743   3.892
31981W        W 2581   4.740  36.406  12.813
31982W        W 2582  10.350  33.618  14.883
31983W        W 2583  27.130  29.723  14.173
31984W        W 2584  25.562  25.209   4.087
31985W        W 2585   5.228   6.857   3.683
31986W        W 2586  20.593  16.328   2.813
31987W        W 2587  37.656  43.882   4.869
31988W        W 2588  19.524   6.704  14.401
31989W        W 2589   2.690  44.715   1.834
31990W        W 2590  16.746  22.780   4.847
31991W        W 2591  10.173  38.783   4.067
31992W        W 2592   7.080  43.562  12.087
31993W        W 2593  21.125  41.762  14.115
31994W        W 2594  24.192  20.603  11.122
31995W        W 2595  18.050  12.139   3.333
31996W        W 2596  41.796  29.134   3.659
31997W        W 2597   8.741  41.126   1.044
31998W        W 2598  31.836  39.898  13.421
31999W        W 2599  39.532  12.687  12.092
32000W        W 2600  38.622  27.585   2.864
32001W        W 2601  16.492  26.326   9.767
32002W        W 2602   8.593   3.854  14.435
32003W        W 2603  30.701  16.199  11.992
32004W        W 2604  31.203   2.906  14.438
32005W        W 2605  39.289  11.815  12.437
32006W        W 2606  16.510  25.661  14.893
32007W        W 2607  20.314  38.890   1.309
32008W        W 2608  36.483  22.953   3.764
32009W        W 2609   2.873  39.853   0.564
32010W        W 2610  14.389  17.245  14.672
32011W        W 2611   2.540  19.829  10.656
32012W        W 2612  32.418  40.023   0.664
32013W        W 2613  25.452   2.232  11.406
32014W        W 2614  14.403  20.668  13.404
32015W        W 2615  10.144   0.799   1.494
32016W        W 2616  11.868  39.374  11.347
32017W        W 2617   0.030  27.186   0.845
32018W        W 2618  19.324  29.886   2.409
32019W        W 2619   7.388  34.421   3.133
32020W        W 2620  31.647  29.423  11.390
32021W        W 2621  31.573  16.203   3.622
32022W        W 2622  42.536  38.862   0.330
32023W        W 2623  43.453  19.329  10.788
32024W        W 2624  21.941   2.732  11.145
32025W        W 2625  36.844  39.392   2.995
32026W        W 2626  27.578  25.385  13.396
32027W        W 2627  11.821  40.971   2.866
32028W        W 2628  21.575  41.518   0.391
32029W        W 2629   8.891  12.163   4.670
32030W        W 2630  44.505  41.576  13.598
32031W        W 2631  35.058  30.199   0.315
32032W        W 2632   7.094  29.066  11.727
32033W        W 2633  40.534  12.531   4.604
32034W        W 2634  27.949  18.803  12.025
32035W        W 2635  20.675   0.830   3.087
32036W        W 2636  11.377  13.151   4.240
32037W        W 2637   0.012  12.060  12.141
32038W        W 2638   6.428  12.230   4.095
32039W        W 2639  44.418   3.987   0.582
32040W        W 2640  14.082   8.343   0.927
32041W        W 2641  15.537  18.079   3.709
32042W        W 2642  15.269  22.492  11.126
32043W        W 2643   6.778  16.259   4.279
32044W        W 2644   7.017  39.007   2.381
32045W        W 2645   6.430  16.321   0.806
32046W        W 2646  13.408   6.927   9.991
32047W        W 2647   7.719   5.629   1.801
32048W        W 2648  34.636   6.054   2.729
32049W        W 2649  29.414  35.579  10.613
32050W        W 2650   7.293  28.494  14.776
32051W        W 2651  43.370  33.417   1.891
32052W        W 2652  32.077  27.744  14.956
32053W        W 2653   7.791  18.736   4.151
32054W        W 2654  30.560  26.765   1.412
32055W        W 2655  31.144  25.085   1.769
32056W        W 2656  30.397  17.391  11.643
32057W        W 2657  28.066  26.385   1.668
32058W        W 2658  43.918  12.388  13.524
32059W        W 2659   7.965  27.898  12.504
32060W        W 2660  24.273  21.968  10.997
32061W        W 2661  36.561  41.995  12.784
32062W        W 2662  35.898  25.637  13.782
32063W        W 2663  18.011   5.780  10.749
32064W        W 2664  39.014   6.546  12.401
32065W        W 2665  13.371  13.243  12.147
32066W        W 2666  15.191   1.146   4.794
32067W        W 2667   4.433  10.257  11.509
32068W        W 2668  25.224  39.247   3.969
32069W        W 2669   0.354  27.594   0.820
32070W        W 2670  44.348   4.657   0.288
32071W        W 2671  26.965   4.559  14.915
32072W        W 2672   5.523  10.845  13.373
32073W        W 2673  25.489   9.498   3.322
32074W        W 2674   9.700  36.346   0.999
32075W        W 2675  14.433  15.359   3.244
32076W        W 2676  21.459  19.168  13.473
32077W        W 2677  33.498  19.282  11.671
32078W        W 2678   3.398  10.584  11.608
32079W        W 2679  28.352  12.387   4.727
32080W        W 2680  38.394  38.853   2.166
32081W        W 2681  18.133  15.099   2.842
32082W        W 2682  42.886  35.503   4.605
32083W        W 2683  36.450   9.157  14.864
32084W        W 2684  23.845  35.205   2.981
32085W        W 2685  40.753  16.665  13.088
32086W        W 2686  16.668  14.815   0.356
32087W        W 2687  25.816  13.646  13.580
32088W        W 2688  13.222  34.430   3.344
32089W        W 2689  19.051  13.493  11.989
32090W        W 2690  37.936  28.172   2.828
32091W        W 2691  10.418  43.445  11.278
32092W        W 2692  17.225  21.198  10.005
32093W        W 2693  16.229  32.920   4.131
32094W        W 2694  34.851  18.854   2.599
32095W        W 2695  22.584  39.033   0.395
32096W        W 2696  32.478  44.988  10.603
32097W        W 2697  11.120  20.988   1.286
32098W        W 2698  41.609  23.238  10.972
32099W        W 2699  27.741  41.939   1.188
32100W        W 2700  38.227  22.115   1.354
32101W        W 2701   9.592   5.613   2.752
32102W        W 2702  16.630  35.317   2.989
32103W        W 2703   1.936  39.447  11.913
32104W        W 2704  20.662  30.822   2.132
32105W        W 2705  14.600   3.274   2.321
32106W        W 2706  12.341  38.874   2.843
32107W        W 2707  16.788  43.967   0.356
32108W        W 2708  27.918  27.241  12.269
32109W        W 2709  13.699   9.319   4.299
32110W        W 2710  38.459   5.938  11.236
32111W        W 2711  44.009  36.951  11.995
32112W        W 2712  10.156  14.331  12.965
32113W        W 2713  43.449  26.095  12.999
32114W        W 2714  20.060   9.067   4.556
32115W        W 2715   9.688  22.739  11.919
32116W        W 2716  30.710  17.214  10.856
32117W        W 2717  33.001  37.417   0.948
32118W        W 2718  36.647  40.508   0.768
32119W        W 2719  15.093  20.814   0.301
32120W        W 2720  12.802  30.329   2.373
32121W        W 2721  44.814  21.753   3.324
32122W        W 2722   8.798  30.369   0.690
32123W        W 2723  27.112   3.147   1.151
32124W        W 2724   7.850  35.837   2.787
32125W        W 2725  21.637  31.051  11.375
32126W        W 2726  24.507  22.784  14.700
32127W        W 2727  11.660   4.035  13.767
32128W        W 2728   3.835  37.657  13.391
32129W        W 2729  13.048  42.975  11.419
32130W        W 2730  32.385  14.375   5.006
32131W        W 2731  35.533  32.368  14.813
32132W        W 2732  29.953   6.809  12.129
32133W        W 2733  43.382   5.885  14.344
32134W        W 2734  39.829  19.178   3.539
32135W        W 2735  34.928  12.578  10.356
32136W        W 2736   1.437   6.351  10.940
32137W        W 2737  38.495  35.504   3.154
32138W        W 2738  15.079  41.436   3.735
32139W        W 2739  19.155  20.965  11.172
32140W        W 2740   3.674  33.646   0.697
32141W        W 2741  43.694  14.885   3.091
32142W        W 2742  22.223   5.897  13.910
32143W        W 2743  10.095  23.005   2.055
32144W        W 2744  14.908  11.699   5.459
32145W        W 2745  12.268  21.694  11.547
32146W        W 2746  36.024  44.890  14.314
32147W        W 2747   7.209  21.680   1.845
32148W        W 2748  28.150  15.116   1.831
32149W        W 2749  28.755  40.910  12.441
32150W        W 2750  10.590  40.400  10.718
32151W        W 2751   4.317  19.583  14.297
32152W        W 2752  35.193  11.126  13.085
32153W        W 2753  16.907  18.134   3.175
32154W        W 2754  19.614  39.808   4.187
32155W        W 2755   9.311  10.642   4.150
32156W        W 2756  43.901  34.370  11.386
32157W        W 2757  32.547  37.966  13.341
32158W        W 2758  37.882  44.456  10.424
32159W        W 2759   8.864  29.098   3.676
32160W        W 2760  14.769  43.997   3.577
32161W        W 2761  17.011  21.964   1.019
32162W        W 2762  30.471   1.753   1.040
32163W        W 2763  34.457  34.415  11.984
32164W        W 2764  23.255   9.419  14.889
32165W        W 2765  22.967  25.563   0.722
32166W        W 2766   4.614   4.272   1.828
32167W        W 2767  17.759  44.874  10.660
32168W        W 2768   3.478  13.288  14.191
32169W        W 2769  37.920  38.376   3.119
32170W        W 2770  22.509  10.449  12.570
32171W        W 2771  10.923  25.242  12.205
32172W        W 2772  11.146  18.231   4.137
32173W        W 2773  18.249   9.703   1.827
32174W        W 2774   5.124   5.444   2.153
32175W        W 2775  43.902  27.216  13.336
32176W        W 2776  27.259  41.776   1.306
32177W        W 2777  37.022  29.495   3.182
32178W        W 2778  10.473   2.842   2.739
32179W        W 2779   8.924  26.197  11.409
32180W        W 2780   4.886   9.263  11.564
32181W        W 2781  44.381   3.162  14.798
32182W        W 2782  34.016  32.907  13.972
32183W        W 2783   0.074  20.190  12.876
32184W        W 2784  28.222  13.341   0.511
32185W        W 2785  32.595  44.732   4.216
32186W        W 2786  30.395   7.213  11.485
32187W        W 2787  43.322  39.259  11.420
32188W        W 2788  14.333   4.556   3.229
32189W        W 2789  44.190  12.284  14.902
32190W        W 2790  41.642  31.075   4.700
32191W        W 2791  26.589  26.277   1.218
32192W        W 2792  36.497  33.483   4.606
32193W        W 2793  22.420  11.741   1.231
32194W        W 2794  44.758  17.483  12.458
32195W        W 2795  22.766  39.157   0.985
32196W        W 2796   6.362  20.180   4.081
32197W        W 2797  26.730  39.100  12.940
32198W        W 2798   8.800  20.778  10.210
32199W        W 2799  11.312  20.639  12.628
32200W        W 2800  30.161   4.256   2.900
32201W        W 2801  36.944   4.677  13.103
32202W        W 2802  22.669  20.631  11.475
32203W        W 2803  22.655   6.451  11.967
32204W        W 2804   0.961  14.283   3.732
32205W        W 2805  18.805  20.198  14.966
32206W        W 2806  10.221   5.949   3.755
32207W        W 2807  12.892   3.924  12.390
32208W        W 2808  36.509  39.462   5.013
32209W        W 2809  17.204   6.056   0.756
32210W        W 2810  30.457  32.662   3.208
32211W        W 2811  37.538   9.359   0.165
32212W        W 2812   3.271  30.882   4.635
32213W        W 2813  28.292  29.657  10.309
32214W        W 2814   7.209   1.540   2.285
32215W        W 2815   5.298  44.825   2.923
32216W        W 2816  37.209  36.593   4.551
32217W        W 2817  43.479  39.053  10.859
32218W        W 2818  43.071   7.804  14.361
32219W        W 2819  30.976  44.522   3.171
32220W        W 2820   8.785   4.341   0.812
32221W        W 2821  27.116   7.316  13.974
32222W        W 2822  18.696  16.330  11.684
32223W        W 2823   7.175  31.514  13.065
32224W        W 2824  13.944  20.175   2.962
32225W        W 2825  42.322  23.812   2.852
32226W        W 2826  43.037   0.798   4.178
32227W        W 2827  24.690   2.193   2.963
32228W        W 2828  38.970   1.412   1.015
32229W        W 2829  43.205  23.071   2.099
32230W        W 2830  14.607   4.317   2.246
32231W        W 2831   8.652   8.295   3.648
32232W        W 2832  24.345   4.172   4.115
32233W        W 2833  36.946  15.216   2.737
32234W        W 2834   8.461  30.671  11.054
32235W        W 2835  35.971  10.363   3.691
32236W        W 2836   4.365   0.788   1.868
32237W        W 2837  32.861  10.457  10.714
32238W        W 2838   9.188   5.271   2.768
32239W        W 2839  10.816  41.364  14.536
32240W        W 2840  28.236  19.803  14.307
32241W        W 2841  20.367  35.440   2.331
32242W        W 2842  42.096  27.594   3.660
32243W        W 2843  36.030  39.355   1.119
32244W        W 2844  20.159  12.232  13.814
32245W        W 2845  33.068  24.977  14.942
32246W        W 2846   8.890  36.836   2.360
32247W        W 2847  12.081  31.533   1.435
32248W        W 2848   3.009  34.932   0.516
32249W        W 2849   4.659  13.878  14.039
32250W        W 2850  22.603  13.138   1.478
32251W        W 2851  17.601   8.179  14.513
32252W        W 2852  15.216  12.932  14.027
32253W        W 2853  43.105  27.709  11.948
32254W        W 2854  38.834  30.131   3.305
32255W        W 2855   5.808  11.637  10.868
32256W        W 2856  16.348   6.139  13.520
32257W        W 2857   2.265   0.579   4.162
32258W        W 2858  14.813  38.830  12.641
32259W        W 2859  28.743  25.340   3.229
32260W        W 2860   8.190  27.517  12.893
32261W        W 2861  19.070   8.324   4.581
32262W        W 2862  21.634  25.191  13.922
32263W        W 2863  44.376  10.845  12.552
32264W        W 2864   0.879  38.653  10.657
32265W        W 2865  12.853  32.615  14.772
32266W        W 2866  27.817  40.553   3.607
32267W        W 2867  16.501   2.350   2.278
32268W        W 2868   8.731  40.741   2.830
32269W        W 2869  15.673  10.848   3.677
32270W        W 2870  37.428  43.356   0.252
32271W        W 2871  35.891  43.410   4.720
32272W        W 2872  23.155   9.721   3.802
32273W        W 2873  22.597  39.446   3.699
32274W        W 2874  22.088  40.925  12.548
32275W        W 2875  35.548  43.734   2.307
32276W        W 2876   7.601   5.835  14.984
32277W        W 2877  22.793  19.382  10.086
32278W        W 2878  13.324  12.708  14.802
32279W        W 2879   1.095   6.841  14.267
32280W        W 2880   0.900  38.669   2.753
32281W        W 2881   8.150  31.626   4.498
32282W        W 2882  33.506  39.457   3.711
32283W        W 2883  26.942  26.098   0.068
32284W        W 2884  20.616  32.252   0.423
32285W        W 2885  28.424  25.673   3.544
32286W        W 2886  29.085  44.019  13.992
32287W        W 2887  15.999  43.871   1.830
32288W        W 2888  22.199  33.426   3.168
32289W        W 2889  21.262  26.208   3.275
32290W        W 2890   8.826  20.497  13.366
32291W        W 2891  44.549  20.245  13.095
32292W        W 2892  30.495  33.549   3.034
32293W        W 2893   1.696   7.651   4.094
32294W        W 2894   9.775  30.072  12.080
32295W        W 2895  26.918  27.446   3.162
32296W        W 2896  39.074  23.260   1.656
32297W        W 2897  29.055  44.584   0.892
32298W        W 2898  11.911  33.014  10.218
32299W        W 2899   7.668  35.179   3.945
32300W        W 2900  20.044  35.121  10.905
32301W        W 2901  39.432  29.936  11.259
32302W        W 2902  41.364  35.457   3.929
32303W        W 2903  21.721  26.745  11.028
32304W        W 2904  37.343  42.980  12.074
32305W        W 2905  21.142  29.951   3.918
32306W        W 2906  20.539  30.160   2.617
32307W        W 2907  14.396  20.882   4.069
32308W        W 2908  35.035  13.317   4.573
32309W        W 2909   9.413  36.084  14.283
32310W        W 2910  27.030  21.516   2.804
32311W        W 2911  16.197  24.829  12.184
32312W        W 2912   6.251  40.113   2.309
32313W        W 2913  44.444  12.774  12.038
32314W        W 2914   5.438   2.839  14.284
32315W        W 2915  36.031  12.133  10.737
32316W        W 2916   7.411  33.538  11.735
32317W        W 2917   5.665   0.272  12.953
32318W        W 2918  35.987  21.106  11.064
32319W        W 2919  21.139  38.648   1.732
32320W        W 2920  40.958  22.950  14.645
32321W        W 2921  14.215  33.922  10.314
32322W        W 2922  15.334  22.757  10.677
32323W        W 2923  40.454  29.339   3.186
32324W        W 2924  28.622  25.170  12.023
32325W        W 2925  21.918   7.530  12.902
32326W        W 2926   0.353  28.166  11.669
32327W        W 2927  17.320  36.663  10.205
32328W        W 2928   2.825   9.848   2.447
32329W        W 2929   5.316   8.391  10.789
32330W        W 2930  25.927   9.209  13.411
32331W        W 2931  42.772  20.227   3.202
32332W        W 2932   1.324  29.973  11.670
32333W        W 2933  18.997  35.928   1.126
32334W        W 2934  31.934  10.080  10.589
32335W        W 2935   8.655  22.718  13.012
32336W        W 2936  42.805  16.535  11.931
32337W        W 2937   5.456  40.229   3.990
32338W        W 2938   9.920  23.255   0.415
32339W        W 2939  24.667  33.395   1.718
32340W        W 2940  42.018   3.389  13.578
32341W        W 2941  19.407  33.132  10.676
32342W        W 2942  33.980   4.910  11.244
32343W        W 2943  30.546   2.724   2.544
32344W        W 2944  17.145  36.357  11.258
32345W        W 2945  37.072  12.253   2.799
32346W        W 2946  19.836   0.754   0.786
32347W        W 2947  18.415  42.830  12.462
32348W        W 2948  30.038  13.637  12.179
32349W        W 2949  26.536  13.130   0.655
32350W        W 2950  25.201   9.025   1.267
32351W        W 2951  17.843  10.360   3.224
32352W        W 2952  43.478  32.413  14.391
32353W        W 2953  23.758   0.332   0.565
32354W        W 2954   8.711  22.998   3.176
32355W        W 2955  19.030   3.785  14.846
32356W        W 2956   7.350   6.193  11.447
32357W        W 2957  38.689   8.828  11.619
32358W        W 2958   5.350  29.886   0.421
32359W        W 2959  39.215  24.657  11.007
32360W        W 2960   1.528  24.725   4.573
32361W        W 2961  10.528  33.531  12.533
32362W        W 2962   4.806  22.114   1.222
32363W        W 2963  40.148  34.231   2.044
32364W        W 2964  21.498   1.774   1.507
32365W        W 2965   8.004   4.853  10.799
32366W        W 2966  11.874  24.239  10.788
32367W        W 2967  14.561  43.758   2.629
32368W        W 2968  21.474  28.974   1.193
32369W        W 2969  36.995  17.797   0.231
32370W        W 2970  39.458   2.529  11.581
32371W        W 2971   1.915   5.378   4.287
32372W        W 2972  24.146  13.897  12.580
32373W        W 2973  38.270  32.685   0.385
32374W        W 2974  35.925  37.345   0.499
32375W        W 2975  22.019   4.212  10.692
32376W        W 2976  33.826  26.807   1.408
32377W        W 2977  37.917   0.622   0.811
32378W        W 2978  43.153  33.902  12.947
32379W        W 2979  39.182  27.603  12.939
32380W        W 2980  10.425  13.219   1.218
32381W        W 2981   1.111  43.028  13.818
32382W        W 2982   6.677  43.158  11.217
32383W        W 2983  13.913   3.427  13.782
32384W        W 2984  24.179  30.062  14.985
32385W        W 2985  21.298  27.028   1.327
32386W        W 2986  44.773  41.516   4.181
32387W        W 2987   2.032  43.444   3.738
32388W        W 2988  24.571  40.430   1.383
32389W        W 2989  39.379  44.773  12.536
32390W        W 2990  19.347  18.536   1.897
32391W        W 2991  18.108   1.387   1.295
32392W        W 2992   6.094  34.921   1.226
32393W        W 2993  27.131  22.418   3.368
32394W        W 2994  15.041  25.608  13.460
32395W        W 2995   6.156  19.395  12.952
32396W        W 2996   3.530   1.677  14.061
32397W        W 2997   0.744  27.924  12.562
32398W        W 2998   8.866   6.343  11.552
32399W        W 2999  27.192  14.017  14.107
32400W        W 3000  27.540  41.799   0.254
32401W        W 3001  16.111  19.634   3.119
32402W        W 3002   2.312   7.089  12.965
32403W        W 3003   6.722  24.299   2.394
32404W        W 3004  17.581  13.884  12.558
32405W        W 3005   9.709  11.779  12.561
32406W        W 3006  38.472   4.729  10.440
32407W        W 3007  11.229  32.984  14.172
32408W        W 3008   2.949  41.830   1.441
32409W        W 3009  37.329   7.793   4.662
32410W        W 3010   4.669  10.368  12.393
32411W        W 3011   2.253  21.400  13.471
32412W        W 3012  33.814  27.650   3.148
32413W        W 3013  44.469  15.647   1.425
32414W        W 3014   0.647   0.212   1.221
32415W        W 3015  30.927  35.604  13.994
32416W        W 3016  41.503  24.307   3.864
32417W        W 3017  40.890  10.648  11.255
32418W        W 3018  33.851  15.133  12.036
32419W        W 3019  13.453  14.942   1.563
32420W        W 3020  28.231  28.697   0.303
32421W        W 3021  17.569   2.013   2.730
32422W        W 3022  38.845  38.849  10.861
32423W        W 3023  40.920  40.578  14.953
32424W        W 3024  17.776  36.378   1.260
32425W        W 3025  10.024   8.615  12.406
32426W        W 3026  18.843  18.185  10.777
32427W        W 3027   6.538  31.135   1.989
32428W        W 3028  26.528  22.201   1.673
32429W        W 3029  21.528  34.496   0.808
32430W        W 3030  10.799  21.709  10.652
32431W        W 3031   5.693  26.965   3.167
32432W        W 3032  40.457  21.151   2.336
32433W        W 3033  42.783  28.960  14.850
32434W        W 3034  21.265  22.932  12.047
32435W        W 3035   5.994  13.766   4.721
32436W        W 3036  13.143   7.409  11.100
32437W        W 3037  40.964   6.710   4.214
32438W        W 3038  29.040  16.689  10.641
32439W        W 3039  14.277   6.399   4.557
32440W        W 3040  41.960  12.141  11.641
32441W        W 3041  29.462   6.238  11.631
32442W        W 3042  24.875  12.985   4.336
32443W        W 3043  32.041  24.535  11.667
32444W        W 3044  28.058  19.615   0.615
32445W        W 3045  22.549  33.976   0.242
32446W        W 3046   6.342  16.571   0.355
32447W        W 3047  23.405  17.352  11.398
32448W        W 3048  38.249  41.800   4.611
32449W        W 3049  27.104  10.473   3.059
32450W        W 3050   8.224  38.258  14.789
32451W        W 3051  37.515   6.229  12.290
32452W        W 3052   5.844  41.515   3.726
32453W        W 3053  24.626   0.569   9.913
32454W        W 3054   7.740   2.771   3.589
32455W        W 3055  37.884  21.825   3.274
32456W        W 3056  34.352   9.185   0.522
32457W        W 3057  41.492  10.440  12.521
32458W        W 3058   4.277  23.952   0.758
32459W        W 3059  15.417   0.318   0.509
32460W        W 3060   8.191  15.727  13.242
32461W        W 3061   3.437  31.970   2.360
32462W        W 3062  34.418   4.275  14.909
32463W        W 3063   8.287  24.584  10.490
32464W        W 3064  25.871  16.995  11.986
32465W        W 3065  32.966  13.658   4.102
32466W        W 3066  14.703   1.102   5.362
32467W        W 3067   0.325  21.703   0.077
32468W        W 3068   9.563  30.697   2.306
32469W        W 3069   8.677  23.644   0.900
32470W        W 3070  24.237  21.748   0.559
32471W        W 3071   3.880  14.519   3.412
32472W        W 3072   0.925  37.711  13.917
32473W        W 3073  16.258  22.246   0.004
32474W        W 3074  11.786  36.350   0.326
32475W        W 3075  36.515  28.401  10.930
32476W        W 3076  25.454  25.157  11.546
32477W        W 3077  44.722   0.089  10.462
32478W        W 3078  36.369  35.311   2.385
32479W        W 3079   6.729  10.737   0.531
32480W        W 3080   6.002  42.693  10.010
32481W        W 3081  43.046  11.279  11.498
32482W        W 3082  26.593  31.955   0.901
32483W        W 3083  12.249  30.976  11.579
32484W        W 3084   6.936  20.100  14.844
32485W        W 3085  31.574  18.511  11.667
32486W        W 3086  19.572  31.581   3.754
32487W        W 3087   7.412  21.274   0.061
32488W        W 3088  33.450  38.947  14.674
32489W        W 3089   9.886  34.204   1.062
32490W        W 3090   7.935   9.442  13.037
32491W        W 3091  41.319  18.281  11.490
32492W        W 3092  28.419  32.171  10.402
32493W        W 3093   7.408   5.653   1.364
32494W        W 3094  35.635  44.471   0.943
32495W        W 3095  23.914  13.029   4.284
32496W        W 3096   3.150  21.166   4.485
32497W        W 3097  14.123  32.944  12.712
32498W        W 3098   9.707   0.590   1.269
32499W        W 3099  43.469  29.686  14.997
32500W        W 3100  38.986  15.632   9.823
32501W        W 3101  30.935  16.570   1.693
32502W        W 3102   2.802   5.820   2.708
32503W        W 3103   9.503   6.890   1.456
32504W        W 3104  42.331   2.839   1.156
32505W        W 3105   2.546   2.025  14.017
32506W        W 3106   7.059   7.734   3.381
32507W        W 3107   6.596  24.735   4.997
32508W        W 3108  18.990  41.442   4.040
32509W        W 3109  18.750  12.281   2.644
32510W        W 3110  11.874  20.121   0.871
32511W        W 3111  20.152  35.857   1.166
32512W        W 3112  39.388   8.957  12.504
32513W        W 3113  40.578  11.339  14.861
32514W        W 3114  34.998  27.447   0.825
32515W        W 3115  36.101  20.079  14.031
32516W        W 3116   3.369  24.779   4.061
32517W        W 3117  38.844  30.555  14.481
32518W        W 3118   1.909  16.306   2.592
32519W        W 3119  13.462  26.008  13.135
32520W        W 3120  18.699  27.324   4.776
32521W        W 3121  30.735  35.784   3.633
32522W        W 3122   6.273  39.795  12.452
32523W        W 3123  27.642  17.800  14.062
32524W        W 3124  31.812  21.691   2.912
32525W        W 3125  20.838  38.565  12.113
32526W        W 3126  10.599  22.538   3.211
32527W        W 3127   6.399  34.938   3.782
32528W        W 3128  34.000   7.579   4.038
32529W        W 3129  35.984  20.902   2.844
32530W        W 3130  27.066   7.366  14.957
32531W        W 3131  12.452  22.032   3.288
32532W        W 3132  36.778  19.520  12.519
32533W        W 3133  27.822   5.208  10.378
32534W        W 3134   6.868   7.150   1.893
32535W        W 3135  29.535  42.781  13.806
32536W        W 3136   0.842   0.038  10.569
32537W        W 3137  40.101  36.969   3.690
32538W        W 3138  10.090  20.117   3.693
32539W        W 3139  33.133  23.156  14.793
32540W        W 3140  36.332  31.819   4.018
32541W        W 3141  14.308  13.225  12.315
32542W        W 3142   4.329  19.777  10.389
32543W        W 3143  28.219  16.827  12.782
32544W        W 3144  43.742  38.629   4.102
32545W        W 3145  41.726  26.664  11.160
32546W        W 3146  38.892  33.958  10.894
32547W        W 3147  43.833  10.431   0.466
32548W        W 3148  15.645  34.029  13.143
32549W        W 3149  28.907   5.053   2.259
32550W        W 3150  28.089  24.298   2.317
32551W        W 3151  15.829  31.098   3.213
32552W        W 3152  22.969   5.362  12.850
32553W        W 3153   3.720  39.860  11.885
32554W        W 3154  28.635  34.559  14.444
32555W        W 3155  19.047   2.159  13.398
32556W        W 3156   7.443  14.730   4.250
32557W        W 3157  36.853  24.664   4.493
32558W        W 3158   4.614  44.392   4.113
32559W        W 3159  24.098  22.539  14.462
32560W        W 3160   7.462  24.966   4.821
32561W        W 3161  39.718  28.643  13.548
32562W        W 3162  28.190  27.657  12.418
32563W        W 3163  28.654   7.117  12.175
32564W        W 3164   0.112  13.725  13.365
32565W        W 3165  40.402  28.977   0.286
32566W        W 3166   2.186  12.740  12.612
32567W        W 3167  35.305  22.599  14.927
32568W        W 3168  35.046  29.045   0.876
32569W        W 3169  34.702  20.223   3.114
32570W        W 3170  37.084  44.849  13.056
32571W        W 3171   4.573  28.750   5.063
32572W        W 3172  42.374  36.875  11.424
32573W        W 3173  13.140   5.744   3.937
32574W        W 3174  16.012  15.596   4.962
32575W        W 3175  28.637  19.631   3.594
32576W        W 3176  11.772  36.979  11.601
32577W        W 3177  20.296  36.504  14.531
32578W        W 3178   0.168  28.219  11.202
32579W        W 3179  11.625   0.099   2.114
32580W        W 3180  11.536  35.910  10.409
32581W        W 3181   5.211  32.199   2.799
32582W        W 3182  26.563  37.410  10.687
32583W        W 3183  11.184  17.654  13.321
32584W        W 3184   8.748  22.541  14.507
32585W        W 3185  23.939  38.745  12.253
32586W        W 3186  15.251   8.056  11.696
32587W        W 3187  26.384  27.347  12.089
32588W        W 3188  39.494   1.025  10.704
32589W        W 3189  11.815  44.335  14.294
32590W        W 3190   2.340  11.781   3.801
32591W        W 3191  32.589  27.627  10.525
32592W        W 3192  40.261   5.262   1.032
32593W        W 3193  35.535  20.517  13.539
32594W        W 3194  36.565  26.517  10.828
32595W        W 3195   0.773  40.882  12.814
32596W        W 3196  41.211   6.350   3.024
32597W        W 3197  23.720   9.208  14.911
32598W        W 3198  32.257  16.695  12.467
32599W        W 3199  36.843  40.501  10.788
32600W        W 3200  19.197  44.891   2.809
32601W        W 3201  12.327   7.179  12.383
32602W        W 3202  32.096  24.629   0.432
32603W        W 3203   5.500  37.128  11.934
32604W        W 3204   4.109  11.003  11.079
32605W        W 3205  13.743  18.438  13.483
32606W        W 3206   1.324  44.920  14.744
32607W        W 3207  22.976  43.728   1.023
32608W        W 3208   6.697   0.887   0.714
32609W        W 3209   3.318  22.257  13.969
32610W        W 3210   7.359  30.660   0.414
32611W        W 3211  18.737  22.031  11.990
32612W        W 3212  21.890  37.039   4.964
32613W        W 3213  21.871  19.654   4.537
32614W        W 3214  26.022  37.138   2.108
32615W        W 3215  19.462  34.421   0.822
32616W        W 3216   3.760  23.446  14.419
32617W        W 3217  15.596  40.105  14.902
32618W        W 3218  16.849  22.405  13.227
32619W        W 3219  38.044   8.384  10.679
32620W        W 3220   4.737  41.455   0.270
32621W        W 3221  29.441   6.754  12.888
32622W        W 3222  38.928  10.340   4.993
32623W        W 3223  37.381  39.945  13.858
32624W        W 3224  10.207  39.826  12.519
32625W        W 3225  13.780   4.737  13.454
32626W        W 3226  31.521  40.643  14.334
32627W        W 3227  39.291  33.851  12.873
32628W        W 3228   9.849  14.598   3.625
32629W        W 3229  12.638  14.827   3.560
32630W        W 3230  28.912   9.690  11.130
32631W        W 3231  13.912  27.905   0.791
32632W        W 3232  24.873  16.116   3.341
32633W        W 3233  21.517  11.782   4.835
32634W        W 3234  21.523   7.298  13.834
32635W        W 3235  25.061   1.011   1.676
32636W        W 3236  26.051  44.834   3.309
32637W        W 3237  37.133  26.403  11.911
32638W        W 3238  12.358   7.158   3.254
32639W        W 3239  42.413  44.737   4.296
32640W        W 3240  19.075  33.031   0.969
32641W        W 3241  24.469   7.376   3.852
32642W        W 3242  27.203  30.198  13.394
32643W        W 3243  26.487  32.678  12.389
32644W        W 3244  15.603  35.331   0.051
32645W        W 3245  18.067  41.384  13.845
32646W        W 3246   3.840   2.658   4.735
32647W        W 3247   9.054  42.021  11.118
32648W        W 3248  42.406  39.510   0.063
32649W        W 3249  21.480  36.029  11.203
32650W        W 3250   9.226  15.961  10.702
32651W        W 3251   6.166  37.597  13.375
32652W        W 3252   8.151   3.391   0.278
32653W        W 3253  28.125  31.068  13.926
32654W        W 3254  26.556  44.898   3.241
32655W        W 3255  21.589  34.058   4.100
32656W        W 3256   2.274  11.248   0.259
32657W        W 3257  18.537   1.964   0.203
32658W        W 3258  37.766  30.462   0.405
32659W        W 3259  42.559  36.856  13.364
32660W        W 3260  41.584  28.962  14.486
32661W        W 3261  41.797  15.916  12.394
32662W        W 3262  14.753  40.220  10.759
32663W        W 3263  16.561   4.414   3.661
32664W        W 3264  27.251  30.909  13.363
32665W        W 3265  35.939  42.673   2.925
32666W        W 3266   9.448  40.345  12.472
32667W        W 3267  20.013  10.790   4.599
32668W        W 3268  15.884   1.233  12.847
32669W        W 3269  32.266  12.316   4.228
32670W        W 3270   6.686  39.518   3.718
32671W        W 3271  29.069   5.110   2.742
32672W        W 3272   9.290   9.953  10.564
32673W        W 3273  27.541   6.220  12.878
32674W        W 3274  41.239  26.580   3.789
32675W        W 3275  24.788  32.014  14.187
32676W        W 3276  26.057  21.685   0.854
32677W        W 3277  24.154  29.391  13.499
32678W        W 3278  26.232  42.015  11.055
32679W        W 3279  15.299  30.507  14.852
32680W        W 3280  20.164  27.957   0.483
32681W        W 3281   0.991  15.698   0.424
32682W        W 3282  24.034  10.705  12.876
32683W        W 3283   5.915  37.875   1.336
32684W        W 3284   6.935  39.738  11.146
32685W        W 3285  36.146   5.884  10.530
32686W        W 3286  13.822  10.101  12.886
32687W        W 3287   4.461  28.472   4.222
32688W        W 3288   8.506  35.461   4.605
32689W        W 3289  41.094  35.512  11.137
32690W        W 3290   2.386  29.364   2.634
32691W        W 3291  39.802  44.928   4.097
32692W        W 3292  15.769  37.691   1.046
32693W        W 3293   7.084  21.741  14.211
32694W        W 3294   4.744  33.807   3.259
32695W        W 3295  36.275  10.670  10.667
32696W        W 3296  30.037  28.643  12.092
32697W        W 3297  27.809  32.999   2.309
32698W        W 3298  11.209  39.953  11.429
32699W        W 3299  14.612  12.975  11.984
32700W        W 3300  28.227  12.681  14.356
32701W        W 3301  31.077  27.073  14.437
32702W        W 3302  37.028  42.731   4.652
32703W        W 3303  34.859  19.218  12.506
32704W        W 3304   5.509  24.772   2.667
32705W        W 3305  15.845  25.129  11.460
32706W        W 3306   0.265  40.793   1.980
32707W        W 3307  40.841  22.608   0.960
32708W        W 3308  15.050   4.649  12.227
32709W        W 3309  23.410  19.698   0.808
32710W        W 3310  34.965  17.801   1.108
32711W        W 3311   1.402   4.862  13.094
32712W        W 3312  42.520  13.661   1.896
32713W        W 3313   4.913  13.249  12.949
32714W        W 3314  16.690  15.663  13.454
32715W        W 3315  37.635  27.389   0.805
32716W        W 3316  24.080  13.500   1.171
32717W        W 3317  28.253   2.933   4.013
32718W        W 3318  39.770  11.153   3.292
32719W        W 3319  29.000  13.553  10.850
32720W        W 3320  36.352  12.531  13.317
32721W        W 3321   2.792  26.554   0.787
32722W        W 3322  43.730   6.318   4.149
32723W        W 3323  12.290  34.424  11.205
32724W        W 3324  34.668  43.112  12.959
32725W        W 3325  12.210  11.582   4.328
32726W        W 3326  36.578   6.456   2.717
32727W        W 3327  30.374  20.496   4.349
32728W        W 3328   7.970   2.035   0.543
32729W        W 3329  40.875  19.582  11.612
32730W        W 3330  12.648   9.292   2.927
32731W        W 3331  19.610  24.105  12.556
32732W        W 3332   7.183   9.079  14.686
32733W        W 3333   3.779  13.393   0.133
32734W        W 3334  43.976   0.410  11.514
32735W        W 3335  38.533   6.826  14.996
32736W        W 3336  31.040  18.222  10.748
32737W        W 3337  12.641   8.391  14.908
32738W        W 3338  34.711  22.574  11.147
32739W        W 3339  41.902  42.417   0.829
32740W        W 3340  37.980  20.221   1.785
32741W        W 3341  16.755  41.062   0.755
32742W        W 3342  29.259  11.865  11.180
32743W        W 3343  25.958  10.796   1.462
32744W        W 3344  12.110   0.274  11.964
32745W        W 3345  21.188  40.503   5.134
32746W        W 3346   7.110   0.059  13.387
32747W        W 3347   7.864  34.260  13.975
32748W        W 3348  31.088  13.450   3.386
32749W        W 3349   3.421  11.325   3.292
32750W        W 3350   7.096   2.502  11.674
32751W        W 3351  15.648  15.638   1.378
32752W        W 3352  15.320  32.515   4.060
32753W        W 3353   1.373  23.227   0.967
32754W        W 3354  25.877   6.600  12.354
32755W        W 3355  44.530  25.235   0.436
32756W        W 3356   4.442  40.008   3.278
32757W        W 3357   9.175  18.469   1.588
32758W        W 3358  44.590  26.243  11.998
32759W        W 3359  17.509  31.653  11.989
32760W        W 3360  12.798  24.015  13.489
32761W        W 3361   4.418   9.713   0.748
32762W        W 3362  29.674  42.033   4.466
32763W        W 3363  32.128  10.581   4.855
32764W        W 3364  33.159   4.590  10.703
32765W        W 3365  26.783  44.083   0.006
32766W        W 3366   4.297  20.252   2.858
32767W        W 3367  41.968  12.655   1.219
32768W        W 3368  27.666  11.595  13.818
32769W        W 3369  12.069   9.800  11.561
32770W        W 3370  15.228  37.490  14.451
32771W        W 3371   9.183   2.323   2.077
32772W        W 3372  41.507  21.981  12.562
32773W        W 3373   5.897   1.184   0.180
32774W        W 3374  41.393  32.552  12.003
32775W        W 3375  31.488  13.858  13.899
32776W        W 3376   1.014   6.780  12.031
32777W        W 3377   3.949   0.813   1.269
32778W        W 3378   9.839  19.562  11.432
32779W        W 3379  23.676  24.730  14.700
32780W        W 3380   4.375  22.357   1.989
32781W        W 3381  29.077  36.087  14.344
32782W        W 3382  16.715  40.752  12.960
32783W        W 3383  17.263  39.975  13.009
32784W        W 3384  18.096  13.873   0.547
32785W        W 3385  34.278   7.278   0.956
32786W        W 3386   3.776   9.242  10.930
32787W        W 3387  19.016  30.381  14.813
32788W        W 3388   7.204  12.026  11.899
32789W        W 3389  22.652   2.732  14.396
32790W        W 3390  20.562  32.570   3.743
32791W        W 3391  14.181  43.041   1.755
32792W        W 3392   5.223  39.781  13.886
32793W        W 3393  21.339   5.935  13.400
32794W        W 3394  27.581   1.717  13.552
32795W        W 3395  39.843  28.986  13.978
32796W        W 3396   8.946  30.614  10.780
32797W        W 3397  20.146  10.861  11.705
32798W        W 3398  31.491  17.065   1.375
32799W        W 3399  21.584  23.816   0.926
32800W        W 3400  32.962  28.282  11.074
32801W        W 3401  13.615  32.571   1.322
32802W        W 3402  12.094  26.008  12.780
32803W        W 3403  18.281  35.584  12.897
32804W        W 3404  16.698  28.201   2.921
32805W        W 3405  22.739  26.167  12.071
32806W        W 3406  22.716  20.998   4.119
32807W        W 3407  42.017  16.777  11.218
32808W        W 3408  30.936  22.549   4.888
32809W        W 3409  11.724  35.402  13.137
32810W        W 3410   2.676  21.450   1.313
32811W        W 3411   6.493  25.995   3.947
32812W        W 3412   3.826  10.738   3.636
32813W        W 3413  18.529   8.928   9.952
32814W        W 3414  38.023   8.394   2.656
32815W        W 3415  33.903  16.655  13.687
32816W        W 3416  39.947  44.766   1.897
32817W        W 3417   5.720  23.048  11.557
32818W        W 3418  25.997  40.897  11.533
32819W        W 3419   2.983  17.395  14.279
32820W        W 3420   0.476  27.442  10.937
32821W        W 3421  25.620  26.577   3.891
32822W        W 3422  34.636   4.378   3.300
32823W        W 3423  23.970  29.431   3.257
32824W        W 3424   5.334   8.845   2.810
32825W        W 3425  20.002   2.249  13.558
32826W        W 3426  14.150  36.604   2.623
32827W        W 3427  42.318  11.035   0.497
32828W        W 3428  11.636  43.789   0.830
32829W        W 3429  41.945   8.617  14.317
32830W        W 3430   6.102  31.954  10.325
32831W        W 3431  33.458   8.826   1.922
32832W        W 3432   9.395  14.230  13.990
32833W        W 3433  26.060  38.537  11.757
32834W        W 3434  32.005  30.430  13.125
32835W        W 3435  28.845  26.111   2.243
32836W        W 3436  39.387  38.030  10.599
32837W        W 3437  19.333  11.023  11.605
32838W        W 3438  32.871  42.893   2.296
32839W        W 3439  13.878  32.073   0.022
32840W        W 3440  40.499  27.664  10.438
32841W        W 3441  18.404  28.032  11.086
32842W        W 3442  43.475  17.700   0.827
32843W        W 3443  35.756  26.578   3.601
32844W        W 3444   0.465  26.828   4.185
32845W        W 3445   1.340   2.462  10.653
32846W        W 3446  15.871  29.070  10.319
32847W        W 3447  21.208  32.152   1.204
32848W        W 3448  41.780   4.955  11.396
32849W        W 3449   7.221   8.497  12.387
32850W        W 3450   7.144  30.901  14.276
32851W        W 3451  18.785  26.675  10.426
32852W        W 3452  29.177  11.791   2.803
32853W        W 3453  41.912  38.076  11.864
32854W        W 3454  26.390  38.017  11.463
32855W        W 3455  40.040  27.978   0.864
32856W        W 3456  37.345  32.749   3.587
32857W        W 3457  44.276  40.639  14.735
32858W        W 3458  40.453  33.960   2.329
32859W        W 3459  42.329  16.826   3.330
32860W        W 3460   1.004  38.415  11.986
32861W        W 3461  43.319  26.210   3.744
32862W        W 3462  30.051  16.488  12.336
32863W        W 3463  38.377  33.088   2.808
32864W        W 3464   9.183  26.952   4.181
32865W        W 3465  36.871  43.173  13.252
32866W        W 3466   8.372  11.291  11.151
32867W        W 3467  37.077  34.141   1.702
32868W        W 3468  23.965   4.399   0.885
32869W        W 3469  14.096  23.110   4.584
32870W        W 3470  21.971   4.334   4.580
32871W        W 3471   8.652  32.748  11.114
32872W        W 3472  19.369  21.214   1.249
32873W        W 3473  41.075   4.824  13.038
32874W        W 3474  21.371  20.355   3.714
32875W        W 3475  16.692  20.011   1.686
32876W        W 3476  30.954  35.153  12.070
32877W        W 3477  12.806  14.282  14.807
32878W        W 3478  26.460  18.582  13.996
32879W        W 3479   4.747   3.933   0.012
32880W        W 3480   4.218  43.047  11.043
32881W        W 3481  29.810   4.042   0.304
32882W        W 3482  21.984   6.205  10.697
32883W        W 3483  21.294  38.669  10.643
32884W        W 3484  24.599  25.569   1.263
32885W        W 3485   4.281   9.697   0.220
32886W        W 3486   1.080  31.927  11.183
32887W        W 3487  10.139  39.638  14.397
32888W        W 3488   1.939  25.620   1.726
32889W        W 3489   0.835  28.429   2.750
32890W        W 3490  18.607  43.262  10.675
32891W        W 3491  43.582  12.355   3.745
32892W        W 3492  16.186  30.012  12.548
32893W        W 3493   2.205   9.112  12.219
32894W        W 3494   3.699  41.109   1.409
32895W        W 3495   6.834  12.797  11.612
32896W        W 3496  35.266  34.995   4.963
32897W        W 3497  24.461   0.958   2.720
32898W        W 3498   0.267  24.065   3.387
32899W        W 3499  26.051  43.356  13.132
32900W        W 3500  42.045   6.713  14.943
32901W        W 3501  13.561  23.018  13.112
32902W        W 3502   7.373  33.585   2.806
32903W        W 3503  42.365  27.716  13.539
32904W        W 3504  24.515   2.287  10.882
32905W        W 3505  22.540   4.301   2.198
32906W        W 3506  19.354  35.086  11.457
32907W        W 3507  20.649  25.937   2.326
32908W        W 3508  14.317  22.647  12.992
32909W        W 3509  28.524  15.482   0.757
32910W        W 3510   9.188  25.216   3.122
32911W        W 3511   9.259   0.668  13.868
32912W        W 3512  25.356   4.053   0.892
32913W        W 3513   5.978  43.846  13.473
32914W        W 3514  35.438  30.316   2.203
32915W        W 3515  32.781  37.296   5.048
32916W        W 3516   7.774  21.566  14.799
32917W        W 3517  11.838  31.989   1.314
32918W        W 3518   3.739  36.608   5.132
32919W        W 3519  17.078  13.135   3.257
32920W        W 3520  44.036  13.815  12.503
32921W        W 3521  25.435  44.229   2.383
32922W        W 3522  35.448  22.176  13.599
32923W        W 3523  27.214   7.935   2.745
32924W        W 3524  41.271  11.834   4.669
32925W        W 3525  29.146  41.001   0.241
32926W        W 3526  20.716   0.933   0.694
32927W        W 3527  17.790  17.334   0.065
32928W        W 3528  25.719   0.313   2.658
32929W        W 3529   0.866  40.630  10.424
32930W        W 3530  21.768  28.451   4.342
32931W        W 3531  23.405  13.147  13.459
32932W        W 3532  33.898   5.726   3.106
32933W        W 3533  28.938  20.137   4.257
32934W        W 3534  17.432   7.110  11.594
32935W        W 3535  13.185   9.710   1.074
32936W        W 3536   2.965  27.572   1.220
32937W        W 3537  19.708  26.928  13.466
32938W        W 3538   2.713  34.606   0.829
32939W        W 3539   0.805  35.321  12.474
32940W        W 3540  37.630  10.698   3.267
32941W        W 3541  39.540  41.379   3.909
32942W        W 3542  23.254  40.064   1.293
32943W        W 3543  34.688   4.419   2.787
32944W        W 3544  12.141   1.299  11.773
32945W        W 3545   2.864  36.542   1.017
32946W        W 3546  11.639  25.734  11.058
32947W        W 3547  34.576  12.637  12.865
32948W        W 3548  40.310  16.640   2.320
32949W        W 3549  41.817  20.278  12.078
32950W        W 3550  11.686  10.917   0.318
32951W        W 3551  40.868  12.609   3.266
32952W        W 3552  32.087  40.940  11.518
32953W        W 3553  35.351  14.304   2.584
32954W        W 3554  14.709  18.337   1.487
32955W        W 3555  28.199  18.326   1.201
32956W        W 3556  22.347  32.399   2.539
32957W        W 3557  17.749  24.242  12.477
32958W        W 3558  30.990   0.780   4.713
32959W        W 3559  15.587  35.550  12.556
32960W        W 3560  14.015  28.015  12.629
32961W        W 3561  23.566  22.670   1.159
32962W        W 3562   1.323  22.101   2.706
32963W        W 3563  10.298  37.940   3.633
32964W        W 3564   4.976  22.870  14.443
32965W        W 3565  23.436  11.760   1.275
32966W        W 3566  38.999  34.996  10.789
32967W        W 3567  21.005  43.002  14.430
32968W        W 3568  33.020  42.282   4.115
32969W        W 3569  33.470  27.587   0.779
32970W        W 3570   4.865  34.832   0.220
32971W        W 3571  41.099  32.534  14.273
32972W        W 3572   4.741  26.055  14.096
32973W        W 3573  18.527  13.607  12.575
32974W        W 3574  29.122   3.292   4.465
32975W        W 3575  27.944   2.397  10.252
32976W        W 3576  25.150  22.124   0.246
32977W        W 3577  37.846  15.599   3.100
32978W        W 3578  33.542  23.048   2.733
32979W        W 3579  40.362   4.344   2.839
32980W        W 3580  37.630  19.088   4.918
32981W        W 3581  21.423  41.852   1.291
32982W        W 3582   9.349  38.119  14.407
32983W        W 3583  12.251  31.368  13.079
32984W        W 3584  34.876  26.118   3.121
32985W        W 3585   9.306   5.096   3.262
32986W        W 3586  20.176   5.713   0.611
32987W        W 3587  32.251  37.666  11.144
32988W        W 3588  27.583  23.460  12.040
32989W        W 3589  39.089  21.163  11.193
32990W        W 3590  32.600  18.123   0.932
32991W        W 3591  11.859   1.165   3.724
32992W        W 3592  36.937  22.713  11.380
32993W        W 3593   1.994   9.851  11.649
32994W        W 3594   7.711  22.623   3.630
32995W        W 3595  29.369  11.345   3.085
32996W        W 3596  18.031  38.760   3.711
32997W        W 3597  29.986   3.590   3.366
32998W        W 3598   7.894  28.045  13.810
32999W        W 3599  22.723  17.524  10.272
33000W        W 3600  26.554   0.006  14.959
33001W        W 3601  39.813  28.639   3.042
33002W        W 3602   7.680   9.870  12.874
33003W        W 3603  30.410  34.497   0.951
33004W        W 3604  28.055  25.297   5.057
33005W        W 3605  20.313   2.361   1.480
33006W        W 3606  29.373  27.682   1.013
33007W        W 3607  17.327  42.355  12.284
33008W        W 3608  36.993  10.312   0.902
33009W        W 3609  21.384  32.897   4.168
33010W        W 3610   8.760  24.476  10.844
33011W        W 3611  27.348  31.408  11.599
33012W        W 3612  34.636  11.867  12.417
33013W        W 3613   3.499  43.391   4.667
33014W        W 3614   6.162  16.796  11.984
33015W        W 3615  26.947  27.676  10.398
33016W        W 3616  13.765   2.179   4.746
33017W        W 3617  40.093   8.506  10.605
33018W        W 3618   0.440  42.293  11.987
33019W        W 3619   8.361  17.509  14.014
33020W        W 3620  24.423  43.967   2.386
33021W        W 3621  41.955  27.442  14.310
33022W        W 3622  12.271  37.190  14.015
33023W        W 3623  24.690  19.166   2.611
33024W        W 3624  16.844  10.698  14.408
33025W        W 3625  12.876   0.846  14.698
33026W        W 3626   0.021  33.324  14.331
33027W        W 3627  15.220  23.498   4.582
33028W        W 3628  34.017  23.301   2.774
33029W        W 3629  20.695  32.681  11.642
33030W        W 3630  15.681  39.825   2.134
33031W        W 3631  16.985  11.313  10.726
33032W        W 3632  33.588   0.803   2.405
33033W        W 3633  39.378  33.883   2.413
33034W        W 3634  17.643  10.900  13.439
33035W        W 3635  21.951  35.948  12.860
33036W        W 3636  11.247   3.683  10.753
33037W        W 3637  38.354  33.094   0.925
33038W        W 3638  21.952   9.659  13.133
33039W        W 3639   3.470  36.998   4.819
33040W        W 3640  11.398  25.252  11.999
33041W        W 3641  15.538  19.662  11.893
33042W        W 3642   5.855  29.762  13.655
33043W        W 3643  38.595  33.572   4.090
33044W        W 3644  11.392   6.316   3.659
33045W        W 3645  25.338   7.861  14.889
33046W        W 3646  23.258   9.780  13.511
33047W        W 3647  32.863  34.282   1.825
33048W        W 3648  21.533   7.411  12.559
33049W        W 3649  44.509  41.889   1.473
33050W        W 3650  26.453  20.753   0.593
33051W        W 3651  18.448  32.556  13.476
33052W        W 3652  22.231  15.679   3.196
33053W        W 3653  24.043  10.649   0.306
33054W        W 3654  10.536  29.102  12.422
33055W        W 3655  35.339  35.438   4.042
33056W        W 3656  30.663  27.674  10.542
33057W        W 3657  23.393  40.637  12.147
33058W        W 3658  14.800  44.945   2.581
33059W        W 3659  24.973  37.943  14.014
33060W        W 3660  41.306  20.759  11.076
33061W        W 3661  17.638  29.634   1.166
33062W        W 3662  41.147  32.198   3.295
33063W        W 3663  39.607   8.532  10.776
33064W        W 3664  14.137  41.805   2.047
33065W        W 3665   9.094  15.110   2.648
33066W        W 3666  18.568  19.288  10.649
33067W        W 3667   7.478  17.561   3.613
33068W        W 3668  21.763  35.370   0.238
33069W        W 3669  28.194   5.322  11.679
33070W        W 3670  38.845  23.719  11.178
33071W        W 3671  40.019  25.225  12.526
33072W        W 3672  42.314  31.380   1.874
33073W        W 3673  34.016  41.905   2.387
33074W        W 3674  32.332  42.929   4.456
33075W        W 3675  19.769   0.264   0.653
33076W        W 3676  10.836  40.983   3.880
33077W        W 3677  12.724   4.157   2.926
33078W        W 3678  27.510  30.190   2.861
33079W        W 3679  11.130  32.947  12.323
33080W        W 3680  42.924  24.904  14.553
33081W        W 3681  28.037  21.794   0.250
33082W        W 3682   3.500  18.750   0.187
33083W        W 3683  40.431  16.872  13.965
33084W        W 3684  30.011  24.466  14.258
33085W        W 3685  37.907  23.977   4.533
33086W        W 3686  41.455   5.825  12.029
33087W        W 3687   6.244  35.575   3.969
33088W        W 3688  19.134  13.189  13.354
33089W        W 3689  38.266   5.108  13.297
33090W        W 3690  28.214  26.929  11.962
33091W        W 3691   9.377  39.626   4.332
33092W        W 3692  28.662  42.412   0.824
33093W        W 3693  39.035  29.771  13.511
33094W        W 3694  44.486   2.111   3.131
33095W        W 3695  35.883   6.092   5.051
33096W        W 3696  12.425  31.127   1.274
33097W        W 3697  36.379  22.403   5.126
33098W        W 3698  17.730  19.824   0.297
33099W        W 3699  35.020  14.228   4.067
33100W        W 3700  11.719  26.865  14.937
33101W        W 3701   3.439  43.940   0.431
33102W        W 3702   7.327   7.165   2.778
33103W        W 3703  39.477  26.778   2.808
33104W        W 3704   1.513  12.244  11.246
33105W        W 3705  10.623  32.141   0.880
33106W        W 3706  35.105  14.691   4.328
33107W        W 3707   3.975   9.038   4.580
33108W        W 3708  35.370  29.070  13.996
33109W        W 3709   5.873  22.299   0.991
33110W        W 3710  23.565  29.883  12.098
33111W        W 3711  10.072   6.888   2.834
33112W        W 3712  42.893   4.636  12.178
33113W        W 3713  32.514  42.105  10.629
33114W        W 3714  34.948   1.992  10.594
33115W        W 3715  42.477  28.519  13.949
33116W        W 3716  25.538  12.716  12.824
33117W        W 3717  28.720  12.804   2.745
33118W        W 3718  10.926  29.991   1.295
33119W        W 3719  33.800  29.478   1.079
33120W        W 3720  32.384  28.183   1.547
33121W        W 3721  21.033  29.234   5.139
33122W        W 3722  36.493  37.469  10.746
33123W        W 3723  32.586  26.075  11.633
33124W        W 3724   0.511  27.514   3.229
33125W        W 3725  24.654   7.260   1.416
33126W        W 3726  32.942  16.316   2.327
33127W        W 3727  19.048  44.059   2.702
33128W        W 3728  28.002  43.444   2.633
33129W        W 3729  34.407   6.729   1.516
33130W        W 3730  37.576  41.994  14.508
33131W        W 3731  19.240  36.878  12.143
33132W        W 3732  28.070   3.324   1.288
33133W        W 3733   2.356  17.529  14.765
33134W        W 3734  40.423   8.588   1.213
33135W        W 3735   1.879  15.306  10.931
33136W        W 3736  12.400   5.315   3.540
33137W        W 3737   5.197  39.453  10.714
33138W        W 3738  20.463  13.187   1.904
33139W        W 3739  26.341  28.904   3.164
33140W        W 3740   6.418  15.285   0.431
33141W        W 3741  41.522  20.713  11.944
33142W        W 3742  32.159   8.118  12.037
33143W        W 3743  31.862   6.401   3.267
33144W        W 3744  39.760  43.585  11.403
33145W        W 3745  23.995   1.886  13.242
33146W        W 3746   5.972  15.940   2.865
33147W        W 3747  29.456  32.557   2.810
33148W        W 3748  22.208  26.174   3.453
33149W        W 3749  38.037  15.324  11.699
33150W        W 3750  35.934  32.006  10.727
33151W        W 3751  15.554   5.114   0.436
33152W        W 3752  28.713  33.543   0.266
33153W        W 3753  28.239  37.380  11.658
33154W        W 3754  12.141  41.333  11.529
33155W        W 3755  18.344  41.014   2.707
33156W        W 3756  40.793  21.044  13.855
33157W        W 3757  26.928  18.864  14.953
33158W        W 3758  37.752  41.908   1.854
33159W        W 3759  38.391  15.304  12.922
33160W        W 3760  16.114  34.898   0.228
33161W        W 3761   7.945  29.132  11.972
33162W        W 3762  42.277  27.119  12.490
33163W        W 3763  30.426  43.859  14.396
33164W        W 3764  27.508  13.609  11.388
33165W        W 3765   0.194  15.081   3.221
33166W        W 3766  28.396  17.509   1.634
33167W        W 3767   1.797  15.407  10.424
33168W        W 3768  19.272  20.082   0.858
33169W        W 3769  13.758   1.126  10.554
33170W        W 3770  33.930  23.385  11.113
33171W        W 3771  32.441  29.438   1.885
33172W        W 3772  31.583  42.033  13.441
33173W        W 3773  30.089  30.573  11.059
33174W        W 3774  23.715  35.550  11.977
33175W        W 3775   8.565  15.674  11.163
33176W        W 3776  39.845  12.340  13.250
33177W        W 3777   2.518  33.201  14.442
33178W        W 3778  19.740  15.756  11.022
33179W        W 3779  10.852  14.664   1.259
33180W        W 3780  19.272  23.726   2.776
33181W        W 3781  13.225  21.704   2.267
33182W        W 3782   2.824  32.485   9.846
33183W        W 3783  18.821  21.153  14.336
33184W        W 3784   0.502  42.517   3.301
33185W        W 3785  26.233  36.776  11.992
33186W        W 3786   7.784   5.731  13.442
33187W        W 3787  26.002   8.368  10.693
33188W        W 3788  33.624   8.617  11.189
33189W        W 3789   1.312  23.658  13.819
33190W        W 3790  19.616  25.207   3.782
33191W        W 3791  33.772  19.006   3.363
33192W        W 3792  33.495   4.445  13.899
33193W        W 3793  16.518  30.033   0.336
33194W        W 3794  14.769  16.760   3.274
33195W        W 3795  15.792  20.019  10.640
33196W        W 3796  33.634  23.669  13.441
33197W        W 3797  24.053  14.440   0.860
33198W        W 3798  27.605   0.419   2.870
33199W        W 3799  38.371  13.463   4.247
33200W        W 3800  10.333  12.704  11.998
33201W        W 3801  16.637  26.764  11.894
33202W        W 3802  34.579  44.969  12.827
33203W        W 3803  18.003   5.162   4.330
33204W        W 3804  43.830  35.070  12.475
33205W        W 3805  25.307  29.991   2.184
33206W        W 3806  29.041   5.860  14.497
33207W        W 3807  26.457   0.763  10.610
33208W        W 3808  37.411  37.687  10.689
33209W        W 3809  29.113  19.720   2.663
33210W        W 3810  29.608  20.648  12.174
33211W        W 3811  39.447  31.849   2.214
33212W        W 3812  37.555  18.465  14.368
33213W        W 3813  12.383   2.390   1.385
33214W        W 3814  12.133  22.981  11.016
33215W        W 3815  23.206  10.095   1.153
33216W        W 3816  35.394  39.530  13.897
33217W        W 3817  25.927  11.874  12.956
33218W        W 3818   1.303  23.410  14.567
33219W        W 3819   9.439  26.153  14.065
33220W        W 3820   6.775  37.252   0.833
33221W        W 3821  21.496  40.931  12.878
33222W        W 3822  38.366  28.785  12.733
33223W        W 3823  29.434  16.789  11.194
33224W        W 3824  12.114  22.231  13.510
33225W        W 3825  12.072   0.369  10.993
33226W        W 3826  41.789  24.296  12.166
33227W        W 3827  25.936  29.508  14.860
33228W        W 3828  14.263  11.469   1.680
33229W        W 3829  23.010  40.070  13.321
33230W        W 3830   7.982  33.570  13.418
33231W        W 3831   0.436  31.688  10.657
33232W        W 3832  17.548   0.084  13.502
33233W        W 3833  30.600  42.065  14.363
33234W        W 3834  44.493  35.125   1.738
33235W        W 3835  41.830  21.164   2.377
33236W        W 3836   3.454  43.548  11.528
33237W        W 3837  42.381  12.807  12.117
33238W        W 3838  41.858   6.212   4.603
33239W        W 3839  42.485  29.632   4.076
33240W        W 3840  40.335  11.848  12.522
33241W        W 3841  32.721  29.618   2.715
33242W        W 3842  24.686  41.531   4.768
33243W        W 3843  14.871  19.147   3.651
33244W        W 3844  19.703  31.363  10.797
33245W        W 3845   0.415  42.094   4.652
33246W        W 3846  30.039  44.815  11.964
33247W        W 3847  42.475   0.271   1.990
33248W        W 3848  20.239  41.561  13.945
33249W        W 3849  11.220   7.540   3.208
33250W        W 3850  12.113  42.949  11.392
33251W        W 3851  29.575   1.444  14.787
33252W        W 3852  28.515  14.818  13.642
33253W        W 3853  11.896  31.581  11.582
33254W        W 3854  11.594   9.705  13.403
33255W        W 3855  24.583  33.785   0.275
33256W        W 3856   8.734  35.861  12.564
33257W        W 3857  30.152   1.845  13.284
33258W        W 3858  16.801  30.432  12.942
33259W        W 3859  20.332  27.265   9.931
33260W        W 3860   7.273  13.801   0.882
33261W        W 3861   9.894  27.382  13.397
33262W        W 3862  21.962  40.023   2.393
33263W        W 3863   5.251  43.850  11.825
33264W        W 3864  39.358  36.920  10.693
33265W        W 3865  38.892  29.242   1.054
33266W        W 3866   5.805   3.450   3.821
33267W        W 3867  21.624  14.751  10.631
33268W        W 3868  37.861  20.716  14.837
33269W        W 3869  23.264  16.876   1.739
33270W        W 3870  16.260  37.429   0.473
33271W        W 3871  44.456  38.026   4.482
33272W        W 3872   4.568  36.985  11.143
33273W        W 3873   8.183  28.600  10.248
33274W        W 3874  27.949  34.457   4.560
33275W        W 3875  27.097  19.548   1.855
33276W        W 3876  12.141   2.412  14.394
33277W        W 3877  43.678  20.590   4.452
33278W        W 3878  28.360   8.854  14.812
33279W        W 3879   5.052  26.622   1.476
33280W        W 3880   3.526  44.609  11.620
33281W        W 3881  14.524  40.049  11.182
33282W        W 3882  31.914  34.121  11.622
33283W        W 3883   8.408  37.540   4.400
33284W        W 3884  42.706   7.204   2.370
33285W        W 3885   0.294   2.537  12.590
33286W        W 3886   8.854  26.993   4.588
33287W        W 3887   1.147  24.554   1.143
33288W        W 3888  40.847   2.563   1.332
33289W        W 3889   2.652  34.904  12.984
33290W        W 3890  12.727  19.608   3.575
33291W        W 3891  26.675  43.567  14.888
33292W        W 3892  31.866  30.752   3.425
33293W        W 3893  11.613  42.840  12.608
33294W        W 3894  44.085  13.704   1.588
33295W        W 3895  43.810  21.260  11.625
33296W        W 3896  16.212  28.481  14.258
33297W        W 3897  31.060  10.439   1.851
33298W        W 3898  18.558  26.393   3.956
33299W        W 3899  14.595  13.705   3.034
33300W        W 3900  24.722  37.382  14.795
33301W        W 3901  40.863  11.434   1.657
33302W        W 3902  11.111  30.522  11.442
33303W        W 3903  23.049  36.120   2.253
33304W        W 3904   7.801  16.041   3.146
33305W        W 3905  41.590  27.510   3.740
33306W        W 3906  39.033  29.649   4.870
33307W        W 3907  32.415  31.883   2.665
33308W        W 3908  34.141  43.461  10.661
33309W        W 3909  35.652  15.661  11.201
33310W        W 3910  28.677  14.331  13.433
33311W        W 3911   9.302   2.798   2.261
33312W        W 3912  14.045   4.776   3.606
33313W        W 3913  40.140  30.889   2.322
33314W        W 3914   0.401   5.716   2.614
33315W        W 3915   0.982   6.208   0.714
33316W        W 3916  38.518   8.772  14.502
33317W        W 3917  18.254  35.961  12.050
33318W        W 3918  22.106   6.381   5.340
33319W        W 3919  42.300  40.739  14.410
33320W        W 3920  20.213   3.957  12.633
33321W        W 3921  18.969  44.147  12.518
33322W        W 3922  30.898  29.001   0.843
33323W        W 3923  10.792  15.510  12.998
33324W        W 3924  35.954  16.347   3.592
33325W        W 3925   3.937  22.481  13.357
33326W        W 3926   8.663   0.952  14.546
33327W        W 3927   5.895  14.533  12.486
33328W        W 3928  18.106  25.001   2.311
33329W        W 3929  12.755  37.076  13.830
33330W        W 3930   1.695  42.774   0.206
33331W        W 3931  44.886   4.781   3.601
33332W        W 3932  29.684  30.921  14.266
33333W        W 3933  26.098  35.009   2.417
33334W        W 3934   9.141  29.397  11.163
33335W        W 3935  36.403  17.199   1.995
33336W        W 3936  15.557  10.822  12.019
33337W        W 3937   7.164  14.396   1.261
33338W        W 3938  21.406  42.806   2.354
33339W        W 3939  36.599  17.315   0.440
33340W        W 3940  25.651   7.661  11.517
33341W        W 3941  39.070  29.191   1.553
33342W        W 3942  40.278  38.033  13.906
33343W        W 3943   7.942  19.533   4.704
33344W        W 3944   5.025  39.033   1.641
33345W        W 3945  41.561  13.809  13.780
33346W        W 3946  20.705  11.503  12.030
33347W        W 3947   1.776  10.994  13.465
33348W        W 3948  44.464  31.116  10.910
33349W        W 3949  23.077  24.104  14.292
33350W        W 3950  44.448  18.404   4.487
33351W        W 3951   7.291  43.871   4.335
33352W        W 3952  44.405  37.743   4.047
33353W        W 3953  44.175  15.565   3.668
33354W        W 3954  40.056   0.325  13.018
33355W        W 3955  26.581  28.066  14.397
33356W        W 3956  36.132  42.040   1.270
33357W        W 3957  38.489  15.712  11.073
33358W        W 3958  16.178  33.714   3.691
33359W        W 3959   9.377  35.029  10.102
33360W        W 3960  40.717  12.076   0.339
33361W        W 3961  15.269  17.158   0.733
33362W        W 3962   0.940   5.860   1.987
33363W        W 3963  39.486  22.028   1.790
33364W        W 3964  22.442  10.690  13.395
33365W        W 3965  41.018  43.072   3.249
33366W        W 3966   3.012   1.842   9.931
33367W        W 3967   0.204   4.521   3.957
33368W        W 3968  32.786  12.806  13.451
33369W        W 3969  16.629  31.559  14.811
33370W        W 3970  43.387  17.684  10.717
33371W        W 3971  42.961  32.936   3.666
33372W        W 3972  38.403  29.517  13.981
33373W        W 3973  29.537  25.113   2.687
33374W        W 3974  33.502  43.722   1.473
33375W        W 3975   0.146  34.042  13.963
33376W        W 3976  18.507  34.416   1.935
33377W        W 3977  24.227  44.489  12.569
33378W        W 3978  41.928  44.739  13.469
33379W        W 3979  22.307  14.750   2.808
33380W        W 3980  39.963  23.229  13.291
33381W        W 3981  36.021   9.216  14.508
33382W        W 3982   7.728  34.384   4.031
33383W        W 3983  20.984  28.903  12.974
33384W        W 3984  28.209  18.820   1.371
33385W        W 3985   5.891   7.348   1.266
33386W        W 3986  27.032  35.595  10.642
33387W        W 3987  11.994  20.598   0.193
33388W        W 3988  28.701   8.022   3.737
33389W        W 3989  43.739  16.111  13.040
33390W        W 3990  42.539  17.202   4.867
33391W        W 3991   5.342   2.533  11.522
33392W        W 3992  40.283   3.669   3.664
33393W        W 3993  30.376  37.398  14.962
33394W        W 3994   6.360  43.015  13.343
33395W        W 3995  35.181  18.166  10.783
33396W        W 3996  44.110  11.595   1.354
33397W        W 3997   4.002  12.759  13.137
33398W        W 3998  25.469  19.390   1.818
33399W        W 3999  17.209  37.776  11.191
33400W        W 4000  18.059  29.459  14.851
33401W        W 4001  11.178  30.380   2.155
33402W        W 4002   3.169  17.852  14.452
33403W        W 4003   4.404   5.818  13.112
33404W        W 4004   8.079  28.630   2.483
33405W        W 4005  22.228   9.367  12.327
33406W        W 4006  44.428  17.497   3.832
33407W        W 4007  22.813   4.913   0.848
33408W        W 4008  11.358  26.076  10.789
33409W        W 4009  11.697  43.521  12.918
33410W        W 4010  41.014   2.742   2.711
33411W        W 4011  36.997  41.131   0.021
33412W        W 4012  43.885  26.703  14.047
33413W        W 4013   8.879  24.483   2.203
33414W        W 4014  29.541   7.920  14.009
33415W        W 4015   4.039   3.885   0.381
33416W        W 4016   3.180  24.165   0.364
33417W        W 4017  17.061   1.363   4.102
33418W        W 4018  21.066  11.145   0.561
33419W        W 4019  41.469  23.479   3.014
33420W        W 4020  31.619  36.023  11.952
33421W        W 4021   8.529   7.980   1.021
33422W        W 4022  13.316  21.906  13.948
33423W        W 4023  16.235  12.326   3.840
33424W        W 4024  16.184   4.737   4.824
33425W        W 4025  11.330   0.346  14.408
33426W        W 4026  36.215  17.643   2.787
33427W        W 4027  40.468   8.769   2.748
33428W        W 4028  13.144  20.250   4.595
33429W        W 4029  15.594  13.867   0.417
33430W        W 4030  29.913  14.324   2.270
33431W        W 4031  39.486   9.732   3.454
33432W        W 4032   8.390  12.228  14.310
33433W        W 4033  41.893   3.388   3.200
33434W        W 4034  30.113   6.028   4.907
33435W        W 4035  38.464  37.100  11.122
33436W        W 4036  25.971   4.372  12.004
33437W        W 4037  30.358   5.622   4.605
33438W        W 4038  23.816  15.619   0.925
33439W        W 4039   1.400  32.793   2.747
33440W        W 4040  33.519   7.653  13.044
33441W        W 4041  38.323  14.033   2.423
33442W        W 4042  10.339  36.579   2.309
33443W        W 4043  40.438   2.812   1.114
33444W        W 4044  44.879  11.543  11.222
33445W        W 4045  26.662   9.467   1.415
33446W        W 4046   5.296   5.323   4.172
33447W        W 4047  44.222  35.444   4.352
33448W        W 4048  30.910   4.253  14.281
33449W        W 4049  24.628  14.546  14.937
33450W        W 4050  26.530  25.862   4.633
33451W        W 4051  28.115   6.306  12.851
33452W        W 4052   0.971  22.118   4.189
33453W        W 4053  42.810   6.458   1.379
33454W        W 4054  37.329  44.817  10.775
33455W        W 4055   6.351   0.448   0.931
33456W        W 4056  33.808  40.631   0.301
33457W        W 4057   1.768  44.137  10.311
33458W        W 4058  25.237  25.973  14.878
33459W        W 4059  18.797  31.829  12.151
33460W        W 4060   3.926  14.113   1.839
33461W        W 4061  23.989   8.019   2.702
33462W        W 4062  22.065  44.029  11.594
33463W        W 4063  20.836  37.600  12.158
33464W        W 4064  32.411  41.360  13.454
33465W        W 4065  36.981   4.708   3.177
33466W        W 4066  23.658  25.743   2.337
33467W        W 4067  44.315   5.794  14.351
33468W        W 4068  17.240  18.278   1.874
33469W        W 4069   0.543  32.907   2.631
33470W        W 4070   0.665  34.306  12.477
33471W        W 4071  14.046   7.159  14.038
33472W        W 4072   7.462  31.413  14.950
33473W        W 4073  18.323  43.679  10.621
33474W        W 4074   7.689  22.445  14.623
33475W        W 4075   8.771  28.911  14.510
33476W        W 4076  34.361   8.346   1.911
33477W        W 4077  32.729  43.013   0.736
33478W        W 4078  27.862  38.210   1.939
33479W        W 4079   6.659  38.406   1.247
33480W        W 4080  42.518  30.219  12.946
33481W        W 4081  44.346  41.288   2.203
33482W        W 4082  11.277  41.607   3.688
33483W        W 4083  29.656  37.556   3.757
33484W        W 4084  19.362  12.795  14.101
33485W        W 4085  27.589  21.591   0.786
33486W        W 4086  41.063  20.802   4.506
33487W        W 4087  32.296   5.402  11.272
33488W        W 4088  22.974  34.019  12.476
33489W        W 4089  33.387  22.232  11.489
33490W        W 4090  14.523  18.653  11.672
33491W        W 4091  44.243  12.917  13.903
33492W        W 4092   1.022  24.975   5.163
33493W        W 4093  19.136  20.507   2.338
33494W        W 4094  23.670   6.237   2.694
33495W        W 4095   3.449  15.676  13.026
33496W        W 4096  41.819  38.935  13.104
33497W        W 4097  22.763   0.455   0.419
33498W        W 4098  29.775  26.854   3.114
33499W        W 4099   8.921  24.733   3.456
33500W        W 4100  21.787   0.732  14.789
33501W        W 4101   6.710  18.798   2.181
33502W        W 4102  39.446   6.396  13.857
33503W        W 4103   6.874  12.519   2.353
33504W        W 4104  18.075  10.173  14.665
33505W        W 4105  26.931   6.009  14.581
33506W        W 4106   3.511  18.119   4.190
33507W        W 4107  21.611   2.227   1.814
33508W        W 4108  24.347  25.029   2.295
33509W        W 4109   1.305  18.279   2.136
33510W        W 4110  44.958  34.614  13.892
33511W        W 4111  27.966  26.970   1.346
33512W        W 4112  13.865  11.570  14.760
33513W        W 4113  41.949  21.533   3.091
33514W        W 4114  26.967  39.969   2.744
33515W        W 4115  11.656  16.297  14.928
33516W        W 4116  34.452   0.329   2.979
33517W        W 4117  39.268  28.933   3.626
33518W        W 4118  29.897   0.317  13.545
33519W        W 4119   3.249  20.650  14.065
33520W        W 4120  28.628  20.709  13.082
33521W        W 4121  28.353  44.572   3.862
33522W        W 4122   5.295  34.560   1.455
33523W        W 4123  19.394  24.740   3.854
33524W        W 4124  27.256  26.446  12.080
33525W        W 4125  24.694  21.861   0.343
33526W        W 4126  41.606  43.196   2.810
33527W        W 4127  20.158  28.107  13.137
33528W        W 4128  18.475   5.504  10.959
33529W        W 4129  24.916   4.021  12.449
33530W        W 4130  21.726  28.958  11.449
33531W        W 4131  37.931  20.799   4.242
33532W        W 4132   6.823  44.913  11.181
33533W        W 4133   3.467  40.044   3.340
33534W        W 4134  29.217  33.456   0.315
33535W        W 4135  28.701  35.819  10.540
33536W        W 4136  13.699  11.781  13.820
33537W        W 4137   5.291  25.995  10.553
33538W        W 4138  29.076  11.123  14.210
33539W        W 4139  16.326  27.324   2.345
33540W        W 4140  19.102  41.937   1.818
33541W        W 4141   9.872  16.684   1.541
33542W        W 4142  43.816  21.984  14.065
33543W        W 4143   5.877  43.209  11.652
33544W        W 4144   4.463   8.373   1.150
33545W        W 4145   1.898  24.626  10.520
33546W        W 4146  16.715  21.515  12.945
33547W        W 4147   6.360  42.535   3.569
33548W        W 4148  38.141  24.183   0.822
33549W        W 4149  39.116  24.289   0.412
33550W        W 4150  33.529  38.935   4.545
33551W        W 4151   1.209   6.420   3.708
33552W        W 4152  37.323  41.410   4.339
33553W        W 4153   5.291  20.697   1.434
33554W        W 4154  41.059  32.535   0.676
33555W        W 4155  10.827  39.840   2.388
33556W        W 4156  12.540  34.995   1.105
33557W        W 4157  39.652  24.532  10.715
33558W        W 4158   2.395   3.154   5.010
33559W        W 4159  35.529  39.466   1.286
33560W        W 4160  36.371  27.167  12.008
33561W        W 4161  28.515  30.856   2.472
33562W        W 4162   2.923  16.308   2.677
33563W        W 4163   1.798  44.842  14.897
33564W        W 4164   9.201  12.138   1.736
33565W        W 4165  25.220  27.697   4.071
33566W        W 4166  43.368  37.096   1.425
33567W        W 4167  26.872   4.848  12.439
33568W        W 4168   8.759  31.143   0.216
33569W        W 4169  21.603  16.318   2.574
33570W        W 4170   6.255   5.692  12.538
33571W        W 4171  12.361  10.409   2.251
33572W        W 4172  24.980   3.505  12.507
33573W        W 4173  26.325   1.299   1.850
33574W        W 4174  31.165   1.781   3.732
33575W        W 4175  31.341  17.004   4.726
33576W        W 4176  41.959  16.432  12.460
33577W        W 4177  29.386   5.331   0.068
33578W        W 4178  15.821  27.692   0.225
33579W        W 4179  42.768   6.949  12.448
33580W        W 4180  27.703   2.245  11.694
33581W        W 4181   3.010  24.680  12.797
33582W        W 4182  38.376  24.566   2.388
33583W        W 4183   0.962  17.288  13.236
33584W        W 4184  42.899  20.190  13.751
33585W        W 4185   6.812  25.536  13.010
33586W        W 4186  22.127  44.696   3.997
33587W        W 4187  39.424  24.264  14.959
33588W        W 4188   8.475   5.836   3.663
33589W        W 4189  15.123   2.551   3.331
33590W        W 4190  23.592  39.617  11.335
33591W        W 4191  33.124  24.600  11.910
33592W        W 4192   8.211   4.631   1.001
33593W        W 4193  14.764   3.318  10.650
33594W        W 4194  30.089   8.612  11.093
33595W        W 4195  12.715  13.283   2.226
33596W        W 4196   4.657  26.647  10.663
33597W        W 4197  16.146  43.839   3.210
33598W        W 4198   0.225   7.513   0.897
33599W        W 4199  32.019  21.295   1.697
33600W        W 4200   2.078  44.681   4.147
33601W        W 4201   8.122  34.456   0.863
33602W        W 4202  16.956  13.021   5.501
33603W        W 4203   8.821  18.588  11.742
33604W        W 4204  18.483  41.236  12.732
33605W        W 4205  18.832  23.484   4.358
33606W        W 4206  40.898  35.796  12.688
33607W        W 4207  32.882  43.433  11.780
33608W        W 4208  39.322  28.183  10.592
33609W        W 4209   4.851  39.425   4.397
33610W        W 4210  30.545  22.573   3.358
33611W        W 4211  19.629  28.672  14.310
33612W        W 4212  33.134  25.590   2.182
33613W        W 4213   9.244  37.555  11.066
33614W        W 4214   0.445  25.710  12.922
33615W        W 4215  23.794  26.982  12.871
33616W        W 4216   4.495  12.164   2.946
33617W        W 4217  25.994   0.483  13.960
33618W        W 4218  28.997  11.204   4.599
33619W        W 4219  17.533  36.828  12.461
33620W        W 4220  10.227  38.015   0.313
33621W        W 4221  38.504   0.253   1.448
33622W        W 4222  42.156   9.702  12.446
33623W        W 4223  31.637  17.111  10.809
33624W        W 4224  33.651  42.550   3.288
33625W        W 4225  44.191   9.028  12.829
33626W        W 4226  32.581   6.061  14.343
33627W        W 4227  39.592  30.952   0.451
33628W        W 4228   0.756  14.558  13.176
33629W        W 4229   3.859  19.348  14.309
33630W        W 4230  25.083  43.917  13.788
33631W        W 4231  34.904  23.600  10.569
33632W        W 4232  16.754  42.519   0.954
33633W        W 4233  24.556  27.484  12.045
33634W        W 4234  27.477  21.265  13.722
33635W        W 4235   5.462  23.285  11.179
33636W        W 4236   3.281   0.732   0.081
33637W        W 4237   2.193  12.388   0.225
33638W        W 4238   2.988  30.566  12.969
33639W        W 4239  28.951   1.877  10.726
33640W        W 4240   7.755  14.578   2.265
33641W        W 4241  28.901   2.251  12.494
33642W        W 4242  13.213   4.686   1.299
33643W        W 4243  19.293  30.402   4.829
33644W        W 4244  36.943  14.696   0.794
33645W        W 4245  18.312   1.492   3.841
33646W        W 4246  15.187   6.149   1.115
33647W        W 4247  40.796  24.139  12.614
33648W        W 4248   7.687   8.660  12.954
33649W        W 4249  18.699  43.094  13.994
33650W        W 4250   1.530  32.051   0.574
33651W        W 4251  43.749  44.647  11.961
33652W        W 4252  29.560  30.637   0.537
33653W        W 4253  44.295  28.898  11.195
33654W        W 4254  34.939  14.157  12.710
33655W        W 4255  16.601   2.108  11.817
33656W        W 4256   2.410  41.525   3.259
33657W        W 4257  12.460   8.631   4.334
33658W        W 4258  10.809  31.428  10.628
33659W        W 4259  26.044  42.444   3.254
33660W        W 4260  30.915  21.563  12.632
33661W        W 4261   2.014   1.721   3.281
33662W        W 4262  20.207  11.221   2.831
33663W        W 4263   4.260   7.418  11.587
33664W        W 4264  11.241  34.884  14.348
33665W        W 4265  32.815   7.304   0.653
33666W        W 4266   9.737  20.159  13.700
33667W        W 4267  31.125  44.903  10.598
33668W        W 4268  43.610   0.793  11.561
33669W        W 4269  27.667  20.416  10.739
33670W        W 4270   7.705  26.227  13.741
33671W        W 4271   7.338  30.451   0.886
33672W        W 4272   6.352  18.515  13.965
33673W        W 4273  24.218  39.605   2.808
33674W        W 4274  31.057  12.605  10.726
33675W        W 4275  13.086  40.250   4.560
33676W        W 4276  34.089  29.460  11.431
33677W        W 4277   1.335  17.150   4.861
33678W        W 4278   6.305  27.052  11.651
33679W        W 4279  22.523  18.219   2.873
33680W        W 4280  37.839   0.903   2.271
33681W        W 4281  31.854  25.619  14.305
33682W        W 4282  44.811  43.149  12.517
33683W        W 4283  28.964  32.060   4.536
33684W        W 4284  43.255   3.653   0.464
33685W        W 4285  41.098   1.010   2.515
33686W        W 4286  13.177  34.038  14.277
33687W        W 4287  15.263  28.538   2.167
33688W        W 4288  41.562  37.820  13.341
33689W        W 4289  41.796   5.871  14.256
33690W        W 4290  30.449  29.205  12.521
33691W        W 4291   8.456  41.955   2.247
33692W        W 4292  43.215  28.384   0.451
33693W        W 4293   1.806  15.589   2.833
33694W        W 4294   3.406   6.353   1.642
33695W        W 4295  27.195  30.664   4.889
33696W        W 4296  27.901  36.500   4.682
33697W        W 4297  35.401  10.385  14.770
33698W        W 4298  35.116   4.317   3.066
33699W        W 4299  35.142  34.429   3.714
33700W        W 4300  40.902   2.869   0.315
33701W        W 4301   2.264  12.590   0.732
33702W        W 4302  12.735  23.158  14.000
33703W        W 4303   3.958  32.085   3.252
33704W        W 4304  40.472  11.536  11.161
33705W        W 4305  22.098   1.269  10.532
33706W        W 4306  16.436  21.728   4.610
33707W        W 4307  33.139   9.357  13.899
33708W        W 4308  14.037   5.512   1.149
33709W        W 4309   6.168  29.120   3.319
33710W        W 4310  44.947  28.510   4.884
33711W        W 4311  19.724  17.355   2.790
33712W        W 4312  14.190   1.501  13.984
33713W        W 4313  38.474  14.723   1.649
33714W        W 4314  34.387   2.828  12.649
33715W        W 4315   4.202   2.677   3.605
33716W        W 4316  11.465   9.108   4.135
33717W        W 4317  26.210   9.905   1.514
33718W        W 4318  20.753  27.948   4.591
33719W        W 4319   3.262   5.216  12.551
33720W        W 4320  32.824  11.314   4.740
33721W        W 4321  41.774  20.487   3.175
33722W        W 4322  36.877  22.093   2.703
33723W        W 4323   6.935  16.049  11.052
33724W        W 4324  36.794   1.131   2.755
33725W        W 4325  39.458   0.687  14.662
33726W        W 4326  43.774  43.894   3.629
33727W        W 4327  37.401   4.279   0.446
33728W        W 4328   7.749   4.332  12.321
33729W        W 4329  14.149   4.939   1.835
33730W        W 4330  27.058  44.572  10.141
33731W        W 4331  29.414  31.245  12.934
33732W        W 4332  12.415  35.464   0.895
33733W        W 4333  11.682  12.321   1.389
33734W        W 4334  19.752   4.921   0.665
33735W        W 4335  32.351   1.514   2.212
33736W        W 4336  37.090  17.281  11.172
33737W        W 4337  13.080  37.872   3.466
33738W        W 4338  32.180  31.331   0.928
33739W        W 4339   6.589   7.763  11.959
33740W        W 4340  29.834  24.940   2.288
33741W        W 4341  33.885  22.636  12.673
33742W        W 4342   7.644   8.313   0.700
33743W        W 4343  39.427  13.185   2.210
33744W        W 4344  36.342  15.300   2.827
33745W        W 4345   8.694  39.342   1.429
33746W        W 4346  21.604   6.494  14.827
33747W        W 4347  13.151   7.405   3.695
33748W        W 4348   0.455  37.113   2.128
33749W        W 4349  11.376  30.448   2.675
33750W        W 4350   8.830   3.280   4.128
33751W        W 4351  10.205  34.327   4.934
33752W        W 4352   1.798  30.458  11.380
33753W        W 4353  16.973  30.842   0.134
33754W        W 4354  37.492  14.582   2.102
33755W        W 4355   0.838  23.470   0.075
33756W        W 4356  18.501   2.280   3.722
33757W        W 4357  25.408  16.328   3.291
33758W        W 4358  26.999  16.761   1.456
33759W        W 4359  24.609  29.054  12.882
33760W        W 4360   5.900  40.035  14.193
33761W        W 4361   1.949   8.122   0.203
33762W        W 4362  30.895  41.977  14.809
33763W        W 4363  30.429  14.152  11.350
33764W        W 4364  35.372   8.313  12.431
33765W        W 4365   0.522  41.107   4.487
33766W        W 4366   0.677  13.059  10.785
33767W        W 4367  27.216  31.803  12.337
33768W        W 4368  20.668  29.080  11.901
33769W        W 4369   1.770  11.071   4.548
33770W        W 4370  19.839  13.258   3.675
33771W        W 4371   0.938  42.005  14.908
33772W        W 4372  25.844   7.083  12.512
33773W        W 4373  21.276  11.386   3.680
33774W        W 4374  12.841   6.397   2.385
33775W        W 4375  21.293  22.387   1.961
33776W        W 4376  36.062   1.372   3.427
33777W        W 4377  38.266  37.462  12.373
33778W        W 4378  38.083  30.154   1.219
33779W        W 4379  23.586  23.425   2.841
33780W        W 4380   4.702  18.905   1.386
33781W        W 4381  21.146   6.836   0.241
33782W        W 4382  44.912  17.262   0.023
33783W        W 4383  20.636   0.965  11.512
33784W        W 4384   0.487  24.659   4.652
33785W        W 4385  17.988  42.973  10.176
33786W        W 4386  33.881  28.238   2.351
33787W        W 4387   0.375  29.339   4.609
33788W        W 4388  35.663  15.363   2.401
33789W        W 4389  28.693  30.728  11.647
33790W        W 4390  34.366  34.499  14.993
33791W        W 4391  14.197   4.370   0.662
33792W        W 4392  30.055  15.974   0.704
33793W        W 4393  23.718   9.935   2.752
33794W        W 4394   2.520  22.048   2.099
33795W        W 4395  27.185  23.907  10.959
33796W        W 4396  34.247   8.603  14.808
33797W        W 4397  27.784  17.045  11.053
33798W        W 4398  28.422  18.610  10.457
33799W        W 4399  32.375   5.409  13.520
33800W        W 4400  37.008   9.726   3.370
33801W        W 4401  23.061   4.787   3.162
33802W        W 4402   9.787  40.370   0.382
33803W        W 4403   0.480  15.721   0.506
33804W        W 4404  22.649  16.345  14.892
33805W        W 4405  11.552   8.897  14.510
33806W        W 4406  15.269  39.880   1.292
33807W        W 4407  35.477  20.060   0.955
33808W        W 4408   8.126  12.375  11.604
33809W        W 4409  22.747  16.313  13.997
33810W        W 4410  24.559  23.783   0.006
33811W        W 4411   4.921  33.956   0.246
33812W        W 4412  35.656  38.925  11.947
33813W        W 4413  24.229  35.948  13.823
33814W        W 4414  38.284   8.092  12.018
33815W        W 4415  15.099  44.777  13.414
33816W        W 4416  16.583  22.390   0.403
33817W        W 4417  24.144  44.757  13.482
33818W        W 4418  16.068  30.143  10.646
33819W        W 4419  41.699  23.227   1.746
33820W        W 4420  44.247  30.139  12.388
33821W        W 4421   5.969  14.192  14.107
33822W        W 4422  12.117  15.218  12.377
33823W        W 4423  26.620  16.852  13.440
33824W        W 4424  22.526  23.881   2.005
33825W        W 4425  18.767  34.885  13.982
33826W        W 4426   3.722  10.196   1.770
33827W        W 4427  27.747  44.986   1.259
33828W        W 4428  44.419  39.066  13.197
33829W        W 4429  15.169  21.835   1.381
33830W        W 4430  13.593  12.841  12.432
33831W        W 4431   9.732   7.195  10.813
33832W        W 4432  36.955  43.482  11.048
33833W        W 4433   1.007   3.075  11.046
33834W        W 4434  25.756  16.205   3.651
33835W        W 4435  19.584  19.000   1.825
33836W        W 4436  20.999  24.776  13.826
33837W        W 4437  12.138  13.135  12.069
33838W        W 4438  13.342  16.790  12.909
33839W        W 4439   8.610  24.536  11.512
33840W        W 4440  26.470  23.938   0.765
33841W        W 4441  44.390  26.543   2.065
33842W        W 4442  41.959  10.678   0.514
33843W        W 4443  16.142  36.165  11.925
33844W        W 4444  29.246  12.178  11.603
33845W        W 4445   6.139  39.560   1.746
33846W        W 4446  15.489  43.017   3.330
33847W        W 4447   7.254  42.069   4.240
33848W        W 4448  25.383  26.890   2.733
33849W        W 4449  18.728  18.240  12.060
33850W        W 4450  32.593  33.609   2.363
33851W        W 4451  37.039   9.118   4.698
33852W        W 4452  21.942  41.960   1.425
33853W        W 4453  39.757  39.072  14.679
33854W        W 4454  18.690   5.938  13.475
33855W        W 4455  17.153   6.294   0.291
33856W        W 4456  42.379  27.895   1.312
33857W        W 4457  44.833  23.493  13.735
33858W        W 4458  10.550  21.577   4.584
33859W        W 4459   3.157  17.096  12.673
33860W        W 4460   6.545  10.342   2.221
33861W        W 4461  18.192  31.280  12.505
33862W        W 4462  28.207  42.455   3.862
33863W        W 4463  29.540  32.955  14.540
33864W        W 4464  33.472  39.988   3.222
33865W        W 4465  32.888  22.991   4.835
33866W        W 4466   1.732  15.046   4.086
33867W        W 4467  25.809  23.486   2.140
33868W        W 4468  27.819  40.014   4.644
33869W        W 4469  10.940  22.987  14.334
33870W        W 4470  14.257  11.927  13.432
33871W        W 4471  42.717  41.837  14.331
33872W        W 4472   3.810  19.630   3.286
33873W        W 4473  36.995  26.146   2.129
33874W        W 4474   2.591  22.054  11.595
33875W        W 4475  10.239  16.653  13.492
33876W        W 4476  34.248   5.260   2.281
33877W        W 4477  21.659  41.290  13.476
33878W        W 4478   2.285  31.205   1.271
33879W        W 4479   0.901  22.121  13.022
33880W        W 4480  34.588  36.869  13.354
33881W        W 4481  37.351  13.580   2.312
33882W        W 4482  14.209  21.023   2.912
33883W        W 4483  35.309  17.229  11.806
33884W        W 4484  44.049  32.653  10.670
33885W        W 4485   1.798  34.624  12.857
33886W        W 4486   2.178  18.223   4.854
33887W        W 4487  11.361   1.311  14.439
33888W        W 4488   4.946  26.526   0.218
33889W        W 4489  38.482  27.956   3.722
33890W        W 4490  40.721   9.074   3.699
33891W        W 4491  42.400  38.511   4.223
33892W        W 4492  27.084  24.384   1.300
33893W        W 4493  33.154  40.495  10.909
33894W        W 4494  27.702  18.675   0.031
33895W        W 4495  41.907  14.441  11.389
33896W        W 4496  21.744  39.754  14.178
33897W        W 4497  17.537   3.316  14.431
33898W        W 4498  10.742   2.148  10.752
33899W        W 4499  39.049  11.246  12.578
33900W        W 4500   1.710  39.298  12.878
33901W        W 4501   3.413  41.295  11.855
33902W        W 4502  41.918  38.594  11.943
33903W        W 4503  10.313  20.710  12.635
33904W        W 4504  41.942  36.911  13.580
33905W        W 4505  28.551  11.442   2.700
33906W        W 4506  31.782  35.397  13.073
33907W        W 4507  32.623  20.382   4.625
33908W        W 4508  10.635  38.468  14.228
33909W        W 4509  20.003   7.370   0.789
33910W        W 4510   1.752  20.022   3.338
33911W        W 4511   5.819   1.044  12.100
33912W        W 4512  21.136  36.572   3.667
33913W        W 4513  20.043   3.692   1.184
33914W        W 4514  27.265   3.747  14.829
33915W        W 4515  11.548  24.123  14.959
33916W        W 4516  13.623  38.792   3.221
33917W        W 4517   1.923   8.365   1.641
33918W        W 4518   6.966  35.215  13.891
33919W        W 4519  19.413   8.464  14.498
33920W        W 4520  31.687  31.015   0.464
33921W        W 4521  31.656  20.214   3.248
33922W        W 4522  20.032  23.747  11.361
33923W        W 4523  10.619   6.420   4.238
33924W        W 4524  14.637  29.532   1.354
33925W        W 4525   2.950  24.093  14.549
33926W        W 4526   0.905  24.089   2.071
33927W        W 4527  23.586  29.332  12.930
33928W        W 4528  34.705  18.810   4.453
33929W        W 4529   1.892  12.598   4.887
33930W        W 4530  31.945  16.291   3.963
33931W        W 4531  38.559  33.382  11.606
33932W        W 4532   9.610  16.765  11.120
33933W        W 4533   8.796  28.371   0.376
33934W        W 4534  38.576   0.776  11.190
33935W        W 4535  17.990  38.110   2.274
33936W        W 4536  21.596  34.644   3.233
33937W        W 4537   9.778   0.072   1.226
33938W        W 4538  23.127  40.571  14.513
33939W        W 4539  11.870  39.915   0.929
33940W        W 4540   0.393  30.567   4.432
33941W        W 4541  12.083   3.909   1.154
33942W        W 4542   4.429  33.425  11.403
33943W        W 4543  40.078  36.718  13.783
33944W        W 4544  40.100  19.942   0.321
33945W        W 4545   8.262  17.036   2.616
33946W        W 4546   0.899  27.783   2.277
33947W        W 4547   3.210  10.707   1.484
33948W        W 4548  10.745  18.995   3.391
33949W        W 4549  29.491  29.030  10.943
33950W        W 4550  42.754  23.974  14.446
33951W        W 4551  14.766  36.049  13.910
33952W        W 4552  30.598  42.451   0.821
33953W        W 4553  22.341  19.867  14.938
33954W        W 4554  42.353  19.379   0.013
33955W        W 4555  31.476   9.837  10.694
33956W        W 4556  24.630  25.232  11.850
33957W        W 4557   2.930  22.074   4.682
33958W        W 4558  43.203  37.948   1.437
33959W        W 4559  19.476  44.939  12.906
33960W        W 4560  18.835  43.601  13.937
33961W        W 4561  42.972  25.985  13.412
33962W        W 4562  42.019  11.848   2.097
33963W        W 4563  30.383  44.882   0.902
33964W        W 4564  41.409   0.776  14.830
33965W        W 4565  24.405  11.315   3.786
33966W        W 4566  32.685  16.122   4.274
33967W        W 4567   3.780  17.773   3.410
33968W        W 4568  34.345  38.229   3.676
33969W        W 4569  36.420  17.187   0.910
33970W        W 4570  29.588  24.139  11.280
33971W        W 4571   7.162   7.182  11.574
33972W        W 4572  34.763  38.687   4.482
33973W        W 4573   0.045  18.284   1.710
33974W        W 4574  14.712   9.159  14.482
33975W        W 4575  29.203  27.081  12.034
33976W        W 4576  38.601  41.591   2.844
33977W        W 4577   0.912   7.158  11.688
33978W        W 4578  34.377   4.728  14.434
33979W        W 4579  32.994  29.858   4.211
33980W        W 4580   7.124  44.248   4.676
33981W        W 4581  30.520  16.892   3.230
33982W        W 4582   2.660  17.151   3.675
33983W        W 4583  10.182   1.191  13.502
33984W        W 4584  39.046  18.516   2.765
33985W        W 4585   5.948  27.076   2.728
33986W        W 4586  42.715   0.006  11.300
33987W        W 4587  10.728  35.477  10.773
33988W        W 4588  19.202   3.799  13.158
33989W        W 4589  17.103   9.731   3.252
33990W        W 4590  41.613  12.134  12.906
33991W        W 4591  10.358  43.014  14.737
33992W        W 4592   4.460  39.560  11.180
33993W        W 4593  44.201  13.587   0.449
33994W        W 4594  35.357  38.006   3.132
33995W        W 4595  10.339   3.341   3.638
33996W        W 4596   6.589  11.799  14.383
33997W        W 4597   3.867  39.150  11.299
33998W        W 4598  29.675  25.601   4.271
33999W        W 4599  20.081  22.774   1.479
34000W        W 4600   0.231   6.178   1.307
34001W        W 4601  34.053  40.790  13.944
34002W        W 4602  16.026  26.477  10.634
34003W        W 4603  34.364  21.128   3.229
34004W        W 4604  35.948  41.223  13.475
34005W        W 4605  10.033   3.063   0.940
34006W        W 4606  44.543  33.229  13.259
34007W        W 4607  41.247  23.480   1.613
34008W        W 4608   0.774  23.651  10.902
34009W        W 4609   1.913  33.369  12.226
34010W        W 4610  40.848   2.006  10.724
34011W        W 4611  24.559  10.351  11.724
34012W        W 4612  35.001  42.534  14.863
34013W        W 4613  32.177  25.045  13.390
34014W        W 4614  26.544  34.382   3.810
34015W        W 4615  42.253   0.934   0.231
34016W        W 4616   5.296  29.047   4.071
34017W        W 4617  20.695  28.217   1.272
34018W        W 4618   5.416  38.060  10.741
34019W        W 4619  34.000  32.066   2.312
34020W        W 4620   0.929  17.724  13.962
34021W        W 4621  43.131  21.242  11.948
34022W        W 4622  21.310  15.573  11.133
34023W        W 4623   7.425  34.013  10.410
34024W        W 4624  35.990  32.403   0.394
34025W        W 4625  14.886   9.631  13.603
34026W        W 4626  23.532  14.575   2.253
34027W        W 4627  21.236   3.982   1.835
34028W        W 4628  42.350  10.228   1.168
34029W        W 4629  35.423   9.219   4.373
34030W        W 4630  22.309  35.575  14.355
34031W        W 4631   5.216   4.450   0.462
34032W        W 4632  35.392  38.066  14.131
34033W        W 4633  27.431  35.600  12.859
34034W        W 4634  16.850  36.696   4.568
34035W        W 4635  41.274   3.653  12.522
34036W        W 4636  30.067  13.132  12.201
34037W        W 4637  27.233  12.207  13.420
34038W        W 4638  17.118  21.335   1.672
34039W        W 4639  34.910   9.700   0.358
34040W        W 4640  19.312  10.106   5.122
34041W        W 4641  15.323  23.657   3.171
34042W        W 4642  17.106  33.096  13.856
34043W        W 4643  15.550  35.794   5.078
34044W        W 4644   9.391  38.620  10.677
34045W        W 4645  44.976  25.956   0.190
34046W        W 4646  14.270   9.854  10.491
34047W        W 4647  22.688  42.218   4.346
34048W        W 4648  34.916  15.298   1.729
34049W        W 4649   8.866  11.817   3.650
34050W        W 4650  14.859  23.420   3.662
34051W        W 4651  10.404   3.229   5.203
34052W        W 4652  44.738  21.625  11.070
34053W        W 4653  23.988  38.893   1.726
34054W        W 4654  32.163  44.425   1.905
34055W        W 4655  14.895   0.374   0.473
34056W        W 4656  10.086   8.537  14.359
34057W        W 4657  17.553  40.528  10.640
34058W        W 4658  16.278  10.855  12.347
34059W        W 4659  30.940  21.996  14.367
34060W        W 4660   5.917  28.506   3.814
34061W        W 4661   6.151  13.978  11.593
34062W        W 4662   6.662  27.167   1.343
34063W        W 4663   3.424  43.340   2.257
34064W        W 4664  15.861  32.614   5.623
34065W        W 4665  11.286  19.622  10.628
34066W        W 4666  42.307  13.171   1.797
34067W        W 4667  37.467  38.988   3.619
34068W        W 4668  41.787  35.599   2.708
34069W        W 4669  19.226  32.576  13.641
34070W        W 4670  25.963  41.955   4.749
34071W        W 4671  12.813   9.472   2.459
34072W        W 4672  38.307   1.186  14.844
34073W        W 4673  32.614   8.727   0.870
34074W        W 4674  33.940  32.379  12.973
34075W        W 4675  41.420  41.572  14.215
34076W        W 4676  23.229  17.660  12.593
34077W        W 4677  44.193  26.425  12.824
34078W        W 4678  20.472  34.375  13.917
34079W        W 4679  15.595   6.179  12.228
34080W        W 4680  35.038   9.421  11.146
34081W        W 4681   3.945  34.007   0.440
34082W        W 4682  24.318   1.923   4.523
34083W        W 4683  12.677  29.074   0.443
34084W        W 4684  28.421  32.351   3.284
34085W        W 4685  41.891   3.878  12.673
34086W        W 4686  21.149  23.825   0.026
34087W        W 4687  10.169  43.890   0.752
34088W        W 4688  16.614  30.635   0.969
34089W        W 4689  35.069   1.356  14.994
34090W        W 4690  26.495  36.031  14.333
34091W        W 4691  30.407  34.477   3.358
34092W        W 4692  40.196  42.676   4.521
34093W        W 4693  14.378  25.137  10.305
34094W        W 4694   2.853   5.210  12.992
34095W        W 4695  20.827  37.255   4.168
34096W        W 4696  18.835  36.844   1.400
34097W        W 4697   2.650  26.072  13.150
34098W        W 4698  25.670   3.017  11.120
34099W        W 4699  38.487  42.501  14.869
34100W        W 4700  39.480  41.332   1.929
34101W        W 4701  11.181   0.959  12.580
34102W        W 4702  42.110  10.775  13.499
34103W        W 4703  36.160  26.848  11.639
34104W        W 4704  10.838   3.749  14.967
34105W        W 4705  28.579   4.140   1.432
34106W        W 4706  36.334   2.536  11.631
34107W        W 4707   0.702  40.066  11.539
34108W        W 4708  39.703  20.651  11.635
34109W        W 4709   1.353  34.651   0.165
34110W        W 4710  16.772  42.887  10.094
34111W        W 4711   1.757  39.302  14.404
34112W        W 4712   4.916   4.692   3.592
34113W        W 4713  19.300  16.287  14.417
34114W        W 4714  17.331   6.326   4.534
34115W        W 4715  14.514  25.719  13.607
34116W        W 4716   4.524  18.548   4.252
34117W        W 4717   7.082  30.001   0.850
34118W        W 4718  28.946  23.090   1.747
34119W        W 4719  16.085  39.914  11.906
34120W        W 4720  17.027  31.971  10.729
34121W        W 4721  11.667  27.516  13.007
34122W        W 4722  42.568   8.464   3.608
34123W        W 4723  39.044  31.105  13.267
34124W        W 4724  19.285  43.308  12.817
34125W        W 4725  21.072  28.435   1.536
34126W        W 4726  11.640  28.327  12.517
34127W        W 4727  28.686  36.851  10.679
34128W        W 4728  25.005  20.972  13.857
34129W        W 4729  38.461  22.968   3.741
34130W        W 4730  36.165  39.945   0.403
34131W        W 4731  35.088  15.341  12.830
34132W        W 4732  43.454   7.883   3.764
34133W        W 4733   3.202   7.877   0.961
34134W        W 4734  25.700   7.853   4.180
34135W        W 4735  30.407   0.398  13.582
34136W        W 4736   1.107  44.258  13.368
34137W        W 4737  35.165  20.253  14.302
34138W        W 4738  25.584   7.909  13.498
34139W        W 4739  37.404  17.834  13.546
34140W        W 4740  38.847  22.654   5.007
34141W        W 4741  22.761  41.488   1.179
34142W        W 4742  44.424  13.993   5.042
34143W        W 4743  15.788  29.901   2.720
34144W        W 4744   6.461  22.774  12.565
34145W        W 4745   4.733  23.195  13.787
34146W        W 4746  36.462  15.185   0.365
34147W        W 4747   1.382  10.116  13.646
34148W        W 4748   2.870  18.229  14.657
34149W        W 4749  29.173   3.415  11.945
34150W        W 4750   5.525  30.108  11.909
34151W        W 4751  16.527   7.241  12.596
34152W        W 4752  30.548  32.619  14.937
34153W        W 4753  35.072   0.340  13.017
34154W        W 4754  36.998   7.307   0.709
34155W        W 4755  37.571  21.614   2.355
34156W        W 4756  37.055  32.892   2.961
34157W        W 4757   6.501  35.360  12.628
34158W        W 4758   3.509   0.916   2.694
34159W        W 4759  37.392   5.112  13.891
34160W        W 4760  25.486  32.620   4.398
34161W        W 4761   4.186  24.285  10.694
34162W        W 4762  20.420  35.548   4.027
34163W        W 4763  13.628  41.248   3.734
34164W        W 4764   8.383  13.849   4.691
34165W        W 4765   2.641   9.089  14.435
34166W        W 4766  21.579   5.238   4.785
34167W        W 4767  43.344   5.205   3.339
34168W        W 4768  35.881   4.782  11.923
34169W        W 4769  21.619   5.349   2.231
34170W        W 4770  36.462  19.593  11.828
34171W        W 4771   1.186  19.216  11.654
34172W        W 4772   8.890  17.740   1.768
34173W        W 4773  43.784   4.436  13.550
34174W        W 4774  16.568  36.996   4.891
34175W        W 4775  41.875  17.693  13.017
34176W        W 4776  28.435   2.394  14.435
34177W        W 4777  42.385  26.816   1.378
34178W        W 4778  27.039   7.671   0.367
34179W        W 4779  26.910   6.513   2.290
34180W        W 4780  27.228  26.539  11.220
34181W        W 4781  14.289  26.154  13.520
34182W        W 4782  16.804  16.707  13.980
34183W        W 4783  34.644  21.598  11.121
34184W        W 4784  42.381   8.861   1.189
34185W        W 4785  30.208  28.371   3.651
34186W        W 4786   1.432  29.774  13.018
34187W        W 4787  33.900  12.272  11.859
34188W        W 4788  37.624   1.828   0.799
34189W        W 4789  11.028  19.239  11.935
34190W        W 4790  19.925  24.771  11.890
34191W        W 4791  38.924  14.155   0.415
34192W        W 4792   8.471  12.084   2.676
34193W        W 4793  42.787  13.828   1.243
34194W        W 4794   1.721  21.026  14.612
34195W        W 4795  42.363  28.841  11.629
34196W        W 4796   9.282   7.675  12.788
34197W        W 4797  32.096   9.141   2.867
34198W        W 4798  22.508  44.803  12.484
34199W        W 4799  31.334  31.004  12.978
34200W        W 4800  29.379  25.017  13.911
34201W        W 4801   1.374  27.921  10.762
34202W        W 4802  42.402  35.605   4.769
34203W        W 4803  20.669  15.411  14.845
34204W        W 4804   1.753   1.792   4.566
34205W        W 4805  37.059  20.547  12.466
34206W        W 4806  10.258   4.265   4.339
34207W        W 4807   8.381  42.234  14.387
34208W        W 4808  30.982  22.029  12.403
34209W        W 4809  44.278   5.621  13.839
34210W        W 4810  41.691  39.456  11.309
34211W        W 4811  22.953  29.282   1.697
34212W        W 4812  24.119  13.787   2.168
34213W        W 4813  40.822  23.696  14.324
34214W        W 4814   2.294   5.946   4.183
34215W        W 4815  28.921  17.283  13.118
34216W        W 4816  15.643  24.179  13.890
34217W        W 4817  25.241   1.714  11.143
34218W        W 4818  31.537  12.387   2.735
34219W        W 4819  14.847  38.337  14.468
34220W        W 4820  12.103  32.184   0.901
34221W        W 4821  37.294  18.565  13.045
34222W        W 4822  19.660  27.633   0.901
34223W        W 4823   7.005  12.346  12.228
34224W        W 4824   7.765  12.307   1.926
34225W        W 4825  17.121   6.743  11.448
34226W        W 4826  23.531  24.913   0.953
34227W        W 4827  16.019  12.404   0.410
34228W        W 4828  37.096   7.821   1.875
34229W        W 4829  25.104  21.080   0.286
34230W        W 4830  13.557   6.829   2.303
34231W        W 4831  21.586  27.552  13.422
34232W        W 4832  39.527  36.602   2.259
34233W        W 4833  43.053  24.683  11.967
34234W        W 4834  43.424  32.806   4.805
34235W        W 4835   3.164   2.333   0.747
34236W        W 4836  18.256  21.573   1.069
34237W        W 4837  27.487   2.328   3.556
34238W        W 4838  19.206  44.343  13.891
34239W        W 4839  21.310  36.007  12.583
34240W        W 4840   4.238  13.090   1.230
34241W        W 4841  29.908   3.481   2.504
34242W        W 4842  32.025  30.678  12.630
34243W        W 4843  40.886  31.628  12.783
34244W        W 4844  23.815  29.424   0.509
34245W        W 4845  36.805   8.182  14.062
34246W        W 4846  29.920  10.905  12.508
34247W        W 4847  14.201  36.684  13.539
34248W        W 4848   2.899   2.843  12.519
34249W        W 4849  44.731  13.875   2.903
34250W        W 4850  31.103  23.989   3.677
34251W        W 4851   6.822  18.915   3.975
34252W        W 4852  20.310  13.601   0.761
34253W        W 4853  13.718   7.377  14.383
34254W        W 4854  36.601   8.347  12.034
34255W        W 4855   8.684  22.995  11.181
34256W        W 4856  38.963  43.049   3.311
34257W        W 4857  14.214  22.622   3.265
34258W        W 4858  34.804  38.481   3.718
34259W        W 4859   8.866  27.422  13.389
34260W        W 4860  15.019   1.651  11.605
34261W        W 4861  15.996   3.605   4.076
34262W        W 4862  37.076  39.878   2.766
34263W        W 4863  28.150  15.341  11.593
34264W        W 4864  20.711  35.056   2.305
34265W        W 4865  24.150   1.304  11.927
34266W        W 4866  32.915  43.342   2.031
34267W        W 4867  22.125  22.548  14.726
34268W        W 4868  37.928  32.813   2.734
34269W        W 4869   5.223  22.000  13.465
34270W        W 4870  10.270  20.183  14.443
34271W        W 4871  17.034   4.490  11.181
34272W        W 4872  19.604   4.425  12.512
34273W        W 4873   3.361  10.944  13.984
34274W        W 4874  16.406   0.393   2.684
34275W        W 4875  28.933  17.947  12.513
34276W        W 4876  38.316   9.229  13.422
34277W        W 4877  30.932  40.009  11.212
34278W        W 4878  10.873  15.212   4.154
34279W        W 4879  22.085  10.216  11.833
34280W        W 4880   8.939  21.529   3.793
34281W        W 4881   4.552  41.803  11.860
34282W        W 4882  28.482  38.345   0.256
34283W        W 4883  18.510  23.366  10.819
34284W        W 4884  28.604   5.435   0.576
34285W        W 4885  44.893  20.430   1.206
34286W        W 4886  44.794  14.369   2.848
34287W        W 4887  26.454  19.132  10.634
34288W        W 4888  13.220  39.707  12.388
34289W        W 4889  29.176  28.154   0.847
34290W        W 4890   8.285  27.988   3.992
34291W        W 4891  13.598  21.839   3.430
34292W        W 4892  14.407  28.246   3.148
34293W        W 4893  36.600  32.469  13.356
34294W        W 4894  39.595   3.512  12.951
34295W        W 4895  42.017  39.907  14.982
34296W        W 4896  10.360  36.038  12.849
34297W        W 4897  19.608  36.521   5.219
34298W        W 4898  23.561  10.125  11.916
34299W        W 4899   0.560  12.943  13.966
34300W        W 4900  16.267  34.187   4.490
34301W        W 4901  12.322  26.506  12.508
34302W        W 4902  42.440  21.799  11.268
34303W        W 4903  44.003  20.607  12.532
34304W        W 4904  17.464  10.842  12.956
34305W        W 4905   8.655  30.568   3.886
34306W        W 4906  15.144  44.470  14.539
34307W        W 4907  23.747  19.701   2.787
34308W        W 4908  11.773  36.032   1.757
34309W        W 4909   2.167   0.889   0.716
34310W        W 4910  16.541  19.990  14.931
34311W        W 4911  22.814  11.729  12.511
34312W        W 4912  44.797  28.590  11.247
34313W        W 4913  39.493  27.894  11.569
34314W        W 4914  23.623  30.155   2.703
34315W        W 4915  18.587  11.319   2.941
34316W        W 4916  37.277  31.136  14.919
34317W        W 4917   6.800  41.398  12.919
34318W        W 4918   3.270  16.321  14.413
34319W        W 4919   3.021   4.725  12.958
34320W        W 4920  10.301  30.778  14.335
34321W        W 4921  13.712  43.836  12.628
34322W        W 4922  32.157  23.465  10.773
34323W        W 4923  12.777  12.353  11.108
34324W        W 4924  26.722  13.259  12.331
34325W        W 4925  44.222  32.608  13.992
34326W        W 4926  18.061  39.451  10.632
34327W        W 4927  22.759  39.957  12.466
34328W        W 4928  18.669  42.948   4.634
34329W        W 4929   6.235  19.845  11.598
34330W        W 4930   4.675  17.824   2.087
34331W        W 4931   1.628   6.844  14.341
34332W        W 4932   9.515  13.312  14.967
34333W        W 4933  25.807   3.519  11.165
34334W        W 4934  24.440  25.665  11.610
34335W        W 4935  26.030  15.187   4.971
34336W        W 4936  12.864   7.731  14.979
34337W        W 4937  39.999  23.302   2.229
34338W        W 4938  40.619  31.163   2.852
34339W        W 4939   0.378  11.753   4.172
34340W        W 4940  41.731   0.062   0.773
34341W        W 4941  20.542  17.610   2.125
34342W        W 4942  23.311  20.650  14.311
34343W        W 4943  14.136  39.046   1.789
34344W        W 4944  30.480  30.458  11.901
34345W        W 4945  26.569  41.929   2.615
34346W        W 4946  35.369  10.853  12.008
34347W        W 4947   3.305   7.601  11.219
34348W        W 4948  37.212  39.867   1.244
34349W        W 4949   3.781  41.947  13.952
34350W        W 4950   2.667  38.860  12.008
34351W        W 4951  14.248  42.357  10.513
34352W        W 4952   3.810   0.060   4.086
34353W        W 4953  26.383  35.771   2.684
34354W        W 4954  41.861  44.392  10.820
34355W        W 4955  41.757  14.921  11.457
34356W        W 4956  43.540  14.921  14.909
34357W        W 4957   8.252  43.672   3.349
34358W        W 4958   9.661  35.060   2.833
34359W        W 4959  31.876  42.968  12.614
34360W        W 4960  11.905  43.935   0.276
34361W        W 4961  44.315  22.963   0.644
34362W        W 4962  33.035  37.447  13.906
34363W        W 4963  42.891  13.573  13.954
34364W        W 4964  40.972  26.615  10.713
34365W        W 4965  10.707   8.154   4.360
34366W        W 4966  12.852  43.245  13.836
34367W        W 4967   8.807  33.682  10.701
34368W        W 4968  41.460  37.471  11.407
34369W        W 4969  20.087  43.223   4.914
34370W        W 4970  16.002  17.236   2.844
34371W        W 4971  18.158  15.394   0.253
34372W        W 4972  42.738  15.045   2.278
34373W        W 4973  25.112   2.642   5.147
34374W        W 4974   4.313  12.501  12.785
34375W        W 4975  37.970  42.754  13.906
34376W        W 4976  22.482   3.870   0.913
34377W        W 4977  31.712  26.452  12.379
34378W        W 4978   5.272  44.016   3.624
34379W        W 4979   7.708  18.162  14.035
34380W        W 4980   0.015  12.032  14.491
34381W        W 4981  39.001  16.726  13.123
34382W        W 4982  17.676   6.851  12.803
34383W        W 4983   4.694  24.685   3.757
34384W        W 4984   5.843  15.544   1.334
34385W        W 4985   4.253  13.695  10.588
34386W        W 4986  20.019  15.175   0.178
34387W        W 4987  36.517  29.073  14.478
34388W        W 4988  10.722  13.857  10.652
34389W        W 4989  25.017  11.348   0.075
34390W        W 4990  29.202   2.376  13.866
34391W        W 4991  28.385   2.397   0.464
34392W        W 4992  22.166  10.172  12.850
34393W        W 4993  21.991  21.442   2.768
34394W        W 4994  14.371  16.309  12.509
34395W        W 4995  44.234  36.893  13.060
34396W        W 4996  32.370  38.058   2.103
34397W        W 4997  21.492  41.054  11.092
34398W        W 4998  20.583  13.917   2.622
34399W        W 4999   3.111  21.125   1.047
34400W        W 5000   6.019   6.426   2.150
34401W        W 5001  23.038  34.606  14.850
34402W        W 5002   5.800   1.430  14.748
34403W        W 5003  11.769   4.507  11.586
34404W        W 5004  32.002  28.143  10.493
34405W        W 5005  20.746   3.180   4.515
34406W        W 5006   0.200   5.064   3.246
34407W        W 5007  31.322  18.636   0.180
34408W        W 5008  41.011  18.196   9.586
34409W        W 5009  21.486  22.048   4.597
34410W        W 5010  34.286  11.780  14.362
34411W        W 5011  32.016   0.536  13.513
34412W        W 5012  38.706  39.846   1.152
34413W        W 5013  16.751  16.660   3.741
34414W        W 5014   6.690  28.407   2.265
34415W        W 5015  41.918   1.847  10.343
34416W        W 5016   9.304  21.074  14.004
34417W        W 5017  25.166  32.530  11.888
34418W        W 5018  15.166  10.440  12.103
34419W        W 5019  32.459  42.079   0.820
34420W        W 5020  43.016  23.935   3.977
34421W        W 5021  27.131   2.226  14.028
34422W        W 5022  17.225  34.681   1.204
34423W        W 5023   1.420  16.092  11.489
34424W        W 5024  30.097  44.260   4.038
34425W        W 5025   3.585  25.517   0.342
34426W        W 5026   4.319   6.491  14.176
34427W        W 5027   7.698   3.736  12.008
34428W        W 5028  32.482   6.799   4.540
34429W        W 5029   7.338  39.036   4.172
34430W        W 5030  29.544  26.672   2.688
34431W        W 5031  43.211   9.718  12.590
34432W        W 5032  36.437  24.632  11.005
34433W        W 5033  11.070  44.915  14.508
34434W        W 5034  35.481   5.638  14.282
34435W        W 5035  29.951  38.613  10.211
34436W        W 5036  28.336   7.694   1.229
34437W        W 5037  35.471   4.077  12.508
34438W        W 5038  14.119  29.219   3.378
34439W        W 5039  22.734  15.902   3.264
34440W        W 5040  19.677   2.780  11.428
34441W        W 5041  18.593  32.097   5.273
34442W        W 5042   0.654  26.314   4.986
34443W        W 5043  40.991   0.732  11.207
34444W        W 5044  20.486  22.224  10.650
34445W        W 5045   9.785  40.034   0.812
34446W        W 5046  25.728  23.194  10.448
34447W        W 5047  16.573  13.330  13.873
34448W        W 5048   0.697  27.101   0.277
34449W        W 5049  25.481  17.738  13.865
34450W        W 5050  42.566  34.561  13.547
34451W        W 5051  24.136  32.362  13.227
34452W        W 5052  41.321  33.646  11.167
34453W        W 5053   6.624  10.819  14.514
34454W        W 5054  35.397   9.924  14.511
34455W        W 5055  24.963  33.925   1.717
34456W        W 5056  33.928   8.145  11.584
34457W        W 5057  26.185  37.380   3.628
34458W        W 5058  40.999   8.628  14.069
34459W        W 5059  44.829  28.450   3.188
34460W        W 5060  39.430   4.561  14.792
34461W        W 5061   0.830  11.129   0.175
34462W        W 5062  38.828  42.257  11.522
34463W        W 5063  17.956  26.880   2.274
34464W        W 5064   5.413  44.915  11.408
34465W        W 5065  28.114  37.336  12.567
34466W        W 5066   1.093  25.481  12.494
34467W        W 5067  21.349  40.752  10.612
34468W        W 5068   9.225   3.390   0.281
34469W        W 5069  20.253  22.701  12.521
34470W        W 5070  42.185  13.966  13.526
34471W        W 5071  32.645  12.211  10.642
34472W        W 5072  21.941  41.963   4.771
34473W        W 5073  13.883  10.293  10.958
34474W        W 5074  35.554  38.483  13.873
34475W        W 5075  40.991  24.268  11.485
34476W        W 5076  11.590  44.822   2.888
34477W        W 5077   1.997  19.779   5.120
34478W        W 5078  43.862  24.993   0.500
34479W        W 5079  41.528  15.187  14.941
34480W        W 5080   0.232   3.796   4.574
34481W        W 5081   9.117  30.335  10.371
34482W        W 5082   8.276   7.295  13.933
34483W        W 5083  27.430  22.245  13.970
34484W        W 5084  11.052  12.177  13.955
34485W        W 5085   8.745   5.798  11.314
34486W        W 5086  28.128  40.049  11.111
34487W        W 5087  38.576   7.136   2.236
34488W        W 5088  34.643  41.116  11.618
34489W        W 5089  37.842  19.882   3.289
34490W        W 5090  38.590  39.348   4.575
34491W        W 5091   5.176  27.424  14.354
34492W        W 5092  22.163  12.281  10.714
34493W        W 5093  40.370  35.286  12.946
34494W        W 5094   9.414  39.812   3.557
34495W        W 5095  20.354   7.546   1.414
34496W        W 5096  12.157  15.396   2.786
34497W        W 5097  20.589  24.563  14.544
34498W        W 5098  13.549  32.257  12.548
34499W        W 5099  10.909  21.151   3.277
34500W        W 5100  44.601  34.539   0.455
34501W        W 5101   5.905  41.542  12.380
34502W        W 5102   9.736  22.644   2.163
34503W        W 5103  28.386  33.957  11.411
34504W        W 5104  36.057   6.759   3.786
34505W        W 5105   0.656  15.890  13.544
34506W        W 5106  17.703   7.839   0.856
34507W        W 5107   2.749  38.561  11.497
34508W        W 5108  43.558  40.615   0.447
34509W        W 5109  15.028   5.730  14.088
34510W        W 5110  31.574   2.069   0.376
34511W        W 5111  10.244  21.655  14.920
34512W        W 5112  18.591  38.935  11.758
34513W        W 5113  24.586  32.960  10.683
34514W        W 5114  27.262  37.510   1.821
34515W        W 5115   4.804   0.889   0.686
34516W        W 5116  29.911  23.665  12.954
34517W        W 5117   3.267  42.558  13.772
34518W        W 5118   2.019  26.473  11.082
34519W        W 5119  34.744  21.985  11.835
34520W        W 5120  26.793  44.899  13.883
34521W        W 5121  36.593  29.372   2.238
34522W        W 5122   0.988  16.375  11.468
34523W        W 5123  28.070  15.653  10.181
34524W        W 5124   4.316  15.502   4.035
34525W        W 5125  15.782  25.898  11.235
34526W        W 5126   9.741  27.824  11.962
34527W        W 5127  43.281  10.560   1.503
34528W        W 5128  10.084  17.949   3.272
34529W        W 5129  42.417   9.755   2.724
34530W        W 5130  28.725  40.015  14.598
34531W        W 5131   9.713  24.207   0.212
34532W        W 5132  22.485  12.750   0.697
34533W        W 5133   3.070  27.918   3.146
34534W        W 5134  15.181   6.967   4.638
34535W        W 5135   6.498  41.766  13.129
34536W        W 5136  34.367  38.221  12.839
34537W        W 5137  38.590  21.624   2.290
34538W        W 5138  33.950   9.705  12.770
34539W        W 5139   7.926  29.571  14.761
34540W        W 5140  21.270  29.917  12.964
34541W        W 5141  27.009   1.976   0.498
34542W        W 5142   5.308  36.452   4.887
34543W        W 5143   6.990  17.112  12.066
34544W        W 5144  12.490  22.926   3.372
34545W        W 5145  42.699  41.772  13.337
34546W        W 5146  26.647   3.071  11.499
34547W        W 5147  22.622  20.481   4.158
34548W        W 5148  17.578   8.809  12.422
34549W        W 5149   4.160   6.073  13.942
34550W        W 5150  38.414   0.536   4.763
34551W        W 5151   7.598  18.714   3.187
34552W        W 5152  25.503  27.901   4.570
34553W        W 5153  27.680   9.092   4.084
34554W        W 5154   5.496  23.054  14.260
34555W        W 5155  34.943  36.643   0.856
34556W        W 5156  25.198   7.185   1.433
34557W        W 5157  27.493  18.068   3.692
34558W        W 5158  19.315  10.376   2.568
34559W        W 5159  29.132  23.685  12.469
34560W        W 5160  40.041   1.932  12.165
34561W        W 5161  17.480  40.548  11.921
34562W        W 5162   9.709  31.348   1.293
34563W        W 5163   2.990  30.901   4.171
34564W        W 5164  15.225  20.167   4.505
34565W        W 5165  12.209  12.259  14.720
34566W        W 5166   5.995  20.635  13.346
34567W        W 5167  21.737  32.591  11.603
34568W        W 5168  16.699   0.982   1.393
34569W        W 5169  42.422   8.298   5.569
34570W        W 5170  21.038  38.600   3.653
34571W        W 5171  32.284  25.544   0.810
34572W        W 5172  33.966  16.220   1.454
34573W        W 5173  19.920  13.866  13.055
34574W        W 5174  39.023  15.475   1.758
34575W        W 5175  31.912  27.023  14.093
34576W        W 5176  25.263   6.888  10.411
34577W        W 5177  31.139  19.536   3.615
34578W        W 5178  25.386  33.099   4.632
34579W        W 5179  23.611  12.229  13.414
34580W        W 5180   9.736  28.089  13.003
34581W        W 5181  44.916   4.244  10.616
34582W        W 5182   5.137  14.825   4.651
34583W        W 5183  12.394  15.262   2.285
34584W        W 5184  35.341  21.236   2.253
34585W        W 5185  37.248   3.646  10.813
34586W        W 5186  27.941  11.745  10.689
34587W        W 5187  31.031  44.142   0.188
34588W        W 5188   0.104  19.067   1.512
34589W        W 5189  34.435  29.410  12.326
34590W        W 5190  28.986  26.101  11.688
34591W        W 5191  34.543  21.684  13.007
34592W        W 5192  19.123  42.315   2.198
34593W        W 5193  18.521  10.834  11.246
34594W        W 5194  26.208  23.577   1.771
34595W        W 5195  43.450  14.529   0.233
34596W        W 5196  23.958  31.847   1.347
34597W        W 5197   1.700   1.738  13.318
34598W        W 5198  21.727  26.039   3.393
34599W        W 5199  17.196  37.512  14.582
34600W        W 5200  12.326  42.941  12.403
34601W        W 5201  29.579  30.159   1.432
34602W        W 5202  39.233  39.972  12.577
34603W        W 5203  27.035  13.720   4.638
34604W        W 5204  25.073  13.356  10.687
34605W        W 5205  43.320  28.998  12.914
34606W        W 5206  17.253  21.222   0.434
34607W        W 5207  19.885  20.745  13.272
34608W        W 5208  43.802  27.118  10.753
34609W        W 5209   3.452  34.579  13.710
34610W        W 5210  31.861  12.625   1.430
34611W        W 5211   0.490  40.902   2.934
34612W        W 5212  27.025  24.973   4.190
34613W        W 5213  35.124  16.269  14.922
34614W        W 5214  42.787  13.886   4.539
34615W        W 5215  24.957  34.638   3.245
34616W        W 5216  11.799  28.490   4.519
34617W        W 5217  22.125  21.285  14.025
34618W        W 5218  18.314  34.520   3.725
34619W        W 5219  12.614  37.961  12.992
34620W        W 5220  19.128  20.858   2.715
34621W        W 5221  27.313  22.829   3.113
34622W        W 5222  33.874  34.017  10.902
34623W        W 5223  20.901  34.699   5.187
34624W        W 5224  24.561  18.256   1.680
34625W        W 5225   4.706  14.624   1.818
34626W        W 5226  32.571  13.211  12.525
34627W        W 5227   6.751  17.537  14.668
34628W        W 5228   2.227  28.653   0.657
34629W        W 5229  11.076  22.641   1.908
34630W        W 5230  22.449  14.100   1.756
34631W        W 5231  18.736  35.331   4.503
34632W        W 5232  43.107  11.035  13.961
34633W        W 5233  16.392  13.089  11.085
34634W        W 5234   4.190  34.370  11.873
34635W        W 5235  39.904  26.501   1.493
34636W        W 5236  37.517  40.875   2.000
34637W        W 5237  10.431  27.931  13.782
34638W        W 5238   3.825  25.177  10.949
34639W        W 5239  41.995  18.119  13.955
34640W        W 5240  37.105  16.037  11.174
34641W        W 5241  18.570  41.766   2.630
34642W        W 5242  36.576   8.240   2.629
34643W        W 5243  26.107  17.397   1.336
34644W        W 5244   6.660   9.460  13.501
34645W        W 5245  33.465  10.983  10.630
34646W        W 5246  37.843  23.232  14.570
34647W        W 5247  21.020   6.437   3.470
34648W        W 5248  26.376  13.119  13.922
34649W        W 5249  29.323  18.028   4.556
34650W        W 5250  42.996   2.796   1.718
34651W        W 5251  19.718  11.690  12.583
34652W        W 5252  18.857  10.552  13.827
34653W        W 5253  24.417  43.918   0.753
34654W        W 5254  12.335  39.698   3.359
34655W        W 5255  15.651  11.902  14.532
34656W        W 5256   0.967  31.787   2.838
34657W        W 5257   9.894  27.492   3.642
34658W        W 5258  15.049  23.107  14.757
34659W        W 5259  35.573   7.824   0.810
34660W        W 5260  44.040   8.277  12.901
34661W        W 5261  37.975  27.372   1.771
34662W        W 5262  34.576  21.731   2.255
34663W        W 5263  14.234  20.552   3.166
34664W        W 5264  34.409   3.690   3.640
34665W        W 5265  18.646  44.316  10.666
34666W        W 5266  35.732  24.198   1.840
34667W        W 5267  26.162  37.095   0.446
34668W        W 5268  25.944   9.751  11.086
34669W        W 5269   1.230  11.713  13.333
34670W        W 5270  36.418  16.053  12.031
34671W        W 5271   1.480  43.525   0.213
34672W        W 5272  24.414  31.738   3.237
34673W        W 5273  32.959  16.336   3.735
34674W        W 5274   3.467  39.440  12.141
34675W        W 5275   3.513  43.890  14.453
34676W        W 5276  28.530   1.941   3.267
34677W        W 5277   6.590  20.370  14.439
34678W        W 5278  40.781   5.812   1.973
34679W        W 5279   2.347  41.278   4.774
34680W        W 5280  14.665  31.319   2.969
34681W        W 5281  43.153  39.409   2.397
34682W        W 5282  20.036  25.553   1.702
34683W        W 5283  44.335  13.418  13.098
34684W        W 5284  13.052   0.929   4.162
34685W        W 5285  20.818  10.772  14.804
34686W        W 5286  28.698  21.586  13.019
34687W        W 5287  21.735  16.137  13.836
34688W        W 5288  13.029  35.883   0.303
34689W        W 5289  39.272  33.596  14.535
34690W        W 5290  15.818  18.158   4.114
34691W        W 5291  17.804  40.051  13.160
34692W        W 5292  10.196  39.145  14.460
34693W        W 5293  30.956  29.751   1.353
34694W        W 5294  39.747  19.557   0.295
34695W        W 5295  31.648  12.330   0.258
34696W        W 5296  17.606  32.646  13.278
34697W        W 5297  19.707  20.493   0.037
34698W        W 5298  42.042  38.135   4.161
34699W        W 5299  41.229   7.194   2.567
34700W        W 5300   0.902  22.395  12.000
34701W        W 5301  43.362  26.563   0.701
34702W        W 5302  23.901   0.265   3.630
34703W        W 5303  14.403  20.006   2.793
34704W        W 5304  27.987  28.141   2.171
34705W        W 5305  29.661   5.274  11.663
34706W        W 5306  32.549  35.009  14.294
34707W        W 5307   8.890  23.418  12.012
34708W        W 5308  39.995  42.207  11.204
34709W        W 5309  42.479  24.606   3.753
34710W        W 5310  20.416  33.085   3.220
34711W        W 5311   3.024   5.997  12.638
34712W        W 5312   6.272  34.467  12.105
34713W        W 5313  19.435  16.316  12.071
34714W        W 5314  28.193   3.260   0.032
34715W        W 5315  39.002   3.408   5.169
34716W        W 5316   3.979  23.819  12.190
34717W        W 5317  29.508   5.828   0.795
34718W        W 5318  17.124  33.158  13.307
34719W        W 5319  31.945   9.771  13.914
34720W        W 5320  21.526  13.726  14.555
34721W        W 5321  11.707  17.944   3.791
34722W        W 5322  37.952  28.453   3.249
34723W        W 5323  38.460  22.780   4.648
34724W        W 5324  14.682   3.249   3.784
34725W        W 5325   7.292  23.983   4.594
34726W        W 5326  17.523  19.278  13.204
34727W        W 5327  21.047  28.628   0.483
34728W        W 5328   5.782   4.907   4.604
34729W        W 5329  41.310  36.044  11.010
34730W        W 5330  25.740  39.423   4.386
34731W        W 5331  29.059  16.841   2.166
34732W        W 5332  34.920  12.998   4.149
34733W        W 5333  43.203  13.501   1.323
34734W        W 5334  39.150  30.877   3.664
34735W        W 5335  11.847  10.322  14.110
34736W        W 5336  37.052  41.965  14.619
34737W        W 5337  27.082  30.430   0.374
34738W        W 5338  14.197  21.726   4.177
34739W        W 5339  38.069  30.988  12.190
34740W        W 5340  32.134  38.980  12.600
34741W        W 5341  28.009   4.459  13.281
34742W        W 5342  13.635  24.733  12.566
34743W        W 5343  33.400  17.116  11.921
34744W        W 5344  10.791  22.704   0.961
34745W        W 5345  31.676  20.050   2.363
34746W        W 5346  10.085  41.855  14.777
34747W        W 5347  36.303   9.243  13.602
34748W        W 5348  25.170   2.017   3.587
34749W        W 5349  32.254  42.823  14.806
34750W        W 5350  28.525   6.798  10.683
34751W        W 5351  20.627   6.312  10.964
34752W        W 5352   6.143  11.576   3.726
34753W        W 5353  30.571  38.948   3.671
34754W        W 5354   3.632  30.134  11.488
34755W        W 5355  18.687  34.526  13.268
34756W        W 5356   4.739  21.157  10.515
34757W        W 5357  21.994  15.391   1.662
34758W        W 5358  15.714   2.450  13.370
34759W        W 5359  25.960  24.476  10.696
34760W        W 5360   4.322  30.023   0.798
34761W        W 5361  29.279   6.353   2.828
34762W        W 5362   8.809  29.851   0.714
34763W        W 5363  42.613  16.363  10.843
34764W        W 5364  38.434  42.487  13.787
34765W        W 5365   6.835  23.933  11.194
34766W        W 5366   4.571   7.794   4.948
34767W        W 5367  36.029  23.399  12.466
34768W        W 5368   4.944  17.455  13.867
34769W        W 5369  38.885  31.173   4.412
34770W        W 5370  30.957  26.457   2.714
34771W        W 5371  29.359   7.787   1.190
34772W        W 5372  25.185  19.084  12.196
34773W        W 5373  44.460   4.204   3.442
34774W        W 5374  39.421  28.408  11.460
34775W        W 5375  17.791   5.549  13.133
34776W        W 5376   2.893  22.708  12.077
34777W        W 5377  39.020   8.066   0.907
34778W        W 5378  16.736  25.894  11.002
34779W        W 5379  12.696   8.720  13.546
34780W        W 5380  34.588  44.285   3.702
34781W        W 5381  38.840   2.932  13.902
34782W        W 5382   6.772  29.582   5.044
34783W        W 5383  22.115  19.768   0.385
34784W        W 5384  23.924  41.610  13.014
34785W        W 5385  16.447   1.800   3.700
34786W        W 5386  36.987   2.676  12.328
34787W        W 5387  30.763   4.410  11.999
34788W        W 5388   2.377  10.200   1.899
34789W        W 5389  43.841  18.057   3.734
34790W        W 5390   4.886  20.849  12.313
34791W        W 5391  19.236  21.262   1.770
34792W        W 5392   5.309  32.237  10.724
34793W        W 5393  37.022  29.099  12.548
34794W        W 5394  44.891  33.049   0.286
34795W        W 5395  40.577  32.538  11.078
34796W        W 5396   4.436   9.699   4.133
34797W        W 5397   5.644  20.216  14.253
34798W        W 5398  41.299  40.030   3.896
34799W        W 5399  31.522  27.170   0.679
34800W        W 5400  16.038  30.967   2.758
34801W        W 5401  25.804   0.061  11.609
34802W        W 5402   8.761  24.423  12.008
34803W        W 5403  29.862   1.662   4.103
34804W        W 5404  25.121  17.750  11.641
34805W        W 5405  25.691  29.160   0.355
34806W        W 5406   9.908   2.292  13.055
34807W        W 5407  17.292  22.187   3.846
34808W        W 5408  22.818   9.132   0.642
34809W        W 5409  31.923  39.580  11.564
34810W        W 5410  35.374  23.089   0.877
34811W        W 5411  25.725  25.477   1.355
34812W        W 5412  41.866  25.953  14.377
34813W        W 5413   7.817  40.812  12.839
34814W        W 5414   3.143  39.917  14.082
34815W        W 5415   1.283  14.256   1.532
34816W        W 5416  16.226   7.521   2.365
34817W        W 5417  32.689  40.750  10.891
34818W        W 5418  30.516  34.004   0.784
34819W        W 5419   7.295  25.471   2.439
34820W        W 5420   8.202  29.618   1.442
34821W        W 5421   7.027  26.593  13.605
34822W        W 5422  42.071  36.540  11.174
34823W        W 5423  24.207  29.391  11.122
34824W        W 5424  40.473   9.298  14.014
34825W        W 5425  32.505  14.610   1.298
34826W        W 5426  18.166  14.164  14.867
34827W        W 5427  36.461  13.887   0.882
34828W        W 5428  24.219  18.066   3.329
34829W        W 5429  15.928  22.652  11.607
34830W        W 5430   0.206   8.232  12.034
34831W        W 5431  10.240  35.190   2.221
34832W        W 5432  19.627   9.735  12.412
34833W        W 5433  40.862  42.403  13.560
34834W        W 5434   3.013  31.053  12.185
34835W        W 5435  34.900  27.459   2.628
34836W        W 5436  35.634  37.849  12.079
34837W        W 5437  33.487  36.500   3.328
34838W        W 5438  22.418  10.209   3.258
34839W        W 5439  12.729  41.533   4.266
34840W        W 5440  14.752   0.844   0.634
34841W        W 5441  37.110  22.722  12.377
34842W        W 5442   6.313  26.134  13.018
34843W        W 5443  38.964   5.637  13.594
34844W        W 5444  15.775  11.744  12.008
34845W        W 5445  26.208  15.388   4.510
34846W        W 5446  16.099  23.100   0.668
34847W        W 5447  10.417  12.691   3.870
34848W        W 5448  36.567  32.149  10.640
34849W        W 5449   3.122  14.263   2.205
34850W        W 5450  32.909  18.078  11.417
34851W        W 5451  19.617  24.502   0.943
34852W        W 5452  21.089   0.246  13.973
34853W        W 5453  27.437  33.559   4.121
34854W        W 5454  43.530  11.206  11.573
34855W        W 5455  43.812  35.084  13.453
34856W        W 5456   6.456  17.718  11.583
34857W        W 5457   5.400  26.109  13.555
34858W        W 5458   2.802   1.304   3.318
34859W        W 5459  27.270  31.892   4.163
34860W        W 5460  44.727  14.734  12.490
34861W        W 5461  26.816  39.812   4.676
34862W        W 5462  22.358  29.601  11.062
34863W        W 5463  39.006  11.830  12.001
34864W        W 5464  41.127  23.522   4.172
34865W        W 5465  30.946  37.547   9.884
34866W        W 5466   5.060  41.497   4.088
34867W        W 5467  21.720  26.071   1.146
34868W        W 5468  36.441  23.925   4.531
34869W        W 5469  38.489  37.149   0.544
34870W        W 5470   2.329  20.164   0.386
34871W        W 5471   6.663  16.631  13.902
34872W        W 5472   0.035  39.450   3.075
34873W        W 5473  31.416  22.686   2.004
34874W        W 5474  30.929  34.609  12.048
34875W        W 5475  17.139  19.975   3.280
34876W        W 5476  13.725   7.193  12.416
34877W        W 5477   0.734  22.701   2.372
34878W        W 5478  41.998  29.639  12.147
34879W        W 5479  16.539  26.172  14.820
34880W        W 5480  44.692  28.032  11.119
34881W        W 5481  35.500  31.969   0.143
34882W        W 5482  23.134  16.682   4.359
34883W        W 5483  43.319   6.110   3.039
34884W        W 5484  24.313  31.988   1.953
34885W        W 5485  14.193  18.494   0.814
34886W        W 5486  11.350   5.203  12.794
34887W        W 5487  27.093   3.917  12.586
34888W        W 5488  44.660   0.354  14.310
34889W        W 5489  28.466  41.941   0.694
34890W        W 5490   8.827  14.606  12.270
34891W        W 5491  41.811   5.408  11.127
34892W        W 5492  21.356  16.066   1.777
34893W        W 5493   1.989  15.680   0.297
34894W        W 5494  20.472  43.723   1.689
34895W        W 5495  31.990  26.425   0.905
34896W        W 5496  31.287  31.173  11.596
34897W        W 5497  15.817  39.152  14.816
34898W        W 5498  30.913  21.698  11.597
34899W        W 5499   5.677  11.808   4.081
34900W        W 5500  11.221   6.179  13.920
34901W        W 5501  17.231  40.490   4.963
34902W        W 5502  19.067  20.691  12.915
34903W        W 5503  24.304  36.841  11.139
34904W        W 5504  14.055  17.588   0.934
34905W        W 5505  15.765   0.648  14.564
34906W        W 5506  37.611  44.254  11.890
34907W        W 5507   3.334  32.488   1.484
34908W        W 5508  43.546  22.741  12.309
34909W        W 5509   2.668   1.793  13.075
34910W        W 5510  29.124  37.017  10.409
34911W        W 5511  37.337  30.575   1.389
34912W        W 5512  37.675  12.023  14.420
34913W        W 5513  38.542  36.748   0.231
34914W        W 5514   9.259  39.304   0.256
34915W        W 5515  32.111   9.697   4.618
34916W        W 5516  24.243  12.811  13.619
34917W        W 5517  19.335  31.928   2.050
34918W        W 5518  36.282  11.603  13.875
34919W        W 5519   6.444  17.747   0.960
34920W        W 5520  36.910  19.840  11.058
34921W        W 5521  31.607  18.079   0.981
34922W        W 5522  20.305  21.586   4.636
34923W        W 5523  22.757  13.635  11.208
34924W        W 5524  13.391  27.545   1.445
34925W        W 5525  44.007  16.710  11.913
34926W        W 5526  24.774   0.045   3.632
34927W        W 5527  38.378  40.358   4.734
34928W        W 5528   7.229   4.698  13.927
34929W        W 5529   4.376   3.775  13.876
34930W        W 5530   9.293  42.998   1.451
34931W        W 5531   8.085  42.191  11.609
34932W        W 5532   1.774  39.540   3.706
34933W        W 5533  18.966  44.532   2.544
34934W        W 5534   9.745  17.973   3.688
34935W        W 5535   5.739  34.350  13.404
34936W        W 5536  17.712  26.366  13.816
34937W        W 5537   0.628   5.920  10.582
34938W        W 5538  22.554   1.759  12.536
34939W        W 5539  31.581  13.779   2.152
34940W        W 5540  14.716  13.768  13.805
34941W        W 5541  39.698  22.798  13.376
34942W        W 5542  19.036  36.598   1.857
34943W        W 5543   2.064  34.744  11.095
34944W        W 5544  26.920  17.086   2.421
34945W        W 5545  38.643  28.613   4.306
34946W        W 5546  24.037  14.309   0.013
34947W        W 5547  11.221  22.839  11.422
34948W        W 5548   8.278  15.324  10.558
34949W        W 5549  15.131  31.211  12.896
34950W        W 5550  11.922   7.279   4.614
34951W        W 5551  21.665  20.733  10.744
34952W        W 5552  36.360  23.676   4.076
34953W        W 5553  38.064   1.039  11.926
34954W        W 5554   8.097   5.142  14.557
34955W        W 5555  27.722  43.852   3.694
34956W        W 5556  37.277  41.620  14.282
34957W        W 5557  38.523  11.758  14.351
34958W        W 5558  34.538   3.769  12.912
34959W        W 5559  38.312  44.270  14.597
34960W        W 5560  34.904  17.665   4.522
34961W        W 5561  12.110  25.528  14.609
34962W        W 5562  35.894   3.198   1.213
34963W        W 5563  17.750  33.831   3.880
34964W        W 5564  33.393   9.876   3.136
34965W        W 5565  20.604  10.782  12.870
34966W        W 5566   5.262  32.511   4.616
34967W        W 5567  20.688  41.359  13.787
34968W        W 5568  28.184  12.119   3.224
34969W        W 5569  38.440   9.649   2.335
34970W        W 5570  28.649  44.731  10.361
34971W        W 5571  11.780  12.924   0.314
34972W        W 5572  12.724  28.777  14.545
34973W        W 5573   7.730  30.380   0.172
34974W        W 5574  39.777   0.665  11.599
34975W        W 5575  43.826  41.582   0.352
34976W        W 5576  15.129  11.265   2.858
34977W        W 5577  19.504   1.463  11.672
34978W        W 5578  19.582  14.629  12.356
34979W        W 5579  26.192  34.195   0.796
34980W        W 5580  29.908  37.462  10.875
34981W        W 5581  28.664  34.929  11.472
34982W        W 5582  39.347  25.823   2.505
34983W        W 5583   5.931  22.544   2.864
34984W        W 5584  42.162  44.319   5.045
34985W        W 5585  27.012   5.064  14.755
34986W        W 5586  21.839  37.987   0.749
34987W        W 5587   6.639  32.051   0.772
34988W        W 5588  16.602  36.502   4.984
34989W        W 5589  29.058  14.632   1.924
34990W        W 5590  19.733  14.102   1.615
34991W        W 5591  31.224  16.958  11.633
34992W        W 5592  22.769  14.970   4.128
34993W        W 5593  26.748  13.257  14.269
34994W        W 5594  41.936  40.907  14.739
34995W        W 5595  22.703   5.857  11.096
34996W        W 5596  19.599  21.128  12.340
34997W        W 5597  16.432  31.913   2.828
34998W        W 5598   5.524   2.140   1.114
34999W        W 5599  39.512  38.326   3.708
35000W        W 5600  31.429  22.158   4.278
35001W        W 5601  28.278  39.043  14.861
35002W        W 5602   5.019  32.501   4.138
35003W        W 5603  21.192  20.493  14.905
35004W        W 5604  20.194  15.210  12.031
35005W        W 5605  25.073  22.569  11.401
35006W        W 5606  22.117  13.054   4.221
35007W        W 5607  19.961  34.048  14.422
35008W        W 5608  21.046  24.492  14.240
35009W        W 5609   0.954  30.461   3.054
35010W        W 5610  25.955  11.689   0.335
35011W        W 5611   6.866  10.953  11.570
35012W        W 5612  15.611   1.388  12.444
35013W        W 5613  33.208   6.400   0.866
35014W        W 5614  25.618   2.973  12.031
35015W        W 5615   8.290  23.037  13.595
35016W        W 5616  33.613  32.553   4.508
35017W        W 5617  30.387  37.396  12.140
35018W        W 5618  40.729  20.952   4.941
35019W        W 5619  44.945  19.110   2.767
35020W        W 5620  10.857   2.683   0.533
35021W        W 5621  23.121  37.505  10.489
35022W        W 5622   4.679  11.912  13.117
35023W        W 5623  20.256  22.567   4.654
35024W        W 5624  22.428  37.462   2.646
35025W        W 5625  25.671  29.688   0.306
35026W        W 5626  44.981  43.333   3.650
35027W        W 5627   9.856  16.173   1.195
35028W        W 5628   8.373  11.164  11.993
35029W        W 5629  43.279  21.146   2.348
35030W        W 5630  38.949  11.391  14.087
35031W        W 5631  20.146  38.958  10.341
35032W        W 5632  33.284  18.792   3.342
35033W        W 5633  16.680  21.657  14.321
35034W        W 5634  26.643   7.277  12.278
35035W        W 5635  34.888  16.355  12.955
35036W        W 5636  13.172   9.968  14.389
35037W        W 5637  38.877  25.593  12.921
35038W        W 5638  28.539  43.263  11.691
35039W        W 5639  37.464   9.575   2.629
35040W        W 5640  12.660  32.455  12.881
35041W        W 5641   3.935  33.595   1.131
35042W        W 5642  41.539  38.651   0.327
35043W        W 5643   1.248   3.720   2.657
35044W        W 5644  15.372   6.358  14.166
35045W        W 5645   7.869  39.391   2.367
35046W        W 5646   6.846   6.941   1.394
35047W        W 5647  15.442  16.371   2.803
35048W        W 5648   0.478  28.090  12.971
35049W        W 5649   6.200  33.013  13.479
35050W        W 5650  30.414   9.099  12.465
35051W        W 5651  31.110  13.055   2.554
35052W        W 5652  22.684  27.449  10.698
35053W        W 5653   9.769  27.125  11.955
35054W        W 5654  21.109  26.734   4.031
35055W        W 5655   6.579  26.582  12.818
35056W        W 5656  31.128  12.282  12.059
35057W        W 5657   7.168  33.178   3.079
35058W        W 5658  41.340  40.033  11.098
35059W        W 5659  43.814   6.727  12.635
35060W        W 5660  11.422  43.960  14.513
35061W        W 5661  16.199  31.866  14.804
35062W        W 5662   3.390   9.361  14.938
35063W        W 5663  38.098  32.383   3.606
35064W        W 5664   1.928   0.895   0.107
35065W        W 5665  35.547  22.084   1.799
35066W        W 5666  34.999  27.886  13.889
35067W        W 5667  29.006  17.132   4.234
35068W        W 5668   7.490  22.132  11.962
35069W        W 5669  33.034  34.429   4.197
35070W        W 5670  10.535   6.587   2.745
35071W        W 5671  36.991  44.282   3.209
35072W        W 5672  12.584  37.432  11.428
35073W        W 5673   8.323  29.753  13.916
35074W        W 5674  10.809  41.005   1.425
35075W        W 5675  38.718   2.004   0.444
35076W        W 5676  40.350  10.625  10.957
35077W        W 5677  13.101  11.627  11.130
35078W        W 5678  27.769  19.444   4.984
35079W        W 5679  29.601  11.759   3.297
35080W        W 5680  24.046  26.958  14.480
35081W        W 5681  37.572  34.390  11.142
35082W        W 5682  33.197  33.582  13.363
35083W        W 5683   9.983  43.585  12.608
35084W        W 5684  37.037  22.224   2.201
35085W        W 5685  19.523  12.410   3.340
35086W        W 5686  21.607  13.158  14.417
35087W        W 5687   4.827  39.411  12.487
35088W        W 5688  34.071   5.583  14.297
35089W        W 5689  12.221  30.867  13.001
35090W        W 5690  27.189  32.440   4.637
35091W        W 5691   4.019  11.092   0.930
35092W        W 5692  15.254  24.786  10.710
35093W        W 5693  34.890  31.625   4.912
35094W        W 5694  30.072  24.229  12.527
35095W        W 5695   0.868  24.879  10.776
35096W        W 5696   7.669  12.729  10.996
35097W        W 5697   2.869  15.182  11.944
35098W        W 5698   3.611  20.841  12.897
35099W        W 5699  13.626   0.522  14.776
35100W        W 5700  30.176  24.973  14.360
35101W        W 5701  14.335  40.546   4.534
35102W        W 5702   7.834  31.159   2.678
35103W        W 5703   6.438  18.198   2.719
35104W        W 5704  34.945  32.558   4.496
35105W        W 5705  34.700  15.073  13.069
35106W        W 5706  31.595  26.381   3.179
35107W        W 5707  43.319  10.782  10.775
35108W        W 5708  38.563   0.801  12.056
35109W        W 5709  32.151  37.816   3.784
35110W        W 5710  22.717  39.128  14.485
35111W        W 5711  33.071  44.467   2.747
35112W        W 5712  20.212   0.933  13.891
35113W        W 5713  30.524   0.516   4.740
35114W        W 5714  30.671  30.567   4.313
35115W        W 5715  19.785  18.357   4.244
35116W        W 5716  30.696  22.702   1.379
35117W        W 5717  30.010   8.668  12.898
35118W        W 5718   1.260  11.358   4.898
35119W        W 5719  12.012  12.116   2.751
35120W        W 5720  24.232  26.588   0.440
35121W        W 5721  38.817   8.596  14.911
35122W        W 5722  41.014   5.129   2.716
35123W        W 5723  42.230  12.651   2.664
35124W        W 5724   2.799  41.068  14.334
35125W        W 5725  21.145  10.517   1.180
35126W        W 5726  15.754   5.356  12.592
35127W        W 5727  14.755   9.978   4.046
35128W        W 5728  27.877  16.786   5.018
35129W        W 5729  42.321  18.838   0.121
35130W        W 5730  34.999  43.349   4.888
35131W        W 5731  18.159   7.194   1.398
35132W        W 5732  26.786  18.386  10.332
35133W        W 5733  27.460   6.548   4.604
35134W        W 5734  27.660  28.017   3.397
35135W        W 5735  37.699  13.362  14.949
35136W        W 5736  18.504  42.328  12.460
35137W        W 5737  33.447   9.332   0.322
35138W        W 5738  25.847   7.134   3.722
35139W        W 5739  16.296  39.523  11.162
35140W        W 5740  19.081  32.061   1.013
35141W        W 5741  37.001   4.905   3.656
35142W        W 5742  16.976  27.775  11.135
35143W        W 5743  22.993  20.091   1.962
35144W        W 5744  25.406   8.339   0.465
35145W        W 5745  39.609  28.459  12.440
35146W        W 5746  16.614  38.927   4.775
35147W        W 5747  30.468   4.658  10.922
35148W        W 5748  21.851  29.306   1.426
35149W        W 5749   0.902  34.125   0.937
35150W        W 5750  13.703  36.388  10.474
35151W        W 5751   1.043  35.916  14.005
35152W        W 5752   6.122  16.296   3.644
35153W        W 5753  36.508   2.784  12.496
35154W        W 5754  27.634  20.257   0.510
35155W        W 5755  40.747   8.710  13.119
35156W        W 5756   0.355   5.863   4.516
35157W        W 5757  19.271   8.944  12.067
35158W        W 5758   6.302  44.876   3.163
35159W        W 5759  11.555  39.528   0.807
35160W        W 5760  29.081  27.906   2.556
35161W        W 5761  34.979  14.954   1.325
35162W        W 5762  11.883  13.301  11.260
35163W        W 5763  41.760  28.428  13.339
35164W        W 5764  33.004  23.263  14.310
35165W        W 5765  17.818  32.467  11.447
35166W        W 5766   5.477  18.402  14.249
35167W        W 5767  25.034  26.660  13.482
35168W        W 5768  17.258  18.990   4.714
35169W        W 5769  27.983  23.917  10.870
35170W        W 5770  17.824  20.766   2.304
35171W        W 5771  40.345  22.126   2.306
35172W        W 5772  17.209   2.701   4.180
35173W        W 5773  43.256  26.989   1.227
35174W        W 5774  29.894  36.995  13.005
35175W        W 5775  22.287  39.872   4.692
35176W        W 5776  21.600  25.695  13.952
35177W        W 5777  40.023  20.249  12.854
35178W        W 5778  39.819  27.744   3.371
35179W        W 5779  15.389  28.377  13.026
35180W        W 5780   0.846  41.835   4.876
35181W        W 5781   5.296  11.353   3.335
35182W        W 5782  19.782  23.136   0.947
35183W        W 5783   2.650  26.896  13.485
35184W        W 5784  32.025   0.958   4.587
35185W        W 5785   7.220  19.983   4.550
35186W        W 5786  38.837  27.689  12.511
35187W        W 5787  21.686  17.220  14.980
35188W        W 5788   7.159  28.381  10.626
35189W        W 5789  31.734  23.007   2.303
35190W        W 5790  20.598   5.737  13.219
35191W        W 5791  39.085  15.260   3.308
35192W        W 5792  27.445  36.921   2.922
35193W        W 5793  38.034  19.145  14.809
35194W        W 5794  38.314  26.763   4.642
35195W        W 5795  24.098   5.648   2.187
35196W        W 5796  31.349  43.032  12.660
35197W        W 5797  15.834  12.696  12.848
35198W        W 5798  44.512  26.015   1.364
35199W        W 5799  40.863  39.841   0.732
35200W        W 5800   3.463   4.349   3.978
35201W        W 5801  34.069  40.523  13.474
35202W        W 5802  19.131  20.997  14.775
35203W        W 5803  39.643   4.330  12.609
35204W        W 5804  38.888  29.651  10.053
35205W        W 5805   0.745  25.601   1.852
35206W        W 5806  43.470  42.551  13.902
35207W        W 5807  15.549  20.182  14.933
35208W        W 5808   1.818   2.978  11.156
35209W        W 5809  30.214   2.276   2.727
35210W        W 5810  22.809  30.868   4.102
35211W        W 5811   1.233  16.610   0.706
35212W        W 5812  18.986  40.851   4.801
35213W        W 5813  28.695  16.223  10.692
35214W        W 5814   6.223  30.740  14.783
35215W        W 5815  34.827  44.337  12.939
35216W        W 5816  44.392  36.323   1.823
35217W        W 5817  23.075   8.276   3.080
35218W        W 5818  28.494  24.046   1.630
35219W        W 5819  36.508  26.731   2.745
35220W        W 5820   5.243  22.752  14.891
35221W        W 5821  25.968   7.415  10.341
35222W        W 5822  43.586  10.861  12.133
35223W        W 5823  23.500  22.391   2.729
35224W        W 5824  40.434  36.443   2.172
35225W        W 5825  42.312  15.563  13.494
35226W        W 5826  26.780  31.130   1.906
35227W        W 5827  28.929  30.115  10.794
35228W        W 5828  27.191  18.802  13.182
35229W        W 5829  25.933  12.260   3.574
35230W        W 5830  19.530  42.981   3.260
35231W        W 5831   5.815  12.666  14.815
35232W        W 5832  15.746  10.579   1.825
35233W        W 5833  17.300  20.716   2.912
35234W        W 5834  26.320   3.444   0.174
35235W        W 5835  19.708  25.533   2.193
35236W        W 5836  44.117   5.285   3.821
35237W        W 5837  36.477  26.446   1.386
35238W        W 5838  39.357  30.969   4.673
35239W        W 5839   8.832  18.307  13.923
35240W        W 5840  25.652  38.482  11.073
35241W        W 5841  29.855  17.529  10.851
35242W        W 5842  19.604  12.524   2.277
35243W        W 5843  15.609  41.895  12.467
35244W        W 5844  14.496   0.092  14.328
35245W        W 5845  19.059  10.697   1.383
35246W        W 5846  27.973  42.593   0.328
35247W        W 5847  14.896  35.564   2.280
35248W        W 5848  20.178  32.531  12.437
35249W        W 5849  14.956  40.586   0.305
35250W        W 5850  12.435  26.871  12.120
35251W        W 5851  39.243  41.083  11.641
35252W        W 5852  32.347  16.411  13.012
35253W        W 5853  12.743  34.340  13.968
35254W        W 5854  43.900   8.323   1.845
35255W        W 5855  20.702  20.589  14.751
35256W        W 5856  22.582  34.518   0.757
35257W        W 5857   8.108  32.003  10.896
35258W        W 5858  31.843  37.001   3.245
35259W        W 5859   7.990  44.204   5.047
35260W        W 5860  14.623   5.712  11.641
35261W        W 5861  28.133  44.029  13.829
35262W        W 5862  30.827  15.316  10.993
35263W        W 5863  42.415  16.726   0.951
35264W        W 5864  40.858  27.573  11.649
35265W        W 5865  14.686  27.039  12.500
35266W        W 5866  22.611  33.130   4.649
35267W        W 5867  40.493  16.033   3.298
35268W        W 5868  11.612   6.214   9.937
35269W        W 5869  16.420  12.521   2.596
35270W        W 5870  38.336  16.501  11.707
35271W        W 5871  27.418   2.205  14.451
35272W        W 5872  27.607  33.611   3.633
35273W        W 5873  35.950  23.805   3.135
35274W        W 5874  26.188  22.263  13.519
35275W        W 5875  34.465  12.391   2.823
35276W        W 5876  38.938  36.394   0.089
35277W        W 5877   4.166  38.236  12.500
35278W        W 5878  19.521   8.900  11.071
35279W        W 5879  20.468  10.759  14.321
35280W        W 5880  29.434  30.186  11.624
35281W        W 5881  20.582  11.852  12.402
35282W        W 5882  25.600  44.917   2.327
35283W        W 5883   1.461  32.593  11.742
35284W        W 5884  17.068  21.208   4.432
35285W        W 5885  23.524  35.576  14.971
35286W        W 5886  10.763  26.044   0.312
35287W        W 5887  12.905  30.573  13.601
35288W        W 5888  26.825   0.308   4.099
35289W        W 5889  42.165  36.522   0.895
35290W        W 5890   2.486  38.927   2.269
35291W        W 5891   0.306  23.962  14.523
35292W        W 5892  41.796  28.999   1.769
35293W        W 5893  26.471   9.699   4.007
35294W        W 5894  18.630  40.380   3.163
35295W        W 5895   6.577  31.918   0.272
35296W        W 5896  12.710  10.572  10.419
35297W        W 5897  14.662  39.282  10.993
35298W        W 5898  16.414  26.458  13.837
35299W        W 5899  24.406  29.642   4.187
35300W        W 5900  12.298  15.215  10.885
35301W        W 5901   5.146  35.078   1.419
35302W        W 5902  34.851  12.194   1.349
35303W        W 5903  33.933   6.224  13.708
35304W        W 5904  22.754  25.965  14.063
35305W        W 5905  29.887   5.896  11.615
35306W        W 5906  37.058  20.632   3.596
35307W        W 5907  14.721  42.328   1.848
35308W        W 5908  13.975  35.358   4.183
35309W        W 5909  10.854  42.394   0.710
35310W        W 5910  29.048  13.741   4.684
35311W        W 5911  36.601  24.556   1.327
35312W        W 5912  19.268   3.708  11.735
35313W        W 5913  22.949  17.606   4.422
35314W        W 5914  44.271  30.045   2.722
35315W        W 5915   1.703  32.380  10.602
35316W        W 5916  13.522   8.725   0.733
35317W        W 5917  27.008  38.201   0.015
35318W        W 5918   6.960  12.805  14.407
35319W        W 5919  23.687   4.474  11.575
35320W        W 5920   4.103   7.117  11.977
35321W        W 5921  23.404   2.695   0.030
35322W        W 5922  36.826   0.388   0.086
35323W        W 5923  41.365  40.502   4.109
35324W        W 5924  21.582   1.257   2.861
35325W        W 5925  40.213  18.323  12.229
35326W        W 5926  27.906  16.533   0.750
35327W        W 5927   5.779  12.654   1.765
35328W        W 5928  40.803  36.374  10.832
35329W        W 5929  17.287  42.584  11.026
35330W        W 5930  17.163  11.098  13.482
35331W        W 5931  30.538   8.804  14.312
35332W        W 5932  20.434  20.551   2.157
35333W        W 5933  23.910  14.116   3.636
35334W        W 5934  28.121  28.108   2.712
35335W        W 5935   4.008  21.611   0.051
35336W        W 5936  33.316  15.659   5.036
35337W        W 5937  26.218  23.977   3.625
35338W        W 5938  34.037  35.392  12.743
35339W        W 5939  21.085   6.254  11.148
35340W        W 5940  12.819   2.918  12.891
35341W        W 5941  44.762  30.151   1.742
35342W        W 5942  42.108  17.828   4.147
35343W        W 5943  39.540  36.170   4.863
35344W        W 5944  26.527  18.899   4.830
35345W        W 5945  15.798  25.413   2.223
35346W        W 5946  39.463  39.070   3.081
35347W        W 5947   1.410  17.279   3.349
35348W        W 5948  25.929   6.009  11.961
35349W        W 5949  27.609   2.701   2.389
35350W        W 5950  11.140   6.645  11.297
35351W        W 5951  15.358  37.399  11.043
35352W        W 5952  11.762   8.468   2.610
35353W        W 5953   0.286   0.848   2.336
35354W        W 5954  20.833  20.911   2.176
35355W        W 5955  29.892  40.889   1.935
35356W        W 5956  11.275  13.471  14.257
35357W        W 5957  33.079  35.673   0.415
35358W        W 5958  23.226  39.968   3.046
35359W        W 5959  30.196  42.976  13.303
35360W        W 5960  23.608  13.449  13.077
35361W        W 5961  11.699  42.362   3.668
35362W        W 5962  23.006  10.233  13.479
35363W        W 5963   2.454   9.879  14.088
35364W        W 5964  27.016   7.902   0.851
35365W        W 5965  12.492  22.015  13.188
35366W        W 5966  37.143  43.256   2.332
35367W        W 5967  34.677  37.514   2.297
35368W        W 5968   5.168  17.138  10.667
35369W        W 5969  11.629  30.633   2.198
35370W        W 5970   2.104   0.637  12.677
35371W        W 5971  44.844  17.477   4.168
35372W        W 5972   0.289   5.673  11.956
35373W        W 5973  12.486  22.494   0.307
35374W        W 5974  11.082  42.750   2.252
35375W        W 5975  15.288  15.157   4.441
35376W        W 5976  37.900  21.755   4.072
35377W        W 5977   9.391  25.360  12.502
35378W        W 5978  13.973  20.987   3.788
35379W        W 5979  31.634  36.485   0.354
35380W        W 5980  10.281  16.837  12.938
35381W        W 5981  25.649  27.458   1.308
35382W        W 5982  30.853  44.222   1.472
35383W        W 5983  26.099  32.830   4.069
35384W        W 5984  28.322  38.321   1.733
35385W        W 5985  42.043  20.674  11.875
35386W        W 5986   3.312   7.404  12.978
35387W        W 5987  34.100  15.736  12.918
35388W        W 5988   2.366  25.637  13.090
35389W        W 5989  14.595  27.221  14.863
35390W        W 5990  29.962  25.574  10.451
35391W        W 5991  14.300   0.906  12.289
35392W        W 5992   0.795  44.641   3.796
35393W        W 5993  33.283  21.380  12.944
35394W        W 5994   1.351  19.727   0.753
35395W        W 5995   4.915  31.684  14.573
35396W        W 5996  10.940  29.786   0.437
35397W        W 5997   9.500   3.263   2.388
35398W        W 5998  40.007   3.751   4.962
35399W        W 5999   4.197  32.987   2.633
35400W        W 6000  26.711  15.118   0.382
35401W        W 6001  28.093  17.435  11.037
35402W        W 6002   3.276   3.393   2.857
35403W        W 6003  41.882  26.705  14.778
35404W        W 6004   0.119   2.711   0.244
35405W        W 6005  35.682  27.947  14.289
35406W        W 6006  44.321  43.940   1.189
35407W        W 6007  29.405  11.219   0.590
35408W        W 6008  25.223  22.933  11.712
35409W        W 6009   2.224  15.145  13.891
35410W        W 6010  11.209  27.635   4.142
35411W        W 6011  25.871  44.946  12.144
35412W        W 6012  39.723  15.946  12.014
35413W        W 6013  13.123  16.100   3.927
35414W        W 6014   3.943  31.086  13.516
35415W        W 6015   6.909  43.236   3.316
35416W        W 6016  17.292  11.382  13.941
35417W        W 6017  28.650  16.718  14.093
35418W        W 6018   4.983  35.586   4.510
35419W        W 6019  31.357   1.389  13.920
35420W        W 6020  19.544  43.814   0.335
35421W        W 6021  24.057   5.859  13.443
35422W        W 6022   5.608   4.658   1.745
35423W        W 6023  20.331  26.241  13.578
35424W        W 6024  38.570  10.737   4.250
35425W        W 6025   5.007  43.248  14.959
35426W        W 6026  19.946  41.149  13.770
35427W        W 6027  29.948  19.161  11.074
35428W        W 6028   6.760  39.480  10.716
35429W        W 6029  25.702   0.387  11.180
35430W        W 6030  36.383   1.680  11.333
35431W        W 6031  42.296  34.975  12.568
35432W        W 6032  31.145  43.811   3.652
35433W        W 6033  31.268  39.990  12.038
35434W        W 6034  22.715  35.791  11.635
35435W        W 6035   3.408  31.268   3.270
35436W        W 6036  14.128  25.448  10.673
35437W        W 6037  35.384   7.520  11.161
35438W        W 6038  39.606  21.045   3.817
35439W        W 6039  18.609  44.499   4.147
35440W        W 6040   7.228   7.868  11.596
35441W        W 6041  38.501  31.931  14.785
35442W        W 6042   5.330  21.459   3.205
35443W        W 6043   0.964  19.596  14.209
35444W        W 6044  29.360  26.223  14.388
35445W        W 6045  13.598   6.605   0.872
35446W        W 6046   0.948  20.803  11.113
35447W        W 6047  38.071   6.818  12.493
35448W        W 6048  12.871  38.097   0.805
35449W        W 6049  36.785  26.435   0.449
35450W        W 6050  42.101  21.225   1.429
35451W        W 6051  25.016  30.614  11.643
35452W        W 6052  12.714  24.057   0.320
35453W        W 6053  12.257  23.995   4.576
35454W        W 6054  34.514   4.916  13.935
35455W        W 6055  27.850  41.352   1.926
35456W        W 6056  13.728  35.524   4.611
35457W        W 6057  35.982  26.861  12.550
35458W        W 6058  32.199  33.576  12.426
35459W        W 6059  40.937   2.805   4.902
35460W        W 6060  30.582  25.780   1.429
35461W        W 6061  34.981  41.753  12.015
35462W        W 6062  38.934  31.029  11.396
35463W        W 6063  32.489  27.501  11.019
35464W        W 6064   0.112  11.106  12.895
35465W        W 6065  28.696  17.129   1.901
35466W        W 6066   8.715  10.393   1.203
35467W        W 6067  37.405  34.896   0.292
35468W        W 6068  17.471  26.620   3.163
35469W        W 6069   8.734  42.509   1.247
35470W        W 6070  44.441  29.892  13.416
35471W        W 6071  30.697   2.842  14.326
35472W        W 6072  12.740  34.126   4.474
35473W        W 6073  42.989   2.947   0.922
35474W        W 6074  28.459  43.080  14.403
35475W        W 6075  34.042  27.446   4.528
35476W        W 6076   6.097  40.136  10.132
35477W        W 6077  44.067  20.991  12.026
35478W        W 6078  12.803  36.034   2.592
35479W        W 6079  19.764  43.521  12.083
35480W        W 6080  40.641  24.669  14.542
35481W        W 6081  32.300  22.734  12.057
35482W        W 6082  29.104  23.749   3.502
35483W        W 6083  36.497  33.408  14.894
35484W        W 6084  24.076   2.363  11.167
35485W        W 6085  37.459  27.288  12.679
35486W        W 6086  29.617  15.606   4.790
35487W        W 6087  40.808  40.608   3.301
35488W        W 6088  18.823  24.375   2.644
35489W        W 6089   8.215  23.452  10.688
35490W        W 6090   6.253  12.014   0.022
35491W        W 6091  12.319  22.502   0.829
35492W        W 6092   0.178  12.188  11.666
35493W        W 6093  20.611  23.727   4.002
35494W        W 6094  13.077   0.580   0.555
35495W        W 6095  11.347   4.755   9.895
35496W        W 6096  12.800  13.102  10.594
35497W        W 6097  41.960  20.902  14.352
35498W        W 6098  40.437  22.858  14.735
35499W        W 6099  12.372   0.068   3.158
35500W        W 6100   3.737  41.347  14.870
35501W        W 6101  38.068  24.091  12.858
35502W        W 6102  38.454  43.375  14.318
35503W        W 6103  35.367   9.853  12.492
35504W        W 6104  16.330  44.460   2.874
35505W        W 6105   2.700   1.220   2.811
35506W        W 6106  44.623  17.013   4.071
35507W        W 6107  21.461  35.618  13.477
35508W        W 6108  21.077  16.783   3.116
35509W        W 6109  38.108  19.169   2.377
35510W        W 6110  22.329  43.116   9.796
35511W        W 6111   3.423  32.084   4.324
35512W        W 6112   7.741   2.433   0.214
35513W        W 6113   3.951  10.412   1.361
35514W        W 6114   2.411  31.546   1.627
35515W        W 6115  24.614  40.520   4.901
35516W        W 6116  30.005   4.744   2.930
35517W        W 6117  42.913  26.723   3.215
35518W        W 6118  21.171   7.869  14.899
35519W        W 6119   7.197  34.368  12.622
35520W        W 6120  36.983  41.314   1.516
35521W        W 6121  37.248  28.717  14.010
35522W        W 6122  14.525  39.509   1.336
35523W        W 6123   1.514  17.213  11.639
35524W        W 6124  43.052  38.048  13.851
35525W        W 6125  14.362   6.860   0.465
35526W        W 6126  25.016   4.898   2.651
35527W        W 6127  20.243  25.132   1.923
35528W        W 6128  35.970  25.593   2.630
35529W        W 6129  10.921  21.330  12.917
35530W        W 6130  18.258  26.306  11.041
35531W        W 6131  24.949  32.982  13.636
35532W        W 6132  44.447  20.004  14.609
35533W        W 6133  39.913  14.068  14.524
35534W        W 6134   4.789  23.959  14.528
35535W        W 6135  40.642   1.678  11.082
35536W        W 6136  14.030  36.129  10.798
35537W        W 6137  13.204  27.625   4.924
35538W        W 6138  40.585  29.213  11.863
35539W        W 6139  32.599  42.353   3.810
35540W        W 6140  14.761   4.132  11.027
35541W        W 6141  26.174  12.317   2.271
35542W        W 6142  32.953   0.196  13.894
35543W        W 6143  22.928  10.436   0.890
35544W        W 6144  33.488  41.565   3.934
35545W        W 6145  28.173  39.893   0.041
35546W        W 6146   0.916  15.024   4.080
35547W        W 6147  43.678  10.181  13.261
35548W        W 6148  17.546  15.007  13.403
35549W        W 6149  34.873  32.532   2.979
35550W        W 6150  18.618  30.439  10.321
35551W        W 6151  22.990  25.173  14.974
35552W        W 6152  26.367  36.340  12.248
35553W        W 6153  41.337   9.760  14.962
35554W        W 6154  16.303  23.650   2.670
35555W        W 6155  28.421  25.024   4.436
35556W        W 6156   2.859   6.931   1.498
35557W        W 6157  24.224  31.979  14.058
35558W        W 6158  16.073   3.240   0.933
35559W        W 6159   5.100  23.125   1.763
35560W        W 6160  30.465  24.189   3.590
35561W        W 6161  32.039  20.447   2.200
35562W        W 6162   0.947  37.244  14.867
35563W        W 6163  42.099  33.376   4.873
35564W        W 6164   2.337  27.459   1.819
35565W        W 6165  44.278  15.639   4.539
35566W        W 6166  37.888  31.082  14.940
35567W        W 6167   4.328  39.478   3.264
35568W        W 6168   7.171  17.622  10.604
35569W        W 6169  30.750  27.826   9.924
35570W        W 6170  30.428  27.200   2.222
35571W        W 6171  19.597  26.729   0.380
35572W        W 6172  25.020  24.676   0.425
35573W        W 6173  13.244   2.020   4.724
35574W        W 6174   0.384  11.792   2.699
35575W        W 6175  38.747  12.680  14.774
35576W        W 6176  42.674  14.101  13.586
35577W        W 6177  18.828   9.491   3.231
35578W        W 6178   5.387  36.160   3.324
35579W        W 6179   2.246  11.194   4.299
35580W        W 6180  26.929   6.966  14.457
35581W        W 6181  24.425  26.109  11.351
35582W        W 6182  29.179  16.883   3.593
35583W        W 6183  42.288   7.906   0.409
35584W        W 6184  17.837  14.212   1.891
35585W        W 6185  34.553  40.277  13.521
35586W        W 6186  10.915  36.435   4.124
35587W        W 6187  20.953  12.023   5.061
35588W        W 6188  33.066  12.077  12.391
35589W        W 6189  19.235  22.238   1.897
35590W        W 6190  25.936   0.445  11.949
35591W        W 6191  36.273  44.090  13.859
35592W        W 6192  16.132   8.671  14.625
35593W        W 6193  28.182   6.358   2.812
35594W        W 6194  14.309  34.556   3.177
35595W        W 6195  38.503  36.324   4.313
35596W        W 6196   4.230  21.168  10.682
35597W        W 6197  40.971  39.527   1.164
35598W        W 6198   9.817  10.592   4.133
35599W        W 6199   8.885  39.577   0.503
35600W        W 6200  36.535  35.070   1.607
35601W        W 6201  13.135   1.816  11.614
35602W        W 6202   1.029   7.361  13.528
35603W        W 6203  43.839  37.032   2.896
35604W        W 6204  38.733  32.172  13.904
35605W        W 6205  12.612  41.466   0.960
35606W        W 6206  37.361  30.164  14.866
35607W        W 6207   8.129  43.242  10.757
35608W        W 6208  36.540  40.478  12.957
35609W        W 6209   2.301  22.256  13.819
35610W        W 6210  27.636  33.911   0.514
35611W        W 6211   9.334   7.850  10.562
35612W        W 6212   5.493  19.076   3.330
35613W        W 6213  30.491   9.938  12.803
35614W        W 6214  17.497  17.066   1.793
35615W        W 6215  22.258  27.046   0.016
35616W        W 6216  10.717  38.176   2.953
35617W        W 6217  30.601  37.492  11.500
35618W        W 6218  14.375  27.884  10.683
35619W        W 6219   5.203  34.742  11.626
35620W        W 6220  20.697  30.632   1.647
35621W        W 6221  37.444  28.747  12.632
35622W        W 6222   7.859  30.299  11.850
35623W        W 6223  23.998  13.613  10.539
35624W        W 6224  20.260  16.811  11.626
35625W        W 6225   9.337   8.130   4.484
35626W        W 6226  28.874  22.764  12.148
35627W        W 6227   3.308  22.761  14.053
35628W        W 6228  41.920  19.150  14.288
35629W        W 6229  29.841  44.811  11.106
35630W        W 6230  21.446  19.824   3.720
35631W        W 6231  17.141   1.036  14.851
35632W        W 6232  41.935  21.152   1.891
35633W        W 6233  16.646   5.676   1.636
35634W        W 6234   7.153  17.147   3.542
35635W        W 6235  12.659  26.142  11.173
35636W        W 6236  40.528  19.799  12.878
35637W        W 6237  14.785  36.608   2.194
35638W        W 6238  37.316  36.083   3.163
35639W        W 6239  39.800  30.548  14.216
35640W        W 6240  24.923  32.815   4.672
35641W        W 6241  36.739  44.855   3.065
35642W        W 6242  27.168  32.212  11.021
35643W        W 6243  29.695  18.039  14.738
35644W        W 6244  33.437   1.958  11.504
35645W        W 6245   8.133  39.083  10.250
35646W        W 6246  38.371  26.568   1.225
35647W        W 6247  16.021  19.555  13.962
35648W        W 6248  40.502  44.892  14.579
35649W        W 6249  31.580   9.397  12.147
35650W        W 6250  14.903  12.069   5.091
35651W        W 6251  16.196  17.605   2.237
35652W        W 6252  17.993  43.503  13.657
35653W        W 6253   4.922  28.113  12.743
35654W        W 6254  37.625  35.418  10.765
35655W        W 6255  36.511  35.135   3.745
35656W        W 6256  16.252  33.274  11.879
35657W        W 6257   1.658  30.429  13.436
35658W        W 6258  30.400  19.493  11.578
35659W        W 6259  28.207   1.056   0.478
35660W        W 6260  30.498  18.138   1.413
35661W        W 6261   0.788   3.312   4.081
35662W        W 6262  35.575  23.852   4.440
35663W        W 6263   1.414  38.570   3.776
35664W        W 6264  35.997   5.387   0.801
35665W        W 6265   5.428  42.522  13.392
35666W        W 6266  31.576  24.516   2.317
35667W        W 6267  39.576  15.030   1.751
35668W        W 6268  42.751  22.440   3.695
35669W        W 6269   0.571  41.468   1.703
35670W        W 6270   6.056  10.478  12.209
35671W        W 6271   9.376  29.981  11.789
35672W        W 6272  41.901  36.903  14.093
35673W        W 6273   6.736  19.678   1.882
35674W        W 6274  12.504  34.461   1.751
35675W        W 6275   3.814   8.154   1.759
35676W        W 6276  25.691  25.822  14.008
35677W        W 6277  37.317  32.818  14.326
35678W        W 6278  18.176  12.083   4.555
35679W        W 6279   5.352   9.213  12.053
35680W        W 6280  35.054  23.651  13.820
35681W        W 6281  21.909  30.485   3.991
35682W        W 6282  17.221  25.586  13.254
35683W        W 6283  27.673  41.921   5.119
35684W        W 6284  38.212  27.646  13.125
35685W        W 6285  32.953  17.531  13.591
35686W        W 6286  33.743  21.557   0.102
35687W        W 6287  16.168  30.158  13.040
35688W        W 6288  35.798  30.863   0.461
35689W        W 6289  40.827  44.824   0.991
35690W        W 6290  33.661  34.210  12.549
35691W        W 6291  37.982  44.092  12.473
35692W        W 6292   4.173  19.092  12.100
35693W        W 6293  44.679  16.619  11.678
35694W        W 6294  14.795   0.977  12.061
35695W        W 6295  10.236   2.485  14.778
35696W        W 6296   6.632  33.114  14.757
35697W        W 6297  43.283  18.107   4.552
35698W        W 6298  37.739  21.284   4.214
35699W        W 6299  19.480  41.803  14.620
35700W        W 6300  34.299  12.704   0.634
35701W        W 6301  11.254  19.260  11.140
35702W        W 6302  20.535   9.182  14.971
35703W        W 6303  36.677  18.878  12.241
35704W        W 6304   3.154  28.539   0.326
35705W        W 6305  43.395   9.259   1.827
35706W        W 6306  15.750  16.895  11.031
35707W        W 6307   7.825  27.308   4.322
35708W        W 6308  15.543  44.341  14.179
35709W        W 6309  18.264  25.196  13.021
35710W        W 6310  20.338  24.983  13.201
35711W        W 6311   6.047  33.898   1.494
35712W        W 6312  34.162  32.427  12.507
35713W        W 6313  43.467  14.394  12.342
35714W        W 6314   7.878  26.083   4.243
35715W        W 6315  34.056  43.356   0.872
35716W        W 6316  29.088  22.156  14.944
35717W        W 6317  26.449  41.376  10.581
35718W        W 6318  22.870   9.629  14.304
35719W        W 6319  28.013   7.454  12.207
35720W        W 6320   9.674  37.379   1.929
35721W        W 6321   7.738  19.808  13.358
35722W        W 6322  14.848  25.688   3.657
35723W        W 6323  20.141   4.792  10.678
35724W        W 6324  26.044  44.002  12.411
35725W        W 6325  25.173   6.882  14.978
35726W        W 6326  11.170  41.900   4.915
35727W        W 6327   4.930  12.642  14.432
35728W        W 6328  24.065  16.766  10.637
35729W        W 6329  11.222   0.703  13.441
35730W        W 6330  40.268  17.506   2.158
35731W        W 6331  43.745  23.907   2.310
35732W        W 6332  32.326  43.949  11.002
35733W        W 6333  44.998  39.050   0.290
35734W        W 6334  23.650  38.810   0.704
35735W        W 6335  10.698  44.911  12.967
35736W        W 6336  33.658  44.686  13.315
35737W        W 6337  15.817  10.510   5.006
35738W        W 6338  23.184   6.165   1.369
35739W        W 6339  12.540   0.936   4.264
35740W        W 6340  37.630  34.647  10.217
35741W        W 6341   7.006  44.376  11.536
35742W        W 6342  10.876  28.158   4.194
35743W        W 6343   6.745   2.536   0.873
35744W        W 6344  14.675  14.381  12.459
35745W        W 6345   9.656  36.573   4.646
35746W        W 6346   9.566   1.996   3.320
35747W        W 6347   5.534   7.658  11.936
35748W        W 6348  22.698  16.414   3.211
35749W        W 6349   2.936   5.975  11.475
35750W        W 6350  22.045  35.917   0.615
35751W        W 6351  33.287  26.943   4.408
35752W        W 6352  25.435  33.191   2.311
35753W        W 6353  32.391  29.701   2.334
35754W        W 6354  17.707  39.389  14.469
35755W        W 6355  22.407  22.129  13.804
35756W        W 6356  10.718  35.323   2.026
35757W        W 6357  20.084  40.348   3.701
35758W        W 6358  20.594  43.269  13.300
35759W        W 6359  35.370   4.652   0.069
35760W        W 6360   6.165  20.806   1.708
35761W        W 6361  34.347  38.568   1.454
35762W        W 6362  37.903  35.913   0.413
35763W        W 6363  24.056  12.326  13.693
35764W        W 6364  30.735  39.020  11.121
35765W        W 6365  25.486  11.961  12.135
35766W        W 6366  28.157  31.124  11.581
35767W        W 6367  32.171   3.633   2.230
35768W        W 6368  17.445  15.139   1.298
35769W        W 6369  37.257   0.289   0.972
35770W        W 6370  26.948  10.979  11.899
35771W        W 6371  14.383  30.039   0.879
35772W        W 6372  37.476  22.510  12.040
35773W        W 6373   1.862  16.630   2.161
35774W        W 6374  24.993  40.875   2.967
35775W        W 6375  37.779  30.053   0.709
35776W        W 6376  38.472   6.293   1.878
35777W        W 6377  26.164  44.762  14.468
35778W        W 6378  44.518   7.328   2.509
35779W        W 6379  41.121  32.627   0.173
35780W        W 6380  37.820   6.733  10.626
35781W        W 6381  14.291  29.055  14.777
35782W        W 6382  43.773  26.886   2.470
35783W        W 6383  26.428  23.285  12.986
35784W        W 6384  39.650  36.098  14.717
35785W        W 6385  15.523  20.510   0.324
35786W        W 6386  25.679  32.885   2.640
35787W        W 6387  43.869   3.610  11.894
35788W        W 6388  32.838  16.320  14.406
35789W        W 6389  13.893  36.199  14.019
35790W        W 6390  43.838  12.739   1.226
35791W        W 6391   7.715  26.771   2.336
35792W        W 6392  38.235  16.768   4.138
35793W        W 6393   1.843  18.570  10.450
35794W        W 6394   4.206  31.287  11.276
35795W        W 6395  10.765  44.270  10.815
35796W        W 6396  35.470  17.090   3.690
35797W        W 6397  10.788  10.635  13.913
35798W        W 6398   9.935  36.704  12.108
35799W        W 6399  16.906  22.341   5.117
35800W        W 6400  24.011  37.990  12.550
35801W        W 6401  33.033  21.182  10.450
35802W        W 6402  10.669   2.733  12.083
35803W        W 6403  41.066   7.234  14.153
35804W        W 6404   7.793  42.291  12.962
35805W        W 6405  14.738   6.792   1.488
35806W        W 6406  15.696  42.139   3.650
35807W        W 6407  16.321   7.931   2.728
35808W        W 6408  38.433  39.968  14.758
35809W        W 6409  37.074  25.617   4.164
35810W        W 6410  13.877  41.025  12.566
35811W        W 6411  15.692  19.854  12.352
35812W        W 6412  35.361  17.218  13.053
35813W        W 6413  18.573  13.992  10.300
35814W        W 6414  29.476  13.590   4.419
35815W        W 6415  42.842  34.447   1.275
35816W        W 6416  26.426  20.815   3.255
35817W        W 6417  18.089  43.394  13.176
35818W        W 6418  22.036  23.038  13.085
35819W        W 6419  11.307  37.969  11.590
35820W        W 6420  40.295  13.323  12.597
35821W        W 6421  21.684  23.071   3.366
35822W        W 6422  34.555  17.407   4.858
35823W        W 6423  26.006  25.716   3.447
35824W        W 6424  27.175  29.377   2.888
35825W        W 6425  10.660  16.605  14.731
35826W        W 6426  42.357  28.957  12.694
35827W        W 6427  29.570  15.558   1.173
35828W        W 6428  10.198  40.339  13.855
35829W        W 6429  36.844  43.707   4.575
35830W        W 6430   3.794  35.156  11.995
35831W        W 6431  44.983  30.746  11.082
35832W        W 6432   1.931  37.944  11.833
35833W        W 6433  42.397   8.254   3.137
35834W        W 6434  43.108   9.679  13.549
35835W        W 6435   6.534  15.428  13.293
35836W        W 6436   0.687  36.009   0.480
35837W        W 6437  12.794  31.470  13.628
35838W        W 6438   7.827  33.747  13.899
35839W        W 6439  15.051  40.059  12.516
35840W        W 6440  43.538   2.406   1.829
35841W        W 6441   1.209  13.623  12.052
35842W        W 6442   3.646  29.942   0.017
35843W        W 6443  12.204   2.723   0.456
35844W        W 6444  24.672  20.129  12.413
35845W        W 6445  44.393  29.213   0.558
35846W        W 6446   0.054  44.318   0.742
35847W        W 6447  32.401  33.930   0.370
35848W        W 6448  44.836  33.051  11.067
35849W        W 6449  18.376  11.294  13.947
35850W        W 6450   3.724   4.647   4.309
35851W        W 6451  16.315  16.988  14.739
35852W        W 6452  13.978  30.615   4.394
35853W        W 6453  43.109  10.674  12.195
35854W        W 6454  37.552  28.286   2.130
35855W        W 6455   8.490  13.241  12.550
35856W        W 6456   9.179   7.417   2.761
35857W        W 6457  32.005  23.492   4.451
35858W        W 6458   2.898  15.665  11.686
35859W        W 6459  29.954   8.938  10.732
35860W        W 6460  44.397  18.129  14.925
35861W        W 6461   3.902   5.195  13.067
35862W        W 6462   3.417  20.351   2.737
35863W        W 6463  11.123  28.507  10.724
35864W        W 6464  41.454   3.770   1.418
35865W        W 6465  44.477  42.449  13.505
35866W        W 6466   2.847   3.728   3.653
35867W        W 6467  15.023  43.536   3.493
35868W        W 6468  18.609  26.842   4.531
35869W        W 6469   3.415  33.941   1.913
35870W        W 6470  42.435  42.666  14.524
35871W        W 6471  35.044  12.409   0.871
35872W        W 6472  14.499  10.408   4.094
35873W        W 6473  34.797  37.027   2.160
35874W        W 6474   7.673  34.002  14.376
35875W        W 6475  23.736  17.824  12.534
35876W        W 6476  29.938  41.596   4.558
35877W        W 6477  15.581  11.660  14.996
35878W        W 6478  16.741   2.365   4.174
35879W        W 6479  19.362  10.232   3.053
35880W        W 6480  21.260  31.917   4.273
35881W        W 6481  19.076  17.067   4.139
35882W        W 6482  18.109  24.249  11.506
35883W        W 6483  44.820  36.112   1.585
35884W        W 6484  39.123  35.386  11.099
35885W        W 6485  37.631  11.818  11.606
35886W        W 6486  31.019  36.864   4.456
35887W        W 6487  40.092   9.231  13.073
35888W        W 6488   1.033  34.607  11.554
35889W        W 6489  35.490  19.757   3.307
35890W        W 6490  19.200  12.440   1.833
35891W        W 6491  36.842  16.719   1.515
35892W        W 6492  43.359  25.469   3.077
35893W        W 6493  12.386   1.685  12.081
35894W        W 6494  37.432  25.009   3.783
35895W        W 6495  35.062  21.005   0.419
35896W        W 6496  23.495  20.486  14.767
35897W        W 6497   9.454  21.714  12.050
35898W        W 6498  34.825  23.893   1.291
35899W        W 6499  41.515  15.520  12.166
35900W        W 6500  29.545   8.209   0.311
35901W        W 6501  23.522  19.683  12.843
35902W        W 6502  29.681  34.188   1.857
35903W        W 6503  35.564   1.888  13.484
35904W        W 6504   7.302  37.259   0.902
35905W        W 6505  38.562  27.568  14.033
35906W        W 6506  41.967  32.658  12.537
35907W        W 6507   2.825  44.030   4.692
35908W        W 6508   7.546   4.959   0.184
35909W        W 6509  27.494  43.806  11.562
35910W        W 6510  18.490   4.484   2.853
35911W        W 6511  39.905   4.691   1.384
35912W        W 6512  20.107  13.456  12.554
35913W        W 6513  19.320  23.372  13.383
35914W        W 6514  41.074   8.408   0.776
35915W        W 6515  24.472   2.423   0.798
35916W        W 6516  11.050  38.291   4.436
35917W        W 6517  35.986  28.652   1.196
35918W        W 6518  23.958  31.829  14.485
35919W        W 6519   4.400  40.860   1.847
35920W        W 6520   7.204  36.018   4.597
35921W        W 6521  15.887  42.123  13.341
35922W        W 6522  25.287  43.733   2.217
35923W        W 6523  29.209  24.128  13.981
35924W        W 6524  12.293   0.024   2.256
35925W        W 6525  18.307   9.490   0.383
35926W        W 6526  43.905  22.595  11.180
35927W        W 6527  11.353  44.054   0.477
35928W        W 6528   2.697   1.702  14.389
35929W        W 6529  26.683  40.009   4.124
35930W        W 6530  14.776  21.092  10.856
35931W        W 6531  33.197  42.803  12.541
35932W        W 6532  17.580  36.367  14.879
35933W        W 6533  41.321  42.937  13.901
35934W        W 6534  22.387   6.820  13.935
35935W        W 6535  38.513  43.537   0.910
35936W        W 6536   9.090  39.343  11.321
35937W        W 6537  28.259  30.372   1.650
35938W        W 6538  41.274  20.765   5.500
35939W        W 6539   1.975  17.298  13.584
35940W        W 6540  34.568  31.116  14.425
35941W        W 6541  19.231  28.123   0.450
35942W        W 6542  26.767   7.581  11.370
35943W        W 6543  13.559  24.232  14.796
35944W        W 6544   8.506  30.156  11.997
35945W        W 6545  37.489   2.437  10.481
35946W        W 6546   1.700  35.017  13.945
35947W        W 6547   3.205   1.081  11.753
35948W        W 6548  20.275  41.386  13.438
35949W        W 6549  43.408   1.023  11.138
35950W        W 6550   2.460  22.769  11.644
35951W        W 6551   9.862  32.653  13.948
35952W        W 6552  42.702   4.359   1.729
35953W        W 6553  12.161  22.464  11.068
35954W        W 6554   8.746   7.705   0.622
35955W        W 6555  13.103  26.425  11.113
35956W        W 6556   0.052  43.841   1.072
35957W        W 6557  15.298   9.197   3.239
35958W        W 6558  10.340   2.111  11.679
35959W        W 6559  25.423   8.864  12.767
35960W        W 6560   3.154   6.349  13.100
35961W        W 6561  13.348  18.215   4.176
35962W        W 6562  23.007  22.193  11.229
35963W        W 6563  32.590  16.674   4.592
35964W        W 6564  10.709  15.057  14.828
35965W        W 6565  24.673  14.185  10.999
35966W        W 6566  16.756  33.055   2.865
35967W        W 6567  25.506   7.729   1.787
35968W        W 6568  38.385  38.529   0.762
35969W        W 6569   0.210   0.598  12.425
35970W        W 6570  18.547  13.510   3.133
35971W        W 6571  19.467   7.550  12.949
35972W        W 6572  43.993   0.015  10.661
35973W        W 6573  41.531  35.755   1.172
35974W        W 6574  27.093  26.416   4.236
35975W        W 6575  19.297  38.314   2.849
35976W        W 6576  14.481  33.551   1.824
35977W        W 6577  35.052  32.150   4.793
35978W        W 6578  23.059  35.816  11.218
35979W        W 6579  29.614  42.908   2.988
35980W        W 6580  31.957  40.754   2.555
35981W        W 6581  13.572  27.403  11.132
35982W        W 6582  34.917  19.086  11.031
35983W        W 6583  38.355  12.226   0.098
35984W        W 6584   2.607   4.298   0.206
35985W        W 6585  12.626  36.385  13.419
35986W        W 6586  35.956  14.793   3.724
35987W        W 6587  29.856  29.399  10.812
35988W        W 6588  43.019  27.577   2.716
35989W        W 6589  10.700   6.918  14.486
35990W        W 6590   5.317  38.973  12.904
35991W        W 6591   6.875  35.264   4.679
35992W        W 6592  12.119  37.506  14.424
35993W        W 6593  24.126  13.881  12.055
35994W        W 6594  12.460  41.255   2.381
35995W        W 6595   4.941  27.738   4.101
35996W        W 6596  22.215   1.606  12.133
35997W        W 6597  41.307  25.742  11.504
35998W        W 6598  43.123   7.230   2.738
35999W        W 6599  17.604   7.880   1.718
36000W        W 6600   3.313   5.519  14.366
36001W        W 6601  42.282  29.992   2.727
36002W        W 6602  12.727  13.710  14.021
36003W        W 6603   2.739  27.823  11.720
36004W        W 6604  24.527  21.558   0.951
36005W        W 6605   0.379  35.610  12.560
36006W        W 6606  36.061  32.452   1.273
36007W        W 6607  33.756   5.338  13.460
36008W        W 6608  17.342  10.587   0.718
36009W        W 6609  28.103   9.872   3.160
36010W        W 6610  17.927   7.107   1.859
36011W        W 6611  35.495  38.643   2.375
36012W        W 6612  10.665  39.317   0.018
36013W        W 6613  42.743  14.790  13.389
36014W        W 6614  20.206  38.554   0.417
36015W        W 6615   5.650  17.636   3.057
36016W        W 6616  40.606  31.623   2.252
36017W        W 6617  28.612  29.649   2.767
36018W        W 6618   9.710  16.006   3.728
36019W        W 6619  39.821   0.731   0.822
36020W        W 6620  26.896   7.610   1.255
36021W        W 6621   1.284   5.679  14.842
36022W        W 6622  41.896  39.262  10.706
36023W        W 6623  20.793  32.879  11.176
36024W        W 6624  11.639  14.229   4.529
36025W        W 6625  23.474  26.715  13.941
36026W        W 6626  40.527  24.943  12.543
36027W        W 6627  39.867   1.259  14.007
36028W        W 6628  19.224  33.350   2.349
36029W        W 6629  26.589   8.336  12.062
36030W        W 6630  40.872  38.329  14.909
36031W        W 6631  38.552  20.312  14.504
36032W        W 6632  32.739  25.489   4.039
36033W        W 6633  36.895  32.948   0.593
36034W        W 6634   3.498  22.701  12.890
36035W        W 6635   5.714   6.645  14.594
36036W        W 6636  31.087  11.568   2.704
36037W        W 6637  25.030  20.409  13.830
36038W        W 6638  30.236   2.563   3.199
36039W        W 6639  26.575  13.318   1.162
36040W        W 6640  24.036  31.517  13.831
36041W        W 6641   4.238  17.754  12.176
36042W        W 6642  37.917   5.313  12.136
36043W        W 6643  20.225  39.977   1.404
36044W        W 6644  44.733  19.350  11.137
36045W        W 6645  41.045  43.583  14.685
36046W        W 6646   4.149  25.508  14.652
36047W        W 6647  10.107   0.898   4.182
36048W        W 6648  10.968  25.146  13.832
36049W        W 6649  19.266  20.759   1.899
36050W        W 6650  21.091  29.461  13.811
36051W        W 6651  23.446  22.196   0.956
36052W        W 6652  30.722  11.751   4.529
36053W        W 6653  33.269  24.607   4.028
36054W        W 6654  33.628   6.278   2.760
36055W        W 6655  29.847  20.222   2.694
36056W        W 6656   6.485  11.875  11.658
36057W        W 6657  40.080  36.091  11.893
36058W        W 6658  33.346  19.806   3.088
36059W        W 6659   5.341  36.964  14.954
36060W        W 6660  13.322  42.523   1.266
36061W        W 6661   4.980  15.441   2.922
36062W        W 6662  27.660   8.854  10.638
36063W        W 6663   0.034  32.584  14.327
36064W        W 6664  41.032   8.151   0.307
36065W        W 6665   5.181  12.309   0.828
36066W        W 6666  37.849  31.973   2.338
36067W        W 6667  27.180  39.242  14.242
36068W        W 6668   8.745  13.329  11.132
36069W        W 6669   9.147   9.651   4.076
36070W        W 6670  37.336  37.347   2.125
36071W        W 6671   2.176  36.566   1.861
36072W        W 6672  13.907  35.111  11.113
36073W        W 6673  41.159  40.794  11.729
36074W        W 6674  35.680  25.534   0.941
36075W        W 6675  14.591  21.498  12.078
36076W        W 6676   5.303  31.043  11.911
36077W        W 6677   6.038  16.288  11.952
36078W        W 6678  43.524   8.226  10.389
36079W        W 6679  38.717   3.996   3.807
36080W        W 6680  40.641   7.253  12.869
36081W        W 6681  10.106   7.364  14.479
36082W        W 6682   3.220  24.200   0.884
36083W        W 6683  43.971  37.392  14.859
36084W        W 6684  10.462  34.090   4.542
36085W        W 6685   0.948   6.319   2.308
36086W        W 6686   1.185  32.985   3.565
36087W        W 6687   0.235  19.612   2.663
36088W        W 6688  11.604   8.743  12.043
36089W        W 6689  30.059  39.300   3.132
36090W        W 6690  19.786  42.027   3.140
36091W        W 6691  28.131  28.443   1.706
36092W        W 6692  27.416   6.591   0.349
36093W        W 6693   7.089  16.733  12.468
36094W        W 6694  42.569  39.393   3.180
36095W        W 6695  28.075  19.337   4.120
36096W        W 6696   2.180  40.744  11.942
36097W        W 6697   3.766  32.586   5.321
36098W        W 6698  14.010  41.927   2.551
36099W        W 6699   5.137  12.829   4.197
36100W        W 6700  34.915   4.131   1.280
36101W        W 6701   6.152  31.021  13.900
36102W        W 6702  14.361  40.407   2.753
36103W        W 6703  22.518  23.495   0.829
36104W        W 6704  44.843  24.071   2.851
36105W        W 6705   5.703  36.531   2.475
36106W        W 6706  27.742  16.747  12.917
36107W        W 6707   0.693  15.101   3.187
36108W        W 6708  40.076  28.497   3.853
36109W        W 6709  33.155  20.059  11.669
36110W        W 6710  42.743  35.113  10.661
36111W        W 6711  17.313  40.381  11.090
36112W        W 6712  33.130   6.329   2.887
36113W        W 6713  22.516  31.055   1.693
36114W        W 6714  31.053  17.278  14.513
36115W        W 6715  12.390  41.844   0.701
36116W        W 6716   2.464  16.603   3.716
36117W        W 6717  21.101  40.226   1.336
36118W        W 6718   5.892   3.387   4.857
36119W        W 6719  33.658  14.665   1.787
36120W        W 6720  37.205  42.492   5.134
36121W        W 6721  12.166  43.471  14.005
36122W        W 6722   2.137   0.041  12.550
36123W        W 6723  24.169  19.585   3.076
36124W        W 6724  19.512  30.001   4.572
36125W        W 6725  42.444   5.975   5.505
36126W        W 6726   5.476  15.071   1.151
36127W        W 6727  33.540   7.334  12.380
36128W        W 6728  24.257  36.682   3.265
36129W        W 6729  44.551   5.764   2.900
36130W        W 6730  21.595  41.791  13.391
36131W        W 6731  39.207  10.740   1.442
36132W        W 6732  34.176  16.252  13.402
36133W        W 6733  29.109  25.918  13.505
36134W        W 6734  11.041  30.645   4.540
36135W        W 6735  20.823  36.184  12.610
36136W        W 6736  31.341   3.219  11.525
36137W        W 6737  35.799  41.916   1.716
36138W        W 6738  35.788  29.125   1.923
36139W        W 6739  36.157  25.074   2.809
36140W        W 6740   4.110  33.828   1.544
36141W        W 6741  40.524  29.752   4.196
36142W        W 6742  29.048  32.893   2.799
36143W        W 6743  32.430   1.833  12.811
36144W        W 6744   8.935   6.720  13.812
36145W        W 6745  21.770  34.158   3.240
36146W        W 6746  18.060   0.030   0.742
36147W        W 6747  16.276   8.406   2.423
36148W        W 6748  31.492   8.177  14.237
36149W        W 6749  22.717   6.476  12.479
36150W        W 6750  16.490  43.397   2.376
36151W        W 6751  14.622   1.426   1.879
36152W        W 6752  10.935  12.423  10.401
36153W        W 6753  32.111  37.758  13.170
36154W        W 6754  15.988   6.866  11.866
36155W        W 6755  33.087  29.312   4.034
36156W        W 6756  14.010  13.595   2.922
36157W        W 6757  43.909  38.046  13.893
36158W        W 6758  13.604  24.136   4.514
36159W        W 6759   3.746   2.807  13.514
36160W        W 6760  41.862   5.179   0.874
36161W        W 6761  29.799  11.258  11.009
36162W        W 6762   6.883  21.510   1.485
36163W        W 6763  43.019  41.438  14.487
36164W        W 6764  27.812   4.190  12.903
36165W        W 6765  24.635  36.459  14.835
36166W        W 6766   5.366  26.999  10.691
36167W        W 6767  26.714  33.923  10.515
36168W        W 6768  35.844  15.113   2.938
36169W        W 6769  35.382  42.033   0.773
36170W        W 6770   5.886  31.970   4.106
36171W        W 6771   7.427   1.991   0.460
36172W        W 6772  22.489  13.409  12.478
36173W        W 6773  22.297  22.211   0.491
36174W        W 6774   4.546  13.395  14.279
36175W        W 6775  11.415  29.038  13.912
36176W        W 6776  30.532  10.960  13.770
36177W        W 6777  19.863  10.459  11.887
36178W        W 6778  32.005  30.997  10.889
36179W        W 6779  12.307  34.471   4.120
36180W        W 6780  43.796   6.188   1.755
36181W        W 6781   3.932  15.901  12.920
36182W        W 6782  12.801  35.511  14.018
36183W        W 6783  24.753  30.124   0.740
36184W        W 6784  13.641  31.555   2.316
36185W        W 6785  26.309  17.690   4.191
36186W        W 6786  26.997  35.440   1.418
36187W        W 6787  32.666  32.889  11.181
36188W        W 6788  25.926  12.251  13.529
36189W        W 6789  43.537  34.619  14.072
36190W        W 6790  38.036   4.001   0.289
36191W        W 6791  33.556   6.261  14.576
36192W        W 6792  15.701  35.829   0.982
36193W        W 6793  31.261  13.443   2.882
36194W        W 6794  11.279  16.786   2.265
36195W        W 6795  37.395  17.031  13.113
36196W        W 6796  14.108  40.476   2.293
36197W        W 6797  10.515  43.797   4.571
36198W        W 6798   0.819   0.864  10.713
36199W        W 6799   3.854  33.611   2.015
36200W        W 6800  34.969  31.573   3.373
36201W        W 6801  14.682  30.412  13.070
36202W        W 6802  11.502  33.901  11.192
36203W        W 6803  17.261  22.587   4.632
36204W        W 6804  12.929  42.687   2.417
36205W        W 6805  31.032  14.080  10.662
36206W        W 6806  32.844  37.430   1.850
36207W        W 6807   3.748  14.126  11.794
36208W        W 6808  11.230  19.685  12.095
36209W        W 6809   4.165  30.492  12.147
36210W        W 6810  41.453  27.536  14.999
36211W        W 6811  44.879  20.531   0.003
36212W        W 6812   8.248  16.018   0.499
36213W        W 6813  24.920  40.030  13.372
36214W        W 6814   7.048  27.307  11.581
36215W        W 6815   4.542  33.608   0.351
36216W        W 6816  25.130  37.259  12.433
36217W        W 6817  26.576  17.541   2.820
36218W        W 6818  17.643  40.232   0.469
36219W        W 6819  40.057  11.682  11.527
36220W        W 6820  41.143   6.300   0.286
36221W        W 6821  17.273  16.720  14.577
36222W        W 6822  12.484  20.259   3.256
36223W        W 6823   8.393   8.950  13.529
36224W        W 6824   3.921   5.091  12.084
36225W        W 6825  38.245   0.257   0.995
36226W        W 6826  18.659  16.816  14.973
36227W        W 6827  16.979  19.302  11.667
36228W        W 6828   3.917  41.283   3.566
36229W        W 6829  23.126  41.337   2.836
36230W        W 6830  37.572  29.966   1.655
36231W        W 6831  14.579  40.035  10.295
36232W        W 6832   0.078  10.489  11.161
36233W        W 6833  44.170   2.310  14.274
36234W        W 6834  34.104   7.696   0.144
36235W        W 6835  27.672  24.510   3.339
36236W        W 6836  38.664   4.189   1.371
36237W        W 6837  10.742  34.365  14.777
36238W        W 6838   4.267   5.407  12.784
36239W        W 6839  27.157  43.389  13.914
36240W        W 6840   1.390   5.946   0.264
36241W        W 6841  12.704  17.372   4.894
36242W        W 6842  36.114  12.489   1.768
36243W        W 6843  30.963   2.466  14.639
36244W        W 6844  24.512  29.411   0.748
36245W        W 6845  35.949  37.199  11.986
36246W        W 6846  43.086   5.161  14.993
36247W        W 6847  31.634   4.437   2.080
36248W        W 6848  30.972  29.693  12.457
36249W        W 6849  18.876  31.538   0.510
36250W        W 6850   9.070  24.636  11.280
36251W        W 6851  31.583  29.029   4.237
36252W        W 6852   2.429  26.373  14.926
36253W        W 6853  18.163  28.662   2.088
36254W        W 6854  18.995  32.094  10.729
36255W        W 6855   3.341  29.383   3.336
36256W        W 6856   4.456  30.101  11.972
36257W        W 6857  24.667  20.309  11.918
36258W        W 6858  25.562  27.955   2.188
36259W        W 6859  24.397   5.467   4.581
36260W        W 6860   5.581  30.583   3.014
36261W        W 6861  15.104  14.517   3.223
36262W        W 6862  12.190  12.993   1.499
36263W        W 6863  41.477  31.420  12.719
36264W        W 6864  40.231  44.838  13.048
36265W        W 6865  32.461  41.162   1.187
36266W        W 6866  12.213  32.539   4.449
36267W        W 6867  31.148   6.001  14.520
36268W        W 6868  44.435  36.853   0.798
36269W        W 6869  44.397   1.367   4.635
36270W        W 6870  35.673  37.725   2.802
36271W        W 6871   3.865  14.388   0.950
36272W        W 6872  31.625  40.444  10.214
36273W        W 6873  13.398  39.900  14.215
36274W        W 6874  15.515  25.178  13.784
36275W        W 6875  20.713   6.920  14.905
36276W        W 6876  14.643  13.607  12.970
36277W        W 6877   0.805   3.950   4.871
36278W        W 6878  42.355  44.822  12.934
36279W        W 6879  25.060  13.776   1.487
36280W        W 6880  30.947  40.062   3.190
36281W        W 6881  33.282  30.345  11.590
36282W        W 6882  19.372  37.391  12.881
36283W        W 6883  19.611  37.840  12.872
36284W        W 6884   2.603  43.568  11.184
36285W        W 6885  12.361   4.246  14.261
36286W        W 6886   4.249  22.020   3.670
36287W        W 6887  15.034  13.357  13.832
36288W        W 6888  39.839  13.891  14.032
36289W        W 6889   0.940  15.637  13.043
36290W        W 6890   9.310  44.464  11.994
36291W        W 6891  23.619  25.049  11.619
36292W        W 6892   6.369  22.990  14.429
36293W        W 6893  15.203  16.941  11.161
36294W        W 6894  25.938  42.873  13.315
36295W        W 6895  40.429  19.747  11.469
36296W        W 6896  21.033  30.110   0.593
36297W        W 6897  39.714  26.046  13.797
36298W        W 6898  16.242  11.736  10.829
36299W        W 6899  15.734  16.143  12.510
36300W        W 6900   3.860  15.839  13.858
36301W        W 6901  21.536  21.167   0.690
36302W        W 6902  15.712  26.563   0.758
36303W        W 6903  29.874  10.211  13.898
36304W        W 6904  34.520  17.934   4.297
36305W        W 6905  37.377  41.997   0.030
36306W        W 6906  16.816  40.386   1.604
36307W        W 6907   3.908  10.800  10.656
36308W        W 6908  43.051  32.706  13.464
36309W        W 6909  26.107  20.180   4.695
36310W        W 6910   1.458  34.053   0.361
36311W        W 6911  10.264  17.202  11.562
36312W        W 6912  34.811  17.576   4.008
36313W        W 6913  43.475  34.368   0.461
36314W        W 6914   7.662   1.475   1.115
36315W        W 6915  31.034   1.054   0.954
36316W        W 6916   6.247   5.598   4.322
36317W        W 6917  36.829  43.303  14.614
36318W        W 6918  28.232  25.572  11.035
36319W        W 6919  13.316  19.935  12.199
36320W        W 6920  24.867  27.508   1.731
36321W        W 6921  30.685   7.166   3.127
36322W        W 6922  16.537   4.875   4.387
36323W        W 6923  25.966  40.257  14.002
36324W        W 6924   8.381  11.120   2.212
36325W        W 6925  16.374  33.582  11.484
36326W        W 6926   4.308  11.725  12.375
36327W        W 6927  10.246  11.352  12.931
36328W        W 6928  35.022   7.533  14.463
36329W        W 6929   5.991   5.452   4.807
36330W        W 6930  16.071   1.636  12.482
36331W        W 6931  28.884  39.744  13.048
36332W        W 6932  19.440   0.814  13.343
36333W        W 6933  23.682  13.596   2.451
36334W        W 6934  36.188  22.037   4.803
36335W        W 6935  21.510  17.289  13.072
36336W        W 6936   7.759  19.207   0.469
36337W        W 6937  19.845  39.604   1.826
36338W        W 6938   8.372  20.808  13.163
36339W        W 6939  17.966   4.845   1.569
36340W        W 6940  34.468   1.425  13.597
36341W        W 6941  36.015   3.898  13.019
36342W        W 6942  42.280  23.219  11.565
36343W        W 6943  25.817   9.199  12.880
36344W        W 6944  14.134  34.413  10.146
36345W        W 6945  38.456  26.384  12.028
36346W        W 6946  21.032  38.012   3.632
36347W        W 6947  33.918   1.330   3.982
36348W        W 6948  41.463  42.018  13.933
36349W        W 6949   3.179  22.502   4.590
36350W        W 6950  37.366  10.943   3.678
36351W        W 6951  19.260  16.275   4.744
36352W        W 6952   1.018  19.634  10.824
36353W        W 6953   1.726  34.172   3.950
36354W        W 6954  31.225  24.605  11.378
36355W        W 6955   4.422  34.651   9.620
36356W        W 6956  35.089  28.681   1.246
36357W        W 6957  19.848   1.398  11.275
36358W        W 6958  44.364  12.431   4.672
36359W        W 6959  11.224  15.011   0.855
36360W        W 6960   2.175  21.602   1.330
36361W        W 6961  43.940  25.921  11.232
36362W        W 6962  11.789  16.241   2.662
36363W        W 6963  18.139  41.489   2.710
36364W        W 6964  12.937  12.083   2.022
36365W        W 6965  19.169  29.083   0.823
36366W        W 6966  20.109  27.585   1.187
36367W        W 6967   1.411  35.669  14.927
36368W        W 6968  27.282  27.542   2.296
36369W        W 6969  34.529   4.828   3.051
36370W        W 6970  16.281  21.672   1.383
36371W        W 6971  15.669  30.669   2.395
36372W        W 6972  37.344  28.435   1.688
36373W        W 6973  30.573  37.989  11.421
36374W        W 6974  33.902  37.597   3.150
36375W        W 6975  29.537  12.218  13.688
36376W        W 6976  16.446  19.348  14.821
36377W        W 6977  30.972   3.671   4.122
36378W        W 6978  10.959  42.350  12.086
36379W        W 6979  17.174   8.562  13.078
36380W        W 6980   6.988   2.155  12.070
36381W        W 6981  37.027  18.710   3.336
36382W        W 6982  44.350  32.494   1.710
36383W        W 6983  24.039  24.766  10.415
36384W        W 6984  17.865  19.658  14.355
36385W        W 6985  11.289  28.545   2.351
36386W        W 6986  16.874  21.495   3.287
36387W        W 6987  17.077  29.741  14.005
36388W        W 6988  41.502  31.514   4.414
36389W        W 6989  39.325   5.869  13.962
36390W        W 6990   3.283  28.052   1.238
36391W        W 6991  28.605  39.319   1.097
36392W        W 6992  16.823  39.491  14.707
36393W        W 6993  32.825  32.305   1.903
36394W        W 6994   5.904  32.709   3.559
36395W        W 6995  20.711   7.126   1.356
36396W        W 6996  29.858  44.035  11.655
36397W        W 6997  24.202  23.005  14.014
36398W        W 6998  33.018  29.004   4.937
36399W        W 6999  15.052  42.945  12.632
36400W        W 7000  36.998  12.562  10.686
36401W        W 7001   9.357   4.246  10.357
36402W        W 7002  41.246  18.666   2.336
36403W        W 7003  16.839  13.668  14.389
36404W        W 7004   6.550  14.742   1.941
36405W        W 7005  20.037  31.833  11.634
36406W        W 7006   5.015  34.409   0.005
36407W        W 7007  44.468  23.834  13.992
36408W        W 7008  24.692  27.830   2.126
36409W        W 7009  42.511   6.921   1.720
36410W        W 7010  18.624  18.729   1.471
36411W        W 7011  26.208  12.987  11.082
36412W        W 7012   7.210  27.956  13.068
36413W        W 7013  44.362  30.820  10.192
36414W        W 7014  20.791   5.232   4.506
36415W        W 7015   7.548  20.502   0.185
36416W        W 7016   5.783  32.511  11.589
36417W        W 7017  13.425   0.408   4.502
36418W        W 7018  29.977  39.048  12.005
36419W        W 7019  10.838  24.787   1.080
36420W        W 7020  31.346  41.816  13.969
36421W        W 7021   6.363   6.675   4.309
36422W        W 7022  37.827  42.817  12.113
36423W        W 7023  23.090  16.660  12.601
36424W        W 7024  21.827   7.940  13.215
36425W        W 7025   6.036  27.937   3.049
36426W        W 7026  37.826  35.126   0.057
36427W        W 7027  16.278  22.659  10.151
36428W        W 7028  21.730  44.594   3.676
36429W        W 7029  37.934  32.535  13.457
36430W        W 7030   2.919   1.937  14.891
36431W        W 7031   6.015  31.712   0.317
36432W        W 7032  22.110   7.094  11.605
36433W        W 7033  23.788   6.754   2.820
36434W        W 7034   4.674   4.576  10.889
36435W        W 7035  35.453  44.026   1.167
36436W        W 7036  19.524  20.904   2.331
36437W        W 7037  24.606   4.313   1.464
36438W        W 7038  36.132   5.188  14.636
36439W        W 7039  28.054  24.169   1.347
36440W        W 7040  43.442  20.393  13.746
36441W        W 7041  28.677  24.652  10.813
36442W        W 7042   1.248  17.760  14.358
36443W        W 7043  11.206  29.575  11.120
36444W        W 7044  31.511   4.113   0.832
36445W        W 7045  23.778  15.668   2.203
36446W        W 7046  31.511   7.418   2.307
36447W        W 7047  27.187   4.403   0.786
36448W        W 7048  35.520   7.021  11.272
36449W        W 7049  26.324  13.583   0.767
36450W        W 7050  17.241  38.350  13.780
36451W        W 7051  22.260  35.065   4.494
36452W        W 7052  12.685  41.340   1.911
36453W        W 7053   0.528  29.644  12.788
36454W        W 7054   5.712  17.716  12.132
36455W        W 7055  42.769   8.242  14.217
36456W        W 7056  16.694  23.522  14.271
36457W        W 7057  38.797  26.904   0.374
36458W        W 7058  23.201  29.367  10.675
36459W        W 7059   8.734  28.179  10.684
36460W        W 7060  28.492  38.069   3.893
36461W        W 7061  20.087  42.781   4.070
36462W        W 7062  28.949  19.174   0.664
36463W        W 7063  15.317   6.723   1.933
36464W        W 7064  35.846  33.593  12.848
36465W        W 7065  22.981  44.000  13.347
36466W        W 7066   4.559  38.693  10.998
36467W        W 7067  21.973   3.040   2.283
36468W        W 7068   8.682  15.608   2.217
36469W        W 7069  16.451   3.201   3.838
36470W        W 7070  20.324  34.073   2.228
36471W        W 7071   5.871  18.524  11.713
36472W        W 7072  19.806   4.605  13.033
36473W        W 7073  30.915  22.305   1.147
36474W        W 7074  21.150  13.592   4.984
36475W        W 7075  25.923  34.327  11.059
36476W        W 7076  41.763   8.097  11.130
36477W        W 7077   2.312  32.643  12.657
36478W        W 7078   1.842  17.894   4.625
36479W        W 7079  38.519  37.803  12.719
36480W        W 7080  11.594  21.086  12.672
36481W        W 7081  25.886  43.914  13.971
36482W        W 7082  44.248  12.587  10.002
36483W        W 7083  16.852  39.326  13.486
36484W        W 7084  23.105  42.765   0.439
36485W        W 7085   1.211  17.327   3.842
36486W        W 7086  23.314  41.091  14.313
36487W        W 7087  13.968  42.470  13.342
36488W        W 7088  25.065   0.365  13.599
36489W        W 7089  17.761  16.075  12.657
36490W        W 7090  39.607  10.164  12.946
36491W        W 7091   2.949   5.776  12.046
36492W        W 7092  14.681  33.714  10.371
36493W        W 7093  27.585   3.299  13.707
36494W        W 7094   5.669  23.942  12.142
36495W        W 7095  15.771   8.570   4.515
36496W        W 7096  16.665  16.076   1.256
36497W        W 7097   8.839  31.011   1.145
36498W        W 7098  21.237  13.582  11.975
36499W        W 7099  15.235  38.021  12.810
36500W        W 7100   1.837  27.971  13.068
36501W        W 7101  33.609  43.900  11.173
36502W        W 7102   3.775  25.712   4.270
36503W        W 7103  41.294   5.949  14.093
36504W        W 7104  42.171  20.796   4.544
36505W        W 7105  29.847  34.537   2.855
36506W        W 7106  36.177  32.317   4.009
36507W        W 7107  24.223  35.706   4.765
36508W        W 7108  12.570  43.729   1.837
36509W        W 7109   1.443  37.589  13.996
36510W        W 7110  44.004  40.449   3.580
36511W        W 7111   4.022  21.221  14.739
36512W        W 7112  19.079  34.011   9.748
36513W        W 7113  17.014   4.956   4.136
36514W        W 7114   2.209  36.850   0.356
36515W        W 7115  12.947  23.535  13.448
36516W        W 7116  29.673  22.258  12.017
36517W        W 7117  27.068  23.583  12.100
36518W        W 7118  12.366  36.050   4.337
36519W        W 7119   3.919  32.563   2.563
36520W        W 7120  14.177  21.263  14.210
36521W        W 7121  28.496   5.261   1.552
36522W        W 7122  20.674  29.158   2.815
36523W        W 7123   3.890   0.476   4.383
36524W        W 7124  33.637  43.553   2.344
36525W        W 7125   9.642  28.785   4.153
36526W        W 7126  14.248  41.937  13.385
36527W        W 7127  43.468  23.065   0.249
36528W        W 7128  37.008  39.016   1.717
36529W        W 7129  16.954   0.882  13.340
36530W        W 7130  24.629   5.082   1.926
36531W        W 7131  44.713  44.224   4.090
36532W        W 7132   5.765  39.783   1.316
36533W        W 7133  15.581   7.490  14.973
36534W        W 7134  15.808  41.443   0.457
36535W        W 7135  23.086   2.502  12.486
36536W        W 7136  31.633  28.624  14.025
36537W        W 7137  15.207  32.191   2.370
36538W        W 7138  32.485  12.786   2.806
36539W        W 7139  17.254  11.934   2.331
36540W        W 7140  44.887  40.305  13.001
36541W        W 7141  15.847  25.727  12.168
36542W        W 7142  43.026  28.520   2.640
36543W        W 7143  18.696  33.402  13.844
36544W        W 7144  10.818  11.657  12.147
36545W        W 7145  39.373  31.670  13.374
36546W        W 7146  35.526  40.742   3.680
36547W        W 7147  25.468  44.942  10.549
36548W        W 7148  12.905  29.090   2.662
36549W        W 7149  29.442   0.489   0.289
36550W        W 7150  17.268  18.592  14.022
36551W        W 7151  29.001  26.127  14.855
36552W        W 7152  13.117   0.161   3.630
36553W        W 7153  26.379  22.026   3.641
36554W        W 7154  18.446  39.021   4.971
36555W        W 7155  28.237  38.848  14.245
36556W        W 7156  11.308  35.032  13.828
36557W        W 7157  32.602   1.071  13.985
36558W        W 7158  13.592  35.899   2.623
36559W        W 7159  10.224  28.936  11.518
36560W        W 7160  25.236  17.760   0.445
36561W        W 7161   6.338  41.433  12.054
36562W        W 7162  40.034  15.732   1.311
36563W        W 7163  43.836  30.520  11.618
36564W        W 7164   8.097  34.892   2.880
36565W        W 7165  13.549  34.391  13.540
36566W        W 7166   1.209  21.219  10.636
36567W        W 7167  29.203   3.285  10.606
36568W        W 7168   0.011  19.047   3.298
36569W        W 7169  18.192  31.919   2.299
36570W        W 7170  40.457  19.912   1.991
36571W        W 7171  41.299  29.373  14.364
36572W        W 7172  42.218  23.503   4.299
36573W        W 7173  18.069  44.390  14.019
36574W        W 7174  43.476  19.516  14.243
36575W        W 7175   5.928  44.963  11.516
36576W        W 7176   9.203  36.081   3.094
36577W        W 7177  26.611  44.821   4.245
36578W        W 7178  13.321  31.979  12.933
36579W        W 7179  43.861  39.839  11.363
36580W        W 7180  22.727  15.197  11.106
36581W        W 7181  21.243  25.423  11.483
36582W        W 7182   8.494  33.532  13.372
36583W        W 7183  30.339   5.326   2.874
36584W        W 7184  29.054  37.493  10.617
36585W        W 7185  30.566  43.008  11.180
36586W        W 7186  29.875  36.466   0.960
36587W        W 7187  30.125  40.267   1.336
36588W        W 7188   8.803  14.155  12.622
36589W        W 7189  14.885  15.275   3.490
36590W        W 7190  20.672  43.182   4.729
36591W        W 7191  27.020   5.388  13.979
36592W        W 7192  37.538   8.089  13.989
36593W        W 7193  34.538   1.456   2.381
36594W        W 7194  38.322   1.298  12.297
36595W        W 7195  40.879  21.971   2.285
36596W        W 7196   2.244  18.849  10.711
36597W        W 7197  36.868  27.079   3.995
36598W        W 7198   7.867  14.775  14.554
36599W        W 7199  17.590   6.128  10.762
36600W        W 7200  43.947  24.670  13.819
36601W        W 7201   4.456  13.556   4.391
36602W        W 7202  14.083  24.219  14.819
36603W        W 7203  37.961  43.812   2.490
36604W        W 7204   9.671  15.131  13.004
36605W        W 7205  42.497  43.843   3.987
36606W        W 7206  24.595  18.540  12.552
36607W        W 7207  31.176  30.007  12.829
36608W        W 7208  39.948  29.171   0.126
36609W        W 7209   8.562   4.786   1.565
36610W        W 7210  18.821  17.700   1.937
36611W        W 7211   6.791  30.653  11.063
36612W        W 7212  34.621   2.990  13.930
36613W        W 7213  11.179  15.118   4.615
36614W        W 7214  43.071   3.455   0.938
36615W        W 7215   0.288  35.104   1.342
36616W        W 7216  14.689  33.173  12.003
36617W        W 7217   2.279  38.500   2.509
36618W        W 7218  44.567   6.589   1.803
36619W        W 7219  18.947   0.447  13.830
36620W        W 7220  29.092  34.615  13.388
36621W        W 7221  32.436  16.764   1.199
36622W        W 7222  29.856  25.872   0.831
36623W        W 7223   1.412  23.239   3.682
36624W        W 7224  36.721  26.293  14.410
36625W        W 7225  43.220  33.994   0.225
36626W        W 7226   0.299  13.402  12.081
36627W        W 7227  33.826   4.483   1.848
36628W        W 7228  34.137  14.130  11.153
36629W        W 7229  10.012  12.646   0.503
36630W        W 7230  21.356  16.912   0.921
36631W        W 7231  10.862  29.979   4.656
36632W        W 7232  34.583  24.731   3.244
36633W        W 7233  29.428  41.026  13.001
36634W        W 7234  42.693  25.926   1.818
36635W        W 7235  36.506  37.842  12.423
36636W        W 7236  11.774  33.006   0.957
36637W        W 7237   5.423  22.981   0.699
36638W        W 7238  44.825  41.001  11.513
36639W        W 7239   1.671  25.105   3.807
36640W        W 7240  19.047  40.553  11.477
36641W        W 7241  39.712   6.493  10.889
36642W        W 7242  34.175  38.294  13.907
36643W        W 7243  41.835   8.379  11.976
36644W        W 7244  18.348   4.873  10.335
36645W        W 7245  31.185  44.940   3.593
36646W        W 7246   0.186   4.396  13.321
36647W        W 7247  40.723  36.056   2.860
36648W        W 7248  27.109  25.673   2.305
36649W        W 7249  40.272  21.089  13.998
36650W        W 7250  28.001  39.182  13.349
36651W        W 7251  24.197  20.082  11.123
36652W        W 7252  26.446  14.272  14.413
36653W        W 7253  40.381  16.286  13.940
36654W        W 7254  15.615  28.584  11.947
36655W        W 7255   8.259  43.487  14.747
36656W        W 7256  38.853  38.630   4.203
36657W        W 7257  30.233   5.764  13.534
36658W        W 7258  24.549  35.601   3.877
36659W        W 7259  21.102  20.009   3.211
36660W        W 7260   1.499  39.616  14.959
36661W        W 7261  33.044  15.378   1.791
36662W        W 7262  30.009  10.197  11.433
36663W        W 7263  18.473  31.956   4.778
36664W        W 7264   2.225  28.470   1.810
36665W        W 7265  32.039  32.030  14.893
36666W        W 7266  15.877   5.773  13.536
36667W        W 7267  17.677   5.938   1.014
36668W        W 7268  35.430   0.966  13.536
36669W        W 7269  31.561  21.699  13.440
36670W        W 7270  35.831   7.495   1.793
36671W        W 7271   7.843   2.890  13.765
36672W        W 7272  23.408  31.108   1.291
36673W        W 7273  36.350  27.681   2.858
36674W        W 7274  15.846   1.316   0.345
36675W        W 7275  41.733  40.416   4.523
36676W        W 7276  15.733  21.943  10.445
36677W        W 7277  25.409  15.679   2.262
36678W        W 7278  14.724  22.483   3.376
36679W        W 7279  43.832  41.306  11.076
36680W        W 7280  10.741  34.516  12.143
36681W        W 7281  37.455  30.201  12.320
36682W        W 7282  30.648  12.057   0.901
36683W        W 7283  17.185  25.967  13.965
36684W        W 7284  12.207  23.230  11.457
36685W        W 7285  42.737  36.228   3.401
36686W        W 7286  24.191  10.135   0.434
36687W        W 7287   3.380  15.315  11.511
36688W        W 7288   9.203  24.528   2.620
36689W        W 7289  36.304  27.589   0.442
36690W        W 7290  23.421  40.483  11.665
36691W        W 7291   1.993  19.841   2.667
36692W        W 7292  27.515  14.394   3.104
36693W        W 7293  25.740  26.788  12.168
36694W        W 7294  30.454  12.427   2.317
36695W        W 7295  19.763  16.351   2.530
36696W        W 7296  34.805  26.120   1.828
36697W        W 7297  11.090  33.006  14.683
36698W        W 7298   2.520   5.506  11.975
36699W        W 7299   8.440   0.726   4.660
36700W        W 7300  11.179  44.452   1.764
36701W        W 7301  18.556  37.029   1.976
36702W        W 7302  18.002  25.054  13.463
36703W        W 7303  24.437   6.011   4.540
36704W        W 7304  39.881   7.949  11.340
36705W        W 7305  12.528  20.941   2.303
36706W        W 7306  40.994  32.612   1.713
36707W        W 7307  12.766  15.512   0.227
36708W        W 7308  22.057  33.584  12.908
36709W        W 7309  41.156   3.822   2.775
36710W        W 7310  33.913   3.970  10.620
36711W        W 7311   5.823  34.374   4.335
36712W        W 7312  20.699   4.899   0.971
36713W        W 7313  20.653  34.587   3.683
36714W        W 7314  26.523   1.190  12.427
36715W        W 7315  23.453  25.368   4.499
36716W        W 7316  21.620   8.051   1.886
36717W        W 7317   8.549  15.536  12.707
36718W        W 7318  15.401   7.333   4.952
36719W        W 7319  27.244   1.914  14.845
36720W        W 7320  13.570  39.234  11.742
36721W        W 7321  38.813   0.341   1.908
36722W        W 7322   2.149   6.176   1.298
36723W        W 7323  27.174  15.857  13.973
36724W        W 7324  12.248   4.240   2.629
36725W        W 7325   6.096  39.154  13.905
36726W        W 7326  33.795  28.631  13.456
36727W        W 7327   5.667  39.325  13.039
36728W        W 7328  38.137  11.793  11.547
36729W        W 7329  15.368   4.950  12.523
36730W        W 7330  30.137  43.076  11.952
36731W        W 7331  37.755  31.046   3.237
36732W        W 7332  37.379  17.118   0.852
36733W        W 7333  13.736   2.958  13.029
36734W        W 7334   3.584  41.855   0.183
36735W        W 7335  19.349  38.838   1.360
36736W        W 7336  38.973  28.414  11.164
36737W        W 7337  39.381  25.273   4.156
36738W        W 7338   0.696  13.816   3.695
36739W        W 7339  28.821   7.447  13.508
36740W        W 7340  12.700  28.210  11.448
36741W        W 7341   7.535  20.226   1.936
36742W        W 7342  13.562  39.217   1.465
36743W        W 7343  29.652  29.961  14.496
36744W        W 7344   7.482  33.527   1.349
36745W        W 7345  28.383  40.885  11.431
36746W        W 7346  40.443   8.180   4.971
36747W        W 7347  38.918   9.735  12.052
36748W        W 7348   4.945  15.172  14.415
36749W        W 7349   6.848   9.340   0.994
36750W        W 7350  43.451   9.832  10.699
36751W        W 7351  17.246  20.621  13.873
36752W        W 7352  24.818  11.357  10.718
36753W        W 7353  41.911  33.142   2.590
36754W        W 7354   3.438  16.575  10.862
36755W        W 7355  26.907   1.751   5.219
36756W        W 7356  10.628   6.756  11.399
36757W        W 7357   1.935  23.171   2.720
36758W        W 7358  32.382  30.756  12.999
36759W        W 7359  14.223   3.160   0.680
36760W        W 7360  41.219  34.624  12.966
36761W        W 7361  12.790  29.499  10.741
36762W        W 7362  12.670  43.897   4.631
36763W        W 7363  19.770  36.933   2.715
36764W        W 7364  44.778  40.303  13.897
36765W        W 7365  24.675  16.821  13.379
36766W        W 7366   5.879  31.646  12.499
36767W        W 7367  26.273   3.630   1.873
36768W        W 7368  38.154  12.646  10.556
36769W        W 7369  39.591  41.201  12.803
36770W        W 7370  37.451  34.605   4.233
36771W        W 7371  18.630  18.344  13.407
36772W        W 7372  21.346  32.952   3.206
36773W        W 7373   8.078  13.363  10.451
36774W        W 7374  14.736  41.046  10.474
36775W        W 7375  41.793  10.301  12.013
36776W        W 7376  17.548  36.910   4.766
36777W        W 7377  27.516   6.411  14.125
36778W        W 7378  20.645  23.657   4.621
36779W        W 7379  29.989   7.375   3.787
36780W        W 7380  44.371  42.653   0.924
36781W        W 7381  27.533  26.789   0.407
36782W        W 7382  44.722  39.849   3.039
36783W        W 7383  12.556  23.137   1.277
36784W        W 7384   5.106   1.401   2.845
36785W        W 7385  21.356  22.593   3.353
36786W        W 7386  24.093   6.863  14.495
36787W        W 7387  25.737  18.185  13.865
36788W        W 7388   7.270  27.041  14.832
36789W        W 7389  20.707  37.138  12.948
36790W        W 7390  22.617  16.681  12.378
36791W        W 7391  13.828   3.597   3.328
36792W        W 7392  29.622  23.488   9.532
36793W        W 7393   7.769  40.495  12.012
36794W        W 7394  15.837   9.790   2.769
36795W        W 7395  11.086   5.504   3.316
36796W        W 7396   2.251   7.343  14.859
36797W        W 7397  29.106   3.185   0.385
36798W        W 7398  28.469  38.383  11.269
36799W        W 7399  25.927  33.557  12.149
36800W        W 7400  24.253   9.363   1.607
36801W        W 7401  39.952  12.986   0.416
36802W        W 7402  32.000  13.846   3.297
36803W        W 7403   2.107  32.654   1.802
36804W        W 7404  32.039  38.631  12.970
36805W        W 7405  13.048   4.997  14.853
36806W        W 7406  13.813   6.613  11.025
36807W        W 7407  36.370  28.125   0.299
36808W        W 7408  39.769  44.347  10.813
36809W        W 7409  30.621  28.587  12.959
36810W        W 7410   9.891  34.542  11.258
36811W        W 7411  15.797  38.352  13.382
36812W        W 7412  33.667   3.718  12.447
36813W        W 7413  19.691   1.909   0.303
36814W        W 7414  38.126   0.836   2.690
36815W        W 7415  37.912  31.052   2.395
36816W        W 7416   3.538  41.408   2.356
36817W        W 7417  25.061  24.098   2.236
36818W        W 7418  38.936   1.277   4.719
36819W        W 7419  16.253   0.898  14.750
36820W        W 7420  17.737   0.898   4.389
36821W        W 7421  43.596   3.199  11.669
36822W        W 7422  35.338  24.065  13.115
36823W        W 7423   5.309   6.757   1.982
36824W        W 7424  13.608   4.784  11.611
36825W        W 7425   5.411  35.535  11.265
36826W        W 7426  37.490   0.500  14.341
36827W        W 7427  10.307  19.144   1.657
36828W        W 7428  36.675  41.143   1.087
36829W        W 7429  30.383  19.588   4.081
36830W        W 7430  17.069  30.221   2.670
36831W        W 7431   1.434   1.309   0.926
36832W        W 7432  34.006   1.889   3.733
36833W        W 7433   7.732  43.745  13.918
36834W        W 7434  15.113  28.621  12.636
36835W        W 7435  27.666  39.050  14.129
36836W        W 7436   0.523  30.882  12.423
36837W        W 7437  23.208  10.642   4.276
36838W        W 7438   3.009  40.085  10.585
36839W        W 7439  17.777  12.504   2.967
36840W        W 7440  40.899  11.526  11.935
36841W        W 7441  16.197  14.815  13.400
36842W        W 7442   9.171  21.440   4.745
36843W        W 7443  19.167  14.597   3.924
36844W        W 7444  27.198  34.464  13.427
36845W        W 7445   9.375  33.350  12.091
36846W        W 7446  28.486  32.686  14.361
36847W        W 7447   4.256  26.779  13.864
36848W        W 7448  13.375  16.387  10.984
36849W        W 7449  15.782  33.375   3.676
36850W        W 7450   5.926  24.206   2.911
36851W        W 7451  26.649  38.229   4.682
36852W        W 7452  11.403   9.010  10.617
36853W        W 7453  29.134  41.519   3.602
36854W        W 7454  40.743  35.377   0.712
36855W        W 7455  33.905   8.958  14.091
36856W        W 7456  28.032  43.958  12.237
36857W        W 7457   5.525  40.885   2.002
36858W        W 7458  43.734  44.012   2.277
36859W        W 7459  38.584  22.573   2.257
36860W        W 7460  38.435  44.509   2.533
36861W        W 7461   6.976   1.446  10.742
36862W        W 7462  20.625   0.432  12.590
36863W        W 7463   2.909  16.390  13.936
36864W        W 7464  36.373   5.486  13.819
36865W        W 7465   8.997  24.079   1.863
36866W        W 7466   4.343  17.049   0.400
36867W        W 7467  43.223   5.291   1.751
36868W        W 7468   3.776   5.624  10.459
36869W        W 7469   4.438  26.147  14.532
36870W        W 7470   3.186  25.508  10.518
36871W        W 7471  38.461  36.461  13.867
36872W        W 7472  10.784  25.156  11.741
36873W        W 7473  39.027  19.390   3.174
36874W        W 7474  44.993  35.939  13.557
36875W        W 7475  25.661  22.248   3.217
36876W        W 7476  30.096  22.241  12.327
36877W        W 7477  19.687  28.023  14.457
36878W        W 7478  22.721   3.829   2.428
36879W        W 7479  16.186  22.271  13.121
36880W        W 7480  11.393  32.612  14.488
36881W        W 7481  30.957   0.586   1.350
36882W        W 7482  14.257  42.464  11.027
36883W        W 7483  30.437  37.943  14.908
36884W        W 7484  38.398  39.349   1.248
36885W        W 7485  39.768  28.958  12.186
36886W        W 7486   9.172  26.244   1.045
36887W        W 7487  29.369  37.386  13.457
36888W        W 7488  23.679  33.795  10.729
36889W        W 7489  10.574   3.903   2.814
36890W        W 7490  21.999  28.391  12.075
36891W        W 7491  28.432  15.388   4.099
36892W        W 7492   5.964  12.613   2.286
36893W        W 7493  23.827  35.969   0.146
36894W        W 7494  12.228  15.349   1.789
36895W        W 7495  23.286   4.845   1.330
36896W        W 7496  27.785  16.727  11.924
36897W        W 7497  35.285  27.523   3.574
36898W        W 7498  36.157   6.112  11.621
36899W        W 7499  12.588  20.677  11.178
36900W        W 7500  25.680  17.167  12.521
36901W        W 7501   2.637  16.225   3.101
36902W        W 7502  26.392  44.334   4.235
36903W        W 7503  40.463  11.199   2.866
36904W        W 7504  12.676   7.274   0.130
36905W        W 7505  13.960  24.627  13.036
36906W        W 7506  13.706  39.874  12.387
36907W        W 7507   1.501  39.189  11.266
36908W        W 7508  36.007  34.982  11.123
36909W        W 7509   6.745  44.226   3.875
36910W        W 7510   7.908  23.095   3.786
36911W        W 7511   2.361  43.482  13.394
36912W        W 7512  15.293   9.108   0.983
36913W        W 7513   1.698  44.822   1.662
36914W        W 7514  23.809  36.195  11.608
36915W        W 7515  17.278  42.852  11.968
36916W        W 7516  10.489  25.086   1.348
36917W        W 7517  26.454  41.454  13.030
36918W        W 7518  26.096  10.809  12.924
36919W        W 7519  17.307  38.604   1.050
36920W        W 7520   1.550  10.912  14.182
36921W        W 7521  38.912  31.094   4.944
36922W        W 7522   2.719  22.935  12.518
36923W        W 7523  13.722  32.488   2.288
36924W        W 7524  27.461  28.718   4.136
36925W        W 7525  11.331  43.756  12.102
36926W        W 7526   6.458  31.432   0.257
36927W        W 7527   4.028  23.640   1.108
36928W        W 7528  23.949  39.407  14.029
36929W        W 7529  33.532  22.486   2.831
36930W        W 7530  31.028  14.389   0.896
36931W        W 7531   8.146  24.284  14.438
36932W        W 7532  40.587   3.528  13.791
36933W        W 7533  31.975  37.655   0.746
36934W        W 7534  44.636  11.344   2.616
36935W        W 7535  37.566  10.378  13.970
36936W        W 7536  41.388  19.433   0.286
36937W        W 7537  19.532  16.328   4.280
36938W        W 7538  16.478  41.523  12.844
36939W        W 7539   8.784  16.208   2.465
36940W        W 7540   5.639  22.140  13.149
36941W        W 7541  41.521  44.641   4.536
36942W        W 7542  44.851  40.340   3.144
36943W        W 7543  34.192   2.777  13.122
36944W        W 7544  20.549   2.890  11.410
36945W        W 7545  32.531   1.146   3.981
36946W        W 7546   3.845  12.184   1.890
36947W        W 7547  15.661  44.358   0.729
36948W        W 7548  23.448  29.417   1.791
36949W        W 7549  32.165  37.354   4.095
36950W        W 7550  34.018  14.639  14.897
36951W        W 7551  38.557   7.325   0.265
36952W        W 7552  15.210  17.586  14.417
36953W        W 7553  23.905  38.475   0.986
36954W        W 7554  42.914  42.967  11.748
36955W        W 7555  31.518  34.691   4.597
36956W        W 7556   9.291  35.971   4.605
36957W        W 7557  27.561  11.472   2.018
36958W        W 7558  19.051  38.658   0.973
36959W        W 7559  33.357   6.369  11.455
36960W        W 7560  32.505  37.346  12.572
36961W        W 7561  38.245  42.923  11.197
36962W        W 7562  17.884   2.781  11.584
36963W        W 7563  23.495  16.823  11.594
36964W        W 7564   0.528   5.216  14.812
36965W        W 7565  42.879  16.790   2.245
36966W        W 7566  40.010  44.679   0.459
36967W        W 7567   0.414   0.981   1.819
36968W        W 7568  12.731  18.317  14.337
36969W        W 7569  44.478  16.257   2.741
36970W        W 7570  29.639   0.001   4.216
36971W        W 7571   3.484  23.250  10.706
36972W        W 7572   4.770  22.996  14.907
36973W        W 7573  28.082  32.711   0.530
36974W        W 7574  38.816  16.665  11.569
36975W        W 7575   4.954  29.540  11.554
36976W        W 7576  23.528  42.039   2.242
36977W        W 7577  36.627  35.312  13.518
36978W        W 7578  26.020  23.699  11.399
36979W        W 7579   4.446  31.183   2.950
36980W        W 7580   3.723  36.439  10.753
36981W        W 7581  25.263  43.663  11.900
36982W        W 7582  41.962   4.434  14.459
36983W        W 7583  40.765  37.853  13.855
36984W        W 7584  16.497  17.010  13.049
36985W        W 7585  27.840  44.377   4.692
36986W        W 7586   1.223  24.428  13.453
36987W        W 7587  34.351   5.181  12.641
36988W        W 7588  39.281  44.655   2.740
36989W        W 7589  33.425  31.581   0.083
36990W        W 7590  40.156  44.304  11.207
36991W        W 7591  38.559   1.934   4.826
36992W        W 7592  36.752   9.781  10.724
36993W        W 7593  13.792  32.535   3.191
36994W        W 7594  37.404  11.005  14.351
36995W        W 7595  27.207  13.293  14.940
36996W        W 7596  14.287   7.409   4.606
36997W        W 7597  19.623  32.116   0.295
36998W        W 7598  20.540  32.160  11.640
36999W        W 7599  43.008  24.294   4.995
37000W        W 7600  42.659  20.577   4.491
37001W        W 7601  12.711  44.806  13.935
37002W        W 7602   0.263   5.545   0.754
37003W        W 7603  24.073  42.438  12.826
37004W        W 7604   7.046   3.711   0.427
37005W        W 7605   0.030  22.087  14.870
37006W        W 7606  15.515  26.612   3.612
37007W        W 7607  12.288  32.628   1.790
37008W        W 7608  17.162  31.851  10.240
37009W        W 7609  34.158  23.864   0.875
37010W        W 7610   4.698  36.448  14.071
37011W        W 7611  30.220  29.096   2.202
37012W        W 7612   7.444  24.544   0.331
37013W        W 7613  17.157  39.843   2.185
37014W        W 7614  25.250  21.282   1.673
37015W        W 7615   1.683  21.788   3.619
37016W        W 7616  37.413   5.036   4.352
37017W        W 7617  22.264  27.589  11.631
37018W        W 7618   9.821  28.369   0.333
37019W        W 7619  16.630   3.525  12.618
37020W        W 7620  12.274  13.008   0.575
37021W        W 7621  18.136  15.558  11.706
37022W        W 7622  22.190  30.614   2.724
37023W        W 7623  19.588  33.612   3.532
37024W        W 7624  41.384  27.389   2.819
37025W        W 7625  20.184  22.651  10.670
37026W        W 7626  27.033  28.562   3.235
37027W        W 7627  37.122  25.185   1.005
37028W        W 7628  21.584  25.822   3.850
37029W        W 7629  33.892   9.698  11.535
37030W        W 7630   2.676  27.988   4.324
37031W        W 7631  42.419  18.186   1.970
37032W        W 7632  35.561  37.995   1.679
37033W        W 7633   7.290  30.081  14.853
37034W        W 7634  19.440  41.400  13.818
37035W        W 7635   3.771  31.049   4.625
37036W        W 7636   5.670  17.058   0.855
37037W        W 7637  32.705   9.223   0.930
37038W        W 7638   0.805  18.556   1.880
37039W        W 7639   4.355  19.034  10.666
37040W        W 7640  13.716  44.087  14.387
37041W        W 7641  16.879  15.338   3.762
37042W        W 7642  20.179  33.658   1.280
37043W        W 7643   7.681   2.928   0.906
37044W        W 7644  38.442  35.135   2.774
37045W        W 7645   8.420  33.987   2.929
37046W        W 7646  41.382   0.774  12.047
37047W        W 7647  11.867  34.512   3.866
37048W        W 7648  34.940  36.620  14.026
37049W        W 7649  10.679   4.960   4.606
37050W        W 7650  19.707  31.488  14.547
37051W        W 7651  10.488  15.541   2.389
37052W        W 7652  27.484  30.887   4.400
37053W        W 7653  39.934  18.043   3.356
37054W        W 7654  22.707   6.710   3.905
37055W        W 7655   8.744  12.444  12.936
37056W        W 7656  25.481  24.025   0.868
37057W        W 7657  36.836  21.552   0.976
37058W        W 7658  28.530  35.778  12.005
37059W        W 7659  20.655  13.682  13.579
37060W        W 7660  27.467  33.421  13.388
37061W        W 7661  31.718  40.524  11.406
37062W        W 7662  17.194  31.368   2.342
37063W        W 7663  20.648  29.524   0.549
37064W        W 7664  21.130  10.429  12.471
37065W        W 7665   1.825   1.093  12.639
37066W        W 7666  27.157  25.628   0.064
37067W        W 7667  43.889   7.835  13.130
37068W        W 7668  16.069  38.411   2.751
37069W        W 7669  35.508  42.929  12.213
37070W        W 7670  32.924  13.698   0.377
37071W        W 7671  28.493  20.212  13.978
37072W        W 7672   4.237  32.907   3.765
37073W        W 7673  18.061  19.210   0.208
37074W        W 7674  39.553   1.925   2.249
37075W        W 7675  25.596  44.746   4.141
37076W        W 7676  24.607  10.594   1.420
37077W        W 7677  28.056  40.386  10.164
37078W        W 7678  38.984  23.472  11.623
37079W        W 7679  19.567  15.649   5.103
37080W        W 7680  28.604  32.307   2.145
37081W        W 7681   6.638  19.220  13.069
37082W        W 7682  30.628   8.285  14.270
37083W        W 7683  44.430   3.465   4.089
37084W        W 7684  36.332  28.237   3.418
37085W        W 7685  18.380  25.479  11.099
37086W        W 7686   4.894  42.553   2.721
37087W        W 7687  31.156   5.440  12.097
37088W        W 7688   4.804  43.723  10.993
37089W        W 7689  42.403  18.865   2.871
37090W        W 7690   2.679  41.123   2.420
37091W        W 7691  29.534  21.076   1.573
37092W        W 7692  34.666   7.758   3.570
37093W        W 7693  25.447   2.381   1.380
37094W        W 7694  25.405   2.185   2.974
37095W        W 7695  12.302  39.266  11.613
37096W        W 7696  29.195   5.207   3.278
37097W        W 7697  22.266  37.676   0.210
37098W        W 7698   8.588  25.093  13.596
37099W        W 7699   9.209  36.296  14.729
37100W        W 7700  43.313  42.981  12.530
37101W        W 7701  31.745  36.940  10.711
37102W        W 7702  14.018  36.219  13.353
37103W        W 7703   7.283  17.065   1.299
37104W        W 7704  12.642  37.786   1.146
37105W        W 7705  30.203  41.493  13.939
37106W        W 7706  34.897   2.913  12.537
37107W        W 7707  11.707  41.278   0.475
37108W        W 7708   9.386   6.416  13.972
37109W        W 7709  35.952  12.578  11.037
37110W        W 7710  38.857  41.025  10.561
37111W        W 7711  35.624   0.791  14.992
37112W        W 7712   9.677   4.453   4.625
37113W        W 7713  37.044  16.619  12.461
37114W        W 7714  16.354   8.190  14.809
37115W        W 7715  31.759  14.785  13.917
37116W        W 7716  22.237  37.177  12.049
37117W        W 7717  37.798  22.326   3.379
37118W        W 7718  28.459  27.413  12.036
37119W        W 7719  21.467  25.947  11.563
37120W        W 7720   8.376  15.624  14.206
37121W        W 7721  40.303  31.163  14.764
37122W        W 7722  38.583  44.824  11.625
37123W        W 7723   4.794  10.482  13.743
37124W        W 7724  43.766   7.356  14.354
37125W        W 7725  28.166  41.050   0.239
37126W        W 7726  26.424  14.368  10.711
37127W        W 7727  12.101  17.647  13.896
37128W        W 7728  22.552  38.917  12.230
37129W        W 7729  29.652  29.332   1.927
37130W        W 7730   4.185  26.607  11.424
37131W        W 7731   9.129  30.704   3.664
37132W        W 7732  27.640  37.612  12.660
37133W        W 7733  36.518   6.695   0.854
37134W        W 7734  21.599  25.195   0.720
37135W        W 7735  26.946  33.483  11.395
37136W        W 7736  21.543  32.019  13.924
37137W        W 7737  17.162   4.827   4.600
37138W        W 7738   3.822  22.809  11.978
37139W        W 7739  21.293   2.966   1.738
37140W        W 7740   8.917   4.360  10.642
37141W        W 7741  33.921  40.860   2.692
37142W        W 7742  31.436  42.878  10.368
37143W        W 7743  34.976  38.332   2.620
37144W        W 7744   7.836  29.493   3.456
37145W        W 7745  24.573  34.520   0.936
37146W        W 7746  38.342  16.104   4.167
37147W        W 7747  11.803  30.387  12.165
37148W        W 7748  29.633  23.408  12.266
37149W        W 7749  24.417   6.262   0.939
37150W        W 7750  27.947   2.255  12.535
37151W        W 7751  23.084  34.404  10.688
37152W        W 7752  23.118  37.148   0.074
37153W        W 7753  16.731  32.856   5.886
37154W        W 7754  39.759   3.264  12.509
37155W        W 7755  22.182  43.769  13.082
37156W        W 7756  22.348  41.291   3.361
37157W        W 7757  15.970   6.134  13.887
37158W        W 7758  31.400   2.977   4.911
37159W        W 7759  40.314   7.258  11.496
37160W        W 7760  11.269  16.329   0.289
37161W        W 7761  11.625   2.767   4.427
37162W        W 7762  36.086   0.777  14.748
37163W        W 7763  14.876  37.442  14.871
37164W        W 7764  31.183  14.144  14.939
37165W        W 7765  23.231  43.401  12.732
37166W        W 7766  27.556  44.457  10.099
37167W        W 7767  33.862  31.047   2.401
37168W        W 7768   6.211  14.552   1.334
37169W        W 7769  12.280  30.452   0.759
37170W        W 7770  15.908  17.055  13.790
37171W        W 7771  14.490  39.851  11.980
37172W        W 7772   7.742  32.446   3.133
37173W        W 7773  44.999  34.453   3.732
37174W        W 7774  16.800  12.673   1.150
37175W        W 7775  13.162  28.039  12.137
37176W        W 7776  32.090   4.543  10.286
37177W        W 7777  10.063  22.568   1.755
37178W        W 7778  33.163   4.712   3.669
37179W        W 7779  12.246  29.909   0.003
37180W        W 7780  28.451  35.590   3.262
37181W        W 7781  19.013  26.394  14.472
37182W        W 7782  12.760  31.508  13.114
37183W        W 7783   7.364  26.988   3.565
37184W        W 7784  38.592  44.205   1.538
37185W        W 7785  10.322   2.903   1.337
37186W        W 7786  39.011   3.852   4.827
37187W        W 7787   2.375  10.897   3.075
37188W        W 7788  25.223  24.839   2.869
37189W        W 7789  33.389   7.909   2.970
37190W        W 7790  39.104  17.077   4.555
37191W        W 7791  12.191  28.171   4.525
37192W        W 7792  36.774  37.982  14.815
37193W        W 7793   9.748  30.090  13.026
37194W        W 7794  25.004  16.295   0.438
37195W        W 7795   4.734  22.734  10.853
37196W        W 7796  32.245  42.722   3.712
37197W        W 7797   1.502  42.846   1.457
37198W        W 7798  21.569   1.605   3.781
37199W        W 7799  27.592  42.092  13.647
37200W        W 7800   6.409  44.306  10.526
37201W        W 7801  37.291  11.579  12.641
37202W        W 7802  39.853   6.902  14.534
37203W        W 7803  25.768  33.067   3.663
37204W        W 7804  15.849  20.628  14.924
37205W        W 7805  19.235  41.522   4.482
37206W        W 7806  23.597  31.574   3.711
37207W        W 7807  25.616  28.151  12.647
37208W        W 7808   1.439  24.900  13.385
37209W        W 7809   5.410  24.738   4.156
37210W        W 7810   7.923  29.586   2.475
37211W        W 7811  15.343  20.682  14.868
37212W        W 7812  22.217  27.276  13.793
37213W        W 7813  32.035  39.448  12.414
37214W        W 7814   2.080  22.737  13.246
37215W        W 7815   4.150  30.031  11.545
37216W        W 7816  44.910  33.508  10.678
37217W        W 7817  42.764   2.855   4.609
37218W        W 7818  34.007   6.829   1.194
37219W        W 7819  33.466  38.475   4.799
37220W        W 7820  27.755  15.106   2.265
37221W        W 7821   0.989  42.640   4.016
37222W        W 7822   8.440  34.416   3.267
37223W        W 7823   5.645  34.975   1.468
37224W        W 7824  29.098  28.989   4.487
37225W        W 7825   9.352  29.502   2.475
37226W        W 7826  30.108  16.715   1.407
37227W        W 7827  32.540  29.362   0.971
37228W        W 7828  19.777   6.663  12.563
37229W        W 7829  43.967  18.848   3.575
37230W        W 7830  40.948  37.267   1.416
37231W        W 7831  12.443  39.729   4.260
37232W        W 7832  40.977  27.021  13.917
37233W        W 7833   0.507  28.693   0.866
37234W        W 7834   4.177  38.982   2.369
37235W        W 7835   7.723  11.738   4.157
37236W        W 7836  19.248  14.309   1.729
37237W        W 7837   9.698  26.006   1.879
37238W        W 7838   4.885  42.657  14.503
37239W        W 7839  39.819   2.914  14.029
37240W        W 7840   3.229  35.534  10.372
37241W        W 7841  26.749   8.152  13.935
37242W        W 7842   3.832  34.631   2.511
37243W        W 7843  12.365   2.662   1.887
37244W        W 7844  10.605  25.762  11.993
37245W        W 7845  37.530  37.107   0.862
37246W        W 7846  42.870  42.363   4.951
37247W        W 7847  17.698  10.914  14.936
37248W        W 7848  35.971  24.960  11.128
37249W        W 7849  41.689  30.056   4.208
37250W        W 7850  42.530  38.016  10.669
37251W        W 7851  31.633   0.965  13.804
37252W        W 7852  38.988  12.744   0.247
37253W        W 7853  36.665  28.673   2.763
37254W        W 7854  21.303  28.474   2.855
37255W        W 7855  40.851  32.533  13.304
37256W        W 7856  19.492  23.066  14.960
37257W        W 7857  11.193  17.760  14.879
37258W        W 7858  10.699  34.435  12.644
37259W        W 7859  25.537  23.240  12.509
37260W        W 7860  30.676   5.668  12.649
37261W        W 7861  42.759  12.101  10.562
37262W        W 7862  29.833  17.137  13.866
37263W        W 7863  20.385  14.698  11.283
37264W        W 7864  40.868  25.991  12.894
37265W        W 7865  20.619  44.093   4.857
37266W        W 7866  27.463  16.776   0.821
37267W        W 7867   1.588  25.355  12.456
37268W        W 7868   1.260  12.365  14.960
37269W        W 7869  31.677  39.896  13.915
37270W        W 7870  23.027   0.545   3.818
37271W        W 7871  33.939  35.036   1.688
37272W        W 7872  14.078  22.601   1.805
37273W        W 7873  19.823   6.122   1.286
37274W        W 7874  13.574  34.949   2.213
37275W        W 7875  19.931  35.537  13.449
37276W        W 7876   3.432  13.194   1.744
37277W        W 7877  24.666   2.035   3.477
37278W        W 7878  32.859   5.891  13.905
37279W        W 7879  22.142   7.249   0.010
37280W        W 7880  11.943  43.379  13.409
37281W        W 7881  38.476   7.828  13.638
37282W        W 7882  32.585  32.595  13.411
37283W        W 7883   9.802  17.186  14.909
37284W        W 7884  19.882   0.310  11.291
37285W        W 7885  14.154  25.731  11.095
37286W        W 7886  32.568  42.767  14.354
37287W        W 7887  25.652  14.756  13.953
37288W        W 7888  27.385   2.308   1.710
37289W        W 7889   4.887  13.254  12.417
37290W        W 7890   3.981  42.349  11.483
37291W        W 7891  29.940  32.677   3.278
37292W        W 7892  11.816   0.253   4.514
37293W        W 7893  23.938  22.009   0.916
37294W        W 7894   2.974  21.079  13.102
37295W        W 7895   3.716   2.515  10.736
37296W        W 7896  21.587  14.297   4.776
37297W        W 7897  11.401  17.690   2.420
37298W        W 7898  19.753   2.457  12.157
37299W        W 7899  24.967  17.640   0.869
37300W        W 7900  10.287  10.492   5.025
37301W        W 7901  14.688  18.129  14.445
37302W        W 7902  18.174  25.061   3.795
37303W        W 7903  33.653  28.199  11.416
37304W        W 7904   9.365  44.389  10.865
37305W        W 7905  10.155  16.722  10.215
37306W        W 7906  18.047  11.637  11.218
37307W        W 7907  19.919  37.605   0.541
37308W        W 7908  15.257  41.909  14.862
37309W        W 7909   6.748  25.020   0.802
37310W        W 7910  40.476   0.074  10.876
37311W        W 7911  34.641  28.593   1.770
37312W        W 7912  24.392  27.488   3.054
37313W        W 7913  39.525   4.378   1.275
37314W        W 7914  36.374   1.265  11.614
37315W        W 7915  42.869  16.525   1.750
37316W        W 7916  36.628  21.272   0.347
37317W        W 7917   0.082  39.345  12.082
37318W        W 7918   1.583  44.508  14.547
37319W        W 7919  41.997   9.187   4.701
37320W        W 7920  14.709   2.366  12.357
37321W        W 7921  43.764  41.897  13.456
37322W        W 7922  23.617  26.368   4.489
37323W        W 7923  30.461  16.701   1.830
37324W        W 7924  31.799  20.496  11.018
37325W        W 7925  38.366   6.979   3.090
37326W        W 7926  39.970  17.329   4.606
37327W        W 7927  44.362   0.654   2.892
37328W        W 7928   5.324   2.707  12.345
37329W        W 7929  38.253  30.659   1.330
37330W        W 7930  29.384  14.659  12.890
37331W        W 7931  37.265  19.031   0.617
37332W        W 7932   3.869  36.204  11.174
37333W        W 7933  35.537  28.975  11.141
37334W        W 7934  11.261  21.567  11.141
37335W        W 7935  34.950  18.762   0.591
37336W        W 7936  12.234  17.406  14.335
37337W        W 7937  34.344  25.209   2.234
37338W        W 7938  38.992  12.371  13.830
37339W        W 7939   4.147   7.888   0.481
37340W        W 7940   4.593  32.848  14.768
37341W        W 7941   5.194  43.743  12.881
37342W        W 7942  33.461  18.989  12.097
37343W        W 7943  19.679   0.280   1.234
37344W        W 7944  40.975  23.482  14.783
37345W        W 7945   1.268  44.791  11.169
37346W        W 7946  39.810   6.699  13.619
37347W        W 7947  44.297   3.591  14.528
37348W        W 7948   7.490  44.224  11.594
37349W        W 7949  35.562   9.285  11.623
37350W        W 7950  37.804  19.720  12.473
37351W        W 7951  32.055  44.702  10.664
37352W        W 7952  43.263   2.833  11.585
37353W        W 7953  30.115  16.590   3.975
37354W        W 7954  38.375  15.611   3.994
37355W        W 7955  19.248  24.576   3.370
37356W        W 7956  44.717  32.755   3.639
37357W        W 7957  27.699  32.945  11.869
37358W        W 7958  24.650  15.173  14.942
37359W        W 7959  28.566   9.344   2.696
37360W        W 7960  24.086  26.665   3.173
37361W        W 7961  25.865  19.238  14.864
37362W        W 7962   3.080  18.581   5.004
37363W        W 7963  44.459  33.408   2.223
37364W        W 7964  44.724  20.552   1.682
37365W        W 7965  28.610  18.702   4.566
37366W        W 7966  19.197  40.588   4.380
37367W        W 7967  10.413  18.870  11.343
37368W        W 7968  32.118  31.899   1.474
37369W        W 7969  37.093  29.536   0.744
37370W        W 7970   0.616  22.931  11.149
37371W        W 7971  24.529  15.083   2.262
37372W        W 7972  23.199  14.046  14.508
37373W        W 7973   0.744  16.497   0.842
37374W        W 7974  44.328  40.854  13.381
37375W        W 7975  31.182   2.243   4.458
37376W        W 7976  23.620  31.660  14.112
37377W        W 7977  30.611  19.478   1.502
37378W        W 7978   7.180   4.788  10.123
37379W        W 7979   4.420  35.113  14.539
37380W        W 7980  23.097   3.820  11.685
37381W        W 7981   5.689   7.692  13.906
37382W        W 7982  18.117  27.665  10.870
37383W        W 7983  41.963  20.356  13.446
37384W        W 7984  44.716   3.250   3.697
37385W        W 7985   1.853   9.825   0.746
37386W        W 7986  40.853  33.569  13.430
37387W        W 7987   4.879  42.287  11.113
37388W        W 7988  21.063  15.556   2.564
37389W        W 7989  19.112  28.576   4.552
37390W        W 7990  29.889  37.790   4.158
37391W        W 7991   4.175  13.354  14.723
37392W        W 7992  37.915  10.689  14.982
37393W        W 7993  24.227  10.864   1.708
37394W        W 7994  30.136  28.593   2.231
37395W        W 7995  32.158  43.336  13.639
37396W        W 7996  35.802  36.028  14.418
37397W        W 7997  32.402  43.951   1.815
37398W        W 7998  34.521  28.128   3.037
37399W        W 7999   1.721  14.460  12.134
37400W        W 8000   3.830   0.484  12.828
37401W        W 8001  41.681  35.194   4.622
37402W        W 8002  11.125   7.679   2.679
37403W        W 8003   0.262  37.276   3.201
37404W        W 8004   4.200  27.506   3.696
37405W        W 8005   8.818  39.050   1.006
37406W        W 8006   6.835  27.749  11.356
37407W        W 8007  26.888  31.514  13.904
37408W        W 8008   5.896   2.692  14.552
37409W        W 8009  41.310  23.455  11.343
37410W        W 8010   1.955  22.654   2.767
37411W        W 8011  20.626  15.548  11.983
37412W        W 8012   0.351  27.205  10.507
37413W        W 8013   2.440  24.023   4.319
37414W        W 8014   8.311  17.251  13.528
37415W        W 8015   8.398  16.720   3.900
37416W        W 8016  20.032  39.281   3.915
37417W        W 8017  43.806   5.445  13.385
37418W        W 8018  35.358   7.250   1.796
37419W        W 8019  19.738  44.271  13.154
37420W        W 8020  34.431  29.688   0.540
37421W        W 8021  32.183  24.755  14.089
37422W        W 8022  30.009  15.824   1.208
37423W        W 8023  38.320  18.609  12.733
37424W        W 8024  38.504   2.636  14.411
37425W        W 8025   6.169   8.236  10.471
37426W        W 8026  15.081   7.502  12.461
37427W        W 8027   4.137  42.942  13.360
37428W        W 8028  41.566   6.351  14.272
37429W        W 8029  27.082  40.543   1.821
37430W        W 8030  26.163  39.824   2.622
37431W        W 8031   5.934  33.521   1.168
37432W        W 8032   0.315   4.275  13.806
37433W        W 8033   9.821  36.834   0.252
37434W        W 8034   3.819  29.425   3.061
37435W        W 8035  12.623  34.973  12.152
37436W        W 8036  12.394  11.104   4.226
37437W        W 8037  30.593  16.127   3.923
37438W        W 8038  11.901   2.982  13.101
37439W        W 8039   3.246   0.774  10.805
37440W        W 8040  40.547  44.244  10.395
37441W        W 8041   6.367  29.672  14.594
37442W        W 8042  35.013  43.125   3.894
37443W        W 8043  10.153  27.572   4.097
37444W        W 8044  28.675  26.147   4.541
37445W        W 8045  10.850  25.182   1.897
37446W        W 8046  15.562  27.991  13.364
37447W        W 8047  37.409   9.105  14.184
37448W        W 8048  27.046  11.796   4.775
37449W        W 8049  35.131  27.911   2.333
37450W        W 8050  23.073  43.726  11.480
37451W        W 8051  24.417  26.072  13.639
37452W        W 8052  44.333  10.377   3.579
37453W        W 8053  38.433   6.386  12.672
37454W        W 8054  39.665  22.107  13.000
37455W        W 8055   0.311  15.545  13.366
37456W        W 8056  14.628   1.283  12.467
37457W        W 8057  16.234  29.467   0.334
37458W        W 8058  16.251  27.988  13.972
37459W        W 8059  40.935  34.314  13.945
37460W        W 8060  33.095  16.456   0.871
37461W        W 8061  19.556  17.205  12.042
37462W        W 8062  31.134  39.357   2.308
37463W        W 8063  14.046  27.682  12.028
37464W        W 8064  36.986  30.153  11.108
37465W        W 8065   3.376  14.527  14.951
37466W        W 8066   3.447  44.410  14.389
37467W        W 8067   9.249  15.131  14.725
37468W        W 8068   3.959  27.528   1.882
37469W        W 8069  10.484  32.490   5.122
37470W        W 8070  30.400  41.566  10.733
37471W        W 8071  40.409   4.358   2.300
37472W        W 8072  18.667  32.513   0.407
37473W        W 8073   3.483  22.608   4.187
37474W        W 8074  26.694  11.554  13.412
37475W        W 8075  30.452  18.645   3.041
37476W        W 8076   0.746   3.741   4.394
37477W        W 8077  40.290   9.223  14.490
37478W        W 8078   6.543  20.630   0.329
37479W        W 8079  34.573  39.060   2.369
37480W        W 8080  10.296   4.338   2.823
37481W        W 8081  39.094  24.967   2.367
37482W        W 8082   9.248  25.027  11.641
37483W        W 8083   7.989  25.866   3.634
37484W        W 8084  33.461  42.702  13.127
37485W        W 8085  23.218   5.670   2.646
37486W        W 8086  41.550  32.458   3.478
37487W        W 8087   1.762  14.175  10.601
37488W        W 8088  43.427  26.409   0.197
37489W        W 8089  26.222  33.025  13.617
37490W        W 8090  22.436  21.269   0.702
37491W        W 8091   6.929   9.379   2.353
37492W        W 8092   6.910  28.401  12.369
37493W        W 8093  33.858  10.275  13.947
37494W        W 8094  43.939   3.881  14.814
37495W        W 8095  30.845  21.550  12.126
37496W        W 8096   6.887  27.660   1.331
37497W        W 8097   7.736  34.822   4.349
37498W        W 8098  43.494   6.765   0.883
37499W        W 8099  12.843  38.274   2.642
37500W        W 8100   4.324   1.321  10.751
37501W        W 8101  17.201  15.093  11.676
37502W        W 8102   4.619  26.624  11.672
37503W        W 8103  25.142  38.230   1.422
37504W        W 8104  37.266   4.920  12.386
37505W        W 8105  27.701  11.306   0.222
37506W        W 8106   6.259  14.007  14.783
37507W        W 8107  42.309   8.154  13.440
37508W        W 8108  25.195  23.429  11.528
37509W        W 8109  32.837  26.585  14.509
37510W        W 8110   8.905  24.070  11.137
37511W        W 8111  17.048  15.787  10.719
37512W        W 8112  23.202  21.194   1.405
37513W        W 8113   3.982  12.613  11.255
37514W        W 8114  25.501  11.927  10.436
37515W        W 8115   5.265  43.262   2.031
37516W        W 8116  44.628  44.373  13.623
37517W        W 8117  42.239  21.851   3.376
37518W        W 8118  28.605  10.807   3.965
37519W        W 8119   7.862  26.396  12.436
37520W        W 8120  18.926  24.674  11.940
37521W        W 8121   8.711  28.255  13.099
37522W        W 8122   5.885  30.706  10.902
37523W        W 8123   7.211  27.176  12.549
37524W        W 8124  33.473   3.830  11.094
37525W        W 8125  16.719  32.004  12.046
37526W        W 8126  25.475  44.839   0.673
37527W        W 8127  35.062  25.107  12.502
37528W        W 8128  15.684  14.159  14.860
37529W        W 8129  43.272  38.596  14.351
37530W        W 8130  35.015  31.400   1.803
37531W        W 8131   0.040  28.375  13.991
37532W        W 8132  26.603   6.110   4.545
37533W        W 8133   9.725  42.615   1.784
37534W        W 8134  44.038   3.825   1.803
37535W        W 8135  32.895  44.435   3.747
37536W        W 8136   3.819  16.409  13.829
37537W        W 8137   7.600  25.572  11.153
37538W        W 8138  38.422  29.730  11.087
37539W        W 8139  38.328   3.235  13.533
37540W        W 8140  16.313   2.780   0.648
37541W        W 8141  21.505  15.569   1.827
37542W        W 8142  43.647  14.135   3.353
37543W        W 8143   2.477  22.704   1.011
37544W        W 8144  35.888  17.851   0.690
37545W        W 8145   0.341  25.922   4.862
37546W        W 8146  22.001  18.554  11.372
37547W        W 8147  42.731  16.372  13.419
37548W        W 8148   7.545  23.287  11.284
37549W        W 8149  33.900  15.208  14.494
37550W        W 8150   4.266  40.055   1.479
37551W        W 8151  25.942  26.575   3.449
37552W        W 8152  17.320  40.194  13.489
37553W        W 8153   3.402  33.934  12.650
37554W        W 8154  28.623  40.035   0.911
37555W        W 8155   7.926  11.847   2.753
37556W        W 8156   2.385   2.418   2.048
37557W        W 8157  36.913  15.390  14.452
37558W        W 8158  22.584  33.750   1.029
37559W        W 8159  19.729   8.743  14.819
37560W        W 8160   0.682  41.619  14.170
37561W        W 8161  44.973  29.735  13.533
37562W        W 8162  36.038  28.804  13.837
37563W        W 8163  35.906  26.171   3.323
37564W        W 8164   2.986  30.202  13.843
37565W        W 8165  25.774  34.901   4.092
37566W        W 8166  31.997  43.799   4.583
37567W        W 8167  25.577  42.094  13.875
37568W        W 8168  10.779  21.027  11.107
37569W        W 8169  13.254  39.007  11.413
37570W        W 8170  20.994  14.581   4.492
37571W        W 8171  32.305  16.185  14.382
37572W        W 8172  44.532  26.510   4.128
37573W        W 8173  33.902   2.207   0.446
37574W        W 8174   7.796  24.766  11.605
37575W        W 8175  43.896  21.290  10.701
37576W        W 8176  43.011  35.381   1.792
37577W        W 8177  38.759  26.032  10.994
37578W        W 8178  32.635  18.655   1.629
37579W        W 8179  21.441  31.654  14.407
37580W        W 8180  30.654  15.369  14.833
37581W        W 8181   6.856  24.067   4.315
37582W        W 8182  21.328  26.582   4.493
37583W        W 8183  43.115   5.401   2.574
37584W        W 8184  31.373  17.145   2.196
37585W        W 8185  25.932  31.878  14.845
37586W        W 8186  43.364  21.261  13.421
37587W        W 8187  13.650  16.076   2.654
37588W        W 8188  12.554   0.836   3.318
37589W        W 8189  31.225  15.356   1.161
37590W        W 8190  28.523  16.357   0.514
37591W        W 8191  17.297  30.575  11.746
37592W        W 8192   3.902  38.920  13.894
37593W        W 8193  29.409   6.312   1.443
37594W        W 8194  25.616  22.242   1.240
37595W        W 8195   4.886  22.727  13.535
37596W        W 8196  38.472  13.154   4.676
37597W        W 8197   8.379   7.250  11.025
37598W        W 8198   3.303  43.402  14.067
37599W        W 8199  37.591  27.809  14.966
37600W        W 8200  23.522   5.103   3.233
37601W        W 8201   5.612  38.909   3.945
37602W        W 8202  26.950  19.758   4.673
37603W        W 8203  32.476  35.878  13.097
37604W        W 8204  40.764  28.049  14.525
37605W        W 8205  26.580  26.131   5.070
37606W        W 8206   4.241  31.853   4.568
37607W        W 8207  16.387  17.049  14.234
37608W        W 8208  10.155  38.242   1.928
37609W        W 8209  26.555  10.122   4.838
37610W        W 8210  29.065  40.764   3.060
37611W        W 8211  34.055  31.920   3.792
37612W        W 8212  32.130  27.148  13.473
37613W        W 8213  22.687   8.282   0.516
37614W        W 8214  19.278  14.827   3.180
37615W        W 8215  16.269  17.779  11.908
37616W        W 8216  25.720  17.732  14.498
37617W        W 8217  37.558   2.453  11.784
37618W        W 8218  37.972  14.839  12.612
37619W        W 8219  38.670   6.140  14.465
37620W        W 8220  10.641  16.399  12.859
37621W        W 8221  37.716  29.799   2.717
37622W        W 8222   3.560  11.101  10.433
37623W        W 8223  17.050  33.479  14.243
37624W        W 8224  17.607  40.476   2.294
37625W        W 8225  25.635  20.050   2.153
37626W        W 8226  13.867  40.605  13.346
37627W        W 8227  35.849  14.065   4.628
37628W        W 8228  38.345  41.287   3.247
37629W        W 8229  15.536  26.674  11.432
37630W        W 8230  35.663  23.026  11.707
37631W        W 8231  42.581   0.401   2.876
37632W        W 8232  27.693  27.779  11.026
37633W        W 8233  35.565   2.697   3.850
37634W        W 8234  43.898  32.159  11.534
37635W        W 8235   1.996  35.939  12.110
37636W        W 8236  26.111   6.500  11.898
37637W        W 8237  16.747  17.819   4.903
37638W        W 8238  38.867  39.591  12.334
37639W        W 8239  34.400  33.070  12.657
37640W        W 8240  44.265   5.113   4.303
37641W        W 8241  17.927  19.313   4.894
37642W        W 8242  34.647  44.990  10.980
37643W        W 8243  18.862  29.234  12.621
37644W        W 8244   1.673  15.830  13.463
37645W        W 8245  42.564   0.431   4.707
37646W        W 8246  11.043  30.177  11.941
37647W        W 8247  34.368  22.571  12.094
37648W        W 8248  32.074  16.814   3.248
37649W        W 8249  19.133  32.382   2.217
37650W        W 8250   8.320  35.965  10.348
37651W        W 8251   9.212  44.311  12.940
37652W        W 8252  23.945  23.477  11.594
37653W        W 8253  22.593  12.409   3.267
37654W        W 8254  44.757  31.354   1.390
37655W        W 8255  19.157  21.579  14.146
37656W        W 8256  35.369   2.827  11.662
37657W        W 8257  25.618  29.725   3.734
37658W        W 8258  15.420  23.994  11.154
37659W        W 8259  10.893  36.944  14.413
37660W        W 8260  14.563  26.418   2.186
37661W        W 8261   9.136  17.095   1.806
37662W        W 8262  44.357  11.399  14.272
37663W        W 8263  26.963  16.591   2.854
37664W        W 8264  16.736  31.521   1.806
37665W        W 8265  44.504  36.032   3.078
37666W        W 8266   8.917  30.484   2.882
37667W        W 8267   5.667  33.660   3.198
37668W        W 8268  12.288   2.524  13.864
37669W        W 8269  11.078  42.491   9.667
37670W        W 8270  26.798   9.114   1.793
37671W        W 8271  22.632   3.011   3.015
37672W        W 8272  30.131   1.394   0.441
37673W        W 8273   3.484   5.851   0.386
37674W        W 8274  39.910  16.624  12.487
37675W        W 8275  15.240  13.620  12.511
37676W        W 8276  35.985   1.256  14.865
37677W        W 8277  20.875  43.997  13.055
37678W        W 8278  11.238  36.556  11.531
37679W        W 8279   7.171   5.904   2.781
37680W        W 8280  36.160  11.355  13.308
37681W        W 8281  20.073  32.783  13.225
37682W        W 8282  42.511  17.142  13.092
37683W        W 8283  29.074  17.596   2.693
37684W        W 8284   3.483  14.059   0.890
37685W        W 8285  33.545  17.504   2.371
37686W        W 8286   4.438  39.968  14.350
37687W        W 8287   0.382   8.784  14.760
37688W        W 8288  18.974  27.160  12.012
37689W        W 8289   8.631  41.768  11.210
37690W        W 8290  10.635  23.131   1.168
37691W        W 8291  11.380  38.824   2.619
37692W        W 8292  18.838  38.187  10.474
37693W        W 8293   0.342   0.457  11.671
37694W        W 8294   9.318  25.607   3.839
37695W        W 8295  29.358  36.484  13.306
37696W        W 8296   6.103  35.049   0.332
37697W        W 8297  14.996   9.852   0.709
37698W        W 8298  33.615  22.217   2.376
37699W        W 8299   1.415  25.640  12.879
37700W        W 8300  10.230   3.074  13.890
37701W        W 8301   3.895   0.458   4.897
37702W        W 8302   6.660  30.558   1.499
37703W        W 8303  12.411  18.527   0.206
37704W        W 8304  38.861  18.079   0.278
37705W        W 8305  42.067  33.951   1.271
37706W        W 8306  30.180   0.031   2.333
37707W        W 8307  32.618  33.187   3.271
37708W        W 8308  30.585  31.355  11.905
37709W        W 8309   1.701  31.861  10.773
37710W        W 8310  17.652   2.458   0.441
37711W        W 8311  16.330  22.783  13.024
37712W        W 8312  13.369  17.827  12.953
37713W        W 8313  20.554  24.639   1.269
37714W        W 8314  43.448  34.749   2.493
37715W        W 8315   3.467  25.907   2.785
37716W        W 8316  26.024   4.497  10.984
37717W        W 8317  21.586  29.220   2.532
37718W        W 8318  15.656  12.005   4.968
37719W        W 8319  38.523  30.776   0.720
37720W        W 8320  14.875  22.402   3.859
37721W        W 8321  22.753   3.505  13.876
37722W        W 8322   3.485  20.279  12.913
37723W        W 8323  44.935  24.692   4.891
37724W        W 8324  34.472  25.565  11.665
37725W        W 8325   9.665  31.436  12.787
37726W        W 8326  24.829  25.466  13.111
37727W        W 8327  28.120  38.047   2.750
37728W        W 8328  42.587  27.694  11.081
37729W        W 8329  31.515  28.527  12.434
37730W        W 8330  37.567  39.748   0.289
37731W        W 8331   0.975  36.409   0.284
37732W        W 8332  42.864   1.641   0.434
37733W        W 8333  34.240  29.043   3.151
37734W        W 8334   2.548  38.352  11.922
37735W        W 8335  18.181  34.448  14.789
37736W        W 8336   1.219  10.681  14.504
37737W        W 8337  40.049  19.337   1.206
37738W        W 8338   9.864  25.268  10.611
37739W        W 8339  23.113   3.920  13.930
37740W        W 8340  16.379   4.966   3.030
37741W        W 8341  41.705  23.503   4.121
37742W        W 8342  24.575  10.700  10.762
37743W        W 8343  28.264  38.369  12.488
37744W        W 8344  33.354  44.763   3.083
37745W        W 8345  30.012  18.097   3.647
37746W        W 8346  23.667  22.990  13.358
37747W        W 8347  14.716   0.771  12.561
37748W        W 8348  17.170  17.742   3.412
37749W        W 8349  22.026   3.695  10.710
37750W        W 8350  41.238  34.209  12.645
37751W        W 8351   2.012  22.227   1.259
37752W        W 8352  39.022  17.218   0.877
37753W        W 8353   5.904  44.851  13.582
37754W        W 8354  19.803  38.566   1.497
37755W        W 8355   6.749   1.483  14.850
37756W        W 8356  20.393  27.059   4.253
37757W        W 8357  33.445  13.168   4.498
37758W        W 8358  44.141  43.237   4.085
37759W        W 8359  29.892  43.290  13.987
37760W        W 8360   5.745  24.509   0.969
37761W        W 8361   6.302   2.886  12.639
37762W        W 8362   6.272   8.823   3.282
37763W        W 8363  38.118   6.723  13.854
37764W        W 8364   8.524   1.584   2.631
37765W        W 8365  10.659  40.630   1.064
37766W        W 8366  36.333  22.555  14.827
37767W        W 8367   7.079  33.925  11.799
37768W        W 8368  41.967   9.758   0.246
37769W        W 8369  10.644  16.250  11.534
37770W        W 8370  25.905  20.771   2.030
37771W        W 8371  24.968  26.216   2.251
37772W        W 8372   4.748  44.311   3.365
37773W        W 8373   9.545  11.889   0.782
37774W        W 8374   0.966   5.938  14.496
37775W        W 8375  33.894  43.940   1.216
37776W        W 8376  34.003   3.696  11.038
37777W        W 8377  20.283  18.515   0.424
37778W        W 8378  16.540   7.454   4.198
37779W        W 8379  25.564  12.731  14.898
37780W        W 8380   3.026  36.489  10.371
37781W        W 8381  11.584   1.508  14.904
37782W        W 8382  14.614   9.635  12.574
37783W        W 8383  41.496  11.037  11.058
37784W        W 8384  41.030  44.387   0.233
37785W        W 8385   5.144  41.851   0.381
37786W        W 8386  41.899  24.496  13.380
37787W        W 8387   5.181   3.765  11.035
37788W        W 8388  31.054  23.771  12.905
37789W        W 8389   2.253  16.094   0.436
37790W        W 8390   9.351   7.639   3.230
37791W        W 8391  24.964  20.654   0.703
37792W        W 8392  23.332   4.222  12.940
37793W        W 8393  41.358  21.479  10.773
37794W        W 8394   4.327  27.234   0.347
37795W        W 8395  36.879  34.998   1.206
37796W        W 8396   5.765  26.911  12.294
37797W        W 8397  17.140  19.369  11.195
37798W        W 8398  37.353   3.966   2.299
37799W        W 8399  18.932  23.734   0.927
37800W        W 8400  16.183   3.940  12.824
37801W        W 8401  28.224  19.477   4.690
37802W        W 8402  19.111  28.143   5.278
37803W        W 8403  33.879  32.958  10.488
37804W        W 8404  23.434   0.192   3.839
37805W        W 8405   9.125   3.747   4.947
37806W        W 8406  17.789  26.123  14.917
37807W        W 8407   5.951  20.443  12.847
37808W        W 8408  15.442  36.896  11.179
37809W        W 8409   0.255  42.487   0.811
37810W        W 8410  29.374  28.159   2.223
37811W        W 8411  31.017  39.765  14.762
37812W        W 8412   6.994  36.578   1.431
37813W        W 8413   8.473   8.313   4.774
37814W        W 8414  29.168  32.066   0.763
37815W        W 8415   1.506  36.437  13.105
37816W        W 8416  37.284  43.540  13.286
37817W        W 8417  14.146  39.498   0.917
37818W        W 8418  11.222  20.634  10.627
37819W        W 8419  16.259   9.373  11.443
37820W        W 8420  40.906   1.414  12.029
37821W        W 8421  20.093   9.599  14.084
37822W        W 8422  28.805  24.926   2.212
37823W        W 8423  44.503  10.804  14.065
37824W        W 8424  40.807  37.679   4.595
37825W        W 8425  42.877  21.913   0.308
37826W        W 8426  44.707  14.639  13.378
37827W        W 8427   6.884   8.215   1.676
37828W        W 8428  31.395  24.019   2.331
37829W        W 8429  30.367   0.745   3.270
37830W        W 8430  27.929  41.329  12.937
37831W        W 8431  11.383  44.494   1.280
37832W        W 8432   6.247  30.977  12.015
37833W        W 8433  32.949  28.088   3.391
37834W        W 8434  35.091  33.562   2.154
37835W        W 8435  40.279  38.968  12.186
37836W        W 8436   9.275   2.825  14.325
37837W        W 8437  42.524  37.012  11.904
37838W        W 8438   4.188  39.849   4.396
37839W        W 8439  17.242  13.763  12.136
37840W        W 8440   2.138  25.277  14.010
37841W        W 8441   9.174   0.887  11.961
37842W        W 8442  34.554   8.029   4.559
37843W        W 8443  44.740  35.828  11.265
37844W        W 8444  41.849  42.163   3.886
37845W        W 8445  25.250   1.648  10.589
37846W        W 8446  38.613   2.872   0.544
37847W        W 8447  40.181  29.890  11.106
37848W        W 8448  24.754  38.985  11.481
37849W        W 8449  33.904  16.067   3.698
37850W        W 8450  18.302  18.131   4.756
37851W        W 8451  38.538   2.053   2.053
37852W        W 8452  34.936  38.179   0.005
37853W        W 8453  15.663   6.963   2.744
37854W        W 8454  20.173  33.631  10.961
37855W        W 8455  36.822  18.637  11.547
37856W        W 8456  27.452  41.242   0.708
37857W        W 8457  34.880  34.527   0.013
37858W        W 8458  15.682   7.132  12.994
37859W        W 8459  18.271  32.403   4.176
37860W        W 8460  19.612  19.359  14.119
37861W        W 8461  38.465  31.498   2.876
37862W        W 8462  40.975  34.683   4.417
37863W        W 8463  11.700  35.910  12.998
37864W        W 8464  33.867  29.635   0.117
37865W        W 8465  28.240  19.237   5.157
37866W        W 8466   3.245  32.427  12.665
37867W        W 8467  27.205  28.171  14.444
37868W        W 8468  40.130  25.522  14.471
37869W        W 8469  19.664  16.704   2.147
37870W        W 8470  26.757   5.313  13.541
37871W        W 8471  17.545  15.531  13.487
37872W        W 8472   6.350  38.337   4.327
37873W        W 8473  42.552  40.277   3.644
37874W        W 8474  12.369   0.720  14.827
37875W        W 8475  33.996  41.490   3.185
37876W        W 8476  31.715  10.829   3.118
37877W        W 8477  21.996  25.282   3.967
37878W        W 8478   3.876  25.140  12.868
37879W        W 8479  20.015  19.358   2.702
37880W        W 8480  38.864   3.192  13.427
37881W        W 8481   2.167  21.799   3.884
37882W        W 8482  37.122  20.145   1.338
37883W        W 8483   8.388   1.954   0.260
37884W        W 8484  33.061   6.059  10.728
37885W        W 8485  11.250  27.966  12.473
37886W        W 8486  37.597   2.723   0.878
37887W        W 8487  11.894  24.804  12.971
37888W        W 8488  40.824  28.582   2.700
37889W        W 8489  42.746  23.594   0.480
37890W        W 8490  44.106  37.424  10.897
37891W        W 8491  42.539   7.814   1.770
37892W        W 8492   2.648  42.847  11.546
37893W        W 8493  10.697  43.492  14.201
37894W        W 8494  24.685  32.558  14.510
37895W        W 8495   7.276  41.381  13.139
37896W        W 8496   5.779  32.428   4.550
37897W        W 8497  32.377  19.594   2.107
37898W        W 8498   9.825  12.527  11.891
37899W        W 8499  42.084  39.833  13.307
37900W        W 8500  39.981  31.150  10.942
37901W        W 8501   5.684  16.677  11.875
37902W        W 8502  11.692  11.142  10.758
37903W        W 8503  28.731  42.134   3.380
37904W        W 8504   7.854  24.556   4.694
37905W        W 8505  26.705  34.906   0.995
37906W        W 8506  41.552  10.728   0.207
37907W        W 8507  36.246  34.043  13.782
37908W        W 8508  26.475  25.323  13.878
37909W        W 8509  36.530   0.689  10.964
37910W        W 8510  28.020  37.563  13.041
37911W        W 8511   8.114  38.389  12.888
37912W        W 8512  40.477  26.671  13.334
37913W        W 8513  28.693   7.366   2.381
37914W        W 8514   7.311   9.808   0.746
37915W        W 8515  29.461   0.202  11.142
37916W        W 8516   4.366   4.915  11.369
37917W        W 8517  18.353  22.835   1.153
37918W        W 8518  18.198  39.126   4.515
37919W        W 8519   0.272  30.562   0.796
37920W        W 8520  42.548  13.127  12.510
37921W        W 8521  39.744  15.745   3.774
37922W        W 8522  19.816  34.346   3.269
37923W        W 8523  42.403  43.567   3.238
37924W        W 8524  21.613   1.352  10.717
37925W        W 8525   8.346   0.830   1.160
37926W        W 8526  43.837   8.398   0.317
37927W        W 8527  40.440  44.963   1.981
37928W        W 8528   6.474   5.805  13.838
37929W        W 8529  16.599  40.921  10.975
37930W        W 8530  37.523   8.734  12.446
37931W        W 8531  36.656   1.280  12.064
37932W        W 8532   6.786  12.293  14.376
37933W        W 8533  17.619  41.799  13.890
37934W        W 8534  12.443  33.583   2.739
37935W        W 8535  40.637   8.265  12.879
37936W        W 8536  42.349   4.964  12.066
37937W        W 8537  17.272  16.783   0.595
37938W        W 8538  31.128   1.268   1.955
37939W        W 8539  13.751  32.458  14.233
37940W        W 8540  34.914  16.204   3.326
37941W        W 8541  22.087  21.718  11.135
37942W        W 8542   3.266  39.546   0.382
37943W        W 8543   6.999  12.188   4.140
37944W        W 8544  37.272  27.179  13.548
37945W        W 8545  39.119   5.064   2.822
37946W        W 8546  31.976  10.266  13.700
37947W        W 8547  35.390  27.179  11.164
37948W        W 8548  33.984  16.870   0.666
37949W        W 8549  23.507   4.447   3.872
37950W        W 8550  24.436   6.927   2.297
37951W        W 8551  27.687  42.315  11.874
37952W        W 8552  37.963  30.572   4.146
37953W        W 8553   5.847  20.800  10.993
37954W        W 8554  37.873  20.154   0.804
37955W        W 8555  29.029  44.922  14.916
37956W        W 8556   7.322  29.004  14.013
37957W        W 8557  37.666  17.106  11.968
37958W        W 8558  24.099  34.697   3.209
37959W        W 8559   7.359  26.001   2.280
37960W        W 8560  11.859  31.873   4.201
37961W        W 8561  18.281  11.314   1.074
37962W        W 8562   4.721   5.079  10.807
37963W        W 8563   7.100  14.414  13.676
37964W        W 8564   4.227  32.545   1.439
37965W        W 8565  14.614  38.158   4.739
37966W        W 8566  14.041  43.877  11.488
37967W        W 8567  16.140  31.356  14.896
37968W        W 8568  23.002  24.499  13.980
37969W        W 8569  16.219  33.058   4.949
37970W        W 8570  19.755  29.600  12.896
37971W        W 8571  33.129  24.351  11.099
37972W        W 8572   3.003   0.915  13.105
37973W        W 8573  44.195  21.678  10.859
37974W        W 8574  29.074  24.555  11.624
37975W        W 8575  16.115  11.105   1.334
37976W        W 8576  18.764  38.741   2.602
37977W        W 8577  38.132  24.163  11.582
37978W        W 8578  31.992  15.533   2.887
37979W        W 8579  41.764  36.880   2.776
37980W        W 8580  36.175  23.086   1.340
37981W        W 8581   8.916  21.638   2.651
37982W        W 8582  11.909  10.079   0.325
37983W        W 8583  22.592  34.112   3.638
37984W        W 8584  36.839  25.691   4.616
37985W        W 8585   6.402  32.157   4.100
37986W        W 8586  22.509  36.063  12.025
37987W        W 8587  25.714   6.415  13.318
37988W        W 8588   8.919  12.803   1.632
37989W        W 8589   6.166  28.975  14.789
37990W        W 8590   4.512  42.882  14.821
37991W        W 8591  10.776  35.809   1.894
37992W        W 8592  34.030  34.733  12.004
37993W        W 8593  28.842  15.426  12.114
37994W        W 8594  44.963  27.231  14.510
37995W        W 8595  25.520  33.154   0.340
37996W        W 8596   9.733  24.810   4.513
37997W        W 8597  44.370  24.295   5.040
37998W        W 8598   5.924  10.681   3.349
37999W        W 8599  31.141  36.615   0.435
38000W        W 8600  41.848   8.741  11.482
38001W        W 8601  31.430  10.791  13.371
38002W        W 8602  13.274  44.446  12.111
38003W        W 8603   6.381  25.651  14.740
38004W        W 8604  25.021  22.266   1.781
38005W        W 8605  29.966  18.752   4.364
38006W        W 8606  28.531  31.216  10.888
38007W        W 8607  26.470  15.324  10.770
38008W        W 8608  41.780  18.297  12.087
38009W        W 8609  34.181  13.839  13.410
38010W        W 8610  21.108  42.892   2.786
38011W        W 8611   3.696  13.622   0.655
38012W        W 8612  28.586   5.303   2.582
38013W        W 8613  18.062  19.565   3.653
38014W        W 8614  20.821  10.282  11.571
38015W        W 8615  18.775   2.528  14.450
38016W        W 8616   1.493   6.337   4.121
38017W        W 8617  30.432  12.273   4.517
38018W        W 8618  41.242  29.985   0.837
38019W        W 8619  35.465  39.631  11.568
38020W        W 8620  32.959  30.421   4.216
38021W        W 8621   0.043   9.360   1.849
38022W        W 8622  36.546  35.524   4.620
38023W        W 8623  38.068  18.668   0.965
38024W        W 8624  34.743  43.353   2.866
38025W        W 8625  33.070  10.904  12.043
38026W        W 8626   7.322  29.119   0.449
38027W        W 8627  10.824  17.452  11.136
38028W        W 8628   7.338  42.697   5.093
38029W        W 8629  26.270  20.695  13.391
38030W        W 8630  14.780   1.794   2.241
38031W        W 8631  44.823  30.126   4.240
38032W        W 8632  36.007  24.064   4.199
38033W        W 8633  14.689  22.052   1.217
38034W        W 8634   1.933  24.412  11.390
38035W        W 8635   4.441  37.987  12.107
38036W        W 8636   4.052   2.296   3.934
38037W        W 8637  13.668   7.806  11.709
38038W        W 8638   3.167  23.930   1.817
38039W        W 8639  31.111   9.148   2.577
38040W        W 8640   1.423   4.996   2.762
38041W        W 8641  39.905  40.577   2.182
38042W        W 8642  33.540   5.342  11.673
38043W        W 8643  40.688  34.809   1.799
38044W        W 8644  17.274  26.712   0.454
38045W        W 8645  27.767  35.551  11.405
38046W        W 8646  24.169  30.279  14.513
38047W        W 8647  21.969  29.048  12.795
38048W        W 8648  40.559  22.178   0.963
38049W        W 8649  32.727  18.793   2.628
38050W        W 8650  33.358   8.284   0.526
38051W        W 8651  37.454  23.016   0.521
38052W        W 8652  20.766  34.561   1.244
38053W        W 8653  15.906  20.915  12.665
38054W        W 8654   2.362  42.086   1.096
38055W        W 8655  11.660   7.868  13.620
38056W        W 8656   4.255  29.041   2.189
38057W        W 8657  41.874  38.557  14.698
38058W        W 8658  14.899  32.327   5.028
38059W        W 8659  24.407  37.467  13.944
38060W        W 8660  27.290   6.132   1.574
38061W        W 8661  44.007   6.434   3.128
38062W        W 8662   5.849   0.557   0.762
38063W        W 8663  27.666  12.870  13.557
38064W        W 8664   4.386   2.230  13.985
38065W        W 8665  29.272   1.934  11.152
38066W        W 8666  16.846  29.917   3.538
38067W        W 8667  38.518  10.613  14.323
38068W        W 8668   7.317  19.129   1.389
38069W        W 8669  34.654  43.372   4.498
38070W        W 8670  14.400  39.347   0.377
38071W        W 8671   4.401  20.009  11.626
38072W        W 8672   6.426  43.034   1.108
38073W        W 8673   1.773  22.433   0.764
38074W        W 8674  23.997  29.472   1.786
38075W        W 8675  36.517  10.243  10.507
38076W        W 8676  26.094   5.929  14.449
38077W        W 8677   4.753  34.029  14.764
38078W        W 8678  18.556  40.890   1.430
38079W        W 8679  22.520  36.046   0.427
38080W        W 8680  19.923   8.678   3.613
38081W        W 8681  22.923   5.310  13.743
38082W        W 8682   1.027  42.514   3.288
38083W        W 8683  22.025  42.840  14.231
38084W        W 8684  39.695  41.781  11.198
38085W        W 8685  36.305   7.217   0.801
38086W        W 8686  14.139  36.043  11.918
38087W        W 8687  28.149  44.982  11.155
38088W        W 8688  19.076   0.727  12.137
38089W        W 8689   6.608  12.055  13.937
38090W        W 8690  30.143  42.546  12.590
38091W        W 8691  42.386  38.301  12.617
38092W        W 8692  27.063   7.972  14.336
38093W        W 8693  27.868  13.087   4.362
38094W        W 8694  32.021  38.336   2.801
38095W        W 8695  11.480  44.437  11.560
38096W        W 8696  26.711  13.025  11.170
38097W        W 8697  12.623  34.832   2.129
38098W        W 8698   5.764  35.505  11.630
38099W        W 8699   5.454  29.413  11.511
38100W        W 8700  18.347  34.047   1.550
38101W        W 8701  26.191   3.398  13.740
38102W        W 8702  32.145  41.960   4.392
38103W        W 8703  31.687   5.665  12.602
38104W        W 8704   9.818  34.256  14.391
38105W        W 8705  42.777  39.304   0.364
38106W        W 8706  19.122   2.910  12.870
38107W        W 8707   1.300  18.702   1.808
38108W        W 8708  41.771  42.859  10.265
38109W        W 8709   5.772  19.265  12.031
38110W        W 8710   7.338  29.012  12.657
38111W        W 8711   6.425  12.686  14.435
38112W        W 8712   9.923  14.623  12.515
38113W        W 8713  34.029  10.397   2.212
38114W        W 8714   3.010  31.423   4.174
38115W        W 8715  10.461  11.131   0.234
38116W        W 8716  23.144  27.087   1.687
38117W        W 8717  28.182  30.034  13.262
38118W        W 8718  15.550   6.238  13.526
38119W        W 8719   9.237   6.757   1.011
38120W        W 8720  44.660   6.391   9.799
38121W        W 8721  42.428  37.502   4.308
38122W        W 8722  11.696  34.395  14.920
38123W        W 8723  41.502  23.072  14.001
38124W        W 8724  37.344  24.494   0.223
38125W        W 8725  34.549  14.919   1.818
38126W        W 8726  17.133  28.458  12.220
38127W        W 8727   1.168  40.315  12.620
38128W        W 8728  37.310  27.474   3.812
38129W        W 8729  15.617  36.594  14.067
38130W        W 8730  23.570  39.823   1.620
38131W        W 8731  21.116  43.656   5.528
38132W        W 8732  15.057  32.936   2.011
38133W        W 8733  14.771  39.963   3.300
38134W        W 8734  20.210   4.932  11.176
38135W        W 8735  29.611   8.216   4.241
38136W        W 8736   9.139   6.703  10.705
38137W        W 8737  21.625   4.460   0.857
38138W        W 8738   1.200   2.424   4.143
38139W        W 8739  40.721  21.705   3.660
38140W        W 8740  23.013  27.572   1.786
38141W        W 8741  38.187  16.645  13.263
38142W        W 8742   5.303  12.819  14.111
38143W        W 8743   3.120  44.406  12.025
38144W        W 8744  40.791  15.745   2.398
38145W        W 8745  28.640  20.531   2.435
38146W        W 8746   4.664  37.711  13.396
38147W        W 8747  40.380  28.441  12.972
38148W        W 8748  27.013  39.561  12.046
38149W        W 8749  36.322   8.134  10.716
38150W        W 8750  42.881  26.873  13.708
38151W        W 8751   7.038  25.127  12.444
38152W        W 8752   8.972  37.935   0.323
38153W        W 8753  31.059  35.333   1.777
38154W        W 8754   1.485  14.937  14.756
38155W        W 8755  37.581  25.542   2.763
38156W        W 8756  21.558  36.869   3.779
38157W        W 8757  36.379  12.152   3.361
38158W        W 8758   6.402  26.148   2.510
38159W        W 8759  13.732  40.091  11.593
38160W        W 8760  37.638  21.127  10.748
38161W        W 8761  18.564  38.447  10.848
38162W        W 8762  39.642   5.402  11.177
38163W        W 8763  30.835  36.027  11.585
38164W        W 8764  14.838  15.696  11.271
38165W        W 8765  38.703  28.794  13.453
38166W        W 8766  15.400  37.522  14.939
38167W        W 8767  15.182  39.681   2.275
38168W        W 8768  44.657  24.266  12.378
38169W        W 8769  42.514  24.732   2.832
38170W        W 8770  38.045  39.778   3.203
38171W        W 8771  12.178  31.599   3.410
38172W        W 8772  18.601  42.987   0.804
38173W        W 8773  16.714  29.602   4.145
38174W        W 8774  22.253  44.071   2.764
38175W        W 8775  37.150   2.301  12.043
38176W        W 8776  21.004   6.541   2.153
38177W        W 8777  17.721  15.094   0.233
38178W        W 8778   4.360  20.831   1.648
38179W        W 8779   3.754  10.210   0.866
38180W        W 8780  18.225  29.578   4.609
38181W        W 8781  32.388  28.007  13.207
38182W        W 8782  26.699  28.110  11.640
38183W        W 8783   9.018  11.212  13.583
38184W        W 8784  14.566   7.238   4.133
38185W        W 8785  44.764   5.829  10.609
38186W        W 8786  43.537  13.887  14.727
38187W        W 8787  21.991  35.183  13.582
38188W        W 8788   1.156   6.829  12.507
38189W        W 8789  37.540  28.965   0.406
38190W        W 8790  24.480  33.291   0.377
38191W        W 8791  14.732  23.488  14.931
38192W        W 8792  42.815  42.586   0.951
38193W        W 8793  32.152  29.107   0.300
38194W        W 8794  20.647   9.308   1.419
38195W        W 8795  29.519  18.829  11.177
38196W        W 8796  34.862  16.799  11.118
38197W        W 8797  10.188  19.670   1.412
38198W        W 8798  34.488  36.054  14.725
38199W        W 8799   7.773  15.806   3.619
38200W        W 8800  17.607   2.093   3.607
38201W        W 8801  22.271   4.268   3.235
38202W        W 8802   0.255   6.835   3.914
38203W        W 8803  32.140  37.815   2.836
38204W        W 8804  30.918   1.726   4.189
38205W        W 8805  28.629  33.919  12.312
38206W        W 8806  27.576  29.056  14.208
38207W        W 8807  36.930  14.016   2.357
38208W        W 8808   0.125  32.780  13.847
38209W        W 8809  14.172   9.616   1.356
38210W        W 8810  10.705   1.224  12.847
38211W        W 8811  26.230   4.366   1.224
38212W        W 8812  15.832  23.032   0.221
38213W        W 8813   6.809   4.590   1.771
38214W        W 8814  14.152   3.730   2.933
38215W        W 8815  34.449   8.689  10.857
38216W        W 8816  26.140  25.915  14.959
38217W        W 8817  30.411  21.596  14.832
38218W        W 8818  17.087  15.370  13.340
38219W        W 8819  38.749   5.446  10.430
38220W        W 8820  16.406  30.487   1.945
38221W        W 8821  22.248  34.825   1.298
38222W        W 8822  21.093  22.166   3.398
38223W        W 8823  21.784  39.974  14.880
38224W        W 8824  40.267   0.724  14.871
38225W        W 8825  17.655  41.507   4.333
38226W        W 8826   2.848   4.998   3.150
38227W        W 8827  22.021   6.755   0.798
38228W        W 8828  22.752  41.057   3.574
38229W        W 8829  11.807  12.092  13.419
38230W        W 8830  10.803  41.883  10.532
38231W        W 8831   9.326   1.535  13.014
38232W        W 8832  42.355  13.061  14.371
38233W        W 8833   3.467   9.198   3.689
38234W        W 8834  21.142  44.479  14.280
38235W        W 8835  34.617   5.829  10.926
38236W        W 8836  25.917  15.692   9.860
38237W        W 8837  29.188  20.321   1.138
38238W        W 8838  37.525  30.867   4.270
38239W        W 8839  39.749  28.582  11.808
38240W        W 8840  28.909  38.950  11.941
38241W        W 8841  43.548  35.385   1.724
38242W        W 8842  25.360   7.630   5.045
38243W        W 8843  19.568  13.197  10.915
38244W        W 8844  26.423  14.715   3.314
38245W        W 8845  18.548  39.489   4.241
38246W        W 8846  37.498  28.667  12.043
38247W        W 8847  39.509   1.213   2.807
38248W        W 8848   0.101   9.292  11.566
38249W        W 8849  43.738  24.032   1.337
38250W        W 8850  14.207  41.903   1.058
38251W        W 8851  17.765  17.705  10.795
38252W        W 8852  29.229  30.587   3.083
38253W        W 8853   5.590  30.597  11.760
38254W        W 8854  40.955   1.842  13.070
38255W        W 8855  15.173  25.272  14.186
38256W        W 8856  33.937  36.370   2.758
38257W        W 8857  33.813   0.274  14.805
38258W        W 8858  27.197  19.754   2.877
38259W        W 8859  25.340  22.147   3.809
38260W        W 8860  21.604   6.666   3.784
38261W        W 8861  12.070  34.999   3.386
38262W        W 8862   4.903  24.134  12.546
38263W        W 8863  38.542   1.191  13.882
38264W        W 8864   0.943  10.268   1.399
38265W        W 8865  25.471  27.191   4.099
38266W        W 8866  40.703  18.665  13.848
38267W        W 8867   8.792  17.777  12.987
38268W        W 8868  31.492   2.749  13.616
38269W        W 8869   8.482   6.612   3.260
38270W        W 8870   7.821  31.603  10.723
38271W        W 8871   5.945  36.932  14.292
38272W        W 8872  25.496  42.982  13.567
38273W        W 8873  21.883   3.525   2.402
38274W        W 8874   9.786   8.798   4.220
38275W        W 8875   0.926  18.219   1.392
38276W        W 8876   0.303  25.680  14.898
38277W        W 8877  34.443  29.495   3.186
38278W        W 8878  38.587  28.436  14.268
38279W        W 8879  27.003  37.578  13.312
38280W        W 8880  19.296  10.703  12.358
38281W        W 8881  28.101  21.590   0.795
38282W        W 8882  22.767  31.178   3.668
38283W        W 8883   7.923  24.009  13.409
38284W        W 8884  25.956  33.858   1.816
38285W        W 8885  25.380  15.161   2.354
38286W        W 8886  42.444  16.216   1.841
38287W        W 8887  14.314  15.867   3.116
38288W        W 8888  27.136  13.398  12.050
38289W        W 8889   1.367  42.093   0.223
38290W        W 8890  20.728  23.628  12.594
38291W        W 8891  40.012  38.015  11.178
38292W        W 8892   3.121  35.017   3.177
38293W        W 8893  15.008  40.810   3.268
38294W        W 8894  33.628  30.664  11.833
38295W        W 8895   2.490   3.399  13.904
38296W        W 8896  41.810   1.634   0.629
38297W        W 8897   1.178  30.615  14.050
38298W        W 8898  18.274  18.263   0.388
38299W        W 8899  43.091  17.143  13.867
38300W        W 8900  41.401  14.725   2.677
38301W        W 8901  39.874  33.072   2.768
38302W        W 8902  26.195  40.950   0.928
38303W        W 8903   8.930  11.791   2.712
38304W        W 8904   5.785  11.713  11.377
38305W        W 8905  19.009  39.080  11.469
38306W        W 8906  27.627   3.216   5.134
38307W        W 8907  19.869   7.292  14.911
38308W        W 8908  36.131  29.119  12.125
38309W        W 8909  16.353  31.484   2.138
38310W        W 8910  41.638  36.373  12.457
38311W        W 8911  26.894  11.811   1.256
38312W        W 8912   4.357  12.113  12.030
38313W        W 8913  18.692  19.612   3.901
38314W        W 8914  29.039  37.105  12.371
38315W        W 8915  28.333  39.508   3.673
38316W        W 8916  25.415  30.556   3.353
38317W        W 8917  18.388   4.181  11.471
38318W        W 8918  42.908  28.693   4.735
38319W        W 8919  37.806   3.944   2.750
38320W        W 8920  27.225   5.171   0.248
38321W        W 8921   1.317   2.670  12.864
38322W        W 8922  35.657  27.985  12.846
38323W        W 8923   0.529  12.048  14.475
38324W        W 8924  36.141   6.215   0.437
38325W        W 8925  31.909  29.570   0.362
38326W        W 8926  32.393   1.363  13.596
38327W        W 8927  39.830  28.172  10.872
38328W        W 8928  16.846   8.225  13.322
38329W        W 8929  11.377   9.694   0.973
38330W        W 8930  22.103  35.582   4.593
38331W        W 8931  44.006  29.489  14.493
38332W        W 8932  23.831  15.144   2.838
38333W        W 8933  34.779  20.074   1.150
38334W        W 8934   8.638  24.903  11.141
38335W        W 8935  44.286  42.987  12.365
38336W        W 8936  37.866   4.508   1.914
38337W        W 8937  10.056  35.646  14.967
38338W        W 8938  15.675  40.118  13.115
38339W        W 8939  25.111  44.963  13.921
38340W        W 8940   4.226   1.262   1.181
38341W        W 8941  31.057  39.731  12.422
38342W        W 8942  14.728   1.285   2.855
38343W        W 8943  39.009  18.007   2.771
38344W        W 8944  25.193  10.245   4.264
38345W        W 8945   3.266  43.284  13.020
38346W        W 8946  15.733  30.634   0.872
38347W        W 8947  21.067  43.535  13.276
38348W        W 8948  30.717  13.338  11.093
38349W        W 8949  18.595   4.274  13.856
38350W        W 8950   3.446   2.488  14.404
38351W        W 8951  27.376  42.669  12.105
38352W        W 8952   4.828  32.148  12.932
38353W        W 8953  16.345  12.750  10.694
38354W        W 8954   3.507  12.551   3.780
38355W        W 8955  20.776  11.418  14.009
38356W        W 8956   2.457  32.057   0.101
38357W        W 8957  18.091   2.737  10.568
38358W        W 8958  21.832  17.009  14.053
38359W        W 8959  42.227  28.664   4.165
38360W        W 8960  22.096  17.676  11.854
38361W        W 8961  24.902  33.265  14.049
38362W        W 8962  29.143   0.784  12.668
38363W        W 8963   4.641  14.221  13.423
38364W        W 8964  14.242  19.208   3.090
38365W        W 8965  17.668  29.538   4.566
38366W        W 8966  24.757  28.616   4.069
38367W        W 8967  32.828  13.905  14.408
38368W        W 8968  23.610   8.605  13.825
38369W        W 8969  19.112  10.021  13.014
38370W        W 8970  20.364  35.495   1.453
38371W        W 8971  36.986  23.574  12.475
38372W        W 8972   3.911  18.028  11.906
38373W        W 8973   1.895  40.108   0.558
38374W        W 8974   7.232  13.934  12.450
38375W        W 8975  43.033  13.874  11.060
38376W        W 8976   6.814  13.768  12.066
38377W        W 8977   6.225  36.970  13.858
38378W        W 8978  33.108   9.391   3.691
38379W        W 8979   3.174  33.174  14.957
38380W        W 8980  12.667  32.849  11.567
38381W        W 8981  38.287   5.596   2.304
38382W        W 8982  41.027   9.702  11.668
38383W        W 8983  31.589  37.054  12.160
38384W        W 8984  21.737   1.910   3.092
38385W        W 8985   3.203   4.523   2.261
38386W        W 8986  41.964  37.510   4.559
38387W        W 8987  41.079   6.387   2.543
38388W        W 8988  43.666  19.787  13.345
38389W        W 8989   5.336   4.269  11.107
38390W        W 8990  20.586   2.869  13.868
38391W        W 8991  30.669   7.532   2.069
38392W        W 8992  41.024  36.894  14.432
38393W        W 8993   9.225  30.036  10.798
38394W        W 8994  23.940  31.787   0.337
38395W        W 8995  15.359  19.032   0.354
38396W        W 8996  31.661  17.616   3.109
38397W        W 8997  38.306  30.053  14.001
38398W        W 8998  30.012  41.492  14.439
38399W        W 8999  40.143  37.766   1.405
38400W        W 9000  37.980   5.004   1.952
38401W        W 9001  33.393  23.022  12.893
38402W        W 9002  13.566  44.804  12.615
38403W        W 9003  30.971  28.783   4.119
38404W        W 9004  37.591  27.497  11.927
38405W        W 9005   1.161  38.105   3.808
38406W        W 9006  24.649  15.674   0.785
38407W        W 9007   3.995  20.681  10.692
38408W        W 9008  28.386  10.240  12.820
38409W        W 9009  23.780   8.838   1.133
38410W        W 9010   6.444  14.635   4.111
38411W        W 9011  43.331   5.446  13.751
38412W        W 9012  37.421   5.260   1.728
38413W        W 9013  13.626  17.587  13.742
38414W        W 9014  29.631  21.880  12.994
38415W        W 9015  24.516  27.582   1.259
38416W        W 9016   0.709  15.600   0.950
38417W        W 9017  41.301  17.725   4.490
38418W        W 9018   2.217  28.673  13.281
38419W        W 9019   7.917  40.041   2.742
38420W        W 9020   1.607  17.640   4.181
38421W        W 9021  43.275  26.554   4.630
38422W        W 9022  36.462   8.753   4.684
38423W        W 9023  19.386  15.174  10.802
38424W        W 9024  40.927  26.833  14.842
38425W        W 9025  42.940   3.708   4.573
38426W        W 9026  18.218  28.976   3.765
38427W        W 9027  13.642  28.103  11.112
38428W        W 9028  10.672  12.411   3.031
38429W        W 9029  38.316  26.476   2.159
38430W        W 9030  41.432  35.212   0.460
38431W        W 9031  40.416  40.933   0.256
38432W        W 9032  30.062   3.688  14.338
38433W        W 9033  22.219   8.895  14.437
38434W        W 9034   2.205  32.128   1.178
38435W        W 9035  26.614  15.706  13.802
38436W        W 9036  11.143   4.250   0.558
38437W        W 9037  34.941  21.147  11.669
38438W        W 9038  16.134  13.897   2.179
38439W        W 9039  27.020  12.702   4.792
38440W        W 9040   4.851  22.597   3.324
38441W        W 9041   4.083   9.132  12.080
38442W        W 9042  22.270  39.883   2.000
38443W        W 9043  10.786  35.448  12.086
38444W        W 9044  41.894  24.097   2.719
38445W        W 9045  24.903  33.351  11.957
38446W        W 9046  39.913  28.695  10.788
38447W        W 9047  43.461  37.524   1.741
38448W        W 9048   5.478  28.397   3.534
38449W        W 9049  11.361  11.788   3.076
38450W        W 9050  31.653   8.688  11.515
38451W        W 9051   5.245  20.200  10.719
38452W        W 9052  38.858  43.510  12.508
38453W        W 9053  11.784   6.669  12.096
38454W        W 9054  22.401  19.601   2.182
38455W        W 9055   0.033  16.983   0.442
38456W        W 9056  19.389  35.095   2.904
38457W        W 9057  14.636  26.130   3.835
38458W        W 9058  31.942  42.884   4.098
38459W        W 9059   4.115  17.159  12.469
38460W        W 9060  42.577  42.790   0.047
38461W        W 9061  23.677   0.779   0.294
38462W        W 9062  41.082  44.962  10.753
38463W        W 9063  26.072  37.586  11.431
38464W        W 9064  21.508  32.175   0.296
38465W        W 9065  25.142  34.354   1.976
38466W        W 9066  26.726  38.416  12.533
38467W        W 9067  12.422  20.134  11.780
38468W        W 9068  18.702  21.524   1.802
38469W        W 9069  32.030  33.576  14.934
38470W        W 9070  12.631   4.969   4.215
38471W        W 9071  23.187  29.315   4.775
38472W        W 9072  28.107  44.037   1.428
38473W        W 9073  43.772  26.244  13.853
38474W        W 9074  10.217  21.718  11.179
38475W        W 9075   0.378   2.656  13.131
38476W        W 9076  27.634   4.767  11.121
38477W        W 9077  30.269  28.630  12.571
38478W        W 9078  14.762  19.608   2.714
38479W        W 9079  42.029  43.839  14.448
38480W        W 9080   5.657  36.791  13.850
38481W        W 9081  19.734   4.196  11.137
38482W        W 9082  24.904  12.111  13.460
38483W        W 9083  40.015  40.799   2.666
38484W        W 9084  20.030  40.936  13.251
38485W        W 9085   4.622  20.333  14.340
38486W        W 9086  11.282  23.272  10.955
38487W        W 9087  33.181  42.808   0.774
38488W        W 9088  33.474  44.222  13.450
38489W        W 9089  34.265  25.100  11.993
38490W        W 9090  24.447  43.585   2.775
38491W        W 9091   8.201  24.519  14.904
38492W        W 9092  40.351  20.644   2.386
38493W        W 9093  18.184  23.633   3.589
38494W        W 9094  24.413  38.658  13.016
38495W        W 9095  28.766   7.751  14.272
38496W        W 9096  16.593  12.210  12.914
38497W        W 9097  19.301  19.813   1.643
38498W        W 9098  34.924   1.230   1.397
38499W        W 9099  31.218   0.754   3.614
38500W        W 9100  17.506   5.081   4.200
38501W        W 9101  13.903   0.721  10.869
38502W        W 9102   4.268  44.343   0.005
38503W        W 9103  38.887  31.685   0.826
38504W        W 9104  14.856  30.918   4.834
38505W        W 9105  12.722  38.778   4.504
38506W        W 9106  26.723  24.560   4.147
38507W        W 9107  32.582  31.580  12.850
38508W        W 9108  37.517  33.648   2.802
38509W        W 9109  14.608  42.397  11.602
38510W        W 9110  37.505  19.602   4.811
38511W        W 9111  14.930  13.534   1.257
38512W        W 9112  40.959  13.888   1.459
38513W        W 9113   5.935  13.710   3.786
38514W        W 9114  26.133  21.755  13.463
38515W        W 9115  37.111   6.892   4.365
38516W        W 9116   1.336  43.838  10.469
38517W        W 9117  24.790  32.926  14.991
38518W        W 9118  17.166  38.593  10.790
38519W        W 9119  41.127  42.387   4.683
38520W        W 9120  11.013  21.181   2.123
38521W        W 9121  36.799  17.805   2.340
38522W        W 9122  32.112  37.476  14.489
38523W        W 9123  36.266  25.844   2.244
38524W        W 9124  25.616   0.881  14.979
38525W        W 9125  40.622  12.331  11.439
38526W        W 9126  10.950  12.197  11.342
38527W        W 9127  11.768  20.254   2.737
38528W        W 9128   2.428  21.155  13.038
38529W        W 9129  10.777   2.190  12.002
38530W        W 9130  23.291  37.305  12.578
38531W        W 9131   9.883  18.850  12.089
38532W        W 9132  21.440  23.619  11.540
38533W        W 9133  40.543  30.254   0.271
38534W        W 9134  20.075  25.881  14.001
38535W        W 9135  26.698   7.917  11.774
38536W        W 9136   4.827   5.925  13.445
38537W        W 9137  19.324  26.655   2.810
38538W        W 9138  25.979  41.316  13.922
38539W        W 9139   7.861   5.390  14.941
38540W        W 9140  34.607  11.135   4.305
38541W        W 9141  18.799   5.987   0.470
38542W        W 9142  20.905  27.206   4.238
38543W        W 9143   3.985  41.015  10.753
38544W        W 9144  19.515  39.540   4.618
38545W        W 9145  23.001   3.492   1.957
38546W        W 9146  11.149  25.819  11.186
38547W        W 9147  26.448  27.634  10.267
38548W        W 9148  21.408  28.532  11.457
38549W        W 9149   0.318  18.758   4.271
38550W        W 9150  40.056  21.169   4.143
38551W        W 9151  39.133  11.815  10.598
38552W        W 9152  16.600  14.678   2.720
38553W        W 9153  20.958  38.545  13.530
38554W        W 9154  22.023  28.535  11.571
38555W        W 9155  16.709   9.610   4.526
38556W        W 9156  25.038  16.125  10.786
38557W        W 9157  39.381  11.119  12.164
38558W        W 9158  19.343  23.504   3.629
38559W        W 9159  43.712   6.948   1.315
38560W        W 9160  25.627  20.640   3.804
38561W        W 9161  34.111  33.514   0.934
38562W        W 9162   7.801  18.960   2.759
38563W        W 9163  33.533  40.360  11.803
38564W        W 9164  39.491   9.825   0.676
38565W        W 9165  36.163  44.896  14.835
38566W        W 9166  36.492  33.583   2.671
38567W        W 9167  15.001  15.693  14.391
38568W        W 9168  39.346  22.975  10.756
38569W        W 9169  21.547   7.291   3.114
38570W        W 9170  12.844   4.389   1.915
38571W        W 9171  17.590  39.804  14.096
38572W        W 9172  31.453   3.720  12.538
38573W        W 9173  36.657  18.002  11.095
38574W        W 9174  37.818   7.648  14.897
38575W        W 9175  29.864  27.229   2.256
38576W        W 9176   8.690   1.434  11.944
38577W        W 9177  15.823  29.706   5.047
38578W        W 9178  26.299  29.445  13.751
38579W        W 9179  31.350  25.612  12.523
38580W        W 9180  22.143  12.717  11.060
38581W        W 9181   9.346  19.580  11.518
38582W        W 9182  29.762  31.089  13.298
38583W        W 9183  33.887  39.623   0.316
38584W        W 9184   3.786  35.666   3.119
38585W        W 9185  33.487  33.830  14.288
38586W        W 9186  18.494  30.975   1.903
38587W        W 9187  39.913   9.227   4.540
38588W        W 9188  16.597  19.631  12.415
38589W        W 9189   4.904  39.611   3.775
38590W        W 9190  11.166  26.410   0.379
38591W        W 9191  10.396  39.663  11.871
38592W        W 9192  32.673  30.992  14.250
38593W        W 9193  41.742   9.428  14.905
38594W        W 9194  34.872  10.849   3.326
38595W        W 9195  28.224  23.002  10.764
38596W        W 9196  34.904  12.534  14.886
38597W        W 9197  19.507  21.722   2.769
38598W        W 9198   8.647  43.460   0.514
38599W        W 9199  26.954   1.452   0.521
38600W        W 9200   2.836   4.134  12.002
38601W        W 9201  43.956  37.947   3.837
38602W        W 9202  31.135  33.652   2.430
38603W        W 9203  13.729  25.629  12.876
38604W        W 9204  38.549   6.316   2.816
38605W        W 9205  40.663  21.468   4.963
38606W        W 9206  39.737  36.961   2.690
38607W        W 9207  39.814  23.796   2.882
38608W        W 9208   1.349  36.162   2.191
38609W        W 9209  21.400  35.323   1.447
38610W        W 9210  21.519   6.239  10.908
38611W        W 9211  25.285  32.916  14.070
38612W        W 9212  36.004  33.323   2.612
38613W        W 9213  40.503  20.233  11.307
38614W        W 9214  10.069  21.656  14.410
38615W        W 9215   9.844  33.876   0.675
38616W        W 9216  18.870   8.284  12.672
38617W        W 9217  24.427  41.838   4.458
38618W        W 9218  36.542  27.632   0.905
38619W        W 9219  35.801  39.401  12.113
38620W        W 9220  35.570  24.296  13.523
38621W        W 9221   6.640  15.025  12.456
38622W        W 9222  37.345  11.930   0.406
38623W        W 9223  27.086  34.947   1.585
38624W        W 9224  35.691  28.474   3.674
38625W        W 9225  33.896  38.128  12.070
38626W        W 9226  40.796   2.595  12.081
38627W        W 9227  41.701   3.724   4.097
38628W        W 9228  14.192  34.447  12.165
38629W        W 9229  32.681   9.429  14.861
38630W        W 9230  29.754  19.137   4.655
38631W        W 9231  32.569   2.194   0.751
38632W        W 9232  22.292  40.555  12.938
38633W        W 9233   1.426   8.342   1.875
38634W        W 9234  30.105   0.060  12.881
38635W        W 9235  34.727  13.796  14.399
38636W        W 9236   3.596  10.111   2.811
38637W        W 9237  13.509   0.480   0.800
38638W        W 9238  28.642   3.446  14.768
38639W        W 9239  38.506  39.889  12.099
38640W        W 9240  41.724  41.831   1.732
38641W        W 9241  20.329  19.261   0.921
38642W        W 9242  40.425  24.984   1.851
38643W        W 9243  12.551   2.937  11.367
38644W        W 9244  12.257  31.180  13.623
38645W        W 9245   7.913  29.107   2.299
38646W        W 9246  15.305  14.632  12.318
38647W        W 9247   6.316  24.007  12.944
38648W        W 9248  43.750   8.277   2.739
38649W        W 9249  29.073   8.376   1.470
38650W        W 9250   3.813   9.079  14.117
38651W        W 9251  41.517  27.126  13.092
38652W        W 9252  10.090  24.703  13.140
38653W        W 9253  25.779  26.429  11.287
38654W        W 9254  14.682   0.266  11.645
38655W        W 9255  43.484   0.219   3.204
38656W        W 9256  27.067  17.091  12.414
38657W        W 9257  22.649  27.227   4.690
38658W        W 9258  18.241  17.356   1.328
38659W        W 9259  22.899  19.275  13.323
38660W        W 9260  38.506   6.800  14.213
38661W        W 9261  38.427  31.881   0.952
38662W        W 9262   0.475  37.141   2.673
38663W        W 9263  32.454  23.995  12.437
38664W        W 9264   0.506  38.923  13.811
38665W        W 9265  37.868  14.350  12.530
38666W        W 9266  20.559  25.045  13.788
38667W        W 9267  37.455   9.904   3.619
38668W        W 9268  21.290   6.851   3.283
38669W        W 9269  28.449  32.015   4.507
38670W        W 9270  42.521  37.810   2.243
38671W        W 9271  44.323  24.659  12.478
38672W        W 9272  15.232  25.257  10.952
38673W        W 9273  30.871  44.887   0.773
38674W        W 9274  21.495  35.523  14.815
38675W        W 9275  19.796  27.673  12.432
38676W        W 9276  26.723  19.963   2.116
38677W        W 9277  14.650   8.889   3.682
38678W        W 9278   4.885  35.109   5.161
38679W        W 9279  39.510  22.002   2.669
38680W        W 9280   6.972  18.164   2.795
38681W        W 9281  21.281  38.392  13.909
38682W        W 9282  25.184  16.951  14.249
38683W        W 9283  21.191  21.511  13.896
38684W        W 9284  44.282  36.342  13.965
38685W        W 9285  33.525   4.740   0.182
38686W        W 9286   0.439  36.370   3.913
38687W        W 9287  15.626  34.383   2.796
38688W        W 9288  11.358  16.107  12.415
38689W        W 9289   7.280  16.949   5.100
38690W        W 9290  20.512  22.427   3.721
38691W        W 9291  38.908  29.875  12.161
38692W        W 9292  41.560  30.952   3.690
38693W        W 9293  19.744  43.347  10.733
38694W        W 9294  20.299  31.647  14.636
38695W        W 9295   9.195  38.386  12.053
38696W        W 9296  27.590   7.116   0.849
38697W        W 9297  10.187  23.173  12.446
38698W        W 9298  37.339   3.459   1.466
38699W        W 9299   1.987   6.882   1.474
38700W        W 9300  39.833   0.711  12.556
38701W        W 9301  42.437   9.452   4.788
38702W        W 9302   6.454  30.183   4.150
38703W        W 9303  13.533  13.226  13.780
38704W        W 9304  43.504   5.056   3.812
38705W        W 9305   4.946  12.412   2.107
38706W        W 9306   9.330  42.374  14.032
38707W        W 9307  15.476  13.266   0.839
38708W        W 9308  32.201   8.318   1.433
38709W        W 9309  10.939  19.645  13.524
38710W        W 9310   9.279  37.101  13.395
38711W        W 9311   5.793  40.734   3.133
38712W        W 9312  42.355  18.098  13.591
38713W        W 9313   5.446  33.302   3.542
38714W        W 9314  18.641  26.847   0.410
38715W        W 9315  21.279  29.236   0.257
38716W        W 9316  29.579  18.368   0.848
38717W        W 9317  27.799   0.203   1.749
38718W        W 9318  21.156  28.511  14.008
38719W        W 9319  16.558   1.105  14.013
38720W        W 9320  28.199  15.591  12.064
38721W        W 9321   4.247  15.716   4.508
38722W        W 9322  38.495  35.198  13.402
38723W        W 9323  41.048  32.852   2.386
38724W        W 9324  27.555  21.581   1.294
38725W        W 9325  26.692  21.012   2.262
38726W        W 9326  38.408  31.343   0.824
38727W        W 9327  28.757   8.877   5.010
38728W        W 9328   8.165  22.545   4.575
38729W        W 9329  20.621  13.003   2.342
38730W        W 9330   6.168  11.788   4.215
38731W        W 9331   0.530  13.267   4.532
38732W        W 9332  32.592  27.539   4.671
38733W        W 9333   9.003  20.301  11.173
38734W        W 9334  29.034  19.855   1.372
38735W        W 9335   6.234  19.878   3.184
38736W        W 9336  43.334  33.554   1.259
38737W        W 9337  31.404  30.217   1.459
38738W        W 9338  28.179  23.661   1.516
38739W        W 9339  42.930  19.100   1.810
38740W        W 9340  13.911  15.037   1.775
38741W        W 9341  16.638  13.120   2.352
38742W        W 9342  37.026  29.725  14.923
38743W        W 9343   8.858  15.665  11.618
38744W        W 9344  15.860  37.217  11.257
38745W        W 9345   4.829  27.498   0.474
38746W        W 9346  13.760  10.734  12.317
38747W        W 9347   7.856   4.830   2.264
38748W        W 9348  13.593  25.885   0.247
38749W        W 9349  30.882  34.516   3.087
38750W        W 9350  11.435   3.369  13.010
38751W        W 9351  34.453   2.174  11.637
38752W        W 9352  18.144  34.107  13.854
38753W        W 9353  15.973  26.614  12.899
38754W        W 9354  21.051  34.987   1.225
38755W        W 9355  35.873  29.952  11.501
38756W        W 9356  12.725  42.816  13.133
38757W        W 9357  39.825   5.225   1.342
38758W        W 9358  23.723  17.141   2.455
38759W        W 9359  37.557  12.062  12.884
38760W        W 9360  33.861   0.668   0.400
38761W        W 9361  36.549   4.167  13.591
38762W        W 9362   1.894  14.133   2.806
38763W        W 9363  12.355  18.110  14.028
38764W        W 9364  31.390  21.208  13.363
38765W        W 9365  11.302  35.383   3.641
38766W        W 9366  40.822  27.752   4.540
38767W        W 9367  28.460   8.151   3.287
38768W        W 9368  11.785  30.875  10.324
38769W        W 9369  37.070   2.977   1.442
38770W        W 9370  36.421  36.934   3.289
38771W        W 9371  37.675  27.094   1.222
38772W        W 9372  25.629  31.563  13.004
38773W        W 9373  13.326  40.211  12.174
38774W        W 9374  14.196  41.857   4.922
38775W        W 9375  17.892  24.248  13.015
38776W        W 9376  11.864  44.402   4.047
38777W        W 9377  22.770  36.340   4.098
38778W        W 9378  22.115   3.446   1.934
38779W        W 9379  11.553   9.984  11.553
38780W        W 9380  34.613   8.908   2.760
38781W        W 9381  19.018  43.317  14.907
38782W        W 9382  29.332   9.523   0.740
38783W        W 9383  29.508  20.346  12.610
38784W        W 9384   0.313  39.823  12.028
38785W        W 9385  14.151  36.001  14.870
38786W        W 9386  41.961   1.680  14.066
38787W        W 9387  32.291   9.905   1.301
38788W        W 9388  15.281  35.529  12.980
38789W        W 9389  40.935  13.245  10.518
38790W        W 9390  20.772  38.887  12.518
38791W        W 9391   2.318  30.409   2.739
38792W        W 9392  35.856  26.228  13.557
38793W        W 9393  10.268   7.669   3.226
38794W        W 9394  35.504  12.717   4.653
38795W        W 9395  22.497   2.444   2.662
38796W        W 9396  42.092   5.708  13.837
38797W        W 9397  22.225  20.547   1.086
38798W        W 9398  38.861  12.251   0.015
38799W        W 9399   2.411   3.707  12.299
38800W        W 9400  19.236  43.086   2.848
38801W        W 9401  35.662   5.920   1.175
38802W        W 9402  33.105  31.859   2.222
38803W        W 9403  26.263  28.143  13.450
38804W        W 9404  33.070  41.844   3.782
38805W        W 9405  35.576  34.850   1.202
38806W        W 9406  36.945  43.337   0.585
38807W        W 9407   3.819  10.778   0.173
38808W        W 9408  39.550   5.359  13.965
38809W        W 9409   6.969  16.834  13.517
38810W        W 9410   8.351   4.315  14.527
38811W        W 9411  19.815  43.259   1.241
38812W        W 9412   7.529  39.295  12.787
38813W        W 9413   3.270  23.554   3.846
38814W        W 9414  11.124  43.498  14.490
38815W        W 9415  18.371   0.720   0.323
38816W        W 9416   5.251  13.309  14.897
38817W        W 9417  23.712  19.505   3.290
38818W        W 9418   0.956  13.351   1.782
38819W        W 9419  39.714   7.013  10.779
38820W        W 9420  19.724  39.968   1.289
38821W        W 9421  23.760  42.802  14.017
38822W        W 9422  20.024  21.545   0.954
38823W        W 9423   5.731  23.545  12.494
38824W        W 9424  31.460  29.861  11.574
38825W        W 9425   5.798   0.388   1.255
38826W        W 9426   0.913  24.023  12.550
38827W        W 9427  14.995  11.795  10.927
38828W        W 9428   7.779  40.993  13.312
38829W        W 9429  25.397  43.818  14.220
38830W        W 9430  16.198  38.010   1.153
38831W        W 9431  13.477  35.231   4.232
38832W        W 9432  41.619   3.828   4.985
38833W        W 9433  28.384  24.146  13.280
38834W        W 9434  20.674  19.789   1.512
38835W        W 9435   6.307  14.761  14.051
38836W        W 9436  14.708   8.251   1.776
38837W        W 9437  38.800  33.342  14.393
38838W        W 9438  10.738  42.061   1.672
38839W        W 9439  20.144   2.663  11.640
38840W        W 9440   4.724   1.304  10.427
38841W        W 9441   1.456  11.130  11.759
38842W        W 9442  36.987   5.994  13.392
38843W        W 9443  26.586   8.851   3.919
38844W        W 9444   6.949   4.851   1.340
38845W        W 9445  43.149  34.872   1.150
38846W        W 9446  23.956  38.553   2.295
38847W        W 9447  38.664  12.232  11.184
38848W        W 9448   9.719  21.424  12.503
38849W        W 9449  27.523  12.883   2.203
38850W        W 9450   4.058   1.717   5.040
38851W        W 9451   5.718  10.347  13.354
38852W        W 9452   2.445  18.024  13.993
38853W        W 9453   4.976  22.011   1.702
38854W        W 9454  22.541   4.022  12.472
38855W        W 9455   6.475  20.457  13.535
38856W        W 9456  44.822   3.604  13.913
38857W        W 9457  30.121  43.003   1.716
38858W        W 9458  14.513  42.787  10.677
38859W        W 9459  30.343  34.586   1.448
38860W        W 9460   5.925  38.962  13.456
38861W        W 9461   8.394  40.328  14.941
38862W        W 9462  41.779  20.157   0.479
38863W        W 9463  27.474   7.495   2.901
38864W        W 9464  35.909   6.849  10.517
38865W        W 9465  24.112  38.783  10.646
38866W        W 9466  28.429   7.369  14.959
38867W        W 9467  31.563  37.825  10.643
38868W        W 9468  10.437  24.380  11.277
38869W        W 9469  43.755  21.816   3.278
38870W        W 9470  13.398  29.942   1.356
38871W        W 9471   9.541  20.684   0.222
38872W        W 9472  29.967  33.362  13.576
38873W        W 9473  17.335   7.883   1.258
38874W        W 9474  34.482  29.051  13.267
38875W        W 9475  33.834  23.898  11.193
38876W        W 9476   5.049   0.046  12.407
38877W        W 9477  15.717  20.797  11.462
38878W        W 9478  40.877  41.399  11.543
38879W        W 9479  31.789  36.816  12.571
38880W        W 9480  37.882  20.978  13.274
38881W        W 9481  38.948  13.143  13.376
38882W        W 9482  27.141  36.563  10.716
38883W        W 9483  31.616  12.294   1.772
38884W        W 9484  22.700   9.949  11.686
38885W        W 9485   4.303  35.813  13.423
38886W        W 9486  32.593  12.471  14.076
38887W        W 9487  21.213  21.996   2.942
38888W        W 9488  13.464  10.696   0.839
38889W        W 9489  28.356  28.537   2.256
38890W        W 9490  21.457  34.018   2.850
38891W        W 9491   4.589  25.804  13.220
38892W        W 9492  41.406  41.428  11.137
38893W        W 9493  40.619   6.823   0.001
38894W        W 9494  44.243   3.372   1.374
38895W        W 9495  32.375  40.449   3.625
38896W        W 9496  27.091   6.980  13.032
38897W        W 9497  30.887  17.326   2.377
38898W        W 9498   1.993  27.378  12.500
38899W        W 9499  21.568  22.650  12.978
38900W        W 9500   0.808  19.101  14.476
38901W        W 9501  41.790  26.994   0.222
38902W        W 9502   2.657  17.284   0.098
38903W        W 9503  12.748  27.605  10.664
38904W        W 9504  11.096  13.216  13.783
38905W        W 9505  41.465  12.607   0.278
38906W        W 9506  29.298  15.948   0.271
38907W        W 9507  33.992  28.745   2.314
38908W        W 9508  19.075  30.133   2.789
38909W        W 9509   4.793  22.707  12.210
38910W        W 9510   1.790  25.936  11.158
38911W        W 9511  14.924  44.855   3.564
38912W        W 9512  15.246  10.326  14.961
38913W        W 9513  38.736  34.355  14.398
38914W        W 9514  19.564  20.502  12.953
38915W        W 9515  30.848  34.112  12.853
38916W        W 9516  37.053  36.150  14.408
38917W        W 9517  11.884  36.634  10.807
38918W        W 9518  19.628  13.995  11.578
38919W        W 9519  11.717  16.975  11.668
38920W        W 9520  15.062  32.980   3.349
38921W        W 9521  42.822   5.908   4.384
38922W        W 9522  39.315   3.306   2.340
38923W        W 9523  31.607   3.105   0.557
38924W        W 9524  31.670  37.974  14.572
38925W        W 9525  42.428  34.107  13.942
38926W        W 9526  34.078  28.099   1.266
38927W        W 9527  32.291   4.718  14.185
38928W        W 9528   4.920   5.216   4.519
38929W        W 9529  37.583  29.168   1.358
38930W        W 9530  19.686   5.647   0.376
38931W        W 9531  40.757  28.917  14.904
38932W        W 9532  31.406  33.004   0.040
38933W        W 9533  26.958  42.014  14.443
38934W        W 9534  24.913  40.364  14.841
38935W        W 9535  12.396  43.203  13.079
38936W        W 9536  10.780  33.466  12.973
38937W        W 9537  37.736  29.479   0.186
38938W        W 9538  13.775  38.482  14.543
38939W        W 9539  19.801  38.860   4.136
38940W        W 9540  25.884  20.960   2.559
38941W        W 9541  19.711   9.613   0.801
38942W        W 9542   8.947  21.730  12.916
38943W        W 9543  40.477   7.413   3.157
38944W        W 9544  17.518  11.861  13.789
38945W        W 9545   8.907   5.547   1.351
38946W        W 9546  37.491  40.710   1.476
38947W        W 9547   8.154   5.410  10.633
38948W        W 9548  43.945  15.748   3.231
38949W        W 9549  25.033  19.027  14.746
38950W        W 9550  16.016  12.525   4.318
38951W        W 9551  37.474  30.939  11.389
38952W        W 9552   6.112   3.643   1.231
38953W        W 9553  37.442   0.913   3.185
38954W        W 9554  28.675  36.615   4.151
38955W        W 9555  29.137   5.289  12.971
38956W        W 9556   5.288   6.894  11.678
38957W        W 9557  18.180  43.072  11.471
38958W        W 9558  13.769  19.282   3.333
38959W        W 9559  11.170  15.375  14.873
38960W        W 9560  33.306  30.987  11.110
38961W        W 9561  22.259   3.841   3.774
38962W        W 9562  31.726  29.921   3.721
38963W        W 9563   1.822  43.985  11.285
38964W        W 9564   5.493  37.304  12.560
38965W        W 9565  14.126  43.503  13.616
38966W        W 9566   4.974  40.503   3.694
38967W        W 9567  41.023  17.781  12.087
38968W        W 9568  40.829  17.293   9.991
38969W        W 9569  27.677  20.270   1.547
38970W        W 9570  21.401  39.456  13.877
38971W        W 9571  15.073  15.728   3.760
38972W        W 9572   9.181  12.683  13.840
38973W        W 9573  24.183   2.623  11.610
38974W        W 9574  26.678  16.756  11.609
38975W        W 9575  21.207  34.951  14.847
38976W        W 9576  14.570  23.867  12.651
38977W        W 9577  27.499   6.965  11.502
38978W        W 9578   2.744  29.408   4.460
38979W        W 9579  38.072  28.588  10.220
38980W        W 9580   8.137   8.437  12.163
38981W        W 9581  31.393  37.501  14.848
38982W        W 9582   3.888  43.419   1.949
38983W        W 9583  44.704  16.026   2.327
38984W        W 9584  37.586  41.963  12.501
38985W        W 9585  26.485  26.448  10.280
38986W        W 9586  21.542  44.898   2.800
38987W        W 9587   8.824  14.538   1.346
38988W        W 9588  43.925  32.184   2.879
38989W        W 9589  38.834  15.114   4.736
38990W        W 9590  31.178  22.486   0.186
38991W        W 9591  44.873  30.415  11.456
38992W        W 9592  26.106  20.823  10.819
38993W        W 9593  40.574  21.509  13.835
38994W        W 9594  14.699  40.261  14.962
38995W        W 9595  10.293  17.811   1.508
38996W        W 9596  11.718  42.210   1.823
38997W        W 9597  39.116  44.020   2.790
38998W        W 9598   3.118  45.000   2.938
38999W        W 9599  27.480  35.430   3.711
39000W        W 9600  25.508  13.365   1.930
39001W        W 9601   5.318  22.267  14.838
39002W        W 9602  10.569   2.812   4.140
39003W        W 9603  24.570  15.864  11.651
39004W        W 9604  41.359  30.082   3.760
39005W        W 9605  11.543  38.331   4.221
39006W        W 9606  28.388  13.332   2.024
39007W        W 9607  30.987  11.599  13.622
39008W        W 9608  34.869  15.674   4.579
39009W        W 9609  40.124  21.063   0.943
39010W        W 9610  18.693  37.903  14.517
39011W        W 9611  28.236   9.206   0.410
39012W        W 9612   4.245  19.035  14.241
39013W        W 9613  34.552  15.918   4.257
39014W        W 9614  13.575  11.358   2.326
39015W        W 9615  39.998  13.106  14.839
39016W        W 9616   4.695   2.307   1.257
39017W        W 9617   2.449   6.311  13.454
39018W        W 9618  33.141  34.155   3.128
39019W        W 9619  38.008  40.572   0.321
39020W        W 9620  23.974  36.471  12.018
39021W        W 9621  30.200  15.701  14.827
39022W        W 9622  16.729  28.077   0.482
39023W        W 9623   8.743  33.596  12.861
39024W        W 9624  25.129   4.237  14.531
39025W        W 9625  21.688  40.898   3.140
39026W        W 9626  39.586  36.903   3.784
39027W        W 9627  22.196  24.863  11.215
39028W        W 9628  19.316  16.167   0.291
39029W        W 9629  15.351   5.494   0.052
39030W        W 9630  34.435  42.025   4.611
39031W        W 9631  16.807  35.126  11.796
39032W        W 9632  12.269  36.449   0.840
39033W        W 9633  18.240  22.379   5.070
39034W        W 9634  12.906   6.213  14.434
39035W        W 9635  23.625  29.052   3.907
39036W        W 9636  34.145  28.161   4.039
39037W        W 9637  30.951  15.740  14.596
39038W        W 9638  22.010  36.777   1.097
39039W        W 9639   5.419  44.851  13.871
39040W        W 9640  25.697  14.709  10.740
39041W        W 9641   3.630  33.196   0.983
39042W        W 9642  21.632  28.694   2.426
39043W        W 9643  26.539  28.416   3.174
39044W        W 9644  25.243  23.106  10.650
39045W        W 9645  37.450   1.426  12.388
39046W        W 9646   7.414  21.594   2.835
39047W        W 9647  40.033  26.448  13.955
39048W        W 9648  12.850  18.165   4.242
39049W        W 9649  17.174  42.629  14.851
39050W        W 9650  15.159   7.230  12.007
39051W        W 9651  34.010  28.058   0.206
39052W        W 9652  36.049   8.268   4.194
39053W        W 9653  10.339  38.430   4.859
39054W        W 9654  38.590  25.163   2.323
39055W        W 9655   7.045  11.575   1.893
39056W        W 9656  24.644   2.427   0.297
39057W        W 9657   6.995  31.473   0.192
39058W        W 9658  23.291  37.069  12.093
39059W        W 9659  17.152  28.425   3.063
39060W        W 9660  34.843  18.278   1.274
39061W        W 9661   0.239  19.072   3.815
39062W        W 9662   0.888  38.467   4.634
39063W        W 9663   2.419  39.607   0.391
39064W        W 9664   4.162   4.756  14.847
39065W        W 9665  33.531  34.927  14.790
39066W        W 9666  42.577  29.474  13.879
39067W        W 9667  34.302  13.071  12.937
39068W        W 9668  39.694  28.160   1.237
39069W        W 9669  18.300  22.807  10.730
39070W        W 9670  44.729  21.174  11.365
39071W        W 9671  19.157  23.799   4.586
39072W        W 9672  38.810  42.975   1.184
39073W        W 9673  12.702  27.178   2.364
39074W        W 9674  29.600  35.913  10.277
39075W        W 9675  26.669   4.491  14.477
39076W        W 9676   7.998  35.596  14.929
39077W        W 9677  33.890  12.786  12.013
39078W        W 9678  43.524  27.040   0.790
39079W        W 9679   6.271  13.363  10.707
39080W        W 9680   2.527  13.911   3.145
39081W        W 9681  34.926  27.589   0.316
39082W        W 9682  29.835   4.206  12.047
39083W        W 9683   2.349  39.358  10.615
39084W        W 9684   8.738  42.490  12.481
39085W        W 9685  15.616   7.876  14.108
39086W        W 9686  34.876  42.703   4.211
39087W        W 9687  40.064  41.465   3.808
39088W        W 9688  28.945  25.245  14.030
39089W        W 9689   9.803  20.223   0.302
39090W        W 9690   8.117   5.933  14.954
39091W        W 9691  14.106   2.877  12.437
39092W        W 9692  18.737  13.727  11.658
39093W        W 9693  37.916  12.194  10.685
39094W        W 9694  44.902  18.190   4.633
39095W        W 9695  25.969  14.185   2.751
39096W        W 9696  42.761  21.296   2.359
39097W        W 9697  24.053  44.473  13.050
39098W        W 9698   2.636   5.216  13.797
39099W        W 9699   7.791  37.162   0.725
39100W        W 9700   8.852  19.799  11.258
39101W        W 9701   7.679  34.143  12.577
39102W        W 9702  18.277  19.763  10.671
39103W        W 9703   2.249   1.220   2.530
39104W        W 9704  13.277  41.589  12.648
39105W        W 9705  25.698  10.471  12.073
39106W        W 9706   0.796  35.048  11.524
39107W        W 9707  32.870  15.815   0.049
39108W        W 9708  27.633  44.343   3.843
39109W        W 9709  25.722  41.900   1.449
39110W        W 9710  19.998  28.490   1.663
39111W        W 9711   1.348  11.231   3.871
39112W        W 9712  25.912  37.976   0.636
39113W        W 9713  43.463   9.295  12.428
39114W        W 9714   8.300  36.051   3.296
39115W        W 9715   3.651  32.566  12.321
39116W        W 9716   0.401  12.883  12.042
39117W        W 9717   8.282  39.764  10.733
39118W        W 9718  31.693  20.524   4.552
39119W        W 9719  33.393  31.978   3.023
39120W        W 9720  41.146  12.808  10.795
39121W        W 9721   0.463  34.487   3.980
39122W        W 9722  18.531  23.954   3.217
39123W        W 9723   5.483   5.321   0.259
39124W        W 9724  10.866   7.850  10.660
39125W        W 9725  44.361   2.264   2.199
39126W        W 9726  32.046  14.393  14.482
39127W        W 9727  17.803  22.623  11.223
39128W        W 9728  35.662  42.045  14.888
39129W        W 9729  38.993  41.114  12.133
39130W        W 9730   5.688  43.023  13.913
39131W        W 9731  42.812  27.682   1.786
39132W        W 9732  44.760  14.182  10.794
39133W        W 9733   1.970  40.331  13.177
39134W        W 9734  18.641  12.163   0.660
39135W        W 9735   4.084  20.405  12.004
39136W        W 9736  27.937   5.893   1.747
39137W        W 9737  21.520  37.875  13.989
39138W        W 9738  10.738   0.146   1.219
39139W        W 9739   9.146  36.006   2.140
39140W        W 9740  29.553  28.068   2.849
39141W        W 9741  11.653  27.420  11.698
39142W        W 9742  24.068   7.664   2.282
39143W        W 9743  27.080  35.894   2.275
39144W        W 9744  41.349  14.784  11.164
39145W        W 9745   8.759  34.258  11.519
39146W        W 9746  32.888  42.365  12.091
39147W        W 9747   2.288  13.828   3.601
39148W        W 9748  10.127  14.626  12.039
39149W        W 9749  44.567  43.900  13.441
39150W        W 9750  37.704  23.468   3.184
39151W        W 9751  42.832   8.219   1.789
39152W        W 9752  28.960  42.281   0.436
39153W        W 9753   4.271  43.333  14.051
39154W        W 9754   1.525  35.199  12.022
39155W        W 9755   2.422   2.620   0.204
39156W        W 9756   8.732  32.540  14.720
39157W        W 9757  38.362  31.585  13.416
39158W        W 9758  30.382  21.245   1.160
39159W        W 9759   8.322  28.372   0.680
39160W        W 9760   8.682  29.159  10.500
39161W        W 9761   9.985  29.143  11.070
39162W        W 9762  39.306  27.905  12.504
39163W        W 9763  42.465  22.752  14.407
39164W        W 9764  11.649  43.956   2.843
39165W        W 9765  35.453  42.555   0.678
39166W        W 9766  29.434   6.267   0.532
39167W        W 9767  16.366  25.442   4.479
39168W        W 9768  31.625  42.066   2.331
39169W        W 9769  37.380   3.672  14.017
39170W        W 9770   6.205   4.964  13.302
39171W        W 9771  24.051  13.744   4.690
39172W        W 9772  11.651   2.748   1.195
39173W        W 9773  16.193  41.747   1.277
39174W        W 9774  25.971  22.538  13.941
39175W        W 9775  42.063   6.951   5.199
39176W        W 9776  20.718  10.442   2.705
39177W        W 9777  36.497  37.314  12.275
39178W        W 9778  34.299   5.291   3.767
39179W        W 9779  24.052  33.828  10.144
39180W        W 9780  29.714   1.449   1.327
39181W        W 9781  42.197  26.028   1.670
39182W        W 9782   9.397   3.548  13.105
39183W        W 9783  36.806  11.688  13.911
39184W        W 9784  37.968   9.457  12.100
39185W        W 9785  40.351  12.385  12.451
39186W        W 9786  26.053  27.949  12.456
39187W        W 9787   0.784  27.911   0.904
39188W        W 9788   8.040  32.156  12.990
39189W        W 9789  13.476  17.348   3.483
39190W        W 9790   4.531   4.418  13.520
39191W        W 9791  44.276  42.815  11.353
39192W        W 9792  11.010  36.921   4.246
39193W        W 9793   8.130  44.952  14.363
39194W        W 9794  42.170   1.775  11.211
39195W        W 9795   2.022  27.920  13.925
39196W        W 9796  26.197  30.079   1.999
39197W        W 9797  10.203  38.641  14.473
39198W        W 9798  32.821  39.399   4.226
39199W        W 9799  42.608  36.480  11.170
39200W        W 9800  22.812  11.066  13.447
39201W        W 9801  27.011  35.116   4.473
39202W        W 9802   6.599   9.542   1.412
39203W        W 9803  33.085  38.649  11.851
39204W        W 9804  27.955  15.152  14.436
39205W        W 9805  21.019   8.995   0.519
39206W        W 9806   7.293  11.348   3.162
39207W        W 9807  20.662  44.277   4.052
39208W        W 9808  13.559  37.752   1.394
39209W        W 9809  27.253  15.756  12.882
39210W        W 9810  17.125  16.310   2.404
39211W        W 9811  17.301  18.200  10.697
39212W        W 9812  23.278  31.555   4.514
39213W        W 9813  19.730  38.982  13.528
39214W        W 9814  39.255  30.044   2.384
39215W        W 9815  21.580  33.539  11.204
39216W        W 9816  43.053  37.581   2.715
39217W        W 9817   9.218  17.077  13.584
39218W        W 9818  19.826  40.256   0.165
39219W        W 9819  34.079  42.591   1.731
39220W        W 9820   5.112  30.652   4.267
39221W        W 9821  24.091  29.689  10.553
39222W        W 9822  23.719  16.738  14.504
39223W        W 9823  38.289   6.477   3.281
39224W        W 9824  43.904  11.656   3.144
39225W        W 9825  32.943  29.426  12.809
39226W        W 9826  15.764   6.602  13.038
39227W        W 9827  19.227   3.515  11.231
39228W        W 9828  19.406  31.128  11.147
39229W        W 9829  43.882  33.191  10.651
39230W        W 9830  11.733  31.035   3.901
39231W        W 9831  18.031  35.954   3.649
39232W        W 9832  43.745  13.123  14.496
39233W        W 9833  20.607  31.046  10.393
39234W        W 9834   3.840  36.353  12.873
39235W        W 9835  13.971  16.276  14.069
39236W        W 9836  27.169  27.449  12.587
39237W        W 9837  42.422   4.704   2.770
39238W        W 9838   6.190  34.158   2.673
39239W        W 9839  37.287  34.407  10.697
39240W        W 9840  33.700  11.344   4.318
39241W        W 9841  43.125  26.510  11.010
39242W        W 9842  40.948  24.978  12.946
39243W        W 9843   0.442  25.124   1.482
39244W        W 9844  20.829  10.361  11.042
39245W        W 9845  26.442  25.218  14.736
39246W        W 9846  43.579  36.058  10.270
39247W        W 9847  33.599  14.406   3.757
39248W        W 9848  10.796  33.111   2.886
39249W        W 9849  13.344  29.412  12.501
39250W        W 9850  32.433  37.360  13.076
39251W        W 9851   0.433  16.876   3.068
39252W        W 9852  39.323  25.028  14.409
39253W        W 9853  20.198   6.339   2.287
39254W        W 9854   8.271  11.918  12.500
39255W        W 9855  26.747  30.693   3.894
39256W        W 9856  15.625  15.987  11.098
39257W        W 9857  37.859  39.676  13.075
39258W        W 9858  38.578  35.952  12.938
39259W        W 9859  19.569  44.832   4.099
39260W        W 9860  14.590   4.515   2.737
39261W        W 9861  34.071  29.906  12.018
39262W        W 9862  36.342  35.002   1.140
39263W        W 9863  27.533  41.988   2.889
39264W        W 9864  36.830  34.391   2.452
39265W        W 9865  21.322   9.299  12.892
39266W        W 9866  43.744   6.853   0.430
39267W        W 9867  13.524   7.182   2.737
39268W        W 9868  10.254   2.331  10.746
39269W        W 9869   5.682  37.747  12.379
39270W        W 9870  16.245  39.731   0.286
39271W        W 9871   1.457   2.277   3.727
39272W        W 9872   8.383  14.843  14.669
39273W        W 9873  16.819   3.291   1.304
39274W        W 9874  22.620  26.755   0.377
39275W        W 9875  26.755  25.064  13.456
39276W        W 9876   9.060   1.783  14.519
39277W        W 9877   8.380  22.809   2.384
39278W        W 9878  38.021   6.109  11.427
39279W        W 9879  27.949  22.186   2.837
39280W        W 9880  12.658  12.810   3.613
39281W        W 9881  10.285   9.306   4.825
39282W        W 9882  39.913  21.694  11.640
39283W        W 9883  24.421   0.794   3.209
39284W        W 9884   6.705  33.334  11.132
39285W        W 9885  28.051  25.080   1.235
39286W        W 9886  34.151  42.840   0.861
39287W        W 9887   0.898  29.653   1.943
39288W        W 9888  33.550  37.771  11.949
39289W        W 9889   3.268  29.740   3.708
39290W        W 9890   3.362  19.261  14.301
39291W        W 9891  14.659  29.019   1.246
39292W        W 9892  37.319  39.406   2.831
39293W        W 9893  42.090  27.111  13.028
39294W        W 9894  38.316  14.243  14.254
39295W        W 9895  34.878  42.489   0.435
39296W        W 9896  10.202  44.911  12.362
39297W        W 9897  16.134  27.459  13.944
39298W        W 9898  23.244  38.148   3.577
39299W        W 9899  39.082  15.083   3.789
39300W        W 9900   8.197   2.714   3.355
39301W        W 9901  30.570   9.021   2.264
39302W        W 9902  19.969  43.772   0.650
39303W        W 9903  33.627  34.592   1.370
39304W        W 9904  32.437   2.344  12.874
39305W        W 9905  33.875  44.716   2.899
39306W        W 9906   4.361  11.601  11.864
39307W        W 9907  23.705  32.380  14.098
39308W        W 9908  11.196  36.514   4.559
39309W        W 9909  24.476  11.362  14.399
39310W        W 9910  11.758  29.796   0.828
39311W        W 9911  34.696  40.827  14.357
39312W        W 9912   1.778   5.899   2.932
39313W        W 9913  20.748  39.833   4.577
39314W        W 9914  28.185  30.892   1.677
39315W        W 9915  18.400  12.358   1.907
39316W        W 9916  15.229  19.518  14.453
39317W        W 9917  31.659  36.335  12.363
39318W        W 9918  30.712  10.993   3.202
39319W        W 9919  17.496  29.653   0.660
39320W        W 9920  14.865  21.988  10.766
39321W        W 9921  39.400  41.806   0.337
39322W        W 9922  36.434  18.610   4.534
39323W        W 9923  22.818   7.871  14.798
39324W        W 9924  12.480  14.842  13.548
39325W        W 9925  41.544  10.765  11.979
39326W        W 9926  25.090  16.764   2.271
39327W        W 9927  22.283  20.769   0.475
39328W        W 9928   5.659   9.929  14.813
39329W        W 9929  38.286   9.239  14.394
39330W        W 9930  14.086  39.419  14.003
39331W        W 9931  24.107   4.631   2.150
39332W        W 9932  25.038   9.310   3.229
39333W        W 9933  13.015  19.683   1.207
39334W        W 9934   0.285  27.642   2.330
39335W        W 9935  42.216  10.845   4.244
39336W        W 9936   4.378   5.875   0.375
39337W        W 9937  34.144  26.874   2.792
39338W        W 9938  36.218   7.375  13.254
39339W        W 9939  27.219   4.691  13.280
39340W        W 9940  44.253  17.643  14.176
39341W        W 9941   7.693  30.989   4.678
39342W        W 9942  28.276  20.955   2.720
39343W        W 9943  30.940  30.047  14.347
39344W        W 9944  26.448  41.033  14.269
39345W        W 9945  39.294  11.166  14.413
39346W        W 9946  17.652  31.922  13.481
39347W        W 9947  35.298  35.325   0.071
39348W        W 9948  19.777   3.963  12.353
39349W        W 9949  29.758  28.510  12.496
39350W        W 9950  15.662   7.055   1.737
39351W        W 9951  26.600   7.608   0.049
39352W        W 9952  42.378  19.644  11.765
39353W        W 9953  29.950  21.057  13.177
39354W        W 9954  26.438  39.694   3.779
39355W        W 9955  29.147  44.788  12.611
39356W        W 9956  34.401  11.718   0.425
39357W        W 9957  28.028  44.048   0.288
39358W        W 9958  18.795  33.073  11.668
39359W        W 9959   8.388  25.147   4.323
39360W        W 9960  31.986   7.230   2.270
39361W        W 9961   8.279  42.828  12.375
39362W        W 9962  24.040   0.922  13.056
39363W        W 9963  12.668  17.275   0.061
39364W        W 9964   6.726  23.815   2.201
39365W        W 9965  22.851  39.602  12.870
39366W        W 9966   4.997  18.314  14.443
39367W        W 9967  24.271  39.934  14.788
39368W        W 9968  42.842  32.182  13.398
39369W        W 9969  13.774   5.282  13.863
39370W        W 9970  15.997  13.214   0.860
39371W        W 9971   1.269  36.050   1.200
39372W        W 9972  27.228  42.987   2.771
39373W        W 9973  38.100  43.389   2.255
39374W        W 9974  17.388  24.433   1.493
39375W        W 9975   2.795  30.036   0.522
39376W        W 9976  30.532  32.338  10.042
39377W        W 9977  12.618  20.097  14.993
39378W        W 9978  26.283  26.574   0.451
39379W        W 9979  20.086   9.623  12.960
39380W        W 9980   6.730   3.773  11.499
39381W        W 9981  10.429  10.649  12.685
39382W        W 9982   5.250  39.779   4.143
39383W        W 9983   4.922  23.472   1.334
39384W        W 9984  10.529  20.581  11.189
39385W        W 9985  38.000  24.699   2.726
39386W        W 9986  18.513  11.661   4.719
39387W        W 9987  27.573  18.328  12.385
39388W        W 9988   6.921   0.882   4.870
39389W        W 9989  25.833  31.003   4.911
39390W        W 9990  23.633  22.592   0.664
39391W        W 9991   3.425  43.861   3.332
39392W        W 9992  34.432  29.425  11.065
39393W        W 9993  27.613  29.408  12.362
39394W        W 9994  12.430  21.927  13.797
39395W        W 9995  36.559  38.380  13.793
39396W        W 9996  33.509  17.958  12.054
39397W        W 9997  32.229  39.011   3.726
39398W        W 9998  17.167  27.848   0.667
39399W        W 9999   0.577  33.772   0.758
39400W        W10000  40.455  27.690  13.688
39401W        W10001  39.433  12.635  14.200
39402W        W10002  39.902  25.053   2.796
39403W        W10003  25.862  22.328  14.412
39404W        W10004  13.735  12.832  14.495
39405W        W10005  27.656  27.791   0.316
39406W        W10006  11.140  43.236  14.028
39407W        W10007  24.238  39.835  10.738
39408W        W10008  38.753  10.930  11.028
39409W        W10009  33.876  37.791  13.070
39410W        W10010  31.980   6.308  14.955
39411W        W10011  40.470  33.402   3.566
39412W        W10012   9.223  24.376  13.891
39413W        W10013   0.892  19.512   3.249
39414W        W10014  30.153   8.935  13.567
39415W        W10015  12.924  18.788  14.377
39416W        W10016   6.927  34.164  14.841
39417W        W10017  42.575  18.972   2.204
39418W        W10018  39.150  24.755  10.512
39419W        W10019  31.934  42.591   4.533
39420W        W10020   4.381  34.756  13.427
39421W        W10021   7.281  37.579   1.315
39422W        W10022  25.568  39.896  14.009
39423W        W10023  41.564   7.773   1.820
39424W        W10024  43.780  19.683   4.555
39425W        W10025  12.127  43.460   1.704
39426W        W10026   8.144  10.346  13.508
39427W        W10027  18.004  37.848  11.418
39428W        W10028   5.203   4.214  13.998
39429W        W10029  29.955  33.068  11.652
39430W        W10030   8.684   8.474  10.646
39431W        W10031  43.464  44.206  14.843
39432W        W10032  15.397  44.776  11.430
39433W        W10033  38.788  44.438  10.294
39434W        W10034  33.348  34.428   0.964
39435W        W10035  21.223  25.452   0.441
39436W        W10036   8.733  40.171  11.932
39437W        W10037   0.439  43.293  12.871
39438W        W10038  38.011  14.297  14.875
39439W        W10039  42.270  40.412   4.506
39440W        W10040  14.452   5.689  13.954
39441W        W10041  42.433  41.794   3.638
39442W        W10042   9.983  39.031   1.886
39443W        W10043  16.362  41.282   1.384
39444W        W10044  37.485  43.988  12.533
39445W        W10045  19.064  43.020  11.666
39446W        W10046  40.238  31.909   3.218
39447W        W10047  10.057  37.941   4.118
39448W        W10048  29.006  37.905  14.020
39449W        W10049  42.885   3.418   3.359
39450W        W10050  28.019   2.141   3.284
39451W        W10051  15.592  26.065   4.279
39452W        W10052  36.480   2.957  13.526
39453W        W10053  44.282  22.520  11.861
39454W        W10054   4.569  44.140   4.547
39455W        W10055  33.343  19.048   0.931
39456W        W10056  26.391  13.133   4.158
39457W        W10057   8.264  30.522   0.500
39458W        W10058  36.876  33.966   0.216
39459W        W10059  14.913   9.306  11.074
39460W        W10060  23.566  40.612  12.614
39461W        W10061  11.216  27.628  11.031
39462W        W10062   8.584  42.706  13.901
39463W        W10063  17.142  43.178  11.581
39464W        W10064  36.957  16.312  13.793
39465W        W10065  38.662  41.601   5.042
39466W        W10066  32.011  23.632   0.942
39467W        W10067   1.488  18.122  11.842
39468W        W10068   1.875  37.170   2.787
39469W        W10069  15.725  39.905   4.367
39470W        W10070  13.126  27.449   0.284
39471W        W10071  30.504   0.449  14.094
39472W        W10072  23.792  14.478  13.025
39473W        W10073   8.904  38.013  11.883
39474W        W10074   4.918  39.537  13.538
39475W        W10075  14.860   0.878  14.648
39476W        W10076  25.179   0.373   4.141
39477W        W10077  17.745  42.761  14.086
39478W        W10078  35.393  39.879  13.459
39479W        W10079  13.766  43.916  14.865
39480W        W10080  39.957  41.584  12.872
39481W        W10081  36.375   6.959  10.278
39482W        W10082  11.437  25.684  13.235
39483W        W10083   9.763  29.569  13.789
39484W        W10084   0.463  32.543  11.664
39485W        W10085  37.899  37.100   1.267
39486W        W10086  30.104  42.737  11.129
39487W        W10087  41.263  44.316   3.258
39488W        W10088  31.782  44.464   2.379
39489W        W10089  12.533  27.556  13.181
39490W        W10090   9.402   2.299   1.602
39491W        W10091  27.423   2.703   0.906
39492W        W10092  29.615  28.126  14.289
39493W        W10093  26.244  25.906   1.843
39494W        W10094   7.689  11.748   2.310
39495W        W10095   8.913   9.899  14.270
39496W        W10096  33.547  19.200  13.471
39497W        W10097  17.457  38.975   2.242
39498W        W10098  15.675  36.955  11.670
39499W        W10099  27.933  40.503  12.651
39500W        W10100  24.121  22.604  11.612
39501W        W10101  43.640   7.324  10.741
39502W        W10102   6.761  28.249   0.443
39503W        W10103  38.294   9.603   3.717
39504W        W10104   3.836   6.110  10.619
39505W        W10105  15.267  31.505   4.102
39506W        W10106  27.461  29.478  13.870
39507W        W10107  15.457  22.709   1.086
39508W        W10108  29.361  20.173   2.803
39509W        W10109  27.483   9.418   3.617
39510W        W10110  15.921   7.370   3.730
39511W        W10111  29.133  43.460  13.070
39512W        W10112   9.528  32.182  11.120
39513W        W10113  27.101  12.116   1.888
39514W        W10114  39.324  35.125   0.968
39515W        W10115  16.783   2.792   0.906
39516W        W10116  10.185  31.856   0.826
39517W        W10117  27.849  31.512  11.611
39518W        W10118  42.648  44.229  11.335
39519W        W10119  23.728   5.717   2.569
39520W        W10120  35.402  16.818  12.430
39521W        W10121  29.217  35.592   0.275
39522W        W10122  42.889   9.907  12.936
39523W        W10123  18.847  30.090   0.269
39524W        W10124  40.239  40.083   2.902
39525W        W10125  11.410  30.043  10.965
39526W        W10126   3.603  29.415  14.937
39527W        W10127   8.209  10.626   2.366
39528W        W10128  12.165  39.564  12.141
39529W        W10129  29.095  16.252   1.823
39530W        W10130   0.058  12.126   0.830
39531W        W10131  36.439   8.450   0.373
39532W        W10132  22.501  44.381  13.990
39533W        W10133  43.947   4.966   0.005
39534W        W10134  44.786  30.865  11.680
39535W        W10135  34.637   9.181   2.312
39536W        W10136  19.412  15.719  10.633
39537W        W10137  31.540  38.092   1.443
39538W        W10138  32.459  16.147   0.360
39539W        W10139   5.729  17.107  12.954
39540W        W10140  36.127  11.886   1.670
39541W        W10141  28.023  19.318  14.244
39542W        W10142  18.071  31.090   1.399
39543W        W10143  38.045  24.770  14.611
39544W        W10144  18.772  25.194   2.626
39545W        W10145  12.020  26.848   1.744
39546W        W10146  30.419  36.033   0.381
39547W        W10147  42.570   3.318   3.752
39548W        W10148   8.695  40.650   4.700
39549W        W10149  43.863  30.109   3.730
39550W        W10150  24.920  33.986  11.468
39551W        W10151  43.012  15.655   5.057
39552W        W10152  30.773  22.226   0.382
39553W        W10153  22.830  17.362  11.178
39554W        W10154   8.247   9.093  11.631
39555W        W10155   1.298  32.910  13.935
39556W        W10156  32.417  10.201   3.860
39557W        W10157  10.187  11.321   0.703
39558W        W10158  20.488  42.042  11.160
39559W        W10159  30.329  12.270   0.536
39560W        W10160  25.210  20.315  11.126
39561W        W10161  14.028  41.600   3.757
39562W        W10162  43.800  38.979  12.517
39563W        W10163  18.832  25.195  13.058
39564W        W10164  30.018   6.798  11.133
39565W        W10165   0.250  18.625   3.493
39566W        W10166  32.357  31.841   0.851
39567W        W10167  18.280   8.307  10.476
39568W        W10168  30.586  24.187  11.220
39569W        W10169   6.747  39.956   2.298
39570W        W10170  27.247   8.251   1.868
39571W        W10171   1.862  16.064   3.038
39572W        W10172   2.444  28.741   2.278
39573W        W10173   6.605   8.147  14.115
39574W        W10174  17.251   7.880   2.747
39575W        W10175  39.116  42.943   2.833
39576W        W10176  17.467   8.798  13.529
39577W        W10177  24.470  36.335  13.004
39578W        W10178  29.335  30.669  13.943
39579W        W10179  24.280   4.658   1.241
39580W        W10180  18.567   6.961  14.975
39581W        W10181   5.247   6.651  14.837
39582W        W10182  38.544  22.265   4.814
39583W        W10183  19.013  42.617  13.258
39584W        W10184  34.162  12.844  12.451
39585W        W10185  16.885  12.519  13.846
39586W        W10186  23.444  34.507  11.173
39587W        W10187  34.852  32.583   1.965
39588W        W10188  17.844  29.120  10.764
39589W        W10189   9.767  32.625  10.962
39590W        W10190  40.868  26.165  10.928
39591W        W10191  13.653  33.097   0.950
39592W        W10192  40.440  20.745  12.397
39593W        W10193  35.869  15.171  12.036
39594W        W10194   6.458   5.659   0.500
39595W        W10195   2.161  20.483  13.148
39596W        W10196  26.813  33.877  13.590
39597W        W10197  24.978  44.513   3.293
39598W        W10198  24.955  29.608   2.166
39599W        W10199   0.040  25.941   1.381
39600W        W10200  16.686  12.666  11.114
39601W        W10201  13.131  19.035  12.362
39602W        W10202  12.450  14.385  10.782
39603W        W10203  21.675  11.289   2.829
39604W        W10204  33.864  33.536  11.733
39605W        W10205  28.180  41.585   0.298
39606W        W10206   0.405  25.909   3.989
39607W        W10207  33.843  10.262  12.552
39608W        W10208  19.352   4.126  12.070
39609W        W10209  37.908  24.999   3.122
39610W        W10210  39.348  16.716   3.331
39611W        W10211   2.953  14.077   0.926
39612W        W10212  29.551  39.948  14.397
39613W        W10213  29.821   7.738  10.993
39614W        W10214  37.947  11.195   2.075
39615W        W10215  20.243   7.751   1.891
39616W        W10216  43.964  27.190   1.730
39617W        W10217  43.289   3.145  12.072
39618W        W10218  38.916  25.888   1.169
39619W        W10219  44.859   0.229   0.814
39620W        W10220  24.046  24.264   0.387
39621W        W10221  29.722  18.040  10.774
39622W        W10222  32.140   2.754   1.875
39623W        W10223  18.537  44.479   1.779
39624W        W10224  29.368  36.937   1.502
39625W        W10225  42.684  37.403   0.971
39626W        W10226  20.532   6.647  12.087
39627W        W10227   8.603  13.677  14.915
39628W        W10228   6.287   9.307   4.579
39629W        W10229  42.319  44.843  14.457
39630W        W10230  24.661  18.720   4.455
39631W        W10231  32.627   7.029   3.683
39632W        W10232   4.412  40.914  13.368
39633W        W10233  30.424  43.541   3.870
39634W        W10234   5.141  21.991  11.998
39635W        W10235  29.231   2.871   3.182
39636W        W10236  33.836  39.221  12.929
39637W        W10237   3.169   3.959  13.010
39638W        W10238  36.099  41.975   4.076
39639W        W10239  20.986  19.742   4.427
39640W        W10240  22.301  29.278  10.656
39641W        W10241   8.245  15.813   2.436
39642W        W10242  23.267  19.731  12.389
39643W        W10243  11.342  22.031   1.337
39644W        W10244  38.607  18.582  14.361
39645W        W10245  44.043   0.214   4.567
39646W        W10246   0.083  18.196   2.833
39647W        W10247  39.501  13.873   2.373
39648W        W10248  18.774  11.404  11.974
39649W        W10249  43.109   7.262   3.922
39650W        W10250  44.191  35.000   0.248
39651W        W10251  29.099  44.954  12.109
39652W        W10252  33.931  41.487  14.300
39653W        W10253   0.299  44.047  14.702
39654W        W10254   9.131  14.759   2.242
39655W        W10255   9.797  29.482   2.901
39656W        W10256  33.378   7.945  10.655
39657W        W10257  15.304  14.628  14.854
39658W        W10258   4.688  26.945   2.255
39659W        W10259  18.396  39.051   2.780
39660W        W10260  32.141   1.646  14.566
39661W        W10261  27.504  30.468  12.629
39662W        W10262  11.421   4.029   3.179
39663W        W10263  11.935  44.368  11.340
39664W        W10264  16.530  25.449   0.815
39665W        W10265  39.306  11.711   2.242
39666W        W10266  10.712  27.618  11.225
39667W        W10267  34.882   9.186   0.456
39668W        W10268  13.532   6.884  11.978
39669W        W10269  42.817  36.522  14.799
39670W        W10270  38.046   4.756   1.497
39671W        W10271  37.831  43.221  14.848
39672W        W10272   8.951  31.984  12.549
39673W        W10273  23.688  23.158   3.301
39674W        W10274  22.134  40.843   0.706
39675W        W10275  13.101  32.128  11.130
39676W        W10276  41.883  40.928   3.693
39677W        W10277  29.672   5.609   2.104
39678W        W10278  10.761  22.760  10.633
39679W        W10279  31.955  21.210  12.045
39680W        W10280  15.699   9.574  13.426
39681W        W10281   9.346  25.565  13.922
39682W        W10282   0.293  20.317   0.278
39683W        W10283  10.587  28.561   0.833
39684W        W10284  22.709  41.038   3.034
39685W        W10285  22.618  11.276  14.806
39686W        W10286   1.112   6.935   3.508
39687W        W10287  20.309   5.388   4.645
39688W        W10288  21.694   3.993   2.385
39689W        W10289  41.233  35.417  11.615
39690W        W10290  40.831   7.495  11.691
39691W        W10291   0.881  37.434   4.500
39692W        W10292   1.735  16.786  12.447
39693W        W10293  41.000  12.557  11.697
39694W        W10294   6.832   7.948  12.782
39695W        W10295  42.518  29.066  10.718
39696W        W10296  38.834  39.982  14.337
39697W        W10297  20.052  27.292  11.211
39698W        W10298  23.668  32.545   1.025
39699W        W10299  20.165   9.065   1.438
39700W        W10300  14.184  32.200   0.453
39701W        W10301  23.645   8.332  14.284
39702W        W10302  22.059  12.569   0.971
39703W        W10303  34.140  33.049  14.450
39704W        W10304   9.818  42.182  13.848
39705W        W10305   6.937  42.286  12.790
39706W        W10306  20.649   3.286  10.734
39707W        W10307  20.290   3.440   4.581
39708W        W10308  42.785   2.592   1.238
39709W        W10309  37.605  33.441   1.896
39710W        W10310  20.047  38.270   3.616
39711W        W10311  24.645  41.010   3.852
39712W        W10312  36.074  28.121   2.669
39713W        W10313  24.187   0.448  12.568
39714W        W10314  30.140  22.474   3.015
39715W        W10315  29.501  39.269  13.739
39716W        W10316  15.588  22.675   0.536
39717W        W10317  37.921  11.726   2.285
39718W        W10318  13.190  36.075  12.362
39719W        W10319  42.980  22.108   0.771
39720W        W10320  18.961  30.120  12.507
39721W        W10321   7.143  44.859  14.838
39722W        W10322   6.115  39.800   2.695
39723W        W10323  26.587  42.384  14.301
39724W        W10324  23.050  26.088   0.746
39725W        W10325  15.733   6.340   4.036
39726W        W10326  18.231  24.151   0.478
39727W        W10327  40.640   3.466   0.446
39728W        W10328   3.870  24.237  14.917
39729W        W10329  37.004  18.684  12.582
39730W        W10330   5.255  16.308  13.213
39731W        W10331  33.478  39.071  10.251
39732W        W10332  40.460  26.706   0.128
39733W        W10333  25.526   5.464   4.981
39734W        W10334  19.141  36.617   1.049
39735W        W10335  30.126  30.116  14.503
39736W        W10336   8.443  34.656   4.595
39737W        W10337   1.895  44.456  12.639
39738W        W10338   5.329  27.684  13.896
39739W        W10339   3.743  19.915   1.274
39740W        W10340  24.245  39.064  11.945
39741W        W10341   2.119  19.358   0.035
39742W        W10342  13.243   0.545   3.295
39743W        W10343  19.679  28.237  11.482
39744W        W10344  41.042  18.035   3.884
39745W        W10345  40.629  25.606   3.175
39746W        W10346   5.911  26.143   2.720
39747W        W10347  18.655   8.648   4.693
39748W        W10348  13.225  39.939  11.497
39749W        W10349  17.272  12.250  14.029
39750W        W10350  17.706  15.015  10.550
39751W        W10351  22.500  42.353   2.724
39752W        W10352  21.549  16.646   3.763
39753W        W10353  33.588  37.043   3.256
39754W        W10354  25.149  13.408   2.339
39755W        W10355   8.006  33.553  11.125
39756W        W10356  34.786  12.242  11.624
39757W        W10357  22.505  44.170  13.018
39758W        W10358  29.730  21.930   4.751
39759W        W10359  33.908   5.069   0.008
39760W        W10360  14.166  12.283  11.326
39761W        W10361  31.042  39.014  13.605
39762W        W10362  33.063   4.964  11.655
39763W        W10363  17.812  41.560  14.344
39764W        W10364  18.465   5.127   0.443
39765W        W10365  17.529   4.847   1.894
39766W        W10366   6.193  11.641  14.674
39767W        W10367  32.630  12.140  13.124
39768W        W10368  41.638   6.389  13.307
39769W        W10369  37.550  37.082  11.281
39770W        W10370  42.440  43.505  10.644
39771W        W10371  17.546  37.064  11.014
39772W        W10372  25.555  16.519   2.133
39773W        W10373  21.346  40.997  14.439
39774W        W10374   1.047  26.129   4.688
39775W        W10375  37.880   8.153   3.635
39776W        W10376  13.799   5.145  12.465
39777W        W10377  40.492  36.913   1.309
39778W        W10378  15.483  32.118  12.456
39779W        W10379  42.544  22.800  11.171
39780W        W10380   8.422  21.709  12.968
39781W        W10381  36.295  14.257  12.011
39782W        W10382  21.624  32.069   3.659
39783W        W10383   1.774  23.573   0.996
39784W        W10384  11.585  41.045  14.571
39785W        W10385  16.985  28.284  11.017
39786W        W10386  35.482  14.620  11.949
39787W        W10387   9.276  21.912   1.708
39788W        W10388  40.852  25.699   1.895
39789W        W10389   8.420  36.546   3.535
39790W        W10390   1.727  30.004   3.364
39791W        W10391  24.034  10.303  11.861
39792W        W10392  24.148  20.964   4.189
39793W        W10393  29.440  37.619  14.745
39794W        W10394  20.872   3.708  11.109
39795W        W10395  18.310  39.910  10.569
39796W        W10396  23.728  15.833  10.604
39797W        W10397  12.236  36.380  14.307
39798W        W10398   5.250  31.611  13.656
39799W        W10399  22.691   5.448   2.712
39800W        W10400  19.461  43.785   2.448
39801W        W10401   9.286  36.321   2.636
39802W        W10402  14.083   1.476   2.151
39803W        W10403  29.036  11.755  14.941
39804W        W10404  14.113  25.622   0.969
39805W        W10405  22.703  43.497   2.392
39806W        W10406  44.442  13.349  14.965
39807W        W10407  33.451   3.935   2.950
39808W        W10408   7.463  28.563   1.821
39809W        W10409   0.744  40.330   0.910
39810W        W10410  37.127  38.102  10.623
39811W        W10411  41.944  24.797  13.797
39812W        W10412   7.454  28.150  12.613
39813W        W10413  34.361   9.451  11.546
39814W        W10414   3.561  43.450   2.901
39815W        W10415  40.049  31.107   3.865
39816W        W10416   5.994  26.711  13.515
39817W        W10417   8.271  26.718  14.266
39818W        W10418  31.916  25.938   2.403
39819W        W10419  14.569  30.156   1.880
39820W        W10420   1.204   1.217   2.387
39821W        W10421  25.634  37.371   0.052
39822W        W10422  29.190  10.733  12.148
39823W        W10423  30.984  40.075  12.782
39824W        W10424   2.450  19.706  12.401
39825W        W10425   8.459  14.529  12.630
39826W        W10426   2.745  19.839   1.258
39827W        W10427   6.951  14.530   4.211
39828W        W10428  10.634  15.741  10.193
39829W        W10429  35.831  22.187  14.097
39830W        W10430   0.623  27.604   9.983
39831W        W10431  15.736  14.523  12.568
39832W        W10432  34.459  37.352   0.926
39833W        W10433  36.649  33.945  14.719
39834W        W10434  29.085  41.774  13.344
39835W        W10435  16.547  30.193  10.336
39836W        W10436  24.657  32.420   1.404
39837W        W10437  11.369  37.840  13.618
39838W        W10438  42.806  12.858  12.965
39839W        W10439  12.214  38.643   4.639
39840W        W10440  17.000  21.728   1.962
39841W        W10441   1.167  31.163   0.489
39842W        W10442  44.313   2.652   4.531
39843W        W10443  28.126  30.500  12.471
39844W        W10444  28.340  36.509   3.766
39845W        W10445   4.857  42.994  10.443
39846W        W10446  15.718   4.598   0.389
39847W        W10447  19.002  33.794   0.439
39848W        W10448   5.593  33.390   4.952
39849W        W10449  15.630   8.815  14.569
39850W        W10450  24.633  10.498  13.538
39851W        W10451  35.995  18.219  14.341
39852W        W10452   3.170   2.349  10.715
39853W        W10453  14.633  28.658   0.850
39854W        W10454  30.876  18.092  13.796
39855W        W10455  41.505  41.998   1.280
39856W        W10456   1.618  16.614  12.943
39857W        W10457  38.078  35.548   2.283
39858W        W10458  38.737  39.041  14.439
39859W        W10459  35.452  19.347   1.680
39860W        W10460  23.286  41.806   1.848
39861W        W10461  16.445  36.053  11.508
39862W        W10462  43.253   8.188   5.000
39863W        W10463  42.739  22.278   1.199
39864W        W10464  15.684   5.429   0.837
39865W        W10465  13.651  32.645  10.539
39866W        W10466  25.607  40.827  14.393
39867W        W10467  12.018  17.316  11.997
39868W        W10468  32.438  43.415  12.701
39869W        W10469  32.912  39.874   0.494
39870W        W10470  33.746   0.251  12.470
39871W        W10471  15.620  16.521   4.169
39872W        W10472  40.774  28.532   0.783
39873W        W10473   7.662  30.142   1.702
39874W        W10474   0.088   0.049   4.524
39875W        W10475  42.471   8.774   3.170
39876W        W10476  23.959  25.532   2.728
39877W        W10477   7.867  17.585  12.841
39878W        W10478  21.776  32.482  13.859
39879W        W10479  12.410   3.938   4.152
39880W        W10480  23.752  26.625   4.065
39881W        W10481  26.820  12.511  13.268
39882W        W10482  13.156  22.720  13.012
39883W        W10483  33.109  10.682   3.391
39884W        W10484  33.663  33.760   5.071
39885W        W10485  11.528  37.037   1.849
39886W        W10486  21.034  18.889  13.384
39887W        W10487   5.414  25.049  13.087
39888W        W10488  11.764   0.722  13.876
39889W        W10489  40.904  42.247   1.565
39890W        W10490  23.675  37.544  14.223
39891W        W10491  29.613  10.961  11.929
39892W        W10492  19.028   3.461   0.722
39893W        W10493  19.268  24.200  10.234
39894W        W10494  13.317  10.006   0.093
39895W        W10495  10.221  42.832   3.235
39896W        W10496   1.487  38.159  14.877
39897W        W10497  10.112  25.675  14.555
39898W        W10498  17.720  42.411  11.921
39899W        W10499  43.514  40.958   0.938
39900W        W10500  16.682  34.108  10.796
39901W        W10501  12.720  36.239  12.500
39902W        W10502   2.637  39.487   0.849
39903W        W10503  36.545  20.272   3.830
39904W        W10504  21.489  24.508  11.640
39905W        W10505  34.058  31.986   4.291
39906W        W10506  31.436   2.670   2.785
39907W        W10507  24.549  44.457   2.579
39908W        W10508  31.336  10.980   1.376
39909W        W10509  24.526  27.528  13.463
39910W        W10510  27.642  42.783   3.347
39911W        W10511   4.297  32.028   0.238
39912W        W10512  44.464  40.830   4.461
39913W        W10513   6.945  42.908   0.800
39914W        W10514  28.152  14.118   3.242
39915W        W10515  11.207   2.989   1.320
39916W        W10516  42.342  25.465   4.950
39917W        W10517  16.524  24.094   3.408
39918W        W10518  11.570  24.718  12.017
39919W        W10519  44.869  24.586  10.846
39920W        W10520   5.011  37.023  12.086
39921W        W10521  44.161  10.776  13.007
39922W        W10522  32.076  25.053   4.811
39923W        W10523  20.658  23.197  14.679
39924W        W10524   0.731  16.250  11.014
39925W        W10525  15.137   9.961   4.382
39926W        W10526   8.074  11.760  10.388
39927W        W10527  13.694  24.706   3.634
39928W        W10528   3.509  42.886  11.641
39929W        W10529  13.616  14.216  14.441
39930W        W10530  12.168  12.838  10.780
39931W        W10531  34.652  38.511   2.270
39932W        W10532  24.380  40.330  12.055
39933W        W10533  27.206  29.081   0.272
39934W        W10534  37.023  11.365   4.841
39935W        W10535  42.851  22.061   1.649
39936W        W10536  44.839  44.014   2.830
39937W        W10537  35.578  27.739   1.884
39938W        W10538  24.195  36.033  14.782
39939W        W10539  19.203   4.814   1.314
39940W        W10540  42.603  25.921  10.631
39941W        W10541   6.075   4.455   1.745
39942W        W10542  10.481   7.144   1.313
39943W        W10543  15.194  28.780  12.158
39944W        W10544   4.766  44.365   4.976
39945W        W10545  29.609  18.392  12.497
39946W        W10546  41.984  22.183  12.525
39947W        W10547  16.296   5.727  13.846
39948W        W10548  19.650  28.966  13.456
39949W        W10549   5.789  29.148   0.510
39950W        W10550  11.768  17.830  12.531
39951W        W10551  20.535  31.521   2.641
39952W        W10552  22.691  32.934  13.936
39953W        W10553  43.338   1.406   1.638
39954W        W10554  38.411  13.635   0.084
39955W        W10555  31.560  29.130   4.760
39956W        W10556  14.449  31.859  12.500
39957W        W10557   5.733  20.705  12.455
39958W        W10558   8.310   0.278   1.048
39959W        W10559  15.622  13.563   1.844
39960W        W10560  12.227   8.701   0.004
39961W        W10561  21.571   8.380   1.435
39962W        W10562  44.004   1.962  10.403
39963W        W10563   2.209  10.198   0.288
39964W        W10564  22.809  23.978  13.878
39965W        W10565   9.080  11.347  10.777
39966W        W10566  22.690  12.141   1.867
39967W        W10567   3.628   0.988  11.080
39968W        W10568  23.818  19.132  12.158
39969W        W10569  33.660  42.990   0.820
39970W        W10570  16.367   5.674   2.257
39971W        W10571  22.892  22.883   1.639
39972W        W10572  22.664  30.596   1.431
39973W        W10573   3.004  16.138  11.471
39974W        W10574  38.097  31.121   2.863
39975W        W10575   5.588  22.064  11.753
39976W        W10576  17.236  23.555   0.012
39977W        W10577  44.142  19.095   1.234
39978W        W10578   0.518   8.075  11.259
39979W        W10579  30.390  35.652   2.774
39980W        W10580  34.874  31.571  14.719
39981W        W10581  26.921  17.289   0.689
39982W        W10582  11.481  37.582   3.176
39983W        W10583   9.243  14.319  12.416
39984W        W10584   2.036  44.379   3.694
39985W        W10585  43.990  41.903   1.339
39986W        W10586  27.747  36.493   2.902
39987W        W10587  20.911  43.553   5.003
39988W        W10588  37.392   0.945  12.552
39989W        W10589  12.763  11.631   0.511
39990W        W10590  21.583  13.604   2.739
39991W        W10591  29.661   6.166   1.892
39992W        W10592  19.674  24.261   1.408
39993W        W10593  32.105   5.891   4.110
39994W        W10594  36.417  15.809   2.608
39995W        W10595  24.670  38.298  13.332
39996W        W10596   5.074  13.673   1.332
39997W        W10597  33.106   9.899  11.999
39998W        W10598  27.622   4.284   4.352
39999W        W10599  17.398  27.017  13.447
40000W        W10600  35.538  22.344   1.355
40001W        W10601  20.122  41.919  10.774
40002W        W10602  16.189   2.663  13.395
40003W        W10603  20.725  40.366  12.965
40004W        W10604   7.630  26.746  10.751
40005W        W10605  24.254   7.396  11.938
40006W        W10606  35.359  40.781  13.538
40007W        W10607  21.854  20.532  14.329
40008W        W10608   6.433  40.931  12.225
40009W        W10609  34.755  26.566   1.291
40010W        W10610   4.416  11.405  11.001
40011W        W10611  32.173  30.165  11.088
40012W        W10612  17.739  41.723  12.935
40013W        W10613  25.675  35.955   4.561
40014W        W10614  31.429   0.313   0.404
40015W        W10615  44.800   3.867   1.275
40016W        W10616  21.328  23.963  13.383
40017W        W10617  26.890  28.585  13.931
40018W        W10618  29.990  13.341  10.991
40019W        W10619  20.553  17.058  12.137
40020W        W10620  24.957  36.208  12.121
40021W        W10621  14.831   8.236  14.496
40022W        W10622  17.182  18.127   4.151
40023W        W10623   3.862   0.284  13.289
40024W        W10624  11.214  21.630   2.282
40025W        W10625  13.042   7.723  14.485
40026W        W10626  20.695  40.342   4.396
40027W        W10627  42.998  12.755   1.967
40028W        W10628  38.416  43.779  12.467
40029W        W10629  19.590  21.300  13.891
40030W        W10630  24.066   1.063   2.371
40031W        W10631  19.504  14.611  10.730
40032W        W10632   1.821  30.065   0.798
40033W        W10633  23.787  28.319  13.019
40034W        W10634  30.442   5.701   4.087
40035W        W10635   3.596  26.186   2.362
40036W        W10636  31.145  38.610  13.928
40037W        W10637  40.452  16.195  12.669
40038W        W10638  27.204  22.270   2.485
40039W        W10639  22.534  10.237  13.617
40040W        W10640  35.895  10.274  14.821
40041W        W10641  13.222  27.563  12.474
40042W        W10642  31.441  24.504  13.471
40043W        W10643  38.502  32.448   4.831
40044W        W10644  31.378  41.039  13.437
40045W        W10645   7.781  44.570   2.316
40046W        W10646   3.778  11.713  13.609
40047W        W10647  32.581  18.830   4.445
40048W        W10648  34.839  11.601  13.057
40049W        W10649  32.208  14.369   3.409
40050W        W10650   5.085  37.419  10.415
40051W        W10651  20.064  28.618  12.401
40052W        W10652  11.128  31.983   0.818
40053W        W10653   7.201   2.058   2.160
40054W        W10654   0.529  36.882  14.011
40055W        W10655  20.299  42.739   4.936
40056W        W10656  17.827   5.740   0.558
40057W        W10657  20.547   2.821  10.917
40058W        W10658   3.422   4.997  12.088
40059W        W10659   3.625  30.168  12.438
40060W        W10660  16.939  36.774   0.305
40061W        W10661  42.535   3.037   4.173
40062W        W10662  22.670   2.964   0.913
40063W        W10663  15.396  33.776  14.526
40064W        W10664   2.200  35.231  11.130
40065W        W10665  32.114  32.602  14.909
40066W        W10666  33.510  42.521   1.048
40067W        W10667  35.985  13.611   4.843
40068W        W10668  15.121  37.042  10.759
40069W        W10669  18.273  26.064  13.074
40070W        W10670  33.517  42.253  11.420
40071W        W10671   4.708  43.904  10.504
40072W        W10672  21.360  23.532  12.465
40073W        W10673  15.433  37.295   1.070
40074W        W10674  19.271  35.414   3.602
40075W        W10675  17.292  24.480  12.421
40076W        W10676  38.971  13.410  11.941
40077W        W10677  37.284  42.779   2.360
40078W        W10678  29.459  16.688   0.026
40079W        W10679   9.296  38.103  12.630
40080W        W10680   9.761   7.606  12.527
40081W        W10681  37.538   9.435   3.813
40082W        W10682   5.331   4.215   4.925
40083W        W10683  20.096   9.072  14.100
40084W        W10684  31.706  11.673   0.997
40085W        W10685  26.472  16.029  14.574
40086W        W10686  16.920   3.248  12.300
40087W        W10687  25.518  29.867  12.514
40088W        W10688  36.817  29.184   1.801
40089W        W10689   6.365  23.885  10.911
40090W        W10690  44.208  27.084   2.870
40091W        W10691  24.229   5.370   0.849
40092W        W10692  26.036   8.645  13.972
40093W        W10693  33.907  26.144   4.092
40094W        W10694  25.979  18.188  14.342
40095W        W10695   6.243   8.113   0.915
40096W        W10696   7.406  13.391  14.483
40097W        W10697  13.384  31.758   2.727
40098W        W10698  15.109  31.283  14.119
40099W        W10699  38.084   5.164   0.053
40100W        W10700  22.592  25.262   4.708
40101W        W10701  10.208  40.632   3.809
40102W        W10702   3.183  40.399   4.468
40103W        W10703  11.648  21.946  10.488
40104W        W10704  22.133  29.970  13.867
40105W        W10705  25.139  36.672   4.864
40106W        W10706  16.901  27.165   3.558
40107W        W10707  42.568  27.387   4.702
40108W        W10708   9.113  37.333  11.524
40109W        W10709   5.646  16.507   3.626
40110W        W10710   5.379  22.507   0.920
40111W        W10711  10.059   3.143   4.601
40112W        W10712  40.422  34.155  14.845
40113W        W10713  35.021  14.996   0.420
40114W        W10714  27.707  27.607  14.297
40115W        W10715  25.325  34.880   1.950
40116W        W10716   9.634  14.129  13.208
40117W        W10717  41.279  29.430   2.000
40118W        W10718   6.693   3.296   0.459
40119W        W10719  22.405  34.207   3.164
40120W        W10720  13.362  28.543  11.048
40121W        W10721  29.652  25.817   1.378
40122W        W10722   8.165  25.580   1.231
40123W        W10723  33.619  41.857   2.763
40124W        W10724  29.913   5.341  14.961
40125W        W10725   0.502  44.532   3.257
40126W        W10726  35.810  30.696  13.985
40127W        W10727  22.865   4.756   2.253
40128W        W10728  15.542  32.062   3.148
40129W        W10729  28.020  11.127  13.158
40130W        W10730   7.354  18.627   1.590
40131W        W10731  41.564  43.905   1.262
40132W        W10732   0.050  13.673  11.631
40133W        W10733  38.124  12.757  13.374
40134W        W10734  21.162  27.635   4.031
40135W        W10735  11.650  11.086   1.854
40136W        W10736  16.404   9.087   4.042
40137W        W10737  41.811   7.861  12.617
40138W        W10738  10.054  20.468  10.965
40139W        W10739  28.238  31.503   4.208
40140W        W10740  19.668   2.283  14.578
40141W        W10741   1.824  25.422   2.199
40142W        W10742  40.175  11.345  14.078
40143W        W10743  22.789  32.093   3.775
40144W        W10744  25.602  19.146   4.125
40145W        W10745  27.619   9.308   2.676
40146W        W10746  35.665  40.543  13.994
40147W        W10747  37.902   4.858   4.288
40148W        W10748  27.641   3.638  11.918
40149W        W10749   7.892  35.703   3.321
40150W        W10750   7.389  16.286  11.134
40151W        W10751  10.308  18.148  10.239
40152W        W10752  43.534   2.715   4.221
40153W        W10753  35.333  28.916  13.038
40154W        W10754  43.889  42.439   0.763
40155W        W10755  17.169  21.025  14.171
40156W        W10756  32.463  16.315  11.673
40157W        W10757  38.450   6.196  10.784
40158W        W10758  14.702  30.050  11.009
40159W        W10759  12.257  35.398   3.642
40160W        W10760  32.188   7.844  14.461
40161W        W10761  14.262   6.621   2.834
40162W        W10762  20.221  35.344  13.849
40163W        W10763  13.817  11.591  10.664
40164W        W10764  27.050  21.943  12.443
40165W        W10765  11.577   3.913   0.392
40166W        W10766  43.516  27.562  12.820
40167W        W10767  13.233   4.271  12.692
40168W        W10768   3.093  18.703   0.808
40169W        W10769  22.500  17.373   4.562
40170W        W10770   7.073   9.150   2.777
40171W        W10771   1.010  13.860  11.651
40172W        W10772  11.625   5.261  12.054
40173W        W10773  40.510  14.507   3.785
40174W        W10774  36.992  16.978  11.602
40175W        W10775  36.401   5.726  11.019
40176W        W10776   5.355  16.530   1.279
40177W        W10777  18.728  35.359  13.067
40178W        W10778  19.638  39.753  11.537
40179W        W10779  21.513  13.319   3.443
40180W        W10780  18.644  43.781   1.306
40181W        W10781  35.597  30.221   4.377
40182W        W10782  15.052  15.093  14.818
40183W        W10783  33.557  22.902  14.569
40184W        W10784  43.352  28.286   1.410
40185W        W10785  39.316  36.679  11.147
40186W        W10786  30.077  25.205   3.657
40187W        W10787  18.091  14.882   4.581
40188W        W10788   3.114  25.952   2.386
40189W        W10789   9.654  43.307   0.354
40190W        W10790  30.252  29.130  12.991
40191W        W10791  28.306  28.215   4.604
40192W        W10792  29.374   4.818   2.297
40193W        W10793  16.379  36.909  12.101
40194W        W10794  28.981  24.240   3.407
40195W        W10795  34.673  12.754  11.651
40196W        W10796  11.191  20.172  11.893
40197W        W10797  13.240  15.745  10.554
40198W        W10798  18.008  30.239   1.188
40199W        W10799  20.285  30.578  11.035
40200W        W10800   7.910  13.121  13.473
40201W        W10801   2.301  42.173  12.126
40202W        W10802  18.736  21.517  11.953
40203W        W10803  11.937  39.536   4.199
40204W        W10804  32.610  37.160  13.898
40205W        W10805  22.625  29.043   3.227
40206W        W10806   0.294   4.518  14.279
40207W        W10807  19.432  40.506  14.908
40208W        W10808  13.623  40.314   4.427
40209W        W10809  21.807  24.836   3.699
40210W        W10810  12.924  39.228   0.294
40211W        W10811  37.238  22.498   1.765
40212W        W10812  41.027   8.182  13.798
40213W        W10813  15.165  11.324   1.435
40214W        W10814  36.931  36.393  14.905
40215W        W10815  12.191  23.099   3.743
40216W        W10816  14.972  19.103   0.722
40217W        W10817  44.176  37.048  11.519
40218W        W10818   5.226  44.264  12.141
40219W        W10819  12.248  42.888  14.543
40220W        W10820  15.125  15.456   4.831
40221W        W10821  24.510   8.617  12.909
40222W        W10822  27.429   8.635   3.946
40223W        W10823  10.720  15.284  12.314
40224W        W10824  21.070   7.217   5.459
40225W        W10825  31.093  17.551   1.937
40226W        W10826  28.537  15.801   9.900
40227W        W10827  32.962  17.759  10.997
40228W        W10828  32.085  18.761  11.870
40229W        W10829  36.215  12.539  13.852
40230W        W10830  26.073  27.591   3.714
40231W        W10831   3.239  38.801  10.680
40232W        W10832  22.297  16.148   3.402
40233W        W10833  22.935  22.222   1.005
40234W        W10834  43.289  25.591   0.055
40235W        W10835   8.386  12.826   1.720
40236W        W10836  40.306  32.214   4.178
40237W        W10837  37.307  12.824  14.073
40238W        W10838  14.186  26.882  11.559
40239W        W10839  32.648  39.724  11.042
40240W        W10840  20.517  35.158   4.360
40241W        W10841  44.787  42.834   4.245
40242W        W10842  39.877  32.748   3.196
40243W        W10843  26.201   3.442   1.202
40244W        W10844  29.384  43.840  11.447
40245W        W10845  35.344  26.444  13.977
40246W        W10846  26.473  42.625  11.133
40247W        W10847  42.118  15.094  11.767
40248W        W10848  41.985   7.339  10.504
40249W        W10849  10.266  20.344   0.931
40250W        W10850  44.242  22.841  11.471
40251W        W10851  12.373  29.557   3.374
40252W        W10852   8.341   8.848  10.610
40253W        W10853  29.982   3.509   1.505
40254W        W10854  15.689  10.183  10.535
40255W        W10855  43.357  18.235   0.046
40256W        W10856  41.375  33.917   0.795
40257W        W10857  14.252   2.207  13.068
40258W        W10858  26.379  33.805  14.354
40259W        W10859   3.829  23.226  13.915
40260W        W10860  13.127  27.114  14.854
40261W        W10861   4.870  32.597  13.447
40262W        W10862   9.448  32.980   2.332
40263W        W10863   6.305  20.957   4.516
40264W        W10864  22.461  18.142  14.346
40265W        W10865  34.694  41.359  11.116
40266W        W10866  36.970  12.636  12.095
40267W        W10867   5.431  24.546  14.300
40268W        W10868  28.223   6.756  13.908
40269W        W10869  13.321  35.396  12.617
40270W        W10870   3.148  19.582   4.138
40271W        W10871  13.230  44.236  14.379
40272W        W10872  28.063   2.890  13.038
40273W        W10873  40.625  32.089  13.496
40274W        W10874  32.386  13.740   0.299
40275W        W10875  36.509  11.692  11.451
40276W        W10876  12.202  17.095  11.511
40277W        W10877  16.364  34.934   2.318
40278W        W10878  42.421  26.125   2.687
40279W        W10879   0.895  16.036   4.254
40280W        W10880  22.503  28.240   4.672
40281W        W10881  18.833  38.957  10.797
40282W        W10882  26.073  29.009  14.032
40283W        W10883  35.793   1.007   4.640
40284W        W10884  27.116  26.848  14.352
40285W        W10885   0.300  29.648   1.364
40286W        W10886  24.885   3.839  11.545
40287W        W10887   5.350  25.247   3.500
40288W        W10888  43.670  23.731  12.003
40289W        W10889  41.694  40.439   0.592
40290W        W10890   7.337   2.960  13.395
40291W        W10891   1.984  27.726   1.356
40292W        W10892   2.892  26.542   3.721
40293W        W10893  17.839  29.131   1.234
40294W        W10894   6.855  28.913   4.311
40295W        W10895   5.262   7.671  12.349
40296W        W10896   9.330  24.599  14.429
40297W        W10897  34.280   0.920  12.801
40298W        W10898  37.921  14.097   2.734
40299W        W10899  43.972  18.294  10.467
40300W        W10900   3.489   9.901   4.045
40301W        W10901  11.241  37.698   3.630
40302W        W10902  39.289  41.433  12.473
40303W        W10903   8.886   7.222  11.145
40304W        W10904  25.196  31.612   0.499
40305W        W10905  26.264  35.581  11.440
40306W        W10906  27.476  21.690  12.204
40307W        W10907  32.145  20.485   3.682
40308W        W10908  14.644  21.241  12.510
40309W        W10909  39.272   3.949   2.549
40310W        W10910  23.498  23.733  12.925
40311W        W10911  37.123  42.080   0.974
40312W        W10912  35.410   0.306   1.469
40313W        W10913  15.368   2.366   4.164
40314W        W10914   8.737   4.816   2.049
40315W        W10915  13.675  14.426   3.189
40316W        W10916  18.333  16.068  11.020
40317W        W10917  26.231  17.799   2.342
40318W        W10918   0.428  43.484   1.002
40319W        W10919  11.035  17.548  13.792
40320W        W10920  37.450  38.767  12.022
40321W        W10921  16.937  28.044  14.539
40322W        W10922  44.067  34.722   1.814
40323W        W10923   0.706  23.067   3.188
40324W        W10924  31.408   9.108   3.691
40325W        W10925  10.637   2.956   1.873
40326W        W10926  21.414   3.036  11.036
40327W        W10927  15.623  36.069   3.742
40328W        W10928  15.232  35.906  12.120
40329W        W10929  24.112   1.709   1.050
40330W        W10930   7.636  30.193   2.587
40331W        W10931  13.659  26.985  13.059
40332W        W10932   6.989  33.085  12.995
40333W        W10933  28.108  43.747  12.747
40334W        W10934  25.064  24.635   3.322
40335W        W10935  23.704   4.327   1.336
40336W        W10936  24.467  31.858   1.449
40337W        W10937  34.406  37.034  14.341
40338W        W10938   8.693   0.859   1.920
40339W        W10939  11.684  32.540   0.719
40340W        W10940  26.725  39.801  13.776
40341W        W10941  22.231   3.866  11.663
40342W        W10942  25.928  23.755  14.457
40343W        W10943  22.729   7.763  12.512
40344W        W10944  27.691  41.376  11.766
40345W        W10945  28.272  36.317  11.008
40346W        W10946   7.741  41.317  12.888
40347W        W10947  40.438   7.230   1.768
40348W        W10948  16.706  10.885  13.331
40349W        W10949  32.501  14.334   0.854
40350W        W10950  42.564  21.000  14.114
40351W        W10951  44.312  11.030   1.438
40352W        W10952  33.845  16.142  14.434
40353W        W10953  37.918  28.229  13.989
40354W        W10954  38.456  32.502   1.757
40355W        W10955  19.524  23.572   2.171
40356W        W10956  42.685  24.534  14.844
40357W        W10957  23.205  10.984  12.906
40358W        W10958  25.315  39.601   3.029
40359W        W10959  25.198  22.870  12.536
40360W        W10960  43.821  14.831   4.219
40361W        W10961  24.681   0.600   4.172
40362W        W10962  33.733  34.126  13.521
40363W        W10963  42.362   7.926   1.304
40364W        W10964  37.019  14.537   2.379
40365W        W10965  40.027  36.793   2.279
40366W        W10966   3.772  22.458   2.942
40367W        W10967   9.723  43.039  12.812
40368W        W10968  27.420   1.478   3.670
40369W        W10969  42.986  36.048  14.983
40370W        W10970   5.273  24.647  12.385
40371W        W10971  42.687  15.526   3.726
40372W        W10972   2.480  35.400   3.781
40373W        W10973   7.162  36.962  11.240
40374W        W10974  30.026  22.497  11.322
40375W        W10975   3.856  18.531  12.070
40376W        W10976  42.210  10.350  13.806
40377W        W10977  40.244  31.909   3.760
40378W        W10978  29.467  19.337  11.195
40379W        W10979  32.744  27.577   1.438
40380W        W10980  33.863   3.377   4.700
40381W        W10981  10.188   5.869   0.194
40382W        W10982  42.452  40.921  14.923
40383W        W10983  10.275  32.053   2.791
40384W        W10984   1.682  44.369   4.063
40385W        W10985  15.170   4.340   1.054
40386W        W10986  15.944  25.854  10.757
40387W        W10987   2.467  12.701  13.924
40388W        W10988  36.395  21.247   1.239
40389W        W10989  28.637  19.314  11.602
40390W        W10990  29.464  25.489  12.625
40391W        W10991  37.478  10.090   2.675
40392W        W10992  15.047  38.453  13.040
40393W        W10993  34.161  28.145  11.633
40394W        W10994   4.623  39.799   4.144
40395W        W10995   5.302  13.849   4.486
40396W        W10996  44.871  41.822   1.873
40397W        W10997  20.730  26.867   3.579
40398W        W10998  14.313  25.386   0.166
40399W        W10999  11.853  44.516  12.784
40400W        W11000   9.074  32.968   1.468
40401W        W11001  27.107  13.256   1.437
40402W        W11002  34.935  26.412   4.102
40403W        W11003   6.097  33.089   2.594
40404W        W11004  25.110  12.733  14.640
40405W        W11005  30.596   3.807  12.822
40406W        W11006  13.602  34.012   4.370
40407W        W11007  21.116  13.038   2.277
40408W        W11008  33.885   1.119   2.723
40409W        W11009  38.101  21.549  12.490
40410W        W11010  25.343  37.916  10.499
40411W        W11011   7.950  36.105   1.439
40412W        W11012  12.197  10.801   5.064
40413W        W11013  20.957  35.006   3.655
40414W        W11014  36.903   2.935  11.403
40415W        W11015  40.638  39.443  11.154
40416W        W11016   0.443  44.247   3.669
40417W        W11017  29.246  11.772  10.292
40418W        W11018   3.184  26.669  14.873
40419W        W11019  28.131  16.592   2.028
40420W        W11020  12.319  27.455   2.628
40421W        W11021  18.366  15.320   4.778
40422W        W11022   6.900  26.436   0.753
40423W        W11023  13.504   4.829  13.898
40424W        W11024  39.556  15.193   3.577
40425W        W11025  16.079   2.349   0.397
40426W        W11026  34.347   1.844   3.337
40427W        W11027  42.017  37.871   0.311
40428W        W11028   4.921  43.036  13.546
40429W        W11029  12.325  11.771  11.623
40430W        W11030  42.020  21.294  13.054
40431W        W11031  29.848  12.291   3.095
40432W        W11032  17.623  26.196  12.678
40433W        W11033  12.267  36.048   2.851
40434W        W11034  34.820  44.779  14.916
40435W        W11035  31.583   0.804  13.316
40436W        W11036  34.985  25.617  12.442
40437W        W11037  39.542   5.876   4.729
40438W        W11038   1.701  43.299   4.229
40439W        W11039  40.917  40.157  14.660
40440W        W11040  27.016  16.011   4.252
40441W        W11041  31.510  18.804  14.275
40442W        W11042  23.036  24.186   3.691
40443W        W11043   3.670  25.704  10.518
40444W        W11044  13.164  25.167   1.916
40445W        W11045  32.039  11.666  13.850
40446W        W11046   7.116  34.853   1.293
40447W        W11047  12.487   8.252  13.365
40448W        W11048  30.558  44.841  14.849
40449W        W11049  21.292  38.903  12.467
40450W        W11050   1.045  20.707   0.524
40451W        W11051   2.643  17.812  14.418
40452W        W11052   5.913  21.123   3.231
40453W        W11053  39.621   3.901  11.308
40454W        W11054  36.356  32.923  13.454
40455W        W11055  19.234  44.470   1.006
40456W        W11056  44.289   2.896  12.961
40457W        W11057  42.278  40.224   3.203
40458W        W11058  42.269  28.244  14.355
40459W        W11059   1.751  40.520  14.770
40460W        W11060  26.156  15.332   3.900
40461W        W11061  36.372  16.324  11.606
40462W        W11062  44.992  30.478   0.341
40463W        W11063   4.298   9.411  11.676
40464W        W11064  22.344  40.867   3.836
40465W        W11065  25.857  23.609   2.633
40466W        W11066  29.468  15.662   2.569
40467W        W11067  19.219  24.564   4.842
40468W        W11068  44.701  42.295  13.046
40469W        W11069  36.820  10.460   4.077
40470W        W11070  15.693  43.778   0.799
40471W        W11071  40.345  29.644   1.776
40472W        W11072  18.576  24.085   2.281
40473W        W11073  23.645   7.660   0.905
40474W        W11074  41.276   2.787   2.281
40475W        W11075  11.383  17.499   3.057
40476W        W11076  10.794  13.332  13.361
40477W        W11077  11.048  32.597  11.953
40478W        W11078   5.481   5.215  12.070
40479W        W11079   8.324  38.764   3.759
40480W        W11080  27.191  35.977   1.697
40481W        W11081   6.078  40.534  12.349
40482W        W11082  11.344  29.911   2.263
40483W        W11083  13.232  41.010   1.399
40484W        W11084   4.766  30.639  13.382
40485W        W11085  11.184  27.751   1.907
40486W        W11086  15.867  15.304   3.633
40487W        W11087  43.853  44.780   4.326
40488W        W11088  11.512  17.218   1.247
40489W        W11089  25.000  16.770   2.796
40490W        W11090   9.348  13.147  13.053
40491W        W11091  29.547  37.370  10.490
40492W        W11092  19.187  16.855   2.323
40493W        W11093  40.098  18.580   2.624
40494W        W11094  39.880  20.612   0.791
40495W        W11095  42.054   7.137  13.890
40496W        W11096  37.559  24.993   4.677
40497W        W11097  43.875  36.027  11.440
40498W        W11098  43.486  10.440  14.716
40499W        W11099  29.543   3.058   0.116
40500W        W11100  32.449  34.084  14.874
40501W        W11101  40.038  18.058   0.953
40502W        W11102  29.279  44.693   2.087
40503W        W11103  11.793   1.827  10.548
40504W        W11104  28.577  41.110   1.891
40505W        W11105  36.443  31.423   0.707
40506W        W11106  28.173  41.210  14.305
40507W        W11107  36.140  18.682  10.785
40508W        W11108   9.127  18.312   1.110
40509W        W11109  36.065  27.184   2.920
40510W        W11110  41.577  40.485  11.133
40511W        W11111  23.106  21.902  10.783
40512W        W11112  44.983  27.093   3.657
40513W        W11113  43.918  32.610   4.915
40514W        W11114  42.985  15.568   4.158
40515W        W11115  40.843  28.137   0.364
40516W        W11116   8.789  44.766  12.099
40517W        W11117   3.742  30.495  13.487
40518W        W11118  22.281  11.853   2.718
40519W        W11119   2.734  23.670  13.036
40520W        W11120  27.925  24.564  11.217
40521W        W11121  12.137   1.935   2.631
40522W        W11122  41.865  36.528  14.894
40523W        W11123   6.502  28.446   0.937
40524W        W11124  28.967  15.666  12.554
40525W        W11125   3.819   6.352  11.084
40526W        W11126  42.545   5.333  11.628
40527W        W11127  13.851  19.656  12.822
40528W        W11128  10.806   1.273   4.520
40529W        W11129  27.619  35.859   5.006
40530W        W11130  32.158   3.910  12.222
40531W        W11131  38.297  33.461  12.082
40532W        W11132  10.798   0.440  11.728
40533W        W11133  21.532  41.297  14.913
40534W        W11134  29.472  14.026   3.515
40535W        W11135  33.917   9.047   5.047
40536W        W11136  22.243  43.813   0.335
40537W        W11137  22.971   0.691   4.525
40538W        W11138  32.895   4.140  11.949
40539W        W11139  14.133  27.102  12.904
40540W        W11140  17.583  25.114   2.328
40541W        W11141   7.269  34.928   4.551
40542W        W11142  16.552   3.701  13.104
40543W        W11143  30.423  27.519   0.755
40544W        W11144  23.678   8.822  12.577
40545W        W11145   1.705  42.776   4.171
40546W        W11146  15.547  23.075  14.789
40547W        W11147  29.607  42.427  10.947
40548W        W11148  18.860  10.152   0.712
40549W        W11149  18.268  36.136  13.687
40550W        W11150   6.765  31.610  11.216
40551W        W11151  41.112  31.874  11.656
40552W        W11152  29.605  33.169  10.860
40553W        W11153  26.672  24.731   0.058
40554W        W11154  18.772  11.183   0.943
40555W        W11155   9.075  11.830  11.003
40556W        W11156  16.273  16.004   4.789
40557W        W11157  25.224  22.512   3.295
40558W        W11158   3.041  15.638   0.421
40559W        W11159  30.587  17.029   0.445
40560W        W11160  40.084  26.417   2.911
40561W        W11161  22.921  33.562   4.646
40562W        W11162   2.766  38.589  10.673
40563W        W11163  32.604   8.014   3.748
40564W        W11164   8.407  29.222   0.475
40565W        W11165  26.568  21.479  11.556
40566W        W11166  14.046  22.726  12.049
40567W        W11167  33.584  12.780  13.820
40568W        W11168  24.566  22.082   4.481
40569W        W11169  33.510  13.529  11.160
40570W        W11170   8.391  44.845  12.965
40571W        W11171  42.738   9.011  11.183
40572W        W11172   1.028  39.305  11.049
40573W        W11173  41.286  30.982  11.553
40574W        W11174   9.888   1.862   4.195
40575W        W11175  22.233  42.355   4.574
40576W        W11176  12.392  19.239  14.844
40577W        W11177  14.307  27.862  14.826
40578W        W11178  28.939  26.626   2.043
40579W        W11179  27.968   1.794  11.615
40580W        W11180  40.272   1.527  12.441
40581W        W11181  18.715  14.671   1.894
40582W        W11182  44.479   9.729  12.130
40583W        W11183  42.648  39.004   2.824
40584W        W11184  14.898   7.790   4.804
40585W        W11185  19.791  44.922   1.917
40586W        W11186   1.523  14.403   4.613
40587W        W11187  15.618  25.104   4.043
40588W        W11188  24.569  11.193   3.311
40589W        W11189  17.278  43.299   1.038
40590W        W11190  12.358   5.459   1.519
40591W        W11191   8.809  37.288  11.088
40592W        W11192   5.772  26.749  14.944
40593W        W11193  34.110  35.057  11.366
40594W        W11194  39.111  44.017  14.586
40595W        W11195   8.845  25.386  12.513
40596W        W11196  20.542  12.412  14.487
40597W        W11197  13.198  18.676   3.566
40598W        W11198   0.523  38.950   3.635
40599W        W11199  37.987  40.558   3.620
40600W        W11200  40.870  25.178  14.225
40601W        W11201  34.010  21.034  12.512
40602W        W11202  16.804  22.312  11.927
40603W        W11203  27.165   7.855  13.793
40604W        W11204  23.151   6.260   0.395
40605W        W11205  40.015  26.961  13.883
40606W        W11206  10.185  28.108   4.921
40607W        W11207   9.545  23.995  11.672
40608W        W11208  40.255  40.529   1.716
40609W        W11209  11.286  22.097   4.563
40610W        W11210   5.504  12.206   0.433
40611W        W11211   2.217   7.593  13.017
40612W        W11212   7.891   9.175  13.956
40613W        W11213   3.275  26.777  12.547
40614W        W11214  31.006  23.074   3.093
40615W        W11215  40.530  40.996   4.605
40616W        W11216  12.420   8.478   1.370
40617W        W11217  18.975   3.784  10.868
40618W        W11218  26.148  20.643   3.934
40619W        W11219  33.611  23.140   0.019
40620W        W11220  17.241  22.138  14.939
40621W        W11221   5.926  44.355   1.268
40622W        W11222  11.257   5.675  13.049
40623W        W11223   6.643   0.155   0.223
40624W        W11224  25.777  30.514  10.273
40625W        W11225  41.274   2.401   5.058
40626W        W11226  43.702   6.913  11.082
40627W        W11227  11.764  16.555   3.124
40628W        W11228  25.115  27.177   1.427
40629W        W11229   8.336  44.683   0.307
40630W        W11230  39.853  24.789  13.590
40631W        W11231  15.775   3.355   1.400
40632W        W11232   1.697  13.337  13.025
40633W        W11233  35.555  34.083   3.728
40634W        W11234  22.467   6.023  12.460
40635W        W11235  25.719  23.483   0.911
40636W        W11236  19.462   4.228  12.971
40637W        W11237  39.016  38.302   0.186
40638W        W11238  18.082   6.818  10.748
40639W        W11239   5.589  28.465  11.556
40640W        W11240  43.399  17.215  10.239
40641W        W11241  18.220  20.303  12.329
40642W        W11242  24.368  37.474   2.678
40643W        W11243  32.246  25.782   4.256
40644W        W11244  11.395  38.475   1.297
40645W        W11245  23.629  26.175  14.094
40646W        W11246  37.978   9.274  14.816
40647W        W11247  39.353  14.551   1.818
40648W        W11248  24.743  11.565  13.703
40649W        W11249  16.806  15.275   0.181
40650W        W11250  13.099  42.874   2.872
40651W        W11251   5.818  30.133   0.283
40652W        W11252  30.964  13.582  12.386
40653W        W11253  22.892  20.443   2.859
40654W        W11254  22.672   8.183   2.667
40655W        W11255  10.121  15.411  10.687
40656W        W11256  34.422   7.221  12.546
40657W        W11257  19.889   8.656   4.893
40658W        W11258  32.034  38.534   0.874
40659W        W11259  37.475  38.926   4.651
40660W        W11260  28.911  32.092  11.552
40661W        W11261   3.743  18.282   1.261
40662W        W11262  43.299   6.954   4.679
40663W        W11263  18.279  38.594   1.397
40664W        W11264  34.486  41.280  14.862
40665W        W11265  18.076  28.229  12.756
40666W        W11266  15.641  36.098   1.838
40667W        W11267   5.274   2.503   3.087
40668W        W11268  32.349  17.271  14.027
40669W        W11269   0.859  29.465   2.415
40670W        W11270   3.463  41.825   2.677
40671W        W11271  34.500  44.420   0.248
40672W        W11272  28.069   0.211   0.815
40673W        W11273  33.797  43.834  12.487
40674W        W11274   0.126  22.688  12.357
40675W        W11275   6.042  25.305  12.456
40676W        W11276  42.989   0.063  13.719
40677W        W11277  44.259  18.313  12.575
40678W        W11278   2.260  10.905  13.012
40679W        W11279  24.252  17.417   0.368
40680W        W11280  20.888   7.624   1.385
40681W        W11281  31.400  20.665   3.227
40682W        W11282  18.839  43.826  13.401
40683W        W11283   7.727  23.582   2.506
40684W        W11284  36.614  33.178  10.641
40685W        W11285  13.540   0.749   1.288
40686W        W11286  23.452   1.475  11.501
40687W        W11287  15.319   2.006   1.445
40688W        W11288   0.798  24.617   4.206
40689W        W11289  40.001  36.001   9.803
40690W        W11290  37.554  33.982  11.441
40691W        W11291  34.214  34.399   3.707
40692W        W11292  19.353  18.683  13.052
40693W        W11293  28.728   2.659   4.470
40694W        W11294  15.027  16.788  13.381
40695W        W11295  30.661   4.370   3.182
40696W        W11296  26.987  42.365  10.683
40697W        W11297  27.135   7.838   4.510
40698W        W11298  12.248  15.248   4.150
40699W        W11299   2.775  23.491   3.655
40700W        W11300  29.690  34.070   0.414
40701W        W11301  20.272  37.927   3.242
40702W        W11302  19.262  17.671  11.946
40703W        W11303  37.421  20.100  12.334
40704W        W11304  40.847  21.025   2.637
40705W        W11305  23.001  31.476  12.405
40706W        W11306   1.733   2.733   4.593
40707W        W11307  21.236  27.258  10.872
40708W        W11308   5.170  12.793   1.784
40709W        W11309  32.386  19.079   1.856
40710W        W11310   9.795   1.981   0.371
40711W        W11311  16.090   9.775  13.768
40712W        W11312  12.347  12.599  11.218
40713W        W11313  43.492  19.194  12.562
40714W        W11314   1.812  40.044   2.395
40715W        W11315  21.426  43.338   1.161
40716W        W11316   5.703  15.804  14.075
40717W        W11317  37.460  15.099  13.696
40718W        W11318  13.750  41.793  12.086
40719W        W11319  40.544  43.427  14.703
40720W        W11320  38.052  34.847   1.271
40721W        W11321  27.471   3.014   3.353
40722W        W11322   4.253  37.141  12.881
40723W        W11323   0.911  33.462  12.580
40724W        W11324  14.738  20.658  11.130
40725W        W11325  15.407  44.485  10.986
40726W        W11326   4.664   5.175  12.483
40727W        W11327  42.814  13.445  11.652
40728W        W11328  29.080  31.379   0.387
40729W        W11329  43.347  10.787   0.584
40730W        W11330  11.143  38.867  13.487
40731W        W11331  34.558  21.925  14.267
40732W        W11332   5.179  18.615   1.307
40733W        W11333   2.310   5.876   2.937
40734W        W11334  30.688   7.272  12.373
40735W        W11335  14.022  25.793   3.292
40736W        W11336   1.423   3.033   3.319
40737W        W11337  37.665  27.515  14.517
40738W        W11338  11.743  40.847   0.044
40739W        W11339   3.260   9.088   3.239
40740W        W11340   3.500  32.211   0.214
40741W        W11341  10.723   3.523  13.419
40742W        W11342  40.970   9.544  12.181
40743W        W11343  44.927  42.766   1.305
40744W        W11344   6.560  43.829   3.210
40745W        W11345  26.133  11.701  14.327
40746W        W11346  33.475  10.202   1.742
40747W        W11347  34.080  17.362   0.813
40748W        W11348  15.412  41.788   3.963
40749W        W11349  13.257  34.439  13.134
40750W        W11350  27.661  43.540  11.154
40751W        W11351  33.156  44.438  11.948
40752W        W11352  17.351  17.108   2.299
40753W        W11353  20.431   7.962  12.056
40754W        W11354  23.031  22.739   2.914
40755W        W11355  27.136  44.334   3.785
40756W        W11356  36.035  28.477   2.225
40757W        W11357  27.490  28.689  10.533
40758W        W11358  31.149  28.693  12.775
40759W        W11359  19.497  17.208   5.043
40760W        W11360  28.759  21.820   0.885
40761W        W11361  19.793  36.696   1.742
40762W        W11362  26.084   5.477   3.260
40763W        W11363  32.536  23.998   2.679
40764W        W11364  42.467  37.764  13.959
40765W        W11365   4.777  24.672   0.838
40766W        W11366   3.494  31.916  10.867
40767W        W11367  44.832  40.655  12.153
40768W        W11368  13.603   4.942   4.268
40769W        W11369   6.385  13.655  13.454
40770W        W11370  39.962  14.507   1.840
40771W        W11371  18.899  39.080  13.196
40772W        W11372  31.035  27.474   2.826
40773W        W11373  12.703  20.560  12.832
40774W        W11374  22.008  25.592   1.808
40775W        W11375  29.989  12.691   4.673
40776W        W11376  34.361  16.995  14.836
40777W        W11377  35.280  13.272   3.270
40778W        W11378   0.234   6.919   1.861
40779W        W11379  14.847  17.750  13.473
40780W        W11380  21.469   5.990   4.895
40781W        W11381  21.682   8.409  11.625
40782W        W11382   5.766  28.937  11.388
40783W        W11383  14.353   7.736   0.962
40784W        W11384  11.823   7.673   3.841
40785W        W11385   6.786  18.118  11.585
40786W        W11386  14.494  10.785  10.911
40787W        W11387  14.207  21.385  14.749
40788W        W11388  15.909  16.201   2.724
40789W        W11389  25.722  31.470   1.200
40790W        W11390  23.015  19.530   0.492
40791W        W11391  17.467  13.336  11.955
40792W        W11392  43.349   8.974   4.635
40793W        W11393  33.905  33.429   3.779
40794W        W11394  20.288  20.104  14.117
40795W        W11395  39.872  21.585  14.564
40796W        W11396  15.064  26.896  12.813
40797W        W11397   7.778  17.931   3.889
40798W        W11398  21.654  21.245   1.184
40799W        W11399  10.472  32.529   3.005
40800W        W11400   8.786  32.953   1.910
40801W        W11401  17.719  24.216   0.502
40802W        W11402  39.858  44.705   0.953
40803W        W11403   1.820  22.547   2.277
40804W        W11404  16.509  30.980  12.136
40805W        W11405  10.639   5.769  14.045
40806W        W11406   2.226  37.485   1.664
40807W        W11407   2.049   5.956   4.670
40808W        W11408  28.416  34.458  10.689
40809W        W11409  33.472  25.803   5.096
40810W        W11410  14.612  30.806  13.426
40811W        W11411  26.438  15.362   0.033
40812W        W11412  12.667  15.605   3.360
40813W        W11413  16.162  23.246  12.865
40814W        W11414   4.059  33.977   2.392
40815W        W11415   1.849  36.017  12.611
40816W        W11416   0.022  11.751   0.436
40817W        W11417   4.450  25.711  13.743
40818W        W11418   9.448  32.691  12.955
40819W        W11419  36.953   5.288  10.634
40820W        W11420  42.561  25.920  11.465
40821W        W11421  23.677  18.202   1.914
40822W        W11422   0.119  30.414   2.674
40823W        W11423   5.522  11.267   2.727
40824W        W11424  22.170  34.352  13.409
40825W        W11425  26.999  23.561  14.258
40826W        W11426  20.623  34.477  10.792
40827W        W11427  29.579  43.735   1.733
40828W        W11428  41.781   6.478  12.540
40829W        W11429  18.671  17.623   0.959
40830W        W11430  36.486  21.000   2.121
40831W        W11431  19.612  19.310  10.953
40832W        W11432  40.511   1.011  10.468
40833W        W11433  30.350  12.296   3.218
40834W        W11434  34.927   1.299   5.124
40835W        W11435  39.291  24.912  13.024
40836W        W11436  44.366  17.177   0.972
40837W        W11437  12.093  30.155  12.559
40838W        W11438  28.689  35.597   4.150
40839W        W11439   6.918  17.521   1.872
40840W        W11440  38.331   5.426   3.337
40841W        W11441  41.849  21.386   4.035
40842W        W11442  21.614  40.941   0.732
40843W        W11443   7.880  17.454  12.334
40844W        W11444  21.288  40.932   4.859
40845W        W11445   5.408   9.056  14.773
40846W        W11446   9.246  44.877  12.305
40847W        W11447  36.308  41.991  11.594
40848W        W11448  34.446  34.389  11.481
40849W        W11449   4.614  12.886   4.224
40850W        W11450  15.532  25.568   0.833
40851W        W11451  33.905  40.013  13.487
40852W        W11452  35.557   3.685  12.860
40853W        W11453  35.410  29.352  12.743
40854W        W11454  30.103   8.402   3.576
40855W        W11455  30.120  19.069  11.542
40856W        W11456  22.944   0.044   2.734
40857W        W11457  20.227  33.675   0.409
40858W        W11458  14.595  28.371   0.390
40859W        W11459   3.801  36.898  12.858
40860W        W11460  42.379  18.363  14.913
40861W        W11461  37.091  18.325  11.195
40862W        W11462  30.436  20.719  12.374
40863W        W11463  20.695  18.508   1.937
40864W        W11464  37.350  33.162   0.716
40865W        W11465  40.421  14.261   3.080
40866W        W11466  13.532   7.405  11.992
40867W        W11467  13.789   8.606   2.434
40868W        W11468  24.999  31.064   4.843
40869W        W11469  35.213  42.404  11.735
40870W        W11470  39.498   4.966  14.314
40871W        W11471  44.504   7.620   5.184
40872W        W11472   9.260  21.061  14.566
40873W        W11473  22.749  22.851  13.497
40874W        W11474  28.203  22.501   0.978
40875W        W11475  39.921  44.373  12.556
40876W        W11476  40.590   8.534  10.409
40877W        W11477  36.576  31.135   4.810
40878W        W11478  31.425   5.698   2.805
40879W        W11479   9.011  34.706   1.131
40880W        W11480  23.080  12.887   2.732
40881W        W11481  20.820  17.080   3.710
40882W        W11482  44.566  24.154  10.706
40883W        W11483  39.972  17.308   1.231
40884W        W11484   1.219  29.222   3.654
40885W        W11485  25.210   8.512   3.596
40886W        W11486  23.082  11.626   4.115
40887W        W11487  17.870   0.861  11.029
40888W        W11488  43.926  17.526  13.096
40889W        W11489  12.850  14.331  13.269
40890W        W11490  20.773   9.176   2.250
40891W        W11491  26.976  14.864   2.355
40892W        W11492   2.710  40.038  13.304
40893W        W11493  22.559  35.492   4.360
40894W        W11494  36.466  12.315   4.912
40895W        W11495  22.010  39.016  14.887
40896W        W11496  12.577   3.550   5.072
40897W        W11497   0.220  24.773  12.640
40898W        W11498  27.747  24.159   3.711
40899W        W11499  22.788  37.452   2.258
40900W        W11500   6.891  41.801  14.985
40901W        W11501   5.303  27.873   0.632
40902W        W11502  29.296  44.670  13.525
40903W        W11503  21.467  42.285  13.418
40904W        W11504  15.641  20.798   0.789
40905W        W11505  15.712  38.861   3.597
40906W        W11506   6.289  31.659   2.887
40907W        W11507   5.573   5.805   4.970
40908W        W11508  12.679  44.682   2.297
40909W        W11509  40.553  18.989  14.862
40910W        W11510  30.898  25.541  13.383
40911W        W11511  16.715  19.155  12.671
40912W        W11512  31.377  10.638  14.393
40913W        W11513  15.698  20.043   4.705
40914W        W11514  37.480   7.861  13.528
40915W        W11515  24.570  36.940  10.605
40916W        W11516  40.859  24.508  14.987
40917W        W11517  22.342  24.771   1.737
40918W        W11518   4.738  27.568   4.586
40919W        W11519  10.109  16.314  11.618
40920W        W11520   5.418  41.357   2.147
40921W        W11521  42.015  27.305   0.699
40922W        W11522   3.153   5.807  11.034
40923W        W11523   3.504  24.042  11.151
40924W        W11524  28.650  33.263  14.826
40925W        W11525  27.916  38.433   1.073
40926W        W11526  28.410  27.467  13.981
40927W        W11527  12.537  40.158   4.552
40928W        W11528  42.207  30.589  13.112
40929W        W11529   3.783   6.283   3.479
40930W        W11530   4.006  18.250   1.708
40931W        W11531  13.591   8.768   1.652
40932W        W11532   6.630  40.159  13.486
40933W        W11533  19.067  25.651  12.923
40934W        W11534  11.101   8.135  11.004
40935W        W11535  34.731  38.972   1.483
40936W        W11536  31.496   6.807   4.935
40937W        W11537  24.220   5.955  12.012
40938W        W11538  29.058  25.506  14.503
40939W        W11539  32.436   1.517   1.428
40940W        W11540  43.278  19.171  11.252
40941W        W11541  12.830  11.047  10.607
40942W        W11542   7.118   6.376  13.316
40943W        W11543  15.864  33.165   1.573
40944W        W11544  38.018  42.343   1.271
40945W        W11545  44.398  41.021  12.889
40946W        W11546  44.738  41.366   2.768
40947W        W11547  12.850   5.575   1.191
40948W        W11548  44.776  12.742  10.619
40949W        W11549   9.555  12.373   3.441
40950W        W11550  20.958  21.493  12.489
40951W        W11551   1.696   4.089   3.379
40952W        W11552  11.831  23.656  14.920
40953W        W11553  33.670  16.631   0.140
40954W        W11554  21.206  10.216  12.956
40955W        W11555   1.311   0.068  13.761
40956W        W11556  24.697   0.966  11.631
40957W        W11557  21.943  33.394   3.601
40958W        W11558  24.180  34.297  13.954
40959W        W11559  13.017  23.062  11.283
40960W        W11560   9.136  10.283  13.462
40961W        W11561  22.947   1.364  11.563
40962W        W11562  37.301  37.559   0.804
40963W        W11563  40.281  31.524  11.497
40964W        W11564  23.763   2.948  13.361
40965W        W11565  29.754  20.475   4.537
40966W        W11566  26.701   6.731  12.029
40967W        W11567   6.801  21.290  10.792
40968W        W11568  35.842  35.580   4.170
40969W        W11569   8.657  43.779  13.857
40970W        W11570  44.314   4.746   1.393
40971W        W11571  26.851  29.045   3.149
40972W        W11572  14.224  11.227   4.659
40973W        W11573  13.573  44.432   4.626
40974W        W11574  26.940  29.620   3.257
40975W        W11575  34.891  21.937   0.433
40976W        W11576  27.135  34.084   1.310
40977W        W11577  33.841  44.874   2.247
40978W        W11578  39.532  14.688  11.687
40979W        W11579  32.966  21.592   0.344
40980W        W11580   4.687  31.324   1.739
40981W        W11581   4.560  32.815  13.841
40982W        W11582   6.200  39.164   4.895
40983W        W11583  17.387  11.202   1.025
40984W        W11584  37.009  12.599   2.336
40985W        W11585  20.133   9.918   4.382
40986W        W11586  18.335  12.348  12.792
40987W        W11587   9.937  43.462  13.562
40988W        W11588   1.991  42.281  10.469
40989W        W11589  11.645  28.575  13.980
40990W        W11590  28.732  20.739   4.717
40991W        W11591  43.399  38.851  13.832
40992W        W11592  30.483  16.599  11.233
40993W        W11593  34.011  33.793   4.152
40994W        W11594  39.513  15.740   1.434
40995W        W11595  22.027  24.377  14.374
40996W        W11596  14.779  19.108  11.733
40997W        W11597  17.128   7.844  11.062
40998W        W11598  13.757  33.617   4.645
40999W        W11599   8.691  15.486  12.175
41000W        W11600   4.452  41.557  10.183
41001W        W11601   6.664  12.590  10.765
41002W        W11602  18.519  24.107   0.906
41003W        W11603   7.414  42.194   0.433
41004W        W11604  23.098  12.097  13.413
41005W        W11605  24.588  42.022  13.351
41006W        W11606  36.834  22.324   4.213
41007W        W11607  30.383  17.269  12.816
41008W        W11608  21.440  40.383   1.732
41009W        W11609  31.362  16.847   0.800
41010W        W11610   1.355  17.767   3.637
41011W        W11611  36.913  42.822   0.478
41012W        W11612  23.068  23.213  11.167
41013W        W11613  20.761  12.822  11.918
41014W        W11614  24.480   0.209  11.470
41015W        W11615  27.712  27.002  14.975
41016W        W11616  10.845   8.907   1.796
41017W        W11617  27.086   1.270   4.414
41018W        W11618  23.821  26.659   2.230
41019W        W11619  39.939   0.691   3.677
41020W        W11620  25.223  18.183  13.872
41021W        W11621  22.276  21.767   3.938
41022W        W11622   7.304  43.393   2.958
41023W        W11623   0.345   2.201  13.376
41024W        W11624  16.007  39.440   2.262
41025W        W11625  18.115   6.253   2.394
41026W        W11626   0.070   8.611  14.352
41027W        W11627  42.800  28.035   0.455
41028W        W11628   1.997  22.771  14.555
41029W        W11629  29.596   1.811   0.960
41030W        W11630  11.187  42.956   3.856
41031W        W11631  23.551  30.460   4.540
41032W        W11632  34.522  18.936  13.286
41033W        W11633  40.029  12.563  12.021
41034W        W11634   0.959  44.268   1.354
41035W        W11635  32.883  23.495   3.323
41036W        W11636  15.081   0.048   4.013
41037W        W11637  25.284   0.525   4.978
41038W        W11638  35.457  39.117  11.519
41039W        W11639  36.101  36.931   2.817
41040W        W11640  35.394  11.740  14.421
41041W        W11641  41.106  18.285  13.917
41042W        W11642  37.383  36.737  13.448
41043W        W11643  22.261  38.746   2.362
41044W        W11644  11.741   4.300   1.291
41045W        W11645  33.732  26.535  12.024
41046W        W11646  42.101  13.300   0.594
41047W        W11647  26.475  25.744  10.852
41048W        W11648   8.174  25.304  14.029
41049W        W11649   5.412   4.224  12.489
41050W        W11650  30.431   3.661  12.340
41051W        W11651  33.291  39.177  11.203
41052W        W11652  13.732  18.781  11.714
41053W        W11653  23.334   7.835  14.830
41054W        W11654  25.017   1.338  11.405
41055W        W11655  34.333  26.656  14.939
41056W        W11656  43.587  10.432   2.450
41057W        W11657   7.725  38.143   3.170
41058W        W11658  20.104   7.459   4.261
41059W        W11659  30.022   6.861   4.832
41060W        W11660  14.976   6.116  14.466
41061W        W11661  24.918  31.382  12.878
41062W        W11662  15.584  26.119   3.766
41063W        W11663  41.546   6.943   5.106
41064W        W11664  36.892  38.342  11.037
41065W        W11665  22.576  15.728   2.799
41066W        W11666  13.159   7.924   1.064
41067W        W11667   1.114  14.199   2.313
41068W        W11668  24.731  12.779  11.837
41069W        W11669  25.085  26.980   0.375
41070W        W11670  43.274  22.556   2.163
41071W        W11671  27.888  13.574   1.640
41072W        W11672  23.516  10.658  12.609
41073W        W11673   3.684   1.558   1.707
41074W        W11674  36.988  22.656  14.438
41075W        W11675  22.987  42.286   1.778
41076W        W11676  25.167  42.810   4.269
41077W        W11677  14.067  37.419   0.512
41078W        W11678  24.520  41.796  10.487
41079W        W11679  32.162  13.246   0.235
41080W        W11680  34.109  15.085  10.806
41081W        W11681  11.480   1.841   3.349
41082W        W11682  21.318  21.182   2.241
41083W        W11683   8.835  22.274   4.526
41084W        W11684  11.092  38.532   2.952
41085W        W11685   9.637   7.410   1.368
41086W        W11686  34.141   0.021  11.109
41087W        W11687  16.837  37.422   2.878
41088W        W11688  17.304   3.739   9.671
41089W        W11689  40.499  37.999   0.432
41090W        W11690  10.863  38.276  14.902
41091W        W11691  27.503  35.558   1.505
41092W        W11692  39.689  33.997  14.546
41093W        W11693  44.983  41.830   2.729
41094W        W11694  34.442   9.236   4.376
41095W        W11695  17.660  10.198  10.441
41096W        W11696   5.500  28.393  13.458
41097W        W11697  17.979  11.747   0.228
41098W        W11698  36.069  31.202   1.889
41099W        W11699  31.358   5.543  11.629
41100W        W11700   9.131  42.481  13.358
41101W        W11701  35.120  31.092  13.365
41102W        W11702  13.115  34.774  13.499
41103W        W11703  43.552  27.974  13.581
41104W        W11704  23.162   5.895  11.625
41105W        W11705   9.643  29.348   3.375
41106W        W11706  15.399   4.366   4.454
41107W        W11707  23.949  11.358   0.818
41108W        W11708  44.893   4.775  13.576
41109W        W11709   6.809   5.925   3.162
41110W        W11710  33.193   8.332   1.273
41111W        W11711  17.455  37.804  12.461
41112W        W11712  33.482  13.635  13.117
41113W        W11713  21.778  37.503   2.026
41114W        W11714  37.928   1.136   0.933
41115W        W11715  44.337  28.959   4.552
41116W        W11716   0.987  36.657  14.816
41117W        W11717  18.415  38.948   2.254
41118W        W11718  27.658  33.457  14.980
41119W        W11719   2.422   9.201   2.175
41120W        W11720  33.003  22.962  10.762
41121W        W11721  33.269  43.821  12.536
41122W        W11722  14.253   5.960   4.824
41123W        W11723   5.697  34.974  11.710
41124W        W11724  41.967  22.016  14.579
41125W        W11725  23.986   3.760   4.183
41126W        W11726  30.092  30.700  13.426
41127W        W11727   4.233   6.007   2.208
41128W        W11728  19.246  14.712   0.397
41129W        W11729  42.708   2.307  12.130
41130W        W11730  44.209  15.877   1.028
41131W        W11731  24.610  20.741   4.041
41132W        W11732  15.829   2.476  14.784
41133W        W11733  13.718  35.044  12.655
41134W        W11734  23.102  30.733   1.656
41135W        W11735  26.109   5.412   1.227
41136W        W11736  29.191  21.248  13.587
41137W        W11737  32.347  33.825  10.925
41138W        W11738  41.822  17.072   3.786
41139W        W11739  39.602   7.407  12.057
41140W        W11740  34.308  39.407   5.111
41141W        W11741  20.541  17.089  14.408
41142W        W11742  36.494  30.489   2.135
41143W        W11743  18.680  37.664  11.216
41144W        W11744  35.059  22.513  13.795
41145W        W11745  38.596  28.206   4.626
41146W        W11746  10.813   4.144  14.232
41147W        W11747  29.956  32.949   0.331
41148W        W11748  42.873  11.336   4.520
41149W        W11749  15.351  38.195   4.266
41150W        W11750   7.378   8.129  14.837
41151W        W11751  35.433   7.427  13.882
41152W        W11752  18.376  27.471  12.535
41153W        W11753  34.009  33.382  12.761
41154W        W11754   0.478  38.769   1.323
41155W        W11755  33.040   7.950  12.973
41156W        W11756  41.825  31.115  12.476
41157W        W11757   2.717   1.450  12.385
41158W        W11758  29.008   2.813   2.309
41159W        W11759  41.839  36.558   3.183
41160W        W11760  44.458  25.615  13.750
41161W        W11761  21.281   7.760  13.794
41162W        W11762  19.576   7.294   1.242
41163W        W11763  20.024  24.172   1.032
41164W        W11764  37.774  25.046   1.783
41165W        W11765   0.019  40.438   0.384
41166W        W11766  14.832  19.147  10.743
41167W        W11767  34.129   8.586  13.751
41168W        W11768  11.218   4.254  11.576
41169W        W11769  16.978  31.130  13.596
41170W        W11770   0.784  35.116   3.708
41171W        W11771  20.641  34.372   4.577
41172W        W11772  44.538  31.485   4.789
41173W        W11773  13.644  12.665   1.005
41174W        W11774  23.014  24.028   0.756
41175W        W11775  16.166  43.036  11.351
41176W        W11776  13.383  15.372  10.899
41177W        W11777  17.456   4.028   1.351
41178W        W11778  38.036  34.399   4.911
41179W        W11779  38.482  16.065  11.478
41180W        W11780  27.934  31.513  13.377
41181W        W11781  22.763   2.993   2.021
41182W        W11782  19.722  15.669   3.699
41183W        W11783  15.902  26.142  13.499
41184W        W11784  24.821  16.184  12.540
41185W        W11785   9.968  16.799   2.039
41186W        W11786  28.045  15.045  13.145
41187W        W11787  44.028   6.912  10.654
41188W        W11788  19.737  15.127  13.087
41189W        W11789  28.888  21.714  12.555
41190W        W11790  12.318  16.342   0.820
41191W        W11791   9.185  29.702   1.972
41192W        W11792   9.778   6.390   2.233
41193W        W11793  27.697  12.362   3.211
41194W        W11794  29.239  33.833  13.997
41195W        W11795  39.079  26.657  10.445
41196W        W11796   1.109   5.370   0.245
41197W        W11797   9.428  37.465   4.611
41198W        W11798  38.944   9.798  11.088
41199W        W11799  32.928   0.774   0.727
41200W        W11800  15.681  20.993   0.278
41201W        W11801  15.319  12.772   3.747
41202W        W11802  18.281  21.684  11.698
41203W        W11803  30.793  38.735  10.237
41204W        W11804  19.161   2.707  10.677
41205W        W11805   9.312  44.665  11.318
41206W        W11806  23.291  35.323   0.381
41207W        W11807  17.957  17.970   3.225
41208W        W11808  27.071  29.384  12.490
41209W        W11809   1.566  10.179  11.641
41210W        W11810  26.620  15.561   1.932
41211W        W11811  25.613   8.180   4.614
41212W        W11812  25.216   6.939  11.936
41213W        W11813  18.958  14.509   0.001
41214W        W11814   0.569  31.923  11.084
41215W        W11815  44.911  32.381  11.980
41216W        W11816  17.720  15.183   2.228
41217W        W11817   8.323   3.640   4.644
41218W        W11818  39.040   7.465   2.833
41219W        W11819   6.336  40.001   3.252
41220W        W11820  23.055  37.210   3.211
41221W        W11821  36.544  41.414   4.915
41222W        W11822   0.794  32.963   1.993
41223W        W11823   5.314  40.821  14.750
41224W        W11824  14.314  11.270   3.309
41225W        W11825  21.089  20.305  12.016
41226W        W11826  25.202  12.419  13.965
41227W        W11827  36.325  10.245  11.446
41228W        W11828  24.483  33.662  11.237
41229W        W11829  39.462  26.788  10.809
41230W        W11830  10.931  12.806  12.621
41231W        W11831   8.393  36.042  11.852
41232W        W11832   8.376  20.564  11.492
41233W        W11833  35.420  43.564   0.936
41234W        W11834  27.681  25.075  12.024
41235W        W11835   9.454  38.801   3.079
41236W        W11836  36.838  38.485   1.081
41237W        W11837   2.425  31.026   1.761
41238W        W11838  39.293   6.826   0.482
41239W        W11839  28.626  12.077   3.839
41240W        W11840   4.163  13.102   4.394
41241W        W11841  22.599  38.509   4.515
41242W        W11842  36.591  38.799  13.079
41243W        W11843  31.453   3.889   3.318
41244W        W11844  27.889   8.982  14.358
41245W        W11845  16.050   6.370   3.239
41246W        W11846  24.241  34.911  13.350
41247W        W11847   2.163  17.078   3.738
41248W        W11848  24.767  23.433  12.089
41249W        W11849   1.724  24.137   3.595
41250W        W11850   2.947  40.365   0.695
41251W        W11851  12.664  43.897   0.957
41252W        W11852  30.123  15.959   3.057
41253W        W11853  38.143  23.154   3.364
41254W        W11854   3.413  39.480  13.475
41255W        W11855  15.674  30.148  12.367
41256W        W11856  12.135  15.423   3.680
41257W        W11857  22.749   9.396  12.565
41258W        W11858  23.923  18.817   5.057
41259W        W11859  37.660  36.836  13.923
41260W        W11860  41.925  34.095   1.755
41261W        W11861  39.450  12.231  10.733
41262W        W11862  36.102  35.691   0.850
41263W        W11863  44.051  21.247  14.517
41264W        W11864  39.953  31.702  11.154
41265W        W11865  35.511   6.444   3.372
41266W        W11866  18.608  12.272  14.620
41267W        W11867  42.045   8.454   0.195
41268W        W11868  39.821  20.160  13.822
41269W        W11869  11.710  37.973   2.932
41270W        W11870   3.790   1.882   3.723
41271W        W11871  37.963  24.186   2.744
41272W        W11872  26.426  12.328   0.768
41273W        W11873  30.582  34.949  14.179
41274W        W11874  12.221  29.000  14.549
41275W        W11875   3.838  43.267  11.712
41276W        W11876  42.308   6.771  13.378
41277W        W11877  34.466  33.457  10.933
41278W        W11878  30.566  22.600   0.864
41279W        W11879  28.107  31.479   3.121
41280W        W11880  33.105  22.258   3.632
41281W        W11881   3.773  15.327  12.051
41282W        W11882   2.747  39.775   2.331
41283W        W11883  36.952   1.485   3.639
41284W        W11884  35.015  26.122   0.443
41285W        W11885  11.584  22.710   1.937
41286W        W11886  26.228  12.236   1.253
41287W        W11887  38.475   8.306   1.910
41288W        W11888  44.987  26.540  12.202
41289W        W11889  27.484  41.766   4.667
41290W        W11890  21.321  35.078  11.363
41291W        W11891  44.181  30.471  14.564
41292W        W11892  41.545  38.097   0.456
41293W        W11893   3.793  37.391   3.444
41294W        W11894   5.741   7.704  11.460
41295W        W11895  16.835  22.120  11.107
41296W        W11896  27.918  25.181  14.006
41297W        W11897   0.711  10.245   0.220
41298W        W11898  36.564   6.145  11.286
41299W        W11899   3.983  29.631   0.935
41300W        W11900   6.444  21.844   0.865
41301W        W11901  35.543   2.637  14.967
41302W        W11902  42.732   1.326  13.048
41303W        W11903  32.919  19.284  13.049
41304W        W11904  31.093  12.645   2.882
41305W        W11905  25.847  32.174  14.403
41306W        W11906  29.917  19.832   1.293
41307W        W11907  19.215   7.822   0.320
41308W        W11908  34.548  17.265   3.691
41309W        W11909  14.042  31.277   5.021
41310W        W11910  27.396   5.624  13.604
41311W        W11911  37.038  12.900   4.427
41312W        W11912  20.057  27.196  14.892
41313W        W11913   4.623  41.950   0.351
41314W        W11914  42.608  16.729   2.907
41315W        W11915  17.191  16.461   3.927
41316W        W11916   0.730  25.205   2.764
41317W        W11917  24.546  14.367  14.449
41318W        W11918   6.967  21.572   0.060
41319W        W11919  40.868  34.615  11.738
41320W        W11920   7.317  16.557   1.213
41321W        W11921  38.571  29.602  14.888
41322W        W11922   3.151   9.876   2.922
41323W        W11923  24.599  31.964   2.770
41324W        W11924  12.456  17.837   4.173
41325W        W11925   3.138  26.973   4.792
41326W        W11926  10.744   7.399   2.365
41327W        W11927  36.900  22.834   4.083
41328W        W11928   6.784  25.898  13.401
41329W        W11929  22.447  31.874   1.135
41330W        W11930  33.056  13.896   5.020
41331W        W11931  40.257  20.632   2.890
41332W        W11932  44.725  38.767   4.579
41333W        W11933  20.348  20.073   0.755
41334W        W11934   9.253  39.931  14.027
41335W        W11935  25.181  40.587  14.469
41336W        W11936  13.047  15.696  12.384
41337W        W11937   1.700  19.197   1.821
41338W        W11938  13.900  14.504  11.863
41339W        W11939  14.206  21.817  11.994
41340W        W11940  27.083  24.016   1.683
41341W        W11941  21.259   1.188  13.505
41342W        W11942   0.777   4.466  14.049
41343W        W11943   4.170   0.369  10.633
41344W        W11944   3.648   4.586  14.188
41345W        W11945   8.859  41.953   2.592
41346W        W11946  31.071  16.249   4.592
41347W        W11947  39.858  15.810   0.450
41348W        W11948  37.932  20.958  10.352
41349W        W11949  42.984  33.964   2.637
41350W        W11950   0.130  38.621  13.568
41351W        W11951  42.468  33.510  13.286
41352W        W11952   1.311  25.420  11.997
41353W        W11953  24.458  10.533   4.111
41354W        W11954  43.475  12.306  13.816
41355W        W11955   6.108  12.388  10.111
41356W        W11956  30.654   0.127  11.488
41357W        W11957  30.914  25.614   4.673
41358W        W11958  35.043  10.821   2.166
41359W        W11959   2.918  20.600  10.925
41360W        W11960  18.492   5.293   3.746
41361W        W11961  17.909  39.283   2.950
41362W        W11962  10.070  13.217  14.014
41363W        W11963  19.007  28.637   3.562
41364W        W11964  38.808   4.718  11.722
41365W        W11965  10.348  10.277  11.396
41366W        W11966   1.767  33.001   5.279
41367W        W11967   2.871   9.306  10.459
41368W        W11968  37.847  21.083   4.691
41369W        W11969  17.751  35.388  12.677
41370W        W11970  25.086  42.477   3.005
41371W        W11971   5.236  19.189   3.801
41372W        W11972  28.204  30.633  11.603
41373W        W11973  24.426  23.019  12.001
41374W        W11974  22.034  28.032  10.783
41375W        W11975  36.433   0.689   1.048
41376W        W11976  30.911  22.135   3.513
41377W        W11977   7.483  39.058   0.918
41378W        W11978  42.706  37.957   2.714
41379W        W11979  27.709  34.505   4.086
41380W        W11980   7.804  34.789  13.977
41381W        W11981  23.288  42.343   3.117
41382W        W11982   6.983  22.248   4.952
41383W        W11983  19.206  14.818   1.840
41384W        W11984  24.429  18.728  14.074
41385W        W11985  15.135   3.468  12.896
41386W        W11986  24.518  10.584   0.475
41387W        W11987   5.097  28.300  11.534
41388W        W11988  14.505  32.716   2.673
41389W        W11989  20.253  42.174  14.846
41390W        W11990  10.119  13.634   4.176
41391W        W11991   4.926  30.407  14.808
41392W        W11992  37.016  33.150   1.538
41393W        W11993  41.683  43.486   3.806
41394W        W11994  15.036  11.228   0.454
41395W        W11995   8.631  16.930  12.534
41396W        W11996  14.170  16.746   3.796
41397W        W11997  41.835  26.176  10.994
41398W        W11998  15.640  27.428   2.963
41399W        W11999  26.715   1.810   1.353
41400W        W12000   5.914  17.242  12.032
41401W        W12001   3.723   9.186   0.766
41402W        W12002   2.860  22.499  13.882
41403W        W12003  35.919  16.757  13.309
41404W        W12004   4.425  20.987   2.123
41405W        W12005  17.666  42.961   5.035
41406W        W12006  24.322  27.992   2.984
41407W        W12007  16.574  31.464  11.940
41408W        W12008  26.126  29.609   2.779
41409W        W12009  34.683  12.662  13.731
41410W        W12010   3.449  26.576   4.574
41411W        W12011  42.473  16.836   0.431
41412W        W12012   0.656  19.243  11.602
41413W        W12013  18.239   7.073   0.896
41414W        W12014  24.791   6.042  12.396
41415W        W12015   3.892  36.924   4.141
41416W        W12016  14.645  17.452  13.848
41417W        W12017  44.242  35.941   4.521
41418W        W12018  34.141  34.309  13.922
41419W        W12019  20.622  27.699   4.149
41420W        W12020  10.345  18.286   1.950
41421W        W12021  28.695  24.432   2.013
41422W        W12022  27.441  30.567  12.131
41423W        W12023  12.761  32.531   2.902
41424W        W12024   8.098  18.297   4.100
41425W        W12025   1.834  27.715  10.683
41426W        W12026  25.899  22.499   2.836
41427W        W12027  35.098  29.223   1.372
41428W        W12028  43.335  42.260   2.177
41429W        W12029  35.520  35.948   4.042
41430W        W12030  10.095  13.752   4.679
41431W        W12031  33.934   2.257   4.870
41432W        W12032  42.316  18.660  11.898
41433W        W12033  27.462   7.048   4.572
41434W        W12034  35.607  11.239  10.747
41435W        W12035  25.140  33.535   2.533
41436W        W12036  23.082  33.412   0.198
41437W        W12037  16.625  14.847  14.342
41438W        W12038  33.682  27.112   3.015
41439W        W12039   0.384   4.877   0.244
41440W        W12040  18.110  42.955   3.984
41441W        W12041  41.059  24.143   1.711
41442W        W12042   9.678   1.922  13.356
41443W        W12043   3.750  35.607  14.765
41444W        W12044  25.105   0.332  12.577
41445W        W12045  21.532  33.496   0.022
41446W        W12046  19.108  33.881  14.332
41447W        W12047  38.732   5.195  13.486
41448W        W12048   3.261  29.421  13.354
41449W        W12049  26.552   1.519   2.259
41450W        W12050  18.093  25.225   1.437
41451W        W12051  43.311  20.146   2.336
41452W        W12052  27.525  41.544   2.598
41453W        W12053  32.350  22.182   4.709
41454W        W12054  37.592  15.710   3.542
41455W        W12055  20.336  44.874   1.919
41456W        W12056   2.874  27.186  14.927
41457W        W12057   5.058  23.306  14.175
41458W        W12058  19.314  30.349   0.362
41459W        W12059  27.173  28.407   1.399
41460W        W12060  32.964  34.436  11.087
41461W        W12061   8.770  42.413   3.438
41462W        W12062   8.399  10.759  13.295
41463W        W12063   4.500  32.945   1.653
41464W        W12064  30.052   4.046  11.424
41465W        W12065  25.082  43.377  13.874
41466W        W12066   1.386  40.761   2.349
41467W        W12067  14.750  27.063   1.998
41468W        W12068   0.393  17.852   4.035
41469W        W12069  29.989  36.095  14.300
41470W        W12070   5.466  28.542   0.867
41471W        W12071  35.161  31.380  12.090
41472W        W12072  29.908  38.765   4.990
41473W        W12073  37.883  28.440   1.698
41474W        W12074   7.901  10.098   1.329
41475W        W12075   8.736   8.257   4.156
41476W        W12076  41.053  36.690  11.162
41477W        W12077  34.098  11.534  13.522
41478W        W12078  40.923  24.024   0.759
41479W        W12079  14.077  18.278   2.790
41480W        W12080  27.421  44.687   0.786
41481W        W12081   2.690  17.742  11.565
41482W        W12082  21.898  44.878   1.452
41483W        W12083   0.914  40.935  14.697
41484W        W12084  34.649  43.457  14.796
41485W        W12085   5.383  12.092   1.237
41486W        W12086  18.040  33.566   5.032
41487W        W12087  37.893  33.066  13.487
41488W        W12088  34.867  19.681  12.233
41489W        W12089  17.752  18.184   0.351
41490W        W12090   4.230   9.660  13.001
41491W        W12091  35.505   9.769   1.054
41492W        W12092  15.564   3.001  11.576
41493W        W12093  28.047  30.939   3.108
41494W        W12094   3.870  11.847  12.111
41495W        W12095  38.066  33.059   3.222
41496W        W12096   3.133  39.094   4.435
41497W        W12097  13.849  35.465   3.352
41498W        W12098  25.450  34.536  13.548
41499W        W12099  14.179  38.405   0.818
41500W        W12100  19.008   5.055   0.350
41501W        W12101  13.632  38.702  13.170
41502W        W12102  44.635  14.134  13.989
41503W        W12103  21.263  39.905  13.395
41504W        W12104   8.664  32.460   0.264
41505W        W12105  24.618  11.365  12.042
41506W        W12106  25.002  14.676  13.877
41507W        W12107  19.644  35.314  13.071
41508W        W12108  16.594  43.457  12.194
41509W        W12109  35.132   8.100   2.294
41510W        W12110   3.994  20.191  14.997
41511W        W12111  43.752  12.914  11.510
41512W        W12112   2.729  33.532  14.925
41513W        W12113  37.616  18.289  11.556
41514W        W12114   3.977   7.873  12.461
41515W        W12115  31.502  24.314   1.216
41516W        W12116   4.930   8.026  12.489
41517W        W12117  28.702  39.525  13.500
41518W        W12118  31.998  32.946   0.286
41519W        W12119  39.037  40.985  11.174
41520W        W12120  44.265  26.950   0.337
41521W        W12121  20.589  20.668   3.129
41522W        W12122  36.023  36.969   1.828
41523W        W12123  20.489  28.896  12.871
41524W        W12124  23.980  34.430   4.101
41525W        W12125   4.664  36.012   3.662
41526W        W12126  20.292  10.193   2.831
41527W        W12127  16.572   6.314   4.136
41528W        W12128  26.221  26.117   0.865
41529W        W12129  41.307  22.740   3.635
41530W        W12130  17.247   1.745  13.078
41531W        W12131  43.393   5.751  10.551
41532W        W12132  39.470   8.172  11.543
41533W        W12133  18.638  14.378  11.240
41534W        W12134  40.869  37.919   4.139
41535W        W12135  35.365  31.609  11.622
41536W        W12136  19.948  35.751  11.541
41537W        W12137  27.147  35.698   2.759
41538W        W12138  41.776  15.243   1.329
41539W        W12139   6.382   7.399  10.970
41540W        W12140  36.171  15.259   4.208
41541W        W12141  40.290   0.722  13.344
41542W        W12142  32.965  11.904   2.667
41543W        W12143  30.061  14.229  11.000
41544W        W12144  26.776  20.506  13.500
41545W        W12145  44.246  13.141  11.410
41546W        W12146   1.793  20.488  12.780
41547W        W12147  39.112  15.501  13.452
41548W        W12148  20.147  37.656   1.006
41549W        W12149   9.234  39.393   1.804
41550W        W12150  41.437   1.784   3.363
41551W        W12151   8.752  41.426  14.281
41552W        W12152  21.216  22.441   1.016
41553W        W12153  34.444  31.589   1.228
41554W        W12154  17.200  17.594   4.699
41555W        W12155  11.175  36.344   1.381
41556W        W12156  11.899  17.170  13.891
41557W        W12157  31.426  40.245   3.296
41558W        W12158  39.309   7.256  11.053
41559W        W12159  34.649  28.921  12.420
41560W        W12160  28.180   0.300   4.613
41561W        W12161  42.757  21.417   0.274
41562W        W12162   8.691  26.719   4.173
41563W        W12163  39.908   4.400  13.076
41564W        W12164  32.531  36.013  14.557
41565W        W12165  33.953  32.903  12.468
41566W        W12166   7.608  21.553  12.107
41567W        W12167  22.954   1.498   0.277
41568W        W12168  40.833  22.521   0.439
41569W        W12169  39.891  33.006  13.150
41570W        W12170  13.703  31.962   0.521
41571W        W12171   5.360  15.814  11.163
41572W        W12172  17.307   9.789  12.854
41573W        W12173  41.304  10.583   2.139
41574W        W12174  21.430   9.714  14.455
41575W        W12175  18.082   3.101   3.300
41576W        W12176  36.173  40.930  14.615
41577W        W12177  26.663   2.057  11.603
41578W        W12178  43.241  16.623  11.627
41579W        W12179   3.125  14.081   0.018
41580W        W12180  21.001  35.880   0.234
41581W        W12181  10.125  29.193  10.156
41582W        W12182  19.567  44.941  11.062
41583W        W12183  39.148  21.748  13.489
41584W        W12184  21.257  30.501  11.389
41585W        W12185  44.718  15.761   1.876
41586W        W12186  21.073  33.039   4.546
41587W        W12187  42.341  43.209  14.843
41588W        W12188   2.995  28.687   0.985
41589W        W12189  20.820  39.088  11.139
41590W        W12190  42.508  10.738   2.906
41591W        W12191  39.819  17.140  12.371
41592W        W12192   6.211  39.832  11.598
41593W        W12193  24.675  21.065   1.264
41594W        W12194  31.141   0.862   0.481
41595W        W12195   3.179   3.739  11.152
41596W        W12196  39.118  32.876   2.165
41597W        W12197   4.786  10.014  13.990
41598W        W12198   1.012  31.095  14.991
41599W        W12199  14.970  12.207   0.319
41600W        W12200   6.254  30.395  12.371
41601W        W12201  24.364  17.526  10.999
41602W        W12202  14.678  25.091  12.001
41603W        W12203  40.014  12.821   2.453
41604W        W12204  13.333   0.476   1.999
41605W        W12205  16.833  22.995   2.599
41606W        W12206  35.127  37.843   0.390
41607W        W12207  10.917   5.493   0.866
41608W        W12208  29.958   4.804  10.801
41609W        W12209   3.204   7.336  12.111
41610W        W12210  32.503  23.685   4.644
41611W        W12211  13.591  24.566   1.011
41612W        W12212  11.315  20.048  13.478
41613W        W12213   8.443  36.573  14.312
41614W        W12214  44.739   7.582  10.598
41615W        W12215  25.214  32.970  13.179
41616W        W12216  35.085  42.029   1.335
41617W        W12217   6.728   8.845  11.984
41618W        W12218   8.420  43.303   4.892
41619W        W12219   2.243   3.905   1.484
41620W        W12220  30.984  33.530   1.439
41621W        W12221  36.529  18.499  11.093
41622W        W12222  23.973  43.334   3.660
41623W        W12223  23.250  39.335  13.135
41624W        W12224  43.500  39.361  13.443
41625W        W12225  26.219  15.376  13.747
41626W        W12226  30.353  35.128   2.759
41627W        W12227   0.910  37.539  11.703
41628W        W12228  15.610  44.298   1.235
41629W        W12229   2.248  44.528  11.222
41630W        W12230  32.753  25.915   1.889
41631W        W12231   5.747  14.211   3.630
41632W        W12232  26.005  17.737   4.611
41633W        W12233  26.388  44.112   9.865
41634W        W12234   4.798   9.085  10.256
41635W        W12235  40.755  44.820  12.514
41636W        W12236   4.828  40.824  14.572
41637W        W12237   2.342  42.262  11.209
41638W        W12238  10.862   1.829  11.659
41639W        W12239  33.797  10.097   5.067
41640W        W12240   6.923  40.068   1.202
41641W        W12241   0.313   4.044   2.436
41642W        W12242  44.910   6.468  11.939
41643W        W12243  23.867  31.788   3.309
41644W        W12244  26.249  33.117  14.939
41645W        W12245  33.697   8.303  13.828
41646W        W12246   0.372  26.177  14.776
41647W        W12247  21.293  12.838  11.507
41648W        W12248  12.617  38.416  14.749
41649W        W12249  43.941  40.914   3.290
41650W        W12250   7.117  15.725  10.701
41651W        W12251   7.877  23.305   2.928
41652W        W12252   0.355  29.444  12.244
41653W        W12253  41.251  32.341  11.541
41654W        W12254  42.381  25.160  13.013
41655W        W12255  40.326  38.133   2.860
41656W        W12256  18.463  29.482  13.854
41657W        W12257   7.779  24.744   4.205
41658W        W12258  22.174  18.152  14.775
41659W        W12259   5.821  17.774  10.738
41660W        W12260  14.846  25.572   1.451
41661W        W12261   7.390   3.270   1.173
41662W        W12262  39.057  33.962   1.255
41663W        W12263  23.455  18.770   3.812
41664W        W12264  30.506  25.189  11.663
41665W        W12265  44.865  28.572  13.531
41666W        W12266  20.799  44.805  14.005
41667W        W12267  10.808  24.742   1.599
41668W        W12268   3.804  39.893  12.913
41669W        W12269   7.762  22.131   3.420
41670W        W12270  33.485  17.665  10.186
41671W        W12271  28.173   8.295   0.031
41672W        W12272  11.972   4.724   4.799
41673W        W12273   1.341   2.951  11.507
41674W        W12274  15.955   3.096   4.017
41675W        W12275  15.143   7.068  13.426
41676W        W12276  18.881   9.692   3.827
41677W        W12277   0.756  12.145  14.922
41678W        W12278  35.446  19.559   3.790
41679W        W12279  29.682  36.954   0.265
41680W        W12280  15.785  13.767   3.615
41681W        W12281   8.768  44.210   2.287
41682W        W12282  27.902  26.493   2.153
41683W        W12283  14.191  43.337  14.094
41684W        W12284  27.449  20.516  13.174
41685W        W12285   4.395  24.316   1.485
41686W        W12286  16.738  20.750   4.541
41687W        W12287   6.924  38.565   2.707
41688W        W12288  33.477  12.711  14.314
41689W        W12289  22.086  44.431  11.950
41690W        W12290  23.509  44.646   2.009
41691W        W12291  43.225  31.514  14.254
41692W        W12292  18.371  25.606   1.195
41693W        W12293   4.405  34.123  12.867
41694W        W12294  41.828  17.991   0.687
41695W        W12295  39.275  41.842  10.902
41696W        W12296  38.473  23.808   1.881
41697W        W12297   6.807   3.717   2.645
41698W        W12298  17.887  28.242  13.765
41699W        W12299  40.121  35.065   4.147
41700W        W12300  35.046   9.527   0.838
41701W        W12301  11.617   3.593  11.177
41702W        W12302   5.242  24.256  14.898
41703W        W12303  44.991  20.840  14.604
41704W        W12304   1.237  18.274  14.539
41705W        W12305  44.178  26.642  12.367
41706W        W12306  42.400  42.027   0.284
41707W        W12307  36.185   2.629   3.081
41708W        W12308  42.764  19.622   0.315
41709W        W12309  17.655  38.910   3.191
41710W        W12310  37.366  16.175  12.510
41711W        W12311  17.397  28.134  11.926
41712W        W12312  20.672  20.785   0.752
41713W        W12313  40.771  40.276   0.363
41714W        W12314   8.100   1.770  13.283
41715W        W12315  38.336  14.649  11.636
41716W        W12316  18.770  31.388  13.056
41717W        W12317  43.563  16.555  10.775
41718W        W12318  33.546   6.853  10.560
41719W        W12319  29.487  29.654  11.618
41720W        W12320   4.164   3.727  13.014
41721W        W12321  28.668  31.301   2.278
41722W        W12322  11.691   6.167   4.052
41723W        W12323  20.133   3.159  10.875
41724W        W12324  43.878  27.506   2.731
41725W        W12325  17.702  24.434   4.995
41726W        W12326  42.961   0.351   0.297
41727W        W12327   2.811  15.172   0.261
41728W        W12328  15.442  24.539  12.003
41729W        W12329   4.979  30.879   1.728
41730W        W12330   2.198   6.042  13.089
41731W        W12331  19.764  23.028  11.837
41732W        W12332  20.487  34.430   0.817
41733W        W12333  24.901  43.928  10.133
41734W        W12334  17.885   0.476  14.695
41735W        W12335  34.853  37.454   1.270
41736W        W12336   6.196  31.128   0.911
41737W        W12337  40.847  42.204  13.073
41738W        W12338  29.192   2.304   2.254
41739W        W12339  35.102  20.105  12.534
41740W        W12340  43.954  34.214   1.794
41741W        W12341  18.156  19.640   0.494
41742W        W12342  18.769   9.560   4.936
41743W        W12343  12.383  37.337  10.968
41744W        W12344  13.375  31.653   1.883
41745W        W12345  41.061  35.618   2.250
41746W        W12346   1.745  10.857  12.980
41747W        W12347  39.985  18.513  14.454
41748W        W12348  21.568  32.493   3.341
41749W        W12349  22.639   7.473   3.252
41750W        W12350  18.694  18.553   0.975
41751W        W12351  37.062  38.872  11.719
41752W        W12352  43.301  30.173  14.799
41753W        W12353  15.410   0.006  13.766
41754W        W12354  20.094  16.599   0.353
41755W        W12355  17.875  28.169   1.301
41756W        W12356   1.952  15.800  10.723
41757W        W12357   6.919   7.360  13.518
41758W        W12358  35.614  35.632   0.998
41759W        W12359  38.987  19.538  13.438
41760W        W12360  40.594  33.018  11.992
41761W        W12361  20.470  34.095   0.280
41762W        W12362  42.392  22.735  11.657
41763W        W12363  14.188  35.337   1.292
41764W        W12364  44.318  17.833  11.714
41765W        W12365  36.167  25.117  13.555
41766W        W12366  15.575  21.509   3.606
41767W        W12367  24.079   4.135  11.494
41768W        W12368  27.064  15.158   4.580
41769W        W12369  41.010   3.505  14.385
41770W        W12370  36.314  36.351   0.906
41771W        W12371  31.124   2.352  10.641
41772W        W12372  32.493  31.616   0.353
41773W        W12373  12.393  10.590   3.067
41774W        W12374  30.020  15.288   1.949
41775W        W12375  38.587   9.885   2.774
41776W        W12376  40.881  12.354  10.838
41777W        W12377   1.545  40.047   3.725
41778W        W12378  42.068  16.026  10.815
41779W        W12379   8.243  19.753  12.424
41780W        W12380  30.573  15.828   4.798
41781W        W12381   0.518   1.343  11.984
41782W        W12382  38.423  22.501  12.106
41783W        W12383  41.208  37.780   1.907
41784W        W12384  41.273  40.440   3.156
41785W        W12385  24.049  43.599   4.102
41786W        W12386  39.761  28.340   1.732
41787W        W12387   3.724  27.069  11.100
41788W        W12388  27.864  44.559  12.435
41789W        W12389   1.393  15.847  12.975
41790W        W12390  32.401  19.440  12.972
41791W        W12391   3.474   4.683  11.638
41792W        W12392  25.746   6.973  10.215
41793W        W12393  36.995  32.893  11.589
41794W        W12394  40.668  15.816  10.426
41795W        W12395   5.860  11.507  10.348
41796W        W12396  10.227  32.157   3.305
41797W        W12397  40.600  30.112  14.403
41798W        W12398  36.498  28.967  12.521
41799W        W12399  22.708   4.922  13.029
41800W        W12400  44.557   2.446  12.943
41801W        W12401  10.317  13.254  10.698
41802W        W12402  33.560  28.393  13.846
41803W        W12403  14.088  31.142  11.851
41804W        W12404  12.710  29.568   2.546
41805W        W12405  33.584  30.681  14.305
41806W        W12406   8.474  19.885   0.766
41807W        W12407  33.443   1.212  14.367
41808W        W12408   6.643   8.418  10.661
41809W        W12409  20.314  11.814   2.688
41810W        W12410  21.785  35.347  13.145
41811W        W12411  18.999   4.900  11.579
41812W        W12412  31.482  26.671  11.381
41813W        W12413  31.705  25.995   0.096
41814W        W12414   4.761  17.851  12.989
41815W        W12415  16.893  37.048   2.093
41816W        W12416  44.999  18.317  11.182
41817W        W12417  36.009  33.741   4.514
41818W        W12418  16.646   1.681  14.841
41819W        W12419  30.170   6.878   3.827
41820W        W12420  30.804  23.694  11.076
41821W        W12421  34.556  14.431  11.008
41822W        W12422  34.830  21.639   1.823
41823W        W12423  36.094  39.099   3.434
41824W        W12424  43.021   2.251   3.143
41825W        W12425   8.606  26.912   1.498
41826W        W12426  22.187   2.480  11.501
41827W        W12427   9.128   7.805  11.040
41828W        W12428   4.939  17.641   5.034
41829W        W12429  44.345   4.827  11.487
41830W        W12430  25.127  39.455  10.650
41831W        W12431  34.383  24.128   3.589
41832W        W12432  29.147  16.266  10.980
41833W        W12433  40.586  34.417   3.096
41834W        W12434  20.964   7.930  12.944
41835W        W12435  24.745  41.099  11.187
41836W        W12436  26.903  25.075   3.328
41837W        W12437  11.765  34.048   4.101
41838W        W12438  10.749  15.262   0.878
41839W        W12439  30.669   0.425   2.995
41840W        W12440  28.004  32.878  14.300
41841W        W12441  27.464  17.322  14.058
41842W        W12442  15.340  18.191  11.062
41843W        W12443   8.217  33.341  14.664
41844W        W12444  40.006  26.088   4.514
41845W        W12445  39.241  31.198   3.265
41846W        W12446  17.785  20.683   3.232
41847W        W12447  24.231  12.655   0.586
41848W        W12448  22.635  31.885  13.911
41849W        W12449  32.358  40.959  14.694
41850W        W12450  12.109  28.567   0.818
41851W        W12451  12.997   8.654  13.106
41852W        W12452  36.157  37.060  12.786
41853W        W12453  25.260  42.271   4.344
41854W        W12454  27.236   9.559   0.548
41855W        W12455  18.592   4.650  11.425
41856W        W12456  10.171  17.634   3.683
41857W        W12457   4.371  25.003   2.601
41858W        W12458  17.632  27.717   1.250
41859W        W12459  20.673  33.379  12.882
41860W        W12460  20.215  42.326  12.509
41861W        W12461  15.612  11.719  14.022
41862W        W12462  30.074  20.569  11.947
41863W        W12463   5.145  17.541  11.276
41864W        W12464  16.092  40.240  13.438
41865W        W12465  12.213  29.431   2.239
41866W        W12466  12.519  35.971  14.609
41867W        W12467  26.866  25.243  11.174
41868W        W12468  33.386  25.134  13.024
41869W        W12469  32.668  41.333  10.047
41870W        W12470  16.784  18.799   2.115
41871W        W12471  43.709   9.760  11.187
41872W        W12472  27.962  35.416   3.176
41873W        W12473   2.384  18.552   2.474
41874W        W12474  18.624  10.452   4.120
41875W        W12475  36.450  29.731   1.903
41876W        W12476  14.606  22.975  13.816
41877W        W12477   4.154  34.905  13.934
41878W        W12478   8.964  30.554   1.885
41879W        W12479  35.887  31.115   3.359
41880W        W12480   2.336  30.971   0.803
41881W        W12481   0.061  19.299   0.462
41882W        W12482  37.271  32.923  10.763
41883W        W12483  35.492  29.957  14.478
41884W        W12484   5.295   4.474   3.893
41885W        W12485  39.731   9.370   1.810
41886W        W12486  43.059  34.635   1.730
41887W        W12487  15.197  32.536  12.287
41888W        W12488   6.886  33.543   1.164
41889W        W12489  24.091  30.211  13.141
41890W        W12490  30.083  25.198   4.568
41891W        W12491  36.804   5.279   2.304
41892W        W12492  20.877  12.448   2.889
41893W        W12493  44.350  16.271   0.300
41894W        W12494  35.408   7.284   2.748
41895W        W12495  27.247  14.149   4.912
41896W        W12496  36.432  29.109  11.674
41897W        W12497  18.675  26.437  11.685
41898W        W12498   3.164  29.225   4.707
41899W        W12499  10.318  22.196  12.081
41900W        W12500  23.426  14.421   1.765
41901W        W12501  26.090  34.067   4.233
41902W        W12502   5.430  14.925  11.307
41903W        W12503   6.420  34.373   4.542
41904W        W12504  18.718  40.443   4.553
41905W        W12505  16.665   3.495   0.345
41906W        W12506  44.774   2.880   4.562
41907W        W12507  43.478  39.916  10.991
41908W        W12508  36.863  33.992   4.008
41909W        W12509  35.277  15.671   1.785
41910W        W12510  13.611   1.620  11.551
41911W        W12511  12.774   6.836  14.830
41912W        W12512  42.761  19.191   2.661
41913W        W12513   9.831  15.628  11.863
41914W        W12514   7.787  24.738  13.933
41915W        W12515  16.628  12.757  10.248
41916W        W12516  35.034   5.254   4.556
41917W        W12517   0.125  23.099   2.316
41918W        W12518  19.349   0.903   2.670
41919W        W12519  25.603  28.137  13.156
41920W        W12520  13.206  44.776   0.845
41921W        W12521   6.804  15.889  12.402
41922W        W12522   6.293  11.631  12.109
41923W        W12523  16.245  42.907   2.142
41924W        W12524  21.030  12.392  14.344
41925W        W12525  11.819  25.538  13.543
41926W        W12526  19.293  42.503  11.053
41927W        W12527   9.447  24.653   0.368
41928W        W12528  27.045  27.150   3.609
41929W        W12529  33.464  10.757  13.463
41930W        W12530   5.862  35.805  12.103
41931W        W12531  20.607   8.791   0.800
41932W        W12532   1.811  23.088   4.735
41933W        W12533  19.311  36.550  12.578
41934W        W12534  13.213  17.328  11.189
41935W        W12535  41.405  10.595   4.397
41936W        W12536  19.176  39.955  12.348
41937W        W12537  16.054  16.478   0.721
41938W        W12538  24.429  38.388  14.840
41939W        W12539  22.603  21.173   1.639
41940W        W12540  13.849  40.075  13.440
41941W        W12541   6.717  14.569   1.473
41942W        W12542  33.866  18.979  14.436
41943W        W12543  28.385   3.945   4.216
41944W        W12544   4.344  21.806   3.203
41945W        W12545  18.178  16.770   0.197
41946W        W12546   7.799  25.281  11.594
41947W        W12547   7.986  30.916  11.077
41948W        W12548   5.595   6.846   0.754
41949W        W12549  15.146   7.643  10.798
41950W        W12550   6.350  12.489   3.659
41951W        W12551  15.117   4.826  14.035
41952W        W12552  43.296  26.283   1.735
41953W        W12553   6.993  27.566  13.364
41954W        W12554  36.880  37.267   3.211
41955W        W12555  14.600   4.120   4.667
41956W        W12556  29.676   9.311   3.636
41957W        W12557  18.664  29.030   3.513
41958W        W12558  43.472   4.724   4.228
41959W        W12559  37.396  42.506  13.338
41960W        W12560  29.114  35.819  14.814
41961W        W12561  36.487  17.675   3.304
41962W        W12562  20.730  38.174   3.241
41963W        W12563  19.940   3.135   0.463
41964W        W12564  20.081  41.721   3.875
41965W        W12565  38.457   8.595  11.034
41966W        W12566  23.448   9.246   3.177
41967W        W12567   5.717  21.632  14.315
41968W        W12568  20.124   1.802  11.067
41969W        W12569  27.044  15.525  12.468
41970W        W12570  22.760  25.107  14.503
41971W        W12571   8.232  15.751   3.854
41972W        W12572   8.499   2.413   1.279
41973W        W12573   1.220  35.464   3.181
41974W        W12574  17.443  13.113   5.675
41975W        W12575  24.107  38.304   0.360
41976W        W12576  31.993  34.034  10.609
41977W        W12577  26.543  38.323   1.116
41978W        W12578  44.396  34.434  14.463
41979W        W12579  27.861  41.379  10.445
41980W        W12580  17.509  34.090  12.803
41981W        W12581  21.718  42.949  11.219
41982W        W12582  17.844   5.396   1.010
41983W        W12583   6.473  33.570   3.869
41984W        W12584  23.469  37.411   4.680
41985W        W12585  44.862  30.906  12.955
41986W        W12586   1.984   3.539   3.322
41987W        W12587  13.630   1.548  13.932
41988W        W12588  31.937  30.673  14.596
41989W        W12589  23.485  15.125  11.562
41990W        W12590   2.690   5.874   3.321
41991W        W12591  28.773   2.752   2.845
41992W        W12592  24.175  35.724   3.565
41993W        W12593   3.144  29.730   4.602
41994W        W12594  16.314  19.124   1.775
41995W        W12595  39.342  33.378  11.117
41996W        W12596  15.264   9.997  13.024
41997W        W12597  41.722  43.919   3.514
41998W        W12598  18.309   2.320   1.684
41999W        W12599  21.709  28.223   2.652
42000W        W12600  43.972  43.444  12.356
42001W        W12601  10.832  37.930  10.657
42002W        W12602  30.470  42.768   4.163
42003W        W12603  30.237  31.317  11.539
42004W        W12604  22.427  22.241   0.999
42005W        W12605  12.421  15.765  11.615
42006W        W12606  35.857  23.775   1.470
42007W        W12607   0.750  31.685   2.349
42008W        W12608  34.469  19.142   4.162
42009W        W12609  21.210  26.792  11.119
42010W        W12610  17.388  35.574  13.039
42011W        W12611   5.344  36.471   2.098
42012W        W12612  18.881  10.170   1.236
42013W        W12613  12.640   5.696   4.170
42014W        W12614  20.819  17.979  11.174
42015W        W12615  37.906   8.479   4.676
42016W        W12616   5.349   8.783  14.319
42017W        W12617   6.898   1.954  10.827
42018W        W12618  36.939  35.907   4.568
42019W        W12619  31.978   9.389   1.969
42020W        W12620  18.557  10.277  11.519
42021W        W12621  22.155  35.800   2.643
42022W        W12622   3.815  26.205   0.754
42023W        W12623  41.046  27.463  11.141
42024W        W12624  11.400   7.440  13.339
42025W        W12625   1.546  42.488  10.641
42026W        W12626   1.019  23.046  11.473
42027W        W12627   5.941  18.210   1.840
42028W        W12628  17.470  28.497  11.002
42029W        W12629  28.938  15.770  10.860
42030W        W12630   9.977  15.138  12.015
42031W        W12631  26.036  16.264  14.359
42032W        W12632  15.328  32.535   1.795
42033W        W12633  18.209  39.771   3.762
42034W        W12634  43.593  13.226   2.414
42035W        W12635  16.960  32.083   2.733
42036W        W12636  11.686  16.558  12.560
42037W        W12637  38.832  37.832  13.173
42038W        W12638  24.185  44.216  13.499
42039W        W12639  15.851  38.901   4.123
42040W        W12640  35.477  27.585  13.117
42041W        W12641  28.026  13.086  11.882
42042W        W12642  22.297  31.517   1.843
42043W        W12643   7.219  19.654  14.847
42044W        W12644  40.263  37.103   0.889
42045W        W12645  18.165   9.851   4.570
42046W        W12646  39.500  26.853  11.618
42047W        W12647  25.128  39.047  14.546
42048W        W12648  33.535  42.079   3.706
42049W        W12649  38.803   7.233  14.825
42050W        W12650   5.712  29.878  14.349
42051W        W12651  18.766  12.680  11.666
42052W        W12652  29.627   0.644  10.943
42053W        W12653  12.117  28.041   1.409
42054W        W12654   9.392   6.714  13.079
42055W        W12655  26.884  16.824  12.043
42056W        W12656  21.093   1.798   2.301
42057W        W12657  40.840  13.738  14.917
42058W        W12658  30.838  10.413   4.532
42059W        W12659   9.312  12.112   0.313
42060W        W12660   3.636  38.991  14.827
42061W        W12661  20.404  38.110  13.864
42062W        W12662  38.627  19.749  13.745
42063W        W12663  26.639  38.451   4.203
42064W        W12664  25.650  40.361   1.027
42065W        W12665  34.423  19.420  13.433
42066W        W12666  25.717  14.375  11.420
42067W        W12667  30.197  31.456   4.842
42068W        W12668  21.850   7.194   5.197
42069W        W12669  36.110  25.258  10.736
42070W        W12670   9.746  30.954  12.613
42071W        W12671  37.165   3.929   0.729
42072W        W12672  16.611  14.406  14.055
42073W        W12673  11.334  27.511   2.361
42074W        W12674  31.081  31.965   3.583
42075W        W12675  12.813  27.983   1.864
42076W        W12676  15.213  18.056   2.185
42077W        W12677  11.262  18.284  12.828
42078W        W12678   0.383  30.149   0.458
42079W        W12679  41.307  20.637   2.362
42080W        W12680  29.826  39.315   2.669
42081W        W12681  19.597  18.726  12.058
42082W        W12682  30.049  16.889  14.291
42083W        W12683  16.072  34.101   0.501
42084W        W12684   2.257  35.570  13.424
42085W        W12685   0.892   4.922   0.446
42086W        W12686  10.521  13.687  14.911
42087W        W12687  13.585  17.429   4.063
42088W        W12688  36.410  20.089   0.895
42089W        W12689  28.678  18.743  14.798
42090W        W12690  32.141  44.027   2.269
42091W        W12691  24.771   2.836   0.894
42092W        W12692  41.836  10.293  14.381
42093W        W12693   5.786  20.457  13.799
42094W        W12694  42.309  30.094   0.817
42095W        W12695  27.955  33.369  13.206
42096W        W12696  34.181  30.217  12.408
42097W        W12697   7.740  44.451  13.172
42098W        W12698  29.634  13.335  11.911
42099W        W12699  12.689  29.115   1.340
42100W        W12700  37.498  42.062   5.065
42101W        W12701  25.125  31.937   2.384
42102W        W12702  34.091  20.047  12.695
42103W        W12703  15.258  40.933   3.718
42104W        W12704  39.064   7.252   0.287
42105W        W12705  20.884  39.530   0.357
42106W        W12706  35.485   1.885  11.558
42107W        W12707  22.448   2.964   1.374
42108W        W12708   3.347   9.302  11.224
42109W        W12709  29.730  38.549   3.638
42110W        W12710  17.701  27.738   2.636
42111W        W12711  10.428  34.964  10.951
42112W        W12712   5.369  23.994   2.308
42113W        W12713  16.115  15.579  10.481
42114W        W12714  25.984  10.670  12.438
42115W        W12715  17.320   4.553   4.171
42116W        W12716  42.877  29.430   0.294
42117W        W12717  38.165  13.607  12.891
42118W        W12718  20.570  19.684   4.121
42119W        W12719   3.218  38.645   4.681
42120W        W12720  23.373   8.259   1.375
42121W        W12721  29.028  36.411   3.244
42122W        W12722  32.613  19.730  13.365
42123W        W12723   8.665  38.317   1.509
42124W        W12724  31.849  32.628  14.465
42125W        W12725  24.943  12.363   4.145
42126W        W12726   1.993   8.813  12.600
42127W        W12727  44.882  17.282  12.003
42128W        W12728  15.277  40.926   4.588
42129W        W12729  24.494  25.640   2.733
42130W        W12730   0.975  34.845   4.880
42131W        W12731  27.001  34.019  14.883
42132W        W12732  27.255  30.450   1.450
42133W        W12733  27.630   9.195   1.228
42134W        W12734  41.208  10.237  14.065
42135W        W12735  13.503   0.814  14.331
42136W        W12736   1.643  28.399  11.478
42137W        W12737  39.854  18.609   2.175
42138W        W12738  17.331  32.107   1.645
42139W        W12739  42.121  21.278  14.043
42140W        W12740  37.499   4.896  11.502
42141W        W12741  15.718  33.016   4.038
42142W        W12742  25.648  26.473   2.007
42143W        W12743  34.528  31.052  12.533
42144W        W12744  16.693   3.714  14.852
42145W        W12745   4.344  20.958   3.611
42146W        W12746  15.312  40.520  12.949
42147W        W12747  27.184  14.082   1.010
42148W        W12748   2.276   7.863   1.085
42149W        W12749  42.922  10.661   2.269
42150W        W12750  33.214  26.642  11.986
42151W        W12751  14.261   9.919  11.005
42152W        W12752  42.548  11.900  12.124
42153W        W12753  27.018  18.994   0.467
42154W        W12754  12.693  37.107   0.339
42155W        W12755  28.075   4.408   1.301
42156W        W12756  35.018  26.593   0.721
42157W        W12757  12.573  20.053  12.884
42158W        W12758  20.425  37.547   0.405
42159W        W12759  13.064  44.920  12.663
42160W        W12760  40.580  42.269   2.399
42161W        W12761  34.923  30.413   4.113
42162W        W12762   4.931   7.436   0.249
42163W        W12763  30.899  21.238  13.491
42164W        W12764  16.227  14.588   1.812
42165W        W12765   1.393  15.036   1.513
42166W        W12766  22.531  10.380  14.960
42167W        W12767  43.744  38.330   4.531
42168W        W12768  17.095   3.167  11.121
42169W        W12769  17.804  20.254   2.266
42170W        W12770   8.238  28.261   0.131
42171W        W12771  26.938   6.045  13.036
42172W        W12772   3.441   5.384   0.213
42173W        W12773   8.347  35.502   3.155
42174W        W12774  17.070  27.318   4.061
42175W        W12775  31.770  26.217  11.312
42176W        W12776  17.559   4.547   1.436
42177W        W12777  18.137  13.186   1.634
42178W        W12778  41.221  40.202   1.845
42179W        W12779  27.829  41.427   5.019
42180W        W12780   8.046  32.486   0.448
42181W        W12781  13.710  12.353  14.855
42182W        W12782  26.425  11.729  13.883
42183W        W12783   1.858   2.062  12.954
42184W        W12784  41.893  33.422  11.895
42185W        W12785  19.913  42.362   1.206
42186W        W12786  13.818   2.772  14.394
42187W        W12787  32.995   4.349  14.013
42188W        W12788  17.642  41.302   2.607
42189W        W12789  15.802  41.405   1.343
42190W        W12790   9.183   2.609   0.716
42191W        W12791   4.599  14.610  13.044
42192W        W12792  43.993  14.524   2.823
42193W        W12793  14.019  26.797   2.763
42194W        W12794   2.477  37.799  13.066
42195W        W12795  18.826  26.189  14.968
42196W        W12796  30.124  34.505   4.836
42197W        W12797  36.998   8.706  13.344
42198W        W12798   9.244  20.775  13.534
42199W        W12799  29.933  16.126  13.044
42200W        W12800  11.330  28.405   4.691
42201W        W12801  33.938  30.239   3.242
42202W        W12802  18.831  28.413  13.114
42203W        W12803   7.402   3.022   2.273
42204W        W12804  22.520  29.563  14.314
42205W        W12805   0.221  33.160   9.896
42206W        W12806  16.875   9.393   0.416
42207W        W12807  35.377  32.626   1.964
42208W        W12808  14.242  21.549  13.286
42209W        W12809   1.746  28.839   0.251
42210W        W12810  36.053  38.362   0.432
42211W        W12811  13.339  17.142  13.835
42212W        W12812   9.462   0.244   2.690
42213W        W12813  25.175   5.942  14.986
42214W        W12814  18.278  15.928  12.457
42215W        W12815  37.472  29.744   3.153
42216W        W12816  16.104  15.175  14.840
42217W        W12817  43.474  34.834  12.865
42218W        W12818  38.156  41.805  12.074
42219W        W12819  38.286  36.978   2.872
42220W        W12820  39.095  21.274  12.148
42221W        W12821  36.050  24.473  13.390
42222W        W12822  23.119  30.895   3.167
42223W        W12823   0.999  42.536  10.586
42224W        W12824  16.573  23.061  11.453
42225W        W12825  34.493  15.392   4.263
42226W        W12826  18.966  39.530   3.360
42227W        W12827  21.579  17.771   3.603
42228W        W12828  40.841  28.024   1.976
42229W        W12829  26.560  11.289   1.479
42230W        W12830   4.996  25.843  12.888
42231W        W12831   5.509  43.221   3.933
42232W        W12832  31.456   8.709  13.346
42233W        W12833   0.239  27.317   0.385
42234W        W12834  19.543  42.063  10.973
42235W        W12835  36.310  40.664   4.171
42236W        W12836   6.695  43.401   1.951
42237W        W12837   7.590  42.306  11.632
42238W        W12838   5.500  11.279  12.633
42239W        W12839  31.649  33.138   3.751
42240W        W12840  35.410  44.991  12.119
42241W        W12841  19.527  24.481  12.936
42242W        W12842  11.164  31.504   0.971
42243W        W12843   1.639  40.885   3.304
42244W        W12844  10.741  28.904  11.542
42245W        W12845  17.538  38.323  12.458
42246W        W12846  17.275  37.231   1.763
42247W        W12847  21.016  16.611   3.813
42248W        W12848  34.599   3.365   3.253
42249W        W12849  40.777  30.541   4.178
42250W        W12850   9.311   2.858  12.055
42251W        W12851  42.829  12.169  14.308
42252W        W12852  36.981  12.060  10.574
42253W        W12853   7.876  12.270   2.454
42254W        W12854  22.691  14.168   1.217
42255W        W12855  11.801  20.130  14.510
42256W        W12856  32.591  10.839   2.607
42257W        W12857  19.228   7.387  13.380
42258W        W12858  44.497  16.052   3.702
42259W        W12859  10.692  34.502  10.602
42260W        W12860  39.130  32.684   0.871
42261W        W12861  42.532  32.885   1.909
42262W        W12862   1.722  11.510   3.632
42263W        W12863  11.585  44.090   3.747
42264W        W12864   0.344  30.017   3.604
42265W        W12865  11.039  23.986   0.820
42266W        W12866  39.300  24.827   0.735
42267W        W12867  10.682  42.765   2.996
42268W        W12868   8.483   3.281  11.653
42269W        W12869  40.554  25.833   3.649
42270W        W12870   0.877  42.253  12.381
42271W        W12871   8.128  41.310   3.737
42272W        W12872   1.867  10.650  13.872
42273W        W12873   6.527  26.929   1.863
42274W        W12874  19.001  33.508  10.960
42275W        W12875  34.618  26.598   2.785
42276W        W12876  12.108  26.312   5.025
42277W        W12877   3.905   8.289   3.145
42278W        W12878   6.299  37.917   4.051
42279W        W12879  22.010  25.132   2.062
42280W        W12880   2.205  24.950   3.769
42281W        W12881  25.499   4.347   3.842
42282W        W12882  38.283   6.940   0.459
42283W        W12883  16.771   0.471   3.647
42284W        W12884  31.110   0.057   1.231
42285W        W12885   5.318   0.494   3.078
42286W        W12886  34.185  30.141   0.831
42287W        W12887   9.479  30.029   0.224
42288W        W12888   6.846  13.414  13.542
42289W        W12889  32.477  31.701  13.841
42290W        W12890  36.440  16.705   1.849
42291W        W12891  15.167   4.428  13.678
42292W        W12892  13.186   3.950   0.002
42293W        W12893  43.797   9.835   1.262
42294W        W12894  30.429  36.342  10.713
42295W        W12895   8.764  21.750   4.646
42296W        W12896  33.546  18.658   2.481
42297W        W12897  16.339   3.873  11.980
42298W        W12898   9.136  35.993  11.058
42299W        W12899  34.173  13.162   3.722
42300W        W12900  37.932  17.088   2.851
42301W        W12901  40.688  37.881   1.448
42302W        W12902   9.579   1.865  14.389
42303W        W12903   7.220  43.872   2.761
42304W        W12904   7.299   7.653   2.932
42305W        W12905   5.243  40.518   1.678
42306W        W12906  20.582  37.948   2.245
42307W        W12907  24.671   8.589   0.010
42308W        W12908  32.565  30.126   0.470
42309W        W12909   7.685  31.613   2.498
42310W        W12910  26.622  29.734   2.739
42311W        W12911  32.475  44.952   2.574
42312W        W12912  11.915  12.800  11.422
42313W        W12913  12.280  30.887  12.081
42314W        W12914  15.835  31.270  12.657
42315W        W12915  41.643   7.376  12.673
42316W        W12916  23.073  22.101  14.356
42317W        W12917  27.675  34.609   3.176
42318W        W12918   8.638  29.540  14.380
42319W        W12919  11.087  38.041  13.999
42320W        W12920  37.507  20.731  12.986
42321W        W12921  17.699  44.456  11.405
42322W        W12922  27.205  39.465  13.316
42323W        W12923   4.982  19.123  10.430
42324W        W12924  44.842   2.468  13.378
42325W        W12925  43.062  31.122   0.350
42326W        W12926  32.445  31.908  13.224
42327W        W12927  21.620   1.051   1.091
42328W        W12928  37.055  12.212  14.944
42329W        W12929  13.356  34.601   1.339
42330W        W12930  21.523   3.699  12.481
42331W        W12931  37.644  37.779  13.312
42332W        W12932  21.934  19.302  13.361
42333W        W12933  19.172  32.634   3.384
42334W        W12934  44.966  38.260  11.282
42335W        W12935  27.195  30.077   2.363
42336W        W12936   5.176   9.776  13.096
42337W        W12937  12.685  15.808   4.793
42338W        W12938  26.985  12.249  12.448
42339W        W12939   4.677   2.407  12.456
42340W        W12940  34.657  27.024   2.434
42341W        W12941  44.997  41.722   1.382
42342W        W12942  34.616  18.238   2.439
42343W        W12943  44.407  33.090   3.914
42344W        W12944  31.280   7.354  13.142
42345W        W12945  18.814  10.205   5.071
42346W        W12946  25.587  41.249   1.748
42347W        W12947   1.671   9.679   1.402
42348W        W12948  44.477   3.864  13.605
42349W        W12949  37.939   6.114   0.643
42350W        W12950  40.717  39.932   2.071
42351W        W12951  10.660   2.908  12.598
42352W        W12952   7.794   3.681   0.519
42353W        W12953   5.163   6.130   4.858
42354W        W12954  30.018  16.502  10.894
42355W        W12955   8.726  14.853  11.437
42356W        W12956  30.410  22.467   5.114
42357W        W12957  11.364  28.254   1.900
42358W        W12958   3.737  19.944  12.604
42359W        W12959  44.222  22.993   2.589
42360W        W12960  29.618  16.553   1.317
42361W        W12961  40.122  13.797  12.683
42362W        W12962   0.079  39.572  13.479
42363W        W12963   4.633  24.063  13.394
42364W        W12964  14.285  34.902   5.457
42365W        W12965   9.491  30.633  14.023
42366W        W12966  44.031  13.153  11.867
42367W        W12967   0.379   7.170   3.028
42368W        W12968  23.450  43.294  14.757
42369W        W12969  21.774   6.661   1.945
42370W        W12970  43.312  41.621   0.381
42371W        W12971  38.362  20.116  13.481
42372W        W12972  10.859   1.813  13.214
42373W        W12973   5.483   2.002   3.133
42374W        W12974  25.053  31.671  12.450
42375W        W12975  17.562  39.004   3.691
42376W        W12976  12.367  34.170   2.702
42377W        W12977   5.502  26.608  13.379
42378W        W12978  13.075   8.156  14.773
42379W        W12979   2.923  35.414   3.505
42380W        W12980   6.352  22.443   4.592
42381W        W12981  40.622  24.508  12.284
42382W        W12982  32.502   7.256  12.497
42383W        W12983  16.853   4.741  12.099
42384W        W12984  32.431  34.557   1.755
42385W        W12985   9.280  38.953  14.400
42386W        W12986  38.592  44.780  13.925
42387W        W12987  19.108  37.590  11.592
42388W        W12988  33.905   4.380  10.965
42389W        W12989  25.999   3.902   3.325
42390W        W12990  17.459  24.908  10.325
42391W        W12991  35.636   9.775   1.569
42392W        W12992  19.655  12.928   3.323
42393W        W12993   2.946   6.758   3.235
42394W        W12994  12.582  17.056   3.411
42395W        W12995  20.557   3.330   0.621
42396W        W12996  44.291  13.736   0.971
42397W        W12997   7.162  35.964   1.016
42398W        W12998  37.855  17.163  10.086
42399W        W12999   1.805  13.121  12.538
42400W        W13000  22.086  13.671  13.338
42401W        W13001   7.412   6.665  14.513
42402W        W13002  16.663  27.077  12.583
42403W        W13003  27.989  18.140  14.249
42404W        W13004   0.542  18.087  13.849
42405W        W13005  26.183  34.028  10.565
42406W        W13006  42.781   7.655  13.977
42407W        W13007  21.016   0.495  10.784
42408W        W13008  32.454   9.393   2.378
42409W        W13009  19.306   9.440   2.736
42410W        W13010  11.411  36.043   2.707
42411W        W13011  40.552  36.553  13.824
42412W        W13012  35.144   9.484  14.360
42413W        W13013  40.122  10.701  13.125
42414W        W13014  33.138  35.513  10.527
42415W        W13015  32.688  29.673  14.491
42416W        W13016  44.077   2.796   0.966
42417W        W13017  30.528   9.777  10.882
42418W        W13018  14.746  13.739   3.539
42419W        W13019   5.534  33.424  14.281
42420W        W13020  10.667  17.395  13.462
42421W        W13021  25.113   6.881  12.856
42422W        W13022   5.451  42.005  14.521
42423W        W13023  32.056  25.774  11.131
42424W        W13024   0.399  36.554  10.598
42425W        W13025  26.229  10.369   1.289
42426W        W13026   5.134  21.470  13.498
42427W        W13027   1.817  28.197   2.761
42428W        W13028  10.118  25.579   4.188
42429W        W13029  31.423  16.238   4.150
42430W        W13030  14.096  16.751  11.557
42431W        W13031  23.935   2.477  12.647
42432W        W13032   5.331  20.602   3.665
42433W        W13033  41.376   4.388   1.368
42434W        W13034  35.044   4.830   2.825
42435W        W13035  14.782  16.987  12.931
42436W        W13036  11.199  35.492   2.111
42437W        W13037  16.986   8.506  11.649
42438W        W13038   5.859  19.709   4.643
42439W        W13039  30.465  30.084   4.230
42440W        W13040  35.386   7.687  14.881
42441W        W13041  41.766  15.615   4.609
42442W        W13042  14.225  19.554  12.478
42443W        W13043  32.400  23.173  12.726
42444W        W13044  24.030   5.944   0.267
42445W        W13045   6.638   0.253  13.313
42446W        W13046  14.820  16.074  12.470
42447W        W13047  27.629   6.316   4.173
42448W        W13048  40.080  42.619  14.615
42449W        W13049  23.599  44.748  11.009
42450W        W13050  26.669   2.494  12.918
42451W        W13051  41.488  35.363   2.363
42452W        W13052   6.958  36.777   4.152
42453W        W13053  12.695  33.343  13.243
42454W        W13054  12.018  32.384  10.642
42455W        W13055  23.502  37.730   1.394
42456W        W13056  37.533   8.679   4.304
42457W        W13057  20.258  16.253   2.416
42458W        W13058  28.127   5.865  12.521
42459W        W13059   6.239  36.536   3.664
42460W        W13060  39.116  35.419  14.565
42461W        W13061  38.971  27.455   1.233
42462W        W13062  22.291  28.419   4.226
42463W        W13063  30.876  10.494  11.003
42464W        W13064  22.682  31.313  10.426
42465W        W13065  36.896  44.682   1.754
42466W        W13066  21.688  12.216   2.407
42467W        W13067  29.183  39.365  12.068
42468W        W13068  32.027  33.518   3.730
42469W        W13069  27.277  21.234  11.946
42470W        W13070   0.354  12.859  12.960
42471W        W13071   7.030  37.450  11.103
42472W        W13072  34.946  21.159   3.706
42473W        W13073  20.016   9.915   2.446
42474W        W13074  12.064  37.730   3.217
42475W        W13075  29.903  35.758  11.803
42476W        W13076  10.710   1.610   4.125
42477W        W13077  31.325  26.033  14.196
42478W        W13078  41.890  44.326   0.350
42479W        W13079  39.963  32.644   0.373
42480W        W13080  36.962  28.414   2.175
42481W        W13081   7.278  20.592  12.046
42482W        W13082  21.587   3.640  14.332
42483W        W13083   0.105   9.984  11.250
42484W        W13084  23.515   9.865   4.307
42485W        W13085  43.391  14.005   0.203
42486W        W13086  11.694   9.126   1.727
42487W        W13087  44.689   3.432  13.381
42488W        W13088  36.537  38.939  13.955
42489W        W13089  38.960   3.701  13.500
42490W        W13090  18.738  24.866   0.264
42491W        W13091  19.958  15.549  13.458
42492W        W13092  34.910  15.755  13.714
42493W        W13093   9.775  11.151  12.169
42494W        W13094  37.389  16.706   3.874
42495W        W13095  44.102  34.655  13.443
42496W        W13096  34.113  39.306   9.668
42497W        W13097  44.953  35.483   9.964
42498W        W13098  20.166  42.619  10.450
42499W        W13099   9.638  28.168  11.584
42500W        W13100  39.469  19.789  13.407
42501W        W13101  17.359  18.536   0.379
42502W        W13102  34.473  17.765  11.122
42503W        W13103  27.734  31.050  13.242
42504W        W13104  20.686  20.042  12.765
42505W        W13105  11.683   7.532  11.191
42506W        W13106   2.264  16.694  14.387
42507W        W13107  16.751  16.252  11.380
42508W        W13108  12.662  39.073  10.658
42509W        W13109  21.731   8.747  14.560
42510W        W13110   7.097  18.805   3.120
42511W        W13111   4.702  22.860  11.724
42512W        W13112  11.078  12.334  12.051
42513W        W13113  32.348  26.296  13.366
42514W        W13114  22.613   4.816  14.948
42515W        W13115  32.058  29.244   3.200
42516W        W13116  32.265   7.962   4.135
42517W        W13117   2.774  40.557  14.357
42518W        W13118  15.261   7.541   4.529
42519W        W13119  11.994  42.543  12.436
42520W        W13120  30.133  31.875   0.006
42521W        W13121  23.021  15.169  12.476
42522W        W13122  21.992  10.857  14.301
42523W        W13123  18.793  20.003   2.635
42524W        W13124  21.444  40.096  14.444
42525W        W13125  14.984  17.151   2.731
42526W        W13126  20.621  35.062   3.278
42527W        W13127  27.189  19.777  12.829
42528W        W13128  23.954  27.711   3.242
42529W        W13129  15.886  31.692   0.455
42530W        W13130  17.231  10.157  14.962
42531W        W13131   9.827  14.577   4.824
42532W        W13132  36.045  10.228  13.513
42533W        W13133  16.250  30.968  12.577
42534W        W13134  36.923  20.526   2.681
42535W        W13135   8.231  41.818   3.672
42536W        W13136   7.669  33.638  12.459
42537W        W13137  30.144   6.355  12.325
42538W        W13138  41.838  33.319   3.454
42539W        W13139  21.496  28.394  11.948
42540W        W13140  34.114   3.186  14.033
42541W        W13141  11.221  23.722  12.847
42542W        W13142  42.058   9.343  10.738
42543W        W13143  24.932  35.415  12.785
42544W        W13144  21.566  28.449   1.306
42545W        W13145   9.837  34.103  13.906
42546W        W13146  41.220  14.194  11.953
42547W        W13147  39.473   2.481  14.387
42548W        W13148   0.434   1.277   4.617
42549W        W13149  12.857  43.892  14.401
42550W        W13150  16.081  41.914   5.354
42551W        W13151   1.184  21.717   2.177
42552W        W13152  20.799   4.322  14.996
42553W        W13153  24.841  40.920   2.440
42554W        W13154  22.732  34.969   3.554
42555W        W13155  39.950  41.877   4.610
42556W        W13156  43.843  28.637  11.161
42557W        W13157   7.965  15.184  13.520
42558W        W13158  26.112  31.650   0.854
42559W        W13159  14.314  29.693  13.964
42560W        W13160  31.584  20.707  14.042
42561W        W13161  26.535  18.631  12.249
42562W        W13162  42.774  26.717  11.837
42563W        W13163  39.960  44.465   1.418
42564W        W13164  33.800  36.519   0.831
42565W        W13165  44.223  44.657   2.406
42566W        W13166  17.506   6.122   1.512
42567W        W13167  25.489  32.551  12.691
42568W        W13168  10.840  43.171  14.996
42569W        W13169  20.157  14.849   4.135
42570W        W13170  42.919   1.761   4.096
42571W        W13171  26.030  13.762   1.588
42572W        W13172  44.504  12.306   1.673
42573W        W13173   3.381   8.667   2.315
42574W        W13174   8.394  15.151   3.106
42575W        W13175   7.906  36.791  13.761
42576W        W13176  26.176   3.469  12.459
42577W        W13177  13.596  16.275   1.269
42578W        W13178  33.467  18.346   4.715
42579W        W13179  30.384  42.014  11.450
42580W        W13180  27.994  27.216  12.802
42581W        W13181  20.242   8.099  12.588
42582W        W13182  32.608  36.765  10.693
42583W        W13183  23.106  20.855  13.876
42584W        W13184  25.488  17.317  14.923
42585W        W13185  41.860  27.899   0.384
42586W        W13186  43.553  10.248  10.987
42587W        W13187  40.471   6.249   4.541
42588W        W13188  39.294   9.233  14.478
42589W        W13189   2.911   0.482   0.353
42590W        W13190  12.456  22.956  14.534
42591W        W13191  13.622  21.705  14.711
42592W        W13192   0.359   8.381  12.588
42593W        W13193  31.530  36.951   0.611
42594W        W13194   7.704   6.916  13.570
42595W        W13195  14.079  44.533   4.600
42596W        W13196   1.267  41.476   2.694
42597W        W13197   8.321   5.699   1.326
42598W        W13198  42.004   0.428   1.439
42599W        W13199  23.502  34.432  12.965
42600W        W13200  12.058  18.192   4.098
42601W        W13201   4.319  44.033  12.808
42602W        W13202  26.155  11.796   2.260
42603W        W13203   8.841  26.481  12.893
42604W        W13204  35.466  35.696  14.691
42605W        W13205  33.765  25.722  10.615
42606W        W13206  19.091  26.009   2.144
42607W        W13207  35.118  11.386  13.532
42608W        W13208  25.551  19.800  14.595
42609W        W13209  37.562  19.090   3.175
42610W        W13210  36.947   2.964  10.893
42611W        W13211  27.145  41.117   3.605
42612W        W13212  20.183  26.714  14.978
42613W        W13213  27.697   9.283   0.375
42614W        W13214  17.718   6.303  13.683
42615W        W13215  40.457  17.763   3.929
42616W        W13216  20.583   8.584   3.106
42617W        W13217  11.677  26.217   0.427
42618W        W13218  19.551   9.917   2.674
42619W        W13219  44.036  41.339   4.626
42620W        W13220  44.125   1.486   4.197
42621W        W13221  30.196  10.900   3.197
42622W        W13222   2.519   7.799  10.502
42623W        W13223  15.946  41.829   4.003
42624W        W13224  34.390  44.434   1.175
42625W        W13225  16.100  31.874   1.877
42626W        W13226  29.531  15.476   1.720
42627W        W13227   9.657  31.165   2.096
42628W        W13228  34.382  41.547   4.410
42629W        W13229  13.204  34.060   4.724
42630W        W13230   3.437  15.398   3.614
42631W        W13231   2.391  12.729  12.144
42632W        W13232   9.343  10.965  11.400
42633W        W13233  14.069   4.720  12.532
42634W        W13234  30.937  36.960   3.448
42635W        W13235  24.154  40.953   3.195
42636W        W13236  17.785   1.451   0.310
42637W        W13237   9.844   4.542  11.059
42638W        W13238  33.375  26.151  11.982
42639W        W13239  24.539  37.352  12.874
42640W        W13240  21.619  29.361  14.419
42641W        W13241  41.388   0.570  11.487
42642W        W13242  10.280   8.254  12.694
42643W        W13243  12.060  35.598  12.791
42644W        W13244  36.227  43.129   5.043
42645W        W13245   7.339   9.824   4.567
42646W        W13246  27.397  35.192   1.930
42647W        W13247  24.122  22.099  14.145
42648W        W13248  33.083  15.932   0.974
42649W        W13249  21.985  26.092   2.470
42650W        W13250   1.031   9.655  12.018
42651W        W13251  20.438  12.631  13.601
42652W        W13252   0.874  41.862   0.933
42653W        W13253  37.459  37.300  13.458
42654W        W13254  36.548  19.176   2.322
42655W        W13255  44.958  17.534  14.021
42656W        W13256  24.756  41.791   1.874
42657W        W13257   1.908  20.727   4.709
42658W        W13258  10.262   0.979  14.944
42659W        W13259  14.739  21.136   3.652
42660W        W13260   5.839  22.277  12.691
42661W        W13261  33.023   9.707   4.107
42662W        W13262   4.043  13.528  12.544
42663W        W13263   5.831  12.179   1.981
42664W        W13264  22.467  19.782   3.643
42665W        W13265   8.676  33.507  14.837
42666W        W13266  39.870  30.520  14.720
42667W        W13267   2.789  13.168   3.569
42668W        W13268   1.934   6.702   3.212
42669W        W13269  40.323  28.026   1.848
42670W        W13270  31.537  43.314   2.750
42671W        W13271  37.815  17.543  14.537
42672W        W13272  43.713  17.729   1.299
42673W        W13273  27.321  25.976   4.018
42674W        W13274  13.259   9.666  10.720
42675W        W13275  31.908  27.169  12.479
42676W        W13276  19.683   2.385  12.679
42677W        W13277   6.278  30.663   4.182
42678W        W13278  31.052  19.424  13.592
42679W        W13279   6.145   4.419  11.547
42680W        W13280   6.388  19.654   0.430
42681W        W13281  20.815   9.271  12.007
42682W        W13282  31.158   3.947  11.095
42683W        W13283  14.750  39.242   1.754
42684W        W13284  16.260  41.224   4.575
42685W        W13285   8.127  17.012  13.944
42686W        W13286   8.367  27.071   2.807
42687W        W13287  33.905  12.717  14.859
42688W        W13288  25.033  20.803  11.250
42689W        W13289   5.301  32.302   3.744
42690W        W13290  10.112  18.666   1.692
42691W        W13291  31.167  32.902   3.756
42692W        W13292  27.046  16.596   0.521
42693W        W13293  17.328  43.593   1.468
42694W        W13294  34.466  32.257   1.829
42695W        W13295  24.470   0.494   3.646
42696W        W13296  25.541  24.142   3.865
42697W        W13297  15.022  43.020  13.976
42698W        W13298  44.062  35.219  10.460
42699W        W13299  31.837  24.265  13.984
42700W        W13300   9.638  28.556   1.443
42701W        W13301  19.754  15.226   0.927
42702W        W13302  11.846  26.818  11.137
42703W        W13303  18.158  10.492  14.268
42704W        W13304  27.186  43.324   3.631
42705W        W13305  17.146   1.197   2.754
42706W        W13306  38.440  44.314  12.457
42707W        W13307  19.733  25.463  13.572
42708W        W13308   7.043  26.375  14.607
42709W        W13309  12.259  30.975   0.470
42710W        W13310  38.420  17.311   2.752
42711W        W13311  20.225  17.285  14.771
42712W        W13312  39.825  24.735   0.797
42713W        W13313   0.291  33.577   4.145
42714W        W13314  27.271   9.848   0.968
42715W        W13315  22.253   5.820   0.819
42716W        W13316  19.278   4.964  10.159
42717W        W13317  38.686  40.899   3.312
42718W        W13318  25.089  41.808  12.180
42719W        W13319  26.056  17.737  14.925
42720W        W13320  18.292  28.052   3.818
42721W        W13321  14.856  34.586   1.441
42722W        W13322  32.081  12.208   1.150
42723W        W13323  18.478  30.000  14.086
42724W        W13324  26.203  11.689  12.098
42725W        W13325  16.939  35.049   5.042
42726W        W13326   1.980  23.849  12.561
42727W        W13327  10.276  33.863   2.702
42728W        W13328  26.113   5.418  12.946
42729W        W13329  40.446   9.181   4.852
42730W        W13330   2.578  34.134   3.174
42731W        W13331  12.774  12.574  12.539
42732W        W13332  27.160  33.448   1.933
42733W        W13333  15.304   2.718  13.488
42734W        W13334  15.050  30.865  10.963
42735W        W13335   3.464  11.037  11.896
42736W        W13336   7.397   8.902  13.467
42737W        W13337  43.270   8.449  11.816
42738W        W13338  21.598  20.756  11.633
42739W        W13339  16.083   4.435   1.498
42740W        W13340   0.922   2.859   3.322
42741W        W13341  30.825  42.703  14.963
42742W        W13342   6.294  12.300  12.814
42743W        W13343  12.246  34.006  12.248
42744W        W13344  33.895   9.629  10.717
42745W        W13345  42.018  20.260   1.738
42746W        W13346  20.752  14.352   0.774
42747W        W13347  14.855  41.655   4.179
42748W        W13348  17.152  34.902  10.116
42749W        W13349  42.880  17.369   4.487
42750W        W13350  24.397  41.510  12.843
42751W        W13351  15.277   7.871   2.863
42752W        W13352  19.050  34.021  14.973
42753W        W13353  23.759  40.276   1.775
42754W        W13354  38.421  12.529   3.120
42755W        W13355  32.963   1.899  12.548
42756W        W13356  31.953  26.212   4.330
42757W        W13357  11.774  42.717   1.716
42758W        W13358  42.731  24.408   2.267
42759W        W13359  18.209   7.892   4.174
42760W        W13360  25.690  34.596   5.330
42761W        W13361   6.466  13.299   3.389
42762W        W13362   6.734  33.475   3.032
42763W        W13363   1.354   8.741   2.972
42764W        W13364  11.828  24.911   5.069
42765W        W13365  40.759  15.583  14.776
42766W        W13366  42.380  43.742  14.864
42767W        W13367  15.585  32.996   4.930
42768W        W13368  37.796   5.815   2.340
42769W        W13369  30.235  26.659   3.185
42770W        W13370   5.314  34.355   3.632
42771W        W13371  26.034  25.203  10.979
42772W        W13372  18.684   5.682  11.405
42773W        W13373  18.487  43.217   0.011
42774W        W13374  10.567  13.766  13.558
42775W        W13375   3.132  28.481   4.370
42776W        W13376  10.664   0.987  11.111
42777W        W13377  19.090  42.960   4.965
42778W        W13378   1.396   8.478  14.707
42779W        W13379  15.133  12.622  12.091
42780W        W13380  10.024  11.863   0.975
42781W        W13381   3.218  40.998   1.217
42782W        W13382  17.883  21.577   0.705
42783W        W13383  28.726  34.479   4.129
42784W        W13384   5.273  34.052   2.178
42785W        W13385  29.090   8.682   0.888
42786W        W13386  21.228  25.634   2.262
42787W        W13387  25.103  33.473  12.421
42788W        W13388  22.666  37.896   2.489
42789W        W13389  33.300  24.257  12.277
42790W        W13390   5.723  15.702  13.566
42791W        W13391   9.472  21.785  11.174
42792W        W13392  16.154   2.121  11.157
42793W        W13393  40.432  28.719   4.140
42794W        W13394  12.705   2.906   0.965
42795W        W13395  14.486   0.488   4.657
42796W        W13396  24.310  12.282  14.178
42797W        W13397  30.267  11.778  14.167
42798W        W13398  40.466  18.715  12.002
42799W        W13399  15.784  14.295  10.257
42800W        W13400  30.126  37.745  11.551
42801W        W13401  20.351  41.380   2.758
42802W        W13402   8.346  43.835   1.278
42803W        W13403  20.997  11.857   2.263
42804W        W13404  43.465  15.219   4.342
42805W        W13405  30.060  36.109  10.426
42806W        W13406  40.204  29.962   0.499
42807W        W13407  18.988  28.685  11.176
42808W        W13408  36.039  43.373   4.207
42809W        W13409  26.350  18.183  12.034
42810W        W13410  11.593   2.346  12.062
42811W        W13411  28.976  37.635  14.463
42812W        W13412  18.301  15.792   1.911
42813W        W13413  14.626  19.327   1.755
42814W        W13414  21.053  38.336   0.048
42815W        W13415  29.743  11.252   4.071
42816W        W13416  17.790  11.682  10.632
42817W        W13417  29.435  43.275  13.744
42818W        W13418  36.013  19.451  14.767
42819W        W13419  35.154  43.979  13.131
42820W        W13420  35.406  16.544   2.739
42821W        W13421  13.804   6.591   1.360
42822W        W13422   8.170  42.394   4.762
42823W        W13423  28.219  16.113  11.971
42824W        W13424  40.876   5.423   0.431
42825W        W13425  34.862   4.394  11.896
42826W        W13426   9.803  15.127  12.514
42827W        W13427  16.188  36.538  11.558
42828W        W13428   2.810  25.279  12.122
42829W        W13429  29.449  11.421   2.197
42830W        W13430  41.894  11.339   3.136
42831W        W13431  41.366  31.159  13.981
42832W        W13432  22.606   3.347   0.172
42833W        W13433  44.722   0.353  10.996
42834W        W13434  20.302  39.681   0.933
42835W        W13435   3.362  24.644  11.079
42836W        W13436  43.353  14.190   3.764
42837W        W13437  37.434  12.035   1.755
42838W        W13438  18.132   4.441  13.976
42839W        W13439   4.666  31.414  13.912
42840W        W13440  33.579  20.993  13.864
42841W        W13441  20.240  19.561  14.479
42842W        W13442  18.979  34.447   2.236
42843W        W13443  10.176  14.551   4.040
42844W        W13444  23.211  39.442  11.636
42845W        W13445  21.763  32.858  14.846
42846W        W13446  17.867  24.626   4.546
42847W        W13447  41.297   6.502   5.006
42848W        W13448  38.229   1.457  13.580
42849W        W13449  33.037  41.880  12.195
42850W        W13450  22.037  43.311   4.656
42851W        W13451  39.063  27.571   2.620
42852W        W13452   5.214  44.520   0.044
42853W        W13453  18.845  40.359  12.431
42854W        W13454  20.399  43.502  12.416
42855W        W13455   7.939  26.074  14.965
42856W        W13456  25.897  14.669   3.327
42857W        W13457  35.254   1.755   4.062
42858W        W13458  22.763   0.253   2.256
42859W        W13459  17.724  26.260   2.911
42860W        W13460  27.683  24.539  13.158
42861W        W13461   4.669   9.776  11.573
42862W        W13462  20.830  22.126  11.935
42863W        W13463  10.791  37.067   2.367
42864W        W13464  30.741  32.622   4.621
42865W        W13465   2.374  13.410   0.307
42866W        W13466   7.249  43.548  13.933
42867W        W13467  30.065  35.876  12.781
42868W        W13468   6.608  31.112  14.888
42869W        W13469  40.044  26.852  14.810
42870W        W13470   4.269  33.794   0.772
42871W        W13471  23.873  16.776   1.761
42872W        W13472  22.691  19.447  11.569
42873W        W13473  22.293  33.525   1.392
42874W        W13474  13.544  15.201  11.363
42875W        W13475  33.495  11.888   5.192
42876W        W13476  17.597  15.778  14.009
42877W        W13477   8.429  19.023   3.195
42878W        W13478  11.657  36.039   0.885
42879W        W13479  37.642  42.494  10.474
42880W        W13480   5.537  27.057   3.665
42881W        W13481  35.634  19.804   1.900
42882W        W13482  30.731  22.174  10.754
42883W        W13483  28.110  20.856  14.384
42884W        W13484  27.716  15.611   2.745
42885W        W13485  31.043  23.711  11.535
42886W        W13486  33.433   7.596  11.037
42887W        W13487  34.920   5.387   1.667
42888W        W13488   5.229  40.427   9.939
42889W        W13489   2.842   5.240  14.310
42890W        W13490  38.376  36.599  10.908
42891W        W13491  37.327  40.837  13.336
42892W        W13492  10.451  25.242   2.629
42893W        W13493  18.557  41.512   0.925
42894W        W13494   6.013  17.232   1.747
42895W        W13495  16.565   6.727   0.749
42896W        W13496   2.707   1.723   1.851
42897W        W13497  13.750  19.168   1.891
42898W        W13498   4.242  26.373   4.860
42899W        W13499  34.880  41.789   0.841
42900W        W13500  31.227  25.584   4.261
42901W        W13501  38.924   2.168  13.460
42902W        W13502   2.078  25.200  12.492
42903W        W13503  39.326  13.174  11.650
42904W        W13504   5.706  17.148  10.666
42905W        W13505  15.747  20.239   1.663
42906W        W13506  12.387  24.563   3.428
42907W        W13507  26.555  13.287   2.129
42908W        W13508   9.286  26.604  12.588
42909W        W13509  29.608  33.667  10.946
42910W        W13510  15.442   1.354   0.639
42911W        W13511  36.799  42.403  10.949
42912W        W13512  37.014  22.200  10.599
42913W        W13513  40.630  10.816  14.842
42914W        W13514  29.827  19.072   3.756
42915W        W13515  42.511  36.111  12.765
42916W        W13516  28.569  19.262  14.148
42917W        W13517  29.588  44.867  12.306
42918W        W13518   7.289   2.244   3.152
42919W        W13519   4.314  19.093   3.752
42920W        W13520  22.149  14.140  13.576
42921W        W13521  33.138  20.680  10.709
42922W        W13522   8.429  23.126   3.827
42923W        W13523  44.871  23.190  13.297
42924W        W13524  23.643  19.485  14.833
42925W        W13525   6.989  24.284   0.367
42926W        W13526  12.676   9.702  14.475
42927W        W13527   0.422  35.149   0.415
42928W        W13528  12.700  34.221   0.871
42929W        W13529   5.773  11.706   2.611
42930W        W13530  12.693  32.913   1.617
42931W        W13531  33.141  12.336   3.235
42932W        W13532  24.340  13.883   4.194
42933W        W13533   8.320  25.608  10.673
42934W        W13534   3.193  25.638   0.683
42935W        W13535   4.452  34.910   2.248
42936W        W13536  34.571  15.264   1.308
42937W        W13537  19.185  27.686   5.029
42938W        W13538  33.781  42.291   1.439
42939W        W13539   3.895  37.035   3.108
42940W        W13540  18.792  40.550   4.052
42941W        W13541  35.076   9.787   3.806
42942W        W13542  16.871  27.633  12.453
42943W        W13543  36.835  21.690   0.103
42944W        W13544  23.769  21.709  14.953
42945W        W13545  27.343  42.087  14.108
42946W        W13546  17.517  42.858   0.823
42947W        W13547  12.184  40.231   3.281
42948W        W13548   5.681   8.632   1.704
42949W        W13549  44.214  21.630   0.681
42950W        W13550  39.047  43.105  10.784
42951W        W13551  20.279  42.691  14.898
42952W        W13552  18.532  26.179  12.179
42953W        W13553   6.219  38.014   1.748
42954W        W13554  14.328  18.736   5.165
42955W        W13555  21.661  11.936  13.780
42956W        W13556  43.818  40.948  13.398
42957W        W13557   6.805  40.468  13.072
42958W        W13558  14.690  28.213   2.674
42959W        W13559   2.299  35.126   4.502
42960W        W13560  10.191  42.993  13.700
42961W        W13561   6.091  34.902  11.402
42962W        W13562  13.054   3.347  11.183
42963W        W13563  41.994  26.581  10.732
42964W        W13564  41.898  24.052   0.348
42965W        W13565  24.540  36.854  14.431
42966W        W13566  12.320  33.892   1.640
42967W        W13567   0.713  40.442   2.969
42968W        W13568  43.795  15.314   3.939
42969W        W13569   6.501  24.760   2.263
42970W        W13570  23.619   1.161   3.458
42971W        W13571  10.358  14.599   1.450
42972W        W13572  33.239   3.429  10.069
42973W        W13573  15.627  26.786  10.773
42974W        W13574  30.133  31.464   3.860
42975W        W13575  20.124  21.449  10.936
42976W        W13576  44.483   7.209   3.581
42977W        W13577  11.177  31.814   2.755
42978W        W13578  11.652  23.099   3.672
42979W        W13579  30.503  30.776   1.903
42980W        W13580  13.547  32.210   1.776
42981W        W13581  22.875  39.634   3.260
42982W        W13582   5.718   9.304   4.419
42983W        W13583  19.339  28.887  13.884
42984W        W13584  44.404  27.967   4.272
42985W        W13585  43.310  11.084   1.416
42986W        W13586  35.347  38.517   0.962
42987W        W13587  44.781  30.826   2.326
42988W        W13588  39.992  33.489  13.269
42989W        W13589   9.192   8.734  14.846
42990W        W13590   3.737  23.449   4.405
42991W        W13591  41.931   8.219  13.816
42992W        W13592   1.498  40.135  12.993
42993W        W13593  28.666  28.612   4.641
42994W        W13594   5.338  17.052   1.274
42995W        W13595  28.916  42.419   2.965
42996W        W13596  12.887  26.237  10.675
42997W        W13597  34.544   8.581   3.168
42998W        W13598   1.925   5.874   0.396
42999W        W13599  36.877   8.754   0.248
43000W        W13600  12.705  11.351   2.226
43001W        W13601  28.887  40.957  11.619
43002W        W13602  23.347  35.383  14.504
43003W        W13603  11.253   9.890  11.140
43004W        W13604  30.984  15.033   2.217
43005W        W13605  40.194   7.775  13.352
43006W        W13606  10.396  10.358  13.123
43007W        W13607  16.179  40.426   0.928
43008W        W13608   4.390  40.263  11.998
43009W        W13609  11.847  39.487  10.306
43010W        W13610   3.342  10.649  10.690
43011W        W13611  14.106  17.157  12.482
43012W        W13612  18.178  15.411   2.376
43013W        W13613   2.865  42.736  13.469
43014W        W13614   0.865   8.808   4.238
43015W        W13615  44.279  30.606   0.542
43016W        W13616  39.187  42.722  13.808
43017W        W13617  13.788  16.626  13.177
43018W        W13618  36.613  43.558   1.512
43019W        W13619  19.824   1.302  12.026
43020W        W13620  17.516  26.585   2.330
43021W        W13621  19.355   6.776   3.275
43022W        W13622  36.747  40.758   0.313
43023W        W13623  36.181  36.296   0.372
43024W        W13624   2.885  44.126   3.265
43025W        W13625  16.534   7.990   4.161
43026W        W13626  17.257  38.714   2.911
43027W        W13627  15.066  10.954  12.092
43028W        W13628  10.177   6.678   2.373
43029W        W13629  19.723   3.352   1.468
43030W        W13630   4.001  43.006   1.618
43031W        W13631  10.923  38.814   4.677
43032W        W13632   9.205  25.784   1.836
43033W        W13633   6.256  10.959   2.571
43034W        W13634   7.963  35.413   4.819
43035W        W13635  16.852  14.164  11.672
43036W        W13636   3.254   3.197  11.151
43037W        W13637   0.687  28.914   2.866
43038W        W13638   3.916  37.966  13.823
43039W        W13639   4.197  32.120   2.693
43040W        W13640  20.094  31.405   1.309
43041W        W13641  13.157   9.624  11.557
43042W        W13642  16.183  44.861  13.107
43043W        W13643   0.360  32.152  12.122
43044W        W13644   3.770  25.188  12.332
43045W        W13645  12.294  31.389  11.881
43046W        W13646  24.729  36.387  11.534
43047W        W13647  34.658  27.164  10.673
43048W        W13648  14.267  40.083   3.170
43049W        W13649  19.023  25.412  12.423
43050W        W13650  21.045  17.317   0.871
43051W        W13651  36.391  20.662   0.129
43052W        W13652   3.849  19.733  11.194
43053W        W13653  14.186  37.488  13.924
43054W        W13654  29.201  19.119   4.664
43055W        W13655  38.825  30.125  14.824
43056W        W13656  29.393  33.304   5.064
43057W        W13657   9.268   3.117  13.871
43058W        W13658  38.797  33.634   3.202
43059W        W13659  42.002  33.866   4.742
43060W        W13660  13.832  13.262  14.205
43061W        W13661   2.542  35.392   0.280
43062W        W13662  31.688  17.665  12.019
43063W        W13663   3.407  12.554   2.370
43064W        W13664  38.792   6.722  11.032
43065W        W13665  38.101  43.438   1.252
43066W        W13666  22.959  30.413  13.982
43067W        W13667  33.730  29.971  12.398
43068W        W13668  17.455  36.059  11.747
43069W        W13669  35.837  17.732  14.384
43070W        W13670   2.140  21.077   1.441
43071W        W13671  43.962  21.435   3.556
43072W        W13672  29.058   3.413   0.854
43073W        W13673  12.845  44.026   5.092
43074W        W13674  24.804  30.160  11.497
43075W        W13675   5.902  32.555   2.683
43076W        W13676  40.948  21.048   4.075
43077W        W13677  30.577  13.706  11.538
43078W        W13678   1.226   3.822   4.588
43079W        W13679  30.722  44.991  13.437
43080W        W13680  19.567  19.635   0.790
43081W        W13681  44.207  23.004  14.757
43082W        W13682  23.744  32.967   2.725
43083W        W13683  16.296   6.922  14.420
43084W        W13684  35.274  17.676  11.521
43085W        W13685  44.542  20.674   4.183
43086W        W13686   8.850  11.377   1.389
43087W        W13687  34.538  28.260   0.851
43088W        W13688  13.703  15.729   3.796
43089W        W13689  26.790  18.773  13.538
43090W        W13690   6.223  44.197  14.894
43091W        W13691  41.509  42.019  12.085
43092W        W13692  29.428  12.849  12.526
43093W        W13693   4.352   3.980  12.541
43094W        W13694   0.769  19.124   4.534
43095W        W13695  39.841  44.468  13.468
43096W        W13696  10.584  18.259  14.167
43097W        W13697  27.678  15.394  12.952
43098W        W13698   6.135  37.126   0.664
43099W        W13699  15.377  31.855  14.891
43100W        W13700  14.175  13.838   0.759
43101W        W13701  11.704  37.404   1.293
43102W        W13702  13.247   6.950  12.423
43103W        W13703  17.847  37.139   4.353
43104W        W13704  39.866  38.379  14.558
43105W        W13705  14.724  41.971  13.606
43106W        W13706  36.073  43.446  11.628
43107W        W13707  11.670  21.568   3.266
43108W        W13708  32.970  12.368  11.907
43109W        W13709  26.073  36.933  14.545
43110W        W13710  42.579  13.573  13.493
43111W        W13711  20.472  23.602   3.184
43112W        W13712  41.754   6.280   3.685
43113W        W13713   6.024  35.060  13.504
43114W        W13714   0.382  24.003  12.525
43115W        W13715  26.975  16.886   3.288
43116W        W13716  17.502  12.524   0.526
43117W        W13717   3.965  32.017  14.013
43118W        W13718  25.948  23.027   1.013
43119W        W13719  20.979   8.415   3.405
43120W        W13720   3.485  19.976  14.933
43121W        W13721  44.837   1.968  11.057
43122W        W13722   2.981  13.233  11.548
43123W        W13723  22.442  33.632   4.488
43124W        W13724  12.673   7.330   4.120
43125W        W13725  15.910  31.957   2.785
43126W        W13726   7.910  34.944   2.310
43127W        W13727  24.117  25.312   1.829
43128W        W13728  29.413  15.806  13.927
43129W        W13729  33.913  17.802  12.373
43130W        W13730  34.839   5.407  13.535
43131W        W13731   1.986  12.165  12.488
43132W        W13732  36.524  14.436   2.242
43133W        W13733  12.815  20.158   0.462
43134W        W13734  29.680  34.111  13.846
43135W        W13735  23.588  37.232   1.353
43136W        W13736  25.096  20.559   4.034
43137W        W13737  29.131  36.569  10.730
43138W        W13738  29.934  37.945   1.236
43139W        W13739  33.765  32.371  14.403
43140W        W13740  32.490   6.360  14.767
43141W        W13741  12.643  38.961  12.535
43142W        W13742   3.841   2.815  14.573
43143W        W13743  14.385   0.455   0.416
43144W        W13744  14.290  40.020  14.736
43145W        W13745  19.971  25.661   2.646
43146W        W13746  40.279   7.018  12.537
43147W        W13747  24.496  29.673   4.713
43148W        W13748  14.345  14.329   0.049
43149W        W13749  29.644  22.163  12.553
43150W        W13750   8.987   0.258  14.996
43151W        W13751  40.993  44.995  14.486
43152W        W13752  30.394   2.472  11.938
43153W        W13753   6.226  17.477  10.734
43154W        W13754   5.241  27.017   1.166
43155W        W13755  13.608   1.273   2.816
43156W        W13756  16.137  13.722  14.989
43157W        W13757  19.276   6.255   1.981
43158W        W13758  37.991  35.757   1.823
43159W        W13759   3.848  18.885  10.691
43160W        W13760  12.099  12.344  13.779
43161W        W13761  33.256  37.177   0.217
43162W        W13762  38.083  25.200   2.177
43163W        W13763  15.787  37.345   0.674
43164W        W13764  23.476  34.958  13.016
43165W        W13765  35.987  29.046   2.404
43166W        W13766  31.133  18.634  13.779
43167W        W13767   7.826  25.781  10.745
43168W        W13768  22.280  40.779   0.196
43169W        W13769  24.711  26.467  14.549
43170W        W13770  21.651  18.120  14.805
43171W        W13771   2.661  41.724   0.322
43172W        W13772  38.483  13.087  14.620
43173W        W13773   7.303  12.381  12.655
43174W        W13774  19.090  32.792   0.514
43175W        W13775  30.928  29.613   2.256
43176W        W13776   4.709   5.329   2.478
43177W        W13777  37.907  11.367   1.120
43178W        W13778  36.597  31.102  11.625
43179W        W13779  14.106   4.812  13.037
43180W        W13780   0.138   1.244  10.671
43181W        W13781  43.532  19.541   5.019
43182W        W13782   9.173  20.946   4.591
43183W        W13783  28.062   0.545   0.405
43184W        W13784  28.907  38.121   1.360
43185W        W13785  10.124   4.837  10.735
43186W        W13786   9.373  20.610   1.395
43187W        W13787  17.761  43.833  14.913
43188W        W13788  19.230  24.686  14.907
43189W        W13789  24.214  14.690   1.833
43190W        W13790  15.028  44.072   2.641
43191W        W13791   1.648  11.713  14.755
43192W        W13792  26.161  26.897  11.885
43193W        W13793  40.062  14.665   2.867
43194W        W13794  31.524   0.869   0.990
43195W        W13795   9.197   7.154   3.201
43196W        W13796  44.717   1.438   3.247
43197W        W13797  24.211  24.033  12.390
43198W        W13798  40.092   1.198   0.326
43199W        W13799  17.816  21.410  14.166
43200W        W13800  25.815  43.057   2.608
43201W        W13801  44.551  42.031  14.761
43202W        W13802  40.793  27.196   2.280
43203W        W13803   1.865  40.572   4.708
43204W        W13804  33.344  34.904   4.846
43205W        W13805  31.240  43.903  14.482
43206W        W13806  29.961  33.896  11.245
43207W        W13807  32.598  29.411   4.226
43208W        W13808  11.354  17.764   1.891
43209W        W13809  16.810  30.644  13.445
43210W        W13810  22.974   0.743   1.819
43211W        W13811   0.016  22.935  11.918
43212W        W13812  40.756   7.968   0.756
43213W        W13813  38.776  38.797  11.842
43214W        W13814   7.675  17.977   3.372
43215W        W13815  17.879  14.665   0.913
43216W        W13816  34.928   3.283   2.819
43217W        W13817  32.358  31.014  14.670
43218W        W13818   6.340   3.269   3.108
43219W        W13819  31.556  15.340  14.828
43220W        W13820   9.241  33.127   0.432
43221W        W13821  32.491  18.369  11.281
43222W        W13822  39.317   2.027  13.101
43223W        W13823   0.867  35.437  13.874
43224W        W13824  43.777   8.927   0.353
43225W        W13825  13.954   0.522  14.344
43226W        W13826  16.786  12.306   3.798
43227W        W13827  23.936   6.090   4.684
43228W        W13828   5.795  11.709  11.936
43229W        W13829   9.146  37.038  12.365
43230W        W13830  22.514  42.044   0.451
43231W        W13831   1.298  23.618  13.290
43232W        W13832  22.328  17.305  11.013
43233W        W13833  35.207  39.877   3.358
43234W        W13834  14.215  12.895  14.271
43235W        W13835  29.868  15.367   4.425
43236W        W13836  33.530  42.147   2.327
43237W        W13837  25.517  27.493   3.667
43238W        W13838  20.576  39.787   2.160
43239W        W13839  27.098  30.015   4.189
43240W        W13840  43.424   2.186   2.298
43241W        W13841  32.420  24.520  12.334
43242W        W13842  25.992  43.824   0.488
43243W        W13843  11.998  31.491  14.128
43244W        W13844  14.250   0.963   0.352
43245W        W13845   3.029  44.711  11.600
43246W        W13846  40.893  39.346  13.818
43247W        W13847  27.672  18.794  11.467
43248W        W13848  15.684  24.698  13.886
43249W        W13849  33.012  35.957  10.754
43250W        W13850  42.046  30.868   3.868
43251W        W13851  17.350  13.984  13.018
43252W        W13852  39.572   0.405   3.995
43253W        W13853   1.748  26.669  12.001
43254W        W13854  41.597  36.505   5.154
43255W        W13855  36.397  10.819  14.352
43256W        W13856   9.165   6.634  14.801
43257W        W13857   1.949  25.632  10.751
43258W        W13858  11.393  36.047  11.585
43259W        W13859  17.347  13.378  10.142
43260W        W13860   8.781   5.345  11.090
43261W        W13861  39.101  28.497   2.395
43262W        W13862  22.740  34.697   1.217
43263W        W13863  19.142  40.269   0.284
43264W        W13864  35.429  34.901   4.103
43265W        W13865   0.148  26.033   0.691
43266W        W13866  21.741  38.075   4.731
43267W        W13867   6.658  27.952   0.953
43268W        W13868   7.286   5.393   2.738
43269W        W13869  18.610  44.774  11.835
43270W        W13870  15.079  43.386   9.610
43271W        W13871  11.772  18.875  12.686
43272W        W13872   7.299  42.441   1.334
43273W        W13873  16.063   8.873  13.594
43274W        W13874  44.497   4.483   0.757
43275W        W13875  33.638   1.963   1.766
43276W        W13876  24.985   2.723  14.531
43277W        W13877  27.666  41.847  11.077
43278W        W13878  10.218  34.993  12.250
43279W        W13879  42.285   7.648  13.588
43280W        W13880  14.436  21.956   3.801
43281W        W13881  17.765   0.517   4.766
43282W        W13882  21.551   7.365   0.829
43283W        W13883  42.847  23.728  11.881
43284W        W13884  30.597   2.537  13.835
43285W        W13885  38.149  38.886   0.351
43286W        W13886  25.418  21.454  10.364
43287W        W13887  13.941  28.510  11.108
43288W        W13888  14.938  36.964  11.231
43289W        W13889  24.243  12.791   1.671
43290W        W13890   3.277  21.182   0.255
43291W        W13891   1.712  17.081  11.178
43292W        W13892  39.016  44.782   3.627
43293W        W13893  35.081  42.995   2.380
43294W        W13894  21.772  40.418   0.787
43295W        W13895  28.496  38.543   3.224
43296W        W13896   1.863  19.742  11.225
43297W        W13897   5.998   3.361  13.963
43298W        W13898   6.455  12.837   2.311
43299W        W13899  27.381  44.836   1.802
43300W        W13900  26.549  22.263   4.065
43301W        W13901  24.682  20.819  11.823
43302W        W13902   2.969  41.265  13.884
43303W        W13903  28.628  23.654   1.255
43304W        W13904  24.057  18.236   1.540
43305W        W13905   0.037  23.557   3.557
43306W        W13906   9.388   6.072   4.693
43307W        W13907   8.696   8.163   0.337
43308W        W13908  18.349  27.958  13.781
43309W        W13909  10.751  43.927   2.845
43310W        W13910  23.610  30.140  12.549
43311W        W13911  16.865   4.782  11.583
43312W        W13912  33.108  22.014   3.123
43313W        W13913  16.057  39.473  11.627
43314W        W13914  13.966  10.284   4.188
43315W        W13915  12.126  35.852  11.950
43316W        W13916  30.530  29.999  11.660
43317W        W13917   5.103  17.189   3.628
43318W        W13918  18.173  42.793   0.245
43319W        W13919   5.951  15.059   2.779
43320W        W13920  38.870   5.912  13.162
43321W        W13921  42.267  18.183  11.674
43322W        W13922  28.621  30.003   1.932
43323W        W13923  41.429  14.848   3.614
43324W        W13924  36.016  29.164  11.168
43325W        W13925  30.495   9.403   1.267
43326W        W13926  24.995  14.110  12.653
43327W        W13927  11.118   1.363   3.409
43328W        W13928   5.188   0.451   1.712
43329W        W13929  29.840  33.100   1.173
43330W        W13930  22.823  15.153   1.375
43331W        W13931   5.881  22.557  13.335
43332W        W13932   2.693  27.097  10.784
43333W        W13933  27.492  31.707   0.971
43334W        W13934  41.208   0.009   3.742
43335W        W13935  42.309  12.848  13.083
43336W        W13936   6.045  26.560  14.369
43337W        W13937  44.397  43.315   3.209
43338W        W13938  14.747  11.135  11.555
43339W        W13939  30.411  32.229   1.750
43340W        W13940  22.210   6.774   3.740
43341W        W13941  26.393  26.530  11.601
43342W        W13942  26.869   0.871  14.325
43343W        W13943   0.483  21.836  10.385
43344W        W13944  40.766  13.810  13.477
43345W        W13945   3.222  12.405   4.219
43346W        W13946   4.691  28.972  12.231
43347W        W13947  37.334  13.102  11.606
43348W        W13948  43.430  36.054   4.159
43349W        W13949  32.660  16.084  10.514
43350W        W13950  43.965  41.760  12.983
43351W        W13951   6.206   8.892   1.929
43352W        W13952  29.195  30.080   3.173
43353W        W13953  28.074  10.975  13.653
43354W        W13954   5.581  40.879  14.147
43355W        W13955  10.738   5.761  13.055
43356W        W13956  20.329  26.566   3.782
43357W        W13957  29.169   8.385   4.428
43358W        W13958  13.371  17.639   2.247
43359W        W13959  44.190  44.138  11.158
43360W        W13960  43.879  40.515   2.581
43361W        W13961  22.018   7.846   4.196
43362W        W13962  40.592   2.057   3.804
43363W        W13963  36.048  21.162   1.876
43364W        W13964  35.503   0.986  12.484
43365W        W13965  36.980  11.090  11.775
43366W        W13966  19.887  23.600   0.649
43367W        W13967  11.712  11.860   0.326
43368W        W13968  14.461   5.984   1.840
43369W        W13969   4.825  16.120  13.420
43370W        W13970  42.087  29.520  13.951
43371W        W13971   2.005  25.594   2.738
43372W        W13972  44.882  39.301  13.080
43373W        W13973  24.777  35.132  14.879
43374W        W13974  42.529  30.599   0.862
43375W        W13975  15.962   3.554   5.084
43376W        W13976  11.777   7.119   2.463
43377W        W13977   9.336   3.886   0.331
43378W        W13978  16.628  41.476  10.850
43379W        W13979  37.113  13.810   1.906
43380W        W13980  42.892   4.157  11.259
43381W        W13981  28.102  36.853   4.095
43382W        W13982  13.237  16.203   0.213
43383W        W13983  37.825  43.442   4.576
43384W        W13984  44.405  42.861   0.429
43385W        W13985  42.438   0.882   2.964
43386W        W13986  36.301  29.529  14.286
43387W        W13987  37.543  40.610   2.484
43388W        W13988  11.067  35.402  12.517
43389W        W13989  27.409   5.689   2.791
43390W        W13990  32.679  34.380  12.102
43391W        W13991  24.655  16.121  13.885
43392W        W13992  15.588  20.977   3.693
43393W        W13993  24.229  20.731  10.632
43394W        W13994  43.766  34.993  11.563
43395W        W13995   0.392  24.589  10.648
43396W        W13996  41.111  35.060   0.894
43397W        W13997   4.337  31.611   2.700
43398W        W13998  16.427  27.550   1.761
43399W        W13999  21.531  17.994   0.408
43400W        W14000  19.127  27.145   2.835
43401W        W14001   6.145  39.570   0.929
43402W        W14002  10.228   4.843   2.897
43403W        W14003  38.676  21.198   4.014
43404W        W14004  10.712  11.400   3.459
43405W        W14005  27.227  17.057  14.862
43406W        W14006  18.249   6.551  12.101
43407W        W14007   5.204  42.222  13.766
43408W        W14008  44.286   7.755  10.799
43409W        W14009  19.049  21.892   0.969
43410W        W14010   7.914  30.607   3.222
43411W        W14011  27.173  38.348   3.948
43412W        W14012  36.684  26.652   1.839
43413W        W14013  31.516  37.192  13.091
43414W        W14014   8.672   7.774   3.728
43415W        W14015  39.822   6.333   4.051
43416W        W14016  31.903   7.205   1.755
43417W        W14017  25.131   6.928  11.430
43418W        W14018  20.784  22.684  11.336
43419W        W14019  30.242  42.372   3.778
43420W        W14020  34.104   1.139  13.903
43421W        W14021  25.768  20.577   1.228
43422W        W14022  31.324  29.518  14.742
43423W        W14023  18.256   7.909   2.203
43424W        W14024  12.485  21.199   3.158
43425W        W14025  34.034   3.708  12.843
43426W        W14026  35.440  30.371  14.781
43427W        W14027  21.254   2.517   4.125
43428W        W14028  19.030   6.125  12.065
43429W        W14029  35.089   4.373   0.825
43430W        W14030   2.201  42.499   0.822
43431W        W14031  10.799  13.063   0.394
43432W        W14032  31.917   5.604   2.637
43433W        W14033  38.103  42.450   0.223
43434W        W14034   0.852  21.847   0.062
43435W        W14035  26.464  32.885   1.335
43436W        W14036  11.265   3.319  10.368
43437W        W14037  43.746  21.701   0.472
43438W        W14038  21.995  18.742   1.402
43439W        W14039   8.332   7.783   4.689
43440W        W14040  21.508   8.798   1.104
43441W        W14041  18.343  24.047  14.805
43442W        W14042  22.715   2.348   1.209
43443W        W14043  27.899  28.526   2.503
43444W        W14044  40.293  12.263   1.884
43445W        W14045  38.454  22.474   3.686
43446W        W14046   1.950  29.597   2.859
43447W        W14047  25.108  39.589  12.442
43448W        W14048   4.927  16.619  12.529
43449W        W14049  40.115   1.934   4.071
43450W        W14050   5.668  18.315   4.812
43451W        W14051  42.021  44.349   9.890
43452W        W14052  22.715  33.593   0.556
43453W        W14053   6.742  13.866  13.126
43454W        W14054  30.609  28.901   3.339
43455W        W14055   0.710  12.584   4.184
43456W        W14056  29.579  13.201   1.254
43457W        W14057   9.509  43.032   0.779
43458W        W14058  15.082   2.872  10.758
43459W        W14059  19.570  27.718   3.265
43460W        W14060  37.301  19.249   2.750
43461W        W14061   9.053   6.140  14.899
43462W        W14062   9.873   3.157  10.706
43463W        W14063   8.308  22.142   3.067
43464W        W14064   3.169  11.189   4.179
43465W        W14065   4.980   2.437  13.010
43466W        W14066  16.752  19.695  11.909
43467W        W14067  44.962  20.605   2.887
43468W        W14068  36.876  30.335   3.714
43469W        W14069  25.215  19.618   1.339
43470W        W14070  16.534  40.106   3.779
43471W        W14071  43.795  21.719  13.091
43472W        W14072  14.115  17.783   2.674
43473W        W14073  14.058  34.045  11.188
43474W        W14074  38.337  20.040   3.134
43475W        W14075  24.180  37.344  11.226
43476W        W14076  22.369  39.870   0.973
43477W        W14077  33.532  14.125   2.452
43478W        W14078  37.877  23.383  12.480
43479W        W14079  22.389   9.346   3.050
43480W        W14080   8.267  39.797  14.862
43481W        W14081   3.156  24.596  14.477
43482W        W14082   9.327  28.179   3.164
43483W        W14083  32.406  27.050   0.798
43484W        W14084  37.990  25.220   0.891
43485W        W14085  41.968  23.671   1.801
43486W        W14086  23.682  41.995  11.589
43487W        W14087  20.206  24.727  14.852
43488W        W14088  43.810  24.207   2.741
43489W        W14089  12.507  11.815  14.763
43490W        W14090  35.601  42.198  12.653
43491W        W14091  19.164  15.323   1.733
43492W        W14092  10.286  18.336  10.727
43493W        W14093  15.452  22.230   5.120
43494W        W14094  18.856  41.603  12.153
43495W        W14095  26.590  36.563   3.146
43496W        W14096  23.242  44.029   1.341
43497W        W14097  26.046  21.321  10.680
43498W        W14098  17.585  11.607  12.022
43499W        W14099  26.469   0.572   1.245
43500W        W14100   4.360  13.121   2.831
43501W        W14101  30.129  22.950   3.275
43502W        W14102  14.879  31.914  14.893
43503W        W14103  18.246  24.897   4.827
43504W        W14104  22.224   9.132   1.218
43505W        W14105  29.251   9.379  13.984
43506W        W14106  17.088  29.484   0.961
43507W        W14107   1.211  35.913  11.519
43508W        W14108  36.458  20.623   2.466
43509W        W14109  23.150  35.304  11.210
43510W        W14110  20.622  18.480   2.442
43511W        W14111  14.243  13.687   3.757
43512W        W14112   7.682  37.416  12.975
43513W        W14113   3.006  43.621   3.990
43514W        W14114  11.647  37.472   0.753
43515W        W14115  11.333  12.742  12.273
43516W        W14116  14.805   1.013   0.138
43517W        W14117  19.476  35.798   3.322
43518W        W14118  40.487  17.166   0.783
43519W        W14119  37.574  30.166   1.185
43520W        W14120  40.546  13.098   3.675
43521W        W14121  36.819  39.434  11.968
43522W        W14122  21.831  38.895  12.503
43523W        W14123  32.878  35.402  12.055
43524W        W14124  20.455   7.819  13.053
43525W        W14125  37.490   4.857   3.846
43526W        W14126  23.489  11.131  14.063
43527W        W14127  11.838  34.375  12.090
43528W        W14128  26.462  33.619   3.203
43529W        W14129  40.167  31.131  12.362
43530W        W14130  10.676  13.768   0.410
43531W        W14131  30.723  32.934  13.411
43532W        W14132  32.935  20.030   4.874
43533W        W14133  19.347   7.285  14.807
43534W        W14134   0.518   1.415  11.423
43535W        W14135  29.749   8.610   3.269
43536W        W14136  35.789  43.493  14.448
43537W        W14137   5.913  27.068  10.587
43538W        W14138  38.934   4.871  10.256
43539W        W14139   9.593  23.247  11.119
43540W        W14140  43.258   7.756  12.287
43541W        W14141  44.824  13.602  12.070
43542W        W14142  31.344  12.824   0.283
43543W        W14143  32.960  34.125   4.613
43544W        W14144   4.421  21.984   4.503
43545W        W14145  19.291  13.487   0.847
43546W        W14146  32.998  26.481   0.925
43547W        W14147  44.801  22.525   4.803
43548W        W14148  41.513  17.902  12.314
43549W        W14149  34.848   3.810  14.275
43550W        W14150  10.160  31.410  10.796
43551W        W14151   9.698  25.498  14.309
43552W        W14152  32.546   2.631   3.907
43553W        W14153  39.287  11.627  12.930
43554W        W14154  36.993  42.545  13.878
43555W        W14155   4.579  36.041   1.820
43556W        W14156  24.266  34.975   2.796
43557W        W14157  13.057  11.820  14.533
43558W        W14158  42.725  37.897  12.472
43559W        W14159  18.500   1.496   2.640
43560W        W14160  29.651  16.344  12.631
43561W        W14161   4.942  22.797   0.699
43562W        W14162   5.944   8.934   0.810
43563W        W14163  24.156   5.137   2.159
43564W        W14164  12.769  44.126   4.168
43565W        W14165   6.411  10.068   3.701
43566W        W14166  10.786  30.472   2.472
43567W        W14167   7.409  38.906   4.686
43568W        W14168  16.380   2.766   4.137
43569W        W14169  15.262  24.833   5.062
43570W        W14170  14.783  35.905   0.938
43571W        W14171   9.064  26.537  13.905
43572W        W14172  36.056   4.774  13.347
43573W        W14173  26.716   4.816   0.286
43574W        W14174  24.572   6.843  10.721
43575W        W14175  16.592  33.324   4.143
43576W        W14176  42.829  43.438  11.904
43577W        W14177  43.888   8.931  11.550
43578W        W14178  29.452  13.600  14.870
43579W        W14179   2.716   4.861   0.913
43580W        W14180  40.998  10.236  10.618
43581W        W14181   3.449  18.820   1.657
43582W        W14182  36.781  31.640   0.331
43583W        W14183  17.383   4.889  11.598
43584W        W14184  21.052   5.464  13.155
43585W        W14185   2.217  22.008   1.687
43586W        W14186  31.858  24.121   2.156
43587W        W14187  17.937  38.758   2.184
43588W        W14188   3.687  32.893  13.297
43589W        W14189  21.264  42.410   2.028
43590W        W14190  23.102   3.861   4.577
43591W        W14191  42.458  26.151  12.732
43592W        W14192   3.198  34.073  13.597
43593W        W14193   0.340  23.870   3.872
43594W        W14194  29.506  11.287   4.544
43595W        W14195  34.424  25.553  14.019
43596W        W14196   5.905  28.250  13.773
43597W        W14197   3.064  17.027   1.004
43598W        W14198  18.247  35.493   3.679
43599W        W14199  32.715  35.861  11.714
43600W        W14200   0.008  11.284   4.397
43601W        W14201  30.431  28.622   4.304
43602W        W14202  11.145  13.784   3.252
43603W        W14203  38.447   1.038   4.982
43604W        W14204  37.368  37.945  14.273
43605W        W14205  30.099  30.586   3.097
43606W        W14206  34.595   3.378   0.392
43607W        W14207  23.998  23.260   0.487
43608W        W14208   3.766  29.553   3.642
43609W        W14209  36.174  23.736   2.639
43610W        W14210  31.680   5.264  11.928
43611W        W14211  10.693  44.235  11.339
43612W        W14212   2.438  39.420  12.063
43613W        W14213  21.358  24.304  14.968
43614W        W14214  34.884  34.603  10.646
43615W        W14215  38.678  29.907   0.287
43616W        W14216  13.088  10.794   4.783
43617W        W14217  36.177   0.422  12.151
43618W        W14218  39.443   6.499  12.145
43619W        W14219  31.866  44.828  11.116
43620W        W14220  30.434  30.697   0.424
43621W        W14221  29.509  43.442  14.309
43622W        W14222  12.207  20.551   2.621
43623W        W14223   9.713  17.703  12.126
43624W        W14224  25.293  35.063  12.914
43625W        W14225   7.947  36.967   2.718
43626W        W14226  20.062  13.705   0.335
43627W        W14227  19.794  19.541  14.735
43628W        W14228  39.043  23.106  11.999
43629W        W14229  27.732  38.983  12.949
43630W        W14230   9.331  37.599  14.415
43631W        W14231  38.805  42.797  11.121
43632W        W14232  20.079  39.810   3.907
43633W        W14233  33.919  36.308   3.620
43634W        W14234  35.154  41.932  14.904
43635W        W14235   8.756  11.140   4.516
43636W        W14236  31.988  14.178   0.959
43637W        W14237  14.125  27.522   4.450
43638W        W14238  26.231  30.387  14.313
43639W        W14239  17.562   0.332  11.339
43640W        W14240  43.509  29.633   0.936
43641W        W14241  24.877  43.860   4.526
43642W        W14242  25.415  30.634   4.739
43643W        W14243  12.830  44.389   0.843
43644W        W14244  18.639  18.706  11.854
43645W        W14245  43.843   6.469   3.643
43646W        W14246  26.904  21.443   4.826
43647W        W14247  27.792  20.521  12.463
43648W        W14248  43.440  22.772   1.719
43649W        W14249  39.267   6.697   4.134
43650W        W14250   4.124  42.302   3.735
43651W        W14251  28.147  28.197   0.760
43652W        W14252  16.791  25.920   0.797
43653W        W14253   0.938  26.660  12.943
43654W        W14254  27.645  14.072  11.221
43655W        W14255  23.471  12.609  12.525
43656W        W14256   9.472   9.386   1.059
43657W        W14257  12.337   6.208  11.594
43658W        W14258  43.832  13.737   0.133
43659W        W14259  38.320   1.459   4.678
43660W        W14260  29.036  42.914  13.929
43661W        W14261  44.930  37.929   1.666
43662W        W14262  15.759  25.604  10.331
43663W        W14263  22.953   3.651   4.120
43664W        W14264  42.424  26.931   3.347
43665W        W14265   9.623  27.280   4.071
43666W        W14266  10.125  29.728   3.667
43667W        W14267   6.187   3.346  10.275
43668W        W14268  36.620  14.526  13.330
43669W        W14269  21.047  26.318  13.813
43670W        W14270  42.308   5.175   2.292
43671W        W14271  32.159  33.040   3.879
43672W        W14272   4.294   3.931  14.766
43673W        W14273  10.851  20.799  11.564
43674W        W14274   4.706  20.192   0.401
43675W        W14275  33.503  40.974  12.449
43676W        W14276  15.585  34.559  11.679
43677W        W14277  24.939  38.615  14.353
43678W        W14278   3.412  44.593  13.417
43679W        W14279  30.916  12.593  12.450
43680W        W14280   3.039  21.636   1.819
43681W        W14281   2.202  26.140   2.220
43682W        W14282  35.589  25.256   0.010
43683W        W14283   1.411  36.680   4.265
43684W        W14284  40.343  20.778   1.885
43685W        W14285  10.401  20.192   5.044
43686W        W14286   9.819  23.104   3.711
43687W        W14287  36.263   6.330  13.052
43688W        W14288  41.537  36.909  10.834
43689W        W14289  25.321  43.769   3.591
43690W        W14290  38.910  25.425  11.617
43691W        W14291   7.855  33.930   3.766
43692W        W14292  23.256   9.444   4.522
43693W        W14293  43.781  35.384   4.113
43694W        W14294  27.203  23.100  10.754
43695W        W14295  42.309  13.025   1.286
43696W        W14296  41.466  10.355   1.705
43697W        W14297  16.276  20.831  11.250
43698W        W14298  24.891   6.769   1.402
43699W        W14299  14.059  38.817   2.288
43700W        W14300  27.129  19.971  14.054
43701W        W14301  19.034   8.784   0.487
43702W        W14302  13.860  29.631   5.077
43703W        W14303  35.020  13.874   4.945
43704W        W14304  14.612   9.123  12.428
43705W        W14305  43.014  42.467  11.659
43706W        W14306  20.748   4.177  14.499
43707W        W14307  19.738  24.653   3.220
43708W        W14308  43.091  36.304  11.930
43709W        W14309  23.297  12.220   0.490
43710W        W14310   2.340  29.492   1.794
43711W        W14311  18.185   4.451   3.282
43712W        W14312  13.573  23.110   1.240
43713W        W14313   8.449   4.198  11.138
43714W        W14314   4.453  27.795   0.247
43715W        W14315   3.335   3.729  12.579
43716W        W14316  12.513  19.184   0.718
43717W        W14317   5.529  16.554  13.594
43718W        W14318  34.238   0.013   2.609
43719W        W14319  16.339   1.822  14.400
43720W        W14320  36.823   6.912   2.885
43721W        W14321  18.119   6.117   0.797
43722W        W14322  43.953  28.116  13.992
43723W        W14323  33.836   8.001  14.225
43724W        W14324   8.939  31.325  11.192
43725W        W14325  16.479  11.272  10.676
43726W        W14326  32.880   6.137   2.422
43727W        W14327   1.782   3.398   4.188
43728W        W14328   2.690  10.866  13.354
43729W        W14329  26.106  41.400   3.553
43730W        W14330  26.809  21.770   1.817
43731W        W14331  25.450   2.500  14.726
43732W        W14332  16.748  10.017   1.876
43733W        W14333  23.776  26.087   3.538
43734W        W14334  37.602  13.937  11.587
43735W        W14335  13.251  36.317   2.662
43736W        W14336   1.709   6.084  14.818
43737W        W14337  43.820  24.488  12.453
43738W        W14338  10.777  32.332   2.602
43739W        W14339  35.303  30.658   4.427
43740W        W14340  25.150  11.459  12.842
43741W        W14341  29.502   4.853  11.936
43742W        W14342   1.265  14.836   4.424
43743W        W14343  40.520  18.052  12.589
43744W        W14344  28.426   2.050  12.623
43745W        W14345  39.378  18.764   0.231
43746W        W14346   4.963  17.965   4.613
43747W        W14347  10.249  37.242  10.870
43748W        W14348  23.385  22.815  11.176
43749W        W14349  12.328  43.999   3.914
43750W        W14350  36.272   8.756   2.406
43751W        W14351  17.069  43.760   0.810
43752W        W14352  22.752   9.207   1.253
43753W        W14353  39.800   5.930   0.839
43754W        W14354  15.764  38.537  11.917
43755W        W14355   9.387  33.198  12.982
43756W        W14356  38.944  13.996  11.533
43757W        W14357   4.317  21.196   4.074
43758W        W14358   1.202   1.376   3.261
43759W        W14359   7.776  25.262   2.391
43760W        W14360  21.635  20.107   3.288
43761W        W14361   4.196   1.037  14.485
43762W        W14362  32.619  19.589  11.972
43763W        W14363  24.663  20.327   0.352
43764W        W14364  16.732  19.212  13.660
43765W        W14365  19.485  26.222   3.203
43766W        W14366  22.871  34.079   0.692
43767W        W14367  44.166  42.940  14.276
43768W        W14368  41.898  28.516  12.067
43769W        W14369  39.980  21.740   2.249
43770W        W14370  22.091  26.606  12.193
43771W        W14371  10.222   6.755   4.272
43772W        W14372  31.935  11.103   3.709
43773W        W14373  42.871  30.321  11.960
43774W        W14374  34.746  32.780  13.368
43775W        W14375  20.663  22.191   4.197
43776W        W14376   0.802   9.817   0.509
43777W        W14377  35.626   3.659   2.914
43778W        W14378   3.428  39.731   1.836
43779W        W14379   8.744   2.205  11.730
43780W        W14380  22.157  20.387  10.712
43781W        W14381  38.433  16.695   1.756
43782W        W14382   2.483  23.213  11.405
43783W        W14383  20.210  25.192  12.734
43784W        W14384  16.492   8.896  14.330
43785W        W14385  22.029   5.333  13.468
43786W        W14386  28.737  12.631  12.138
43787W        W14387  28.936  33.234   4.853
43788W        W14388  24.744   1.359   2.878
43789W        W14389  15.888  28.876   2.861
43790W        W14390  34.125   6.141  12.126
43791W        W14391  23.515  25.154  14.970
43792W        W14392   7.201  17.619   0.568
43793W        W14393   5.968   2.055   2.924
43794W        W14394  29.796   4.716  14.442
43795W        W14395  22.058   4.189   0.896
43796W        W14396  18.663  20.632   2.493
43797W        W14397  40.461   6.227   0.764
43798W        W14398   2.665   4.383  10.629
43799W        W14399  39.889  32.551  13.362
43800W        W14400  37.092  12.876   1.832
43801W        W14401   6.643   7.478   4.236
43802W        W14402  18.165  18.417   3.441
43803W        W14403   0.947   8.598  11.952
43804W        W14404  17.720  38.084   4.155
43805W        W14405  39.491  15.701  13.132
43806W        W14406   6.035  19.820   3.700
43807W        W14407   8.863  23.425   2.894
43808W        W14408   0.265  37.855   3.848
43809W        W14409  24.925   7.322  10.206
43810W        W14410  24.818  34.780   1.903
43811W        W14411  19.968  16.141   3.384
43812W        W14412  31.401  22.632   4.496
43813W        W14413   9.707  44.757  14.908
43814W        W14414  43.902  35.812  14.757
43815W        W14415   6.183  18.044  13.738
43816W        W14416   3.897  16.488  14.613
43817W        W14417  22.068  27.947   4.345
43818W        W14418   7.231  34.862  14.776
43819W        W14419  18.583  13.949   4.102
43820W        W14420  24.257   6.892   0.540
43821W        W14421  35.550  12.636  11.909
43822W        W14422  37.502  14.058  13.350
43823W        W14423  36.884   8.673  10.560
43824W        W14424  31.678  33.052  12.970
43825W        W14425  22.163   0.843   0.473
43826W        W14426  25.645  13.341  12.681
43827W        W14427  43.854   0.623  14.861
43828W        W14428   2.629  21.832  11.130
43829W        W14429  38.304  27.042  12.495
43830W        W14430  44.402  31.484   2.728
43831W        W14431  31.101   6.800   1.968
43832W        W14432  10.776  28.414   2.169
43833W        W14433  27.260   9.211  13.926
43834W        W14434  40.949  29.544  12.016
43835W        W14435  13.351  22.260  12.943
43836W        W14436  38.673  34.155   0.005
43837W        W14437  11.832  31.171  12.786
43838W        W14438  35.454  25.436   0.482
43839W        W14439  35.032   3.522  10.200
43840W        W14440  44.903   6.374  10.976
43841W        W14441  36.548   0.875  14.514
43842W        W14442  27.935  19.327   0.192
43843W        W14443   8.397  28.468   2.858
43844W        W14444  23.589  12.412   3.810
43845W        W14445   0.919  35.124   0.728
43846W        W14446  38.210  22.083   4.378
43847W        W14447   0.769  33.197  10.513
43848W        W14448  17.438   7.036   2.299
43849W        W14449  37.057  11.611   0.065
43850W        W14450  14.826  14.395   2.815
43851W        W14451  40.794  35.862   0.921
43852W        W14452  12.966  19.270  11.667
43853W        W14453  33.390  28.647  11.476
43854W        W14454   1.028  14.262   4.614
43855W        W14455   3.712  40.477   4.576
43856W        W14456  16.344  35.357  13.001
43857W        W14457  10.013  31.438  14.237
43858W        W14458  35.968  11.858   0.302
43859W        W14459  23.000  17.028  11.598
43860W        W14460  22.502   3.869  12.953
43861W        W14461   1.724  28.290   3.279
43862W        W14462  37.130  36.862  10.773
43863W        W14463   6.521  17.203   1.782
43864W        W14464  23.550  12.777  10.557
43865W        W14465  29.662   2.630   4.049
43866W        W14466  43.249  24.638  13.294
43867W        W14467   2.999  43.560   4.535
43868W        W14468  42.305  28.014  10.704
43869W        W14469  33.942  41.467   4.755
43870W        W14470  29.701  12.170   4.034
43871W        W14471  12.862  44.255  10.895
43872W        W14472  23.543  15.677   4.682
43873W        W14473  39.063   1.913   3.951
43874W        W14474   2.055   6.202   3.281
43875W        W14475  23.508  15.080   0.224
43876W        W14476   6.370  27.498  14.777
43877W        W14477  33.047   5.285  12.083
43878W        W14478  28.950  37.644   2.131
43879W        W14479  41.925  26.174  12.456
43880W        W14480  42.566  11.825  13.030
43881W        W14481  21.501   4.262   2.793
43882W        W14482  14.090   7.463  12.073
43883W        W14483  17.124  11.613  13.465
43884W        W14484  32.144   1.457  11.520
43885W        W14485  24.253  12.083   1.360
43886W        W14486  37.871  29.551  12.885
43887W        W14487   7.102   4.898  11.751
43888W        W14488  29.368  38.136  11.480
43889W        W14489  42.809   5.343  12.054
43890W        W14490  12.712  15.758  13.988
43891W        W14491  42.864  37.186  13.088
43892W        W14492   1.371  32.258  12.142
43893W        W14493  42.997  18.371   3.637
43894W        W14494   3.681  16.850  13.022
43895W        W14495  36.818  23.657  11.984
43896W        W14496  10.953  15.712   4.210
43897W        W14497  43.398  27.524  10.773
43898W        W14498  20.061  22.175  11.462
43899W        W14499   7.353  11.516  11.120
43900W        W14500  41.032  20.030   1.900
43901W        W14501  33.134   8.661   2.283
43902W        W14502  33.356  38.538  13.329
43903W        W14503  28.154  26.953   3.334
43904W        W14504   6.271  39.100   3.368
43905W        W14505  31.444   2.276   3.610
43906W        W14506   2.722  44.949   3.625
43907W        W14507  34.765  43.907  14.036
43908W        W14508   4.692   2.258  14.807
43909W        W14509   3.989  25.921  13.559
43910W        W14510  16.666  15.243   0.679
43911W        W14511  17.733   1.804  14.278
43912W        W14512  41.939  36.169  12.060
43913W        W14513  24.206   0.260   0.818
43914W        W14514  19.304  29.823   0.313
43915W        W14515   7.739  24.753  14.891
43916W        W14516  14.189  43.621  14.952
43917W        W14517  23.301  23.681   2.506
43918W        W14518  16.052  11.642  14.273
43919W        W14519  13.551   0.849  13.433
43920W        W14520   6.321  44.790   4.216
43921W        W14521  30.512  22.023   4.198
43922W        W14522   5.954  19.196  12.505
43923W        W14523  23.206  19.567  11.076
43924W        W14524  22.671  32.764  14.986
43925W        W14525  28.601  20.673  10.578
43926W        W14526  35.024  32.600  10.830
43927W        W14527  16.489   0.759   0.929
43928W        W14528  25.786  32.397   2.722
43929W        W14529  22.811   8.306  14.516
43930W        W14530  12.015  35.947  14.548
43931W        W14531  29.150  26.027  12.167
43932W        W14532  14.782  39.928  11.599
43933W        W14533  29.113  14.480  11.874
43934W        W14534  15.415  44.830   2.800
43935W        W14535  42.147  19.815   2.614
43936W        W14536   2.818   9.112  11.477
43937W        W14537   0.140  31.931  10.269
43938W        W14538  42.489  10.184  12.517
43939W        W14539  12.957  22.042   3.260
43940W        W14540  34.500   4.475   1.272
43941W        W14541  10.588  29.592   1.409
43942W        W14542  42.080  19.081  13.424
43943W        W14543  32.418   1.702   4.216
43944W        W14544  16.102  35.100  13.474
43945W        W14545   8.226   3.676  11.888
43946W        W14546  36.013  12.063  13.996
43947W        W14547  11.669  41.570   3.365
43948W        W14548   8.756  29.624   3.676
43949W        W14549  25.574  15.502   1.207
43950W        W14550  28.925  34.813  10.559
43951W        W14551   1.731  12.229   1.843
43952W        W14552   8.400  13.028   4.138
43953W        W14553   4.766   5.234   0.989
43954W        W14554  37.666   4.153   0.954
43955W        W14555  19.983   1.399  10.778
43956W        W14556  43.761  23.529   0.355
43957W        W14557  27.533  18.844  12.390
43958W        W14558  31.113  35.094  13.994
43959W        W14559   1.433  23.087   0.459
43960W        W14560   2.479  41.923  14.536
43961W        W14561  27.262  37.683   0.813
43962W        W14562  18.387  19.722  14.370
43963W        W14563  43.829  40.790  11.112
43964W        W14564  38.867  24.742  13.308
43965W        W14565  20.767   3.808   2.015
43966W        W14566  10.782   8.847   1.288
43967W        W14567  10.193  18.440  12.816
43968W        W14568  39.289  14.248  11.908
43969W        W14569  30.853  11.174  13.383
43970W        W14570  11.283   2.234  14.749
43971W        W14571   7.956  44.321   4.098
43972W        W14572  28.118   7.752   0.744
43973W        W14573  42.873  26.193   3.346
43974W        W14574   6.131  23.386   1.870
43975W        W14575  24.178  12.704   0.071
43976W        W14576  15.571  32.086   0.314
43977W        W14577   2.159   4.333  10.583
43978W        W14578  13.946   2.815  11.432
43979W        W14579  27.370  38.475  12.798
43980W        W14580  12.906  10.265   4.145
43981W        W14581  39.400  14.242   0.673
43982W        W14582  25.998  20.198   4.195
43983W        W14583  40.452  29.516  12.438
43984W        W14584  41.230  43.981  13.301
43985W        W14585  33.936   5.964   4.777
43986W        W14586  18.844  17.246   2.210
43987W        W14587  11.263  20.242   0.816
43988W        W14588   0.354  22.709   1.455
43989W        W14589  39.076  44.841   4.528
43990W        W14590   9.925  25.951  14.104
43991W        W14591  43.278  41.318   1.280
43992W        W14592  41.745  43.677   2.648
43993W        W14593  25.176  30.890   2.225
43994W        W14594   9.928  17.163  11.177
43995W        W14595   0.967   2.825  12.377
43996W        W14596   4.686  13.698  13.152
43997W        W14597  29.032  28.562   1.926
43998W        W14598  11.488  32.943  12.683
43999W        W14599   1.526  10.682   0.719
44000W        W14600  40.072  44.988   4.552
44001W        W14601  21.610  39.347  13.412
44002W        W14602  17.744   7.508  10.909
44003W        W14603  12.644  35.578   2.795
44004W        W14604  38.905  15.736  12.398
44005W        W14605  21.065  27.043  10.378
44006W        W14606  21.042  15.709   1.595
44007W        W14607  12.267   0.055   0.861
44008W        W14608  34.295  12.230  11.527
44009W        W14609  20.077  23.141   2.256
44010W        W14610   7.022  15.335  13.476
44011W        W14611  42.976  11.323  13.290
44012W        W14612  10.275  20.282  11.823
44013W        W14613  25.693  41.362   0.251
44014W        W14614   2.745   2.142   2.666
44015W        W14615   0.848  26.730  13.449
44016W        W14616  10.798   2.371   4.254
44017W        W14617  14.150   7.318   3.727
44018W        W14618  18.398   5.932   3.291
44019W        W14619  15.186  44.334  11.584
44020W        W14620  39.569  43.679  13.907
44021W        W14621  27.660  39.856  11.091
44022W        W14622  36.528   6.271   4.524
44023W        W14623   7.455  25.006   3.826
44024W        W14624  37.467  10.768  12.570
44025W        W14625  27.201   7.110   1.193
44026W        W14626  41.101   9.084  13.205
44027W        W14627  31.606  21.934   0.879
44028W        W14628  43.109  36.411  12.489
44029W        W14629  32.562  18.512   9.901
44030W        W14630  22.768  12.558  13.463
44031W        W14631  40.799  15.390   2.773
44032W        W14632  42.628  32.033  11.727
44033W        W14633   5.342  28.602  14.940
44034W        W14634  44.906  36.297  11.418
44035W        W14635   1.896  36.426   2.306
44036W        W14636  39.718  22.729  11.715
44037W        W14637  20.338   1.349  11.183
44038W        W14638  39.686  38.110  11.562
44039W        W14639  26.226   9.299  10.279
44040W        W14640  36.376  33.044  14.363
44041W        W14641  30.596  28.335  11.155
44042W        W14642  15.777  40.025  14.086
44043W        W14643  19.331  10.610   0.008
44044W        W14644  23.883   7.478   1.783
44045W        W14645  21.936  18.347   1.005
44046W        W14646  43.981  25.681   3.891
44047W        W14647  24.561  39.866  11.941
44048W        W14648  14.655  13.311   2.203
44049W        W14649  17.294   1.989   3.193
44050W        W14650  12.904  29.168   4.415
44051W        W14651  14.944  36.946   3.921
44052W        W14652  34.190  18.079  13.289
44053W        W14653  20.255   0.987  14.609
44054W        W14654  17.138  13.711   2.956
44055W        W14655  14.652  18.704  14.852
44056W        W14656  43.308   8.882   2.209
44057W        W14657  17.041  32.741   1.281
44058W        W14658  42.946  41.748   1.401
44059W        W14659  18.516   4.678   2.200
44060W        W14660   6.361  43.838  11.134
44061W        W14661  29.569  36.473  10.979
44062W        W14662  17.599  10.245   0.345
44063W        W14663   7.757  28.986  11.130
44064W        W14664   9.566  41.817  14.858
44065W        W14665  16.685  43.324   5.507
44066W        W14666  37.839  21.442   3.632
44067W        W14667  15.637  21.090  11.877
44068W        W14668  20.452  23.201  12.339
44069W        W14669  10.101  37.593   0.036
44070W        W14670  13.603  43.970   0.708
44071W        W14671  42.309  19.562   1.337
44072W        W14672  11.519  11.302   2.924
44073W        W14673  26.599  39.429  14.919
44074W        W14674  10.768  33.163   3.761
44075W        W14675   0.162   6.719   4.963
44076W        W14676  11.688   3.178   1.506
44077W        W14677  24.069   3.370  13.487
44078W        W14678  11.408  22.413  12.483
44079W        W14679   6.327  31.674  10.715
44080W        W14680  41.926  26.119   3.441
44081W        W14681   4.021   1.792   4.194
44082W        W14682  36.842  38.959   2.206
44083W        W14683  16.245  40.538  13.030
44084W        W14684  15.767  24.240   1.662
44085W        W14685  30.836  30.954  13.003
44086W        W14686   7.409  29.757   3.627
44087W        W14687   6.655  31.543  13.067
44088W        W14688  10.328  25.094  10.803
44089W        W14689  42.211  21.348  10.709
44090W        W14690  13.592  28.506  11.497
44091W        W14691  41.770  36.467  13.347
44092W        W14692  27.861  37.628  13.550
44093W        W14693   9.805  34.782   2.390
44094W        W14694  16.997  34.438  11.048
44095W        W14695  24.286  11.332  11.608
44096W        W14696  32.362   3.978   1.456
44097W        W14697  17.322  35.389   3.323
44098W        W14698  35.389   8.368   4.938
44099W        W14699  19.729   5.144  13.068
44100W        W14700  18.046  28.714  12.584
44101W        W14701  31.843  37.663   3.246
44102W        W14702  41.395  21.707   2.442
44103W        W14703  22.124   4.657  12.425
44104W        W14704  40.301  12.027  11.123
44105W        W14705  38.936   2.924  14.547
44106W        W14706  44.087  20.089  14.997
44107W        W14707  12.648  12.144   2.824
44108W        W14708  32.992  23.174   0.279
44109W        W14709  39.600  32.133  13.331
44110W        W14710  13.168  44.153  10.496
44111W        W14711  10.739  37.855   0.290
44112W        W14712  23.505  28.156   2.594
44113W        W14713  11.245  27.656  10.508
44114W        W14714   0.182  34.514  12.508
44115W        W14715  28.020   6.800   2.205
44116W        W14716   8.312  28.662  14.321
44117W        W14717   2.682   0.351  12.050
44118W        W14718  18.852  28.641   9.305
44119W        W14719  27.901  30.265  12.900
44120W        W14720  30.385   0.216  11.949
44121W        W14721  19.917  20.313  11.632
44122W        W14722  19.039   6.835  10.876
44123W        W14723  34.120  30.585  13.041
44124W        W14724  41.107  36.027   1.323
44125W        W14725   9.533   4.202   2.708
44126W        W14726  41.049  41.302   0.716
44127W        W14727   5.701  29.591   1.796
44128W        W14728  37.877  27.487   4.208
44129W        W14729   4.892  42.557  11.560
44130W        W14730  29.135  17.124  14.981
44131W        W14731  28.222   2.251  11.672
44132W        W14732   5.662  37.386   4.571
44133W        W14733  11.707  18.152   3.311
44134W        W14734  16.257  34.859   3.822
44135W        W14735  31.326  33.531   4.523
44136W        W14736  10.125  10.079  13.460
44137W        W14737  37.842  23.285   2.370
44138W        W14738  13.087  44.308   2.881
44139W        W14739  24.738  15.713   4.143
44140W        W14740  17.099  39.122  14.419
44141W        W14741  33.501  25.853   1.365
44142W        W14742   0.491   6.384  11.039
44143W        W14743  32.659  20.443   3.747
44144W        W14744  22.034   7.403  13.948
44145W        W14745  30.054  32.589  13.296
44146W        W14746  36.609  33.130  13.054
44147W        W14747  15.909   5.243  13.070
44148W        W14748  17.821  36.648  11.149
44149W        W14749  14.499  22.630  14.338
44150W        W14750  37.884  41.479   3.183
44151W        W14751  17.635  27.300   2.927
44152W        W14752   0.458  18.336  11.588
44153W        W14753  42.405  11.386  12.101
44154W        W14754  41.289  27.575   1.905
44155W        W14755   4.882   5.149   3.941
44156W        W14756  17.803  26.809   2.772
44157W        W14757   5.166  16.670  11.824
44158W        W14758  21.668  37.969  13.502
44159W        W14759  22.780  12.793   3.604
44160W        W14760   3.366  20.624   0.898
44161W        W14761  34.608  15.812   3.391
44162W        W14762  34.035  35.829  13.061
44163W        W14763  14.965  24.211  12.615
44164W        W14764  40.850   2.884  11.628
44165W        W14765  24.527  10.720   4.626
44166W        W14766  31.138  43.318   1.824
44167W        W14767  37.624  14.222   1.250
44168W        W14768   9.312  39.785   0.881
44169W        W14769   7.330  35.343   3.180
44170W        W14770  42.766  36.927   0.159
44171W        W14771   1.019  25.666   2.800
44172W        W14772  14.701  18.822   2.214
44173W        W14773  41.514  43.640   3.135
44174W        W14774  13.301  37.873  13.203
44175W        W14775  31.477  39.455   3.675
44176W        W14776  29.803   7.601   9.850
44177W        W14777  27.177   1.881  10.945
44178W        W14778  33.493  18.557  11.191
44179W        W14779  33.532  40.873   4.113
44180W        W14780  14.659  11.430   1.366
44181W        W14781  43.890  27.097  12.470
44182W        W14782  26.677  11.889  14.820
44183W        W14783   4.821  22.763  12.993
44184W        W14784  37.563  42.705  11.686
44185W        W14785  14.655  34.540  11.537
44186W        W14786  18.036  32.481  10.953
44187W        W14787  22.235  43.252   2.298
44188W        W14788  25.324  26.694  10.396
44189W        W14789  42.725  31.472   3.779
44190W        W14790   6.375  11.323   2.196
44191W        W14791  41.516  29.151  11.690
44192W        W14792  44.340   4.927  12.942
44193W        W14793  37.880  27.911   3.277
44194W        W14794  31.609   9.670   2.791
44195W        W14795  30.650   3.703   4.585
44196W        W14796  12.349  19.593  12.727
44197W        W14797   8.451  21.674   2.878
44198W        W14798  19.621  24.028   2.393
44199W        W14799  20.634   5.726  12.705
44200W        W14800  23.640  24.019  12.152
44201W        W14801  32.529  30.511   2.735
44202W        W14802  39.437  43.011  12.062
44203W        W14803  30.230  44.068   2.840
44204W        W14804  43.826  11.442  12.571
44205W        W14805   5.138  31.068  14.899
44206W        W14806  33.463   5.933  14.976
44207W        W14807  23.442  16.366  12.976
44208W        W14808  14.511  32.879   4.802
44209W        W14809   2.667  30.430  11.475
44210W        W14810  34.604   1.164   3.862
44211W        W14811  44.733  42.731  12.237
44212W        W14812  30.670  37.815   4.640
44213W        W14813  23.332  12.246  14.562
44214W        W14814  26.780  19.279  11.531
44215W        W14815   3.450  23.978   1.330
44216W        W14816  17.527   1.892   4.608
44217W        W14817  34.793   8.224  13.067
44218W        W14818  34.646  10.378  14.378
44219W        W14819  19.306  29.452  13.868
44220W        W14820   3.137  22.493   2.376
44221W        W14821  32.120  35.069  13.538
44222W        W14822  34.286   1.053  13.296
44223W        W14823  16.164   1.607  13.372
44224W        W14824  41.301   1.326   1.196
44225W        W14825  43.004  41.406  13.543
44226W        W14826   0.962   3.838  14.373
44227W        W14827   1.378  18.709   3.866
44228W        W14828  41.883  41.290   4.924
44229W        W14829  18.435  13.636   2.450
44230W        W14830  14.819  36.651   3.525
44231W        W14831  22.654  34.906   2.619
44232W        W14832   3.950  37.997   4.572
44233W        W14833  18.619  27.131   4.055
44234W        W14834  17.725  16.832  14.883
44235W        W14835  24.815  35.887  11.726
44236W        W14836   5.796  34.935   0.754
44237W        W14837  10.261  43.442  14.482
44238W        W14838  41.260  17.446   4.954
44239W        W14839   7.287   4.509  13.434
44240W        W14840  29.003  24.235  14.898
44241W        W14841  23.066  34.628   4.606
44242W        W14842  21.120   1.621  11.506
44243W        W14843   8.533  41.493   1.394
44244W        W14844  33.448  28.207  13.362
44245W        W14845  37.324  38.975   3.112
44246W        W14846  20.966  33.305   3.279
44247W        W14847  31.504  44.562  12.425
44248W        W14848  40.315  12.799  13.907
44249W        W14849  20.100  43.642   4.448
44250W        W14850   1.711  25.810   0.290
44251W        W14851   8.661  25.072   0.938
44252W        W14852   7.760  21.300  13.512
44253W        W14853   9.728  11.582   1.326
44254W        W14854   4.158  30.054  14.870
44255W        W14855  44.650  32.031   1.010
44256W        W14856  35.567   8.164  13.004
44257W        W14857  37.498  16.676  14.927
44258W        W14858  12.253  13.539   0.388
44259W        W14859   8.345   0.834  11.482
44260W        W14860  15.479  38.759  14.866
44261W        W14861  13.619  18.063   2.791
44262W        W14862   7.451  16.823   4.513
44263W        W14863  40.387  19.865   3.314
44264W        W14864  11.394  28.069  10.767
44265W        W14865  33.081  40.021  11.099
44266W        W14866  38.524  26.947  14.911
44267W        W14867  35.628  38.210   2.149
44268W        W14868  36.910  40.698   3.225
44269W        W14869  38.416   3.285   3.514
44270W        W14870  33.872   8.847   4.580
44271W        W14871  24.032  36.833  13.551
44272W        W14872   8.747   4.677  13.390
44273W        W14873  33.544  14.669   2.827
44274W        W14874   8.395  26.324  11.352
44275W        W14875   6.667  43.346   0.752
44276W        W14876  43.334  36.984  11.224
44277W        W14877  23.961  26.130   2.159
44278W        W14878  43.466  43.524   4.330
44279W        W14879  25.578  41.864  12.395
44280W        W14880   1.628  38.545  13.546
44281W        W14881  24.183  28.932   2.757
44282W        W14882   1.299  10.832   4.770
44283W        W14883  33.183  15.152   4.179
44284W        W14884  28.990   9.330   4.861
44285W        W14885  27.889  27.104  13.537
44286W        W14886  33.377   5.297  10.740
44287W        W14887  26.009   2.623  11.105
44288W        W14888  24.487  15.399  10.770
44289W        W14889  36.990  31.374  11.993
44290W        W14890  31.815  27.722  12.513
44291W        W14891  25.622  38.582  12.567
44292W        W14892   1.421  21.222   2.232
44293W        W14893  31.087  33.040   4.618
44294W        W14894   6.244  13.723  12.936
44295W        W14895   0.649  24.985   1.021
44296W        W14896  39.335   0.467  10.856
44297W        W14897   1.453  42.442   3.859
44298W        W14898  37.860  26.991  11.211
44299W        W14899  24.268   4.258  14.918
44300W        W14900   3.094  31.580  10.691
44301W        W14901  11.307  35.440   3.099
44302W        W14902  12.913  15.548  14.525
44303W        W14903  12.673  15.306  11.578
44304W        W14904  34.100  37.122   3.144
44305W        W14905  26.304  32.457   2.705
44306W        W14906  39.303  42.247  12.835
44307W        W14907  27.080  10.380  13.947
44308W        W14908   3.130  17.671  13.515
44309W        W14909  23.485   0.835   3.097
44310W        W14910  32.941  38.848  13.410
44311W        W14911  26.726   3.259  11.042
44312W        W14912  38.338  27.243  13.424
44313W        W14913  20.185  11.337   9.928
44314W        W14914  30.130  28.923  13.991
44315W        W14915  14.122  15.018  13.628
44316W        W14916  39.323   7.286  14.841
44317W        W14917  13.585  34.879  13.687
44318W        W14918  23.226  20.236  13.439
44319W        W14919   3.253  18.695  10.918
44320W        W14920   8.823   2.502   4.726
44321W        W14921  30.863  26.483  12.559
44322W        W14922   0.054  15.715  12.892
44323W        W14923  18.361  37.371  14.259
44324W        W14924   7.162  31.004   3.236
44325W        W14925  23.639  29.935  10.671
44326W        W14926  20.106  19.085   3.126
44327W        W14927   2.194  24.498   1.442
44328W        W14928  19.014  37.781  12.053
44329W        W14929  21.103  12.724   4.089
44330W        W14930  28.457  21.610   3.791
44331W        W14931  36.333   7.309  13.779
44332W        W14932   5.395  37.190   3.322
44333W        W14933  20.255  24.017   0.594
44334W        W14934   4.705  19.213  14.021
44335W        W14935  32.747  39.489  11.866
44336W        W14936  31.491  11.182   3.437
44337W        W14937  28.987  12.358   2.713
44338W        W14938   1.252  44.823   2.855
44339W        W14939  38.431  38.341   2.927
44340W        W14940  16.387  42.316  13.511
44341W        W14941  42.282  42.174  14.453
44342W        W14942   8.750   2.447   2.851
44343W        W14943  34.928   6.418  14.977
44344W        W14944  19.498  17.263  11.140
44345W        W14945  29.511  28.989   4.822
44346W        W14946   1.299  44.376   3.697
44347W        W14947  29.543  24.966   3.700
44348W        W14948  31.523  22.715  11.115
44349W        W14949  10.534  43.758  13.691
44350W        W14950  23.695  39.450  12.888
44351W        W14951   8.602  38.598  14.020
44352W        W14952  25.964  26.168   0.368
44353W        W14953  37.422  17.831  11.612
44354W        W14954   6.236  19.444  14.497
44355W        W14955   3.933  12.687   3.506
44356W        W14956  15.122  24.664   0.530
44357W        W14957  29.789  13.664   1.310
44358W        W14958   6.903  35.918  12.877
44359W        W14959  43.366  18.927  11.692
44360W        W14960  11.556  41.923  12.215
44361W        W14961   0.895  42.710   0.676
44362W        W14962  19.654  22.814   4.077
44363W        W14963  22.584  34.540   1.675
44364W        W14964  17.322   1.668   1.572
44365W        W14965  16.137   4.797  12.925
44366W        W14966  25.008   1.339   4.473
44367W        W14967  22.482  26.419  11.468
44368W        W14968  39.550  19.583   2.278
44369W        W14969  25.812  42.986   3.509
44370W        W14970  27.901  24.436  14.434
44371W        W14971   7.468   3.813  12.931
44372W        W14972  25.238  14.737  10.477
44373W        W14973  15.590  25.190  10.600
44374W        W14974  22.579   7.320  11.588
44375W        W14975  35.634  26.404   0.275
44376W        W14976  43.449  18.821   4.210
44377W        W14977  32.347  23.521   3.397
44378W        W14978  29.514  18.321  13.796
44379W        W14979  15.465  41.942  11.945
44380W        W14980  17.291  23.949   1.734
44381W        W14981  15.026  37.590  11.799
44382W        W14982  28.239   4.802  14.389
44383W        W14983   0.779  22.742  10.698
44384W        W14984   5.310  30.870  14.438
44385W        W14985  10.681   6.312   3.307
44386W        W14986  20.205   7.419  11.545
44387W        W14987  41.281  15.936  12.894
44388W        W14988  38.158  43.880   4.615
44389W        W14989  43.541  10.602  13.664
44390W        W14990  19.360  26.656  14.071
44391W        W14991  29.799  15.545   2.973
44392W        W14992  26.679  43.398  11.823
44393W        W14993  15.527  23.167   3.172
44394W        W14994  25.420   6.865  13.304
44395W        W14995   2.560  22.952   0.243
44396W        W14996  26.402   3.838  14.855
44397W        W14997   0.211  11.669  13.588
44398W        W14998  13.701  38.607  13.674
44399W        W14999  27.556  37.159  13.867
44400W        W15000  13.872  10.571  11.408
44401W        W15001  35.062  30.247  14.376
44402W        W15002  21.748  34.900  11.066
44403W        W15003  40.972  37.145   4.931
44404W        W15004  24.462  34.940  12.573
44405W        W15005  15.729  20.281  11.529
44406W        W15006  22.049  13.891   0.433
44407W        W15007  37.609  41.283   0.686
44408W        W15008  29.550  43.018   3.964
44409W        W15009  28.505  43.863  10.967
44410W        W15010  39.055  37.055   2.286
44411W        W15011   5.669  11.270   1.793
44412W        W15012   0.444  25.427   3.533
44413W        W15013  33.401  39.080  13.206
44414W        W15014   8.232  30.979   3.872
44415W        W15015  20.585  10.224  12.423
44416W        W15016  19.239   4.177   4.191
44417W        W15017   3.004  10.189  14.945
44418W        W15018   8.924  37.359   2.334
44419W        W15019  19.992  16.623   3.966
44420W        W15020  33.037  29.580  13.778
44421W        W15021  23.760  29.906   0.258
44422W        W15022  15.832  34.920   2.847
44423W        W15023   7.345  38.546  14.844
44424W        W15024  35.410  20.254  11.074
44425W        W15025  43.579  35.117  14.338
44426W        W15026  11.952  28.657   3.120
44427W        W15027  13.557   8.316  14.817
44428W        W15028  18.157   9.092  11.142
44429W        W15029  25.785   6.905   0.845
44430W        W15030   3.319  31.951  12.404
44431W        W15031  12.303  21.216  11.724
44432W        W15032  34.280  41.052   3.688
44433W        W15033  30.438  23.606  13.769
44434W        W15034  13.630   6.707  11.496
44435W        W15035  26.875  34.872   5.042
44436W        W15036  13.112   4.856   4.054
44437W        W15037   3.313  27.695   0.864
44438W        W15038  20.417  24.949  11.943
44439W        W15039   9.266  23.553   3.741
44440W        W15040  31.624  19.260   3.251
44441W        W15041   2.847  35.046  12.324
44442W        W15042  43.439  44.882   0.457
44443W        W15043   7.816  26.263   2.317
44444W        W15044  14.687  30.536   3.564
44445W        W15045   3.530  19.447  12.605
44446W        W15046  38.874   0.784   3.530
44447W        W15047  15.316  10.876   2.593
44448W        W15048  15.313  22.818   3.782
44449W        W15049  33.285  29.180   1.672
44450W        W15050  31.894  17.730  13.385
44451W        W15051  22.496  17.050  11.518
44452W        W15052   4.509   2.006   3.196
44453W        W15053   7.225   6.820   3.641
44454W        W15054  35.989   8.882  14.972
44455W        W15055  36.980  10.769   1.155
44456W        W15056  29.513  43.730   2.656
44457W        W15057  28.145  26.132   0.350
44458W        W15058  36.553  40.038   2.672
44459W        W15059  21.495  15.126  12.385
44460W        W15060  19.071  31.610  10.509
44461W        W15061  44.831  31.317  11.953
44462W        W15062  21.210  11.094  14.603
44463W        W15063   9.727  37.923   0.229
44464W        W15064  15.827  21.635   2.332
44465W        W15065  24.661  31.443   4.672
44466W        W15066  31.023   7.228   2.259
44467W        W15067  35.220  33.810  11.560
44468W        W15068  25.081  31.427   4.367
44469W        W15069  25.585   0.288  10.157
44470W        W15070  23.633  21.570   3.234
44471W        W15071  41.997   2.680   3.774
44472W        W15072  22.613  43.432  10.090
44473W        W15073   2.943  11.188   2.874
44474W        W15074  26.710  21.704  11.116
44475W        W15075  10.234   8.826  13.859
44476W        W15076  25.186  38.289  11.218
44477W        W15077  42.257  29.616  13.475
44478W        W15078  18.293  35.103  13.971
44479W        W15079  17.555  39.989   2.496
44480W        W15080  31.873  31.645   2.695
44481W        W15081   4.502  33.788  12.493
44482W        W15082  19.579  28.654   1.939
44483W        W15083  17.618  44.311  11.873
44484W        W15084   3.679  36.942   2.109
44485W        W15085   0.253  10.720   1.853
44486W        W15086   0.428  34.645  12.067
44487W        W15087   1.950  23.002   1.889
44488W        W15088  11.063  36.646  11.062
44489W        W15089  39.877   0.202  13.954
44490W        W15090  33.332  32.134  10.261
44491W        W15091  33.329  40.285  14.323
44492W        W15092  28.638   3.734   3.726
44493W        W15093   3.234  29.748  11.585
44494W        W15094  27.522  36.462  11.618
44495W        W15095  14.276  21.756   2.982
44496W        W15096  35.590  22.575  11.476
44497W        W15097  20.793  25.459   5.114
44498W        W15098   9.230  29.036  14.346
44499W        W15099   9.218  26.053   0.551
44500W        W15100   2.995  36.475   1.526
44501W        W15101   4.232  20.876  13.488
44502W        W15102  39.623  24.059  11.494
44503W        W15103   7.862  19.292   1.481
44504W        W15104  18.377  36.608  13.311
44505W        W15105  24.091  17.240   1.698
44506W        W15106  30.474  15.909  11.526
44507W        W15107  33.917  31.009   0.707
44508W        W15108  19.471  29.582   3.420
44509W        W15109   5.574  19.275   4.624
44510W        W15110  23.208   4.370   1.509
44511W        W15111  14.574  38.495  13.977
44512W        W15112  10.761  21.504   0.481
44513W        W15113  29.786  16.322   3.281
44514W        W15114  31.154  10.350  12.365
44515W        W15115  28.522   2.720  11.659
44516W        W15116  29.952   4.753  12.140
44517W        W15117  35.828   1.895  11.979
44518W        W15118  24.523  37.520   1.302
44519W        W15119  10.065   0.902   2.399
44520W        W15120  32.364  43.995  13.723
44521W        W15121  41.816   7.625   1.265
44522W        W15122  28.903  22.948  11.205
44523W        W15123  31.793  11.597  13.368
44524W        W15124  28.708  17.163   2.452
44525W        W15125  36.446   1.313   1.141
44526W        W15126  37.796  13.060   1.022
44527W        W15127   6.587  40.571  11.470
44528W        W15128   9.867  35.514  10.716
44529W        W15129  16.742  38.419   2.264
44530W        W15130  34.421  23.863   4.037
44531W        W15131   3.903   7.701  10.638
44532W        W15132  27.735  18.471  13.289
44533W        W15133  12.366  37.910   2.017
44534W        W15134  23.492   6.410   3.146
44535W        W15135  26.993  25.908  10.710
44536W        W15136  35.423  36.771  13.915
44537W        W15137  30.088  36.398  11.137
44538W        W15138  22.578   2.473   0.714
44539W        W15139   8.466  20.507  11.974
44540W        W15140  35.687  41.435   3.303
44541W        W15141  25.961   5.445   4.674
44542W        W15142  27.888  35.150  14.526
44543W        W15143  27.031   9.627   0.085
44544W        W15144  29.402   5.444   1.133
44545W        W15145  36.958  13.716   1.059
44546W        W15146   2.937   1.491   0.616
44547W        W15147   8.345   4.725   3.184
44548W        W15148  25.708   9.156  13.896
44549W        W15149  42.468   1.264   1.582
44550W        W15150   9.461  23.573  12.816
44551W        W15151  25.711  22.250   4.162
44552W        W15152  17.080  35.488   4.239
44553W        W15153   0.724  23.585  10.403
44554W        W15154  19.865  12.136  13.036
44555W        W15155   6.325  14.255   4.426
44556W        W15156   4.593  32.384  12.079
44557W        W15157  23.454   1.697  12.512
44558W        W15158   8.144  13.574  12.326
44559W        W15159  31.158   9.004   0.820
44560W        W15160  33.836  30.578   2.759
44561W        W15161  23.722   6.284  12.153
44562W        W15162  40.059  31.460   3.020
44563W        W15163  41.276  30.306  11.148
44564W        W15164   0.531  23.568   3.484
44565W        W15165  41.628  40.375  12.475
44566W        W15166  15.012  28.488  14.675
44567W        W15167   5.836  27.592   0.408
44568W        W15168  37.207  14.783  14.004
44569W        W15169  16.557   6.644   3.755
44570W        W15170  17.770  41.995   0.392
44571W        W15171  44.558  35.979   3.591
44572W        W15172  26.477  12.385  12.471
44573W        W15173  12.218  18.529  10.896
44574W        W15174  27.047  15.365   2.192
44575W        W15175   7.393  16.409  14.380
44576W        W15176  11.213  43.257   2.216
44577W        W15177  25.526  20.472  12.848
44578W        W15178  10.180  30.954  11.137
44579W        W15179  35.271   0.891  13.042
44580W        W15180  11.739  11.516   2.123
44581W        W15181  15.307  29.691   4.537
44582W        W15182  25.688  33.626   2.427
44583W        W15183  30.041  24.631  10.684
44584W        W15184  24.739  14.300   3.288
44585W        W15185   8.774  28.773  12.995
44586W        W15186  32.105  26.492  12.936
44587W        W15187  29.509  20.413   3.852
44588W        W15188  41.083  26.934   4.146
44589W        W15189  43.456  29.486   2.717
44590W        W15190  44.179   2.296  11.573
44591W        W15191  32.524  21.649   2.121
44592W        W15192  38.080   2.759   0.686
44593W        W15193  43.911  15.573   0.747
44594W        W15194   3.538  14.301  12.820
44595W        W15195  16.517  42.367   3.362
44596W        W15196  22.902  31.047   1.275
44597W        W15197  22.687  22.570   2.020
44598W        W15198   8.767  35.825   3.255
44599W        W15199  21.024  15.318   0.216
44600W        W15200  28.224  17.687  11.467
44601W        W15201   2.490  19.810   1.698
44602W        W15202   4.981   3.252   2.806
44603W        W15203  26.474  33.097   3.177
44604W        W15204  26.678   0.254   2.894
44605W        W15205   5.426  43.872  14.185
44606W        W15206  16.705  16.134  11.892
44607W        W15207  20.033   5.370   3.850
44608W        W15208  30.199   7.712  14.812
44609W        W15209   2.748  28.321   4.731
44610W        W15210   7.316   9.167   3.988
44611W        W15211  29.205   0.840  12.131
44612W        W15212  27.750   3.213  11.613
44613W        W15213   5.170  26.012   2.253
44614W        W15214   2.911  43.428  12.062
44615W        W15215  40.303  17.692   1.218
44616W        W15216  40.924   7.508   4.634
44617W        W15217  31.044  11.286  14.258
44618W        W15218  38.423  21.837  10.236
44619W        W15219   1.252  13.038  13.819
44620W        W15220  22.655  41.781  14.759
44621W        W15221  25.711  30.724   3.740
44622W        W15222   4.397   9.360   3.700
44623W        W15223  22.291  40.897   2.149
44624W        W15224   4.620   2.800   2.785
44625W        W15225   7.829  26.031   0.465
44626W        W15226  22.842   0.131  12.947
44627W        W15227   8.614  18.542   3.173
44628W        W15228   8.682   4.353   1.820
44629W        W15229  38.743  29.630  12.599
44630W        W15230   5.159   4.392   1.838
44631W        W15231   2.926   6.464  13.590
44632W        W15232   8.485  38.602   3.276
44633W        W15233  27.676  13.225  13.201
44634W        W15234   0.204  40.534   3.841
44635W        W15235  34.305   9.333   1.859
44636W        W15236  21.510   1.509   0.192
44637W        W15237  20.257  18.773  11.244
44638W        W15238  17.858   3.672   1.418
44639W        W15239   2.129  12.246   4.550
44640W        W15240   1.327   9.374   1.893
44641W        W15241  17.733   4.677  11.913
44642W        W15242   5.889  42.939  14.939
44643W        W15243   3.842  42.113   2.440
44644W        W15244  22.112  25.199   3.451
44645W        W15245   1.238  27.096  12.909
44646W        W15246  10.410  10.301  13.857
44647W        W15247  39.874  33.185  11.335
44648W        W15248  36.112  17.301  12.536
44649W        W15249   1.647  17.567  14.635
44650W        W15250  29.534  29.472  14.526
44651W        W15251  32.999  22.598  11.128
44652W        W15252   4.987  20.108  12.861
44653W        W15253  43.113  28.373   0.965
44654W        W15254   1.012   5.194  10.464
44655W        W15255  24.633  37.444  11.504
44656W        W15256  10.811   5.718  10.642
44657W        W15257   8.899  25.049   4.201
44658W        W15258  35.961  10.749  12.603
44659W        W15259  29.112  28.999   0.727
44660W        W15260  20.673  14.488   3.282
44661W        W15261  28.129  38.591   2.613
44662W        W15262   1.448   2.987  10.776
44663W        W15263  30.275  40.971  13.841
44664W        W15264  30.651  26.524  11.538
44665W        W15265  17.914   5.288   2.843
44666W        W15266  43.890  35.968   0.990
44667W        W15267  42.846  36.131  13.811
44668W        W15268  44.391   8.328   4.500
44669W        W15269  41.065  14.157  10.653
44670W        W15270   7.382  24.476   4.016
44671W        W15271  26.775  27.198  13.443
44672W        W15272   1.194  16.841  11.546
44673W        W15273  21.963  34.899   2.794
44674W        W15274  11.356   1.881  13.276
44675W        W15275   2.202  27.972  10.944
44676W        W15276  13.825  17.700   3.664
44677W        W15277   4.384  30.889  12.380
44678W        W15278  25.654  42.014   0.942
44679W        W15279  40.902   3.143   2.231
44680W        W15280  12.032  40.433   2.208
44681W        W15281  20.620  29.402  13.568
44682W        W15282  18.768  41.981   3.063
44683W        W15283  20.374  39.443   0.467
44684W        W15284   2.966  37.267   0.053
44685W        W15285  27.186  16.649   2.389
44686W        W15286  42.012   5.863  11.286
44687W        W15287  21.316  26.762   0.864
44688W        W15288  28.856  10.117  12.885
44689W        W15289  17.831  23.448  12.410
44690W        W15290   3.629  11.733   1.652
44691W        W15291  13.555  27.095  12.514
44692W        W15292  38.125   1.738  14.790
44693W        W15293   9.952   8.403  13.065
44694W        W15294  38.954  13.496  11.403
44695W        W15295  39.282  23.847  13.459
44696W        W15296  11.711  24.941   3.650
44697W        W15297   6.165  34.512  10.618
44698W        W15298  29.268   0.751   2.772
44699W        W15299  25.041  23.215   3.564
44700W        W15300   8.253   9.426   0.879
44701W        W15301  25.054  41.797   5.015
44702W        W15302  24.999  42.083  14.415
44703W        W15303  17.819  35.326  13.896
44704W        W15304  17.274  28.085   1.868
44705W        W15305  21.489  29.724   2.557
44706W        W15306  43.315  42.572   3.551
44707W        W15307   6.762   7.985   1.193
44708W        W15308  35.084  24.079   4.545
44709W        W15309  38.893   2.689  11.515
44710W        W15310  21.574  16.448   0.788
44711W        W15311  42.559  27.632  12.057
44712W        W15312  16.634  19.280  10.994
44713W        W15313  22.209   5.870  12.929
44714W        W15314  41.486  37.348  11.914
44715W        W15315   7.729  31.863  12.077
44716W        W15316   9.896  26.696   4.664
44717W        W15317  35.662  12.226   1.845
44718W        W15318  23.198  17.861   2.448
44719W        W15319  25.654  10.557   4.712
44720W        W15320  32.456  29.078  14.855
44721W        W15321   4.249   3.325   1.708
44722W        W15322  28.639  20.508  13.573
44723W        W15323   0.512   4.799   1.760
44724W        W15324   1.310  18.084  13.286
44725W        W15325  25.010   7.665   0.860
44726W        W15326  30.618  10.675   0.962
44727W        W15327   9.335   3.731  12.471
44728W        W15328  23.665  34.724   2.909
44729W        W15329  14.724  21.690  13.408
44730W        W15330  20.765  30.903  14.150
44731W        W15331  38.375  40.872   3.712
44732W        W15332   0.190  35.867  11.522
44733W        W15333  40.809   3.419  11.626
44734W        W15334  36.193  40.083  12.006
44735W        W15335   7.809  23.579   1.965
44736W        W15336  36.664  22.247  14.463
44737W        W15337  20.275  17.589  11.978
44738W        W15338  41.407  32.836  11.533
44739W        W15339  27.646  12.269  11.464
44740W        W15340  23.392  39.660  14.308
44741W        W15341  29.268  44.970   1.217
44742W        W15342   2.507  15.594   0.370
44743W        W15343   6.171  36.764  11.452
44744W        W15344  40.516  20.557  11.930
44745W        W15345  29.419  39.012  10.681
44746W        W15346  42.026  44.824   3.118
44747W        W15347  32.997  33.175  12.448
44748W        W15348  33.423   9.406  11.577
44749W        W15349  41.849  22.070  12.046
44750W        W15350  15.817  38.970   1.326
44751W        W15351   1.747  22.187  10.577
44752W        W15352   7.716  38.325   3.833
44753W        W15353   2.077  31.160  12.897
44754W        W15354  42.405  32.697   2.393
44755W        W15355  11.103  28.494   0.917
44756W        W15356  21.027  39.433   4.284
44757W        W15357  30.981  19.108   4.127
44758W        W15358  41.152   0.900  13.608
44759W        W15359  25.766  27.383  11.017
44760W        W15360  12.298  34.625  13.066
44761W        W15361  24.527  34.274  14.960
44762W        W15362  13.130  17.716   4.242
44763W        W15363   2.923  44.000  11.189
44764W        W15364  26.903   2.047   1.791
44765W        W15365  17.320  16.227  14.395
44766W        W15366   5.043  44.026   9.974
44767W        W15367   0.828  30.406  10.223
44768W        W15368   7.614  44.572   0.008
44769W        W15369  34.663   0.301   4.780
44770W        W15370  43.971  19.340   0.776
44771W        W15371   3.909   0.234   0.401
44772W        W15372  19.808  15.656   1.213
44773W        W15373  11.874  19.037  11.829
44774W        W15374  29.645  44.885  13.858
44775W        W15375  15.586  25.163   1.241
44776W        W15376  24.200  35.840  11.131
44777W        W15377  35.604  27.112  10.670
44778W        W15378  15.812  36.125  10.887
44779W        W15379   1.225  10.600  10.353
44780W        W15380  29.000  22.671   3.570
44781W        W15381  26.563  20.027  10.699
44782W        W15382  33.880  34.782   5.045
44783W        W15383  43.405  42.527   4.596
44784W        W15384   9.210   1.684  14.044
44785W        W15385  24.185   9.194  11.565
44786W        W15386  14.708  42.726   2.751
44787W        W15387  18.475  10.547   3.576
44788W        W15388  24.417  29.598  14.862
44789W        W15389  15.205  17.157   4.566
44790W        W15390  12.294   5.736   1.946
44791W        W15391  16.714  40.985   3.468
44792W        W15392  16.284  35.817  11.085
44793W        W15393  22.237  34.917   1.821
44794W        W15394  21.517  21.696  11.691
44795W        W15395  43.806  14.686   1.205
44796W        W15396  38.162  14.528  11.170
44797W        W15397  12.303  37.819  13.406
44798W        W15398   4.885  21.881   4.028
44799W        W15399  20.680  20.804  13.825
44800W        W15400   2.503   1.932  12.514
44801W        W15401  21.761  34.431   0.350
44802W        W15402  11.343  42.303  14.984
44803W        W15403  22.748  29.627   2.709
44804W        W15404  15.563   5.108   4.546
44805W        W15405  15.280   7.488  13.908
44806W        W15406  30.495  26.280  13.408
44807W        W15407  20.569  26.150  12.588
44808W        W15408   6.346   8.282   1.382
44809W        W15409   2.431  24.294  13.857
44810W        W15410  16.150  23.739  10.453
44811W        W15411  11.367  13.514   1.870
44812W        W15412   1.906  29.335  11.582
44813W        W15413   8.937  29.577  14.829
44814W        W15414   4.803   3.280   0.810
44815W        W15415  27.136  22.546   1.673
44816W        W15416  13.591  13.199   4.937
44817W        W15417  39.506  44.555   4.298
44818W        W15418  23.600  21.841  12.053
44819W        W15419   9.368  25.679   3.319
44820W        W15420  44.707  21.641   0.819
44821W        W15421   6.675  15.772  14.786
44822W        W15422  10.740  11.786   3.810
44823W        W15423  12.883  29.963   3.644
44824W        W15424  39.355  13.832   4.566
44825W        W15425   8.056   8.285   2.843
44826W        W15426   6.166  32.120  11.609
44827W        W15427   2.180  21.180  12.542
44828W        W15428   5.662  18.637  12.633
44829W        W15429  23.725  22.478  13.445
44830W        W15430   7.490  41.020   4.486
44831W        W15431  35.454  38.931   4.581
44832W        W15432   7.571   3.955  11.149
44833W        W15433  14.159  42.212  11.463
44834W        W15434  14.503  26.509  11.402
44835W        W15435   7.776  15.078   2.247
44836W        W15436  14.076  12.162  13.873
44837W        W15437   0.836  41.874   1.911
44838W        W15438  21.430  36.741   2.376
44839W        W15439   8.235   2.637   0.845
44840W        W15440  40.927  44.229   3.926
44841W        W15441  16.814  34.924  14.154
44842W        W15442  18.513  20.452   0.319
44843W        W15443  25.573  13.544   4.114
44844W        W15444   2.293  42.032   3.637
44845W        W15445   5.308   4.716  12.046
44846W        W15446  44.861  37.327   0.029
44847W        W15447  21.154  13.368  14.461
44848W        W15448  34.976  40.897   4.333
44849W        W15449   4.972  30.689   0.257
44850W        W15450  26.938  23.538  10.693
44851W        W15451  36.026  14.394  11.084
44852W        W15452  17.796   2.179   2.197
44853W        W15453  10.349  20.934  14.893
44854W        W15454  36.505   6.882   4.721
44855W        W15455  39.068  14.511   2.805
44856W        W15456  18.095  22.107  11.467
44857W        W15457  20.769  26.372  11.318
44858W        W15458  32.183  29.536   4.555
44859W        W15459  34.238   4.633   2.652
44860W        W15460  27.946   7.327   2.853
44861W        W15461   1.382  39.638  13.088
44862W        W15462  43.333   3.657  12.048
44863W        W15463  37.401  29.557  11.004
44864W        W15464  21.216   2.714   0.202
44865W        W15465  25.328  17.183   5.068
44866W        W15466   9.515  15.342  12.143
44867W        W15467   6.816  26.255  10.676
44868W        W15468  26.150  25.567  14.253
44869W        W15469  21.642  40.269  13.437
44870W        W15470  12.556  21.446  12.497
44871W        W15471  31.066   3.858   0.976
44872W        W15472  22.934  42.561  11.986
44873W        W15473  18.168  33.907  14.990
44874W        W15474   3.163  36.224  14.635
44875W        W15475   0.294   3.046   1.631
44876W        W15476  44.314  26.146  12.417
44877W        W15477  16.565  10.318  12.870
44878W        W15478   2.632  43.291   4.257
44879W        W15479  34.106  38.684  12.851
44880W        W15480  21.110  23.650   3.903
44881W        W15481  43.828  29.996  10.744
44882W        W15482   0.868   1.748  11.208
44883W        W15483  26.481  31.099  11.593
44884W        W15484   9.247  39.872  12.515
44885W        W15485  25.501   5.076  13.967
44886W        W15486  30.668   8.695   0.781
44887W        W15487   7.211  23.698  13.003
44888W        W15488  41.902  19.394  13.795
44889W        W15489  31.028   2.032   1.282
44890W        W15490   9.393  30.836   1.826
44891W        W15491  18.763  14.551   0.495
44892W        W15492  39.244   7.383   3.662
44893W        W15493   0.822  44.892  14.871
44894W        W15494  12.862   4.449  12.342
44895W        W15495  21.665   3.194   2.712
44896W        W15496   0.339   7.658   1.389
44897W        W15497   0.796  30.019   3.292
44898W        W15498  13.417  37.431  12.981
44899W        W15499  28.163   7.774   4.056
44900W        W15500  13.551  43.341  11.903
44901W        W15501  26.221  30.567   1.277
44902W        W15502  28.897   1.993  12.026
44903W        W15503  34.161  39.907  12.108
44904W        W15504   6.731   0.328   4.803
44905W        W15505   0.755  41.355  13.077
44906W        W15506  37.153  42.398  11.749
44907W        W15507  17.340  12.689   4.978
44908W        W15508  28.229  27.617   2.111
44909W        W15509  19.402  19.745  14.445
44910W        W15510  34.520  43.462   4.025
44911W        W15511   8.278  11.334   0.685
44912W        W15512  19.921  13.073  11.783
44913W        W15513   0.081  34.556   1.833
44914W        W15514  22.193  11.309  14.483
44915W        W15515  11.450   9.620   2.989
44916W        W15516   2.785  23.095   1.148
44917W        W15517  11.616  40.318   0.710
44918W        W15518  29.634  14.964   1.836
44919W        W15519  31.426   2.337  14.428
44920W        W15520  18.738  44.994   1.879
44921W        W15521  19.989  21.055   4.336
44922W        W15522  20.330  29.616  11.807
44923W        W15523  16.577   9.680   2.307
44924W        W15524  38.406  12.600   4.606
44925W        W15525  30.536   6.126   4.602
44926W        W15526   2.432  27.204  14.641
44927W        W15527  34.965   0.867   0.885
44928W        W15528  36.584   6.825   1.924
44929W        W15529  27.154   7.467   2.079
44930W        W15530  22.621  30.079   3.776
44931W        W15531  10.296   8.926   2.674
44932W        W15532  34.878   4.712  14.262
44933W        W15533   8.935  33.385   4.083
44934W        W15534  44.720  13.095   0.301
44935W        W15535  21.745  18.182  11.015
44936W        W15536  32.461   6.343  11.409
44937W        W15537  35.861  17.671   1.199
44938W        W15538  44.813  39.392  10.367
44939W        W15539   0.237  17.263  12.387
44940W        W15540   5.768  34.101   2.318
44941W        W15541  10.897  15.115   0.308
44942W        W15542  33.121  43.909   3.247
44943W        W15543  14.394  18.016   0.907
44944W        W15544  18.793  26.704   3.590
44945W        W15545   7.946  16.300  12.837
44946W        W15546   6.365  26.968  14.577
44947W        W15547   4.642  44.781  12.238
44948W        W15548   4.846  28.351   2.293
44949W        W15549  40.219  36.480  13.348
44950W        W15550  33.569  11.166   0.628
44951W        W15551  18.901  18.989  10.362
44952W        W15552   9.413  17.566   1.758
44953W        W15553  12.384   2.326  10.277
44954W        W15554  33.625  44.048   2.447
44955W        W15555  33.581  39.308   1.011
44956W        W15556  18.386   8.115  14.381
44957W        W15557  28.243  43.352  14.831
44958W        W15558   4.417  38.962   0.961
44959W        W15559  40.773  27.072   0.302
44960W        W15560  34.732  17.995  13.102
44961W        W15561  11.152   5.417  11.976
44962W        W15562   0.540  26.860   4.887
44963W        W15563  36.821  39.451   4.274
44964W        W15564  22.960   5.810  10.630
44965W        W15565  36.886   3.138   2.327
44966W        W15566  41.176   2.253  12.140
44967W        W15567  34.420   0.942   0.245
44968W        W15568  34.013  41.351  10.516
44969W        W15569  39.876  24.068  12.901
44970W        W15570   4.775  41.901  12.318
44971W        W15571  25.193  30.078  14.737
44972W        W15572  36.938  23.192  10.642
44973W        W15573  16.984  35.155   1.355
44974W        W15574   3.228  14.529   3.445
44975W        W15575  18.113   0.491   2.170
44976W        W15576  33.153  23.850  13.525
44977W        W15577   2.873   0.398   3.857
44978W        W15578  44.063  14.619  11.089
44979W        W15579   5.798  36.319  12.975
44980W        W15580   8.354  28.641   1.722
44981W        W15581  24.414  27.949  13.924
44982W        W15582   9.524   5.146   4.056
44983W        W15583  22.249  12.880   1.937
44984W        W15584  40.943  17.299  14.885
44985W        W15585  13.974  43.887   0.342
44986W        W15586  44.971  21.290   0.506
44987W        W15587  22.044  34.269  12.183
44988W        W15588   2.170  31.957  12.809
44989W        W15589  24.731  43.938   1.944
44990W        W15590  11.646  40.230  11.531
44991W        W15591  23.443  16.603   3.726
44992W        W15592  19.281  26.470   3.607
44993W        W15593   1.374  39.006  13.561
44994W        W15594  15.313   5.666   4.171
44995W        W15595  42.496   5.910  14.939
44996W        W15596  19.019  18.511  14.999
44997W        W15597  28.195   4.103  12.584
44998W        W15598  34.872  14.265  12.222
44999W        W15599  10.138   2.415   0.307
45000W        W15600  12.103  19.804  11.955
45001W        W15601  42.041  30.983   1.139
45002W        W15602  25.760  35.481  13.213
45003W        W15603  15.158   5.508   3.714
45004W        W15604  33.524  22.919  12.408
45005W        W15605  19.292  21.638  13.215
45006W        W15606   4.889   9.904   4.182
45007W        W15607  23.693   2.241   4.640
45008W        W15608  39.892  21.601  13.196
45009W        W15609   8.301  20.598   4.053
45010W        W15610  17.564   9.354  13.049
45011W        W15611  30.984  34.529  14.702
45012W        W15612  29.523   5.730  14.332
45013W        W15613  27.845  40.035  13.874
45014W        W15614   7.612  44.862  12.069
45015W        W15615   2.064  18.267  12.165
45016W        W15616  30.892  14.797   4.095
45017W        W15617  11.206  39.443  11.562
45018W        W15618  25.608  24.054   4.904
45019W        W15619   7.087  43.884   3.763
45020W        W15620  40.924  34.161  11.461
45021W        W15621  33.419  42.682   1.527
45022W        W15622  36.886  12.073   3.243
45023W        W15623  12.578  36.984   2.746
45024W        W15624   7.248  24.230  14.474
45025W        W15625  40.960  35.266   0.214
45026W        W15626  20.527   1.063   1.799
45027W        W15627  30.528  17.588  14.409
45028W        W15628   9.275  11.202  12.107
45029W        W15629  15.391  44.375  13.595
45030W        W15630  24.565  28.893   0.843
45031W        W15631  42.240   3.284  12.071
45032W        W15632   7.376  34.956   0.832
45033W        W15633  19.609   9.187   4.849
45034W        W15634  38.916  34.894  13.297
45035W        W15635  44.766  41.328  13.995
45036W        W15636  16.780   3.644  13.972
45037W        W15637  26.974  37.997   1.108
45038W        W15638  19.704  12.600   4.361
45039W        W15639  36.417  41.766  10.246
45040W        W15640  17.142   2.771  12.480
45041W        W15641  13.215  31.537  14.811
45042W        W15642  40.563  39.793   1.368
45043W        W15643  24.131   5.826  12.502
45044W        W15644  21.774  22.593  14.326
45045W        W15645  29.226  26.505  11.897
45046W        W15646  12.292   0.493   4.098
45047W        W15647  41.367   3.373   5.033
45048W        W15648  18.032  27.146   3.852
45049W        W15649  28.135  33.870   1.941
45050W        W15650  38.419   6.884  12.888
45051W        W15651  24.498  29.477   3.312
45052W        W15652  42.957  19.143  14.486
45053W        W15653  40.498  35.061  14.911
45054W        W15654  26.661  23.796  13.881
45055W        W15655  22.720  13.953   3.213
45056W        W15656  36.803  13.980  14.614
45057W        W15657  38.057   4.666  10.119
45058W        W15658  36.955  36.538  13.082
45059W        W15659  42.627  10.237   2.228
45060W        W15660  23.229  17.199  10.700
45061W        W15661  25.978   3.829   1.486
45062W        W15662  18.273  10.872   0.231
45063W        W15663   7.437   0.202   3.204
45064W        W15664   3.433   1.509  13.508
45065W        W15665  11.633  39.413   3.240
45066W        W15666  37.330  33.542   2.341
45067W        W15667  17.304  38.566   1.558
45068W        W15668  30.657  20.334   0.016
45069W        W15669  23.365   9.906   2.356
45070W        W15670  21.505  25.143   1.245
45071W        W15671  34.048  29.648  13.493
45072W        W15672  38.003  10.862   2.970
45073W        W15673  33.060  19.854  13.740
45074W        W15674   5.264  15.784  13.338
45075W        W15675  11.021  36.387  13.319
45076W        W15676  44.987  25.023   4.140
45077W        W15677   6.493  23.522  11.271
45078W        W15678   4.280  23.445  12.400
45079W        W15679  27.774  17.776   4.527
45080W        W15680  28.780   0.289  14.661
45081W        W15681  24.468  19.020   1.082
45082W        W15682  40.855  38.343   1.269
45083W        W15683   0.920  39.578  11.497
45084W        W15684  20.549  39.383  13.981
45085W        W15685  16.178   5.105  11.568
45086W        W15686  16.866  28.503   0.214
45087W        W15687   7.392  14.682   0.439
45088W        W15688  26.456  16.663   3.651
45089W        W15689  33.471  12.745   2.808
45090W        W15690  38.895  17.596  10.632
45091W        W15691  23.308  15.239   1.214
45092W        W15692   5.958  35.787  14.811
45093W        W15693   4.771  35.452   4.054
45094W        W15694   2.259   9.168   3.624
45095W        W15695   2.401   8.701   2.253
45096W        W15696  32.090  37.218   0.465
45097W        W15697  43.845   6.392  11.861
45098W        W15698  20.841   1.707  12.008
45099W        W15699  14.810  18.302   4.149
45100W        W15700  37.783  31.509   2.611
45101W        W15701  19.515  34.942   3.563
45102W        W15702  21.612  33.368  10.071
45103W        W15703   0.093  25.508  14.282
45104W        W15704  16.248  12.101  13.300
45105W        W15705  32.224   6.336   4.414
45106W        W15706  12.212  18.066  12.587
45107W        W15707  25.477  21.293   4.181
45108W        W15708  35.905  21.974   2.742
45109W        W15709  25.456  34.814   3.255
45110W        W15710  28.588  33.010  12.461
45111W        W15711  43.578  44.380  12.543
45112W        W15712   6.407  42.140  14.928
45113W        W15713  27.057  44.429   0.486
45114W        W15714   1.691   3.286   0.064
45115W        W15715  40.347  24.330   3.588
45116W        W15716   9.795  16.222   3.222
45117W        W15717  16.862   0.943   3.830
45118W        W15718  42.964   0.938  11.387
45119W        W15719   9.414  10.777  13.471
45120W        W15720  31.418  16.340  13.468
45121W        W15721  29.453  34.693   1.896
45122W        W15722  41.907   7.226  14.948
45123W        W15723  19.194  10.141  13.875
45124W        W15724  13.728  27.291  14.437
45125W        W15725  24.079  38.098   4.141
45126W        W15726  19.740   0.985  14.816
45127W        W15727  19.548  33.726  12.619
45128W        W15728  29.738  27.220  12.102
45129W        W15729   7.625  44.990  13.350
45130W        W15730  10.833  43.576   4.932
45131W        W15731  31.068   6.949   3.733
45132W        W15732  36.052  11.829  11.673
45133W        W15733  25.801   9.953  14.996
45134W        W15734  38.313   9.720  10.598
45135W        W15735  28.014  41.548  12.475
45136W        W15736  23.569  11.133   3.208
45137W        W15737  23.788   0.927   3.889
45138W        W15738  21.812  16.342   4.096
45139W        W15739  34.540  12.368   0.951
45140W        W15740  13.682  30.946   4.119
45141W        W15741  21.089  20.496  13.864
45142W        W15742  34.914  25.095   0.412
45143W        W15743  27.011  23.160  13.795
45144W        W15744  33.852  17.688   2.777
45145W        W15745   4.152   2.926   2.908
45146W        W15746  36.463  39.219  11.124
45147W        W15747  18.721   2.360   4.800
45148W        W15748  18.972   7.474   5.151
45149W        W15749  30.055  25.999  13.574
45150W        W15750   6.247  29.869  11.205
45151W        W15751  23.992  12.019  12.178
45152W        W15752   0.473  34.613   4.478
45153W        W15753   8.060  25.557   4.516
45154W        W15754  33.008  24.150  13.127
45155W        W15755   8.928  34.648  12.084
45156W        W15756  14.859   5.726   3.340
45157W        W15757  13.199   1.001   4.645
45158W        W15758   6.440   6.701  12.034
45159W        W15759  15.214  24.510  11.133
45160W        W15760  16.496   3.680   1.234
45161W        W15761   2.756  31.525  14.966
45162W        W15762   4.789  21.046  12.792
45163W        W15763  35.404   6.897  11.751
45164W        W15764  27.939   0.836   3.662
45165W        W15765   0.214  17.747  12.588
45166W        W15766  11.055  42.517   4.712
45167W        W15767   4.788  35.526  12.685
45168W        W15768  30.934   5.604  13.094
45169W        W15769   9.970  43.250  11.136
45170W        W15770  35.304  10.408  10.687
45171W        W15771   8.360  20.631   1.663
45172W        W15772  31.703  21.485  12.937
45173W        W15773  17.788  31.474   3.417
45174W        W15774  10.256   1.062   1.960
45175W        W15775  21.189  19.113   4.666
45176W        W15776  34.456  11.677  14.870
45177W        W15777   3.926  42.440   0.372
45178W        W15778  19.870  42.291   2.704
45179W        W15779  18.577  36.481   0.789
45180W        W15780  20.035  18.048   2.944
45181W        W15781  14.699  32.452  10.752
45182W        W15782   2.357  10.310   1.368
45183W        W15783  43.830  27.728   0.225
45184W        W15784   5.904  38.600   4.368
45185W        W15785  15.549  34.878  12.083
45186W        W15786  37.417   3.917  14.563
45187W        W15787  20.090   0.084   1.507
45188W        W15788  14.709  27.439   4.630
45189W        W15789  33.019   5.147   1.780
45190W        W15790  25.180  18.113  11.128
45191W        W15791  28.470  39.286  10.807
45192W        W15792  16.731  39.837   3.360
45193W        W15793  11.295   8.620   2.862
45194W        W15794  10.626  13.599   1.520
45195W        W15795  31.859  30.077   2.875
45196W        W15796  32.409  14.891  11.067
45197W        W15797  34.306  21.290   2.284
45198W        W15798  16.649   1.959  10.773
45199W        W15799  27.655  28.244   1.533
45200W        W15800   3.748   1.780   4.634
45201W        W15801  26.371   6.524  12.373
45202W        W15802   0.338  36.047   4.337
45203W        W15803  27.684  39.121   1.021
45204W        W15804  25.635  31.438   0.692
45205W        W15805  14.957   4.566   1.856
45206W        W15806  25.154  28.557   2.676
45207W        W15807  17.469  41.050  10.706
45208W        W15808   1.002  18.733   4.824
45209W        W15809  43.670  39.457  11.097
45210W        W15810   3.291  33.924   0.941
45211W        W15811  31.182   2.873   1.371
45212W        W15812   0.825   0.682   1.961
45213W        W15813  16.815  34.148  14.978
45214W        W15814  24.037  36.672  13.034
45215W        W15815  17.024  21.212  12.413
45216W        W15816  10.372   5.393   2.347
45217W        W15817   3.899   9.231  12.967
45218W        W15818  18.040  29.718   0.410
45219W        W15819   6.566   1.336  11.646
45220W        W15820  22.050   6.767   5.022
45221W        W15821  24.886   0.952  12.122
45222W        W15822  12.715  17.825   4.630
45223W        W15823  13.610  12.027   2.376
45224W        W15824  15.048  36.030  13.048
45225W        W15825  28.153   0.314  10.250
45226W        W15826  32.886  34.480   2.770
45227W        W15827  13.063  44.150   3.734
45228W        W15828  25.075  10.043  11.424
45229W        W15829  12.671  40.766  12.849
45230W        W15830   9.699  32.094   4.574
45231W        W15831  37.830  38.093   0.863
45232W        W15832  25.699  33.099  10.889
45233W        W15833  12.798  35.476   1.269
45234W        W15834   6.364  21.113   2.176
45235W        W15835   9.859   4.346  14.455
45236W        W15836  15.605  15.238   4.977
45237W        W15837  24.371  17.638  10.287
45238W        W15838   3.808   3.260  14.299
45239W        W15839  16.353  35.051  11.587
45240W        W15840   1.879  34.297   1.000
45241W        W15841  43.553  17.138  14.091
45242W        W15842   0.997  40.721  13.983
45243W        W15843  16.058  44.408  14.958
45244W        W15844  40.847  11.293   4.189
45245W        W15845  10.217  41.039  11.703
45246W        W15846   0.007  34.038   1.957
45247W        W15847  12.882  38.288   3.242
45248W        W15848  31.091  21.035   4.487
45249W        W15849   5.453  30.029   1.841
45250W        W15850  31.628  42.786   4.969
45251W        W15851   4.299  17.793   3.628
45252W        W15852   5.860  38.085   4.333
45253W        W15853  25.134  13.626   2.851
45254W        W15854  10.308  42.960   1.753
45255W        W15855  35.469  43.388  12.452
45256W        W15856  29.249  18.208  12.172
45257W        W15857  19.493  11.785  13.061
45258W        W15858  14.681   5.542   2.882
45259W        W15859  13.344   9.711   2.745
45260W        W15860  26.748  34.937   3.165
45261W        W15861  11.741   9.690  11.168
45262W        W15862  14.059  23.222   4.051
45263W        W15863  13.216  12.049   1.233
45264W        W15864  41.052  34.083   1.169
45265W        W15865  18.664  16.516   0.413
45266W        W15866   3.153  36.878  12.469
45267W        W15867  33.284   5.476  13.701
45268W        W15868  15.154  32.058   1.857
45269W        W15869  17.574  22.735   0.984
45270W        W15870  43.875  44.040   3.156
45271W        W15871  43.373  28.109   4.260
45272W        W15872   1.291  35.133   2.259
45273W        W15873  43.552  12.676  14.365
45274W        W15874  22.622  33.868  11.444
45275W        W15875  15.366  22.106  14.822
45276W        W15876  39.786  12.265  11.153
45277W        W15877  13.751   2.420  10.754
45278W        W15878   0.763   9.093  11.977
45279W        W15879  25.119  10.363   3.383
45280W        W15880  40.705  18.710   2.468
45281W        W15881  11.284  40.417  11.205
45282W        W15882  42.363   6.461   1.928
45283W        W15883  25.532  17.668  12.503
45284W        W15884  38.291  22.040  12.505
45285W        W15885   9.160  32.885  13.366
45286W        W15886  19.303  36.965   0.380
45287W        W15887   6.665  34.598  10.586
45288W        W15888  44.535  20.286   4.551
45289W        W15889  15.512  41.164   1.691
45290W        W15890   3.975  38.202   2.213
45291W        W15891  23.583  33.336  13.724
45292W        W15892  38.358  20.053  11.918
45293W        W15893  34.693  35.095  14.899
45294W        W15894  21.662   3.375   0.239
45295W        W15895   8.745  41.258   2.934
45296W        W15896  21.797  24.039  11.118
45297W        W15897  16.178  15.728   3.682
45298W        W15898  21.986  26.599  14.956
45299W        W15899  26.772  21.245  11.980
45300W        W15900  30.844  32.303   0.233
45301W        W15901   2.733  31.318  13.358
45302W        W15902  22.077  12.738  12.828
45303W        W15903  40.528  34.819  12.837
45304W        W15904  15.197  42.906   1.883
45305W        W15905  43.731   8.783  14.063
45306W        W15906  16.349  29.096  13.511
45307W        W15907  38.747  23.577   0.603
45308W        W15908  27.711  28.758   1.468
45309W        W15909  18.768  16.762   1.852
45310W        W15910  30.069  11.832   4.209
45311W        W15911  17.165  25.564   3.178
45312W        W15912  26.630   9.948   1.217
45313W        W15913   8.547  29.086  12.647
45314W        W15914  22.733   0.504   2.723
45315W        W15915  39.133  15.693   4.467
45316W        W15916  43.860  17.345   0.904
45317W        W15917  14.379  34.618   0.179
45318W        W15918   3.362   1.465   0.254
45319W        W15919  30.408  29.570   2.243
45320W        W15920   0.480  13.659   3.245
45321W        W15921   4.831  16.771  14.323
45322W        W15922   8.385  16.212   2.135
45323W        W15923  37.857  19.482  11.102
45324W        W15924   9.010  24.197  11.614
45325W        W15925   3.886  21.970   2.735
45326W        W15926   5.979  41.271   5.150
45327W        W15927  12.226  29.407   4.687
45328W        W15928   8.443   1.388  13.029
45329W        W15929   7.764  22.327  11.498
45330W        W15930   5.224  44.050   1.312
45331W        W15931   7.325  33.801   2.338
45332W        W15932  35.457  26.222  11.491
45333W        W15933  35.655  30.886   4.107
45334W        W15934  25.965  43.469   0.990
45335W        W15935  42.842  18.112  14.963
45336W        W15936   9.787   1.079   1.184
45337W        W15937   6.480  33.169  11.591
45338W        W15938  24.624  34.316   1.864
45339W        W15939  27.614  13.340   2.473
45340W        W15940  22.251  24.820   4.626
45341W        W15941  33.490  38.546  12.404
45342W        W15942  12.933   8.749   3.532
45343W        W15943  20.615  21.506  11.217
45344W        W15944  35.956  13.082  13.956
45345W        W15945  14.678  21.536   1.243
45346W        W15946  11.277  35.713   0.109
45347W        W15947  21.033  21.423   1.853
45348W        W15948   5.010  32.979   1.736
45349W        W15949  13.730   7.842  13.053
45350W        W15950   7.239  25.451   0.201
45351W        W15951  37.350  15.869   1.290
45352W        W15952  13.318   8.962   0.307
45353W        W15953   2.031  30.385   4.562
45354W        W15954  30.335  16.408   3.134
45355W        W15955  28.209  25.392  10.140
45356W        W15956   9.682  27.785   4.020
45357W        W15957  25.488   3.308  13.206
45358W        W15958  44.116  43.037   4.568
45359W        W15959  42.543  41.903  14.809
45360W        W15960   4.731  26.754   4.122
45361W        W15961  39.095  26.632   4.081
45362W        W15962  38.294  21.732   2.742
45363W        W15963   3.528  43.291   1.567
45364W        W15964  44.543  29.625  12.491
45365W        W15965  10.384  38.335   3.935
45366W        W15966  41.382   6.402   4.508
45367W        W15967  18.605  12.744  12.982
45368W        W15968  43.845   2.301   0.905
45369W        W15969  17.372  28.510   0.163
45370W        W15970  14.506  40.886  10.029
45371W        W15971  20.989  34.020   0.254
45372W        W15972   2.453  41.742   5.003
45373W        W15973   0.448  35.414  11.497
45374W        W15974  28.388   2.326   2.650
45375W        W15975   9.860   6.775  14.021
45376W        W15976  11.578   5.445   3.296
45377W        W15977   8.347  18.226   0.259
45378W        W15978  22.944   2.662   2.836
45379W        W15979  34.561  10.875   2.832
45380W        W15980  25.749  32.968  11.376
45381W        W15981  19.620  16.493   1.628
45382W        W15982  16.749  30.570   4.627
45383W        W15983  26.873  32.481  13.066
45384W        W15984  15.686  39.813   1.009
45385W        W15985  16.203  27.704   3.352
45386W        W15986  23.093   7.740   3.183
45387W        W15987  14.183  18.094  14.312
45388W        W15988   2.793  38.564   2.973
45389W        W15989  24.014  21.142   1.836
45390W        W15990   4.920   0.834   3.221
45391W        W15991  26.414  17.015  11.271
45392W        W15992  18.347  18.293  10.633
45393W        W15993   4.727  19.650   3.227
45394W        W15994   9.893  10.305  13.887
45395W        W15995   3.409  17.647  14.023
45396W        W15996  15.360   3.587  10.252
45397W        W15997  36.245   0.277   0.791
45398W        W15998  29.559  22.166   3.803
45399W        W15999  44.341  18.210  10.101
45400W        W16000   0.998  19.928   2.398
45401W        W16001   2.316   9.406   3.146
45402W        W16002  14.583  44.886  13.464
45403W        W16003  18.591  14.394  14.652
45404W        W16004  38.890   2.296   4.274
45405W        W16005   0.772  25.176   3.842
45406W        W16006  44.432  27.593   0.027
45407W        W16007  18.765  44.169  14.764
45408W        W16008   6.877  24.504  12.978
45409W        W16009   9.367  17.413   0.128
45410W        W16010   3.971  12.654   2.195
45411W        W16011   0.413  20.730   4.569
45412W        W16012  40.019  19.596   0.739
45413W        W16013  35.554  40.904  12.768
45414W        W16014  25.087  18.653  11.925
45415W        W16015   4.135  30.021  12.361
45416W        W16016   9.211  14.304  12.946
45417W        W16017   6.842   1.883   1.424
45418W        W16018  27.942  14.379   0.445
45419W        W16019  33.430  16.716  10.646
45420W        W16020  13.991  44.059   1.915
45421W        W16021  31.082   2.424  13.092
45422W        W16022  24.833  28.122  11.580
45423W        W16023  24.932  39.045  12.333
45424W        W16024  40.860  20.110  11.655
45425W        W16025  43.980  30.530  14.104
45426W        W16026  32.447  27.373   3.297
45427W        W16027  29.956  28.195   1.270
45428W        W16028  14.687  44.783   0.798
45429W        W16029  43.443   1.933   1.322
45430W        W16030   2.451   4.714   3.739
45431W        W16031   9.325  17.165   3.993
45432W        W16032  25.049  16.501  11.569
45433W        W16033  38.540   8.013  12.466
45434W        W16034   2.345   3.640   2.227
45435W        W16035  39.890  25.918  10.659
45436W        W16036  13.768  21.489   4.970
45437W        W16037   6.340  36.123  14.742
45438W        W16038  24.531  32.453   0.003
45439W        W16039   5.916  21.529   1.396
45440W        W16040  14.350  11.954  14.275
45441W        W16041  34.463  28.801   2.764
45442W        W16042  35.822   9.378   3.422
45443W        W16043  37.886   1.695   4.269
45444W        W16044  33.970  21.486  12.285
45445W        W16045   9.023  35.340  11.193
45446W        W16046  23.116  39.566   3.730
45447W        W16047  19.698  44.752   5.035
45448W        W16048   8.767  13.742   3.909
45449W        W16049   8.416   9.109   4.041
45450W        W16050  18.976  40.878  13.003
45451W        W16051  31.559  14.941  11.514
45452W        W16052  12.660  33.900   3.993
45453W        W16053   4.764  24.522   3.256
45454W        W16054  37.924  28.755   3.663
45455W        W16055  24.427  26.649   2.777
45456W        W16056   1.442  28.440  12.171
45457W        W16057  41.319  28.209  10.525
45458W        W16058   4.308  35.717   3.174
45459W        W16059   5.389   7.241   2.708
45460W        W16060  11.380   1.008   5.129
45461W        W16061  40.170  19.731  13.986
45462W        W16062  11.789  32.612   1.930
45463W        W16063  29.403  41.827  11.644
45464W        W16064   9.396  36.146   0.212
45465W        W16065  15.300  31.104   3.775
45466W        W16066  12.828  18.115   1.862
45467W        W16067  28.527  18.582  12.947
45468W        W16068   7.181  20.036  13.914
45469W        W16069   2.284   3.238  11.071
45470W        W16070  35.598   4.480  11.616
45471W        W16071  19.859  18.552   1.824
45472W        W16072  16.584   5.711   4.497
45473W        W16073  21.218  20.799  12.944
45474W        W16074   9.188  18.385  11.016
45475W        W16075  33.598   3.751   1.948
45476W        W16076  16.156  21.272  10.972
45477W        W16077   7.673   8.311  12.562
45478W        W16078  41.445  19.120   1.132
45479W        W16079  41.968  30.948  10.608
45480W        W16080   2.969   9.660  14.885
45481W        W16081  11.043   8.432   1.843
45482W        W16082  20.010  14.804  12.802
45483W        W16083  37.105  25.489   1.434
45484W        W16084  33.918   1.302  10.955
45485W        W16085   2.239  36.411   0.906
45486W        W16086  15.690  21.038  10.962
45487W        W16087   1.904  39.767  13.064
45488W        W16088  44.284  32.414  14.864
45489W        W16089  16.873  35.954   4.126
45490W        W16090   0.072  31.958   4.739
45491W        W16091  26.436   0.206  14.090
45492W        W16092   5.308   8.384   4.596
45493W        W16093  31.635  35.695   3.451
45494W        W16094  10.199   5.628   4.191
45495W        W16095  42.403  18.562  13.313
45496W        W16096   9.423  24.761   1.248
45497W        W16097  20.623  16.611   1.360
45498W        W16098  21.626   8.745   2.982
45499W        W16099   4.740   0.882   2.245
45500W        W16100  12.325  16.625   4.648
45501W        W16101  33.577  24.723  12.775
45502W        W16102  21.247  15.635   4.581
45503W        W16103  27.641  14.249  14.233
45504W        W16104  33.484  18.090  14.336
45505W        W16105  13.900  35.868   2.162
45506W        W16106   2.439   0.847  11.983
45507W        W16107  26.724  31.572   3.542
45508W        W16108  33.402   9.095   2.430
45509W        W16109   0.582  25.441  12.478
45510W        W16110   4.744  29.706   1.459
45511W        W16111  27.978  21.012  14.870
45512W        W16112  14.299  39.405  12.105
45513W        W16113  39.893  37.692  14.013
45514W        W16114  44.581  38.307   1.515
45515W        W16115  26.663  31.841  10.222
45516W        W16116  19.941  33.403  12.705
45517W        W16117  33.194  23.083   3.280
45518W        W16118  25.452  36.465  13.002
45519W        W16119  30.326  41.323   1.180
45520W        W16120  37.242  40.221  10.926
45521W        W16121   9.807  23.741  10.814
45522W        W16122  15.603  29.122   3.287
45523W        W16123   6.258   2.988  11.323
45524W        W16124  24.973   6.547  12.181
45525W        W16125  31.532   2.722  11.532
45526W        W16126  27.699  41.872  10.525
45527W        W16127  17.709   7.132  14.172
45528W        W16128  18.815   7.903   4.791
45529W        W16129  13.082  31.944   3.093
45530W        W16130   5.227  22.045  10.711
45531W        W16131  29.376  17.654   3.091
45532W        W16132  23.186   1.786   0.852
45533W        W16133  15.309   3.774   2.329
45534W        W16134  15.912  23.935   0.210
45535W        W16135  36.895   5.527  13.576
45536W        W16136  23.188  40.701  10.532
45537W        W16137   8.782  15.059  14.926
45538W        W16138  18.160   9.461  11.518
45539W        W16139  27.939  20.593   0.821
45540W        W16140  37.327  19.802  14.005
45541W        W16141  25.626  43.459   0.023
45542W        W16142   9.926  31.895  12.891
45543W        W16143  21.602  25.130   0.209
45544W        W16144  39.563  15.195   3.078
45545W        W16145  21.574  18.940  13.916
45546W        W16146  24.739  25.884  14.002
45547W        W16147  24.082   6.105   2.409
45548W        W16148  36.478  35.917   3.238
45549W        W16149  29.294  23.025  13.063
45550W        W16150  10.588   1.042   3.305
45551W        W16151  34.526  15.687   1.020
45552W        W16152  43.237  27.211  13.905
45553W        W16153  18.062  11.987   4.029
45554W        W16154  32.082   4.189   4.538
45555W        W16155  10.011  36.960   0.716
45556W        W16156  36.004  11.067  10.392
45557W        W16157   5.784  13.928  14.527
45558W        W16158  11.818  12.601  12.895
45559W        W16159  14.308  10.117  13.006
45560W        W16160  44.884  11.920  14.964
45561W        W16161  41.159  39.696  14.658
45562W        W16162  14.122   8.114  12.573
45563W        W16163  20.137   5.677   4.250
45564W        W16164  16.064  25.979   0.016
45565W        W16165  25.203  34.178  13.817
45566W        W16166  30.489   2.256   4.161
45567W        W16167   3.207  32.255   1.035
45568W        W16168  11.616  16.413  10.772
45569W        W16169   1.021  25.730  14.720
45570W        W16170  36.869   7.457  11.159
45571W        W16171  34.484  38.452  12.367
45572W        W16172   8.869   7.426   2.335
45573W        W16173   8.427  13.853  11.112
45574W        W16174  35.580   1.469  13.781
45575W        W16175  42.990  32.943  11.205
45576W        W16176  27.700  19.338  10.703
45577W        W16177   5.485  44.271  10.160
45578W        W16178  42.430   3.662  13.410
45579W        W16179  20.139  40.016   2.419
45580W        W16180  24.515  34.565  13.630
45581W        W16181  10.321  22.772   4.323
45582W        W16182   5.429   0.368  11.123
45583W        W16183   1.817  28.607   1.510
45584W        W16184  27.065  17.214   1.702
45585W        W16185  17.295   5.433  13.942
45586W        W16186  44.084  44.991   1.280
45587W        W16187   5.926  13.657  12.522
45588W        W16188  21.307  26.226   0.891
45589W        W16189  33.795  33.225   1.218
45590W        W16190  27.969  28.410  11.640
45591W        W16191  25.068  40.181  11.227
45592W        W16192   6.861   5.335  11.709
45593W        W16193  21.918   0.980   2.299
45594W        W16194  10.590   3.284  14.865
45595W        W16195   4.306  15.595  11.055
45596W        W16196  20.055  11.656  13.156
45597W        W16197  18.240  24.043  13.497
45598W        W16198   0.980  10.316   0.704
45599W        W16199  33.569  26.712  12.480
45600W        W16200   0.611  27.156   2.756
45601W        W16201  40.119  13.877  11.451
45602W        W16202  41.976  15.842  14.615
45603W        W16203  28.731  12.202  10.641
45604W        W16204   3.780   7.724   0.835
45605W        W16205  36.820   7.328   3.566
45606W        W16206  21.369   5.897   0.486
45607W        W16207  39.855  43.358  13.293
45608W        W16208  32.850   3.840   3.706
45609W        W16209  15.849  23.806   1.914
45610W        W16210  37.426  15.395   2.282
45611W        W16211  21.708  14.214  14.581
45612W        W16212  33.212  15.511   1.264
45613W        W16213  42.094  41.945  10.889
45614W        W16214  41.920  28.611   3.739
45615W        W16215   2.799  23.582  10.748
45616W        W16216  15.365  17.752   4.488
45617W        W16217  28.388  39.836  12.903
45618W        W16218   8.901  36.269  14.316
45619W        W16219  14.691   9.676   1.486
45620W        W16220  15.257  18.117  13.326
45621W        W16221   4.254  43.561  12.990
45622W        W16222  12.271   4.143  11.563
45623W        W16223   1.238   4.013   3.126
45624W        W16224  41.411  17.547  11.147
45625W        W16225  25.081  15.496   0.032
45626W        W16226  23.639  38.006   0.984
45627W        W16227   0.990  23.442  14.161
45628W        W16228  30.762   8.195   0.989
45629W        W16229  24.671  34.389   2.389
45630W        W16230   5.867  21.213  10.697
45631W        W16231  25.472  42.304  13.070
45632W        W16232  43.305  13.541   4.563
45633W        W16233  24.955   1.776   3.121
45634W        W16234  27.416  12.370   4.766
45635W        W16235  17.623  28.156   2.255
45636W        W16236  18.479   7.433   0.151
45637W        W16237   8.615  41.828  12.079
45638W        W16238  44.281  12.839   0.912
45639W        W16239  30.551  15.798  12.477
45640W        W16240  43.636   9.719  13.549
45641W        W16241  19.070  17.848  14.232
45642W        W16242  42.976  19.990  14.974
45643W        W16243  14.292  11.851  11.572
45644W        W16244  34.906   9.804  14.015
45645W        W16245  28.558  14.160   4.040
45646W        W16246  34.965  27.292  14.314
45647W        W16247  43.498  35.528  13.488
45648W        W16248  31.398  36.094  14.237
45649W        W16249  16.606  26.599   3.739
45650W        W16250  25.105  30.012  13.758
45651W        W16251  11.854  15.649  10.328
45652W        W16252  37.562  34.092   0.779
45653W        W16253  12.007   8.183   1.549
45654W        W16254  23.154  15.085  14.242
45655W        W16255  37.330   2.948  10.533
45656W        W16256  11.870  21.547  14.837
45657W        W16257  34.467  41.411   2.381
45658W        W16258  17.797  24.023  10.241
45659W        W16259  33.393   1.007   2.877
45660W        W16260  37.792  27.722   3.753
45661W        W16261   1.755  11.228  14.987
45662W        W16262  32.896  43.794  12.169
45663W        W16263  37.354  16.178   4.763
45664W        W16264   5.922  41.033   4.708
45665W        W16265   9.345  14.182   3.181
45666W        W16266  37.583  22.074  11.774
45667W        W16267   3.962  37.208   0.305
45668W        W16268  16.336  27.243  13.517
45669W        W16269  28.639   5.883   3.160
45670W        W16270  43.715  42.728  11.143
45671W        W16271  42.669   1.753  12.453
45672W        W16272   7.458  38.378   4.779
45673W        W16273  42.812  36.285   1.461
45674W        W16274  36.481  39.629   1.722
45675W        W16275  32.520   9.142  13.481
45676W        W16276  19.361   7.776   1.267
45677W        W16277  19.541   9.779  14.400
45678W        W16278  30.264   5.159  12.229
45679W        W16279   8.845  29.862   4.118
45680W        W16280  14.846  30.085   3.759
45681W        W16281  17.207  17.381  13.429
45682W        W16282  39.038   2.446  12.981
45683W        W16283  30.032  22.290   3.977
45684W        W16284  12.691  33.734  12.925
45685W        W16285  30.564   4.724  10.417
45686W        W16286   1.373   2.529  14.527
45687W        W16287  19.841   8.037  11.071
45688W        W16288  41.492  10.652  14.298
45689W        W16289  32.135   6.059  10.769
45690W        W16290  39.888  11.798   0.004
45691W        W16291  42.850  17.857   4.571
45692W        W16292  20.575  22.249  11.531
45693W        W16293  34.877   6.924   2.740
45694W        W16294   0.375   7.235   4.235
45695W        W16295  20.083  29.142  11.666
45696W        W16296  41.348   6.761   2.313
45697W        W16297  18.014  24.108   4.706
45698W        W16298  30.838   3.354  12.930
45699W        W16299  20.598  41.301   3.200
45700W        W16300   5.948   2.146  12.925
45701W        W16301  10.365  13.192   4.053
45702W        W16302  22.735  26.266   1.667
45703W        W16303  26.712   2.944  10.642
45704W        W16304  25.700  36.067   9.603
45705W        W16305  40.109   7.281  12.064
45706W        W16306  30.823  10.019   2.786
45707W        W16307  39.591  33.330   4.066
45708W        W16308  28.499   9.128   3.697
45709W        W16309  44.555   5.248  11.198
45710W        W16310  36.548  27.756  12.813
45711W        W16311  13.783  41.068   0.215
45712W        W16312  11.671   3.108  11.033
45713W        W16313  44.474   5.723   1.394
45714W        W16314  31.336  36.326  13.349
45715W        W16315  21.551   8.279  13.817
45716W        W16316   3.706   7.623  14.673
45717W        W16317  14.266  14.963  13.132
45718W        W16318  26.934  27.882  12.468
45719W        W16319  25.859  26.466   0.776
45720W        W16320  23.003   7.745  12.958
45721W        W16321   5.997  43.333  14.636
45722W        W16322  36.452  34.059   4.675
45723W        W16323  30.358   0.244   3.439
45724W        W16324  27.956  44.549  12.980
45725W        W16325  42.100  22.645   5.212
45726W        W16326  34.361   8.955  11.673
45727W        W16327  23.244  39.923  14.802
45728W        W16328  12.406  29.195   1.783
45729W        W16329  35.104   4.456  12.866
45730W        W16330  40.793  32.522   4.087
45731W        W16331  34.569   7.061   2.354
45732W        W16332  22.275  43.022  13.828
45733W        W16333  37.055   2.453   4.781
45734W        W16334  20.433  21.019  11.199
45735W        W16335  33.073  20.146  10.700
45736W        W16336  26.152   2.920   1.174
45737W        W16337  10.935  28.052  14.472
45738W        W16338  16.245  25.191  11.796
45739W        W16339   3.164  30.597  12.059
45740W        W16340  31.641  39.001   2.713
45741W        W16341   3.611   7.170  14.901
45742W        W16342  18.286  21.272  12.035
45743W        W16343  10.294  42.302  13.049
45744W        W16344  24.300  43.899   3.773
45745W        W16345  36.155  13.569  12.414
45746W        W16346  40.640  33.549   2.556
45747W        W16347  42.794  13.885  11.927
45748W        W16348  28.594  29.141   4.705
45749W        W16349  36.253  18.641  10.276
45750W        W16350  32.359  24.068   2.192
45751W        W16351  33.159  11.333  10.263
45752W        W16352  20.213  10.855  13.824
45753W        W16353  23.518  39.528   0.004
45754W        W16354  18.561  24.391  10.734
45755W        W16355  31.339   9.288  12.613
45756W        W16356  30.416  39.559   0.927
45757W        W16357  22.695  13.674  12.064
45758W        W16358  15.197  21.051  11.664
45759W        W16359   1.760  31.998   3.217
45760W        W16360   0.578  11.655  13.945
45761W        W16361  20.582  13.313  12.593
45762W        W16362  42.807  21.946  13.514
45763W        W16363  27.530  36.648  13.766
45764W        W16364  16.219  24.279   1.390
45765W        W16365   9.812   7.696   0.394
45766W        W16366  11.200  20.669  13.541
45767W        W16367  15.711  13.056  11.575
45768W        W16368  35.019  31.843  10.324
45769W        W16369  19.262  18.270  12.005
45770W        W16370  15.248  28.104   2.445
45771W        W16371   8.238   3.669   2.670
45772W        W16372  35.933  12.850  11.640
45773W        W16373  25.683   2.971   1.818
45774W        W16374  38.536   0.521  13.292
45775W        W16375  13.078  41.514   4.650
45776W        W16376  10.084  22.638  12.284
45777W        W16377  32.534   2.490  14.416
45778W        W16378   8.451  44.907   3.625
45779W        W16379   6.715  14.321   0.022
45780W        W16380  10.752  33.043   0.384
45781W        W16381  25.171   2.781  11.825
45782W        W16382  26.174   9.483   2.866
45783W        W16383   4.233  43.393   0.415
45784W        W16384  36.296  16.240  10.758
45785W        W16385  41.815   2.836   2.370
45786W        W16386  41.242  10.142   2.603
45787W        W16387  27.035  27.038  11.415
45788W        W16388  20.628  36.795  11.466
45789W        W16389  10.050  22.045   0.253
45790W        W16390  10.472  13.428   4.501
45791W        W16391  34.106  34.330   1.365
45792W        W16392  22.745   3.209  10.079
45793W        W16393  41.514  24.231   1.457
45794W        W16394  11.204  31.879   2.233
45795W        W16395  15.794  37.069  13.871
45796W        W16396   0.444  21.343  13.773
45797W        W16397   8.734   2.366   4.200
45798W        W16398  20.707  25.462   2.140
45799W        W16399  34.709  13.496   0.907
45800W        W16400  42.975  11.476   2.686
45801W        W16401  36.900  28.339  13.920
45802W        W16402   9.164  14.243   3.982
45803W        W16403  27.991  26.749  12.410
45804W        W16404  30.896  25.598  14.782
45805W        W16405  28.957  29.597  10.920
45806W        W16406  30.671  11.910   1.439
45807W        W16407  20.329  40.191   0.931
45808W        W16408  11.247  11.331   3.363
45809W        W16409  11.447  33.704  12.503
45810W        W16410  43.524   8.206  14.935
45811W        W16411  32.668  14.377   4.555
45812W        W16412  12.591  24.051   4.161
45813W        W16413  38.553  14.223   3.786
45814W        W16414   6.720  34.455   2.683
45815W        W16415  28.236  16.250   4.919
45816W        W16416  44.272  14.103   3.619
45817W        W16417  18.075  33.875  13.402
45818W        W16418  23.902  15.652  11.086
45819W        W16419   4.225  41.322   4.889
45820W        W16420  29.465   8.923  13.983
45821W        W16421  39.507  31.813   2.746
45822W        W16422  24.281  43.898   1.667
45823W        W16423  36.593  24.767   2.906
45824W        W16424   8.211  14.268   4.933
45825W        W16425   4.990  32.037  13.426
45826W        W16426  19.023  38.491   3.292
45827W        W16427   6.063  25.687   4.462
45828W        W16428  39.483  12.288   0.814
45829W        W16429  30.724  24.342  14.589
45830W        W16430  42.521  15.301  11.035
45831W        W16431  30.820  16.733  14.870
45832W        W16432   7.903  11.873   0.138
45833W        W16433  29.157  22.154   0.880
45834W        W16434  16.763  39.827  12.051
45835W        W16435  44.553  11.930   1.253
45836W        W16436  34.707  14.519  13.028
45837W        W16437   5.360   2.343  14.012
45838W        W16438  28.454   3.640  11.044
45839W        W16439  39.198  44.939  11.175
45840W        W16440  37.515   2.424   2.210
45841W        W16441  34.982  39.130   4.572
45842W        W16442  10.258  40.813  10.705
45843W        W16443   9.281   4.191  13.961
45844W        W16444  33.992   6.649  10.759
45845W        W16445  43.441   5.247  14.229
45846W        W16446  35.880   4.770  13.929
45847W        W16447   2.355  34.731  14.344
45848W        W16448  15.377  26.205  11.239
45849W        W16449  17.648  32.436   3.754
45850W        W16450   1.813  24.012  11.689
45851W        W16451  28.821  26.423   4.951
45852W        W16452  43.618  29.187  13.373
45853W        W16453  14.262  39.769   4.105
45854W        W16454  13.869  42.047  11.055
45855W        W16455  35.478  15.522   3.828
45856W        W16456  33.548  35.763   5.029
45857W        W16457   8.180  37.850   0.729
45858W        W16458  15.625  38.412   3.228
45859W        W16459  25.107   0.475  12.057
45860W        W16460  37.531  32.353   5.051
45861W        W16461  30.635  15.274  12.510
45862W        W16462   5.202  38.478   0.982
45863W        W16463  27.960  44.806  14.767
45864W        W16464  20.573  36.872   1.915
45865W        W16465  38.735  14.347   2.443
45866W        W16466  32.152  24.684  11.130
45867W        W16467  25.192  18.246  14.793
45868W        W16468  16.688  15.604   1.438
45869W        W16469   5.572  35.070  12.599
45870W        W16470  15.323  31.155   4.937
45871W        W16471  12.845   6.257  11.579
45872W        W16472   8.296  16.485   0.259
45873W        W16473  19.804  42.202  13.542
45874W        W16474  14.829  25.578  12.092
45875W        W16475  40.601  30.367   3.559
45876W        W16476  33.917  30.756   3.336
45877W        W16477  29.459   1.435   4.325
45878W        W16478  10.791  23.338  13.017
45879W        W16479  30.827  14.968  11.739
45880W        W16480  11.437  21.716  12.118
45881W        W16481  25.811  28.604  11.844
45882W        W16482   5.897   7.334  13.537
45883W        W16483   3.675  19.074   4.237
45884W        W16484   2.885  23.986   2.295
45885W        W16485  23.203  28.990  11.025
45886W        W16486  35.110  15.707  14.687
45887W        W16487  16.613  24.462   1.759
45888W        W16488   0.317  12.939   1.296
45889W        W16489  28.831   5.176   3.847
45890W        W16490  30.650  23.721   3.725
45891W        W16491  19.338  41.922  13.356
45892W        W16492  34.467  28.590  11.469
45893W        W16493  42.606   7.613   0.047
45894W        W16494  22.712  19.210   1.404
45895W        W16495   4.338  19.798   4.662
45896W        W16496  36.612  13.761   1.866
45897W        W16497  28.866  29.144   3.501
45898W        W16498  17.239  32.119  12.042
45899W        W16499  11.582   4.635   0.845
45900W        W16500  32.648  12.326  13.593
45901W        W16501  26.663   4.648   4.114
45902W        W16502   2.943  19.961  14.852
45903W        W16503   2.778  20.097  12.339
45904W        W16504  13.562  41.028  13.389
45905W        W16505  26.420   5.254  11.138
45906W        W16506  18.761  40.852  12.513
45907W        W16507  40.535  36.044  10.547
45908W        W16508  23.028  24.104   2.701
45909W        W16509  24.594  24.228   0.375
45910W        W16510  20.134  33.021   4.626
45911W        W16511  33.844  17.607  11.392
45912W        W16512  16.125   3.449  14.460
45913W        W16513  32.480  31.194   2.342
45914W        W16514  12.011   1.436  13.380
45915W        W16515  23.096  27.084   4.458
45916W        W16516  38.487  37.073  11.621
45917W        W16517  37.921   1.739  13.272
45918W        W16518  31.373  30.599  13.864
45919W        W16519  41.005  37.377   4.236
45920W        W16520   3.506  22.768   0.915
45921W        W16521  30.408  14.729   1.360
45922W        W16522  26.931  19.196  11.064
45923W        W16523  10.150   0.929  11.122
45924W        W16524  13.101  14.730   1.903
45925W        W16525  33.065   7.435  13.018
45926W        W16526  29.408  35.548   0.855
45927W        W16527  14.081  21.742   3.502
45928W        W16528  13.974  21.012   1.928
45929W        W16529  18.099  34.101   2.011
45930W        W16530  31.084  40.836   1.185
45931W        W16531  31.159  42.578   0.915
45932W        W16532   5.879   1.557   4.150
45933W        W16533  18.991  36.446  12.074
45934W        W16534  33.493  33.018  13.788
45935W        W16535  41.504   5.291   4.477
45936W        W16536  17.328  39.274  12.176
45937W        W16537  16.573  38.785   3.336
45938W        W16538   1.729  32.012   2.200
45939W        W16539   6.211  10.340  14.030
45940W        W16540  22.296  20.688  11.091
45941W        W16541  16.838  30.624  10.509
45942W        W16542  24.530  19.544   4.698
45943W        W16543   1.716  12.606  12.453
45944W        W16544  27.777  39.320  12.445
45945W        W16545  34.572  16.764   1.962
45946W        W16546   8.006   7.776   2.976
45947W        W16547  20.691  41.612  12.038
45948W        W16548  35.056  23.329  12.331
45949W        W16549  22.070  11.789   3.564
45950W        W16550  25.060  34.424  12.123
45951W        W16551  26.268  42.485   4.819
45952W        W16552  15.811  23.662   4.382
45953W        W16553  44.371  29.271  12.146
45954W        W16554  11.863  30.618  14.125
45955W        W16555  38.056  16.811  12.796
45956W        W16556  26.614  18.394   4.948
45957W        W16557  32.390  11.229   3.478
45958W        W16558  24.383  34.082   2.698
45959W        W16559   5.370  16.036  10.618
45960W        W16560  25.036   5.268   1.661
45961W        W16561  41.547  35.068   9.552
45962W        W16562  12.936  29.730  11.617
45963W        W16563  34.433  33.909   3.185
45964W        W16564  42.111  16.594   0.083
45965W        W16565  17.653  11.595   2.254
45966W        W16566  36.747   6.946  14.503
45967W        W16567  21.584   6.164   3.987
45968W        W16568  30.883  44.012  11.952
45969W        W16569  44.798  13.821  14.782
45970W        W16570   7.228  22.503   4.545
45971W        W16571   7.112  37.916  10.811
45972W        W16572   0.394  23.359  14.860
45973W        W16573  13.690  29.499   4.615
45974W        W16574   8.211  44.458   3.435
45975W        W16575  19.185   5.371   1.967
45976W        W16576   0.985  25.731   0.462
45977W        W16577  33.981  34.827   4.095
45978W        W16578  15.788   0.274   1.481
45979W        W16579  31.631  14.884  10.755
45980W        W16580  24.705  25.623  13.571
45981W        W16581   9.258  23.754   2.225
45982W        W16582   6.169  36.071   3.869
45983W        W16583  18.715  15.023  12.958
45984W        W16584  43.562  44.711  14.985
45985W        W16585  21.163  28.952   2.716
45986W        W16586  11.807  26.445  13.664
45987W        W16587   5.151  26.235  12.090
45988W        W16588   8.880  16.530   3.860
45989W        W16589  33.650  16.692  11.879
45990W        W16590  12.130   7.356   4.148
45991W        W16591  33.511   7.617  14.422
45992W        W16592   1.900  19.776  14.271
45993W        W16593  30.022  40.762   1.448
45994W        W16594  42.630  19.015   0.938
45995W        W16595   9.370   6.945  12.007
45996W        W16596  28.060  17.339  14.715
45997W        W16597  18.449   8.386   2.185
45998W        W16598  42.223  16.277  13.011
45999W        W16599  38.533  11.767   0.842
46000W        W16600  18.579  33.483   1.663
46001W        W16601   8.164  32.837   1.368
46002W        W16602  25.167  41.503   1.932
46003W        W16603   2.157  28.044   3.134
46004W        W16604   3.863   0.931   4.643
46005W        W16605  43.436   5.499   2.160
46006W        W16606  26.167  42.767  10.737
46007W        W16607  38.722  18.108   1.896
46008W        W16608   9.225  42.305  12.540
46009W        W16609  32.874   7.091   2.902
46010W        W16610  27.502  36.147   0.368
46011W        W16611  41.597  21.629  11.938
46012W        W16612   8.305   7.624  14.730
46013W        W16613   5.409  42.790   1.888
46014W        W16614   7.689  25.103   3.343
46015W        W16615  21.266  14.064   2.231
46016W        W16616  34.429   8.731   4.567
46017W        W16617  35.681  15.518  14.972
46018W        W16618   5.998  11.173  10.704
46019W        W16619  22.677  36.479   2.257
46020W        W16620  31.886  30.205  11.556
46021W        W16621  38.887   8.383  12.384
46022W        W16622  34.332  24.484  12.455
46023W        W16623  42.055  25.173  14.819
46024W        W16624  33.566  17.166  14.388
46025W        W16625  15.251  10.363   1.839
46026W        W16626  16.154  17.499  14.341
46027W        W16627  27.545  11.318  11.500
46028W        W16628  30.014  43.545  11.768
46029W        W16629  20.015  44.658   2.315
46030W        W16630  19.971  41.990  11.258
46031W        W16631  30.377  28.897   0.904
46032W        W16632   2.856  35.548  10.770
46033W        W16633   6.465  12.286   1.294
46034W        W16634  42.423   3.132   0.205
46035W        W16635  33.264  25.831   2.666
46036W        W16636  22.199  42.929   3.757
46037W        W16637  11.221   9.706  13.007
46038W        W16638  18.225  42.073  11.194
46039W        W16639  12.583  31.108   2.692
46040W        W16640  13.723   0.419   1.673
46041W        W16641  14.169  28.512  14.064
46042W        W16642  23.489  17.607  14.930
46043W        W16643   3.346  23.436  12.318
46044W        W16644  19.671  14.167   2.126
46045W        W16645  30.640  44.461  13.553
46046W        W16646  38.499  25.482   2.743
46047W        W16647  39.666   8.188   4.253
46048W        W16648  12.569   9.668   3.310
46049W        W16649  10.202   9.639  11.539
46050W        W16650   7.934  15.988  11.879
46051W        W16651   5.306  18.348  13.746
46052W        W16652   0.475  16.152   4.533
46053W        W16653   7.266   5.372   1.792
46054W        W16654  30.619  14.502   2.818
46055W        W16655   5.320  33.583  13.829
46056W        W16656  35.601  24.009  12.677
46057W        W16657  28.164  20.564  13.296
46058W        W16658  23.179  37.576   1.014
46059W        W16659   1.240  16.123   3.643
46060W        W16660  10.648  30.615   3.864
46061W        W16661  36.609  11.227  14.084
46062W        W16662   7.710  22.222   2.465
46063W        W16663   8.360  44.270  14.445
46064W        W16664  39.402   5.805   4.223
46065W        W16665  14.921  11.431   4.120
46066W        W16666  44.968  19.636  12.175
46067W        W16667  41.472  37.011   1.373
46068W        W16668  31.380   8.254  11.664
46069W        W16669  31.860   6.800   2.545
46070W        W16670  19.705   9.075   1.719
46071W        W16671  15.818  33.667  12.474
46072W        W16672  10.320  34.660  14.945
46073W        W16673  25.920   5.319  11.182
46074W        W16674  18.357  42.503   0.927
46075W        W16675  39.399  29.966   4.400
46076W        W16676  14.692  30.401  14.081
46077W        W16677  42.655   4.199   0.831
46078W        W16678  32.453   0.989  11.615
46079W        W16679  19.528   7.889   3.671
46080W        W16680   0.673  30.454  13.358
46081W        W16681  14.072  17.979   4.553
46082W        W16682  11.089  31.246  11.889
46083W        W16683  32.554   2.889  14.077
46084W        W16684  40.254  42.705   3.648
46085W        W16685  41.510   3.239   4.163
46086W        W16686  25.145  19.018   2.842
46087W        W16687  32.805  14.926  12.959
46088W        W16688   0.280  43.529   3.255
46089W        W16689  34.583  28.636  11.968
46090W        W16690  21.832  11.509   1.837
46091W        W16691  32.005  16.393  11.920
46092W        W16692  22.029  14.246   0.012
46093W        W16693  17.500  19.569   4.078
46094W        W16694   9.811  36.347  13.550
46095W        W16695  17.759  16.526  14.448
46096W        W16696   6.707  18.123  13.812
46097W        W16697   2.625  14.792   1.637
46098W        W16698  16.588  31.815  13.032
46099W        W16699   8.829   9.101  12.125
46100W        W16700  26.496  14.197   3.889
46101W        W16701  34.965   8.993  13.590
46102W        W16702  32.622   5.020  11.146
46103W        W16703  20.502  28.100  13.978
46104W        W16704  43.023   0.703  14.305
46105W        W16705  26.881   2.689  14.046
46106W        W16706  13.274   5.279   1.275
46107W        W16707   1.773   9.919  14.430
46108W        W16708  31.276  12.281   4.078
46109W        W16709  31.425   7.000   0.139
46110W        W16710   0.337  21.779   3.125
46111W        W16711  26.514  25.078  10.855
46112W        W16712  13.749   0.653  13.882
46113W        W16713  30.926  42.109   2.182
46114W        W16714  11.580  16.081   1.258
46115W        W16715   7.960  18.845   3.676
46116W        W16716  29.928  28.188  12.854
46117W        W16717  43.339  21.486  12.946
46118W        W16718  20.226  12.742   3.089
46119W        W16719  21.652  43.556   3.405
46120W        W16720   0.546  39.635  10.152
46121W        W16721  24.473  33.016  14.462
46122W        W16722  27.607  17.167   3.852
46123W        W16723  32.716  27.044  11.591
46124W        W16724  41.074   6.077   4.794
46125W        W16725   6.239   4.219   4.312
46126W        W16726   5.706   9.496  10.906
46127W        W16727  29.486  24.494  14.271
46128W        W16728  40.860  13.492   0.368
46129W        W16729  43.510  20.123   4.534
46130W        W16730  42.565  34.450  11.277
46131W        W16731  31.668   5.839   0.805
46132W        W16732   4.819  27.017  14.272
46133W        W16733  35.068  21.343   2.738
46134W        W16734  37.919  30.838   3.701
46135W        W16735   9.733  43.077   3.128
46136W        W16736   9.777  40.253   3.155
46137W        W16737  12.685   5.352   4.577
46138W        W16738  36.017  15.355  11.590
46139W        W16739   9.552  24.495   4.148
46140W        W16740  24.090  32.638   4.335
46141W        W16741  39.751  15.287   1.342
46142W        W16742  39.987  36.000   4.671
46143W        W16743  11.730  16.585   0.386
46144W        W16744   5.584  36.935   2.160
46145W        W16745   4.724   3.866   4.175
46146W        W16746  17.794  23.651   4.602
46147W        W16747  16.703  15.283  11.626
46148W        W16748  36.117  22.198  14.529
46149W        W16749  10.675  10.685   0.443
46150W        W16750  31.649  26.575  13.913
46151W        W16751  28.967  38.413  13.925
46152W        W16752  13.998  38.941  10.411
46153W        W16753  36.018  38.995  11.566
46154W        W16754  32.469  42.986   0.284
46155W        W16755  32.863   3.336   1.739
46156W        W16756  13.278  42.034  12.926
46157W        W16757  11.924  42.042   0.798
46158W        W16758  12.977  14.852   1.392
46159W        W16759  39.407  41.240   2.986
46160W        W16760  44.757  22.442  12.081
46161W        W16761  25.590  11.660  14.301
46162W        W16762  17.074  21.718  12.552
46163W        W16763  41.050  44.838  13.984
46164W        W16764  29.976   5.791   1.717
46165W        W16765  10.805  25.426   4.885
46166W        W16766  12.344   1.530   2.356
46167W        W16767  36.368   6.401  13.894
46168W        W16768  29.380  36.975  13.136
46169W        W16769  40.393  31.069  11.238
46170W        W16770   3.704  14.689   2.944
46171W        W16771  17.719   0.721   3.848
46172W        W16772  39.040  39.277  11.845
46173W        W16773  24.585  29.181   3.717
46174W        W16774  40.121  29.697   0.047
46175W        W16775  18.054  42.532   4.991
46176W        W16776  32.475  26.428   4.431
46177W        W16777  40.518  32.078  10.862
46178W        W16778  34.659  22.858  13.778
46179W        W16779  41.393   8.945  13.811
46180W        W16780  33.731  30.417   3.698
46181W        W16781  26.106  30.114   4.820
46182W        W16782  43.241   6.262   1.100
46183W        W16783  26.442  44.491  14.887
46184W        W16784  13.877   7.201  13.398
46185W        W16785  12.055  10.450   2.686
46186W        W16786  15.773  25.669  13.634
46187W        W16787  18.063  16.090   1.513
46188W        W16788  27.132  41.044   1.943
46189W        W16789  38.758   1.636   1.721
46190W        W16790  36.044  21.140   4.653
46191W        W16791  41.899  22.518   1.414
46192W        W16792  13.819  14.143  13.086
46193W        W16793  34.816  24.524   2.812
46194W        W16794  34.459  34.854  11.693
46195W        W16795  14.549   6.717   3.254
46196W        W16796  35.105  32.592  13.817
46197W        W16797  28.153  28.809   3.993
46198W        W16798  15.395  23.450  11.096
46199W        W16799  38.278  13.205  12.533
46200W        W16800  34.092  31.542   0.779
46201W        W16801   9.936  42.978  10.685
46202W        W16802   1.471   5.892  14.397
46203W        W16803  38.741  38.660   1.689
46204W        W16804  26.704   7.479   4.131
46205W        W16805  29.963  19.462  11.924
46206W        W16806  39.008   4.577  10.699
46207W        W16807  20.204   3.335   3.677
46208W        W16808   6.498  33.525  14.441
46209W        W16809  13.643  43.312  12.793
46210W        W16810  43.303   4.328  12.930
46211W        W16811  18.820  14.045  12.654
46212W        W16812  34.004  10.367  12.054
46213W        W16813   2.573  26.931   1.087
46214W        W16814  35.144  21.743   3.241
46215W        W16815  35.136  34.864  14.727
46216W        W16816  33.228   9.897  13.296
46217W        W16817  10.694  10.147   4.944
46218W        W16818  33.170  42.329  13.468
46219W        W16819   9.202  37.023  12.880
46220W        W16820  20.620   6.722   4.675
46221W        W16821   4.322  18.544   2.467
46222W        W16822  30.389  23.075   0.710
46223W        W16823  44.878  10.791  12.556
46224W        W16824   4.868  25.500   3.528
46225W        W16825  17.125   3.871   1.766
46226W        W16826  31.414  16.697   1.854
46227W        W16827  14.555  41.163  14.514
46228W        W16828  42.289  10.187   0.445
46229W        W16829  19.227   3.978   3.073
46230W        W16830  41.228   3.129   4.602
46231W        W16831  15.145   5.415   1.930
46232W        W16832   7.383  21.572   1.366
46233W        W16833   1.708  21.062  13.473
46234W        W16834  14.552  28.946  10.624
46235W        W16835   1.301   7.254  10.802
46236W        W16836  40.159  42.552  10.348
46237W        W16837   5.808   6.385   2.627
46238W        W16838  23.151   0.298   4.258
46239W        W16839  11.118  39.389   2.352
46240W        W16840  43.978  22.059  11.146
46241W        W16841  28.442  15.873   4.592
46242W        W16842  10.746  40.054  13.329
46243W        W16843  12.233  16.679   1.227
46244W        W16844  37.319  33.652  11.139
46245W        W16845  19.695  11.159  12.449
46246W        W16846   6.388  36.061   4.349
46247W        W16847  38.209  14.825   4.243
46248W        W16848  30.300  20.254  11.623
46249W        W16849  18.603   6.708   4.017
46250W        W16850  32.490  14.918  12.477
46251W        W16851  22.346  41.100  14.310
46252W        W16852  13.554  27.612   0.551
46253W        W16853  28.972  19.610  11.944
46254W        W16854  28.406  20.749  14.946
46255W        W16855  33.491  23.415  14.513
46256W        W16856  27.998  22.628   2.393
46257W        W16857   4.472  31.503   2.195
46258W        W16858  27.118  35.530  12.319
46259W        W16859   2.958  25.675   3.735
46260W        W16860  22.619  37.441  10.336
46261W        W16861  15.720  22.549   0.028
46262W        W16862   7.975  17.087   4.186
46263W        W16863  38.750  22.093   3.501
46264W        W16864  14.178  24.943  10.743
46265W        W16865  23.985   2.971  12.372
46266W        W16866  32.205  42.254  11.580
46267W        W16867   3.887   0.556  11.051
46268W        W16868  26.038  36.319   3.786
46269W        W16869   6.232  17.635  12.061
46270W        W16870  38.659  30.424   0.353
46271W        W16871   1.805  41.034   1.547
46272W        W16872  30.547  43.246  10.707
46273W        W16873  41.883   3.725   3.599
46274W        W16874  21.270  19.982   0.731
46275W        W16875  31.783  13.679  12.770
46276W        W16876  20.320  36.080   4.132
46277W        W16877  14.891  20.117   2.684
46278W        W16878  23.571  34.594  14.858
46279W        W16879   5.357   7.744   4.509
46280W        W16880  13.970  15.739  11.574
46281W        W16881  30.911  23.232  14.066
46282W        W16882  26.260   9.386  13.057
46283W        W16883  17.619  28.199  10.607
46284W        W16884  36.562  33.424  12.479
46285W        W16885  11.131   8.847   2.421
46286W        W16886  35.482   0.677  10.877
46287W        W16887  26.468   5.921  10.481
46288W        W16888   2.879  43.151   3.823
46289W        W16889  41.353  23.056   4.409
46290W        W16890  14.875   5.277  11.727
46291W        W16891  30.233  19.149   4.810
46292W        W16892  35.801  34.656   0.765
46293W        W16893  14.812   4.775   0.541
46294W        W16894  24.160   2.920   4.629
46295W        W16895  40.518  27.250  13.960
46296W        W16896  29.406   3.125  12.909
46297W        W16897   8.165  44.887   1.797
46298W        W16898  36.441   9.554   2.272
46299W        W16899  40.733  15.524  11.243
46300W        W16900  40.857  13.351  14.377
46301W        W16901  38.858  18.331   4.021
46302W        W16902  40.823   6.870   2.415
46303W        W16903  25.071   0.175   2.503
46304W        W16904  21.596  44.580  13.036
46305W        W16905  40.036  14.994  13.346
46306W        W16906   4.767  18.742  12.210
46307W        W16907  40.064   6.787   3.681
46308W        W16908  39.680   8.384  12.069
46309W        W16909  31.487   9.176  14.460
46310W        W16910  34.593  34.896  11.192
46311W        W16911  24.562  43.320  10.700
46312W        W16912  29.553  23.479  10.793
46313W        W16913   9.692  33.356  11.630
46314W        W16914  35.996   8.192   0.241
46315W        W16915  24.696  38.273  12.815
46316W        W16916   4.228  43.885   2.285
46317W        W16917  20.255  17.999   0.336
46318W        W16918  28.202  20.968  13.609
46319W        W16919  31.317  29.721  14.272
46320W        W16920  21.132   4.035  14.138
46321W        W16921   4.258  10.503  14.291
46322W        W16922   7.453  18.577  11.112
46323W        W16923   0.961   8.600   3.770
46324W        W16924  16.288  28.938  12.496
46325W        W16925   7.292  40.320   0.260
46326W        W16926   3.193  40.015   2.233
46327W        W16927  28.510   0.072   2.463
46328W        W16928  43.789  32.820  14.219
46329W        W16929  43.435   8.464  11.306
46330W        W16930  31.646  10.212  12.406
46331W        W16931   6.167  20.223  14.100
46332W        W16932  43.506  31.404   2.794
46333W        W16933  16.440  44.851   4.574
46334W        W16934   3.424  37.094  14.841
46335W        W16935  21.814  10.736   2.297
46336W        W16936  37.095  11.310  12.223
46337W        W16937  25.845  34.646  12.447
46338W        W16938   6.150  44.883   3.724
46339W        W16939  41.509  20.258   1.406
46340W        W16940   6.944  43.018  12.528
46341W        W16941   5.117  32.917  11.313
46342W        W16942  10.845  37.172  13.368
46343W        W16943  17.218   4.757  12.589
46344W        W16944  27.142  25.487  14.582
46345W        W16945  43.292  41.265  12.065
46346W        W16946  39.378   3.607   3.717
46347W        W16947   7.963   9.668   4.599
46348W        W16948  16.072   2.839  11.644
46349W        W16949  15.819  12.851  13.352
46350W        W16950   6.698   5.224  13.480
46351W        W16951  28.071  27.999  13.353
46352W        W16952   0.443  28.538  12.021
46353W        W16953  10.223  23.703   2.641
46354W        W16954  36.127  42.169  14.689
46355W        W16955  27.879  44.309  14.379
46356W        W16956  28.704  29.181   2.991
46357W        W16957  44.811  24.838  12.318
46358W        W16958  19.790  43.326   0.348
46359W        W16959  33.596   7.775   0.407
46360W        W16960  26.633  40.327   2.004
46361W        W16961   8.914   1.329  14.289
46362W        W16962  34.065  43.350  12.515
46363W        W16963   2.395  32.177   3.857
46364W        W16964   7.245  31.812  11.568
46365W        W16965  11.595  36.830   2.687
46366W        W16966  15.128  35.459  14.337
46367W        W16967  24.806   1.888  11.375
46368W        W16968  34.226  22.714  14.020
46369W        W16969  14.894   1.936  13.376
46370W        W16970   8.855   0.534   3.619
46371W        W16971  39.908  20.329   2.357
46372W        W16972  27.588   1.826   1.021
46373W        W16973  36.959  39.264  10.955
46374W        W16974   3.835  14.817   0.019
46375W        W16975   0.292  13.174   3.128
46376W        W16976  28.133  25.608   2.562
46377W        W16977  44.275  30.435   3.628
46378W        W16978  15.301  20.507   4.094
46379W        W16979  26.568  24.565  10.692
46380W        W16980   3.924   6.345   2.468
46381W        W16981  17.539  23.823  14.217
46382W        W16982  17.499  39.798  11.030
46383W        W16983  25.922  42.586   2.762
46384W        W16984  22.939   3.144   4.025
46385W        W16985  31.660  21.182  13.811
46386W        W16986  11.636  31.258   0.964
46387W        W16987  30.598   1.309   1.786
46388W        W16988   1.035  10.280  11.562
46389W        W16989  34.626   4.861  13.410
46390W        W16990  25.416  31.906  14.746
46391W        W16991  23.674  30.990   0.725
46392W        W16992  43.007  15.879   0.449
46393W        W16993  23.461  25.034   2.796
46394W        W16994  14.330  22.266  11.188
46395W        W16995  36.027  30.230   4.663
46396W        W16996  14.034  29.900   2.289
46397W        W16997  33.703   1.537  11.619
46398W        W16998  28.735  33.244   3.686
46399W        W16999   7.111  39.320   1.682
46400W        W17000  32.391  25.547   1.893
46401W        W17001  17.805  16.328   4.601
46402W        W17002  32.688   1.781  11.117
46403W        W17003   2.807  20.927  12.133
46404W        W17004  18.281  43.234   4.413
46405W        W17005  34.475   8.352   4.159
46406W        W17006  30.173  19.714  12.814
46407W        W17007   3.834   5.218   0.999
46408W        W17008  19.466  23.640   1.627
46409W        W17009  43.826  39.378  11.590
46410W        W17010  26.755  13.099   3.791
46411W        W17011  17.754  27.915  14.519
46412W        W17012  24.515  41.464  14.717
46413W        W17013  32.157  10.454   1.176
46414W        W17014   4.184  28.579   4.677
46415W        W17015  38.539   2.871   1.471
46416W        W17016   2.796  39.623  10.728
46417W        W17017  24.842   7.923   0.002
46418W        W17018   8.948  23.003  12.301
46419W        W17019  13.592   4.312  14.973
46420W        W17020  30.448  38.550  11.137
46421W        W17021   3.327  28.316  10.439
46422W        W17022   0.830   7.280  14.611
46423W        W17023  26.387  22.670  10.561
46424W        W17024  24.343  26.991  11.998
46425W        W17025  43.078   0.779  11.874
46426W        W17026  25.730  10.981   2.253
46427W        W17027  44.040  29.660  12.494
46428W        W17028  25.535  14.038  14.351
46429W        W17029   5.046  41.916  11.875
46430W        W17030   6.815  33.087   3.864
46431W        W17031  43.124  34.010   1.168
46432W        W17032  30.497  16.027   0.434
46433W        W17033   2.802  18.386   2.739
46434W        W17034   3.485  43.578   4.184
46435W        W17035  25.336  14.557  12.565
46436W        W17036   3.923  27.228  14.793
46437W        W17037   8.862   8.966  10.684
46438W        W17038  39.405  15.664   4.915
46439W        W17039  33.506   9.736   3.841
46440W        W17040  13.240  11.803  13.534
46441W        W17041  41.861  18.866  12.040
46442W        W17042  22.231  23.241  11.220
46443W        W17043   4.161   0.984  11.098
46444W        W17044  11.803  20.923   1.878
46445W        W17045  10.178  22.627  11.801
46446W        W17046   8.055  15.782  10.428
46447W        W17047  30.339  37.633  11.085
46448W        W17048  42.307   0.332  10.492
46449W        W17049  34.428  19.145  10.908
46450W        W17050   6.221  37.608  10.596
46451W        W17051  29.330   4.344  11.925
46452W        W17052  17.296  14.048   3.749
46453W        W17053  13.599   2.233   3.680
46454W        W17054  44.294  27.422   4.610
46455W        W17055   1.181  41.639   4.102
46456W        W17056  21.131   6.566  10.716
46457W        W17057   4.815   1.291  12.931
46458W        W17058  33.121  18.101   0.966
46459W        W17059  23.966  39.829  14.360
46460W        W17060   1.687  44.366  13.090
46461W        W17061  29.609  19.728  12.226
46462W        W17062  17.162  41.313   4.560
46463W        W17063   5.670   9.640  13.859
46464W        W17064  16.881  12.664  14.358
46465W        W17065   7.307  35.951  13.909
46466W        W17066  37.083  26.176   0.768
46467W        W17067  12.147  22.825   4.182
46468W        W17068  29.507  32.386   0.984
46469W        W17069  25.114   6.201  13.573
46470W        W17070  27.753  17.052   2.868
46471W        W17071  25.753  17.845   3.634
46472W        W17072  30.117  25.883   1.687
46473W        W17073   8.885  16.031   1.988
46474W        W17074  42.060  34.642  11.223
46475W        W17075  40.486  42.810  13.535
46476W        W17076  43.842  35.712   0.512
46477W        W17077  32.535  18.569  14.253
46478W        W17078  20.866  23.715  13.586
46479W        W17079  39.853  10.372   2.940
46480W        W17080  36.847  40.529  12.509
46481W        W17081  36.922  28.044  14.585
46482W        W17082  13.585  20.993   4.127
46483W        W17083  23.267   3.413  13.950
46484W        W17084  28.032  31.284  12.889
46485W        W17085  31.532   1.092  10.785
46486W        W17086  33.977  21.573   2.603
46487W        W17087  38.542  32.584   2.687
46488W        W17088  34.433  19.706  12.529
46489W        W17089  34.580   2.722   3.730
46490W        W17090   9.794  28.666   3.687
46491W        W17091  41.572  44.925   3.361
46492W        W17092   9.028  11.632   1.828
46493W        W17093  19.089  17.123  13.769
46494W        W17094  22.963   6.635   1.328
46495W        W17095  15.728  11.085   0.856
46496W        W17096  18.589  42.745  11.582
46497W        W17097   1.860  29.029   0.712
46498W        W17098  43.269  19.854  12.121
46499W        W17099   1.002   5.049  12.303
46500W        W17100   6.212   3.379  12.819
46501W        W17101  26.630  41.618  11.182
46502W        W17102  16.093  19.334  11.606
46503W        W17103   4.786  25.381  12.993
46504W        W17104  26.390  32.567   0.461
46505W        W17105  42.121  41.333   4.462
46506W        W17106  36.599   7.869  14.430
46507W        W17107  17.642  42.599   2.247
46508W        W17108  21.774  31.561   1.789
46509W        W17109  20.497  13.656  14.476
46510W        W17110  35.705  41.545  14.007
46511W        W17111  20.078  19.744   4.341
46512W        W17112  22.860  39.235   1.838
46513W        W17113   4.256  28.566   3.197
46514W        W17114  39.601  23.583  14.048
46515W        W17115  41.514  16.999  12.062
46516W        W17116  40.364  36.523   3.727
46517W        W17117   6.317   1.333   1.993
46518W        W17118  40.376   6.462  13.749
46519W        W17119  16.861   6.781   0.330
46520W        W17120  35.144  10.184  12.962
46521W        W17121  22.650  39.479  10.472
46522W        W17122  34.539  38.324   3.223
46523W        W17123  41.630  29.062  10.802
46524W        W17124  31.965  22.598  10.358
46525W        W17125  42.201   5.806   1.567
46526W        W17126  23.305  26.515   2.028
46527W        W17127   5.641  15.605  10.399
46528W        W17128   3.939  35.041   4.439
46529W        W17129  32.064  37.880  13.688
46530W        W17130  44.265   2.772   2.260
46531W        W17131  23.773   0.432   1.756
46532W        W17132  19.501  41.559   4.024
46533W        W17133  11.238  22.221  13.350
46534W        W17134  10.110  38.549   0.381
46535W        W17135   3.950  24.772  10.623
46536W        W17136   0.489  23.152   4.461
46537W        W17137   5.186   8.918   3.684
46538W        W17138  28.657  17.661  11.970
46539W        W17139   0.907   7.270  14.052
46540W        W17140  12.899  23.148  12.624
46541W        W17141  26.906  29.432   0.034
46542W        W17142  42.624  29.075   1.026
46543W        W17143  22.240   0.701  14.429
46544W        W17144   8.706  12.637   2.436
46545W        W17145  38.764  41.763  11.633
46546W        W17146  10.289  21.340   4.214
46547W        W17147  21.694  39.264  14.320
46548W        W17148   7.445  27.029   4.779
46549W        W17149  14.141  34.561   3.694
46550W        W17150  43.571  18.105   0.513
46551W        W17151  25.437   9.789   4.134
46552W        W17152  24.898  15.137  14.103
46553W        W17153  33.989  28.435  14.384
46554W        W17154  39.308  14.238   3.165
46555W        W17155   7.006  40.265  11.107
46556W        W17156  10.932  26.672   0.743
46557W        W17157  11.229   8.867   0.481
46558W        W17158   3.427  18.664  11.481
46559W        W17159   3.869   5.766  14.312
46560W        W17160  37.339  20.149  13.298
46561W        W17161  35.311  40.425   4.150
46562W        W17162   0.804  20.017  13.478
46563W        W17163   4.729  14.119  14.792
46564W        W17164  19.274  42.799   3.715
46565W        W17165  24.661   9.675  13.896
46566W        W17166  44.463  37.527   0.407
46567W        W17167  18.699   2.038   2.107
46568W        W17168  12.025  42.324   9.700
46569W        W17169  24.675  12.969   1.376
46570W        W17170  10.277  31.672  13.850
46571W        W17171  39.236  14.174   4.957
46572W        W17172  16.359   1.792  11.521
46573W        W17173  30.639  20.195   3.119
46574W        W17174  17.388   2.289  10.678
46575W        W17175  44.684  26.187   0.896
46576W        W17176  40.099  13.739   0.938
46577W        W17177  32.914  17.567  11.475
46578W        W17178   5.933  14.352  11.239
46579W        W17179   9.226  34.007  10.949
46580W        W17180  26.136   5.902  11.108
46581W        W17181  38.110  40.988   4.133
46582W        W17182  15.783  44.334   1.729
46583W        W17183  44.945  10.292  12.531
46584W        W17184  22.137   5.176   4.628
46585W        W17185  22.588  24.764   2.197
46586W        W17186  10.643   0.642   1.199
46587W        W17187  23.119  32.532   2.252
46588W        W17188  32.882  11.134   3.295
46589W        W17189  11.376  37.584   0.140
46590W        W17190  23.073  34.852   0.326
46591W        W17191   1.010  16.726  12.029
46592W        W17192   3.432  39.003   4.010
46593W        W17193  36.020  42.478   3.857
46594W        W17194  18.687  12.172   4.676
46595W        W17195  32.112   1.134  14.381
46596W        W17196   1.495  37.844  11.440
46597W        W17197   8.710  31.426   2.215
46598W        W17198  43.814   3.426   3.278
46599W        W17199  18.170  35.438  11.340
46600W        W17200  43.896  26.057  14.365
46601W        W17201  31.820  17.974  14.310
46602W        W17202  42.292   1.322   1.093
46603W        W17203  36.089  17.273  11.624
46604W        W17204  16.632  29.453  12.014
46605W        W17205  40.554  23.882   4.971
46606W        W17206   2.279  20.723   0.274
46607W        W17207  25.664  23.495   0.412
46608W        W17208   2.356  27.005   0.116
46609W        W17209  28.988  33.149   0.743
46610W        W17210   7.451  18.239   2.995
46611W        W17211  30.526  36.108  11.980
46612W        W17212  16.152  20.702  11.742
46613W        W17213  19.113   1.482  14.948
46614W        W17214  17.933  13.782  14.550
46615W        W17215   4.799   6.443  14.356
46616W        W17216  20.456  33.473   1.800
46617W        W17217  11.083  28.679   2.844
46618W        W17218  40.553   5.457   1.424
46619W        W17219  30.391   1.264   3.246
46620W        W17220  10.126  24.825  11.194
46621W        W17221   3.561  37.950   0.732
46622W        W17222   6.240  29.094  14.311
46623W        W17223  10.516  23.957  14.904
46624W        W17224  37.708   6.863  13.468
46625W        W17225  21.607  25.684  12.004
46626W        W17226  13.365  14.820   4.084
46627W        W17227  13.647  30.006  14.934
46628W        W17228  44.516  39.183   3.704
46629W        W17229  19.108  10.440  13.347
46630W        W17230  23.172  13.317  10.532
46631W        W17231  28.097  29.410  14.348
46632W        W17232   4.950   8.877  14.618
46633W        W17233  19.020  12.907   1.664
46634W        W17234  10.292   5.284  12.888
46635W        W17235  27.019   6.242  10.945
46636W        W17236   7.917   1.758  14.019
46637W        W17237  42.267  17.153  11.503
46638W        W17238  37.423  33.120   1.221
46639W        W17239  16.803  29.205  13.279
46640W        W17240  36.964  32.122  12.680
46641W        W17241  13.135  21.623  13.367
46642W        W17242  31.882  21.106  14.324
46643W        W17243  36.090   5.329  12.631
46644W        W17244  12.491   6.427   1.304
46645W        W17245  23.616  16.619   2.698
46646W        W17246   0.321  41.985  13.491
46647W        W17247  43.405   5.867  11.080
46648W        W17248  11.006  21.856  11.739
46649W        W17249   1.449  44.361   1.029
46650W        W17250  19.779  25.747   1.189
46651W        W17251  14.689  40.094   4.161
46652W        W17252  44.346  36.108  10.588
46653W        W17253  13.782  33.449   0.039
46654W        W17254  41.032  32.288  11.083
46655W        W17255  13.941  37.398  11.132
46656W        W17256  26.082  32.125  13.391
46657W        W17257  39.942  30.871   0.091
46658W        W17258  32.608  18.986  12.706
46659W        W17259  28.836  36.594  14.443
46660W        W17260  14.183  33.523  11.135
46661W        W17261  22.729  37.318   4.016
46662W        W17262  31.227   0.211  11.618
46663W        W17263  17.053  22.517  14.213
46664W        W17264  18.707   6.449  10.708
46665W        W17265  11.352  27.588  12.089
46666W        W17266  28.198  13.188   3.385
46667W        W17267  35.474  40.943   1.652
46668W        W17268   9.170   7.887   3.640
46669W        W17269  12.263  32.097   3.587
46670W        W17270  37.632  44.312   1.542
46671W        W17271  19.720  42.328  12.719
46672W        W17272   5.242   7.900   3.680
46673W        W17273  25.827  27.848   5.007
46674W        W17274  20.514  33.578   3.301
46675W        W17275  43.125   3.959   0.858
46676W        W17276  23.767  21.957   0.410
46677W        W17277  10.718   7.861  12.182
46678W        W17278  38.345  15.544   2.115
46679W        W17279  33.438  23.994  10.882
46680W        W17280  15.004  40.011   3.772
46681W        W17281  11.452  30.664  13.322
46682W        W17282   7.018   0.106   1.415
46683W        W17283  26.867  14.264   1.866
46684W        W17284  32.920  32.392  10.649
46685W        W17285  16.854  11.269   1.886
46686W        W17286  16.828  43.857  10.573
46687W        W17287  32.689  31.580   4.067
46688W        W17288  21.028  15.796  12.177
46689W        W17289  38.307  12.720  12.250
46690W        W17290  38.397   5.434  12.920
46691W        W17291  36.554   3.664   0.967
46692W        W17292   7.194  23.482  14.056
46693W        W17293  18.250  17.269  11.608
46694W        W17294   2.763  43.498  14.978
46695W        W17295  27.158  39.435   4.855
46696W        W17296  35.890  17.187  13.935
46697W        W17297   8.722  17.559  10.614
46698W        W17298   3.879  35.557   4.456
46699W        W17299  10.584   4.851   0.903
46700W        W17300  10.754  15.790   0.929
46701W        W17301  18.124  20.778  12.095
46702W        W17302  32.330  29.535   0.044
46703W        W17303  20.811  32.572  14.990
46704W        W17304  44.518  37.609  10.619
46705W        W17305   7.864  20.498  11.455
46706W        W17306   1.426  31.574   0.795
46707W        W17307  39.105   3.668   1.034
46708W        W17308  44.311  21.653   4.705
46709W        W17309  12.857  15.044  14.341
46710W        W17310  22.647  11.843   3.966
46711W        W17311  35.531  19.134   2.153
46712W        W17312  43.136   4.918  14.512
46713W        W17313   5.993  16.762  11.473
46714W        W17314  15.724  18.275   0.728
46715W        W17315  38.306  22.501  11.132
46716W        W17316   6.384  32.077   3.241
46717W        W17317  13.274  25.145   3.267
46718W        W17318   4.282  16.752  13.891
46719W        W17319  37.694   4.349   1.449
46720W        W17320  34.588   8.258  14.977
46721W        W17321  24.176  33.416  14.543
46722W        W17322  40.376  22.005  10.711
46723W        W17323  23.797  20.367  14.333
46724W        W17324  20.616  15.574   4.873
46725W        W17325  32.628   3.115   3.714
46726W        W17326  15.197  25.428  12.971
46727W        W17327  11.884  11.984   3.594
46728W        W17328  11.888  28.281   1.836
46729W        W17329  35.900  35.850   1.882
46730W        W17330   2.381   6.180  10.417
46731W        W17331   7.296  29.110   4.554
46732W        W17332   9.115  44.413   4.854
46733W        W17333  14.838  36.575  13.866
46734W        W17334  43.407   8.585   0.563
46735W        W17335  28.160  31.865   2.715
46736W        W17336   0.379  39.499  13.047
46737W        W17337  33.578  35.979   0.406
46738W        W17338   9.608  15.586  10.673
46739W        W17339  39.556  18.737  14.263
46740W        W17340  12.132  19.983  14.084
46741W        W17341  18.825  10.579   0.142
46742W        W17342  44.430  28.453   4.734
46743W        W17343  40.770  37.389  13.524
46744W        W17344  24.937  43.284   4.163
46745W        W17345  27.292  18.703  14.317
46746W        W17346  32.559   4.368   4.836
46747W        W17347  27.093  38.805  10.634
46748W        W17348  39.721  44.926   1.418
46749W        W17349  22.225  25.065  13.322
46750W        W17350   5.330   4.897   0.839
46751W        W17351   5.936   0.127   4.165
46752W        W17352  14.083  22.974   2.175
46753W        W17353  14.856  24.921  11.087
46754W        W17354  43.384  32.889   1.923
46755W        W17355   5.567   7.460  14.836
46756W        W17356  26.678  14.696   3.752
46757W        W17357   0.342  27.734  10.423
46758W        W17358  22.467  41.249   0.822
46759W        W17359  35.657  16.040   4.860
46760W        W17360  12.859  18.081  13.879
46761W        W17361  15.869  20.104   0.327
46762W        W17362  25.464  20.284  12.355
46763W        W17363  27.499  22.648  10.728
46764W        W17364  44.778   4.988  11.720
46765W        W17365  39.868  36.799   4.382
46766W        W17366  29.307  36.784  14.454
46767W        W17367  29.289   4.664  13.761
46768W        W17368  34.552  30.508   0.763
46769W        W17369  11.102  11.252  13.113
46770W        W17370  20.262  36.847   3.214
46771W        W17371  42.953   5.966  10.357
46772W        W17372  10.702  17.479   0.171
46773W        W17373  34.445  14.296  12.594
46774W        W17374  12.615  31.942  11.174
46775W        W17375   3.207   5.133  11.634
46776W        W17376  20.131  15.321   1.838
46777W        W17377  20.991  43.639   1.794
46778W        W17378  37.668  27.916   2.484
46779W        W17379  33.663  31.540   3.154
46780W        W17380  27.140   4.787  10.070
46781W        W17381  37.968  19.829   4.714
46782W        W17382  25.503  16.114   0.368
46783W        W17383  11.681   8.747  13.520
46784W        W17384   9.735  32.299  13.137
46785W        W17385  26.059  27.753  11.947
46786W        W17386  21.679   6.439   1.085
46787W        W17387  19.267  19.144  13.364
46788W        W17388  33.437  26.703  13.265
46789W        W17389  37.287  41.347  12.438
46790W        W17390  12.616  14.190  14.352
46791W        W17391  18.034  30.963   0.019
46792W        W17392  27.469  20.028   3.234
46793W        W17393  12.846  16.572   1.801
46794W        W17394  30.969  39.057  13.064
46795W        W17395  28.507   0.437  12.676
46796W        W17396  33.358  43.865  14.907
46797W        W17397   5.769  33.881   0.024
46798W        W17398  19.027  23.524  11.409
46799W        W17399  33.990  16.103   2.816
46800W        W17400  20.408  35.985   5.065
46801W        W17401  17.188  36.647   3.293
46802W        W17402  38.051  27.701   0.805
46803W        W17403   0.866  14.657  14.147
46804W        W17404  43.077   4.332   4.507
46805W        W17405  14.340  21.765   0.463
46806W        W17406  31.181   2.397   0.513
46807W        W17407  43.332  29.177  12.428
46808W        W17408  14.631  19.263  12.659
46809W        W17409   7.419  29.274   2.727
46810W        W17410  27.635  16.672  13.446
46811W        W17411  16.712  24.009   4.258
46812W        W17412  14.156  14.129  14.359
46813W        W17413  12.308  17.186  11.020
46814W        W17414  43.619  28.246  12.412
46815W        W17415  21.566  31.435   3.621
46816W        W17416  34.579  37.854  14.108
46817W        W17417  39.301   9.047   1.841
46818W        W17418  33.426  12.889   1.217
46819W        W17419   3.306  33.331  12.056
46820W        W17420  31.554  15.973  11.599
46821W        W17421   6.111   9.287  12.426
46822W        W17422  41.011  38.929  12.530
46823W        W17423  34.884  29.781   4.728
46824W        W17424   9.285   9.715  12.944
46825W        W17425  29.975   5.754   2.861
46826W        W17426  42.445   9.465  11.176
46827W        W17427  16.811  27.625   0.240
46828W        W17428  32.992  18.064   4.041
46829W        W17429  28.371   9.455  13.550
46830W        W17430  10.438  19.868   4.170
46831W        W17431   2.359  33.578  12.379
46832W        W17432   4.188  35.842  11.076
46833W        W17433  11.709  37.139  13.358
46834W        W17434  25.230  44.563  12.017
46835W        W17435  11.585  30.195   1.901
46836W        W17436  23.988  31.019   1.724
46837W        W17437  16.836  24.481  14.994
46838W        W17438  34.510  43.243  12.058
46839W        W17439  29.261   7.365  12.430
46840W        W17440  30.907  41.826   2.994
46841W        W17441  31.016  35.871  11.126
46842W        W17442  22.035  37.079  14.133
46843W        W17443  19.595  27.206   3.095
46844W        W17444  19.373   5.313   4.724
46845W        W17445  17.190  35.272  14.298
46846W        W17446  32.952  11.712   1.279
46847W        W17447  10.621  15.096   1.363
46848W        W17448   6.584  35.672  14.866
46849W        W17449  28.094  11.802  12.003
46850W        W17450  41.888   2.796  10.034
46851W        W17451   7.447  34.001   1.096
46852W        W17452  42.341   1.217  10.765
46853W        W17453  38.009  21.053   1.071
46854W        W17454  34.450  41.522  14.390
46855W        W17455  37.002  10.427   2.762
46856W        W17456  39.860  39.741   1.870
46857W        W17457   8.445  27.716  12.463
46858W        W17458   8.791  21.009  13.376
46859W        W17459  24.155  27.473  14.026
46860W        W17460  11.274   1.952   0.214
46861W        W17461  10.370  20.103  10.792
46862W        W17462   4.086  12.335  10.738
46863W        W17463   5.126  39.712   2.739
46864W        W17464   0.787  13.694   0.970
46865W        W17465  24.521  18.482  10.635
46866W        W17466  13.760   2.706   2.368
46867W        W17467  42.876   1.661  13.917
46868W        W17468  12.681  24.972   2.123
46869W        W17469  28.764  22.197   2.106
46870W        W17470  43.105  42.035  11.162
46871W        W17471  44.356   9.729   4.144
46872W        W17472   1.163   1.836   3.733
46873W        W17473  34.245   3.398  13.571
46874W        W17474  42.014  42.548  11.653
46875W        W17475  16.694  29.693  10.402
46876W        W17476  34.865  42.152   3.635
46877W        W17477   3.952  40.234  12.500
46878W        W17478  39.282  18.967   2.744
46879W        W17479  32.879  14.597   0.519
46880W        W17480  19.638   6.431   1.647
46881W        W17481  42.845  34.180  12.582
46882W        W17482  15.741   0.980  11.636
46883W        W17483   6.204   7.644   3.569
46884W        W17484  42.443  16.741   1.935
46885W        W17485  38.868  32.413   3.055
46886W        W17486   5.458  33.073  13.913
46887W        W17487  31.098  30.693  11.512
46888W        W17488   6.091  30.904   3.751
46889W        W17489  30.116  31.091   2.157
46890W        W17490   5.378   9.221  10.629
46891W        W17491  21.029   4.482  11.520
46892W        W17492  44.516   6.444   2.297
46893W        W17493  23.733  29.544   3.692
46894W        W17494  33.673  40.140  13.935
46895W        W17495  33.558   8.938   3.370
46896W        W17496  23.180   2.331   4.501
46897W        W17497  43.833   2.726  14.264
46898W        W17498  16.996   5.443  12.050
46899W        W17499  24.286  30.383  13.606
46900W        W17500  10.347  31.599  11.674
46901W        W17501  38.480  26.015   2.664
46902W        W17502  20.960  32.777  12.078
46903W        W17503  31.637  25.031  13.436
46904W        W17504   0.584  12.145  10.336
46905W        W17505   1.661  34.173  14.469
46906W        W17506   2.240  12.342  10.754
46907W        W17507  38.540  25.557   1.373
46908W        W17508  31.895   9.271   3.801
46909W        W17509  23.674   6.681  10.858
46910W        W17510  44.539  43.463  10.627
46911W        W17511   8.674  25.382   0.340
46912W        W17512   8.239  22.002   0.377
46913W        W17513  41.374  34.990   4.207
46914W        W17514  44.563   6.224   0.433
46915W        W17515   3.386  42.769   1.545
46916W        W17516  18.018  41.396  14.894
46917W        W17517  27.666  26.551   4.867
46918W        W17518  19.665  23.362   4.061
46919W        W17519  35.272  12.188  11.759
46920W        W17520  19.266  43.378   0.372
46921W        W17521  44.566  34.569   1.836
46922W        W17522  32.449  26.734   1.790
46923W        W17523  35.882  23.528  13.328
46924W        W17524   4.949  27.095   2.689
46925W        W17525  40.616  13.745   4.160
46926W        W17526  24.564  22.601   0.679
46927W        W17527  37.440  42.092   2.270
46928W        W17528   7.561  19.201   4.218
46929W        W17529  24.666  42.636  14.083
46930W        W17530  42.250  26.436  11.183
46931W        W17531   9.034  27.755  10.573
46932W        W17532  40.941  26.675  13.539
46933W        W17533  43.378  13.040  13.024
46934W        W17534  25.408  35.959   1.873
46935W        W17535  24.756  41.923  14.902
46936W        W17536   6.696  23.497  12.944
46937W        W17537  26.542   0.717  13.314
46938W        W17538  32.546  35.234  13.828
46939W        W17539  22.212   3.693   2.797
46940W        W17540  32.510  24.482  11.497
46941W        W17541  28.267  43.026   2.791
46942W        W17542  16.280  35.839   2.471
46943W        W17543  14.360  17.580  13.342
46944W        W17544   9.048  28.995  12.560
46945W        W17545  17.164  35.274   2.829
46946W        W17546  31.217  41.930   3.953
46947W        W17547  11.564   5.542   1.383
46948W        W17548  12.713   3.949  12.873
46949W        W17549   3.811   7.813   3.334
46950W        W17550  18.272  33.751  14.510
46951W        W17551  16.733  43.383   1.925
46952W        W17552   2.656  29.650   1.189
46953W        W17553   8.357  25.220   4.838
46954W        W17554  34.172  18.392   4.779
46955W        W17555  11.655  38.615   2.250
46956W        W17556  13.680  19.694   1.742
46957W        W17557   1.954  38.870  11.065
46958W        W17558  22.515  10.877   0.173
46959W        W17559  25.483  25.974   0.333
46960W        W17560  15.196  31.968  10.067
46961W        W17561   5.997  24.005   0.335
46962W        W17562   8.213  11.779  13.402
46963W        W17563  31.754  18.576   3.615
46964W        W17564  38.577   9.847   4.615
46965W        W17565   4.183  15.330  10.551
46966W        W17566   1.850   2.224  13.437
46967W        W17567  37.904  19.171  13.323
46968W        W17568   3.783  20.729  13.748
46969W        W17569   2.373  31.067   0.289
46970W        W17570   5.781  32.482   0.163
46971W        W17571  27.976  11.692   5.126
46972W        W17572   9.327  42.015   1.676
46973W        W17573  27.237   8.834   1.145
46974W        W17574  44.774  28.496   1.354
46975W        W17575  42.571  19.615   3.989
46976W        W17576  40.789   1.445  10.649
46977W        W17577  10.151  19.435  14.889
46978W        W17578  43.466  25.983   1.315
46979W        W17579  35.829  18.608   1.378
46980W        W17580   8.177   9.710   2.225
46981W        W17581  29.822  23.120  13.029
46982W        W17582  22.136  31.991  14.864
46983W        W17583   6.283  20.544  10.791
46984W        W17584  43.539  32.576  12.800
46985W        W17585  41.449  12.116   4.230
46986W        W17586  22.954  38.020  13.434
46987W        W17587  17.603   8.339  13.254
46988W        W17588  39.418  40.869   3.860
46989W        W17589  29.561  30.635  13.447
46990W        W17590  13.733   5.732  11.074
46991W        W17591  33.399  26.527   4.718
46992W        W17592  11.139  13.979   0.854
46993W        W17593  37.605  22.632  13.014
46994W        W17594   2.320   7.552  12.129
46995W        W17595  11.819  11.672  12.891
46996W        W17596  36.841  30.381  13.829
46997W        W17597  24.444  14.022   2.914
46998W        W17598  34.875  23.142   0.970
46999W        W17599  36.270  12.834  14.533
47000W        W17600  25.513  35.905  13.396
47001W        W17601  43.711  24.506   3.162
47002W        W17602   1.285  30.157   0.782
47003W        W17603   4.269  37.797   3.744
47004W        W17604   6.379  14.062   1.253
47005W        W17605  23.034  37.049   1.054
47006W        W17606   8.317  25.054  10.756
47007W        W17607   3.352   8.814   4.365
47008W        W17608  23.622  38.844   1.240
47009W        W17609   0.588  25.575   3.077
47010W        W17610   4.949  15.827  11.574
47011W        W17611  33.144   4.217   2.083
47012W        W17612  42.438  11.631  12.554
47013W        W17613  25.376   3.348  10.864
47014W        W17614  39.809  38.207  14.074
47015W        W17615  29.884  34.233   3.880
47016W        W17616  21.089  44.330   1.349
47017W        W17617   4.762   0.660   4.610
47018W        W17618  36.835  36.359   0.853
47019W        W17619  12.599  13.740   0.043
47020W        W17620  32.218  30.088   3.773
47021W        W17621  41.373  13.203   3.065
47022W        W17622  20.080   4.110  11.516
47023W        W17623  42.225  12.179  10.430
47024W        W17624  13.711  34.832   0.475
47025W        W17625  36.833  26.998   3.232
47026W        W17626  43.386  27.537   3.486
47027W        W17627  42.629  36.560  12.534
47028W        W17628   7.383   7.109  14.805
47029W        W17629  12.196   8.720   2.792
47030W        W17630  29.932  37.281   2.313
47031W        W17631  41.764  13.525  11.549
47032W        W17632   5.097  15.251  14.925
47033W        W17633  32.537  15.669   3.576
47034W        W17634  19.723  28.154   1.933
47035W        W17635  13.826   5.654  12.491
47036W        W17636  27.031  20.430  14.845
47037W        W17637  37.461  43.037  12.576
47038W        W17638  23.122  35.833   1.829
47039W        W17639  38.016  36.789   2.467
47040W        W17640  17.490   3.171  11.635
47041W        W17641  10.314  17.746  14.377
47042W        W17642  26.048  29.597  13.306
47043W        W17643  36.125   9.593  14.104
47044W        W17644  42.220  20.700   0.308
47045W        W17645  40.325   5.263   1.988
47046W        W17646  17.167   5.948  14.870
47047W        W17647  32.658  41.174  10.549
47048W        W17648  33.560  27.730  14.196
47049W        W17649  28.666  28.861  10.984
47050W        W17650  13.791   9.792  10.773
47051W        W17651  30.301  26.837  14.540
47052W        W17652  31.571  44.897  12.830
47053W        W17653  37.359  25.839  14.803
47054W        W17654  43.231  44.749  13.401
47055W        W17655  35.933  30.597  14.861
47056W        W17656   9.972  34.611  14.045
47057W        W17657  10.207  30.113   3.296
47058W        W17658  16.087  15.670   2.812
47059W        W17659  23.726  29.519   1.328
47060W        W17660   3.317  27.157   4.298
47061W        W17661   7.312  38.025   4.385
47062W        W17662  30.225  38.535   3.760
47063W        W17663  18.091   2.527  14.763
47064W        W17664  22.285  16.070  13.901
47065W        W17665  38.265  24.960  11.092
47066W        W17666  41.000  30.017  11.497
47067W        W17667  35.621  44.746   2.337
47068W        W17668  10.701   6.837   3.169
47069W        W17669  26.005   9.713   0.446
47070W        W17670  44.413  32.574  12.615
47071W        W17671  38.311  16.419   3.780
47072W        W17672  34.099  29.237   2.245
47073W        W17673  25.624  38.253   0.306
47074W        W17674   4.366  40.036  12.998
47075W        W17675  38.870  42.384  14.047
47076W        W17676  11.113  40.461   0.817
47077W        W17677  12.850  18.302  11.643
47078W        W17678  19.999   1.890  10.551
47079W        W17679  25.960  41.280  10.754
47080W        W17680  42.960  26.075   1.383
47081W        W17681  38.561   6.245   0.359
47082W        W17682  44.914  43.999   0.040
47083W        W17683  17.360  24.598   4.601
47084W        W17684   8.794  31.919   4.938
47085W        W17685   3.880  34.329   1.462
47086W        W17686  33.575  35.427   1.720
47087W        W17687  25.037  13.183   0.412
47088W        W17688  16.828  28.011  14.013
47089W        W17689  38.495  34.165  11.214
47090W        W17690  20.661  40.913   1.704
47091W        W17691   3.627  35.652  12.017
47092W        W17692  41.328  21.156   2.426
47093W        W17693  18.975  34.884   1.360
47094W        W17694  11.919  22.030   3.293
47095W        W17695  26.700  29.887   2.200
47096W        W17696  36.056  31.160   4.683
47097W        W17697  21.575  33.717   4.491
47098W        W17698  20.224  24.449   4.561
47099W        W17699   8.307  26.673   0.446
47100W        W17700   2.022   8.871  10.687
47101W        W17701  27.817   6.289  12.432
47102W        W17702   4.444   7.228  13.300
47103W        W17703  41.226  15.800   0.923
47104W        W17704  16.668  23.718   0.861
47105W        W17705  28.590  30.597   1.301
47106W        W17706  27.358   7.879   1.394
47107W        W17707  24.316  32.179   0.438
47108W        W17708  10.535   8.135  11.013
47109W        W17709  24.045  29.939   1.364
47110W        W17710  30.319  25.460   1.935
47111W        W17711  23.255  31.596   2.838
47112W        W17712  14.806  22.469  12.987
47113W        W17713  13.110  37.505   3.839
47114W        W17714  43.270  23.349   2.674
47115W        W17715  27.302  33.017   0.188
47116W        W17716  12.353   2.263  12.103
47117W        W17717  22.736  17.262  13.871
47118W        W17718  31.445  36.025   3.086
47119W        W17719   1.774  34.286  11.179
47120W        W17720  22.167   1.858   1.965
47121W        W17721   8.667   6.921  10.736
47122W        W17722  19.087  36.672   3.370
47123W        W17723  35.135  28.979  12.553
47124W        W17724  29.707  25.090   0.391
47125W        W17725  29.399   4.603  10.940
47126W        W17726  16.054  43.546  13.070
47127W        W17727  41.438  13.724   4.429
47128W        W17728  43.481  42.747   1.867
47129W        W17729  16.198  15.813   1.340
47130W        W17730  40.203   2.254  14.796
47131W        W17731   0.857  26.750   3.549
47132W        W17732   6.352   5.833   4.767
47133W        W17733  26.906  36.249   3.857
47134W        W17734  21.036  36.540   4.575
47135W        W17735  23.674  13.498  11.198
47136W        W17736   7.428  31.766  10.382
47137W        W17737  35.598  25.390  13.039
47138W        W17738  30.609  21.776   4.634
47139W        W17739  26.476  41.322   1.178
47140W        W17740  11.231  33.325   1.012
47141W        W17741  14.487  33.323   4.130
47142W        W17742  39.868   9.073  11.565
47143W        W17743  33.160  21.686  12.534
47144W        W17744   5.417   0.769  11.922
47145W        W17745  12.126  43.992   1.819
47146W        W17746  12.288   4.295   1.735
47147W        W17747  25.852   3.779   2.839
47148W        W17748  27.843  29.695   5.049
47149W        W17749  16.479   3.487   4.284
47150W        W17750  42.453  26.628  12.521
47151W        W17751  22.709  18.120  10.678
47152W        W17752  33.696  19.167  10.393
47153W        W17753  22.115   5.622  14.377
47154W        W17754  16.189  15.357  13.410
47155W        W17755  18.329  24.442  13.871
47156W        W17756   6.001  12.181  12.415
47157W        W17757   7.413  20.599   1.347
47158W        W17758   1.438  19.016   2.227
47159W        W17759  19.880  37.370  12.801
47160W        W17760  29.816  39.743  11.517
47161W        W17761  20.804  36.174  10.649
47162W        W17762   4.745   6.192   3.135
47163W        W17763   3.926   8.719   2.210
47164W        W17764   4.330  26.637   3.497
47165W        W17765  10.319  26.364  11.241
47166W        W17766   9.881  38.859  14.094
47167W        W17767  19.578   1.101  10.949
47168W        W17768   1.693   2.372  12.587
47169W        W17769  33.650  21.023   1.849
47170W        W17770  33.101   8.466  12.969
47171W        W17771   0.778  41.799   3.789
47172W        W17772  40.533  16.068  13.481
47173W        W17773  15.683  23.293   4.700
47174W        W17774  27.491  30.465   0.850
47175W        W17775   5.120  30.886  11.003
47176W        W17776  41.428   7.517  10.259
47177W        W17777  14.811   1.311   4.437
47178W        W17778  23.417   8.268   2.219
47179W        W17779  44.230  21.527   4.207
47180W        W17780  36.791  38.844   0.709
47181W        W17781  12.324  39.435  10.557
47182W        W17782  40.297  28.175  13.626
47183W        W17783  12.844  17.239   1.042
47184W        W17784  10.613  21.615   3.279
47185W        W17785  43.140   8.868  13.525
47186W        W17786   7.682  16.721  13.028
47187W        W17787  39.183  39.989   0.999
47188W        W17788  31.611   7.439   4.154
47189W        W17789  11.349  35.086   1.792
47190W        W17790  19.575  14.523  11.640
47191W        W17791  17.850   3.900   2.291
47192W        W17792  22.693  21.516   4.174
47193W        W17793  34.581  27.261   0.578
47194W        W17794   7.126  26.039   3.261
47195W        W17795  31.774  12.346   4.112
47196W        W17796  14.792  27.517  13.421
47197W        W17797  28.321  22.651   4.173
47198W        W17798  29.114   9.848   3.213
47199W        W17799  42.289  31.783  14.324
47200W        W17800  15.948  36.655  12.005
47201W        W17801  24.696  31.172  11.164
47202W        W17802  13.449  29.418   4.172
47203W        W17803   0.863   2.281   3.771
47204W        W17804  22.212  31.448  13.065
47205W        W17805  28.487  22.668  11.067
47206W        W17806   3.416  38.686  13.447
47207W        W17807  23.906  27.473   2.774
47208W        W17808   3.218  39.984   1.414
47209W        W17809  43.762  16.248   3.209
47210W        W17810  33.730  12.216   0.177
47211W        W17811  20.736  31.491   0.767
47212W        W17812   8.335  34.160   3.726
47213W        W17813  30.129   4.049   4.573
47214W        W17814   6.339  35.509  13.583
47215W        W17815  35.563   7.809   3.598
47216W        W17816   2.397   3.478   1.238
47217W        W17817  25.580  25.121   3.593
47218W        W17818   4.053   2.208   3.427
47219W        W17819  36.124  24.202   2.836
47220W        W17820  39.198  18.027  12.972
47221W        W17821  17.829  23.175   1.303
47222W        W17822  44.295  12.629  12.633
47223W        W17823  41.809  39.509   0.723
47224W        W17824  35.024  25.646   4.761
47225W        W17825  30.609  16.123  11.067
47226W        W17826   6.870  26.214   2.253
47227W        W17827  10.547  31.589   3.085
47228W        W17828  33.943  20.961  11.136
47229W        W17829  23.541  27.381   3.248
47230W        W17830  30.255  14.653  13.142
47231W        W17831  19.432  39.385   0.490
47232W        W17832   8.817   5.287   0.910
47233W        W17833  32.029  16.462   1.118
47234W        W17834  21.977  31.502   0.021
47235W        W17835   1.291   1.791   1.111
47236W        W17836  36.346  16.598  11.129
47237W        W17837  40.971  24.150  10.970
47238W        W17838  23.140  38.648   4.088
47239W        W17839  29.390  33.179   3.738
47240W        W17840   1.216  15.593   0.905
47241W        W17841  20.990  22.742  14.335
47242W        W17842  40.531  43.880  11.502
47243W        W17843  40.329  26.194   1.411
47244W        W17844  21.186  32.502  11.652
47245W        W17845   5.196  13.761  13.127
47246W        W17846  27.490  41.418   4.257
47247W        W17847  27.542  25.573   3.792
47248W        W17848  34.927  37.502  10.789
47249W        W17849   6.670  18.514   3.094
47250W        W17850  24.638  25.962   3.178
47251W        W17851  44.706  22.300  14.489
47252W        W17852  33.935  39.977   3.444
47253W        W17853  14.283  38.607   2.837
47254W        W17854   4.399  42.071  12.662
47255W        W17855  36.051  29.724   3.221
47256W        W17856   5.341  10.608   2.286
47257W        W17857   6.296  12.775  13.954
47258W        W17858  27.597  21.165   1.934
47259W        W17859  11.779  27.764   1.845
47260W        W17860   6.272  40.394  14.305
47261W        W17861  39.371  10.072  13.786
47262W        W17862  26.867   8.905  10.934
47263W        W17863  28.849  33.543  14.438
47264W        W17864  17.952   2.268   1.287
47265W        W17865  33.198  35.070  11.667
47266W        W17866  16.812  21.632   2.434
47267W        W17867   5.208   9.087   1.122
47268W        W17868  32.357  10.206   1.717
47269W        W17869  30.078  41.127   2.825
47270W        W17870   4.678   8.228   1.970
47271W        W17871   7.271  24.960   4.307
47272W        W17872  36.755   8.630  13.792
47273W        W17873  11.345  11.330  11.163
47274W        W17874  21.204  43.803   1.326
47275W        W17875  38.883  29.486  13.064
47276W        W17876   6.836  29.660  13.812
47277W        W17877  22.921  30.630  14.841
47278W        W17878   2.296  25.204  10.882
47279W        W17879   7.877  18.087  11.815
47280W        W17880  39.004  11.974  14.616
47281W        W17881  43.523  18.616  14.733
47282W        W17882  29.993  33.584  11.676
47283W        W17883   7.265  25.584  14.699
47284W        W17884  33.128  42.161   4.596
47285W        W17885  17.812   9.056  10.676
47286W        W17886  24.588  36.430  10.671
47287W        W17887  31.930  26.707   4.111
47288W        W17888  42.843   7.479  12.427
47289W        W17889   0.885  24.047  11.249
47290W        W17890  26.041  28.396   3.247
47291W        W17891   7.922  15.743   1.398
47292W        W17892  31.933   2.321   1.599
47293W        W17893  13.342  41.589   9.943
47294W        W17894  21.593  40.575   0.339
47295W        W17895   8.814  38.030   3.361
47296W        W17896  40.169  28.035   3.622
47297W        W17897  25.138   1.039   2.297
47298W        W17898   0.427  34.958  13.961
47299W        W17899  20.586   2.918   4.090
47300W        W17900  24.190   1.876   3.624
47301W        W17901  20.125  22.154   3.401
47302W        W17902  33.623  15.635  14.353
47303W        W17903  26.457  36.064   0.978
47304W        W17904   5.745  19.604  14.744
47305W        W17905  33.930   4.066  11.380
47306W        W17906  26.532  39.370   1.521
47307W        W17907  41.980  30.542  12.118
47308W        W17908  25.770  39.015   4.043
47309W        W17909  28.346  31.431   0.931
47310W        W17910  20.256  15.291   4.393
47311W        W17911   8.950  29.276   2.179
47312W        W17912  33.927  28.022  14.701
47313W        W17913  43.395  11.320  12.287
47314W        W17914  29.360  44.853   4.951
47315W        W17915   7.809  19.233  14.461
47316W        W17916  40.908  11.579  11.427
47317W        W17917  20.009  39.519   4.372
47318W        W17918   6.428  32.511  13.379
47319W        W17919   5.869  44.417  12.789
47320W        W17920  43.819  40.257  12.949
47321W        W17921  22.217   0.513  14.954
47322W        W17922   8.893  18.560  13.470
47323W        W17923  12.977  22.854  14.519
47324W        W17924  23.970  30.620  11.588
47325W        W17925  21.531  32.534   1.441
47326W        W17926  26.948   7.858   3.560
47327W        W17927   2.893  24.055  14.035
47328W        W17928  19.543  40.610   0.437
47329W        W17929  32.536   5.492  12.117
47330W        W17930  40.377  43.546   2.752
47331W        W17931  23.509  32.968   1.432
47332W        W17932  40.328  35.062   2.755
47333W        W17933  32.626  11.383   2.456
47334W        W17934  13.339  15.039  13.048
47335W        W17935  17.681  19.151  12.702
47336W        W17936   3.424  10.942  14.882
47337W        W17937   9.710   8.875  13.029
47338W        W17938  18.565  43.478  12.999
47339W        W17939  40.895  26.199   3.784
47340W        W17940   1.324  20.128   3.673
47341W        W17941  24.469  35.902  13.372
47342W        W17942   6.278  14.349   0.815
47343W        W17943   6.335  39.095   0.708
47344W        W17944  10.787  21.729   0.011
47345W        W17945  18.951  23.018  10.982
47346W        W17946  25.253  37.579  14.249
47347W        W17947  42.809  42.304  14.535
47348W        W17948  38.763   8.198   3.657
47349W        W17949  41.494  31.616   2.429
47350W        W17950  42.791  14.814  12.892
47351W        W17951  35.421  20.230   4.239
47352W        W17952   2.953  22.145  14.293
47353W        W17953  10.269  34.514  12.383
47354W        W17954   4.700  10.961   1.411
47355W        W17955   9.348   3.044  12.926
47356W        W17956  10.917  30.389   2.966
47357W        W17957  15.592  39.407  12.538
47358W        W17958  21.629  20.548   2.200
47359W        W17959   9.382   3.465  12.011
47360W        W17960  33.809   2.818  11.163
47361W        W17961   5.416   1.984   2.117
47362W        W17962  15.932  36.104  11.393
47363W        W17963  38.607  19.777  11.563
47364W        W17964  10.212   8.794  12.863
47365W        W17965  40.767  41.328   0.230
47366W        W17966  34.996  25.128   4.632
47367W        W17967  42.907  44.068  14.758
47368W        W17968  20.956  37.659   4.603
47369W        W17969  33.675  37.058  10.395
47370W        W17970  11.739   8.613   4.978
47371W        W17971   1.400  39.910   2.693
47372W        W17972  20.174   5.883  13.513
47373W        W17973  40.548  30.522  11.640
47374W        W17974  13.329  43.741  14.182
47375W        W17975  30.917  10.340  14.373
47376W        W17976   4.400  21.279   3.134
47377W        W17977  20.517  38.982  12.051
47378W        W17978  33.099  43.706   2.373
47379W        W17979  35.826   0.836  13.185
47380W        W17980  42.257  35.048  14.450
47381W        W17981  15.760  24.939  11.925
47382W        W17982  10.292   0.250  10.525
47383W        W17983  19.158  32.645  12.130
47384W        W17984   0.163  37.070  11.148
47385W        W17985  33.258  28.697  13.480
47386W        W17986  34.633   1.902   2.096
47387W        W17987  24.230  24.110   2.616
47388W        W17988  32.393  12.618   1.368
47389W        W17989  14.049  37.102  11.562
47390W        W17990   7.822   2.889  12.289
47391W        W17991  32.226  43.952   1.308
47392W        W17992   4.691  38.263  12.475
47393W        W17993   4.834  44.969   1.718
47394W        W17994  42.779   6.158   0.922
47395W        W17995  41.413  13.769  14.748
47396W        W17996  43.759   4.096  11.353
47397W        W17997  24.413  27.185   2.651
47398W        W17998  29.725  17.511  14.596
47399W        W17999   8.337  42.428   0.858
47400W        W18000  42.865  23.010  13.518
47401W        W18001  17.794   8.439  13.727
47402W        W18002   6.327  15.872   4.871
47403W        W18003  10.359  32.595   4.601
47404W        W18004   5.642  21.756   3.498
47405W        W18005  24.009  12.684  14.063
47406W        W18006   6.300   1.962   4.634
47407W        W18007  11.002  20.201   4.104
47408W        W18008  18.081  37.275  13.822
47409W        W18009  13.091  13.910  11.583
47410W        W18010  44.513  33.999   3.918
47411W        W18011  28.226  32.937  14.764
47412W        W18012  10.399  40.324   4.226
47413W        W18013  16.224  37.861   3.970
47414W        W18014  17.765  29.148   2.541
47415W        W18015   8.373   2.643   4.539
47416W        W18016   7.409  39.521   4.098
47417W        W18017   1.779   2.461   2.585
47418W        W18018   2.900   9.576  13.997
47419W        W18019  30.111   8.738   0.865
47420W        W18020  15.598  18.590  12.060
47421W        W18021   8.247   5.470  13.562
47422W        W18022   9.155  34.793  14.872
47423W        W18023  18.163  15.803   0.543
47424W        W18024  35.685  11.741  10.862
47425W        W18025   2.549  25.172   5.018
47426W        W18026  41.548  44.860  10.957
47427W        W18027   7.776   7.145   0.419
47428W        W18028  31.085  24.537   2.497
47429W        W18029   7.190  30.890  11.511
47430W        W18030  14.137  25.057  12.098
47431W        W18031  38.612  22.224   0.938
47432W        W18032  20.639  28.908  13.368
47433W        W18033  35.537  38.623   1.866
47434W        W18034  30.672  42.476   9.840
47435W        W18035  14.594  12.566  11.176
47436W        W18036   7.279  38.386   3.350
47437W        W18037   3.537  21.134   0.725
47438W        W18038  16.276  40.459   1.949
47439W        W18039  15.606  21.171  13.378
47440W        W18040   7.235   6.502   4.234
47441W        W18041  28.370  25.518   4.704
47442W        W18042   5.269  42.297  12.116
47443W        W18043  43.549   2.787  11.151
47444W        W18044  12.611  24.787  11.901
47445W        W18045  32.509  11.755   2.867
47446W        W18046  28.508  44.311  11.203
47447W        W18047  15.150   7.975  13.830
47448W        W18048  12.931   1.867   3.797
47449W        W18049  23.178  18.423   4.546
47450W        W18050   4.340  28.926  13.136
47451W        W18051  36.227  44.886  13.847
47452W        W18052  42.492  24.955  12.151
47453W        W18053  27.919  22.560  10.407
47454W        W18054  14.613  39.776  12.474
47455W        W18055  20.568  37.310  11.540
47456W        W18056  22.981  36.323  11.153
47457W        W18057  33.589  14.167  13.903
47458W        W18058  13.876  36.762  13.159
47459W        W18059  44.411  30.224  10.734
47460W        W18060   9.175  29.711  14.376
47461W        W18061  13.211   9.661  13.928
47462W        W18062  34.725  44.714   2.548
47463W        W18063  42.231  12.299   1.937
47464W        W18064  24.062  34.810   3.737
47465W        W18065  28.250  32.387   0.885
47466W        W18066   3.933  34.342   3.282
47467W        W18067   1.299  14.734   0.721
47468W        W18068  13.696   0.597  11.691
47469W        W18069  11.260  41.410  14.242
47470W        W18070  32.668  12.144   0.393
47471W        W18071  20.783  18.972   1.732
47472W        W18072  34.304  37.554  14.433
47473W        W18073  16.309  10.798  10.383
47474W        W18074  18.617  22.968  11.735
47475W        W18075  15.838  24.153  11.493
47476W        W18076  42.192  33.468  14.770
47477W        W18077  38.064   5.742  10.427
47478W        W18078  15.082  21.534   3.395
47479W        W18079   0.867  11.648  11.168
47480W        W18080   2.937  15.815  13.849
47481W        W18081   2.519  23.668  12.122
47482W        W18082  36.153  24.362  12.853
47483W        W18083  39.751  20.480   3.156
47484W        W18084  34.443  22.560  13.438
47485W        W18085  19.092  22.103   0.449
47486W        W18086   7.196   4.606   0.358
47487W        W18087   8.018   7.618  12.114
47488W        W18088  37.369  36.367   2.214
47489W        W18089  29.674  29.171  11.403
47490W        W18090   4.209  42.024  12.184
47491W        W18091  11.671  14.872  12.063
47492W        W18092  33.062  14.228   2.903
47493W        W18093  30.780  34.196   3.648
47494W        W18094  35.946   1.471   2.949
47495W        W18095  13.862  11.085  12.670
47496W        W18096  22.230   4.690  10.684
47497W        W18097  19.726  14.579   1.261
47498W        W18098  38.381   5.951   3.149
47499W        W18099   6.185  24.768   0.834
47500W        W18100  32.018   8.574   4.976
47501W        W18101  27.266  31.487   2.751
47502W        W18102   0.616  27.556  12.873
47503W        W18103   4.766  43.386   0.409
47504W        W18104   3.457   9.015   4.844
47505W        W18105  39.357  43.575  13.448
47506W        W18106  27.127   0.383   0.551
47507W        W18107  35.008   5.203  13.990
47508W        W18108  32.475  39.057   0.408
47509W        W18109   2.112   1.536   2.145
47510W        W18110  42.382  19.441   2.304
47511W        W18111  32.036  19.352  11.690
47512W        W18112  21.648  28.423   4.893
47513W        W18113  16.233  10.350  12.473
47514W        W18114  27.122  28.110  12.040
47515W        W18115   4.536  23.638   0.417
47516W        W18116  43.281   8.995   0.261
47517W        W18117   8.512   4.331   1.315
47518W        W18118  36.649  26.565  13.290
47519W        W18119  12.052  31.639  12.671
47520W        W18120   9.424  31.155   3.834
47521W        W18121  31.675  32.833   2.115
47522W        W18122  34.573  32.934  14.148
47523W        W18123  32.505  40.190   2.941
47524W        W18124  44.418  16.488  12.637
47525W        W18125  41.053  35.937  14.048
47526W        W18126  19.018  35.058   2.258
47527W        W18127   8.390  13.673  12.793
47528W        W18128  22.010  10.886   4.565
47529W        W18129  16.063  28.339   1.625
47530W        W18130   5.424  12.618  13.320
47531W        W18131  11.896  28.216   4.099
47532W        W18132  36.400   1.984  10.421
47533W        W18133  17.956  37.005   0.286
47534W        W18134  11.273  37.189   0.469
47535W        W18135  23.578  34.604   3.800
47536W        W18136  15.158  40.596  10.926
47537W        W18137  20.260  37.260  14.023
47538W        W18138  14.485  11.515  12.129
47539W        W18139  28.508  33.438   4.133
47540W        W18140  28.366  26.648   3.727
47541W        W18141  16.017   6.002  12.008
47542W        W18142  10.229  11.325  13.848
47543W        W18143   0.929  15.122  13.027
47544W        W18144  44.768  21.864   0.328
47545W        W18145  15.554   7.064  13.911
47546W        W18146  38.264  38.772  14.447
47547W        W18147   2.593  16.777  12.991
47548W        W18148  34.485  19.585  13.922
47549W        W18149  37.816  18.603   4.896
47550W        W18150  19.555  19.568  13.254
47551W        W18151   5.969  27.939   4.525
47552W        W18152  28.573  32.663   2.918
47553W        W18153   4.254  30.787  11.336
47554W        W18154  26.654   3.837  10.815
47555W        W18155  21.585  10.985   3.823
47556W        W18156   5.834  22.175   2.275
47557W        W18157   1.361  40.729  11.169
47558W        W18158  19.382  43.400  11.129
47559W        W18159  37.413  29.478   1.757
47560W        W18160  26.553  22.039   2.747
47561W        W18161  17.685  37.754   3.737
47562W        W18162  42.025  43.468   2.268
47563W        W18163  38.538  11.038  11.937
47564W        W18164   1.453   1.325   2.817
47565W        W18165  17.538  39.416  11.567
47566W        W18166   6.293   5.909   1.774
47567W        W18167  16.235  15.968   4.260
47568W        W18168  32.304  12.927  13.547
47569W        W18169  39.797  19.054   0.234
47570W        W18170  25.708  25.510   0.469
47571W        W18171   5.020  17.965  10.996
47572W        W18172  39.817   3.286   2.479
47573W        W18173   6.296  26.203   4.363
47574W        W18174   5.933  33.632  12.454
47575W        W18175   0.887  36.620  10.399
47576W        W18176   0.482  42.789  14.931
47577W        W18177  10.908  23.147   0.729
47578W        W18178   3.190  25.005   3.628
47579W        W18179  22.460  28.565  11.890
47580W        W18180  43.327  37.768  11.287
47581W        W18181  33.445  33.694   2.338
47582W        W18182  44.970  41.932   0.728
47583W        W18183  28.176  34.911  11.252
47584W        W18184  33.817  34.043  11.435
47585W        W18185  42.443  43.088  11.018
47586W        W18186  14.744  29.082   3.987
47587W        W18187  34.560   1.291  12.164
47588W        W18188  40.103  12.071  12.101
47589W        W18189  11.913  25.096  10.889
47590W        W18190  18.918  34.482   9.905
47591W        W18191  17.686  43.443  10.893
47592W        W18192  42.082  12.590  11.165
47593W        W18193   4.439  38.545  12.127
47594W        W18194   7.881  36.339   0.973
47595W        W18195  40.269  22.867   2.887
47596W        W18196  15.213  10.602   3.551
47597W        W18197  17.432  29.890  13.235
47598W        W18198   0.231  15.095   0.205
47599W        W18199  35.484  18.819   3.330
47600W        W18200  44.229  26.528   3.657
47601W        W18201  11.033  24.097  14.904
47602W        W18202  20.457  18.723   3.210
47603W        W18203   4.457  40.760   2.783
47604W        W18204  34.854  19.208   0.897
47605W        W18205   3.265  26.585  11.793
47606W        W18206  35.580   4.474   3.222
47607W        W18207  17.754   7.716   0.344
47608W        W18208  26.377   8.307  11.599
47609W        W18209  29.155  15.789   1.003
47610W        W18210  26.104  33.996   1.318
47611W        W18211  18.423  17.066   4.105
47612W        W18212   4.973  33.497   3.645
47613W        W18213  11.476   8.883  11.551
47614W        W18214   6.273  29.931   4.565
47615W        W18215  27.891   5.758  13.529
47616W        W18216  13.833  38.857   2.745
47617W        W18217   7.310   1.223   0.840
47618W        W18218  13.775   0.238  10.727
47619W        W18219  21.988  37.553  13.957
47620W        W18220  41.592   3.593  14.781
47621W        W18221  15.608   9.326   3.702
47622W        W18222  24.378  23.749   1.364
47623W        W18223   0.139  16.305  11.907
47624W        W18224  35.238   4.958  12.748
47625W        W18225  18.984   7.217   2.754
47626W        W18226  40.121  40.171   3.578
47627W        W18227  35.125   3.966   1.752
47628W        W18228   7.526  11.736   3.678
47629W        W18229  30.552  41.161  11.058
47630W        W18230   2.676  36.873   1.647
47631W        W18231   1.403  19.065   2.744
47632W        W18232  21.682  23.669   3.657
47633W        W18233  16.911  36.904  10.475
47634W        W18234  10.622   9.409  12.455
47635W        W18235  21.072  14.504   3.647
47636W        W18236  29.432  21.029  13.175
47637W        W18237  38.782  41.560  14.514
47638W        W18238  36.117  41.241  12.024
47639W        W18239  20.513  32.496   1.750
47640W        W18240  14.721  20.233  10.782
47641W        W18241  27.925  13.323  11.458
47642W        W18242  27.757  15.096  11.858
47643W        W18243  44.944   0.109  13.988
47644W        W18244  33.097  41.890   2.756
47645W        W18245  23.088   3.579  11.198
47646W        W18246  23.009  15.274   0.788
47647W        W18247  34.044  33.447   4.886
47648W        W18248  43.696   9.287   2.839
47649W        W18249  15.323  20.184   2.407
47650W        W18250  26.692  14.165  12.496
47651W        W18251  33.472  31.608  14.029
47652W        W18252  34.892  19.218  11.978
47653W        W18253  33.163  23.665  14.014
47654W        W18254  21.932  39.218  11.665
47655W        W18255  10.635   8.858   2.271
47656W        W18256  24.672   9.395   1.910
47657W        W18257   4.817  39.968  12.132
47658W        W18258  28.993  27.538   1.844
47659W        W18259  26.943  19.932  14.770
47660W        W18260  23.943   2.729  13.868
47661W        W18261  38.069   7.136   2.668
47662W        W18262  12.351  25.101   1.037
47663W        W18263  27.780  26.453  12.017
47664W        W18264  20.298  36.518   3.808
47665W        W18265  22.469   8.945   2.747
47666W        W18266  24.779  21.551   1.762
47667W        W18267   1.735   0.754  13.022
47668W        W18268  34.595  16.566   0.546
47669W        W18269  44.720  25.210  14.021
47670W        W18270  28.996  25.637  12.496
47671W        W18271   5.206   1.738   4.714
47672W        W18272  23.265  13.741  12.498
47673W        W18273  14.915  15.492   4.319
47674W        W18274  39.269   2.845  10.749
47675W        W18275  14.006  23.495  11.108
47676W        W18276  19.437  24.049  13.629
47677W        W18277  26.609   3.995   1.262
47678W        W18278   7.221   1.728   0.873
47679W        W18279  25.517  39.944  11.190
47680W        W18280  40.957   1.158   1.959
47681W        W18281  35.620  18.587   3.777
47682W        W18282  37.386  34.896  11.492
47683W        W18283   0.821  34.354  14.548
47684W        W18284  25.514  17.985  13.416
47685W        W18285  27.150  41.708  11.138
47686W        W18286  14.096  36.142   1.696
47687W        W18287  35.379  38.050  13.592
47688W        W18288  35.297  32.759   4.180
47689W        W18289  17.137  36.802  10.922
47690W        W18290  44.133  26.467  11.873
47691W        W18291  17.246  25.267   3.625
47692W        W18292   1.247  15.869  12.468
47693W        W18293   2.341   8.574  12.954
47694W        W18294   6.720   4.249  13.050
47695W        W18295  14.698  39.399  10.399
47696W        W18296  42.938  15.367  13.528
47697W        W18297  44.007  30.633   2.742
47698W        W18298  38.460   1.950   1.417
47699W        W18299  22.975   9.820   4.292
47700W        W18300  43.065  44.394  12.561
47701W        W18301  16.679  38.429  10.922
47702W        W18302  38.258  33.550   3.147
47703W        W18303  32.228  24.148  11.978
47704W        W18304  38.639  36.457   1.089
47705W        W18305  32.659   3.159  12.790
47706W        W18306  16.840  38.553  14.047
47707W        W18307   2.297  27.019   0.650
47708W        W18308   6.150   3.755  12.476
47709W        W18309   4.942  29.248   4.388
47710W        W18310  29.621  15.504  14.293
47711W        W18311   8.837  25.141   4.682
47712W        W18312  18.206  28.466   2.566
47713W        W18313  39.437  30.664  12.533
47714W        W18314   6.377   8.257   1.910
47715W        W18315  35.362  27.643   2.725
47716W        W18316  39.008  17.770  13.861
47717W        W18317  35.922  32.385  12.862
47718W        W18318  16.510  11.694   4.556
47719W        W18319  33.072  21.661  14.445
47720W        W18320  17.174  18.342  11.165
47721W        W18321  41.368  35.438   1.787
47722W        W18322  30.121  43.267  11.059
47723W        W18323  34.931  11.868   0.917
47724W        W18324  39.037  10.564   3.432
47725W        W18325  41.122  41.056   3.367
47726W        W18326   3.688   3.895   4.118
47727W        W18327  35.941   9.206   0.468
47728W        W18328  15.077  33.807   0.474
47729W        W18329  16.405  32.049  14.381
47730W        W18330  35.944  30.096  14.736
47731W        W18331  20.123   3.174  12.935
47732W        W18332  24.057  26.769   0.892
47733W        W18333  33.426  28.110  14.944
47734W        W18334  30.015  29.584  14.754
47735W        W18335  29.220  32.409  11.800
47736W        W18336  30.971  14.054  12.586
47737W        W18337  13.895  39.881   4.489
47738W        W18338  36.916   5.515   2.795
47739W        W18339   8.928  33.858   2.053
47740W        W18340  19.542  36.453  11.183
47741W        W18341  34.786  27.485  11.321
47742W        W18342  28.358  36.515  14.311
47743W        W18343  35.352  17.781   1.905
47744W        W18344  19.468  31.062   2.444
47745W        W18345  42.573  10.875  12.097
47746W        W18346  34.431   1.752   0.847
47747W        W18347   0.179  21.805   2.140
47748W        W18348  43.002  30.396   0.953
47749W        W18349  14.154  34.736  12.606
47750W        W18350   7.451  44.332   1.986
47751W        W18351  27.838  29.084  14.689
47752W        W18352  11.077  16.777   0.018
47753W        W18353  20.425  20.189  10.964
47754W        W18354  18.093  27.887   2.285
47755W        W18355  13.627  29.348   3.402
47756W        W18356   2.971  22.806   4.232
47757W        W18357  20.596  37.510  14.902
47758W        W18358  20.677  17.703  13.575
47759W        W18359  29.934  39.148  14.498
47760W        W18360  15.044  32.180   0.298
47761W        W18361  29.837  32.126  13.271
47762W        W18362  44.454  19.517   3.433
47763W        W18363  26.215  24.721  11.049
47764W        W18364  42.471  10.583   3.387
47765W        W18365  11.215   6.962   0.392
47766W        W18366  20.257  37.392   3.267
47767W        W18367  26.739  23.624   1.681
47768W        W18368  19.095  44.696   0.323
47769W        W18369  13.664  30.834   2.789
47770W        W18370  25.033  42.443   3.904
47771W        W18371  41.989  26.154  12.967
47772W        W18372  31.974   9.316  14.479
47773W        W18373   5.398   8.334   2.796
47774W        W18374  40.411  37.455   9.896
47775W        W18375   4.982   8.210   2.382
47776W        W18376   6.436   6.419  10.638
47777W        W18377   3.882   8.600  10.224
47778W        W18378  23.122  19.817  14.020
47779W        W18379  27.494  15.029  14.944
47780W        W18380   1.832  10.817  11.977
47781W        W18381  16.151  41.511  14.819
47782W        W18382  35.163  21.835  11.032
47783W        W18383   6.220   8.540   2.860
47784W        W18384   8.849  37.109   2.813
47785W        W18385  16.910  23.089  14.447
47786W        W18386  41.750  26.659  12.973
47787W        W18387  35.402  32.966   3.308
47788W        W18388  26.549   6.613   4.632
47789W        W18389  19.070  41.403  11.494
47790W        W18390  15.445  41.082   2.456
47791W        W18391  30.079  14.379   4.215
47792W        W18392  17.644  33.216   5.086
47793W        W18393  13.532  31.056   0.743
47794W        W18394  42.384  21.747   0.472
47795W        W18395   2.757   7.660  12.979
47796W        W18396  42.374   8.731  11.413
47797W        W18397  30.873  21.044  14.235
47798W        W18398  36.418  12.498   2.427
47799W        W18399  37.999   0.680   1.841
47800W        W18400  36.430  39.085   0.419
47801W        W18401  34.113  23.012   2.286
47802W        W18402  22.093  32.460   4.780
47803W        W18403  16.647   2.941  10.993
47804W        W18404  32.831  22.661   2.338
47805W        W18405  24.957  18.203  14.338
47806W        W18406  16.864  13.769   1.237
47807W        W18407   7.842  27.405   1.342
47808W        W18408  18.326  27.528   0.243
47809W        W18409  29.688  38.110   1.721
47810W        W18410   3.206  37.040  14.329
47811W        W18411  20.232  14.690   0.135
47812W        W18412  37.439  15.182   4.655
47813W        W18413  37.503   1.901  13.547
47814W        W18414  44.507  38.912   2.421
47815W        W18415  18.509  28.331   0.467
47816W        W18416  19.968  33.434   3.894
47817W        W18417  18.085  22.616   2.574
47818W        W18418   7.014  22.898   2.233
47819W        W18419  10.495  11.874  10.932
47820W        W18420   0.337  28.749   4.595
47821W        W18421  15.106  17.248  13.656
47822W        W18422  30.379  36.366  13.566
47823W        W18423  20.259  42.810  12.678
47824W        W18424  39.324  13.707  11.715
47825W        W18425  27.151  34.349   0.353
47826W        W18426  24.654   1.280  10.628
47827W        W18427   4.915  11.103   5.083
47828W        W18428   8.217  17.713   3.656
47829W        W18429  22.074  13.347  14.561
47830W        W18430  17.740  18.296  12.021
47831W        W18431  20.167   4.985  14.808
47832W        W18432   1.129   0.475  10.547
47833W        W18433  26.740  41.445  14.343
47834W        W18434  31.362  36.582  13.930
47835W        W18435  36.502  44.294   2.376
47836W        W18436  40.305  19.854  12.404
47837W        W18437   1.882  20.604   0.744
47838W        W18438  10.584  32.060  14.095
47839W        W18439  12.865   9.776   2.890
47840W        W18440  25.811  25.979  11.551
47841W        W18441  22.722  27.097  13.591
47842W        W18442  23.153  43.715   4.090
47843W        W18443  44.555   8.659  14.319
47844W        W18444  18.338  28.452  13.940
47845W        W18445  11.373   9.336  14.242
47846W        W18446  42.731  41.523  10.364
47847W        W18447  37.392  14.301  12.881
47848W        W18448   4.772  30.154  14.303
47849W        W18449  31.570   4.861  13.043
47850W        W18450  39.079  42.320   0.453
47851W        W18451  24.928  41.377  10.762
47852W        W18452  35.543  23.534  12.436
47853W        W18453  38.587  27.786   1.280
47854W        W18454  28.791  41.822  12.454
47855W        W18455  17.168  43.384  10.703
47856W        W18456   2.819   4.871  10.789
47857W        W18457  18.132   4.345   2.264
47858W        W18458   5.875  16.874   1.303
47859W        W18459  19.674   7.275   4.495
47860W        W18460  16.114  19.741   4.050
47861W        W18461  32.475  26.679   4.929
47862W        W18462  40.327  28.145  10.671
47863W        W18463   7.326   3.855   2.627
47864W        W18464  34.146  43.105  12.997
47865W        W18465  12.659  30.011  11.990
47866W        W18466  41.010   1.458   4.286
47867W        W18467  38.344   1.963  11.968
47868W        W18468   1.345   4.223  11.918
47869W        W18469  10.167  33.611   1.754
47870W        W18470  33.918  27.419   3.615
47871W        W18471  27.092  21.036   4.488
47872W        W18472  29.947  28.596   4.076
47873W        W18473  23.160  32.677  11.918
47874W        W18474  43.915  18.123   1.623
47875W        W18475  23.530  28.451   0.760
47876W        W18476  11.604   8.267   3.074
47877W        W18477  18.137  22.988  11.182
47878W        W18478  42.400  36.443   3.905
47879W        W18479  30.728  11.031  10.896
47880W        W18480  44.267   8.755  10.741
47881W        W18481   1.816  28.479   4.647
47882W        W18482  40.525  29.460   2.218
47883W        W18483  27.489  32.576  11.249
47884W        W18484  25.005  19.136  14.240
47885W        W18485  30.506  15.722   4.295
47886W        W18486  23.167  43.330   2.190
47887W        W18487  15.712   8.650  11.831
47888W        W18488  34.365  18.678   1.827
47889W        W18489  33.930   6.878   1.722
47890W        W18490  31.131  24.002  13.447
47891W        W18491  44.289  42.240   4.667
47892W        W18492  13.715  41.529  11.205
47893W        W18493  40.876  15.690   1.903
47894W        W18494  34.568  32.839   2.312
47895W        W18495   3.005  21.672  10.667
47896W        W18496  19.202  24.557  13.761
47897W        W18497  28.029  16.813  14.722
47898W        W18498   5.941  16.303   1.929
47899W        W18499  29.606   8.678   4.469
47900W        W18500   0.017  44.304  11.010
47901W        W18501  43.295  38.035   4.561
47902W        W18502  25.811  32.860  14.856
47903W        W18503  28.539   8.768   4.115
47904W        W18504  37.294  38.079   0.824
47905W        W18505   8.607  22.707  14.961
47906W        W18506  22.512  22.811  13.955
47907W        W18507  42.508  42.333  11.702
47908W        W18508  24.664  34.068   3.139
47909W        W18509   7.220   9.639  12.954
47910W        W18510  24.207  42.781  11.407
47911W        W18511   3.044  32.444  10.308
47912W        W18512  29.985  11.724  10.755
47913W        W18513  19.643  21.630  12.187
47914W        W18514  36.442  14.076  13.059
47915W        W18515   3.377  39.025  11.168
47916W        W18516  10.442  39.967   9.823
47917W        W18517  36.707  27.418  10.781
47918W        W18518  39.477  44.449   1.243
47919W        W18519  29.604   2.950   3.664
47920W        W18520  25.527   5.718  11.859
47921W        W18521  34.053  31.221   1.190
47922W        W18522  33.455   0.937  12.887
47923W        W18523  11.618  39.295   4.521
47924W        W18524  15.252  15.109   2.340
47925W        W18525  24.901   7.787  13.104
47926W        W18526  10.583  41.606  11.015
47927W        W18527   7.567  30.005  10.483
47928W        W18528   4.457  37.098  14.694
47929W        W18529  40.478  38.556   1.925
47930W        W18530   7.562  44.671   4.095
47931W        W18531  25.443   4.796   2.264
47932W        W18532  26.067  33.070  14.460
47933W        W18533  37.142   8.970  13.784
47934W        W18534  32.295  29.185   2.357
47935W        W18535  25.170  20.547   4.539
47936W        W18536   8.397  28.904   2.174
47937W        W18537  27.068  22.821  13.409
47938W        W18538  28.694  32.248   0.653
47939W        W18539  31.639  13.683  11.159
47940W        W18540  16.302  32.408   4.172
47941W        W18541  23.184   0.366  10.709
47942W        W18542  23.230  42.950  10.148
47943W        W18543  35.489  19.308   4.247
47944W        W18544  12.732  31.005  12.328
47945W        W18545  40.138  32.855  12.208
47946W        W18546  24.074  41.959  10.676
47947W        W18547  43.339   0.355   4.245
47948W        W18548  32.356   5.419   1.454
47949W        W18549  29.409  15.235   2.878
47950W        W18550  11.143  30.855   2.348
47951W        W18551  23.322  42.493  14.643
47952W        W18552  18.336  19.247   3.950
47953W        W18553  28.949  22.508  10.929
47954W        W18554  39.809   5.782  14.102
47955W        W18555  26.357   9.885  12.393
47956W        W18556  14.590  37.562   2.311
47957W        W18557  24.193  22.504   0.008
47958W        W18558  38.089  42.428   3.569
47959W        W18559  33.200  31.611  11.012
47960W        W18560  10.452  36.973  12.106
47961W        W18561  42.564  19.612  12.917
47962W        W18562  37.776  34.068   2.282
47963W        W18563  35.492  36.547  12.556
47964W        W18564  35.843  19.214   3.908
47965W        W18565  36.883  13.755  13.584
47966W        W18566  14.544   8.601   4.128
47967W        W18567   8.642   1.235   2.260
47968W        W18568  28.516  21.743  11.620
47969W        W18569  35.869  24.428   0.838
47970W        W18570  34.619  25.304   4.110
47971W        W18571  33.985  39.512  11.565
47972W        W18572  27.713   7.960  11.553
47973W        W18573  39.491   8.845   0.795
47974W        W18574  25.582  26.478   3.043
47975W        W18575  15.083  26.540  13.571
47976W        W18576  31.320   3.761   1.418
47977W        W18577   2.351  29.141   0.831
47978W        W18578  28.064  33.888  11.022
47979W        W18579  36.247  35.097   4.531
47980W        W18580  36.171  14.763  13.314
47981W        W18581   5.726   9.666   0.264
47982W        W18582  36.342  12.088  13.577
47983W        W18583  36.040   1.622   0.230
47984W        W18584  15.001  20.073  13.008
47985W        W18585  15.255  13.094   3.312
47986W        W18586   5.543  33.185   4.435
47987W        W18587  26.502  30.866  14.349
47988W        W18588  12.230  43.643  10.704
47989W        W18589  25.585  39.412  12.458
47990W        W18590  15.397  39.275   3.428
47991W        W18591   1.652  30.004   2.036
47992W        W18592  29.835  30.605  13.860
47993W        W18593  37.768  11.877   4.680
47994W        W18594  38.303  35.024   0.288
47995W        W18595  24.897   4.394  14.045
47996W        W18596   6.860  32.139  14.883
47997W        W18597  12.706  27.456   3.288
47998W        W18598   9.028   8.698  11.094
47999W        W18599  16.298  37.420   3.672
48000W        W18600  28.492   9.120  12.042
48001W        W18601  36.841   3.358   4.640
48002W        W18602   2.725  24.206   1.861
48003W        W18603  15.809   8.638   1.507
48004W        W18604   9.233  37.529  10.179
48005W        W18605   6.365  28.506  12.468
48006W        W18606  38.825  29.565  10.790
48007W        W18607  22.970  43.159   0.002
48008W        W18608  13.132  39.550   1.047
48009W        W18609   8.175   8.292   0.390
48010W        W18610  43.853  39.521  12.490
48011W        W18611  41.577  22.160   0.884
48012W        W18612  38.512  13.279   3.790
48013W        W18613  42.991  32.870   0.748
48014W        W18614  21.048  32.206  13.876
48015W        W18615   4.838  35.978   4.156
48016W        W18616  24.198   9.821   2.557
48017W        W18617  28.650  39.410   4.631
48018W        W18618  32.957  34.816  12.039
48019W        W18619   7.923  39.523  10.435
48020W        W18620  19.207  30.566  12.516
48021W        W18621  22.672   6.461   4.371
48022W        W18622   4.898  14.839   4.205
48023W        W18623  12.451  15.322  14.409
48024W        W18624   5.148  29.001  10.743
48025W        W18625  34.684  13.830  13.525
48026W        W18626  15.812  35.607   2.492
48027W        W18627  33.003  38.419   0.761
48028W        W18628  41.366  15.995  10.974
48029W        W18629  16.047   9.654   0.864
48030W        W18630  14.210  20.165  11.761
48031W        W18631  30.067  42.302   4.260
48032W        W18632  30.267  10.309   0.835
48033W        W18633   7.652  18.428   3.629
48034W        W18634  39.426   3.571   4.661
48035W        W18635  19.587  12.654  11.672
48036W        W18636   4.338  34.940   0.024
48037W        W18637  34.559  36.513  12.400
48038W        W18638  34.020  43.585  11.157
48039W        W18639  14.711  34.213  12.114
48040W        W18640  36.028  13.352  13.474
48041W        W18641  43.834  32.671   1.753
48042W        W18642  34.965  41.964   2.319
48043W        W18643   1.750  35.486   3.273
48044W        W18644  15.025  15.695   0.288
48045W        W18645   3.371   7.871   1.804
48046W        W18646   4.221  43.782  10.570
48047W        W18647   7.355   5.796   4.569
48048W        W18648   8.934  33.999   2.916
48049W        W18649  21.600  13.298  12.831
48050W        W18650  23.517  30.738   4.973
48051W        W18651   5.439   5.911   3.784
48052W        W18652  33.116  32.659  11.039
48053W        W18653   7.005  26.772   0.340
48054W        W18654  38.919  36.318  11.151
48055W        W18655   5.369  33.895  13.081
48056W        W18656  27.143   6.540   2.761
48057W        W18657  17.755  17.201  10.999
48058W        W18658  35.036  19.127  14.751
48059W        W18659  40.864  16.505  12.591
48060W        W18660  41.485  17.620   2.287
48061W        W18661  44.985  26.673  11.198
48062W        W18662  30.016  14.464  14.193
48063W        W18663  23.090   4.788  12.730
48064W        W18664  36.494  44.107   0.672
48065W        W18665  25.270  39.163   0.683
48066W        W18666   1.675  13.360  11.031
48067W        W18667  25.121  31.703   3.220
48068W        W18668  43.357   3.928  10.148
48069W        W18669  18.535  41.708  12.540
48070W        W18670  29.421  24.981  11.046
48071W        W18671   1.660  13.028   5.076
48072W        W18672  30.651  15.747  10.714
48073W        W18673  38.146  26.542   4.196
48074W        W18674  23.721   9.701   3.215
48075W        W18675  25.717  40.467   3.312
48076W        W18676  17.695  34.277  14.110
48077W        W18677  17.724  25.521  13.374
48078W        W18678   4.819   2.927   0.436
48079W        W18679   8.842   9.436  12.981
48080W        W18680  33.064  17.239  11.113
48081W        W18681  15.567   3.450   3.789
48082W        W18682  37.675  36.719  10.904
48083W        W18683  15.844  12.578  10.716
48084W        W18684  38.798  17.615  11.504
48085W        W18685  12.450  31.363   0.782
48086W        W18686  25.556  27.678  11.809
48087W        W18687   8.795  17.498  13.424
48088W        W18688  16.049   1.015   3.339
48089W        W18689   9.125  43.197  11.559
48090W        W18690  20.493   4.478  11.427
48091W        W18691   4.471  38.864  13.135
48092W        W18692  14.387  14.501  12.059
48093W        W18693  40.024  44.671   3.706
48094W        W18694  37.965  15.129   2.839
48095W        W18695  19.164   0.766  10.772
48096W        W18696  11.882  31.992  13.381
48097W        W18697  10.639  25.084  13.422
48098W        W18698  25.219   0.516   1.633
48099W        W18699   4.054   5.872   4.653
48100W        W18700  38.214  29.666   0.288
48101W        W18701  10.340  12.095  14.692
48102W        W18702  20.751  19.056  12.715
48103W        W18703  22.093  35.331   1.185
48104W        W18704  30.250   7.407   2.400
48105W        W18705  23.696  14.599  11.611
48106W        W18706   6.881  11.126  12.719
48107W        W18707  15.666   1.989   3.201
48108W        W18708  23.318  36.213   3.422
48109W        W18709  35.319  43.326   3.138
48110W        W18710   6.217  38.309  11.614
48111W        W18711  18.008   0.394  11.771
48112W        W18712   4.160  39.512  13.004
48113W        W18713  34.902  27.500  14.793
48114W        W18714  26.632  25.671  11.327
48115W        W18715  38.039  22.465  10.624
48116W        W18716  37.390   6.044   4.244
48117W        W18717  21.636  31.852  13.062
48118W        W18718  25.181  38.941  14.043
48119W        W18719  10.726  22.229   0.804
48120W        W18720  36.356  27.108  10.422
48121W        W18721  26.991  11.300   4.636
48122W        W18722  25.536  21.684   2.921
48123W        W18723  27.107  27.767  10.869
48124W        W18724   0.938  36.500   4.074
48125W        W18725   8.949  41.967   4.711
48126W        W18726   3.844  28.746  14.358
48127W        W18727  12.692   3.164  14.772
48128W        W18728  43.459  33.105   1.461
48129W        W18729   3.274   0.706   3.128
48130W        W18730  23.306  40.804  13.009
48131W        W18731  28.753  42.569  13.617
48132W        W18732   2.867  17.830   4.897
48133W        W18733   7.839  11.344   2.663
48134W        W18734   3.860  39.874  14.831
48135W        W18735   5.215  43.930  10.462
48136W        W18736   9.153   5.890  11.622
48137W        W18737  11.107  30.880   2.863
48138W        W18738  31.343  25.193  12.982
48139W        W18739  11.262  41.533   2.769
48140W        W18740  24.743  35.477  13.268
48141W        W18741   8.925  16.680  14.305
48142W        W18742   7.753  43.347   1.818
48143W        W18743  26.120   9.376   4.944
48144W        W18744  17.296  29.814   3.301
48145W        W18745   8.899   1.861   4.074
48146W        W18746  42.915  35.581  11.557
48147W        W18747  38.897  11.892   3.771
48148W        W18748  18.828  32.522  12.538
48149W        W18749  18.434   4.947   1.757
48150W        W18750  25.563  32.452  13.981
48151W        W18751  20.597   7.519  10.652
48152W        W18752   4.815  40.282  10.287
48153W        W18753  21.578  43.724   1.694
48154W        W18754   0.991   2.877  13.257
48155W        W18755  35.121  10.476  13.402
48156W        W18756  11.179  36.518   2.742
48157W        W18757  14.852  41.559  13.285
48158W        W18758  38.133   6.173  14.401
48159W        W18759  39.080  44.254  12.964
48160W        W18760   7.942  31.147  11.531
48161W        W18761  44.807   8.149  14.262
48162W        W18762  39.543  23.220   2.004
48163W        W18763  14.994  10.429   4.232
48164W        W18764  16.589  29.386   1.159
48165W        W18765  38.921  27.167  14.076
48166W        W18766  25.102  20.944  14.772
48167W        W18767  27.682  29.979  13.391
48168W        W18768  10.605  37.163  12.632
48169W        W18769  17.774  43.411  11.403
48170W        W18770   6.733   0.946  12.107
48171W        W18771  27.045   6.171  10.446
48172W        W18772  41.299  31.848   0.885
48173W        W18773  13.715  39.526  10.915
48174W        W18774  27.492   4.889   0.797
48175W        W18775  11.992   6.314   0.658
48176W        W18776  12.537   1.379  13.529
48177W        W18777  21.248  25.424   3.886
48178W        W18778  37.966  35.614   4.107
48179W        W18779  36.858  15.717   2.851
48180W        W18780   7.989  30.687  12.736
48181W        W18781  28.752  37.529   3.218
48182W        W18782   7.948  29.972   3.600
48183W        W18783  42.477  14.630   2.398
48184W        W18784  34.663  16.079  12.464
48185W        W18785  37.413  42.096  13.026
48186W        W18786  14.060  21.058   4.825
48187W        W18787  31.576   3.265   4.503
48188W        W18788  40.043  11.765   1.924
48189W        W18789  44.335  13.688   2.352
48190W        W18790  11.886  42.781  10.614
48191W        W18791  26.730  32.378  14.545
48192W        W18792  37.668  33.977   4.974
48193W        W18793  24.389  24.178   1.721
48194W        W18794   2.407  11.796   4.332
48195W        W18795  23.784  38.319   4.573
48196W        W18796  18.030  22.657   3.117
48197W        W18797   7.855  15.604  12.212
48198W        W18798   4.672  10.357   0.811
48199W        W18799  13.628  21.225  12.168
48200W        W18800   2.153  37.916  12.657
48201W        W18801  41.704  39.257  13.480
48202W        W18802  35.327   2.027  14.498
48203W        W18803  43.349  23.945   4.362
48204W        W18804  38.492   2.664   1.004
48205W        W18805   6.812  15.880   0.799
48206W        W18806  29.158  41.886   0.179
48207W        W18807  28.143  22.127  10.625
48208W        W18808  30.665  38.801   0.885
48209W        W18809  22.781  10.659  13.789
48210W        W18810  32.564  20.578  13.098
48211W        W18811  39.395  11.800  10.139
48212W        W18812  43.439   1.340  13.891
48213W        W18813  24.810  38.774  14.870
48214W        W18814  36.352  25.341   2.335
48215W        W18815  32.101  43.436   2.709
48216W        W18816  24.794  24.434   0.835
48217W        W18817  35.620  22.569  10.961
48218W        W18818  28.373   9.885   3.617
48219W        W18819  18.693  19.737   4.842
48220W        W18820  29.728   1.754   3.601
48221W        W18821  41.797  13.113   4.886
48222W        W18822  32.662  22.133   3.356
48223W        W18823  43.994  42.593  13.930
48224W        W18824  18.502   6.973  11.913
48225W        W18825  14.600  25.251  10.767
48226W        W18826   5.273  35.745  14.263
48227W        W18827   0.630  24.460  12.594
48228W        W18828  35.975  12.833  13.473
48229W        W18829  36.615  19.486   3.395
48230W        W18830  18.618  43.736   2.670
48231W        W18831  42.427   8.833   0.195
48232W        W18832  31.127   4.639  14.562
48233W        W18833  18.280   8.583   0.856
48234W        W18834   8.922  29.833  12.047
48235W        W18835   9.698  10.258  14.354
48236W        W18836   7.235   1.734   3.112
48237W        W18837   0.965   5.412  13.824
48238W        W18838  18.266  42.372  11.863
48239W        W18839  28.767   1.565   2.080
48240W        W18840  23.558   6.536  12.574
48241W        W18841  43.341  35.843   0.770
48242W        W18842  12.234  31.031  10.554
48243W        W18843  28.195  27.708   4.747
48244W        W18844  15.263  21.967  11.137
48245W        W18845  36.698  14.129   0.472
48246W        W18846  23.555  28.988  10.607
48247W        W18847   9.261  11.592   2.319
48248W        W18848  36.917  33.108   0.068
48249W        W18849  44.607  29.491  11.701
48250W        W18850  34.577   8.244  11.118
48251W        W18851   7.377  12.906   4.917
48252W        W18852  13.263  44.336  14.923
48253W        W18853  20.245   9.127  12.879
48254W        W18854   8.147  14.275  11.053
48255W        W18855  31.512  31.529   4.054
48256W        W18856  26.690  39.587   2.950
48257W        W18857  18.582   2.542  12.212
48258W        W18858  28.407  32.553   1.735
48259W        W18859  35.486  27.825   3.190
48260W        W18860  41.566   3.767  11.337
48261W        W18861  22.135  30.620   4.440
48262W        W18862  23.169  40.110   1.798
48263W        W18863  17.223  19.014   1.341
48264W        W18864  23.008  18.892   3.109
48265W        W18865   3.380  12.419  12.921
48266W        W18866  11.924  15.582  11.682
48267W        W18867   4.867  18.685  11.723
48268W        W18868  35.776  36.933  14.260
48269W        W18869  11.832  11.741  11.417
48270W        W18870  44.413  24.194  14.405
48271W        W18871  40.475   8.655  10.930
48272W        W18872  15.695  30.338   4.253
48273W        W18873  32.182  17.752   0.252
48274W        W18874  36.000  13.365   0.463
48275W        W18875  12.748  22.187   3.723
48276W        W18876   5.023   8.863   0.687
48277W        W18877  20.622  14.807  14.034
48278W        W18878   8.296  17.821   4.166
48279W        W18879   9.711   8.110  13.492
48280W        W18880   8.691  21.184   0.456
48281W        W18881  37.287  25.932   1.639
48282W        W18882   9.714  22.452  11.500
48283W        W18883  35.400   7.889   1.308
48284W        W18884  37.385  37.536   3.606
48285W        W18885  24.458  14.756   3.320
48286W        W18886  14.569  35.604  11.612
48287W        W18887  21.729  38.986  10.689
48288W        W18888   6.976  26.622   3.690
48289W        W18889  25.010   1.461   0.353
48290W        W18890  27.251  14.761   2.824
48291W        W18891  35.848  25.080  12.025
48292W        W18892  37.460  22.994  11.417
48293W        W18893   9.872  26.242  11.928
48294W        W18894  35.993  32.527  13.921
48295W        W18895  26.249  28.448  11.560
48296W        W18896  19.603  33.232  13.887
48297W        W18897  22.650  24.010  12.467
48298W        W18898  14.832  28.193   0.799
48299W        W18899  17.555  23.827   0.930
48300W        W18900  30.228  21.983   4.922
48301W        W18901  13.670   3.712  11.949
48302W        W18902  10.155  41.805   0.279
48303W        W18903   3.586  23.440   1.259
48304W        W18904  30.392  29.316  14.285
48305W        W18905   0.273   1.137  12.409
48306W        W18906   9.302  41.039   3.606
48307W        W18907  13.124  44.885  11.206
48308W        W18908   5.488  44.465   1.544
48309W        W18909   5.454  31.881  10.293
48310W        W18910  40.733  41.936   0.811
48311W        W18911  44.075  36.087  12.399
48312W        W18912  35.062  21.077   4.681
48313W        W18913  17.935  28.652  11.239
48314W        W18914  25.584  34.898   2.385
48315W        W18915  16.235  29.602   4.341
48316W        W18916  29.375  15.058   3.367
48317W        W18917  38.738  25.443   3.757
48318W        W18918  28.583  10.636  11.063
48319W        W18919   6.864   7.835  13.278
48320W        W18920  39.573  34.290  12.851
48321W        W18921  36.923   7.057  11.475
48322W        W18922  15.570   2.707  12.901
48323W        W18923  11.615   0.769   1.541
48324W        W18924   7.861   2.241  13.077
48325W        W18925  32.822  23.061   1.487
48326W        W18926  29.882   7.865  12.356
48327W        W18927  22.433  21.634  12.484
48328W        W18928   1.673  18.592   0.706
48329W        W18929  37.446  42.783  13.992
48330W        W18930  15.948  24.430   0.089
48331W        W18931  19.889  43.635  11.118
48332W        W18932  26.857  23.865  11.369
48333W        W18933   0.792  11.818   1.767
48334W        W18934  23.051  16.844   1.236
48335W        W18935  22.174   2.211  10.485
48336W        W18936  22.729  40.543   3.667
48337W        W18937  18.184   9.739  12.150
48338W        W18938   0.669   2.820   3.794
48339W        W18939  14.392   9.435  12.104
48340W        W18940  28.619   0.284  14.168
48341W        W18941   1.348  17.590  13.047
48342W        W18942   5.239  31.686  13.145
48343W        W18943   4.653  23.119   0.410
48344W        W18944   7.853  37.078  14.223
48345W        W18945  15.458  15.163  10.786
48346W        W18946  27.617  37.749  12.075
48347W        W18947  11.605  18.186   2.380
48348W        W18948  30.122   7.727   4.308
48349W        W18949  44.712   5.969   3.354
48350W        W18950  35.848  19.179  10.995
48351W        W18951  17.956  33.378  13.418
48352W        W18952  40.968  28.639   1.248
48353W        W18953  13.599   4.674   4.710
48354W        W18954  38.890  41.375   3.243
48355W        W18955  33.282  29.396  10.353
48356W        W18956   5.555  16.960  10.109
48357W        W18957  19.104  13.682  12.460
48358W        W18958   9.733  33.613  10.728
48359W        W18959   8.460  39.336   0.740
48360W        W18960  23.671  29.472   4.686
48361W        W18961  31.016  22.705  11.237
48362W        W18962   6.465  27.023   2.692
48363W        W18963  29.339  33.967  13.115
48364W        W18964   2.888   8.624   4.528
48365W        W18965  22.538  21.619   0.253
48366W        W18966  22.532  34.929  12.770
48367W        W18967  41.568   7.607  11.194
48368W        W18968  30.603   3.699   3.709
48369W        W18969  20.555  36.243   0.983
48370W        W18970  21.242   8.108  11.704
48371W        W18971  24.127  20.613   1.908
48372W        W18972  22.059  28.174  13.022
48373W        W18973  19.831  31.110   0.382
48374W        W18974  13.679   2.722   1.404
48375W        W18975  31.306  38.008  13.084
48376W        W18976  19.825  29.039   2.211
48377W        W18977  39.781  29.798  12.550
48378W        W18978  17.329   8.623   0.498
48379W        W18979  18.524   0.400   4.516
48380W        W18980  35.136  37.311  11.223
48381W        W18981  14.046   6.870   3.442
48382W        W18982   2.205  10.669   1.746
48383W        W18983   3.846  20.255  10.427
48384W        W18984  30.332  19.122   3.816
48385W        W18985   6.150   5.386   0.864
48386W        W18986   0.160  36.831   2.972
48387W        W18987  10.397  10.221   0.361
48388W        W18988  13.811  36.860   2.348
48389W        W18989   4.565  16.303  10.675
48390W        W18990  10.901  42.991  12.793
48391W        W18991  23.274  27.558   4.189
48392W        W18992  10.259   3.177  10.054
48393W        W18993  20.188  20.552  14.847
48394W        W18994  20.982   2.505  13.847
48395W        W18995  42.071  41.377   0.866
48396W        W18996  22.134  20.768  13.966
48397W        W18997  21.493  29.320  11.162
48398W        W18998   4.726  23.183   0.951
48399W        W18999  38.382  31.103   2.169
48400W        W19000  18.115  11.258  13.492
48401W        W19001  34.901  43.842   0.041
48402W        W19002  17.278  10.357   4.566
48403W        W19003  25.218  25.956   0.826
48404W        W19004  14.843  34.381  14.991
48405W        W19005  26.973  15.604  11.609
48406W        W19006  20.096  44.436  13.912
48407W        W19007  21.202  18.116   4.680
48408W        W19008  19.343  23.629   5.056
48409W        W19009  11.319  17.205   2.635
48410W        W19010  19.258   7.354  12.033
48411W        W19011   4.907  41.571   0.757
48412W        W19012  36.423  33.687   1.231
48413W        W19013   4.868   6.038   0.339
48414W        W19014   4.229  20.432   4.357
48415W        W19015  36.298  31.364  14.709
48416W        W19016  38.347  10.347  13.406
48417W        W19017  34.446  17.652  12.842
48418W        W19018   0.724  18.601  13.936
48419W        W19019  25.421  16.306  13.940
48420W        W19020  32.642  38.964   0.883
48421W        W19021  11.151  19.255  13.241
48422W        W19022  18.059  17.581  14.170
48423W        W19023   1.069  16.834  13.865
48424W        W19024  31.390   6.847  11.075
48425W        W19025  26.849   6.375  12.396
48426W        W19026  19.820  11.930  14.029
48427W        W19027   5.771  10.326   4.441
48428W        W19028  19.441  14.378  14.072
48429W        W19029  43.466  15.259  12.501
48430W        W19030  36.194  10.879  13.077
48431W        W19031  18.308  38.043   1.447
48432W        W19032  34.101  42.277  12.577
48433W        W19033  24.974  26.073   0.377
48434W        W19034  28.486  16.311   2.704
48435W        W19035  33.019  44.008   1.325
48436W        W19036   0.471  21.728  13.329
48437W        W19037  40.466  20.684  13.369
48438W        W19038   7.658   7.488   1.336
48439W        W19039  10.836  43.354   0.963
48440W        W19040  17.483  18.734  13.556
48441W        W19041   4.367  17.213   0.916
48442W        W19042  34.959  39.930   2.245
48443W        W19043   1.725  29.109  11.137
48444W        W19044  43.390  32.362   1.885
48445W        W19045  38.557  22.601  12.596
48446W        W19046  22.160  34.121  12.927
48447W        W19047  23.487  29.496  13.943
48448W        W19048  42.523   9.349   1.031
48449W        W19049  25.982   4.731  12.628
48450W        W19050  20.056  11.772   1.289
48451W        W19051   6.133  13.540  13.899
48452W        W19052  44.252  37.522   4.501
48453W        W19053   2.675  35.501  12.530
48454W        W19054   5.003  38.071  13.498
48455W        W19055  25.593  21.047  10.686
48456W        W19056  44.545  25.420   1.420
48457W        W19057  30.624  22.498  12.059
48458W        W19058  26.418  25.330   2.628
48459W        W19059  18.636   8.255  13.947
48460W        W19060   5.960  11.278  14.971
48461W        W19061  19.279  39.801   1.113
48462W        W19062   2.533  39.995  14.781
48463W        W19063  27.501  39.815  11.970
48464W        W19064   3.841  12.761   4.621
48465W        W19065  30.640  39.226  12.493
48466W        W19066   6.424  23.672  10.434
48467W        W19067   8.760   9.677   3.094
48468W        W19068  39.849  35.830  10.996
48469W        W19069  10.271  21.676  12.532
48470W        W19070  17.072   9.701  12.410
48471W        W19071  29.100  33.596   3.752
48472W        W19072  28.635  37.634   0.983
48473W        W19073  25.077  11.417  11.146
48474W        W19074  41.406  13.306  14.494
48475W        W19075   9.180  26.919   3.338
48476W        W19076  11.154  28.591   4.239
48477W        W19077   4.953  21.539   2.607
48478W        W19078  29.746  33.408   2.782
48479W        W19079  35.527  37.575  14.234
48480W        W19080   4.873  30.687   2.236
48481W        W19081  41.425  14.084   3.193
48482W        W19082  12.031  33.643   0.762
48483W        W19083   6.171   0.500  11.372
48484W        W19084  11.530  29.167  11.239
48485W        W19085   2.505  29.977   1.804
48486W        W19086  21.974   9.423  13.596
48487W        W19087  11.309  26.998  13.564
48488W        W19088  22.945  44.161  13.835
48489W        W19089  17.819  42.391   0.888
48490W        W19090  16.756  23.859   0.319
48491W        W19091  31.686   1.793   3.721
48492W        W19092  43.454   1.731  11.593
48493W        W19093  32.629   8.705   2.178
48494W        W19094  18.551   8.705  12.595
48495W        W19095  10.771  33.148   4.603
48496W        W19096  19.023   0.236   4.391
48497W        W19097   3.323  40.696   0.806
48498W        W19098  32.751  26.238   2.658
48499W        W19099  12.820  24.356   3.212
48500W        W19100  44.488   4.848  14.436
48501W        W19101  12.304  36.433   0.322
48502W        W19102  28.667  20.358  11.545
48503W        W19103  15.792   6.818  12.575
48504W        W19104  22.814  28.306  13.459
48505W        W19105   4.997  27.826   1.288
48506W        W19106  17.771  37.650   2.425
48507W        W19107  11.190  29.445   4.412
48508W        W19108  25.005   7.961   2.632
48509W        W19109  15.349  39.916   4.740
48510W        W19110  15.338  12.040   5.418
48511W        W19111   8.624   3.260  13.097
48512W        W19112   8.884  38.177  13.861
48513W        W19113  14.121   1.288  11.540
48514W        W19114  39.808  42.083  13.007
48515W        W19115  10.667  15.038  12.760
48516W        W19116   5.793   6.857  10.975
48517W        W19117  25.739  25.958   1.821
48518W        W19118   2.547  10.272  13.393
48519W        W19119  16.612  27.800  12.852
48520W        W19120  14.898  18.058   1.094
48521W        W19121  29.563  31.228   3.380
48522W        W19122   2.831  33.602   2.742
48523W        W19123  42.965  15.496   2.340
48524W        W19124  43.499   7.965   4.538
48525W        W19125  24.210  29.469   2.810
48526W        W19126  19.034  13.392   1.839
48527W        W19127  37.877  44.360  12.905
48528W        W19128  23.715  43.759   1.554
48529W        W19129  17.570  21.548  10.916
48530W        W19130  28.856  41.879  14.761
48531W        W19131  42.802  19.362   1.372
48532W        W19132  11.698  31.969  12.352
48533W        W19133  18.519   0.889   5.029
48534W        W19134  13.969  15.159  11.074
48535W        W19135   8.490  27.806   2.042
48536W        W19136  34.533  24.732  11.138
48537W        W19137  41.393  10.979   3.797
48538W        W19138  25.236  42.280  10.784
48539W        W19139  30.002  37.110  10.501
48540W        W19140  24.507  15.242   3.154
48541W        W19141  41.776  17.259   2.568
48542W        W19142  25.162  33.467  14.875
48543W        W19143  15.887   6.327  14.373
48544W        W19144   8.640  10.310  13.509
48545W        W19145  34.618  13.935   1.842
48546W        W19146   3.810  11.738  13.098
48547W        W19147  11.671   8.198  11.996
48548W        W19148   8.632  42.302  13.370
48549W        W19149  22.019  23.811  14.455
48550W        W19150  34.152   3.005   1.245
48551W        W19151  36.051  38.814   0.177
48552W        W19152  40.137  35.921  14.777
48553W        W19153  39.523   4.910   3.156
48554W        W19154  32.168   0.513  11.837
48555W        W19155  15.162   7.071   1.598
48556W        W19156  11.018  33.421  12.472
48557W        W19157  15.140   1.116   0.978
48558W        W19158  24.090  27.048  10.762
48559W        W19159  21.286  11.662   2.684
48560W        W19160  16.563  33.876  13.012
48561W        W19161  35.381  41.843  11.682
48562W        W19162  40.870  31.208   0.318
48563W        W19163  14.215  14.044   1.943
48564W        W19164  41.308  22.296   2.235
48565W        W19165  11.116   5.692   2.062
48566W        W19166  23.583   6.667  14.809
48567W        W19167  26.910   3.339  11.847
48568W        W19168  18.036  14.187   1.002
48569W        W19169   0.333  25.552  12.036
48570W        W19170  44.080  34.464   3.775
48571W        W19171  18.274  27.141  13.386
48572W        W19172  35.961  16.210   1.110
48573W        W19173   4.804  22.235  13.782
48574W        W19174   4.141   0.876  14.967
48575W        W19175   3.230  23.687  14.371
48576W        W19176  17.114  36.365   4.844
48577W        W19177  15.045   3.504   3.174
48578W        W19178  33.909  35.553   2.397
48579W        W19179  29.173   8.862   4.680
48580W        W19180  40.920  12.147  14.856
48581W        W19181  35.812   2.201  14.446
48582W        W19182   4.631   8.666  13.013
48583W        W19183  19.802  19.142   2.271
48584W        W19184  27.963  37.329   4.846
48585W        W19185  44.901  37.900  14.883
48586W        W19186  41.304  16.773   4.613
48587W        W19187  24.150  41.400   0.885
48588W        W19188  36.867  27.069  14.597
48589W        W19189  18.183  37.510   1.613
48590W        W19190  14.997  13.079   0.982
48591W        W19191  19.269  23.958   0.390
48592W        W19192  25.596  14.814  14.787
48593W        W19193  36.364  37.079   0.121
48594W        W19194  18.210  13.681  10.109
48595W        W19195  19.017  25.874  11.511
48596W        W19196   7.642  27.702   0.948
48597W        W19197  18.315  24.055  11.965
48598W        W19198   5.427   0.403  12.484
48599W        W19199  31.651   9.333  13.975
48600W        W19200  29.098   0.278   4.158
48601W        W19201  13.295  31.084   3.122
48602W        W19202  13.133  15.307  12.683
48603W        W19203  24.743   3.127   1.688
48604W        W19204   7.437  17.509  12.584
48605W        W19205  11.301  24.496  11.621
48606W        W19206  20.061  37.616   2.824
48607W        W19207  33.762   2.433  14.007
48608W        W19208   7.654   9.408  13.519
48609W        W19209   2.867  11.786   3.758
48610W        W19210  36.593  28.045  13.245
48611W        W19211  25.209  23.835   2.690
48612W        W19212   9.572  18.115  14.342
48613W        W19213  38.147  19.968   1.234
48614W        W19214  39.233  29.581  10.435
48615W        W19215  35.007   5.623  11.261
48616W        W19216  38.301   4.993  13.802
48617W        W19217  17.312  43.590   4.279
48618W        W19218   8.235  32.539   2.345
48619W        W19219  22.963  29.018   2.815
48620W        W19220  15.241   8.845   1.945
48621W        W19221  22.903  16.820  14.932
48622W        W19222   4.936   2.908   3.185
48623W        W19223  31.125  23.551   0.199
48624W        W19224  26.514  44.332  13.117
48625W        W19225  15.252   3.839   0.974
48626W        W19226   3.811  20.032   2.948
48627W        W19227  14.302  18.949  10.490
48628W        W19228  14.030  16.664  12.401
48629W        W19229   1.102  18.224   2.611
48630W        W19230   6.042  43.941  12.946
48631W        W19231  23.781   4.250   0.118
48632W        W19232   3.432  21.141  13.902
48633W        W19233   5.321  28.238   2.132
48634W        W19234  30.520  39.869  12.954
48635W        W19235   8.248  12.249   0.666
48636W        W19236  31.603  27.041  14.524
48637W        W19237  14.261  40.551  11.944
48638W        W19238  28.028  17.174  10.603
48639W        W19239  42.786   6.777   4.602
48640W        W19240  24.085   7.708  11.108
48641W        W19241  39.396  20.747   4.196
48642W        W19242  37.416  21.540  11.133
48643W        W19243  14.243  42.262   0.669
48644W        W19244   8.367   1.807  13.733
48645W        W19245  18.068  17.316   3.132
48646W        W19246  22.944   4.303   2.519
48647W        W19247  10.168  26.942   3.823
48648W        W19248  40.070  12.317  13.733
48649W        W19249  12.165  34.373  12.614
48650W        W19250   5.284  44.317   4.909
48651W        W19251  22.282  43.098  11.100
48652W        W19252  29.089   6.426  10.789
48653W        W19253  26.080  12.395  12.823
48654W        W19254  21.086   6.285  11.644
48655W        W19255  42.392  27.188  14.444
48656W        W19256  41.417  26.140   3.600
48657W        W19257  21.563  36.458  13.981
48658W        W19258  34.949  13.062  14.881
48659W        W19259  41.378  39.535   4.540
48660W        W19260   2.746   9.850  12.272
48661W        W19261  29.922  30.929  11.410
48662W        W19262   4.213  44.602  11.009
48663W        W19263  28.881  37.062   1.377
48664W        W19264   9.761  22.110   4.529
48665W        W19265  10.264  11.134  11.999
48666W        W19266  22.819  39.328  11.975
48667W        W19267  30.941  28.117   2.187
48668W        W19268   1.144   6.197   4.653
48669W        W19269  22.715   8.755  14.256
48670W        W19270  44.933  20.934   1.420
48671W        W19271  42.533   8.207  10.686
48672W        W19272   4.616  34.086  11.906
48673W        W19273  24.127  38.031   0.817
48674W        W19274  22.632  17.345   3.361
48675W        W19275   8.174   8.617  13.151
48676W        W19276  44.773  11.831  12.561
48677W        W19277  28.970  11.653   2.330
48678W        W19278   8.620  19.296  13.323
48679W        W19279  34.511  12.917   2.848
48680W        W19280   4.241  26.455   0.876
48681W        W19281  17.730   2.810  14.482
48682W        W19282  44.238  37.846   0.761
48683W        W19283   9.374  14.478   4.523
48684W        W19284  43.943  31.630  11.600
48685W        W19285  19.727  16.188  11.685
48686W        W19286  35.915  22.917   1.745
48687W        W19287  22.872   2.558  12.927
48688W        W19288  34.328   7.438  10.594
48689W        W19289  16.802   1.843  12.194
48690W        W19290  21.664  32.256   4.171
48691W        W19291  28.914  13.345   1.996
48692W        W19292  26.997  41.545   0.694
48693W        W19293  43.645  31.554  11.182
48694W        W19294   9.591  28.665   0.930
48695W        W19295  29.950  33.597   4.301
48696W        W19296  35.919  27.259   4.794
48697W        W19297  41.330  12.182  13.336
48698W        W19298   2.977   2.214  13.226
48699W        W19299  27.212  32.091  13.019
48700W        W19300  36.351  26.752  12.901
48701W        W19301   3.318  22.757  11.564
48702W        W19302   3.207  20.692   0.397
48703W        W19303  41.038  12.526   1.183
48704W        W19304  27.568  39.546   4.519
48705W        W19305  14.370  18.734   1.241
48706W        W19306  41.618  39.491  12.097
48707W        W19307  33.813  43.821   0.709
48708W        W19308   2.230  20.565   4.294
48709W        W19309  41.571  35.643  11.275
48710W        W19310  30.353  18.945   0.358
48711W        W19311  11.149  27.515  11.549
48712W        W19312  20.790  23.967   1.396
48713W        W19313  30.495   9.437   4.237
48714W        W19314  36.096  15.977   4.535
48715W        W19315   9.693  37.046   3.865
48716W        W19316  20.493  22.756  14.245
48717W        W19317  20.774  19.768   2.634
48718W        W19318   7.347  37.134   1.913
48719W        W19319  29.663   1.266  10.619
48720W        W19320  23.722  21.589   3.761
48721W        W19321  22.210  30.615  14.310
48722W        W19322   1.370  20.347   3.163
48723W        W19323   1.282  36.412  14.417
48724W        W19324  10.821  40.044   4.187
48725W        W19325  44.302  21.042  14.954
48726W        W19326  11.731   0.766   4.547
48727W        W19327   4.351   6.665   4.455
48728W        W19328  37.372  21.695  13.106
48729W        W19329   0.405  29.991   0.954
48730W        W19330  28.635   8.201  12.923
48731W        W19331   4.762  27.143   1.797
48732W        W19332  29.994  30.574  12.122
48733W        W19333   3.358  41.801  10.970
48734W        W19334  20.026   7.921   2.317
48735W        W19335   0.772  27.935   4.633
48736W        W19336  43.796  14.195   0.949
48737W        W19337  39.356  33.359   2.265
48738W        W19338  23.805  10.594  14.629
48739W        W19339  42.222  35.524   3.828
48740W        W19340  29.224   8.651   2.292
48741W        W19341  24.706  19.603  12.505
48742W        W19342  26.365  20.099  12.419
48743W        W19343  21.477  35.100  13.541
48744W        W19344  34.452  41.819   2.057
48745W        W19345  30.893  18.488  10.322
48746W        W19346  31.574  10.037  11.526
48747W        W19347  18.891   6.811   1.868
48748W        W19348   4.799  40.180   0.446
48749W        W19349  29.924   4.357  13.963
48750W        W19350  42.047   6.974  11.948
48751W        W19351  25.851   8.853  10.968
48752W        W19352   2.006   5.253  14.655
48753W        W19353   6.654  37.027  11.320
48754W        W19354  43.305  34.126  14.299
48755W        W19355  32.223   4.247  10.708
48756W        W19356  24.831  43.350  11.793
48757W        W19357  21.697  23.004   1.347
48758W        W19358  10.290  38.728   0.896
48759W        W19359  13.233  26.980   3.616
48760W        W19360  38.074  36.241   1.645
48761W        W19361  10.784   3.845  11.010
48762W        W19362  12.988  11.855   4.766
48763W        W19363  11.186  10.691   0.287
48764W        W19364  27.959  28.236  10.715
48765W        W19365  36.312  36.676  12.475
48766W        W19366  12.678  27.002   1.222
48767W        W19367  43.450   0.402   0.460
48768W        W19368  34.319  25.469   3.699
48769W        W19369   7.664  31.609   2.990
48770W        W19370  25.009   9.605  12.146
48771W        W19371  23.653  34.273  14.402
48772W        W19372  26.106   6.877  13.044
48773W        W19373  31.649  40.243   1.639
48774W        W19374  16.729  36.149  10.908
48775W        W19375  21.042  31.997   0.665
48776W        W19376  33.041  36.904  14.817
48777W        W19377  26.534  18.555   2.743
48778W        W19378  16.819  42.418  13.839
48779W        W19379  12.374  16.397   4.204
48780W        W19380   5.494  42.850  11.382
48781W        W19381  15.875   4.670  14.331
48782W        W19382  17.310  40.571   4.119
48783W        W19383  18.772  42.478  11.103
48784W        W19384   8.738  29.951   3.272
48785W        W19385  20.319  18.324  12.914
48786W        W19386  20.795  21.403   2.304
48787W        W19387  19.235  31.614  11.958
48788W        W19388   7.336  20.804   1.812
48789W        W19389  36.347  34.675  11.519
48790W        W19390  39.998  14.467  13.155
48791W        W19391  23.727  19.724   3.754
48792W        W19392   2.843  31.974  14.738
48793W        W19393  25.094   9.521  11.547
48794W        W19394   4.977  13.831  11.129
48795W        W19395   5.419  29.477   4.350
48796W        W19396   6.734  13.115  10.680
48797W        W19397  20.306   9.701  14.982
48798W        W19398  19.116   1.964  14.023
48799W        W19399  19.280  25.301   2.692
48800W        W19400  12.764  21.028   1.834
48801W        W19401   3.414  36.606   2.389
48802W        W19402  20.151   1.144  11.604
48803W        W19403  41.278  20.849   3.751
48804W        W19404  20.191  17.865   2.498
48805W        W19405  22.650  35.837   4.006
48806W        W19406  10.676  24.067  13.532
48807W        W19407   9.653  13.500  13.983
48808W        W19408   5.929  43.313  13.419
48809W        W19409  28.509  12.581   3.924
48810W        W19410  22.465   5.154  11.570
48811W        W19411   9.285  25.320   2.125
48812W        W19412  24.007   7.326   0.735
48813W        W19413  43.526   0.741   0.835
48814W        W19414   5.907  44.371   1.820
48815W        W19415  14.755  44.364   1.807
48816W        W19416  41.613   5.543  13.894
48817W        W19417  40.676  43.054   0.359
48818W        W19418  13.119  22.198   0.962
48819W        W19419   0.837  35.697  10.605
48820W        W19420  31.957  44.480  13.550
48821W        W19421   6.692  40.740   1.451
48822W        W19422   7.901  28.692   3.621
48823W        W19423   9.450   2.293  12.193
48824W        W19424  22.582  11.413   0.365
48825W        W19425  38.162  21.257  10.732
48826W        W19426  35.497  27.028   3.565
48827W        W19427   8.035  17.349  14.875
48828W        W19428  19.241  44.977  12.452
48829W        W19429   7.220   6.662   3.154
48830W        W19430   6.643  36.574  11.556
48831W        W19431   7.437   1.037  12.468
48832W        W19432  42.051  42.920   3.158
48833W        W19433  41.354  37.318   0.937
48834W        W19434  22.269  31.570   4.583
48835W        W19435   9.350   4.156   4.110
48836W        W19436   8.724  18.865  12.177
48837W        W19437  10.819  32.777  13.805
48838W        W19438   5.935  16.237  14.813
48839W        W19439  40.405  18.602  11.417
48840W        W19440  21.245   8.636  11.784
48841W        W19441  23.100  14.243  12.378
48842W        W19442  27.667  42.244   1.906
48843W        W19443  37.085  35.280  13.311
48844W        W19444  38.342  14.945  13.420
48845W        W19445   9.528  32.382   0.446
48846W        W19446  13.587  39.704   1.320
48847W        W19447  35.390  40.530  13.090
48848W        W19448  21.820  30.065   2.344
48849W        W19449  32.673  39.983   3.721
48850W        W19450   3.501  16.723   2.253
48851W        W19451   0.024  28.828   2.286
48852W        W19452   4.219  42.026  11.096
48853W        W19453  12.020  38.614   4.171
48854W        W19454   2.845  21.652  14.452
48855W        W19455  24.532   9.157  12.890
48856W        W19456  31.532  10.705  12.457
48857W        W19457  44.801   3.142   0.282
48858W        W19458  25.117  32.078  13.348
48859W        W19459   6.225  25.025  13.988
48860W        W19460   8.834   5.824   2.361
48861W        W19461  14.088   7.967   1.334
48862W        W19462  18.551  43.264   3.949
48863W        W19463  10.934  33.251  11.172
48864W        W19464  20.252  28.807   2.869
48865W        W19465  33.009  24.135   0.461
48866W        W19466   5.189  21.969   3.387
48867W        W19467  22.855  16.678   0.776
48868W        W19468  36.378   8.655  10.739
48869W        W19469  43.286  10.435   3.674
48870W        W19470  15.602  23.112   0.801
48871W        W19471   5.422  30.530  12.647
48872W        W19472  26.411   2.406   4.638
48873W        W19473  11.151  42.896  13.624
48874W        W19474  32.135  22.281  12.961
48875W        W19475  25.420   6.413  14.846
48876W        W19476  36.365   0.850   3.208
48877W        W19477  27.219  33.887  12.075
48878W        W19478   7.149  23.040  11.481
48879W        W19479   8.200  12.116  11.171
48880W        W19480  23.055  28.225   3.442
48881W        W19481   0.993  37.654   2.696
48882W        W19482  30.632  35.082   4.566
48883W        W19483  40.950  42.644   0.159
48884W        W19484   4.725  35.270  14.958
48885W        W19485   6.884  20.049   3.361
48886W        W19486   1.917   8.289  12.032
48887W        W19487  35.968  13.358   3.551
48888W        W19488  18.762  21.822  13.912
48889W        W19489  24.522  16.056   0.443
48890W        W19490  37.273  16.192  14.766
48891W        W19491  18.184   7.627   2.645
48892W        W19492  37.413  42.936   0.544
48893W        W19493  26.466  27.204  13.857
48894W        W19494  31.215   6.333   1.782
48895W        W19495   3.991  19.090  14.747
48896W        W19496  10.329  13.391   3.198
48897W        W19497  19.262  18.503  13.880
48898W        W19498  33.357  22.674  14.977
48899W        W19499  12.716   2.733   3.365
48900W        W19500  15.286   6.387   2.826
48901W        W19501  24.162   0.446  13.951
48902W        W19502  21.587   0.963   3.321
48903W        W19503   8.477  44.649  12.502
48904W        W19504  37.272  35.643  12.599
48905W        W19505  23.546   2.135   3.202
48906W        W19506  24.618  23.692   1.840
48907W        W19507  21.243  10.593  11.869
48908W        W19508  20.996   4.417   4.840
48909W        W19509   2.161  15.941  13.321
48910W        W19510  12.321  40.572   1.350
48911W        W19511  16.198  43.381   0.794
48912W        W19512   9.367  42.743   3.366
48913W        W19513  12.099   3.774  11.133
48914W        W19514  42.297  21.171   4.183
48915W        W19515  26.455  19.792  14.969
48916W        W19516  14.121  28.094   2.731
48917W        W19517  41.425   1.844   0.361
48918W        W19518  34.855   8.314   2.679
48919W        W19519  15.584  20.247   3.318
48920W        W19520  13.694  24.411   3.185
48921W        W19521  41.931   2.900   1.866
48922W        W19522  19.690  29.042   0.838
48923W        W19523  21.399   8.524  12.507
48924W        W19524  10.909   5.929  12.540
48925W        W19525  40.092  27.104   4.116
48926W        W19526   8.888   3.014   1.394
48927W        W19527  35.848  43.477  12.104
48928W        W19528  31.138   6.753  11.509
48929W        W19529  31.072   7.245  14.744
48930W        W19530   3.719   9.699  10.650
48931W        W19531  31.820  38.808  11.646
48932W        W19532   4.912  43.772  14.961
48933W        W19533  38.257  44.206   3.532
48934W        W19534  41.706   1.162   3.612
48935W        W19535   0.984  33.976   3.634
48936W        W19536  38.951  26.609  13.031
48937W        W19537  38.833  19.953  14.208
48938W        W19538  15.547  22.270  14.328
48939W        W19539  40.213  14.681   4.181
48940W        W19540  34.633  28.149  11.290
48941W        W19541  13.782  38.347   2.795
48942W        W19542   5.453  36.578   1.093
48943W        W19543  10.619  24.180  14.025
48944W        W19544   5.293   9.550  14.817
48945W        W19545  22.819   1.911   4.352
48946W        W19546  10.177  19.671  11.029
48947W        W19547  35.976  32.484  10.453
48948W        W19548   9.818  28.067   1.838
48949W        W19549  29.897  21.647  10.657
48950W        W19550  41.268  36.440  13.363
48951W        W19551  38.502   0.289  11.403
48952W        W19552  17.379  44.171  14.907
48953W        W19553  34.456  12.793  14.703
48954W        W19554   6.704  18.312   1.334
48955W        W19555  41.547  20.342   5.669
48956W        W19556   5.450  20.607  14.595
48957W        W19557   2.848  30.005   2.523
48958W        W19558  41.312  15.269   2.725
48959W        W19559   0.403   5.843   3.927
48960W        W19560  20.946  32.046   4.651
48961W        W19561  20.160  31.084  11.144
48962W        W19562  19.916   7.958  14.367
48963W        W19563  17.239   8.697   4.761
48964W        W19564  39.866  34.454  14.741
48965W        W19565  23.668   5.774  11.233
48966W        W19566   4.234   1.684   0.324
48967W        W19567  26.148  28.981  10.659
48968W        W19568  36.979   2.908  13.336
48969W        W19569  17.995  16.743   4.233
48970W        W19570  34.600  44.233  14.776
48971W        W19571  29.441   0.941   4.188
48972W        W19572   5.385   2.664   4.035
48973W        W19573  20.938  42.062   3.763
48974W        W19574  43.343   9.194   1.281
48975W        W19575  41.533   5.063  13.679
48976W        W19576  37.415  19.205  14.703
48977W        W19577  22.165  32.467   4.257
48978W        W19578   6.504  43.341  12.456
48979W        W19579  15.000  17.931  11.643
48980W        W19580  33.414  41.745  11.493
48981W        W19581   6.865  27.982  12.679
48982W        W19582  12.680  28.299  13.781
48983W        W19583  19.296  11.285  14.016
48984W        W19584  13.053  18.660  10.671
48985W        W19585  35.204  11.812  10.992
48986W        W19586  38.834   8.125   2.298
48987W        W19587  35.400  34.625  14.330
48988W        W19588  40.751  18.307  12.160
48989W        W19589  44.980  32.531  10.437
48990W        W19590  41.571   9.081  11.035
48991W        W19591   6.214  43.840  10.631
48992W        W19592  31.154  15.698   3.341
48993W        W19593  18.531  39.586  12.044
48994W        W19594   8.563  11.306   0.240
48995W        W19595   8.530  27.472   2.442
48996W        W19596  39.919  36.660  12.942
48997W        W19597  39.576  26.533  13.691
48998W        W19598  34.192  11.372   4.108
48999W        W19599  40.845  39.915  10.996
49000W        W19600  40.972   1.884   2.036
49001W        W19601  36.666   0.318  13.172
49002W        W19602   5.670  14.124  11.644
49003W        W19603  21.605   5.615   0.063
49004W        W19604  36.155  39.122   2.908
49005W        W19605   0.241  15.702   1.876
49006W        W19606  24.536   2.009  13.398
49007W        W19607  28.019  37.769   4.090
49008W        W19608  16.369  21.521   0.445
49009W        W19609  20.376  15.010  13.620
49010W        W19610  19.703   6.009  13.276
49011W        W19611  36.593  38.852  11.444
49012W        W19612  22.081   3.662  12.539
49013W        W19613  37.415  44.556   3.329
49014W        W19614  29.182  42.858   4.272
49015W        W19615  39.551  17.832  12.612
49016W        W19616  39.076  30.136   2.879
49017W        W19617  35.986  26.695   2.690
49018W        W19618  32.615  36.881  12.931
49019W        W19619   3.502  42.097  12.322
49020W        W19620  23.822  17.239  13.900
49021W        W19621  42.529  35.570   4.235
49022W        W19622  29.352  41.429   1.411
49023W        W19623  34.175  24.330  11.154
49024W        W19624  44.297  43.792  11.527
49025W        W19625  21.435  23.507  14.260
49026W        W19626  15.094   7.781  14.312
49027W        W19627  18.144   3.818   0.266
49028W        W19628  35.476  28.633  12.448
49029W        W19629   9.932  31.471   2.376
49030W        W19630  15.233  40.211   2.267
49031W        W19631  40.430  21.000   1.387
49032W        W19632  14.572  38.682   4.712
49033W        W19633  11.612  24.673  10.726
49034W        W19634  24.641  16.177  14.948
49035W        W19635  27.983  38.499  11.091
49036W        W19636  18.794  30.524  13.395
49037W        W19637  40.057  13.409   1.358
49038W        W19638  31.184   7.959  12.539
49039W        W19639  34.517  10.241  11.023
49040W        W19640  15.794  22.783   4.622
49041W        W19641   3.795  26.917   2.826
49042W        W19642   4.319  42.546  11.810
49043W        W19643   3.116  28.084  10.860
49044W        W19644  32.838   6.641   2.608
49045W        W19645  41.929  15.700  11.937
49046W        W19646   8.332   4.159   4.588
49047W        W19647  33.622  36.023  10.364
49048W        W19648  32.666  25.378   2.310
49049W        W19649   3.872  27.147  13.781
49050W        W19650  39.952  26.109  12.972
49051W        W19651   1.492  42.949  12.402
49052W        W19652  39.162   5.198  11.126
49053W        W19653   1.774  18.111  10.717
49054W        W19654  36.565  22.007   0.421
49055W        W19655   8.116  38.546  11.916
49056W        W19656  19.594  33.397  14.735
49057W        W19657  25.252   0.401  10.552
49058W        W19658  20.152   7.265  13.595
49059W        W19659  35.853  38.393  14.949
49060W        W19660   1.430  14.585  11.707
49061W        W19661  28.019   7.998  10.712
49062W        W19662   1.573  27.013  14.387
49063W        W19663  30.610  39.523  13.325
49064W        W19664  29.031  16.549  14.752
49065W        W19665  26.224  43.867   2.694
49066W        W19666   7.883  31.657  11.627
49067W        W19667  41.316  11.468  10.821
49068W        W19668  20.256  41.939  13.556
49069W        W19669  18.231  32.075   3.696
49070W        W19670  12.818  33.980  10.639
49071W        W19671   0.630  23.167   4.981
49072W        W19672  24.570  13.808   4.658
49073W        W19673  24.029  24.567  14.327
49074W        W19674  40.499  10.563  14.401
49075W        W19675  39.360  43.863  11.787
49076W        W19676  21.819  20.028  14.373
49077W        W19677  23.976  31.266   0.355
49078W        W19678  40.482  44.440   3.751
49079W        W19679   1.191   9.622  13.607
49080W        W19680   4.984   4.953   2.242
49081W        W19681  36.357  32.977   4.618
49082W        W19682  34.443  10.623   4.326
49083W        W19683  37.916   0.445  10.732
49084W        W19684  41.940  11.696   5.137
49085W        W19685  20.098  35.964   1.693
49086W        W19686  42.214  31.556  12.986
49087W        W19687   1.363  16.191   4.478
49088W        W19688  23.377  19.566   2.441
49089W        W19689  34.436  28.447   1.337
49090W        W19690   2.661  36.016   4.855
49091W        W19691  14.836  20.879   2.130
49092W        W19692  22.779  42.787  13.866
49093W        W19693  29.472  12.028  12.175
49094W        W19694   3.140  34.503  13.308
49095W        W19695   7.178  11.262   0.471
49096W        W19696  39.998  35.621  14.388
49097W        W19697   2.695  16.551   1.819
49098W        W19698  15.275  15.858   4.557
49099W        W19699  15.107  31.650   3.072
49100W        W19700  39.957  30.050  11.532
49101W        W19701  30.479  44.463   3.761
49102W        W19702  11.706  27.950  13.281
49103W        W19703   7.228  40.513   3.188
49104W        W19704  28.033  19.258  11.119
49105W        W19705  44.120  40.267  11.595
49106W        W19706  29.975  24.200   3.883
49107W        W19707   1.434  12.726  11.120
49108W        W19708  34.880   0.016  12.227
49109W        W19709  27.502  18.181  14.387
49110W        W19710  40.580  17.829  10.823
49111W        W19711  11.513  40.157  12.494
49112W        W19712  27.114   7.307  11.599
49113W        W19713  38.712  22.700  13.558
49114W        W19714  39.244  29.587   1.243
49115W        W19715  33.739  34.633   3.661
49116W        W19716  44.023   2.492   4.920
49117W        W19717  17.791  33.354   0.821
49118W        W19718   5.744  24.726   4.571
49119W        W19719  30.043   7.125  13.982
49120W        W19720  35.400  26.040  14.339
49121W        W19721   1.203  30.381  14.818
49122W        W19722   3.454  29.290  10.825
49123W        W19723   9.923  24.657  11.638
49124W        W19724   6.036   0.491   2.524
49125W        W19725  17.236  43.688  10.274
49126W        W19726   3.909   0.541   1.821
49127W        W19727  10.361  27.769  12.193
49128W        W19728  43.932  14.193  14.903
49129W        W19729  26.883  39.470  11.153
49130W        W19730  13.228  27.728  10.477
49131W        W19731   5.003  16.287  10.354
49132W        W19732  19.779  41.974  13.089
49133W        W19733  27.382  44.733   3.552
49134W        W19734  37.850   5.688   0.945
49135W        W19735   3.469  28.532  12.808
49136W        W19736  39.311   1.468   4.087
49137W        W19737  24.494   3.801   1.524
49138W        W19738  41.939  15.623   3.169
49139W        W19739  14.862   4.867  13.569
49140W        W19740   3.284  31.065  10.899
49141W        W19741   1.672   2.248  14.223
49142W        W19742  14.700  28.371   4.895
49143W        W19743  21.030  31.997  11.698
49144W        W19744  16.771  14.374   0.073
49145W        W19745  22.420   9.577  12.960
49146W        W19746  40.706  37.054  11.150
49147W        W19747  22.377  39.385   0.752
49148W        W19748  20.322  44.583  11.187
49149W        W19749  27.685  30.555   4.768
49150W        W19750  25.697  15.469  11.122
49151W        W19751  33.971   1.448  14.341
49152W        W19752  34.259  14.784   4.381
49153W        W19753  42.104  36.078  13.378
49154W        W19754   1.343  43.866  12.420
49155W        W19755  39.312  30.462   4.907
49156W        W19756  20.194  10.761   1.360
49157W        W19757  13.859   9.745   2.809
49158W        W19758   3.399  16.634   0.876
49159W        W19759  10.922  39.068   0.387
49160W        W19760  34.125  10.707  13.934
49161W        W19761  36.961   7.218  12.474
49162W        W19762  33.744  29.647   9.964
49163W        W19763  12.718  35.072  10.623
49164W        W19764  32.527  10.939  13.579
49165W        W19765  21.608  19.105  10.773
49166W        W19766  39.938  22.994  14.674
49167W        W19767  33.099  36.041   4.955
49168W        W19768  32.571  20.749   1.453
49169W        W19769   6.373  25.465  10.726
49170W        W19770  13.065  14.412  11.637
49171W        W19771  35.093  27.099  13.302
49172W        W19772   2.421  22.430   1.465
49173W        W19773   6.845  19.066   3.485
49174W        W19774  27.475  44.729   0.117
49175W        W19775  34.381  34.862   4.883
49176W        W19776  42.166  25.401  13.430
49177W        W19777  43.100  42.277   1.273
49178W        W19778   3.732  44.694   3.271
49179W        W19779  29.922   8.244   0.897
49180W        W19780  44.715   6.810   4.675
49181W        W19781  11.596  32.866   3.340
49182W        W19782   1.350  26.161   1.236
49183W        W19783  39.371  34.743   2.708
49184W        W19784  42.646   4.701   0.876
49185W        W19785  21.533  40.979  13.897
49186W        W19786  14.886  28.022  12.501
49187W        W19787  26.628  13.808   2.066
49188W        W19788  20.705   1.041  13.737
49189W        W19789  28.423  17.416  13.880
49190W        W19790   0.730  29.353  11.102
49191W        W19791  29.515  10.835   1.444
49192W        W19792  25.573  39.813  14.521
49193W        W19793  44.729  21.444   4.937
49194W        W19794   0.796  20.924  12.304
49195W        W19795  30.778  24.922   3.243
49196W        W19796   3.493  43.182  14.914
49197W        W19797  18.801  34.575   3.996
49198W        W19798  33.160  30.446  11.114
49199W        W19799  37.414  18.715   4.550
49200W        W19800  19.069  31.782   3.733
49201W        W19801  33.365  40.050  12.581
49202W        W19802  38.993   5.861   0.340
49203W        W19803  23.691  17.324  10.490
49204W        W19804  31.507  37.265   3.946
49205W        W19805  30.738  11.665  12.748
49206W        W19806   4.506  38.419  13.437
49207W        W19807  24.368  22.164   3.487
49208W        W19808   4.608   9.836   4.629
49209W        W19809  32.060   7.745   4.584
49210W        W19810  22.627  33.360  11.611
49211W        W19811  22.024  37.219   3.177
49212W        W19812  32.627   3.967   2.913
49213W        W19813  42.565   7.801  14.524
49214W        W19814  28.695  13.647   0.324
49215W        W19815  13.835  40.930   2.327
49216W        W19816  14.222  33.541   3.763
49217W        W19817  40.108  21.254   1.960
49218W        W19818  20.756   9.925   2.746
49219W        W19819  36.289  10.846   4.579
49220W        W19820   3.741  44.969   1.012
49221W        W19821  16.101  43.346  14.354
49222W        W19822  34.377  24.879   2.776
49223W        W19823  21.703  24.050   2.358
49224W        W19824  12.778  24.303  11.933
49225W        W19825  32.908  12.484   3.680
49226W        W19826  25.016   4.882  10.717
49227W        W19827  23.509  15.989   0.155
49228W        W19828  27.207  26.964   2.591
49229W        W19829  10.679  39.546  13.141
49230W        W19830  40.201  14.296   1.407
49231W        W19831  32.147  23.646   2.905
49232W        W19832  43.236  23.407  11.899
49233W        W19833  18.943   1.171  14.522
49234W        W19834  32.224  11.956  12.466
49235W        W19835  29.074  42.260  12.530
49236W        W19836   7.424  30.989   2.403
49237W        W19837  27.525  29.011  13.662
49238W        W19838   8.622  38.336  14.466
49239W        W19839  15.695  28.053   1.835
49240W        W19840  40.540   9.484   2.200
49241W        W19841  26.354  16.625   2.682
49242W        W19842  42.376  43.474   4.542
49243W        W19843  19.753   2.354  10.612
49244W        W19844  27.559   1.848   3.342
49245W        W19845  17.576  11.222   2.686
49246W        W19846  40.417   2.635  10.902
49247W        W19847  17.676  38.392   1.882
49248W        W19848  26.061  35.099  11.483
49249W        W19849  40.536  44.512   2.889
49250W        W19850  23.931  16.192  12.226
49251W        W19851   5.372  28.149  13.011
49252W        W19852   0.563  13.537  11.653
49253W        W19853  41.514  22.819  12.821
49254W        W19854  43.992  22.148   0.636
49255W        W19855   2.553  33.647  11.565
49256W        W19856   6.876  18.294  12.910
49257W        W19857  36.495   2.797   2.308
49258W        W19858   6.754  37.104   0.008
49259W        W19859  19.941  20.827  11.663
49260W        W19860   5.864  19.166   5.073
49261W        W19861  21.974   6.779  13.003
49262W        W19862  31.850   0.606   2.183
49263W        W19863  27.186  41.880   3.284
49264W        W19864  13.320  34.229   2.891
49265W        W19865  31.481  31.507   0.398
49266W        W19866  30.972  35.142  12.679
49267W        W19867  23.076  39.811   0.329
49268W        W19868  39.031  27.105  13.093
49269W        W19869   2.414  41.509  10.402
49270W        W19870   8.419  44.923   2.262
49271W        W19871  32.355  24.986  12.898
49272W        W19872  44.052   7.304   3.882
49273W        W19873  43.441  10.244   0.201
49274W        W19874  10.418   2.438  13.117
49275W        W19875   2.191   0.066  13.884
49276W        W19876   9.724  26.570  13.894
49277W        W19877  26.293  31.320   1.806
49278W        W19878  41.093  41.610   2.933
49279W        W19879   8.234  26.519  14.933
49280W        W19880  10.772  37.939  14.402
49281W        W19881  13.593  20.630   3.735
49282W        W19882  44.304  42.401  14.997
49283W        W19883   8.695  40.239   2.685
49284W        W19884  14.679  31.068   2.509
49285W        W19885  28.178  24.598  13.118
49286W        W19886  17.548  41.042   4.129
49287W        W19887   9.267   0.337   1.332
49288W        W19888  39.630  41.928  10.482
49289W        W19889  21.338  30.410   4.033
49290W        W19890  22.865   0.984   4.103
49291W        W19891   2.476  38.005  14.935
49292W        W19892  28.558  10.219  14.607
49293W        W19893   1.777  11.667   0.251
49294W        W19894  32.991  29.556  11.853
49295W        W19895  32.934   5.566  10.691
49296W        W19896  27.449   0.180  14.828
49297W        W19897  10.084  37.658   1.821
49298W        W19898  44.754  31.866  11.975
49299W        W19899   0.497   6.699  12.014
49300W        W19900  28.668  13.234   2.455
49301W        W19901   7.954   9.880  13.325
49302W        W19902  40.999  36.566  12.095
49303W        W19903   0.491  26.684  11.451
49304W        W19904  36.940  23.422   2.343
49305W        W19905  12.706  19.089  12.057
49306W        W19906  33.047  29.953  14.134
49307W        W19907  34.703   2.396  12.601
49308W        W19908  27.205  24.685   0.890
49309W        W19909  29.467  23.078   3.187
49310W        W19910   2.286  27.704   2.274
49311W        W19911  36.448  40.582   1.246
49312W        W19912  15.088  30.082  10.653
49313W        W19913  27.112  19.229   2.284
49314W        W19914  23.666  12.322   1.862
49315W        W19915  19.627  14.155   4.714
49316W        W19916  22.032  14.640  13.414
49317W        W19917   1.892   6.177  11.104
49318W        W19918   9.587  38.414   0.392
49319W        W19919  33.100  22.784   2.770
49320W        W19920   6.668   5.909   0.923
49321W        W19921  28.011   1.622   3.239
49322W        W19922  35.950  21.251   0.965
49323W        W19923  19.121   0.996  12.577
49324W        W19924   4.355  37.625  11.142
49325W        W19925  21.821  18.837   2.738
49326W        W19926   4.110   4.551  10.187
49327W        W19927   4.999  11.163  12.690
49328W        W19928  21.160  29.977  13.842
49329W        W19929   8.618  40.875  11.645
49330W        W19930   8.264  31.944  14.252
49331W        W19931  42.836   6.228   1.899
49332W        W19932  30.605  31.605  14.983
49333W        W19933  14.813  29.866  13.769
49334W        W19934  23.536   3.832   2.962
49335W        W19935   2.524  38.027   4.053
49336W        W19936   8.622  18.297   2.357
49337W        W19937  18.989   0.878   1.737
49338W        W19938  38.460  25.884  12.132
49339W        W19939   9.427  43.435  13.450
49340W        W19940  38.979   3.836  14.594
49341W        W19941   2.759   4.780   4.343
49342W        W19942  10.396  31.168  13.958
49343W        W19943   5.697  39.808  11.997
49344W        W19944  19.316   0.385   0.861
49345W        W19945  30.830  26.013  10.564
49346W        W19946   1.469  24.137   2.084
49347W        W19947  25.142  22.164  11.121
49348W        W19948  29.484  34.881  13.116
49349W        W19949   0.413  37.449   4.180
49350W        W19950  23.808  39.728   4.628
49351W        W19951  34.359  23.855   0.374
49352W        W19952  35.397  15.686  13.507
49353W        W19953  17.842   6.836   0.325
49354W        W19954  17.660  43.038  14.518
49355W        W19955   5.346  14.695  10.855
49356W        W19956  38.556  26.950   1.770
49357W        W19957   8.278  25.053  11.690
49358W        W19958  22.542  33.966  13.396
49359W        W19959  29.101  20.508  11.803
49360W        W19960   2.422  23.264   2.786
49361W        W19961   4.117  35.970  14.763
49362W        W19962   2.368  13.692  14.595
49363W        W19963  34.352   7.908  10.357
49364W        W19964  43.055  13.777  13.439
49365W        W19965   9.268  16.296  11.108
49366W        W19966  24.849  43.096   0.270
49367W        W19967   9.756  37.312   3.323
49368W        W19968  24.066  41.441   2.869
49369W        W19969  18.498  26.603   3.174
49370W        W19970   0.773   6.163   3.769
49371W        W19971  31.589  37.561   1.373
49372W        W19972  37.959  39.547  10.638
49373W        W19973  38.410  17.548   3.233
49374W        W19974  28.079  18.790   3.477
49375W        W19975  44.760  31.630  14.719
49376W        W19976  43.299  38.259  11.230
49377W        W19977  21.080  18.612   4.404
49378W        W19978  17.499  38.556  11.665
49379W        W19979   5.301  39.824  11.493
49380W        W19980  16.967  10.391   4.134
49381W        W19981   3.926  43.755  11.639
49382W        W19982   4.537   3.899  13.410
49383W        W19983  43.046   1.638  10.323
49384W        W19984  42.547  23.046  13.085
49385W        W19985  17.034   5.807  12.742
49386W        W19986  36.047  39.118  13.948
49387W        W19987  17.142  43.601   3.757
49388W        W19988  33.148  22.042  12.075
49389W        W19989  16.724  41.535  13.738
49390W        W19990   3.848  23.099  12.887
49391W        W19991   7.905  30.733  14.005
49392W        W19992  34.186  20.610  10.796
49393W        W19993  21.517  19.301  11.256
49394W        W19994  22.156  15.182   3.050
49395W        W19995  30.449   6.697  14.842
49396W        W19996  33.927  19.113  10.850
49397W        W19997  37.840  24.961   0.458
49398W        W19998  10.640  19.805   3.172
49399W        W19999  14.678  17.192  13.382
49400W        W20000   6.393  33.276  13.998
49401W        W20001   0.383  42.990   1.487
49402W        W20002   8.350  11.622   2.889
49403W        W20003  38.510   2.307  13.096
49404W        W20004  35.371  15.197  11.178
49405W        W20005  12.801  25.374   3.259
49406W        W20006  41.503  21.945   1.893
49407W        W20007  33.909  42.037  11.696
49408W        W20008  38.846  16.658  12.476
49409W        W20009   4.741  28.693  13.350
49410W        W20010   6.680  33.654  11.525
49411W        W20011  12.237  32.790   0.415
49412W        W20012   8.690  11.151   0.958
49413W        W20013  17.652  15.530   0.984
49414W        W20014  40.042  32.487  14.375
49415W        W20015  40.517  39.041  10.306
49416W        W20016  31.035   4.934   1.785
49417W        W20017  15.719  29.094   2.413
49418W        W20018  20.567  36.017   1.468
49419W        W20019   9.832  43.298   4.362
49420W        W20020  26.185   3.865  13.960
49421W        W20021  39.816  29.563  13.384
49422W        W20022  16.671  15.510   1.954
49423W        W20023  26.098  25.681  11.197
49424W        W20024  38.160  23.792  10.746
49425W        W20025   9.892  18.092  14.752
49426W        W20026   6.666   8.343  12.079
49427W        W20027  38.419  24.839  13.062
49428W        W20028  27.213  31.421   1.780
49429W        W20029  24.452  28.790   2.259
49430W        W20030   1.406  33.930  11.401
49431W        W20031  26.205   0.856  11.682
49432W        W20032  15.740  43.564  11.336
49433W        W20033  40.074  25.153  11.662
49434W        W20034   6.301  39.852   1.358
49435W        W20035  11.357  19.320  14.055
49436W        W20036  16.683  28.640   3.844
49437W        W20037   8.348  40.965  12.074
49438W        W20038   2.416  26.561   0.423
49439W        W20039   5.398  19.205  13.288
49440W        W20040  32.534  40.178   1.479
49441W        W20041  11.198  41.458   1.822
49442W        W20042  34.343  19.257   1.068
49443W        W20043   4.733  19.117   1.873
49444W        W20044  38.046  40.181  12.877
49445W        W20045   0.420  35.337  10.679
49446W        W20046  42.505   0.087   0.308
49447W        W20047  23.791  14.643   0.387
49448W        W20048  39.470  44.860  14.059
49449W        W20049  27.439  12.837   1.267
49450W        W20050  33.792  21.555   1.608
49451W        W20051   7.804  36.193   3.186
49452W        W20052   9.893   6.086  12.459
49453W        W20053  18.829  11.716  10.807
49454W        W20054  26.350  33.550  12.558
49455W        W20055  41.137  24.234  13.465
49456W        W20056  17.663  12.952  10.668
49457W        W20057  41.041  44.821   1.452
49458W        W20058   2.213   7.245   0.360
49459W        W20059  38.753  31.477   2.394
49460W        W20060   9.162  24.917  12.636
49461W        W20061   8.835  35.320   3.263
49462W        W20062  39.778  39.393   3.897
49463W        W20063  35.214  41.393   4.210
49464W        W20064  42.303  17.229  12.462
49465W        W20065   9.178  39.887  10.626
49466W        W20066   8.848  17.531   1.275
49467W        W20067  41.405   7.281   0.103
49468W        W20068  17.944   0.432  14.137
49469W        W20069   1.017  31.179   1.860
49470W        W20070  40.286  35.673  13.344
49471W        W20071  42.448  33.634  14.316
49472W        W20072  30.032   5.477  11.355
49473W        W20073  21.079  15.508  12.700
49474W        W20074   1.503  31.935   3.691
49475W        W20075  20.594   2.003  11.666
49476W        W20076   9.237  21.112   2.275
49477W        W20077   5.149  34.466  12.062
49478W        W20078  35.259  26.664   1.220
49479W        W20079  41.814  24.957   0.211
49480W        W20080  17.237  43.317   2.901
49481W        W20081  29.733  25.214  11.951
49482W        W20082  11.406  10.831   3.282
49483W        W20083  40.430   4.905   2.998
49484W        W20084  26.492   7.264  14.346
49485W        W20085  21.961  39.036   5.072
49486W        W20086   4.290   8.724   1.515
49487W        W20087  36.885  11.107   3.411
49488W        W20088  10.108   9.624  10.634
49489W        W20089  44.688  44.386  14.464
49490W        W20090  26.280   6.089  11.584
49491W        W20091  29.472  28.978  14.412
49492W        W20092   1.514  14.031   1.952
49493W        W20093   3.535  12.074   3.925
49494W        W20094  30.083  21.200  12.671
49495W        W20095  42.248   2.104   1.871
49496W        W20096  41.530  32.600   2.437
49497W        W20097  15.685   1.402  13.282
49498W        W20098  13.080   9.840   3.345
49499W        W20099  41.346  30.583   0.420
49500W        W20100  31.522  20.534   2.268
49501W        W20101  40.911  25.606   4.652
49502W        W20102   5.173   5.475   3.668
49503W        W20103   3.841   8.771   4.161
49504W        W20104  20.304  40.568   4.109
49505W        W20105  33.608  41.808   1.376
49506W        W20106  44.417  14.747   3.082
49507W        W20107   1.962   2.053   2.887
49508W        W20108  20.799   6.874   3.367
49509W        W20109  18.169  37.292   3.686
49510W        W20110   1.073   2.215  12.822
49511W        W20111   0.006  19.665  11.681
49512W        W20112   5.850   1.968   2.413
49513W        W20113  30.237  20.211  12.645
49514W        W20114  28.468  32.101  11.846
49515W        W20115  16.792  22.332   4.599
49516W        W20116  10.881  38.996  14.117
49517W        W20117  39.772   0.304  14.490
49518W        W20118  36.007  13.972  10.773
49519W        W20119   9.262   9.367  12.551
49520W        W20120  41.179  18.794  14.040
49521W        W20121  27.584  42.562   2.344
49522W        W20122  27.166  13.361  11.098
49523W        W20123  33.090  15.125  13.880
49524W        W20124   4.991   1.816   3.135
49525W        W20125  16.534  16.630   0.761
49526W        W20126  36.589   5.291  11.828
49527W        W20127  19.133  13.259   1.293
49528W        W20128   0.437  29.374   1.781
49529W        W20129  14.961  11.223   2.363
49530W        W20130  22.550  44.824   3.638
49531W        W20131  44.223  38.019  12.494
49532W        W20132   4.654  19.458  10.645
49533W        W20133  27.814  24.612   1.969
49534W        W20134  43.189   0.798  12.416
49535W        W20135  12.289  40.857  12.498
49536W        W20136  16.995  31.985   4.501
49537W        W20137  38.477   6.229  11.705
49538W        W20138  28.565  15.350   0.260
49539W        W20139  38.298   6.938   1.405
49540W        W20140  23.144  35.067   2.264
49541W        W20141  30.652  24.735  12.881
49542W        W20142   4.339  37.348  13.554
49543W        W20143  32.521   5.774   3.280
49544W        W20144  32.619  21.566  13.558
49545W        W20145  26.112  43.110  12.332
49546W        W20146  43.779  12.720  13.903
49547W        W20147  23.598  43.826   0.284
49548W        W20148   9.435  11.767  11.515
49549W        W20149  11.049  41.549  10.199
49550W        W20150  42.953   9.359   4.217
49551W        W20151   9.092  14.894   3.160
49552W        W20152   8.427  13.340  11.938
49553W        W20153  16.926  16.283  10.892
49554W        W20154  11.748   8.162   4.051
49555W        W20155  18.605   2.968   0.418
49556W        W20156   8.847  16.227   0.982
49557W        W20157  36.068  38.649   3.199
49558W        W20158   4.157  24.868  12.495
49559W        W20159   6.236  43.015   2.339
49560W        W20160  14.135  13.354   0.991
49561W        W20161  39.098   7.690   3.272
49562W        W20162  37.518   9.832   1.107
49563W        W20163  28.613  33.197   2.649
49564W        W20164  38.147   3.787  10.191
49565W        W20165   1.554  18.176  14.931
49566W        W20166  42.542  40.550  10.582
49567W        W20167   3.790  38.699   2.166
49568W        W20168   0.285  11.599   1.803
49569W        W20169  24.075  20.572   2.870
49570W        W20170   3.915  15.695  14.892
49571W        W20171   0.020  24.128   0.457
49572W        W20172  34.396   7.203   4.137
49573W        W20173  28.980  22.813  14.911
49574W        W20174  27.834  19.055   2.716
49575W        W20175  37.546  41.864  10.757
49576W        W20176  18.272  16.722   0.699
49577W        W20177  25.572  37.544  12.493
49578W        W20178   1.971  44.051   1.310
49579W        W20179  26.045  25.035  14.076
49580W        W20180  44.398   8.393  12.083
49581W        W20181   3.477  16.079   1.803
49582W        W20182  36.083  34.579   4.104
49583W        W20183   4.759  32.233  11.567
49584W        W20184   9.366  31.625   4.134
49585W        W20185  30.354   6.270  11.650
49586W        W20186  13.813  19.708  13.334
49587W        W20187  28.883   2.343   3.169
49588W        W20188   1.482  10.209   2.441
49589W        W20189  37.882  29.472  12.371
49590W        W20190   6.657  27.218  11.208
49591W        W20191  14.802  37.529  14.131
49592W        W20192  16.227  22.226   3.920
49593W        W20193   3.382   0.877  12.727
49594W        W20194  18.530  32.078  12.566
49595W        W20195   3.018  35.134   4.485
49596W        W20196   4.064  32.896  14.770
49597W        W20197  35.503  32.800   2.436
49598W        W20198  16.328  28.705  11.628
49599W        W20199  30.907  16.627   0.803
49600W        W20200  38.518  22.264  13.765
49601W        W20201  27.764  13.190   0.759
49602W        W20202   1.660  26.304   0.385
49603W        W20203   1.885  12.916  12.052
49604W        W20204  40.401  12.518  11.025
49605W        W20205   5.829   4.878  12.215
49606W        W20206  29.082  38.149   2.743
49607W        W20207   7.730  25.023  12.939
49608W        W20208  18.653   0.019   4.094
49609W        W20209  13.480  30.831   2.276
49610W        W20210  17.669  37.166  10.110
49611W        W20211  25.449  39.381  12.991
49612W        W20212  28.589  20.676  14.472
49613W        W20213   6.803   2.936  12.504
49614W        W20214  36.248  37.452   1.928
49615W        W20215  40.525  27.672   2.292
49616W        W20216   7.268  40.417   4.552
49617W        W20217  16.895  18.725   0.728
49618W        W20218  18.441  35.025   0.256
49619W        W20219  24.642   6.309  13.356
49620W        W20220  35.316  38.989   0.740
49621W        W20221   3.799  28.863   2.970
49622W        W20222  20.785  27.952  14.845
49623W        W20223  31.760  18.974   4.747
49624W        W20224  28.737   2.778   3.385
49625W        W20225  11.793  42.260  11.449
49626W        W20226  19.672  18.621   0.916
49627W        W20227   5.667  13.583   0.322
49628W        W20228   5.125  42.781   2.324
49629W        W20229  24.042   6.987   1.935
49630W        W20230  18.241  34.028  10.744
49631W        W20231  41.001  36.438   2.628
49632W        W20232   9.842  14.808   2.679
49633W        W20233  23.472  15.718   3.780
49634W        W20234  27.478  43.176  12.101
49635W        W20235   9.190  19.286   5.022
49636W        W20236  10.508  39.586  13.627
49637W        W20237  33.522   0.330   0.622
49638W        W20238  17.076  38.821   3.828
49639W        W20239   6.244  18.285   3.216
49640W        W20240   5.703  17.993  14.008
49641W        W20241  35.946  35.922  11.172
49642W        W20242   0.797  24.740  14.514
49643W        W20243  36.824  38.076   4.504
49644W        W20244  12.411   7.654  12.549
49645W        W20245  30.171  22.706  13.097
49646W        W20246  31.553  37.193  13.850
49647W        W20247  34.060  15.340   2.324
49648W        W20248  24.460  21.664  12.265
49649W        W20249   2.763  18.870  13.474
49650W        W20250  18.603  11.857   3.411
49651W        W20251   0.258  23.326   3.112
49652W        W20252  22.985  42.068  12.135
49653W        W20253  41.111   2.856  12.441
49654W        W20254  33.554   5.252   2.734
49655W        W20255   7.260  21.621  11.197
49656W        W20256   2.207  41.774   4.539
49657W        W20257   5.889  25.993   0.460
49658W        W20258   9.803  21.561   0.826
49659W        W20259  35.131  39.291   1.663
49660W        W20260  42.278  25.764  12.447
49661W        W20261  12.855  35.984   4.649
49662W        W20262  21.238  23.564   2.717
49663W        W20263   8.257   6.140  14.493
49664W        W20264  23.693   1.848  14.788
49665W        W20265   5.905  17.793   2.618
49666W        W20266  14.306  31.979   2.689
49667W        W20267   8.157   9.404  13.531
49668W        W20268   5.780   6.828  13.575
49669W        W20269  10.418  32.984   4.954
49670W        W20270  22.205  21.446  10.716
49671W        W20271   2.301  30.747  12.513
49672W        W20272  13.376   1.404  11.988
49673W        W20273  22.441  35.885  10.332
49674W        W20274  10.872  29.384  10.770
49675W        W20275   6.876   7.952   2.936
49676W        W20276  28.012  26.947   2.365
49677W        W20277  16.941  28.444  13.718
49678W        W20278  22.973  18.834   1.792
49679W        W20279  25.345  43.188   0.363
49680W        W20280  35.372  19.050   3.779
49681W        W20281  32.796  28.450   4.303
49682W        W20282  28.121  35.070   3.657
49683W        W20283  38.029  18.658   0.451
49684W        W20284   1.451  10.147   0.839
49685W        W20285  22.443   9.075   4.656
49686W        W20286  11.875  19.895   1.766
49687W        W20287  43.300  29.053   4.751
49688W        W20288  15.047  34.131  14.567
49689W        W20289  24.908  40.407  12.153
49690W        W20290  20.150   6.467   4.616
49691W        W20291  43.912  39.934   3.722
49692W        W20292  30.916  21.521  14.931
49693W        W20293  35.344  19.066   2.889
49694W        W20294  40.381  19.076  13.499
49695W        W20295  28.013  18.836   0.411
49696W        W20296  44.421  35.573  10.592
49697W        W20297  30.005  18.580   3.842
49698W        W20298   2.890   8.798  10.645
49699W        W20299   0.537  16.354  13.324
49700W        W20300   2.459   9.205   0.350
49701W        W20301  16.515   2.321   1.758
49702W        W20302  24.677   4.224  10.758
49703W        W20303  43.480  38.511  12.536
49704W        W20304  29.116  36.025   1.036
49705W        W20305   7.188  23.815  12.490
49706W        W20306   9.314  27.470   0.194
49707W        W20307  26.119  44.495  12.265
49708W        W20308   1.725  24.402   4.204
49709W        W20309   4.701  16.864   4.578
49710W        W20310  33.654  23.892  12.419
49711W        W20311  25.480   3.346   0.021
49712W        W20312  33.962  38.864  14.769
49713W        W20313  20.037   8.954   0.438
49714W        W20314  13.735  12.007   3.881
49715W        W20315  36.403  25.284   4.142
49716W        W20316   8.219  36.480  11.115
49717W        W20317  29.558   3.894  14.459
49718W        W20318  31.307  30.465   0.994
49719W        W20319  40.097  34.781   2.231
49720W        W20320  38.160  26.890  11.609
49721W        W20321  10.285  29.945   4.217
49722W        W20322  34.891  32.554  14.294
49723W        W20323  39.349  26.775   2.288
49724W        W20324  23.835  20.988  11.159
49725W        W20325  25.144  12.359  13.024
49726W        W20326  22.469  36.556   4.457
49727W        W20327  27.041   3.808   4.825
49728W        W20328  24.332  19.313  13.513
49729W        W20329   7.354  18.726  12.516
49730W        W20330  37.055  15.220  12.940
49731W        W20331  39.414  25.654  11.933
49732W        W20332  17.794  34.088  14.655
49733W        W20333   9.254  23.943  12.507
49734W        W20334  32.926   1.513   1.690
49735W        W20335   9.303  40.935   4.111
49736W        W20336   1.747  11.314  14.441
49737W        W20337   4.263  33.008   3.251
49738W        W20338  23.310  23.651   0.612
49739W        W20339   0.260   1.812  13.029
49740W        W20340  22.699   4.339   1.702
49741W        W20341  31.495   4.940   1.178
49742W        W20342  22.599  25.670  14.454
49743W        W20343  35.839   5.685  13.895
49744W        W20344  13.340  23.584  14.968
49745W        W20345  10.377  14.791   2.724
49746W        W20346  31.041   6.608  13.793
49747W        W20347  34.404  21.794   0.196
49748W        W20348  22.934  26.576   3.712
49749W        W20349   8.925  14.202   2.197
49750W        W20350  41.918  34.327   0.384
49751W        W20351  33.266  36.634  13.499
49752W        W20352  44.890  18.563  10.729
49753W        W20353  12.436  40.398   4.108
49754W        W20354  23.565  37.308   3.271
49755W        W20355  12.287  36.343  10.663
49756W        W20356  29.889   5.362  13.532
49757W        W20357  13.226  36.730  11.501
49758W        W20358  38.116  19.247  11.500
49759W        W20359  20.979  10.117  13.888
49760W        W20360  34.398  25.256   3.183
49761W        W20361  13.203  34.333   4.297
49762W        W20362  38.879   0.982  13.525
49763W        W20363  12.240   9.577  14.758
49764W        W20364   9.846  38.382  13.539
49765W        W20365  39.763  27.723  11.157
49766W        W20366  43.906  11.118  14.279
49767W        W20367  35.816  44.508  13.003
49768W        W20368  17.354  11.303  11.666
49769W        W20369  31.945  28.100   0.338
49770W        W20370  29.947  21.341   1.409
49771W        W20371  44.595  16.086  13.364
49772W        W20372  21.569  35.478  12.241
49773W        W20373  16.056  36.825   1.765
49774W        W20374  18.854  14.013  14.929
49775W        W20375  37.650  17.434   1.277
49776W        W20376  43.730  27.934  14.407
49777W        W20377  12.851  24.584  14.800
49778W        W20378  35.085  24.115  13.557
49779W        W20379  15.682   9.240  14.231
49780W        W20380   6.317  40.466  13.789
49781W        W20381  23.949  41.994   4.637
49782W        W20382  14.388  31.557   1.734
49783W        W20383  33.415  11.252  13.852
49784W        W20384  20.320  26.552  11.520
49785W        W20385  28.296  16.936  11.072
49786W        W20386  27.008  42.034  12.434
49787W        W20387  36.209  26.449  14.362
49788W        W20388  14.283  41.476  12.478
49789W        W20389  11.687  39.872   0.438
49790W        W20390  35.513  29.238   4.992
49791W        W20391  35.044  10.650   1.665
49792W        W20392  17.397   9.507   4.208
49793W        W20393   1.827  21.110  14.077
49794W        W20394  14.297  15.684   1.046
49795W        W20395  34.682  30.013   0.896
49796W        W20396  36.922  20.901  10.083
49797W        W20397  28.738  34.004  11.808
49798W        W20398  25.783  17.583  11.022
49799W        W20399   8.062  27.412   0.842
49800W        W20400   0.033  12.676   0.235
49801W        W20401  26.485   8.773  14.306
49802W        W20402  18.049   5.825  12.771
49803W        W20403   1.962  16.282  14.387
49804W        W20404  44.553  44.505  11.151
49805W        W20405   6.903  21.058   0.200
49806W        W20406   7.146  44.336  14.964
49807W        W20407  22.195  13.478   3.638
49808W        W20408  37.895  34.833   3.618
49809W        W20409  20.288  10.569  12.141
49810W        W20410  23.732  40.784   1.809
49811W        W20411   0.842  39.784  11.961
49812W        W20412  19.222  40.885   2.139
49813W        W20413  29.520  30.652  14.976
49814W        W20414   9.849  33.486   4.441
49815W        W20415  20.800  17.519   4.637
49816W        W20416  44.253  15.633  12.410
49817W        W20417   3.383  15.017   3.224
49818W        W20418  16.605  23.223   0.747
49819W        W20419  23.295  10.643   1.221
49820W        W20420  25.210  33.903   4.373
49821W        W20421  36.969  25.937   1.206
49822W        W20422   5.721  28.922  14.385
49823W        W20423   7.089  21.174   2.799
49824W        W20424  29.184  21.197  11.651
49825W        W20425  30.321  19.032   2.747
49826W        W20426  26.348  39.079  10.442
49827W        W20427  38.929  42.475   1.248
49828W        W20428  16.122  21.714   0.025
49829W        W20429   6.640   4.270  11.433
49830W        W20430  16.175  44.686  12.126
49831W        W20431  22.182   7.625  13.406
49832W        W20432  19.355  41.981   0.972
49833W        W20433  41.092  37.919  11.402
49834W        W20434  15.305   3.463  13.737
49835W        W20435  30.015  11.397   4.520
49836W        W20436  42.003   3.308  14.968
49837W        W20437   1.836  22.012  11.513
49838W        W20438  41.770  32.857  13.004
49839W        W20439  15.030  29.666   2.320
49840W        W20440   9.907  18.004  10.602
49841W        W20441  41.845  31.170   1.758
49842W        W20442  21.560  38.420   1.979
49843W        W20443   7.646   7.809   0.890
49844W        W20444  34.137  44.814  13.583
49845W        W20445  43.037  40.969   2.359
49846W        W20446  42.856  33.009  10.306
49847W        W20447  37.989  33.296   1.580
49848W        W20448   7.640   1.922   1.863
49849W        W20449  33.340  20.006   3.974
49850W        W20450   7.320  24.509  11.545
49851W        W20451  26.016  17.112  10.961
49852W        W20452  33.989  22.236   2.722
49853W        W20453  18.739  14.453   4.149
49854W        W20454  32.555   9.679   0.742
49855W        W20455  12.309   4.889   0.289
49856W        W20456  15.590   7.593   1.689
49857W        W20457  40.119  27.787  12.794
49858W        W20458  17.579  29.058  12.107
49859W        W20459  22.954  30.916  13.001
49860W        W20460   4.543  21.292  13.361
49861W        W20461  37.364  28.440  13.555
49862W        W20462  31.142  37.345  13.418
49863W        W20463  20.004   4.736   3.160
49864W        W20464   7.328  14.783  14.529
49865W        W20465  26.429  17.356  14.981
49866W        W20466   6.683  20.579   3.345
49867W        W20467  22.454  29.891   0.212
49868W        W20468   5.505  18.265   0.931
49869W        W20469  14.639  36.117   4.523
49870W        W20470  27.641  28.114   0.719
49871W        W20471   8.280  41.456  12.140
49872W        W20472  32.207  35.083   1.812
49873W        W20473  14.141  32.150   3.178
49874W        W20474  30.141   7.649  11.394
49875W        W20475  24.704  11.060   0.419
49876W        W20476   9.416  43.832  12.900
49877W        W20477  28.475  30.628  14.909
49878W        W20478  14.602  35.438   0.999
49879W        W20479  15.262  31.182   0.384
49880W        W20480   4.565  41.817  14.421
49881W        W20481  13.588  14.714   2.084
49882W        W20482  30.073  10.187  13.039
49883W        W20483  32.289  44.120  11.528
49884W        W20484   0.319   9.074  13.402
49885W        W20485  32.284  35.977   0.746
49886W        W20486  39.487  40.519  13.513
49887W        W20487  24.818  26.605  11.257
49888W        W20488  43.541  18.217   2.900
49889W        W20489  44.227  27.821  11.154
49890W        W20490  22.728  20.724   3.677
49891W        W20491  18.943  21.718   3.597
49892W        W20492  19.699   7.517  14.491
49893W        W20493  24.179  10.210   4.492
49894W        W20494  21.013  33.081  13.810
49895W        W20495  28.451  30.164   3.756
49896W        W20496   9.473  20.140   2.210
49897W        W20497  39.846  23.225  11.567
49898W        W20498  30.673   4.762  11.429
49899W        W20499   8.181   5.398   1.730
49900W        W20500  22.965  42.331  11.213
49901W        W20501   5.296  29.162  13.017
49902W        W20502  24.261  35.835  12.558
49903W        W20503   5.948  22.110   1.765
49904W        W20504  27.628  23.498   2.329
49905W        W20505   7.862  14.098   3.213
49906W        W20506  37.686  22.635   0.819
49907W        W20507   6.294  10.855   1.980
49908W        W20508  44.769  39.513   4.064
49909W        W20509   5.384  16.639  12.296
49910W        W20510  36.368  41.923  13.827
49911W        W20511   8.960  22.554  11.044
49912W        W20512  19.584  37.896   0.872
49913W        W20513  12.659  42.970   0.921
49914W        W20514   3.306  29.084   1.194
49915W        W20515  10.465  14.893  14.390
49916W        W20516  25.997  34.673  12.975
49917W        W20517  22.835  43.017  11.647
49918W        W20518   0.883  14.777   3.625
49919W        W20519   9.329  17.416  12.849
49920W        W20520  12.070  19.268   4.069
49921W        W20521  12.286  27.552   4.238
49922W        W20522  20.645   0.957  14.251
49923W        W20523  42.442  13.406  12.082
49924W        W20524   2.434   6.240  11.907
49925W        W20525  30.819   9.917  12.410
49926W        W20526  16.132  25.650  14.481
49927W        W20527   8.307   6.291  12.747
49928W        W20528  34.437   4.793   2.216
49929W        W20529  12.072  16.604  11.691
49930W        W20530  28.614   3.355   0.306
49931W        W20531  36.415   3.041  11.570
49932W        W20532  34.219  26.594   4.841
49933W        W20533  10.246   7.979   0.298
49934W        W20534  25.633  42.362  12.580
49935W        W20535  23.682  20.157   0.826
49936W        W20536  40.773   8.622   0.424
49937W        W20537   2.605  28.068  13.471
49938W        W20538  30.837   6.816  14.512
49939W        W20539  19.596  34.019   2.477
49940W        W20540  26.620  28.514   4.542
49941W        W20541   4.590  11.289  12.404
49942W        W20542  16.833  13.776   3.695
49943W        W20543  44.250  26.106   3.979
49944W        W20544  22.586  39.024  10.709
49945W        W20545  34.503  32.219   0.459
49946W        W20546  18.399  28.962  13.934
49947W        W20547  37.954  39.848  14.572
49948W        W20548  30.851  14.145   4.635
49949W        W20549  37.132  40.322   0.348
49950W        W20550   8.573  16.078  11.500
49951W        W20551  10.600   9.356   1.904
49952W        W20552  14.495  18.087  11.604
49953W        W20553  35.196  29.931   0.981
49954W        W20554  23.128   3.469  12.528
49955W        W20555  27.445  28.203  10.770
49956W        W20556  39.292  39.288   3.978
49957W        W20557   7.849  18.843  11.267
49958W        W20558  41.242  19.808  14.932
49959W        W20559  17.678  23.302   2.245
49960W        W20560  11.524   1.250   1.763
49961W        W20561   7.656  42.400  14.834
49962W        W20562  10.549  41.851   1.217
49963W        W20563  18.699  13.232  13.045
49964W        W20564  13.522  44.988   4.007
49965W        W20565  41.449  24.972   1.916
49966W        W20566   8.962  21.126  12.485
49967W        W20567  11.164   5.672  13.930
49968W        W20568   4.190  37.714  12.539
49969W        W20569  41.766  13.297   1.908
49970W        W20570  27.767  23.595   3.323
49971W        W20571  24.462  24.980   0.874
49972W        W20572  18.294  31.529  11.652
49973W        W20573  19.762  40.099  12.374
49974W        W20574  41.277  21.207  11.987
49975W        W20575  30.450  10.206  11.155
49976W        W20576  42.374  24.485  13.819
49977W        W20577  42.280  41.751  13.013
49978W        W20578  12.746  10.755   2.696
49979W        W20579  38.058  27.936   1.764
49980W        W20580   7.391  13.118  13.630
49981W        W20581  37.825  41.766  13.009
49982W        W20582  36.806  36.105   3.767
49983W        W20583   0.437  15.500  11.558
49984W        W20584   4.109   1.405   4.582
49985W        W20585  23.283  20.142  14.424
49986W        W20586   0.947  31.866   4.587
49987W        W20587   2.180  18.721  14.473
49988W        W20588  25.198   7.742   3.473
49989W        W20589  22.905  12.353  10.140
49990W        W20590  16.144  37.081   4.607
49991W        W20591  43.991  42.983   0.719
49992W        W20592  40.415  30.848  13.317
49993W        W20593  18.251  20.960   4.624
49994W        W20594  15.122  23.678  11.453
49995W        W20595  26.363  21.025   2.780
49996W        W20596  30.928  38.393  11.093
49997W        W20597  32.931  34.878  13.963
49998W        W20598  21.548  41.389  11.945
49999W        W20599  27.646  20.863  12.823
50000W        W20600   6.187  33.581  11.406
50001W        W20601  33.813  31.663  13.568
50002W        W20602   9.665   8.957   2.252
50003W        W20603  23.056  20.190  12.511
50004W        W20604  35.116   0.759   1.534
50005W        W20605  17.567  23.743   3.222
50006W        W20606  29.427  12.207  13.195
50007W        W20607  39.576  19.199   3.984
50008W        W20608  37.205  26.243  10.198
50009W        W20609   0.846  17.739  12.992
50010W        W20610  32.832  29.352   1.380
50011W        W20611  42.526  29.123   4.184
50012W        W20612   8.822  40.680   0.112
50013W        W20613  29.164   1.775  14.864
50014W        W20614  16.561  30.137  14.305
50015W        W20615  43.335   9.715   4.130
50016W        W20616  10.140  15.404  12.876
50017W        W20617  43.408   8.190   0.984
50018W        W20618  12.820  20.524  14.780
50019W        W20619  38.428   3.702  13.319
50020W        W20620  17.135  22.669  14.693
50021W        W20621  35.718  33.393   3.294
50022W        W20622  16.818  28.065   1.001
50023W        W20623  16.028   3.904  11.595
50024W        W20624  40.772   2.411   5.211
50025W        W20625  41.498  41.487   4.045
50026W        W20626  18.695  44.212   2.258
50027W        W20627   6.951  22.393   2.354
50028W        W20628  35.591  14.709   4.527
50029W        W20629  24.123  14.888  12.029
50030W        W20630  30.745   0.889   3.781
50031W        W20631   9.601  22.360   1.589
50032W        W20632  30.862   7.296  13.462
50033W        W20633   2.645  28.701   0.294
50034W        W20634   7.431   4.813   3.705
50035W        W20635  21.346  34.586   2.780
50036W        W20636  11.187  16.870   1.455
50037W        W20637  25.629  23.677   4.053
50038W        W20638  33.654  29.914   2.940
50039W        W20639  13.215   0.392   1.507
50040W        W20640  20.861  15.581   1.140
50041W        W20641   9.049  35.530  12.873
50042W        W20642  34.491   2.898  11.111
50043W        W20643  36.582  23.801  11.528
50044W        W20644  20.705  12.705   1.917
50045W        W20645  28.529  12.209   0.179
50046W        W20646  39.353  23.520   3.770
50047W        W20647  21.982   6.621   4.559
50048W        W20648  32.488  41.910  12.852
50049W        W20649  42.604   2.103  13.093
50050W        W20650  24.257  40.013  11.215
50051W        W20651  25.206  44.296   0.882
50052W        W20652  40.584   2.108  12.238
50053W        W20653  28.574  18.675   3.651
50054W        W20654  12.087  34.631  14.701
50055W        W20655  32.477  22.050   0.694
50056W        W20656  35.503   4.162  13.027
50057W        W20657  35.788  42.022  11.946
50058W        W20658  41.962  43.484   4.240
50059W        W20659  23.193  32.446  12.378
50060W        W20660  35.989  43.781  12.501
50061W        W20661   4.352  39.625  10.659
50062W        W20662  23.535  34.553  12.058
50063W        W20663  21.238  40.407   4.088
50064W        W20664   7.872  27.208  10.679
50065W        W20665  23.516   1.375   4.051
50066W        W20666  41.755   3.268  10.228
50067W        W20667   7.726  14.622  11.578
50068W        W20668  17.173  26.994  12.552
50069W        W20669  12.683   0.465  12.798
50070W        W20670  19.382  37.932   0.372
50071W        W20671   6.399  41.616  14.803
50072W        W20672   5.585  36.074  13.431
50073W        W20673   2.460  13.339   4.787
50074W        W20674   8.091  22.465  10.006
50075W        W20675   7.313  26.016   4.609
50076W        W20676  13.251   9.126  10.674
50077W        W20677  30.386  18.779  13.505
50078W        W20678  14.774   9.210   3.292
50079W        W20679  18.578  19.109  12.637
50080W        W20680  22.515  38.955   3.621
50081W        W20681  27.488  26.989  11.185
50082W        W20682  29.322  34.629   5.046
50083W        W20683  13.238   3.182   1.670
50084W        W20684  38.137  16.008   3.236
50085W        W20685  29.522  20.792  11.699
50086W        W20686  11.688   4.761  12.045
50087W        W20687  33.400  29.840   0.777
50088W        W20688   4.025  25.044   1.584
50089W        W20689  29.918   1.546   3.148
50090W        W20690  25.297  15.093  13.782
50091W        W20691  23.490  19.087  11.210
50092W        W20692  28.728  19.782  12.909
50093W        W20693  20.025  22.222  12.391
50094W        W20694  10.173  40.859   1.041
50095W        W20695  20.655  39.990   0.181
50096W        W20696  21.729  38.575  14.972
50097W        W20697  26.719  43.914  14.513
50098W        W20698  38.104  22.650  14.419
50099W        W20699  23.057   6.374   0.896
50100W        W20700  20.056  19.045  10.822
50101W        W20701  35.678  44.178  10.968
50102W        W20702   4.434  20.149  12.922
50103W        W20703   7.081  18.345   3.340
50104W        W20704  29.959  41.204  13.496
50105W        W20705  42.365  43.003   1.399
50106W        W20706  26.547   7.676   3.296
50107W        W20707  13.145  10.671  10.808
50108W        W20708  36.492  11.148  10.600
50109W        W20709  20.706  13.849  14.898
50110W        W20710  36.001  41.031   1.761
50111W        W20711  25.183  13.050  12.627
50112W        W20712  31.063  34.359   0.189
50113W        W20713  13.044  34.247  13.563
50114W        W20714  43.486  30.172   3.304
50115W        W20715   7.937  32.287  14.010
50116W        W20716  43.130  35.289  12.883
50117W        W20717  36.988  28.097   3.197
50118W        W20718  18.174  43.014   4.910
50119W        W20719  16.533  26.304  14.328
50120W        W20720  13.482   3.021   5.177
50121W        W20721   3.686  13.533   1.169
50122W        W20722  20.744   7.840   1.834
50123W        W20723   4.534  22.081   0.486
50124W        W20724  18.163  41.208  11.719
50125W        W20725   8.886   8.400   5.080
50126W        W20726   6.175  38.291   0.453
50127W        W20727  38.366   1.545   0.234
50128W        W20728  37.808  22.797  10.205
50129W        W20729  30.252  32.472   4.491
50130W        W20730   3.010  16.083   0.905
50131W        W20731  40.274  31.922   0.845
50132W        W20732  25.950  19.509   0.879
50133W        W20733  13.083  43.574   1.775
50134W        W20734  21.603  12.854   4.173
50135W        W20735   9.629   0.556  13.006
50136W        W20736   2.296  21.482  14.301
50137W        W20737  29.805  13.943   4.204
50138W        W20738  36.467  25.107  13.997
50139W        W20739  43.380  15.145   1.637
50140W        W20740  18.163  23.161   3.361
50141W        W20741   6.226  28.297  13.112
50142W        W20742  42.885  36.726   3.226
50143W        W20743  38.276  33.985   2.363
50144W        W20744  16.124  39.052   1.754
50145W        W20745  14.117  12.295  11.847
50146W        W20746  28.546  10.599  12.472
50147W        W20747  40.887   3.684  12.051
50148W        W20748   7.366  30.513   3.204
50149W        W20749   4.247   2.052  14.543
50150W        W20750  33.339  28.591   4.216
50151W        W20751  42.972   2.455  10.684
50152W        W20752  11.899  16.480  13.062
50153W        W20753  22.080  26.154  14.701
50154W        W20754  40.231  18.095  10.545
50155W        W20755   8.215  27.788   4.480
50156W        W20756  26.854  26.152   3.808
50157W        W20757  35.144  16.310  12.486
50158W        W20758  16.084  12.249  12.812
50159W        W20759  17.080  11.194   3.699
50160W        W20760   5.259   1.948   3.588
50161W        W20761  28.175  33.410  14.964
50162W        W20762  22.203  42.366   2.312
50163W        W20763  20.741  30.930  11.881
50164W        W20764  23.241  37.622  11.467
50165W        W20765  31.940  23.615  13.458
50166W        W20766  30.306  11.613  11.142
50167W        W20767  44.812  41.942   3.366
50168W        W20768  32.030  11.335  14.581
50169W        W20769  26.260   1.078   3.874
50170W        W20770  36.559  20.647   3.472
50171W        W20771   6.346  31.554   1.669
50172W        W20772  30.043   0.976   2.348
50173W        W20773  32.829   5.089   2.260
50174W        W20774   7.313  22.178  14.382
50175W        W20775  39.107  31.470  12.919
50176W        W20776  17.621  20.041  12.052
50177W        W20777  32.368   3.396  14.241
50178W        W20778  38.176  17.598  14.161
50179W        W20779   1.766   6.518   1.157
50180W        W20780  26.102  31.969   3.430
50181W        W20781  42.608  39.362  11.956
50182W        W20782   9.594  13.838   2.861
50183W        W20783   9.090  15.303  11.867
50184W        W20784  41.247  33.517   0.248
50185W        W20785   7.377  21.481  13.813
50186W        W20786  26.990  41.234  11.274
50187W        W20787  30.110  30.562  14.265
50188W        W20788  32.145  34.986  11.611
50189W        W20789  30.541   8.917   4.225
50190W        W20790   3.291  25.519  14.741
50191W        W20791  35.783  44.203  11.519
50192W        W20792  22.018  38.682  12.941
50193W        W20793  31.977  30.255   4.213
50194W        W20794  32.895   0.422  12.880
50195W        W20795  10.620   0.668  13.392
50196W        W20796  20.663  43.248  14.110
50197W        W20797  24.612   5.434   3.725
50198W        W20798  33.404  12.619  13.004
50199W        W20799  33.855   9.793  13.736
50200W        W20800   2.825  25.774  12.292
50201W        W20801  25.964  13.429  14.039
50202W        W20802  43.720   9.305  12.917
50203W        W20803  27.681  43.576  13.014
50204W        W20804  22.223  44.929  12.053
50205W        W20805   6.944   9.419   3.177
50206W        W20806  21.669  27.475   4.682
50207W        W20807  38.196  41.416   4.960
50208W        W20808   8.716  16.202   3.480
50209W        W20809   9.872  39.318  13.030
50210W        W20810  44.805  44.094  14.053
50211W        W20811  32.962  24.208   3.883
50212W        W20812  34.997  16.618   4.493
50213W        W20813  13.803  44.387  13.457
50214W        W20814  12.556  33.639  11.987
50215W        W20815   3.509  35.111   4.696
50216W        W20816  35.339  20.248   1.902
50217W        W20817  25.047  16.036  14.213
50218W        W20818  21.166  20.997  13.912
50219W        W20819   6.250  26.112  14.508
50220W        W20820   8.447  23.213  12.326
50221W        W20821  11.273  19.720   0.772
50222W        W20822   7.488  27.775   2.245
50223W        W20823  11.609   8.930  13.997
50224W        W20824   1.040  14.855  10.876
50225W        W20825  26.557  19.971  12.875
50226W        W20826  39.320  38.107   1.326
50227W        W20827   2.853  43.984   1.360
50228W        W20828   0.397  44.413  12.536
50229W        W20829  16.700  18.974  14.583
50230W        W20830  42.608  26.085   0.971
50231W        W20831  36.343   9.487   0.274
50232W        W20832   7.193   6.909   4.615
50233W        W20833  23.839  41.933   1.854
50234W        W20834  28.525  24.937  13.007
50235W        W20835   4.858   5.409  13.449
50236W        W20836  35.225  33.413   3.137
50237W        W20837  31.213  13.056  11.622
50238W        W20838  26.568  20.006   1.278
50239W        W20839  20.948  11.671  10.808
50240W        W20840  27.688  35.854  14.904
50241W        W20841  38.850  39.543   9.883
50242W        W20842  41.113  31.019   2.761
50243W        W20843  41.904   7.464   4.319
50244W        W20844  43.246   6.502   2.117
50245W        W20845   1.394   9.829  14.078
50246W        W20846  26.066  43.809   1.355
50247W        W20847  16.678  17.701   0.838
50248W        W20848  11.617  26.346  11.140
50249W        W20849   7.663  10.881   1.761
50250W        W20850  31.066   7.827   2.684
50251W        W20851  33.555  22.124   0.812
50252W        W20852  22.969  38.314   3.142
50253W        W20853  41.872  20.832   1.168
50254W        W20854  43.748  10.306   1.487
50255W        W20855  22.822  10.435  10.796
50256W        W20856   8.668  35.152  12.994
50257W        W20857  35.198  38.134  12.046
50258W        W20858  41.120   4.430  12.273
50259W        W20859   9.117  12.322  14.865
50260W        W20860  28.948  21.636   3.698
50261W        W20861  30.116  20.073   3.620
50262W        W20862  29.486  13.672   3.902
50263W        W20863  10.818  14.359  10.645
50264W        W20864   0.790  34.974  12.881
50265W        W20865  24.965   3.209   2.134
50266W        W20866   9.964  31.715   4.273
50267W        W20867  21.725  37.630   4.058
50268W        W20868  15.735  19.619   4.400
50269W        W20869  33.262   3.374   1.415
50270W        W20870  15.838  14.791   3.624
50271W        W20871  25.172  32.494   2.527
50272W        W20872  41.131  25.443   4.204
50273W        W20873  10.598  37.069   3.973
50274W        W20874   8.265   3.941   3.648
50275W        W20875  27.150   0.495   3.226
50276W        W20876   0.819  27.379   0.941
50277W        W20877  28.938  12.164  12.009
50278W        W20878   4.174  12.962  12.612
50279W        W20879  29.107  20.345   3.242
50280W        W20880  32.093  31.382  10.560
50281W        W20881  30.226  22.950  11.141
50282W        W20882  42.970   8.152   4.527
50283W        W20883  25.180  42.108   1.146
50284W        W20884  39.944   8.801   1.042
50285W        W20885   6.785  37.895  13.869
50286W        W20886  20.529  24.531  12.994
50287W        W20887   4.146  14.909  13.001
50288W        W20888   0.759   8.709  13.842
50289W        W20889   4.263  18.551  13.502
50290W        W20890  12.572   6.431  13.433
50291W        W20891  10.764  40.830  11.577
50292W        W20892  41.930   3.001   0.423
50293W        W20893  20.468  43.907  12.737
50294W        W20894  35.320  28.140  12.489
50295W        W20895  44.617  19.972  10.957
50296W        W20896  24.128  18.289  11.510
50297W        W20897   8.753   3.306   1.895
50298W        W20898  13.088  22.287  12.496
50299W        W20899  18.882  27.419  12.446
50300W        W20900  40.099  34.120   1.552
50301W        W20901  13.153  35.824   3.706
50302W        W20902  25.105  18.696   4.161
50303W        W20903  33.638  11.410   1.106
50304W        W20904  10.673  31.969  11.460
50305W        W20905  21.567  31.157  14.262
50306W        W20906  12.696  17.533   2.416
50307W        W20907  18.777   0.242   3.600
50308W        W20908   6.937   9.719  12.026
50309W        W20909  17.683  11.215  11.230
50310W        W20910  26.064  20.091   1.463
50311W        W20911  14.636  31.967   3.096
50312W        W20912   3.263  37.830   4.654
50313W        W20913  30.689  23.928  14.265
50314W        W20914  36.625  37.356  11.213
50315W        W20915  18.772  32.015   0.308
50316W        W20916  40.728   3.218  11.177
50317W        W20917  37.850  35.430  11.250
50318W        W20918  33.559  20.784  13.365
50319W        W20919  21.621  15.304   4.803
50320W        W20920  10.890  32.412  12.416
50321W        W20921  10.809  19.248  11.433
50322W        W20922  17.569   5.140   1.442
50323W        W20923  17.737  34.583  14.512
50324W        W20924  23.941  21.970  12.747
50325W        W20925  25.552   0.781  12.089
50326W        W20926  39.186   1.983   0.257
50327W        W20927  17.458  42.426  10.579
50328W        W20928   2.455  32.534  13.531
50329W        W20929   0.800  16.046  12.636
50330W        W20930  32.398   5.300   2.479
50331W        W20931  43.078   1.284  12.070
50332W        W20932  44.048  33.134  14.971
50333W        W20933  17.110  38.295  11.214
50334W        W20934   5.679  11.724   3.549
50335W        W20935  35.639   8.178   2.250
50336W        W20936  13.072  25.656   0.991
50337W        W20937  27.490  44.698  14.590
50338W        W20938  27.585   3.650   0.508
50339W        W20939  30.481   6.032  13.946
50340W        W20940  28.063  39.538  11.019
50341W        W20941  27.714  36.452   1.365
50342W        W20942  43.213   1.652   3.597
50343W        W20943   5.376  41.753  13.930
50344W        W20944   7.149   9.774   0.239
50345W        W20945  21.483  27.068   3.155
50346W        W20946  32.444  33.126   1.376
50347W        W20947  30.968  30.110  10.665
50348W        W20948  22.393  44.907   2.101
50349W        W20949  16.727  12.737   3.202
50350W        W20950  26.928  25.037  13.925
50351W        W20951  27.878  31.696   0.332
50352W        W20952  42.738  28.910   2.890
50353W        W20953  20.544  22.793  13.737
50354W        W20954  35.185   6.615  11.187
50355W        W20955   5.654   8.367  10.388
50356W        W20956  12.675  15.627   1.953
50357W        W20957  34.839   2.615   1.136
50358W        W20958  10.055  40.953   3.409
50359W        W20959   7.946  15.082  14.973
50360W        W20960  11.634  39.823   4.485
50361W        W20961  12.905   8.156  13.032
50362W        W20962  17.487  31.584   5.242
50363W        W20963   1.741   4.038  12.872
50364W        W20964  16.846  36.568   3.668
50365W        W20965  20.699  26.616  12.879
50366W        W20966  34.590   3.040  13.401
50367W        W20967  14.675  24.736  10.644
50368W        W20968  11.751  26.643   5.198
50369W        W20969  20.532  26.804   1.297
50370W        W20970  33.404  15.137  14.328
50371W        W20971  15.147  10.494  13.808
50372W        W20972  12.253   0.805  11.204
50373W        W20973   3.288  14.403  13.259
50374W        W20974   2.002  22.050   0.467
50375W        W20975  26.759  12.188   3.367
50376W        W20976  18.515  19.756   2.263
50377W        W20977  38.265  41.970   3.722
50378W        W20978  32.172  33.361  11.042
50379W        W20979   7.759  12.756   2.658
50380W        W20980  24.192   4.112   1.236
50381W        W20981  32.519  40.646   1.251
50382W        W20982   0.049   9.869   3.322
50383W        W20983  27.051  19.694  10.426
50384W        W20984  37.368  23.348   1.562
50385W        W20985   5.978   3.933   3.652
50386W        W20986   6.495  12.297  12.300
50387W        W20987   4.039  11.759   1.270
50388W        W20988   6.292  23.765   4.314
50389W        W20989  21.163  27.194   4.712
50390W        W20990   0.892   7.851   4.484
50391W        W20991  16.594   8.631   4.782
50392W        W20992  19.850  42.779   4.692
50393W        W20993  15.678  27.165  11.581
50394W        W20994  30.369   1.743   4.200
50395W        W20995  19.468   5.908  11.938
50396W        W20996  12.033   3.888   2.935
50397W        W20997   2.288  28.737  14.894
50398W        W20998  35.792  13.753  11.181
50399W        W20999  23.665  13.768   3.911
50400W        W21000  39.982   4.152   1.436
50401W        W21001  39.320  24.490  13.345
50402W        W21002  28.445  20.749  13.997
50403W        W21003  19.631  22.458   1.490
50404W        W21004   0.265  34.841  12.908
50405W        W21005  33.595  16.362   4.544
50406W        W21006  16.662  20.247   2.142
50407W        W21007  31.420  12.149  14.805
50408W        W21008  11.244  10.891  14.388
50409W        W21009  32.016   3.383   0.722
50410W        W21010   8.650  30.031  14.882
50411W        W21011  17.552  31.903   3.136
50412W        W21012   7.664  42.481   4.724
50413W        W21013  43.689   2.397  10.386
50414W        W21014  10.329  20.011   9.939
50415W        W21015   2.038   5.450  13.104
50416W        W21016  23.155   8.475  14.174
50417W        W21017  20.250  39.039   4.326
50418W        W21018  17.607   2.813   2.739
50419W        W21019  30.891  39.497   1.848
50420W        W21020  10.792  16.317   0.898
50421W        W21021  18.151  29.364   3.345
50422W        W21022  29.644  34.090  10.672
50423W        W21023  19.285  12.953   0.851
50424W        W21024   3.228  38.056  14.447
50425W        W21025  11.241   2.471   1.417
50426W        W21026   4.685   8.771   3.548
50427W        W21027  29.525  31.915  14.342
50428W        W21028  18.485  35.538   0.273
50429W        W21029  43.418   2.811  13.286
50430W        W21030  21.705  19.243   4.894
50431W        W21031  39.571  11.381  12.562
50432W        W21032  30.398  35.178  13.367
50433W        W21033  39.398  37.542  13.016
50434W        W21034  38.972  15.132   0.748
50435W        W21035  42.197  11.609  14.404
50436W        W21036  27.966  30.657  14.951
50437W        W21037  16.177  37.943  11.605
50438W        W21038  27.705  36.589  10.735
50439W        W21039  35.408  13.740   0.226
50440W        W21040  29.459  38.508   4.096
50441W        W21041  41.805  30.592   1.447
50442W        W21042   0.355  28.591   2.631
50443W        W21043  29.253  26.407   2.368
50444W        W21044  22.585  42.310  14.055
50445W        W21045  11.462  13.712   4.507
50446W        W21046  17.614  41.032   3.043
50447W        W21047  12.619  10.192  12.596
50448W        W21048  14.013  19.170  12.777
50449W        W21049  36.022   2.865  11.161
50450W        W21050   3.963  19.631  13.879
50451W        W21051  23.076  33.943   0.229
50452W        W21052  37.641  12.578  14.361
50453W        W21053   7.792  27.967   0.306
50454W        W21054  42.413  35.446  10.866
50455W        W21055  26.766  16.036  12.989
50456W        W21056  21.661  23.751  10.603
50457W        W21057  25.129  40.108  12.554
50458W        W21058  42.338  20.461  12.374
50459W        W21059   0.787   7.769   3.151
50460W        W21060   4.934  23.755  13.098
50461W        W21061   0.173  28.188   2.880
50462W        W21062  13.155   2.848  11.961
50463W        W21063  26.140  13.168   4.618
50464W        W21064  38.424  34.447   4.458
50465W        W21065  32.473  33.128  12.483
50466W        W21066  37.763   3.222  11.391
50467W        W21067  31.992  28.729   2.236
50468W        W21068  32.060  43.367  12.342
50469W        W21069  40.264  15.696   2.610
50470W        W21070   6.969   3.991   0.913
50471W        W21071  14.464   1.778   5.092
50472W        W21072  37.811  34.410  12.485
50473W        W21073  25.517   1.305  12.668
50474W        W21074   4.640   7.620   0.638
50475W        W21075   3.486  39.500  14.865
50476W        W21076  17.668  22.191  12.109
50477W        W21077  19.386   3.719   2.172
50478W        W21078  31.146  38.923   2.641
50479W        W21079  10.660  42.698  12.386
50480W        W21080   0.262  31.770  14.534
50481W        W21081   1.194  40.600  12.109
50482W        W21082  40.957  38.977   1.113
50483W        W21083   1.480   7.956   0.053
50484W        W21084  38.583  35.600   2.171
50485W        W21085  28.515  13.374  13.304
50486W        W21086  21.111   5.834   0.936
50487W        W21087  30.629   4.460   2.667
50488W        W21088  22.572  11.935   3.465
50489W        W21089  41.554  40.255  13.358
50490W        W21090  39.921  33.945  13.575
50491W        W21091  26.152  39.398   4.721
50492W        W21092   9.172  22.734  11.761
50493W        W21093  20.814  39.556   3.255
50494W        W21094  27.221   5.507  11.674
50495W        W21095  30.425   2.178  11.109
50496W        W21096   5.318  10.867  12.364
50497W        W21097   4.412  14.277  14.274
50498W        W21098   1.021  20.102   4.312
50499W        W21099  16.586  26.210   1.222
50500W        W21100  23.153  42.332   4.544
50501W        W21101  23.274  11.264   2.227
50502W        W21102  43.264  21.292  12.452
50503W        W21103  15.214   0.784   0.406
50504W        W21104  25.461  25.181  13.802
50505W        W21105  30.180  35.909   1.055
50506W        W21106   4.227  42.480   1.363
50507W        W21107   8.920  43.977  14.754
50508W        W21108  31.413  20.942  11.571
50509W        W21109  11.318   9.162   2.783
50510W        W21110  33.047  20.264  11.203
50511W        W21111  17.150  26.933   1.280
50512W        W21112   5.080  14.763  12.892
50513W        W21113   8.155  29.072   5.007
50514W        W21114  14.577  12.698  10.465
50515W        W21115  18.674  40.482  13.548
50516W        W21116  34.049  41.931   4.932
50517W        W21117  32.876  23.972   3.104
50518W        W21118  39.776  16.447   3.164
50519W        W21119  37.040  43.764   2.338
50520W        W21120  26.840  42.665   2.565
50521W        W21121  32.519  16.953  10.660
50522W        W21122  36.021  11.177  14.720
50523W        W21123  22.190  26.908   4.670
50524W        W21124  35.325  31.342   1.363
50525W        W21125  18.287  18.386   1.328
50526W        W21126  40.038  39.863   1.335
50527W        W21127  34.870   4.823   4.336
50528W        W21128  36.139  29.830  11.934
50529W        W21129  17.036  20.361  14.329
50530W        W21130   7.554   0.437   2.718
50531W        W21131   1.322  17.746   4.678
50532W        W21132   4.767   6.747  12.465
50533W        W21133  27.999  25.488   2.076
50534W        W21134  28.461   9.969   1.680
50535W        W21135  37.172  38.961   2.612
50536W        W21136  35.424  33.523  11.934
50537W        W21137  17.316  19.981  12.474
50538W        W21138  30.645  22.911  14.403
50539W        W21139  39.029   7.871  14.359
50540W        W21140  15.805   7.195  11.172
50541W        W21141  22.723  14.856   0.682
50542W        W21142  10.843  33.710   4.577
50543W        W21143  13.665  29.879   4.082
50544W        W21144   5.860   8.591   0.247
50545W        W21145  12.586  42.964  11.666
50546W        W21146  22.657  39.473  11.501
50547W        W21147  21.835  26.116  12.128
50548W        W21148  39.981  10.574  14.423
50549W        W21149  14.154  38.369   4.658
50550W        W21150  40.195   3.327   4.078
50551W        W21151  20.915  24.536   0.893
50552W        W21152  27.063  31.891   1.540
50553W        W21153  22.711  29.661  14.819
50554W        W21154  35.744  15.207  14.089
50555W        W21155  20.784   2.812  14.917
50556W        W21156  19.304  41.274  10.742
50557W        W21157  15.107   4.304  13.187
50558W        W21158  27.973  10.785   0.127
50559W        W21159  13.046  20.253  13.100
50560W        W21160  13.583  18.207   3.722
50561W        W21161  19.712   4.204   3.125
50562W        W21162  34.461  22.578   1.771
50563W        W21163   2.808  35.349  11.907
50564W        W21164  22.111  32.509   3.285
50565W        W21165  18.144   4.710   4.593
50566W        W21166  10.109  27.494  11.854
50567W        W21167  43.365  15.562  10.671
50568W        W21168  27.948  25.131  14.835
50569W        W21169  13.004  11.719   9.963
50570W        W21170   9.886  41.599   1.940
50571W        W21171  18.730  28.221   5.608
50572W        W21172  44.017  31.446  12.566
50573W        W21173  27.671  44.849   4.544
50574W        W21174  29.032  11.881   4.172
50575W        W21175  20.517  25.414  13.417
50576W        W21176  27.572  18.789   3.650
50577W        W21177  40.442  18.570   3.419
50578W        W21178  20.279   0.608  11.481
50579W        W21179   5.813  33.927  12.011
50580W        W21180  43.602  34.196   0.955
50581W        W21181  40.400  40.299  11.974
50582W        W21182  38.405  32.138  14.312
50583W        W21183   3.755  29.928   4.003
50584W        W21184  17.182  40.850  11.271
50585W        W21185  16.448  33.863  14.384
50586W        W21186  35.853  31.554  11.543
50587W        W21187  18.603  24.401   4.131
50588W        W21188  31.041  36.967  14.754
50589W        W21189  31.388   8.292  10.748
50590W        W21190  29.451  26.629   1.830
50591W        W21191  42.868  40.306   1.248
50592W        W21192  18.308  40.498   4.222
50593W        W21193  36.603  36.608   3.691
50594W        W21194   8.663   0.701   2.412
50595W        W21195  14.561  31.444  14.119
50596W        W21196  41.071   2.224  13.949
50597W        W21197  43.349  22.500  12.771
50598W        W21198   5.461  14.127  13.737
50599W        W21199   7.385  29.207   1.359
50600W        W21200   9.136   0.437  11.702
50601W        W21201  24.052  18.142   4.690
50602W        W21202   8.823  41.872   4.121
50603W        W21203  10.651  26.963  14.282
50604W        W21204  11.058  31.395   1.463
50605W        W21205   6.220  23.582  12.669
50606W        W21206  32.128   9.765   3.702
50607W        W21207  39.600  17.609  12.068
50608W        W21208  16.571   7.704  12.056
50609W        W21209   5.381  26.148  11.626
50610W        W21210  14.875  28.025  14.448
50611W        W21211  42.110  24.651  11.964
50612W        W21212  38.265  22.514   1.692
50613W        W21213  30.543  16.814  13.485
50614W        W21214   2.997   3.745   0.435
50615W        W21215  26.405  33.641   0.415
50616W        W21216  14.404  34.922  14.358
50617W        W21217  32.968  20.875  12.922
50618W        W21218  18.738  26.706   1.614
50619W        W21219   2.678   3.297  12.464
50620W        W21220  26.044   8.856  10.483
50621W        W21221  13.827  26.663   0.298
50622W        W21222  11.478  10.643   0.745
50623W        W21223  36.347   1.411   1.649
50624W        W21224   9.189   8.200  12.708
50625W        W21225  20.958  34.051  11.524
50626W        W21226  21.003   0.251   2.253
50627W        W21227  34.344  32.625   3.840
50628W        W21228  29.416  35.048  10.575
50629W        W21229  21.969   0.478   0.819
50630W        W21230   0.957  11.907   0.801
50631W        W21231  29.578  35.055  11.696
50632W        W21232   6.744  11.666  10.965
50633W        W21233  33.048   9.365   1.319
50634W        W21234   3.886  11.566  11.114
50635W        W21235  11.958  36.820  12.576
50636W        W21236  23.850  24.817  12.555
50637W        W21237  36.457  29.423   1.491
50638W        W21238  21.019  39.068  12.062
50639W        W21239  25.046  29.860  12.777
50640W        W21240   4.695  30.149   3.655
50641W        W21241   1.680  19.143  12.541
50642W        W21242   5.737  31.705   4.521
50643W        W21243   6.334  31.921   1.300
50644W        W21244  40.952  10.319   4.212
50645W        W21245  15.399   9.160  12.806
50646W        W21246  23.625  42.867   0.495
50647W        W21247   6.170  39.212  13.048
50648W        W21248  23.478  21.166  14.097
50649W        W21249   1.858  43.528   4.674
50650W        W21250   9.485   0.360  13.485
50651W        W21251  29.381  31.367  14.395
50652W        W21252  42.202  23.136   1.848
50653W        W21253   5.900  19.977   4.175
50654W        W21254  25.923  20.920   3.088
50655W        W21255  40.306  38.080   1.789
50656W        W21256  38.014  36.803  11.307
50657W        W21257   7.273  27.514  13.813
50658W        W21258   5.305  25.503   0.340
50659W        W21259  35.394   9.450   0.211
50660W        W21260  24.619  40.016  12.423
50661W        W21261  39.520  28.297   4.214
50662W        W21262  34.336   1.434   4.274
50663W        W21263  26.109  41.550   4.451
50664W        W21264  40.321  17.046  12.340
50665W        W21265   8.163  32.643  11.173
50666W        W21266  40.848  10.062  13.656
50667W        W21267  21.191  20.969  10.728
50668W        W21268  14.392  18.269  12.093
50669W        W21269   1.482  27.524  11.074
50670W        W21270  35.549  42.755   1.568
50671W        W21271  42.087   0.305   3.818
50672W        W21272  20.405   3.142  14.737
50673W        W21273  20.200   2.503  12.402
50674W        W21274  44.989   8.287   2.376
50675W        W21275   5.947  38.061  10.678
50676W        W21276   4.233   5.323  11.692
50677W        W21277   7.864  20.780  11.902
50678W        W21278  25.031  26.988   4.336
50679W        W21279  29.510  40.730  13.967
50680W        W21280   7.201  13.841  10.634
50681W        W21281  24.567  28.913  14.302
50682W        W21282  12.578  36.757   1.466
50683W        W21283   0.312  41.914  10.635
50684W        W21284   9.089   3.554   2.266
50685W        W21285  28.704   5.187  10.893
50686W        W21286  39.100  24.303   4.092
50687W        W21287   8.424  41.446   3.322
50688W        W21288   6.741  25.221  14.003
50689W        W21289   1.425  12.777   1.272
50690W        W21290  13.185   4.687  13.027
50691W        W21291   0.894   7.749  13.809
50692W        W21292   1.015  20.549   2.713
50693W        W21293  29.144  36.010  13.298
50694W        W21294   6.934  11.888  11.398
50695W        W21295  31.279  24.800   3.241
50696W        W21296  23.310  28.603   3.767
50697W        W21297  39.989  11.099   1.224
50698W        W21298  43.024  16.033  10.705
50699W        W21299  35.577  32.700  13.068
50700W        W21300  32.890  43.973   2.795
50701W        W21301  37.705   9.409   4.620
50702W        W21302  29.021   1.777   2.946
50703W        W21303  32.706   6.340   4.662
50704W        W21304  39.425   8.184   9.904
50705W        W21305  28.596  30.249  13.456
50706W        W21306  18.043  24.058   3.338
50707W        W21307  44.757   0.851   2.382
50708W        W21308  14.523  32.138  12.932
50709W        W21309  34.737  23.386   1.384
50710W        W21310  44.009  21.111   3.162
50711W        W21311   8.423  39.741  11.627
50712W        W21312   5.451  25.003  14.500
50713W        W21313  42.231  23.690  14.408
50714W        W21314  26.202  27.222  14.310
50715W        W21315  11.252  33.515  12.015
50716W        W21316   8.428  42.023  13.779
50717W        W21317  18.259  34.827   1.008
50718W        W21318   6.752  42.495   1.698
50719W        W21319  11.915   2.406   2.743
50720W        W21320  37.306   3.975   1.365
50721W        W21321  40.534  19.330  11.208
50722W        W21322   2.405  39.587  13.183
50723W        W21323  33.936  17.791  12.887
50724W        W21324  35.525  43.442  12.975
50725W        W21325  25.590  15.055   0.257
50726W        W21326  14.746  25.098   5.234
50727W        W21327  23.162  20.387  11.664
50728W        W21328  29.142   3.129   2.701
50729W        W21329   0.297  26.461   4.636
50730W        W21330  14.721  42.417   3.788
50731W        W21331   3.388  33.507  10.629
50732W        W21332  24.595  25.694  12.110
50733W        W21333   1.944  12.933  11.212
50734W        W21334   2.193  14.311   3.218
50735W        W21335  41.969  30.703   4.891
50736W        W21336   7.735  35.474  12.792
50737W        W21337  30.505  11.931  11.964
50738W        W21338  35.799   3.344  14.848
50739W        W21339  35.408  14.331  14.519
50740W        W21340   2.906  25.411   1.346
50741W        W21341  22.835  17.519   4.908
50742W        W21342  25.499   0.884  14.454
50743W        W21343  20.778  18.058   1.684
50744W        W21344  44.044  21.990  14.745
50745W        W21345  39.377  43.531   4.110
50746W        W21346  38.960  25.585  11.143
50747W        W21347  14.574  33.431  10.794
50748W        W21348  43.884   1.964  12.493
50749W        W21349  33.844  16.790  10.354
50750W        W21350  16.119  31.343   4.001
50751W        W21351  41.946   6.618  13.727
50752W        W21352   3.529  20.531   3.820
50753W        W21353  18.212  44.194   1.310
50754W        W21354  36.113  32.903  11.664
50755W        W21355   0.546   2.593   1.727
50756W        W21356  40.880  38.966  11.191
50757W        W21357   9.649  36.847  10.692
50758W        W21358  15.628  38.927   4.635
50759W        W21359  36.094  42.404  12.605
50760W        W21360  39.845  30.526   0.643
50761W        W21361  28.146   4.420  10.522
50762W        W21362  42.134  35.165   0.797
50763W        W21363  31.156  17.224  10.589
50764W        W21364  28.816  12.196   4.551
50765W        W21365   0.485  10.962   3.790
50766W        W21366  36.085  22.613  13.877
50767W        W21367  26.992  25.438  12.177
50768W        W21368  34.808  38.774  11.543
50769W        W21369   7.432  38.535  11.353
50770W        W21370  18.031  23.746  14.358
50771W        W21371  39.178  16.556  13.559
50772W        W21372  36.362  13.864  14.929
50773W        W21373  23.245  29.447   2.744
50774W        W21374   3.689   0.284  11.973
50775W        W21375  39.398  25.005  13.517
50776W        W21376  39.039  40.160   1.449
50777W        W21377   2.431   1.343   0.467
50778W        W21378   7.790  16.849   2.732
50779W        W21379  40.480  25.497  14.076
50780W        W21380   4.838  21.182   3.438
50781W        W21381  23.651  17.181   1.965
50782W        W21382  36.842  43.803  14.585
50783W        W21383   9.448  27.368   2.153
50784W        W21384  17.302  42.548   4.350
50785W        W21385   6.482  40.923  13.085
50786W        W21386  40.398  40.835  11.061
50787W        W21387  18.289  24.196  14.315
50788W        W21388  39.315  11.192  11.670
50789W        W21389  37.852  22.446  14.901
50790W        W21390  31.194   2.235   2.889
50791W        W21391   5.837   5.339  14.880
50792W        W21392  32.784  31.597  13.460
50793W        W21393  22.732  32.953   1.930
50794W        W21394   0.779  18.152   3.587
50795W        W21395  15.357  20.073   2.900
50796W        W21396  32.513   6.933  13.387
50797W        W21397  21.758  21.250  11.550
50798W        W21398  42.619  31.597   0.354
50799W        W21399  31.149  31.733   3.121
50800W        W21400  44.210   5.954   3.227
50801W        W21401  13.066  35.041   1.275
50802W        W21402  30.635  41.250   2.129
50803W        W21403  15.686   6.756   1.318
50804W        W21404   4.125  36.552  12.033
50805W        W21405  16.647  30.128   4.266
50806W        W21406   6.400  20.934  13.362
50807W        W21407  10.734  12.867  13.628
50808W        W21408   4.656  16.227  12.336
50809W        W21409  30.538  42.468  12.234
50810W        W21410   9.359  13.082  12.537
50811W        W21411   2.355  21.109  13.935
50812W        W21412   6.415  25.531  11.554
50813W        W21413   9.823  17.579  14.549
50814W        W21414  39.105  34.391  11.150
50815W        W21415  16.543  35.114   0.007
50816W        W21416   0.608  13.670  13.442
50817W        W21417  21.137  34.066   4.394
50818W        W21418   2.497  20.153   2.916
50819W        W21419  39.876  34.491  11.588
50820W        W21420   3.294  25.627   3.174
50821W        W21421  25.630  42.865  12.415
50822W        W21422   1.354  20.297   2.270
50823W        W21423  40.933  18.508   3.643
50824W        W21424  25.961   6.884  14.420
50825W        W21425   0.177  37.510   0.974
50826W        W21426  24.621  24.582   4.636
50827W        W21427  35.586   5.679   0.748
50828W        W21428   2.681   0.803  11.503
50829W        W21429  41.294   1.749  12.070
50830W        W21430  14.337  22.283  12.122
50831W        W21431   9.081  42.766  13.810
50832W        W21432  30.676  37.818  14.030
50833W        W21433   0.206   2.052  12.425
50834W        W21434  39.114   1.080   0.495
50835W        W21435  19.608  32.194  13.804
50836W        W21436   8.169  19.185  11.549
50837W        W21437  22.369  16.756   0.864
50838W        W21438   6.739  29.649   1.625
50839W        W21439  19.589  32.600   3.739
50840W        W21440  20.094  23.680  10.494
50841W        W21441  11.891  18.642  11.266
50842W        W21442  21.612   3.774  14.859
50843W        W21443  33.901  40.314   2.796
50844W        W21444  20.505  24.280   3.323
50845W        W21445  10.736   6.264  13.779
50846W        W21446  13.149   0.543   0.040
50847W        W21447   0.988  23.370   0.590
50848W        W21448  26.162  22.264   3.239
50849W        W21449   5.331   5.821  12.546
50850W        W21450  32.335  26.448   3.929
50851W        W21451  40.853  39.336  11.616
50852W        W21452  33.920   2.930   3.766
50853W        W21453   6.735   6.110   0.453
50854W        W21454  42.034  33.441  13.568
50855W        W21455   9.692  39.141   0.510
50856W        W21456  16.765  11.561  12.488
50857W        W21457  32.322   8.780  13.809
50858W        W21458  10.773  25.952   4.356
50859W        W21459   0.393   0.795  13.843
50860W        W21460   0.762  34.907   1.323
50861W        W21461  20.932  26.126  12.951
50862W        W21462  37.527  40.854  10.753
50863W        W21463  12.104   0.856   1.320
50864W        W21464   5.752  27.902  14.160
50865W        W21465   3.865  36.921  10.703
50866W        W21466  22.717  29.531  12.872
50867W        W21467  21.831   9.148  14.856
50868W        W21468  18.705   8.288   0.660
50869W        W21469  13.662  38.477   4.596
50870W        W21470   9.142  15.028  12.341
50871W        W21471  28.341  31.621  11.625
50872W        W21472  38.407  24.438   2.885
50873W        W21473  33.060  36.406  10.509
50874W        W21474  27.750   6.693  11.083
50875W        W21475   8.620  15.019   1.250
50876W        W21476  34.612  32.355  14.949
50877W        W21477   8.215  32.885  12.446
50878W        W21478  37.667   7.305   2.326
50879W        W21479  28.159  23.300  12.406
50880W        W21480   0.436  32.041  14.958
50881W        W21481  18.194  37.579  11.022
50882W        W21482  39.121  34.938   4.185
50883W        W21483  12.363   9.087  14.649
50884W        W21484  21.088   0.354   1.364
50885W        W21485  41.234   1.072   4.071
50886W        W21486  32.024  19.067  13.576
50887W        W21487  43.086   3.368  10.771
50888W        W21488  42.347  40.857  10.976
50889W        W21489  23.568  11.926  12.970
50890W        W21490  14.819  35.805  13.437
50891W        W21491   9.869  12.087  12.145
50892W        W21492   4.943  33.188  13.876
50893W        W21493  19.828  27.274   9.790
50894W        W21494   2.595  11.199  12.388
50895W        W21495  44.212  32.127  10.674
50896W        W21496  34.844  14.256   2.569
50897W        W21497   3.007   6.738   2.340
50898W        W21498  15.728  11.559   1.914
50899W        W21499  19.785  29.853   4.160
50900W        W21500  36.763  41.761  11.692
50901W        W21501  21.236   1.916  13.006
50902W        W21502  36.409  29.319   4.610
50903W        W21503   7.214  34.624   2.683
50904W        W21504  36.407  32.639  10.731
50905W        W21505  34.828  35.115  13.321
50906W        W21506  34.419  21.681  12.098
50907W        W21507  24.158  41.724  13.477
50908W        W21508  27.753  41.978   5.621
50909W        W21509  27.639   5.803   3.262
50910W        W21510  41.641  14.592   4.437
50911W        W21511  36.568  13.953  11.651
50912W        W21512  19.625   2.828   2.555
50913W        W21513   0.638   8.157   0.314
50914W        W21514   6.852  43.224  13.411
50915W        W21515   4.361  27.259  14.030
50916W        W21516  20.927  34.190  12.624
50917W        W21517  17.382  11.755  15.000
50918W        W21518  15.127  34.494   2.755
50919W        W21519  40.429  34.050   3.836
50920W        W21520   3.818  36.245   1.138
50921W        W21521   2.158  38.609  13.412
50922W        W21522  15.083  12.599   1.740
50923W        W21523  13.064  42.335   2.797
50924W        W21524   2.307   7.658   2.480
50925W        W21525  16.312  32.204   3.693
50926W        W21526  17.106  29.276  11.189
50927W        W21527  34.018  14.809   3.210
50928W        W21528   2.498  10.888   2.146
50929W        W21529   1.411  13.600  14.537
50930W        W21530  34.188  30.470  10.433
50931W        W21531  14.379  19.119  10.987
50932W        W21532   6.393  24.045   3.604
50933W        W21533  22.754  35.893  10.745
50934W        W21534   3.841  16.876   0.549
50935W        W21535  30.825  36.186  13.365
50936W        W21536  22.450  21.695   2.858
50937W        W21537  16.123  29.980  14.033
50938W        W21538  24.662  39.974  10.443
50939W        W21539  41.385  11.923  10.485
50940W        W21540  20.260  23.919  10.933
50941W        W21541  17.365  32.002  14.424
50942W        W21542   6.527  18.074  13.289
50943W        W21543  33.327  15.134  12.031
50944W        W21544  13.887   7.800   4.462
50945W        W21545  44.845  35.568   2.690
50946W        W21546  10.235  35.375   4.071
50947W        W21547   0.942  36.426   1.443
50948W        W21548   8.884  35.602   3.705
50949W        W21549  32.630  13.921  11.064
50950W        W21550  15.046  42.960   1.366
50951W        W21551   2.107   4.392   1.373
50952W        W21552  40.931  26.768  12.443
50953W        W21553  14.611  43.681  12.131
50954W        W21554  19.113  25.044  10.784
50955W        W21555  24.592  44.984  14.354
50956W        W21556  16.037   0.107   0.961
50957W        W21557  24.157  13.630  13.086
50958W        W21558   5.980  17.206  11.123
50959W        W21559   5.365  10.271  12.993
50960W        W21560  39.038  11.717   4.263
50961W        W21561  26.245   6.977  12.101
50962W        W21562  13.035   2.057  13.908
50963W        W21563  15.798  10.856   0.358
50964W        W21564  27.483   9.380  14.903
50965W        W21565   5.736  27.938   3.466
50966W        W21566   6.390  32.868   2.217
50967W        W21567  15.153  10.209  14.449
50968W        W21568  44.585  44.350   2.219
50969W        W21569  17.133  26.929  13.892
50970W        W21570   4.559   7.412   3.631
50971W        W21571  41.323  27.477  13.530
50972W        W21572  23.579  35.286  11.554
50973W        W21573  29.381  11.621  12.523
50974W        W21574   8.887   6.899   2.327
50975W        W21575   5.684  16.783   1.781
50976W        W21576  17.409   5.176   2.830
50977W        W21577  34.392  36.649   2.163
50978W        W21578  17.956  23.668   4.091
50979W        W21579  40.250  10.636   0.341
50980W        W21580   0.711   0.852   4.727
50981W        W21581  29.072  36.280   1.877
50982W        W21582  26.287  29.485   4.413
50983W        W21583  37.576  38.061  11.031
50984W        W21584  36.302  19.055   1.726
50985W        W21585  21.126  40.397  12.599
50986W        W21586  29.146  31.706  13.006
50987W        W21587   0.382  38.151  13.469
50988W        W21588  35.654  37.391  11.191
50989W        W21589  42.332  21.499   0.005
50990W        W21590  43.975  39.513   3.449
50991W        W21591  28.902  36.823   2.922
50992W        W21592   8.860  42.628  14.796
50993W        W21593  25.380   1.485   1.691
50994W        W21594  16.710   9.046  12.499
50995W        W21595  22.944   1.997   4.832
50996W        W21596  26.579  34.268   4.337
50997W        W21597   1.778  20.180  14.542
50998W        W21598   8.734  24.414   2.835
50999W        W21599   9.713  39.822  14.214
51000W        W21600  37.480  14.533  14.408
51001W        W21601  28.304  24.743   2.158
51002W        W21602  43.521  36.394  11.640
51003W        W21603  15.059  43.818  12.840
51004W        W21604   9.303  37.014   0.243
51005W        W21605  16.650  44.784  10.749
51006W        W21606  21.258  27.757  14.745
51007W        W21607  32.364  14.417  12.532
51008W        W21608  35.585  38.057   3.581
51009W        W21609  25.455  23.016  12.969
51010W        W21610  19.511  35.668   4.139
51011W        W21611  37.151  26.115   3.471
51012W        W21612   6.606  15.889  10.695
51013W        W21613  24.726  16.563  12.915
51014W        W21614  25.771   0.183   5.024
51015W        W21615  25.200  17.379   1.273
51016W        W21616  21.892  43.921  12.569
51017W        W21617  12.281  37.078  11.648
51018W        W21618  38.000  22.724   3.657
51019W        W21619  36.289   2.333   1.322
51020W        W21620  15.124  27.939  11.704
51021W        W21621  23.659   8.188   0.031
51022W        W21622  17.923  17.659  13.663
51023W        W21623   4.157  37.808   1.803
51024W        W21624  41.051  38.392   4.231
51025W        W21625  31.512  26.874  12.651
51026W        W21626  35.767  18.955  10.538
51027W        W21627  26.094   7.902  14.411
51028W        W21628   1.202  18.694  12.987
51029W        W21629  17.624  24.688  12.758
51030W        W21630  37.257   1.350   4.060
51031W        W21631  17.916  17.746   4.748
51032W        W21632   5.978  23.344  10.408
51033W        W21633   3.239  13.390   4.861
51034W        W21634  20.164  26.116   2.460
51035W        W21635  17.484   5.313   3.722
51036W        W21636   9.164  14.063   2.685
51037W        W21637   8.646  36.954   3.792
51038W        W21638  23.157   9.832   1.840
51039W        W21639  30.636   9.178   4.669
51040W        W21640  38.033  25.031   4.471
51041W        W21641  34.805  23.140   0.457
51042W        W21642  31.456   4.349   3.714
51043W        W21643  32.591  11.277  10.408
51044W        W21644  17.363  11.241   3.185
51045W        W21645  33.829  31.143  11.965
51046W        W21646  33.482  37.671  14.008
51047W        W21647   9.399  36.878  11.472
51048W        W21648   7.821  21.318   4.855
51049W        W21649  27.806  32.677   0.961
51050W        W21650  20.207   3.383  13.860
51051W        W21651  16.195  20.138   2.326
51052W        W21652  34.665  20.526   1.838
51053W        W21653  27.654   6.620   0.790
51054W        W21654   9.775   5.404   4.402
51055W        W21655  38.869  39.301   2.690
51056W        W21656  13.679   3.004   1.900
51057W        W21657  25.469  16.663   2.615
51058W        W21658   4.216  15.277  11.509
51059W        W21659  31.469  14.177  11.940
51060W        W21660  24.917  27.161   2.835
51061W        W21661  29.898   0.532   3.361
51062W        W21662   5.173  18.436  10.919
51063W        W21663  38.096  21.006  12.014
51064W        W21664  31.453   6.701   3.448
51065W        W21665  26.637  25.925   2.215
51066W        W21666  43.496  32.028   0.429
51067W        W21667   1.529  18.195   2.894
51068W        W21668   8.338   4.487   0.516
51069W        W21669  17.574  10.173   4.985
51070W        W21670   6.172  26.928   2.265
51071W        W21671  31.113  42.081  14.338
51072W        W21672  39.785  35.442   3.964
51073W        W21673  41.322  25.162   1.431
51074W        W21674  23.384  33.978   3.264
51075W        W21675  16.242  10.296  10.638
51076W        W21676  44.928  33.047   4.031
51077W        W21677  43.712  33.586   4.094
51078W        W21678  29.701   7.253   3.332
51079W        W21679   2.372   5.727   2.428
51080W        W21680  17.076  44.546   1.155
51081W        W21681  41.929  29.576   0.658
51082W        W21682  13.264  42.522  13.160
51083W        W21683  26.426  16.556  12.101
51084W        W21684  12.864  39.578   3.329
51085W        W21685  10.203  19.805  11.681
51086W        W21686  41.217  15.625  14.987
51087W        W21687  12.627   9.969   3.761
51088W        W21688  33.438  15.730   1.687
51089W        W21689   7.454  20.242  11.165
51090W        W21690  10.481   6.036  10.368
51091W        W21691   7.944   2.917   4.506
51092W        W21692  43.623  29.705   3.451
51093W        W21693  27.091  28.768  13.472
51094W        W21694  36.950   5.461   4.549
51095W        W21695  37.406   2.657  10.947
51096W        W21696   5.397   7.202  13.455
51097W        W21697  29.918   5.247   3.803
51098W        W21698   8.780  38.813  14.535
51099W        W21699  18.097  29.024  14.408
51100W        W21700  26.043  24.736   4.671
51101W        W21701  26.022   2.127   1.919
51102W        W21702  29.883  35.953  11.308
51103W        W21703  27.471  42.298   3.335
51104W        W21704  38.402   5.414  12.065
51105W        W21705   1.532  24.020  13.500
51106W        W21706  39.600  17.098  12.838
51107W        W21707  38.311   9.406  11.560
51108W        W21708  18.755   6.292  13.071
51109W        W21709  31.064  28.519   0.742
51110W        W21710  39.895   4.299  12.156
51111W        W21711  15.055   0.414  11.960
51112W        W21712  40.745   5.985  13.056
51113W        W21713  14.838  32.164  12.070
51114W        W21714   1.919  18.052   0.382
51115W        W21715  29.805  37.592   4.658
51116W        W21716  36.475  20.428  13.889
51117W        W21717  32.656  36.775  12.085
51118W        W21718  20.217  11.730   0.795
51119W        W21719   4.842   6.300  14.867
51120W        W21720  22.542   8.705   0.806
51121W        W21721  26.908   0.494  12.978
51122W        W21722  30.332  26.147   0.816
51123W        W21723  20.630   3.941  12.330
51124W        W21724  27.193  18.541  10.640
51125W        W21725   5.485   2.893  11.907
51126W        W21726  35.995  15.826   3.665
51127W        W21727  29.880  35.578   2.705
51128W        W21728  24.769  43.900   1.430
51129W        W21729  36.001   3.595   0.320
51130W        W21730  19.065   8.459   2.736
51131W        W21731   2.957  31.962   4.172
51132W        W21732   2.036  22.659   3.281
51133W        W21733  16.313  12.142  14.835
51134W        W21734  32.831  20.084  12.050
51135W        W21735  42.173  30.991  13.425
51136W        W21736  12.608  40.382   0.872
51137W        W21737  22.469  27.690  11.176
51138W        W21738  44.479  20.749  11.123
51139W        W21739  16.531  16.226  12.946
51140W        W21740  20.311  43.938  10.962
51141W        W21741  17.569  26.045   0.383
51142W        W21742  22.154  42.821   4.754
51143W        W21743  40.010  31.513   3.545
51144W        W21744  29.478  43.935  12.427
51145W        W21745  35.953  37.477  10.221
51146W        W21746  34.072  30.117   2.725
51147W        W21747   3.770  27.993  12.029
51148W        W21748  41.848   4.907  11.919
51149W        W21749   2.423  41.275  14.010
51150W        W21750  42.877   5.927   0.440
51151W        W21751   1.710  43.813   1.698
51152W        W21752  23.730  42.411  12.418
51153W        W21753   4.565  21.157   2.617
51154W        W21754  21.947  37.299  13.042
51155W        W21755   8.760  24.910  11.860
51156W        W21756  41.709  12.753   2.759
51157W        W21757  31.331  36.134  11.545
51158W        W21758  23.637  25.400  14.518
51159W        W21759  20.037  12.758   0.523
51160W        W21760   7.780  32.918  11.980
51161W        W21761  15.673  35.856   0.130
51162W        W21762   6.449  12.249  13.465
51163W        W21763  12.654  11.499   4.622
51164W        W21764  36.806  17.567   0.864
51165W        W21765   7.319  38.973  13.578
51166W        W21766   5.843  20.527   1.374
51167W        W21767  21.565  23.251  10.549
51168W        W21768  27.731   3.900  14.606
51169W        W21769  37.265  12.291   0.789
51170W        W21770  27.131  39.054   0.857
51171W        W21771  27.942  38.085   1.450
51172W        W21772  24.723  30.624  11.227
51173W        W21773  36.632  38.951  11.948
51174W        W21774  21.179  39.169  14.400
51175W        W21775  35.582  28.177   2.824
51176W        W21776   5.340  30.093  12.381
51177W        W21777  28.876  27.665   0.782
51178W        W21778  39.296  42.968   0.442
51179W        W21779  23.574   8.154   3.773
51180W        W21780  33.106   0.919   1.193
51181W        W21781  15.078  12.298  12.996
51182W        W21782   0.506  32.170   3.650
51183W        W21783  35.028  27.079   0.386
51184W        W21784   9.756  38.884  14.595
51185W        W21785  22.862   8.857  13.407
51186W        W21786  27.868   2.274   2.646
51187W        W21787  37.621  33.763   3.612
51188W        W21788  26.956  18.842   2.681
51189W        W21789   4.682  13.360   5.124
51190W        W21790  40.851   0.190   2.249
51191W        W21791  42.050  30.600  11.487
51192W        W21792  32.919  23.399  12.017
51193W        W21793  41.929  12.385  12.586
51194W        W21794  42.362  16.155  14.808
51195W        W21795  24.994  13.768  12.176
51196W        W21796  15.029  29.417  13.619
51197W        W21797  12.163  41.587  11.070
51198W        W21798   7.407  10.744  13.582
51199W        W21799  20.139   1.431  14.052
51200W        W21800  24.507   0.794   0.749
51201W        W21801  23.465  36.108  14.212
51202W        W21802  41.328  34.193  11.145
51203W        W21803  33.168  37.227   4.186
51204W        W21804  31.092  18.213  14.938
51205W        W21805   6.700  37.014  13.643
51206W        W21806  34.546  25.504  12.181
51207W        W21807  11.750  31.328   3.257
51208W        W21808  29.250   8.966   0.483
51209W        W21809  38.861  35.990  14.301
51210W        W21810   1.576  13.319   4.557
51211W        W21811  40.878  33.418  14.295
51212W        W21812   1.743  32.141   4.106
51213W        W21813  15.795   3.751   3.377
51214W        W21814  13.108  40.471   3.191
51215W        W21815  25.606   1.428  14.472
51216W        W21816  36.775  22.235  13.027
51217W        W21817   4.766  27.107   3.306
51218W        W21818  26.255  31.642   2.640
51219W        W21819  41.319  14.504  13.550
51220W        W21820  26.140  29.939   0.112
51221W        W21821   6.306   6.161   3.130
51222W        W21822  17.503  28.718  14.665
51223W        W21823   8.095   7.772  13.823
51224W        W21824   6.659   0.325  12.799
51225W        W21825  12.172  42.793  13.347
51226W        W21826  34.063  12.219   1.862
51227W        W21827  20.800  21.555   4.802
51228W        W21828  24.079   6.282   1.346
51229W        W21829  35.469  10.958  12.619
51230W        W21830   5.660   7.497   4.867
51231W        W21831  32.996  36.118   4.449
51232W        W21832  15.635   5.625   4.560
51233W        W21833  39.200   9.005   0.380
51234W        W21834  18.633  25.549   0.753
51235W        W21835  16.594  17.947  10.617
51236W        W21836  40.541  43.960   1.325
51237W        W21837  19.671   2.287   1.741
51238W        W21838  10.286  24.593   0.800
51239W        W21839  39.389  35.149  13.220
51240W        W21840  25.436  15.201  11.488
51241W        W21841  12.852   3.380   4.678
51242W        W21842  26.551   2.220  13.360
51243W        W21843  14.559  30.774   3.117
51244W        W21844  33.478  24.695  10.178
51245W        W21845  38.129   4.475  12.490
51246W        W21846  22.743  19.931   0.246
51247W        W21847  29.170  33.082   3.305
51248W        W21848  29.249   5.903   2.116
51249W        W21849  39.879   2.292  12.532
51250W        W21850  44.971  42.334  13.847
51251W        W21851  15.442  13.336   1.385
51252W        W21852  17.716  44.334   4.405
51253W        W21853   1.451  10.774   4.151
51254W        W21854  23.208   7.001  14.543
51255W        W21855   8.432  22.057  14.535
51256W        W21856  37.198   6.470  13.497
51257W        W21857  10.857  17.818  14.191
51258W        W21858  31.549  14.947   1.280
51259W        W21859  17.740  29.616   3.133
51260W        W21860  16.815  27.236   2.504
51261W        W21861  44.470  44.239  14.932
51262W        W21862  24.940  29.663   1.643
51263W        W21863   3.691  25.937   3.787
51264W        W21864   5.548  41.353   4.147
51265W        W21865  17.786  19.969   2.719
51266W        W21866  20.188   8.043   1.468
51267W        W21867  30.561  32.440   2.217
51268W        W21868  29.629  32.538  12.583
51269W        W21869  11.296  36.226  10.784
51270W        W21870  43.085  21.476   2.743
51271W        W21871  15.542   2.753  12.022
51272W        W21872   2.363   9.934   3.187
51273W        W21873  13.989  25.741   4.482
51274W        W21874  38.622  10.718   3.147
51275W        W21875   7.450  19.402   1.798
51276W        W21876  37.765  25.330  14.378
51277W        W21877  19.884   7.728   1.174
51278W        W21878  18.125  18.721  11.963
51279W        W21879  20.513  14.194  11.235
51280W        W21880   5.797   2.960   0.913
51281W        W21881  18.462  41.228  14.134
51282W        W21882  11.088  15.088  10.657
51283W        W21883  15.780   2.415   4.452
51284W        W21884   7.828  17.497   3.236
51285W        W21885  12.124  39.028  14.838
51286W        W21886  28.536   4.284   1.951
51287W        W21887  43.129   9.849  10.276
51288W        W21888  30.447  14.681  11.549
51289W        W21889  38.433  25.458  11.409
51290W        W21890  23.751  25.148  12.954
51291W        W21891  15.227  35.870   1.194
51292W        W21892  14.818  25.397   0.287
51293W        W21893  42.884   8.412  13.616
51294W        W21894  35.814  35.898   1.390
51295W        W21895  39.789  42.887   0.747
51296W        W21896   1.447  30.833  12.083
51297W        W21897  34.368   4.155  12.617
51298W        W21898   2.523   2.713   2.815
51299W        W21899  44.929  17.116  13.665
51300W        W21900  20.594  15.062   4.714
51301W        W21901  33.402  30.025   2.252
51302W        W21902   5.976  34.052   1.007
51303W        W21903   8.794  12.823   3.903
51304W        W21904  27.168  30.064   0.780
51305W        W21905   2.119  17.671   4.202
51306W        W21906   4.375  13.299   3.971
51307W        W21907  38.956  24.245   5.140
51308W        W21908  42.423  29.645   1.890
51309W        W21909  26.716  20.248   4.564
51310W        W21910   0.912   9.235  14.814
51311W        W21911   1.728  32.921   1.585
51312W        W21912   2.330  18.612  13.423
51313W        W21913   6.289  38.801  11.518
51314W        W21914  40.857  15.601   3.246
51315W        W21915   7.165   4.219   4.520
51316W        W21916  36.140  16.910   4.463
51317W        W21917  29.962  30.541   0.243
51318W        W21918   5.087  23.632   1.830
51319W        W21919  37.126  13.128  11.118
51320W        W21920  30.208  35.014   4.922
51321W        W21921  15.798  19.513  12.972
51322W        W21922  22.868  10.754  14.794
51323W        W21923  26.160  22.947   4.425
51324W        W21924  20.750  28.960   0.768
51325W        W21925  26.417  40.837   1.396
51326W        W21926  12.816  28.961   3.417
51327W        W21927  27.514  27.843   3.866
51328W        W21928  18.562  39.849   3.398
51329W        W21929  27.970  30.323  11.265
51330W        W21930  11.319  13.574  10.665
51331W        W21931  24.611  40.854  10.767
51332W        W21932  38.578   4.204   3.339
51333W        W21933  27.123   3.587  11.087
51334W        W21934  19.200  11.367  12.587
51335W        W21935   0.837  41.116   3.248
51336W        W21936  36.469   1.452  14.844
51337W        W21937  36.757  27.921   1.274
51338W        W21938  31.887  33.151   4.289
51339W        W21939  36.349  30.430   3.669
51340W        W21940   6.846  14.381  14.540
51341W        W21941   8.139  42.447  13.869
51342W        W21942  13.976  37.116   0.947
51343W        W21943  11.782  39.077   2.423
51344W        W21944   0.851  39.606  13.297
51345W        W21945  35.949  24.150   0.392
51346W        W21946   5.786  18.239   2.335
51347W        W21947  10.336  39.807   4.272
51348W        W21948  23.638  30.458   4.033
51349W        W21949  33.645   5.228   4.347
51350W        W21950  38.820  44.843   2.593
51351W        W21951   4.273  17.638  13.077
51352W        W21952   5.965  41.620   1.359
51353W        W21953   5.753  40.470   1.841
51354W        W21954  23.133  32.029   1.678
51355W        W21955  34.663  34.654   3.756
51356W        W21956  12.113  31.848  11.174
51357W        W21957  26.728  43.746  14.027
51358W        W21958  21.269  23.050   2.661
51359W        W21959  19.701  12.678  11.171
51360W        W21960  19.819  16.770   0.778
51361W        W21961  10.762   5.468  11.628
51362W        W21962  36.387   3.222   2.848
51363W        W21963   7.687   3.898  14.101
51364W        W21964  30.439   1.308  14.243
51365W        W21965  29.156  37.336   1.766
51366W        W21966  25.126  24.699  11.132
51367W        W21967  18.726  40.790   3.471
51368W        W21968   6.798  41.361   0.665
51369W        W21969  15.294   2.483  14.859
51370W        W21970   6.338  12.151   1.786
51371W        W21971  29.768  11.705  11.237
51372W        W21972  32.386  13.595  14.302
51373W        W21973   6.306  14.665   2.766
51374W        W21974  37.425   2.959   2.264
51375W        W21975  32.894  25.673  11.937
51376W        W21976   9.724  33.099  11.168
51377W        W21977  23.791   4.932   3.932
51378W        W21978  18.796  30.541   1.410
51379W        W21979   2.759  22.130  10.713
51380W        W21980  38.406  35.723   0.300
51381W        W21981   6.870  32.733   2.906
51382W        W21982  31.665  18.743  14.782
51383W        W21983  23.443  27.912  13.034
51384W        W21984  25.514  10.682   1.210
51385W        W21985   0.254  33.441  12.612
51386W        W21986  33.181  12.263  10.393
51387W        W21987   6.763  12.497   0.720
51388W        W21988  28.447  10.408   1.952
51389W        W21989   5.423   8.226   1.003
51390W        W21990  31.563  28.703   2.820
51391W        W21991  31.967  32.468  13.536
51392W        W21992  23.042   7.643   0.274
51393W        W21993  15.859   2.863  12.444
51394W        W21994   5.116  30.317   3.879
51395W        W21995  32.170  22.380   3.607
51396W        W21996   7.783   0.859  12.983
51397W        W21997  35.142  16.430  10.504
51398W        W21998  28.574  10.680   1.309
51399W        W21999  35.834  37.934   4.829
51400W        W22000  38.562   0.053   4.571
51401W        W22001  17.757  25.074  14.283
51402W        W22002  12.040  19.320   3.200
51403W        W22003  28.817  17.604  14.214
51404W        W22004   2.689  27.620  14.501
51405W        W22005  22.488  14.837  13.557
51406W        W22006  15.342  18.382   1.161
51407W        W22007  14.092  16.284   1.319
51408W        W22008   9.216  30.118   3.173
51409W        W22009  15.294  29.403   1.941
51410W        W22010  16.310  14.633   0.944
51411W        W22011  39.920  25.580  13.964
51412W        W22012  36.334   6.335   2.278
51413W        W22013  11.574   7.517   0.950
51414W        W22014  29.482  28.051  10.785
51415W        W22015  22.009   1.721  10.793
51416W        W22016  24.643   5.657  12.071
51417W        W22017  37.532  29.691  14.740
51418W        W22018  18.594  20.518  11.992
51419W        W22019   3.229  29.223  13.821
51420W        W22020   4.552  23.066   4.587
51421W        W22021  12.499  20.988   0.931
51422W        W22022   5.939  17.205   4.328
51423W        W22023  12.193  40.940  13.016
51424W        W22024  20.622   8.533  13.401
51425W        W22025  41.760   7.884  11.619
51426W        W22026  42.493  44.040   3.047
51427W        W22027  11.379  26.901   0.363
51428W        W22028   7.815  20.564   1.668
51429W        W22029  11.308  16.559  14.072
51430W        W22030  18.940  20.029   3.719
51431W        W22031  36.489  34.156  12.937
51432W        W22032   5.325  13.386   2.731
51433W        W22033  24.443  29.828  14.317
51434W        W22034  26.318  37.933  14.350
51435W        W22035   5.585  38.974   2.986
51436W        W22036  26.539  37.169  11.168
51437W        W22037  13.719  43.266  13.408
51438W        W22038   5.670   1.695  12.947
51439W        W22039  30.619  41.626  10.242
51440W        W22040  24.150   0.929   1.455
51441W        W22041  14.212  13.246  12.818
51442W        W22042  11.838  11.915  13.948
51443W        W22043  39.464  28.493   4.697
51444W        W22044  14.140   1.424  14.530
51445W        W22045  25.402  44.897   2.805
51446W        W22046  20.220  32.468   1.324
51447W        W22047  19.487  18.597  10.770
51448W        W22048  16.438  13.075   1.787
51449W        W22049  31.375  21.959  11.647
51450W        W22050   8.661  21.552   3.338
51451W        W22051  29.096  20.697   3.715
51452W        W22052  40.523   6.674   1.882
51453W        W22053   5.359  11.321   0.851
51454W        W22054  19.038  10.487  12.794
51455W        W22055   2.528  23.914  12.595
51456W        W22056  24.868  23.250   1.803
51457W        W22057  43.952  25.595   2.383
51458W        W22058   6.100  24.892   4.929
51459W        W22059  24.285  17.744   1.631
51460W        W22060  38.363   5.344   2.768
51461W        W22061  17.072   5.012  13.015
51462W        W22062  24.874   3.871   0.875
51463W        W22063  22.591  44.967   0.225
51464W        W22064  22.687  42.423  10.202
51465W        W22065   6.350   8.465  14.443
51466W        W22066  26.083  14.130  13.446
51467W        W22067  43.784  14.030  12.120
51468W        W22068  13.605  19.852  11.439
51469W        W22069   6.635   0.450   1.446
51470W        W22070  34.829  32.663   0.475
51471W        W22071  40.180  20.550  11.531
51472W        W22072   7.229   7.091  11.043
51473W        W22073  19.299  41.348   3.600
51474W        W22074   1.269  16.445   4.037
51475W        W22075   9.582  38.881   1.355
51476W        W22076  30.852   3.864   0.090
51477W        W22077  40.770   5.879   3.801
51478W        W22078  40.713  21.448   1.414
51479W        W22079  33.070  41.832   2.222
51480W        W22080  11.917  39.468   1.193
51481W        W22081  37.970  44.669   2.338
51482W        W22082  29.469   4.166  13.745
51483W        W22083  10.797  38.070   2.439
51484W        W22084  15.574  16.105   2.342
51485W        W22085  39.766  42.764   3.806
51486W        W22086  12.109  10.814  12.401
51487W        W22087  33.198  40.783  14.427
51488W        W22088  15.609  25.251   3.557
51489W        W22089   4.004  23.665  14.911
51490W        W22090   2.807  37.547  14.243
51491W        W22091  19.215  30.445   1.757
51492W        W22092  29.044  16.354  11.465
51493W        W22093  33.367  31.014   2.454
51494W        W22094  13.922  25.967   0.640
51495W        W22095  40.874   0.460  10.777
51496W        W22096  23.145  17.575   3.963
51497W        W22097  28.519  33.776  14.854
51498W        W22098  12.369  20.938  13.946
51499W        W22099  32.407  31.902  14.534
51500W        W22100   9.092  31.765   0.873
51501W        W22101  26.962  31.120  11.799
51502W        W22102  32.115  18.064  11.136
51503W        W22103   1.674   1.713  14.261
51504W        W22104  36.094  23.084  14.450
51505W        W22105  19.041   5.243   1.056
51506W        W22106   5.757  42.136  10.963
51507W        W22107  16.625  36.429   4.115
51508W        W22108  27.109  10.286  14.941
51509W        W22109  41.438  13.922   0.682
51510W        W22110  38.379  14.688   3.790
51511W        W22111  32.765  38.984  10.355
51512W        W22112  19.512  17.705  13.092
51513W        W22113  20.009   6.753  10.598
51514W        W22114  30.988   0.745   2.756
51515W        W22115   9.152  16.497   0.246
51516W        W22116  31.318  32.645  11.485
51517W        W22117  42.628  12.349  11.902
51518W        W22118  44.900   9.147   2.381
51519W        W22119  12.358  41.698  12.792
51520W        W22120  17.842  11.133   3.346
51521W        W22121  31.928  18.785  11.392
51522W        W22122   1.912  28.769  10.729
51523W        W22123  27.785  40.262  14.358
51524W        W22124  44.188   4.574  14.781
51525W        W22125  21.262  15.070  10.322
51526W        W22126  35.611  40.515   4.569
51527W        W22127   2.415  13.093   4.328
51528W        W22128  35.976  17.883   3.662
51529W        W22129  25.471  22.320  14.874
51530W        W22130  31.873   8.064  10.600
51531W        W22131  31.836  41.385  11.707
51532W        W22132  16.699  36.482  11.573
51533W        W22133  30.750  37.945   5.120
51534W        W22134  17.058   5.539   2.745
51535W        W22135  11.350  25.551  11.582
51536W        W22136  26.331  13.798   3.451
51537W        W22137  39.352  28.550  12.944
51538W        W22138  36.855  27.532  11.273
51539W        W22139  25.917  40.728   1.332
51540W        W22140  15.273  11.317   1.941
51541W        W22141  27.333  17.291  11.158
51542W        W22142  41.406   8.904  12.796
51543W        W22143   6.789  43.509   2.895
51544W        W22144  24.990  21.498   4.293
51545W        W22145   2.802  34.094   1.057
51546W        W22146  17.016  35.029  13.283
51547W        W22147  23.155  13.339   0.834
51548W        W22148  37.921   9.353   4.147
51549W        W22149  22.471  22.214   2.774
51550W        W22150   7.716  12.766   2.128
51551W        W22151   9.762   4.260  12.032
51552W        W22152  30.796   4.569  14.942
51553W        W22153   0.847  23.924  14.015
51554W        W22154  41.210  18.098   1.293
51555W        W22155   9.138  11.372  11.646
51556W        W22156  44.018   0.032  13.829
51557W        W22157  33.458  33.165   3.829
51558W        W22158  39.117  26.166  14.931
51559W        W22159  31.438  34.506  12.001
51560W        W22160  14.831   1.506  12.049
51561W        W22161  14.145  32.508   4.769
51562W        W22162  11.875  41.444  13.581
51563W        W22163  10.257  26.214  12.927
51564W        W22164  19.082  39.056   3.560
51565W        W22165  30.218  39.059   0.796
51566W        W22166  17.577  21.130   1.798
51567W        W22167   3.509  17.366   0.400
51568W        W22168  15.727   4.248   3.300
51569W        W22169  42.308  33.562   3.726
51570W        W22170  44.067  24.779   5.065
51571W        W22171  41.786  23.314  11.442
51572W        W22172  10.875   9.358  11.988
51573W        W22173  31.449  38.919  13.298
51574W        W22174  25.063  43.472  10.641
51575W        W22175   1.282  27.404  10.619
51576W        W22176  22.274   1.541  14.826
51577W        W22177  29.653  31.049   2.419
51578W        W22178  37.789   1.293   3.962
51579W        W22179  41.870  29.683   2.742
51580W        W22180   7.268   4.879  14.420
51581W        W22181  21.850  12.040   0.290
51582W        W22182  29.564   9.082   3.191
51583W        W22183  14.250  37.623  12.890
51584W        W22184   1.444  15.107   3.669
51585W        W22185   2.753  44.848   0.821
51586W        W22186   8.957   8.730   0.813
51587W        W22187  34.386  16.695   2.857
51588W        W22188   9.609  32.662   0.873
51589W        W22189  43.257  21.568   0.319
51590W        W22190  36.351  42.260   2.897
51591W        W22191  24.774  22.262  13.418
51592W        W22192   0.477  10.224  10.954
51593W        W22193  32.535  12.311   1.998
51594W        W22194  30.498   2.487   4.635
51595W        W22195   5.375  10.687   4.555
51596W        W22196  25.384  24.841  13.418
51597W        W22197  16.738  44.894  13.561
51598W        W22198  32.505  29.655  12.106
51599W        W22199   8.390  16.008  12.844
51600W        W22200  44.672  31.225  13.356
51601W        W22201  20.548  25.839  11.197
51602W        W22202   5.415  32.541   0.528
51603W        W22203   5.675  23.980  14.928
51604W        W22204  39.138  10.830   5.141
51605W        W22205  10.293  15.010  12.389
51606W        W22206  18.092  10.356   0.179
51607W        W22207   3.455  29.643  14.029
51608W        W22208  36.885   1.791  12.378
51609W        W22209  25.972  38.379   3.821
51610W        W22210  29.888  25.669   3.813
51611W        W22211  10.808  23.186  11.596
51612W        W22212  42.451  19.316   1.798
51613W        W22213  34.650  14.567   3.743
51614W        W22214   9.993  23.948  14.855
51615W        W22215  39.710   0.894   4.112
51616W        W22216  20.633   5.779   2.879
51617W        W22217  33.135  37.935  11.671
51618W        W22218   2.983  22.652  12.930
51619W        W22219  11.107  11.925  13.469
51620W        W22220  16.597  30.334   1.388
51621W        W22221  36.435  36.501  12.968
51622W        W22222  11.743  19.512  12.134
51623W        W22223  33.526  23.666   4.373
51624W        W22224   5.291  30.125  12.958
51625W        W22225  11.331  20.878  13.990
51626W        W22226  39.492  34.879   1.437
51627W        W22227  34.676   0.428  11.998
51628W        W22228   3.886  21.311  12.794
51629W        W22229  27.994   3.742  10.607
51630W        W22230  17.057  15.670   4.196
51631W        W22231   9.270  18.720  13.114
51632W        W22232   3.386   0.175   0.091
51633W        W22233  11.364  29.138  12.041
51634W        W22234  25.109  43.195   2.309
51635W        W22235  18.936   1.219   2.694
51636W        W22236  25.864   7.866   2.703
51637W        W22237  24.722  10.987  10.362
51638W        W22238   7.795  31.166   2.113
51639W        W22239  34.767  26.318  12.080
51640W        W22240  20.059  32.947   2.413
51641W        W22241  14.058  27.413  14.857
51642W        W22242   4.521  15.709   2.278
51643W        W22243  12.169  36.387  14.819
51644W        W22244   2.727   2.478  12.855
51645W        W22245  15.765  20.347  12.480
51646W        W22246  26.471   4.592   4.600
51647W        W22247  30.318  27.457   3.667
51648W        W22248  37.065  13.238   0.839
51649W        W22249  41.007  11.110  14.616
51650W        W22250  11.820   1.074  12.143
51651W        W22251  32.055  17.360  12.221
51652W        W22252  40.425   9.688  12.069
51653W        W22253   7.659  35.880   0.849
51654W        W22254  13.327  18.460   2.589
51655W        W22255  11.380  31.200  13.046
51656W        W22256  25.657  36.842   2.351
51657W        W22257   0.997  41.356  11.619
51658W        W22258  14.076  31.217  11.353
51659W        W22259   4.286  19.533   3.477
51660W        W22260  26.410  26.627   4.970
51661W        W22261  36.825  19.968  11.628
51662W        W22262  10.320  26.513  11.722
51663W        W22263  22.955  29.495  14.043
51664W        W22264  33.569  40.674   3.031
51665W        W22265  13.750  21.196   2.750
51666W        W22266  37.706  20.970   3.802
51667W        W22267   0.269  26.337  13.334
51668W        W22268   1.259  37.439   1.719
51669W        W22269  28.659   0.798  14.025
51670W        W22270  21.755  40.920   2.156
51671W        W22271  14.223  26.235  12.631
51672W        W22272  10.275  13.280   5.312
51673W        W22273  18.530  12.313   3.138
51674W        W22274  37.974  15.568  13.110
51675W        W22275  38.787  37.813   0.084
51676W        W22276   1.937  30.723   1.619
51677W        W22277  24.643  36.550   3.632
51678W        W22278  42.476  40.244  12.043
51679W        W22279   6.697   2.500   0.018
51680W        W22280  27.670  19.629  11.158
51681W        W22281  12.174  10.789  11.619
51682W        W22282  14.815  11.927  14.886
51683W        W22283  13.878  20.538  13.417
51684W        W22284  21.079  30.717   3.621
51685W        W22285  15.036  41.558  13.756
51686W        W22286  10.124  30.318  11.804
51687W        W22287  38.196  17.636  13.166
51688W        W22288   8.161  44.026  13.959
51689W        W22289  35.364  40.498   0.580
51690W        W22290  43.824  28.004  12.808
51691W        W22291  43.584  16.306   0.925
51692W        W22292  20.631  24.972   0.878
51693W        W22293  23.067   3.948  12.203
51694W        W22294  30.505  38.456   0.061
51695W        W22295  38.552   7.636  11.127
51696W        W22296  35.502  11.379   1.313
51697W        W22297   4.974   8.986  12.301
51698W        W22298  12.656  22.047   0.107
51699W        W22299  35.799  35.052  12.131
51700W        W22300  16.680  23.000   2.106
51701W        W22301  17.658   0.500  12.622
51702W        W22302  28.162  44.093  13.134
51703W        W22303  13.525   5.768  13.842
51704W        W22304  21.826  14.774   4.122
51705W        W22305  29.729   5.505   0.420
51706W        W22306  17.724  19.441   1.277
51707W        W22307  17.197  17.290  14.337
51708W        W22308  44.316   7.661   1.273
51709W        W22309  40.017   5.820  13.518
51710W        W22310  18.359  37.036   1.413
51711W        W22311  33.742  41.155   0.203
51712W        W22312   8.719  28.886   3.172
51713W        W22313  36.727   8.700  11.517
51714W        W22314  43.497  39.852   4.030
51715W        W22315  21.209  21.516  14.765
51716W        W22316  35.456  11.541   2.349
51717W        W22317  40.515  36.001   1.917
51718W        W22318   9.104   3.850  14.353
51719W        W22319  42.264  40.137   4.050
51720W        W22320  43.978  37.444   4.015
51721W        W22321  15.657  24.192   4.469
51722W        W22322  31.219  40.344   2.842
51723W        W22323  11.689   3.318  12.163
51724W        W22324  31.499  15.399   4.704
51725W        W22325   7.629  38.105  13.451
51726W        W22326   6.714  12.012   0.916
51727W        W22327   6.707  16.774   0.663
51728W        W22328  20.502  31.555  12.495
51729W        W22329  41.704   4.755   2.269
51730W        W22330  20.277  18.106  11.980
51731W        W22331  29.339  12.079   0.708
51732W        W22332  24.519   3.778   4.415
51733W        W22333  13.312  15.861   1.427
51734W        W22334  24.524  22.606  14.198
51735W        W22335  12.123  10.498   1.789
51736W        W22336  11.344  19.349  14.848
51737W        W22337   6.905   3.879   4.832
51738W        W22338  41.236  21.685   1.502
51739W        W22339  44.289   6.754   4.329
51740W        W22340  41.371  37.616  12.879
51741W        W22341  28.476  14.636   1.289
51742W        W22342  34.420  44.833   2.150
51743W        W22343  10.266  38.875  11.197
51744W        W22344   7.219  29.624   0.252
51745W        W22345  29.866  37.369  14.949
51746W        W22346  20.937  17.689  14.999
51747W        W22347  44.453  19.253  12.874
51748W        W22348  14.748  14.760   1.744
51749W        W22349   7.777  28.282  14.879
51750W        W22350  34.963   3.873   3.359
51751W        W22351  16.771  34.694   1.421
51752W        W22352  37.153  12.457   1.547
51753W        W22353  22.314  27.750   2.681
51754W        W22354  44.869  30.218  13.421
51755W        W22355  39.525  27.711  10.704
51756W        W22356  22.627  41.089  11.662
51757W        W22357  19.129  26.755  14.845
51758W        W22358  27.210  20.829  13.540
51759W        W22359   2.973  41.455  13.212
51760W        W22360  24.641  32.788  14.009
51761W        W22361   2.317  16.738   9.818
51762W        W22362  39.086   0.165   2.300
51763W        W22363  11.823   6.771  13.059
51764W        W22364  43.538  17.261   1.947
51765W        W22365  12.931  37.949  14.947
51766W        W22366  18.095  27.232   2.632
51767W        W22367  17.032  38.497  12.553
51768W        W22368   6.784  20.882  12.488
51769W        W22369  17.821  32.017  11.195
51770W        W22370  40.903  42.600  14.613
51771W        W22371   5.228  42.541   0.829
51772W        W22372  41.845  23.793   3.148
51773W        W22373  42.805  20.747   1.084
51774W        W22374   7.359  40.640  11.035
51775W        W22375  18.261  18.957  14.808
51776W        W22376  24.168  17.051  11.065
51777W        W22377   7.420   0.194   2.068
51778W        W22378  14.132  25.132   1.177
51779W        W22379   9.350  10.617  13.971
51780W        W22380  30.749  17.777  12.883
51781W        W22381  40.587  39.554   0.382
51782W        W22382  37.852  42.142   4.546
51783W        W22383  29.547  10.747   4.902
51784W        W22384  40.356   2.269   4.383
51785W        W22385   6.681  17.232  10.736
51786W        W22386  43.267   3.103  13.725
51787W        W22387  38.898  22.032  10.312
51788W        W22388  11.792  25.022   4.550
51789W        W22389  24.396  26.525  12.519
51790W        W22390  15.842  21.037   5.104
51791W        W22391  43.535  18.041  14.038
51792W        W22392  33.587  29.034  12.763
51793W        W22393  42.983   8.200  11.462
51794W        W22394  10.161  39.821  13.926
51795W        W22395  36.164   9.169   1.353
51796W        W22396  40.538  20.176   2.929
51797W        W22397   6.804  35.627   1.204
51798W        W22398  22.985   2.263   4.023
51799W        W22399   1.332  36.350  11.714
51800W        W22400  15.528   1.898  12.431
51801W        W22401  17.989  16.308  10.652
51802W        W22402   7.442   6.617  11.724
51803W        W22403  38.828  11.265  11.580
51804W        W22404  26.120  11.453  11.628
51805W        W22405  39.422  36.459  12.093
51806W        W22406  43.269   9.338  13.916
51807W        W22407  12.682  19.731   5.045
51808W        W22408  41.996  40.526  10.789
51809W        W22409  28.062  35.460   1.332
51810W        W22410   3.401  26.122   1.885
51811W        W22411  11.095  35.955   4.227
51812W        W22412  36.036  43.965   2.306
51813W        W22413  16.184  25.355  12.312
51814W        W22414  37.903   6.155   3.617
51815W        W22415   1.967  44.815  14.324
51816W        W22416  24.002  25.601   3.629
51817W        W22417  12.770  18.296  13.423
51818W        W22418  39.609  12.320   4.410
51819W        W22419  44.061  34.912   0.887
51820W        W22420   7.135  23.307  12.626
51821W        W22421  27.748  18.382   0.489
51822W        W22422  15.116  33.273   5.000
51823W        W22423   7.750   6.643  12.127
51824W        W22424  11.145  32.079  14.973
51825W        W22425   3.269  17.151  13.188
51826W        W22426   9.814  35.585  11.218
51827W        W22427  17.120  31.073  11.583
51828W        W22428  10.196  10.109   1.400
51829W        W22429  29.443  23.287  13.896
51830W        W22430  42.956  30.435  11.070
51831W        W22431  27.254  44.492  10.646
51832W        W22432  17.923   8.401   2.242
51833W        W22433   2.183  27.631  14.415
51834W        W22434  12.236  16.619  12.169
51835W        W22435  38.380   3.767  12.493
51836W        W22436  39.971  22.104  14.472
51837W        W22437  41.637  16.069  14.300
51838W        W22438   5.559  19.023   4.179
51839W        W22439  38.505   3.283   0.231
51840W        W22440  33.523  41.634   3.398
51841W        W22441  36.853  40.202  11.268
51842W        W22442  38.430  23.418   2.685
51843W        W22443  12.276   5.676  14.709
51844W        W22444   9.468  14.614   0.418
51845W        W22445  13.291  27.472   3.856
51846W        W22446  18.581  44.725  11.263
51847W        W22447   1.470  12.173  12.653
51848W        W22448  21.977  29.481  13.796
51849W        W22449  14.525  32.821  11.634
51850W        W22450  32.184   3.960   2.640
51851W        W22451   7.792  34.989  12.011
51852W        W22452  10.129  25.945   4.574
51853W        W22453  23.925  33.126   2.230
51854W        W22454  12.274  25.753  13.524
51855W        W22455  19.660  39.578   3.689
51856W        W22456  29.806  15.515  10.085
51857W        W22457  33.848  21.885  10.587
51858W        W22458  36.403  17.731  11.635
51859W        W22459   1.895   1.264  13.349
51860W        W22460  12.606  41.872  14.768
51861W        W22461  21.294  27.659   2.252
51862W        W22462  33.554  17.826  13.760
51863W        W22463  10.294  16.467   2.266
51864W        W22464  27.173  34.393   3.173
51865W        W22465  10.605  23.596   1.884
51866W        W22466  17.345  14.164   2.823
51867W        W22467  12.115  44.002   3.103
51868W        W22468  34.034  12.271   1.014
51869W        W22469   5.856  12.267  11.004
51870W        W22470  38.429  12.203  10.702
51871W        W22471  23.576  27.491  13.990
51872W        W22472  42.387  37.851  11.699
51873W        W22473  21.010   7.272  11.950
51874W        W22474  25.693   7.198  13.002
51875W        W22475   9.935  13.025  10.282
51876W        W22476  21.878  16.006   3.674
51877W        W22477  15.461  42.476   0.704
51878W        W22478   8.872  37.379   3.607
51879W        W22479  44.956  16.281  11.428
51880W        W22480   1.898  26.351   3.329
51881W        W22481  14.136  39.329   2.264
51882W        W22482   5.842   4.292   0.362
51883W        W22483  38.264  30.625  13.509
51884W        W22484  14.762  12.487   2.685
51885W        W22485  30.579  16.835  12.601
51886W        W22486  10.796  43.724   4.064
51887W        W22487   2.591  25.007  12.513
51888W        W22488  43.894  36.451  12.046
51889W        W22489   3.805  37.455  12.886
51890W        W22490  10.726  28.151  12.424
51891W        W22491  38.889   2.976  11.076
51892W        W22492  24.698  20.642  14.862
51893W        W22493   6.294  36.353   3.184
51894W        W22494  42.050  11.807   0.765
51895W        W22495   9.107  41.544   5.083
51896W        W22496  11.360   4.786  10.740
51897W        W22497  32.659  25.675  12.899
51898W        W22498  39.070  17.563  13.410
51899W        W22499  24.290   1.335   0.157
51900W        W22500  15.522   6.857   3.584
51901W        W22501  10.218  19.771   2.315
51902W        W22502  21.558  10.825  12.858
51903W        W22503  16.572  31.022   1.946
51904W        W22504  44.540  28.970   1.401
51905W        W22505  33.580  21.576  14.587
51906W        W22506  32.590  33.114   4.196
51907W        W22507   5.685   9.230   3.860
51908W        W22508   4.995  30.375   0.695
51909W        W22509   3.150  12.743   0.336
51910W        W22510  11.813  14.942  12.951
51911W        W22511   8.234  25.672   0.311
51912W        W22512  19.431  27.082   2.079
51913W        W22513  13.115  30.954  10.535
51914W        W22514  43.061  14.853   1.922
51915W        W22515  35.705  43.526   2.758
51916W        W22516  41.827  24.472   0.009
51917W        W22517   8.157  11.623  12.054
51918W        W22518  10.368  31.106   0.095
51919W        W22519  18.186  26.095   3.165
51920W        W22520  20.228  31.414  10.722
51921W        W22521   7.022   1.399   2.753
51922W        W22522   0.936  24.879   2.399
51923W        W22523   2.187  30.376  13.366
51924W        W22524  17.716  21.696   1.192
51925W        W22525   4.245  42.952   1.166
51926W        W22526  13.505   1.599   5.476
51927W        W22527  42.024  21.499  11.168
51928W        W22528  13.155  44.561  13.962
51929W        W22529   4.796   4.125  10.672
51930W        W22530  13.459  13.350   3.112
51931W        W22531   1.911   9.677   3.312
51932W        W22532  42.580  23.354   3.224
51933W        W22533   6.024  39.417  11.987
51934W        W22534  21.980  13.317  12.491
51935W        W22535  39.280  29.855  14.752
51936W        W22536  20.260  14.272  13.440
51937W        W22537   1.928  17.551  11.117
51938W        W22538  18.812  32.206  13.429
51939W        W22539  20.620  26.228   0.338
51940W        W22540   3.298  27.769  11.616
51941W        W22541   3.383  41.114   4.128
51942W        W22542  13.842  20.230   3.517
51943W        W22543  28.952  34.542   1.157
51944W        W22544  33.460  38.296   2.751
51945W        W22545   3.471  38.442  10.119
51946W        W22546  31.060  13.268   0.939
51947W        W22547   8.708  27.866  14.422
51948W        W22548  27.019  29.204   3.612
51949W        W22549   8.183  43.800   2.834
51950W        W22550   9.581  18.196   4.169
51951W        W22551  20.440   0.550  14.809
51952W        W22552  25.690   8.918   3.411
51953W        W22553   9.717   5.899   2.313
51954W        W22554  17.568  19.806  14.801
51955W        W22555   8.757  24.805  12.367
51956W        W22556   3.286   3.807   1.470
51957W        W22557  41.499   3.816  13.919
51958W        W22558   6.434   3.300  12.350
51959W        W22559  42.467  25.442  11.661
51960W        W22560   2.078  34.216   3.110
51961W        W22561  31.501  23.529   0.784
51962W        W22562  10.938   8.376   2.345
51963W        W22563  28.716  42.373  12.151
51964W        W22564   1.659  30.039   4.386
51965W        W22565  34.909  35.358   1.855
51966W        W22566   8.879  36.890  11.423
51967W        W22567  16.985  38.015  12.389
51968W        W22568  31.031  44.491   2.297
51969W        W22569  12.283   2.025   4.648
51970W        W22570  28.513   8.549   3.650
51971W        W22571  39.021  38.052  14.198
51972W        W22572  38.563   1.945   3.812
51973W        W22573  11.318  34.345  11.466
51974W        W22574  16.082  19.573  12.526
51975W        W22575  27.152  26.963  14.886
51976W        W22576  42.510   8.802   1.730
51977W        W22577  14.402   7.540  13.986
51978W        W22578  19.370   2.993   1.661
51979W        W22579  20.086  25.207  14.994
51980W        W22580   7.271  32.112  14.495
51981W        W22581  42.989  35.773   4.162
51982W        W22582  25.416  36.905  13.294
51983W        W22583  44.176  15.216   3.206
51984W        W22584  29.620  24.307  12.274
51985W        W22585  30.995   3.025   2.460
51986W        W22586  21.571  26.018   2.122
51987W        W22587  40.111  34.993   0.245
51988W        W22588  32.812   3.868  12.369
51989W        W22589  21.015   5.828   1.589
51990W        W22590  27.024   4.849  11.098
51991W        W22591   1.363  42.352  14.308
51992W        W22592  26.017  16.889   0.489
51993W        W22593  21.542  23.814  12.065
51994W        W22594  39.986  41.856   0.388
51995W        W22595  32.499  38.601  14.076
51996W        W22596  41.412  24.470  11.234
51997W        W22597  15.995  14.080   1.727
51998W        W22598  29.771   0.851   1.819
51999W        W22599  21.416  17.684  10.605
52000W        W22600  38.805  10.974   2.675
52001W        W22601   5.778   0.079   2.358
52002W        W22602  40.307  20.699  14.858
52003W        W22603  41.468  43.538  13.390
52004W        W22604  29.608  10.303   3.645
52005W        W22605   6.799   0.912  13.852
52006W        W22606  20.176  11.140  14.543
52007W        W22607  22.406   9.781  14.476
52008W        W22608  37.057   4.426  14.451
52009W        W22609  34.521  18.940  12.243
52010W        W22610   8.319  17.068   2.099
52011W        W22611   9.883   2.232  11.951
52012W        W22612   7.758  11.081   3.096
52013W        W22613  35.526  10.464  11.694
52014W        W22614   5.777  28.428   1.391
52015W        W22615  14.073   6.406  12.122
52016W        W22616  18.987  13.129  14.830
52017W        W22617   2.909   4.430   3.992
52018W        W22618  29.557  12.891   2.384
52019W        W22619   7.318  15.169  13.010
52020W        W22620   6.048  16.051   4.475
52021W        W22621   4.645  22.094  12.819
52022W        W22622  12.798  16.012  11.158
52023W        W22623  43.268   5.716  11.841
52024W        W22624  30.027   7.175   2.853
52025W        W22625  30.995  37.374   0.690
52026W        W22626  15.166   7.831  14.995
52027W        W22627  20.902  19.438   2.266
52028W        W22628  41.390   1.128   1.659
52029W        W22629  30.321  23.459  11.105
52030W        W22630   0.183  40.894  11.898
52031W        W22631  26.891  25.586   3.188
52032W        W22632  29.842   5.244   2.929
52033W        W22633  20.530  22.321   0.982
52034W        W22634   7.664  37.661   0.799
52035W        W22635  42.614   3.711  11.195
52036W        W22636  12.285  33.928   4.827
52037W        W22637  30.532  15.654   3.308
52038W        W22638  37.414  29.857   0.335
52039W        W22639   5.833   8.027   3.568
52040W        W22640  31.836  41.516  12.637
52041W        W22641  16.023   6.361  10.645
52042W        W22642  12.629  18.781  14.806
52043W        W22643  28.005  41.276  14.781
52044W        W22644  14.748  22.490  13.877
52045W        W22645  21.121  27.514  12.525
52046W        W22646   0.923  17.682  11.126
52047W        W22647   9.913  22.140   2.170
52048W        W22648   9.764  27.198   1.197
52049W        W22649   3.248  18.029   3.729
52050W        W22650  13.752  15.743  12.140
52051W        W22651  16.736  37.648   4.284
52052W        W22652  13.800  22.256  14.818
52053W        W22653  25.074  18.344   5.131
52054W        W22654   1.396   5.935  10.645
52055W        W22655  20.190  30.894   1.341
52056W        W22656  12.203  25.684   1.544
52057W        W22657   5.098  19.870   5.126
52058W        W22658  31.993  24.080   1.241
52059W        W22659   6.729   3.967  14.988
52060W        W22660  37.912   1.577  12.136
52061W        W22661  24.200   8.234   0.663
52062W        W22662  19.990  21.651   3.642
52063W        W22663  34.573   3.298   1.812
52064W        W22664  30.616  17.802   4.627
52065W        W22665   3.834  10.579   2.712
52066W        W22666  30.721  13.312   1.339
52067W        W22667  28.965  35.455   3.046
52068W        W22668  24.133  15.794  13.005
52069W        W22669  41.189  32.261   3.812
52070W        W22670  32.783   8.450   2.626
52071W        W22671  35.786   4.348  11.121
52072W        W22672  39.581   6.360   2.570
52073W        W22673  11.255   0.677  14.806
52074W        W22674  43.543   3.139   0.991
52075W        W22675  26.943   4.065  11.231
52076W        W22676  17.256  16.388  13.499
52077W        W22677   4.442  27.787  13.983
52078W        W22678  17.217  25.545  14.283
52079W        W22679  17.272  40.091  10.653
52080W        W22680  26.595  15.777  12.571
52081W        W22681  36.467   6.009   1.192
52082W        W22682  44.833  33.143  12.492
52083W        W22683  10.766  35.004  10.566
52084W        W22684   9.944  19.695  13.607
52085W        W22685   9.335  25.559  10.895
52086W        W22686  44.019  29.614   4.610
52087W        W22687  14.917  36.036  11.047
52088W        W22688  33.922  10.340   3.276
52089W        W22689  13.992  17.810   1.410
52090W        W22690  24.743   0.927  10.261
52091W        W22691  13.823   3.417   0.472
52092W        W22692  23.226  18.750  11.577
52093W        W22693  42.483  28.141   4.184
52094W        W22694  24.589   5.108  12.069
52095W        W22695   5.924  17.778   3.726
52096W        W22696  25.103  38.938   3.586
52097W        W22697  14.793   4.226  12.430
52098W        W22698   2.372   8.756   5.020
52099W        W22699  41.198  41.836   1.706
52100W        W22700  20.339   1.291  12.058
52101W        W22701  33.346  38.799   2.716
52102W        W22702  42.578  44.956  14.020
52103W        W22703  35.965  18.280  11.530
52104W        W22704  30.615  24.053  13.594
52105W        W22705  34.847  33.533  11.758
52106W        W22706  34.178  25.708   4.130
52107W        W22707  36.051   5.684  13.418
52108W        W22708  26.526  15.843  10.650
52109W        W22709  21.543  43.390   4.814
52110W        W22710  43.722  31.849   2.204
52111W        W22711  20.743  21.765  14.990
52112W        W22712  21.746   2.373   0.499
52113W        W22713  34.164  38.714   2.353
52114W        W22714  28.412  30.101  14.887
52115W        W22715  43.758  12.161   0.347
52116W        W22716  42.434   1.374  14.034
52117W        W22717  16.598   4.907   3.865
52118W        W22718  18.656   1.433   3.118
52119W        W22719   7.242   8.210  13.375
52120W        W22720  44.933   0.981  13.568
52121W        W22721  37.839  37.571   0.835
52122W        W22722  29.114  44.225   0.495
52123W        W22723  39.594   2.437  12.950
52124W        W22724  29.652  17.589   2.610
52125W        W22725  20.298   6.027  14.690
52126W        W22726  33.974   6.720   3.169
52127W        W22727   2.827  42.436   1.660
52128W        W22728  26.185  44.371   2.829
52129W        W22729   3.373   0.833   4.451
52130W        W22730  15.805  32.947   2.432
52131W        W22731  24.956  28.628  14.609
52132W        W22732   3.195   2.783  12.064
52133W        W22733  11.759  31.556  13.122
52134W        W22734  18.224  22.341   1.248
52135W        W22735  36.596   5.230  14.857
52136W        W22736  13.159  18.571   4.482
52137W        W22737  30.345  41.984   1.664
52138W        W22738  43.388   8.917  11.646
52139W        W22739  19.657  19.583   3.580
52140W        W22740  12.110  18.743  10.441
52141W        W22741  29.218  42.874   1.532
52142W        W22742  34.441  37.267   3.804
52143W        W22743  25.085  28.278   0.004
52144W        W22744  20.591  20.295  11.914
52145W        W22745  23.051  38.341  10.770
52146W        W22746  38.300  40.938   4.697
52147W        W22747   0.873  29.135   1.966
52148W        W22748  38.449   6.337  14.005
52149W        W22749  27.728   7.195   4.162
52150W        W22750   1.161  17.471  10.724
52151W        W22751   3.353  15.470   5.009
52152W        W22752  22.954  31.169   2.726
52153W        W22753  12.173  39.781  14.343
52154W        W22754   1.173  23.947   1.229
52155W        W22755  43.173   7.029   2.215
52156W        W22756  14.806  33.677  12.850
52157W        W22757  38.856  27.497  13.364
52158W        W22758  18.490  37.602   3.385
52159W        W22759  33.790   5.228   3.194
52160W        W22760   8.810  39.980  12.790
52161W        W22761  43.968   9.306  12.430
52162W        W22762  19.745  15.706   3.188
52163W        W22763  19.137  36.371   2.383
52164W        W22764  20.224  22.121   2.352
52165W        W22765  40.520  44.778  12.042
52166W        W22766   1.491  37.714   4.610
52167W        W22767   7.910  36.534   3.553
52168W        W22768  36.831  20.164   2.319
52169W        W22769  21.683  20.815   3.744
52170W        W22770  42.803  41.550   2.741
52171W        W22771  14.896  29.191  11.568
52172W        W22772  44.580  42.212   4.187
52173W        W22773  25.615  39.427   0.983
52174W        W22774  32.846  30.967  12.022
52175W        W22775   9.199  12.754  14.353
52176W        W22776  23.010   7.124   3.840
52177W        W22777  36.170  43.986   0.294
52178W        W22778  43.735  28.626   1.254
52179W        W22779  22.702   9.104  13.860
52180W        W22780   4.666  41.341   1.811
52181W        W22781  28.994  30.840   0.008
52182W        W22782   4.749   1.837   2.681
52183W        W22783  20.564  29.372   1.035
52184W        W22784  26.677  40.572  12.016
52185W        W22785  18.717  18.492   4.148
52186W        W22786  31.375   6.941   2.494
52187W        W22787  34.252  17.453  14.210
52188W        W22788   1.416   5.564  13.967
52189W        W22789   1.535  41.598   1.871
52190W        W22790  44.364   0.239   0.053
52191W        W22791   0.767  18.643   0.833
52192W        W22792  10.255  43.914  11.390
52193W        W22793  23.519   5.337   3.754
52194W        W22794  11.874  15.819  14.931
52195W        W22795  35.424  42.270   1.819
52196W        W22796   4.831   6.658   1.751
52197W        W22797  25.492   5.738   2.712
52198W        W22798  34.609  17.970  13.601
52199W        W22799  18.376  13.539   4.928
52200W        W22800   9.354   1.696  11.521
52201W        W22801   5.490  34.295  11.723
52202W        W22802  15.335  36.319   1.384
52203W        W22803  24.310   2.238  13.975
52204W        W22804  21.919   8.762   1.421
52205W        W22805  16.789  25.940   3.196
52206W        W22806   6.443  27.932  11.754
52207W        W22807  13.347  12.620  14.255
52208W        W22808  13.432  14.917  12.509
52209W        W22809  20.047  33.324   0.849
52210W        W22810  15.644  26.178   4.812
52211W        W22811   8.504   8.972   0.884
52212W        W22812  18.581  33.506   0.351
52213W        W22813  34.435  10.333   0.800
52214W        W22814   4.741  39.764   0.818
52215W        W22815  29.697  34.044   1.331
52216W        W22816  13.161  24.460  12.296
52217W        W22817  35.467  14.001   1.358
52218W        W22818  15.113  22.069   1.864
52219W        W22819  12.308  23.300  10.656
52220W        W22820  18.127  30.894   3.266
52221W        W22821  33.063  40.997  11.145
52222W        W22822  37.923   3.252   4.284
52223W        W22823  16.493  18.658  13.884
52224W        W22824  28.024  15.794   4.099
52225W        W22825  10.412  40.546  11.794
52226W        W22826  21.146   2.016   2.957
52227W        W22827  41.273  18.676  13.550
52228W        W22828   1.133  10.414  13.322
52229W        W22829  17.690  23.239   3.175
52230W        W22830  22.725  44.679   2.446
52231W        W22831  17.179  30.591   3.642
52232W        W22832  28.414  11.322  12.283
52233W        W22833  18.368  26.699  11.346
52234W        W22834  19.635   8.223  14.020
52235W        W22835  13.858  44.687  13.033
52236W        W22836  38.895  12.667  11.244
52237W        W22837   8.733   6.415  13.004
52238W        W22838  34.049  36.752   1.242
52239W        W22839  36.845   4.514   1.829
52240W        W22840   2.943  27.466  11.421
52241W        W22841  22.071  14.645   0.999
52242W        W22842  31.003  33.365  13.817
52243W        W22843   5.406  14.059   1.428
52244W        W22844  38.063  12.860  14.320
52245W        W22845  21.989  44.819  12.517
52246W        W22846  21.684  12.597  12.110
52247W        W22847  43.917  21.167   1.333
52248W        W22848  10.365  34.314   1.262
52249W        W22849  40.760  39.861  10.482
52250W        W22850  40.384  12.187  13.320
52251W        W22851  28.126   8.079  12.997
52252W        W22852  35.028  43.506   2.171
52253W        W22853   9.407  41.516   3.726
52254W        W22854   6.947  39.749  13.506
52255W        W22855  24.266  22.282   1.402
52256W        W22856  43.707  29.217  14.843
52257W        W22857  42.831  29.494  10.732
52258W        W22858  19.818   0.108   0.132
52259W        W22859  14.844  19.937   0.414
52260W        W22860   4.753  32.299  13.873
52261W        W22861  41.303  14.126   2.406
52262W        W22862  21.321  24.088  11.380
52263W        W22863  44.036  31.444   3.114
52264W        W22864   2.570  11.725  14.597
52265W        W22865  15.389  19.414  10.057
52266W        W22866  26.248   7.407   1.454
52267W        W22867  42.541  29.105   0.512
52268W        W22868  42.436  12.842   4.610
52269W        W22869  36.600  24.566  11.931
52270W        W22870   6.888  37.413  11.980
52271W        W22871  10.286  36.919   1.195
52272W        W22872   6.205  30.620  14.230
52273W        W22873   4.566  30.428   3.173
52274W        W22874  11.781  21.399  10.526
52275W        W22875   6.260   5.984  13.407
52276W        W22876  32.393   4.787   2.307
52277W        W22877  30.669   6.485   2.835
52278W        W22878  17.080  44.436  11.916
52279W        W22879  43.109   4.139  12.139
52280W        W22880   9.818   4.871   4.370
52281W        W22881  38.335   8.711   1.024
52282W        W22882   6.337  14.027   3.749
52283W        W22883  41.300   8.825   1.098
52284W        W22884  35.727  40.694   0.253
52285W        W22885  37.819  20.549   4.660
52286W        W22886  28.185  16.574  14.291
52287W        W22887  17.551  39.423  10.677
52288W        W22888  23.185  21.293   3.185
52289W        W22889  32.346  13.947   3.685
52290W        W22890  19.021  18.841  12.703
52291W        W22891   8.843  31.430  14.787
52292W        W22892  36.532  38.533  14.282
52293W        W22893  27.333   7.595  11.210
52294W        W22894  18.061  17.306   4.402
52295W        W22895  43.425  23.507   4.120
52296W        W22896  19.645   7.078   4.033
52297W        W22897  33.827   6.042  14.171
52298W        W22898  22.580  20.710  12.673
52299W        W22899  37.588   5.193  14.915
52300W        W22900  28.120   4.989  13.051
52301W        W22901  35.842   9.318   1.734
52302W        W22902  25.065  41.387   2.432
52303W        W22903  13.148  33.219  13.450
52304W        W22904  10.060   8.790   5.069
52305W        W22905  27.224   0.009  11.991
52306W        W22906   5.649   9.612  12.963
52307W        W22907   0.807  40.501   3.470
52308W        W22908  24.080  15.619  14.381
52309W        W22909  25.518  24.626   1.304
52310W        W22910  38.941  27.132   2.869
52311W        W22911  31.975   4.706  10.755
52312W        W22912   8.464  13.045   2.207
52313W        W22913  28.649   6.430  14.961
52314W        W22914  40.687  37.867  11.767
52315W        W22915  35.637  39.392   0.770
52316W        W22916   0.884  29.368   4.156
52317W        W22917  43.491  17.223   0.457
52318W        W22918  39.800  23.477   0.434
52319W        W22919  24.114  16.891   4.045
52320W        W22920  35.999  27.149   3.433
52321W        W22921  21.090  41.511   0.548
52322W        W22922  44.769  14.743   4.773
52323W        W22923  11.884  15.145   2.447
52324W        W22924  31.980  28.212  12.527
52325W        W22925   3.175  37.536  11.911
52326W        W22926   0.420  10.352  12.300
52327W        W22927  15.390  34.903   2.539
52328W        W22928  18.745   9.638  13.391
52329W        W22929  12.371  42.225   1.465
52330W        W22930  39.284   1.650  14.872
52331W        W22931  18.069  22.770   4.084
52332W        W22932  17.690  15.276  13.909
52333W        W22933  30.598  32.217   3.664
52334W        W22934  22.754   7.816  11.550
52335W        W22935   2.231   3.861  11.475
52336W        W22936  15.893   0.136  14.542
52337W        W22937   4.770  31.870   0.076
52338W        W22938  18.630  43.274  11.587
52339W        W22939  14.319  30.438  14.881
52340W        W22940  35.984  27.079   1.957
52341W        W22941   4.920   0.692   3.725
52342W        W22942  31.611  31.935  12.861
52343W        W22943  30.942   1.790  10.289
52344W        W22944   3.671  27.076   1.735
52345W        W22945  14.707  44.705  10.759
52346W        W22946   6.719  17.759   2.319
52347W        W22947  12.344  18.745   1.668
52348W        W22948  12.189  41.511   3.274
52349W        W22949  22.674  16.218   2.724
52350W        W22950  20.566  23.654  14.418
52351W        W22951  29.536  44.527   4.526
52352W        W22952  43.835   0.263   4.061
52353W        W22953   0.909  35.752  13.447
52354W        W22954  15.221  19.023   2.363
52355W        W22955  31.172  32.513   4.336
52356W        W22956  14.266  27.603  12.837
52357W        W22957  27.210  17.024   4.160
52358W        W22958  28.483  39.007  13.446
52359W        W22959  19.572   5.157   2.262
52360W        W22960   0.483  37.344   0.369
52361W        W22961  38.895  24.480   2.352
52362W        W22962  11.555  29.898   9.916
52363W        W22963  24.469  25.650   4.511
52364W        W22964  15.160  13.538   3.081
52365W        W22965  44.919  15.175   0.779
52366W        W22966  13.683  36.619  10.934
52367W        W22967  23.261  31.088  13.384
52368W        W22968  13.813  12.374  12.455
52369W        W22969  34.184  36.669   0.466
52370W        W22970  34.044  26.487  12.635
52371W        W22971   4.469  19.225  14.655
52372W        W22972  28.392  10.309  11.565
52373W        W22973  30.280   5.461   0.462
52374W        W22974  24.184  20.065  11.965
52375W        W22975  30.172  38.586   4.550
52376W        W22976  15.766   8.569  13.270
52377W        W22977   2.197  29.203   2.183
52378W        W22978  38.918   1.479  13.679
52379W        W22979  28.583  38.584   2.305
52380W        W22980  24.293   7.163  13.048
52381W        W22981  27.185  32.351  13.922
52382W        W22982  41.374   4.898  12.167
52383W        W22983   7.723   0.905  11.965
52384W        W22984  31.972  37.245  12.862
52385W        W22985  12.392  44.279  11.586
52386W        W22986  29.113  42.283   1.937
52387W        W22987  12.560  27.442  11.131
52388W        W22988   1.009  16.835   1.123
52389W        W22989  10.449  22.126   2.156
52390W        W22990  16.880  19.828   2.805
52391W        W22991  28.055   6.280   0.881
52392W        W22992  38.890   3.931  11.978
52393W        W22993  35.955  19.442  11.832
52394W        W22994  41.140  10.793  13.264
52395W        W22995  28.355  28.945  13.804
52396W        W22996  43.184  20.974   2.827
52397W        W22997  20.661  12.053  12.972
52398W        W22998   6.349  29.063  12.505
52399W        W22999  24.685  13.114  12.475
52400W        W23000  32.553  38.855   1.441
52401W        W23001  30.912  23.963  12.420
52402W        W23002  19.425  30.959   3.473
52403W        W23003   5.490  34.549   3.170
52404W        W23004  44.888   5.534  11.489
52405W        W23005  44.252   1.077   0.414
52406W        W23006   9.346   4.664  11.196
52407W        W23007  16.343   6.019   1.874
52408W        W23008  19.862  37.843  11.160
52409W        W23009  43.626  33.956   1.416
52410W        W23010  40.264  37.266  14.769
52411W        W23011   3.997  44.755  11.456
52412W        W23012  37.062  10.084  11.957
52413W        W23013   9.873  15.772  14.818
52414W        W23014  42.044  23.308   3.149
52415W        W23015   8.733  14.244   4.630
52416W        W23016  33.569  24.508  13.754
52417W        W23017  30.381  19.628   1.031
52418W        W23018  17.386  43.296  13.769
52419W        W23019   4.911  36.553  11.903
52420W        W23020  17.034  43.869   1.811
52421W        W23021   6.790  43.994   4.333
52422W        W23022  22.269   0.840  10.791
52423W        W23023  12.377  38.686   3.340
52424W        W23024  15.965  10.078   4.057
52425W        W23025  18.249  35.979   0.453
52426W        W23026   4.190  38.504   4.909
52427W        W23027   4.727  14.667  14.417
52428W        W23028  44.923  36.311  12.435
52429W        W23029   0.720   6.415  10.389
52430W        W23030  29.453  42.696   1.983
52431W        W23031  13.131   0.817  13.125
52432W        W23032  10.863  27.687  12.195
52433W        W23033  37.575  43.140  13.088
52434W        W23034  22.228  10.428   2.474
52435W        W23035  23.248  31.049  14.820
52436W        W23036  22.257   0.323   0.425
52437W        W23037  25.578  43.839  12.544
52438W        W23038  26.119   8.459  11.186
52439W        W23039  23.131  43.459  10.191
52440W        W23040  18.616   6.445   0.242
52441W        W23041  33.268  18.282   0.181
52442W        W23042  18.206  29.243  11.518
52443W        W23043  15.005   2.093   0.671
52444W        W23044  26.327   5.392   4.307
52445W        W23045  33.181  35.856   4.045
52446W        W23046   9.942  33.317   1.402
52447W        W23047  24.659  27.706   3.894
52448W        W23048  15.651  36.996   3.426
52449W        W23049  19.112  10.211  12.324
52450W        W23050   8.856  40.827  12.978
52451W        W23051   9.856  17.516   0.895
52452W        W23052  38.043  25.603  14.014
52453W        W23053   7.706  31.087  10.657
52454W        W23054  39.908  11.289  10.546
52455W        W23055   8.844  10.929   3.739
52456W        W23056  16.510  25.624   4.961
52457W        W23057  19.209   5.426   3.334
52458W        W23058  24.463  18.296   2.845
52459W        W23059  35.763   2.151   1.297
52460W        W23060  21.932  40.721  11.171
52461W        W23061  36.115  25.187  11.569
52462W        W23062  11.660   5.804   2.717
52463W        W23063  34.095  42.524  14.992
52464W        W23064  27.899  32.213   0.459
52465W        W23065   8.343  22.566  13.374
52466W        W23066  11.861  35.161   1.753
52467W        W23067  41.522  15.043  12.444
52468W        W23068  13.655  39.096  13.497
52469W        W23069  35.831  42.256   0.904
52470W        W23070  39.845  39.163   0.182
52471W        W23071  14.354  37.738  14.350
52472W        W23072  32.597   9.972   2.133
52473W        W23073   5.675  35.749   3.121
52474W        W23074   3.581  13.040   3.624
52475W        W23075  44.524  13.898  10.426
52476W        W23076  17.485   7.364   0.629
52477W        W23077   7.375  38.835   2.759
52478W        W23078  38.569  30.630  11.593
52479W        W23079  38.632  42.934   4.471
52480W        W23080  18.648  13.067   0.223
52481W        W23081  31.094  13.698  14.718
52482W        W23082  14.842  10.328   0.915
52483W        W23083  19.254   6.430  12.968
52484W        W23084  29.822   3.772  13.495
52485W        W23085  29.480   4.459   0.233
52486W        W23086  26.399  14.120   1.695
52487W        W23087  20.025  40.861   3.584
52488W        W23088  38.531  16.697   1.240
52489W        W23089  32.629  38.954   4.482
52490W        W23090   5.801  35.038   2.451
52491W        W23091  15.157   1.039  12.438
52492W        W23092   1.796  19.741   4.653
52493W        W23093  33.648  28.121   4.150
52494W        W23094   1.162  40.740   3.183
52495W        W23095  18.788  13.782   1.421
52496W        W23096  32.661  28.525   1.847
52497W        W23097  21.867   9.295   3.887
52498W        W23098  40.950  44.153  14.058
52499W        W23099  20.128  19.625   3.305
52500W        W23100   5.927  13.874  12.044
52501W        W23101  11.070  40.515   2.697
52502W        W23102  31.847  29.950   4.616
52503W        W23103   8.606  38.434  13.006
52504W        W23104  22.473   6.680   1.465
52505W        W23105  39.933  22.527  12.990
52506W        W23106  32.723  14.132  11.682
52507W        W23107  16.293  33.668  10.956
52508W        W23108  24.630  15.175   4.148
52509W        W23109   3.227   5.809  14.913
52510W        W23110   8.414   0.828   3.746
52511W        W23111  17.839   9.769   0.374
52512W        W23112  11.254  33.964   2.817
52513W        W23113  36.570  19.919  13.869
52514W        W23114   3.913  16.804  10.159
52515W        W23115  19.188  15.935  11.068
52516W        W23116  30.004  17.546  12.588
52517W        W23117  22.596  19.039  14.401
52518W        W23118  37.808  26.021   1.884
52519W        W23119  12.360  19.182  11.670
52520W        W23120   9.773   9.927  10.348
52521W        W23121  36.332   9.788  11.705
52522W        W23122   9.748  37.147   2.410
52523W        W23123  32.179  20.003   2.436
52524W        W23124  30.702  30.836  11.092
52525W        W23125  43.184  22.070   3.668
52526W        W23126  21.093   1.244  13.992
52527W        W23127  36.003  23.666  10.678
52528W        W23128  32.590  42.096  12.405
52529W        W23129  15.779  34.090   3.274
52530W        W23130  10.945  43.901  13.977
52531W        W23131  42.399   7.093   0.140
52532W        W23132  21.870   7.944   1.465
52533W        W23133   3.334  42.702   2.822
52534W        W23134  35.645  27.155   2.624
52535W        W23135  34.484   3.885   3.159
52536W        W23136  41.496   5.243  11.714
52537W        W23137  31.541  19.720  12.084
52538W        W23138  13.092   9.676  14.786
52539W        W23139   3.946  17.655  12.627
52540W        W23140  40.562  16.620   4.097
52541W        W23141   4.301  35.442   0.811
52542W        W23142  22.225  43.874   3.880
52543W        W23143  41.717  15.053  12.994
52544W        W23144  26.148  39.976   1.753
52545W        W23145   1.115   4.405   1.259
52546W        W23146  31.190  11.127  13.783
52547W        W23147  16.134  22.210   0.924
52548W        W23148   5.986  43.317   1.187
52549W        W23149  22.186  10.561   1.960
52550W        W23150  32.719   1.473   2.552
52551W        W23151  29.640  33.539  14.726
52552W        W23152   9.382  14.233  14.899
52553W        W23153  17.975  10.477  11.683
52554W        W23154  19.083  26.497   0.381
52555W        W23155  44.711  30.752  10.627
52556W        W23156  21.058  43.808  14.966
52557W        W23157  16.155  38.379   4.056
52558W        W23158  10.206   4.443  11.775
52559W        W23159  32.509  24.671   3.798
52560W        W23160   0.031  23.246  10.599
52561W        W23161  16.282  40.453  12.534
52562W        W23162  24.331   8.761  11.848
52563W        W23163  19.976  36.136  14.760
52564W        W23164  24.981  28.490   1.486
52565W        W23165   8.188  10.703  11.917
52566W        W23166  25.218  41.000   2.070
52567W        W23167  36.827  31.416  12.498
52568W        W23168  18.658   4.655   0.261
52569W        W23169   7.774  10.254  14.277
52570W        W23170  28.172   5.852   3.394
52571W        W23171   2.948  14.776  13.083
52572W        W23172  21.723  35.042  14.828
52573W        W23173  29.219  34.498   0.247
52574W        W23174  38.689  41.933  12.105
52575W        W23175   8.446  22.542  11.080
52576W        W23176  44.188   3.909  13.169
52577W        W23177  11.285  24.642   3.681
52578W        W23178   9.958  24.601   3.845
52579W        W23179  10.778  28.254  13.997
52580W        W23180  27.637  20.729   0.286
52581W        W23181  14.688  36.939  14.879
52582W        W23182  36.035  15.902   0.211
52583W        W23183  36.841   7.560  12.095
52584W        W23184  18.863   6.845   3.147
52585W        W23185  22.087  42.535  12.650
52586W        W23186   2.410  14.235   0.702
52587W        W23187  24.218  14.163  13.039
52588W        W23188   6.323  42.239   1.813
52589W        W23189  29.207  25.544   1.454
52590W        W23190  18.527  32.661   1.247
52591W        W23191  34.802  40.500   2.279
52592W        W23192  17.880   2.340  10.802
52593W        W23193  16.718  27.598   0.748
52594W        W23194  36.894  27.486  13.719
52595W        W23195  21.080   7.185   2.860
52596W        W23196  32.219  14.659  14.887
52597W        W23197  37.165  32.049   2.794
52598W        W23198  21.405   3.583   1.402
52599W        W23199  36.621  31.767  13.889
52600W        W23200   2.177  24.688  12.433
52601W        W23201  10.263  35.460  12.011
52602W        W23202   7.983   8.242  11.705
52603W        W23203   9.705  29.017   1.712
52604W        W23204  26.926  14.986  12.471
52605W        W23205  43.387   1.201   2.108
52606W        W23206   1.966  41.482   1.311
52607W        W23207   6.429   0.231   3.975
52608W        W23208  19.070   7.349   1.427
52609W        W23209   9.089  21.696   4.260
52610W        W23210  39.600  28.875   0.951
52611W        W23211  17.285  37.351   5.010
52612W        W23212  17.739  39.447  13.325
52613W        W23213  30.570  31.209  13.859
52614W        W23214   7.745   8.644   1.319
52615W        W23215  24.978  17.743   2.311
52616W        W23216  15.646  16.568   3.276
52617W        W23217  10.343  37.594  12.819
52618W        W23218  40.840   5.317   1.853
52619W        W23219  33.702  35.934   1.795
52620W        W23220   5.810  16.387   1.445
52621W        W23221  22.226   2.047  14.878
52622W        W23222  17.756  14.327   3.931
52623W        W23223   7.621   9.642  13.992
52624W        W23224   4.961  31.936   3.157
52625W        W23225  16.714  21.274   2.836
52626W        W23226  30.018  19.569   3.728
52627W        W23227  21.029  32.500   1.572
52628W        W23228  30.972   4.736   1.306
52629W        W23229  33.180  40.435   3.251
52630W        W23230  14.802  31.538   4.347
52631W        W23231  24.421   7.001  12.573
52632W        W23232  16.368   7.806   1.189
52633W        W23233  42.424  10.572   0.755
52634W        W23234   0.717  16.657  14.818
52635W        W23235   9.686  19.203   2.954
52636W        W23236  20.153  31.288   4.981
52637W        W23237  21.526  19.683  13.458
52638W        W23238  21.269  24.501   2.947
52639W        W23239  37.501   4.757   0.740
52640W        W23240  37.063  13.211   0.327
52641W        W23241  26.207  29.828   3.287
52642W        W23242   6.461  30.382  10.247
52643W        W23243  40.577   5.927   1.209
52644W        W23244  16.758  37.320   3.896
52645W        W23245  25.668  44.365  12.507
52646W        W23246   7.438  43.027   0.660
52647W        W23247  12.738   5.791  11.333
52648W        W23248  21.185  20.308   1.734
52649W        W23249   5.413  29.405   1.346
52650W        W23250  21.941  34.430   2.186
52651W        W23251   5.793  40.440  13.414
52652W        W23252  34.422  17.574  10.652
52653W        W23253   3.436  27.972   0.439
52654W        W23254  30.073  12.740   3.279
52655W        W23255  10.753  36.157  13.678
52656W        W23256   7.963  26.388   4.665
52657W        W23257  10.429  36.325   5.031
52658W        W23258   8.757  18.026  12.536
52659W        W23259   0.900   1.235   0.829
52660W        W23260  33.820   7.055   2.821
52661W        W23261  24.437  26.055   1.306
52662W        W23262  23.424  15.589  10.928
52663W        W23263  24.927  38.038   0.106
52664W        W23264   0.486  28.017  12.141
52665W        W23265  41.690  12.157   0.585
52666W        W23266   4.961  31.868  10.570
52667W        W23267  44.234  31.845   4.533
52668W        W23268  11.325   8.500  10.722
52669W        W23269   2.420  28.988   4.378
52670W        W23270  19.163  37.569   4.694
52671W        W23271  32.344  41.163   2.600
52672W        W23272  44.770  26.254   2.312
52673W        W23273   6.896  39.250  13.432
52674W        W23274  35.210  41.451  13.899
52675W        W23275   7.845  16.555   3.162
52676W        W23276  28.707   7.304   0.404
52677W        W23277  30.440  33.724  12.425
52678W        W23278  18.695  43.799  11.595
52679W        W23279  17.897  33.001   4.367
52680W        W23280  27.301  18.259  11.086
52681W        W23281  40.507  24.732  13.047
52682W        W23282  33.666  10.713   2.606
52683W        W23283  37.524  39.084   1.642
52684W        W23284  10.187  17.112   1.685
52685W        W23285  24.242  11.796   0.886
52686W        W23286  12.533   4.082   1.331
52687W        W23287  26.896  22.064   3.677
52688W        W23288  10.475  29.165   2.937
52689W        W23289  18.817  20.910   3.394
52690W        W23290  15.083  41.033  12.681
52691W        W23291  20.638  37.951  14.309
52692W        W23292  11.622  25.979  11.510
52693W        W23293  32.496  15.086   0.315
52694W        W23294  11.706  26.424   4.701
52695W        W23295   8.943  36.589  13.021
52696W        W23296   4.679  29.337   2.646
52697W        W23297  20.493   9.211  11.572
52698W        W23298  20.685  37.114   3.375
52699W        W23299  30.652  30.036   2.330
52700W        W23300  16.561  20.909  10.811
52701W        W23301   7.322  13.795   2.315
52702W        W23302  43.890   5.015   1.374
52703W        W23303  27.124   5.632   0.452
52704W        W23304  13.608  28.099   0.402
52705W        W23305   3.463  20.110   4.146
52706W        W23306  38.340   2.083   0.105
52707W        W23307   2.183   4.360  14.897
52708W        W23308   8.157  41.734  13.448
52709W        W23309  36.376   9.707   4.355
52710W        W23310  38.309   2.280   4.108
52711W        W23311  13.108  18.066   2.829
52712W        W23312  24.681  22.574   3.256
52713W        W23313  14.093  20.784   1.254
52714W        W23314   1.055  37.963  12.961
52715W        W23315  12.550  44.790   1.816
52716W        W23316  27.487  17.654   1.728
52717W        W23317  29.625  36.562  12.864
52718W        W23318  15.946  15.556   4.091
52719W        W23319  16.788  36.460   1.369
52720W        W23320  20.822  11.935   2.820
52721W        W23321  37.133   8.266  13.644
52722W        W23322  17.611  21.473  10.408
52723W        W23323  19.251   9.080   2.359
52724W        W23324  27.720  23.133  10.780
52725W        W23325  10.366  15.160  13.727
52726W        W23326  25.738  23.008   2.318
52727W        W23327  41.860  32.058  14.735
52728W        W23328  29.942  34.321   0.801
52729W        W23329  10.291  21.331   0.863
52730W        W23330  12.633  23.817  14.325
52731W        W23331  27.367  38.866  14.533
52732W        W23332   2.451   0.336   0.145
52733W        W23333  18.174  18.515  14.542
52734W        W23334  10.862   0.409   0.759
52735W        W23335  34.905  30.527  11.053
52736W        W23336   5.045   4.270  12.113
52737W        W23337   8.848  20.834  13.862
52738W        W23338   0.017  44.683  11.342
52739W        W23339   5.800   8.654   4.981
52740W        W23340   3.116  30.201   3.472
52741W        W23341  20.498   6.784  10.794
52742W        W23342  29.696  33.607  12.932
52743W        W23343  29.625  23.698   2.779
52744W        W23344   7.346  35.125   2.692
52745W        W23345   2.716  27.300   4.786
52746W        W23346  35.705  29.389  11.907
52747W        W23347  18.226  40.958  12.400
52748W        W23348  11.781   4.460  12.902
52749W        W23349  40.332  34.593  12.435
52750W        W23350  15.806  22.736  14.471
52751W        W23351   1.424   3.335  11.186
52752W        W23352  35.362  17.575  13.524
52753W        W23353  29.591  27.278  13.616
52754W        W23354  44.492  16.000   4.835
52755W        W23355  10.723   9.051  11.134
52756W        W23356   7.111  23.102   4.134
52757W        W23357  38.912  20.420   4.132
52758W        W23358  18.157  34.607  12.444
52759W        W23359  10.693  25.647  11.015
52760W        W23360   6.710   7.676   3.774
52761W        W23361  28.489  44.790   0.806
52762W        W23362   1.037  38.399   1.937
52763W        W23363  43.331  21.011  11.530
52764W        W23364  42.545  35.130   4.519
52765W        W23365  19.169  36.532  13.117
52766W        W23366  17.226  13.250   2.754
52767W        W23367   7.477  26.969   1.911
52768W        W23368  31.997  30.173  14.697
52769W        W23369  17.209  12.702  14.763
52770W        W23370   1.913  21.532  14.701
52771W        W23371  13.960  11.174   5.125
52772W        W23372   6.521  29.683   4.179
52773W        W23373  11.071  31.421  11.073
52774W        W23374  10.733   2.174   1.364
52775W        W23375   3.426  44.208  14.876
52776W        W23376   7.994  40.382  13.969
52777W        W23377  28.606  18.604  11.469
52778W        W23378  40.646  35.005  14.404
52779W        W23379  19.598  30.174   2.727
52780W        W23380  22.310  16.160  11.646
52781W        W23381  32.104  34.777  14.420
52782W        W23382  27.636  31.729   5.071
52783W        W23383  28.668  13.559  11.852
52784W        W23384  28.227   7.276   3.285
52785W        W23385   4.992   7.849   1.797
52786W        W23386  17.266  40.425   3.303
52787W        W23387   1.687  42.748  11.842
52788W        W23388  13.196   0.582   4.960
52789W        W23389  37.914   3.524  13.399
52790W        W23390  34.418   4.002  11.128
52791W        W23391   5.127   9.381   0.713
52792W        W23392  26.156  35.881  11.045
52793W        W23393  16.792  44.278   2.033
52794W        W23394  41.559  41.327   0.880
52795W        W23395   5.536  24.203  13.923
52796W        W23396  26.587   0.679   2.612
52797W        W23397  38.548  27.452  14.970
52798W        W23398   9.835  26.692  10.597
52799W        W23399  39.589  35.477  11.274
52800W        W23400   1.581  44.310   1.524
52801W        W23401  14.187  13.924   3.279
52802W        W23402  11.158  34.168   2.166
52803W        W23403  40.800  32.628  12.287
52804W        W23404   4.947   9.935  11.146
52805W        W23405  43.784  43.513   0.505
52806W        W23406  14.342  12.605  13.871
52807W        W23407  41.239   8.741   2.038
52808W        W23408  28.732   2.382   0.889
52809W        W23409  34.587  38.400  14.246
52810W        W23410  39.106   5.391   3.820
52811W        W23411  40.650  21.086  13.043
52812W        W23412  13.511  17.368  14.856
52813W        W23413  40.883  42.436   0.809
52814W        W23414  23.924  43.815   0.682
52815W        W23415  41.730  19.200  12.443
52816W        W23416  38.949  40.458   3.263
52817W        W23417  36.866   3.917  10.999
52818W        W23418  36.450  28.854  11.179
52819W        W23419  34.040  15.229   4.463
52820W        W23420  33.613  44.018  12.951
52821W        W23421  38.305  37.944   2.198
52822W        W23422  40.115  33.552   2.731
52823W        W23423  41.917   0.651  14.717
52824W        W23424  44.491  37.348  14.010
52825W        W23425  21.927  27.001  14.524
52826W        W23426   7.706  26.024   3.187
52827W        W23427  18.540  28.772   1.351
52828W        W23428  24.195  42.716   1.267
52829W        W23429   8.440  29.996  13.459
52830W        W23430  26.617  33.879  11.540
52831W        W23431  25.803   7.840  11.959
52832W        W23432   6.339   4.684  14.295
52833W        W23433   9.664  22.503   3.547
52834W        W23434  27.372  27.872   4.848
52835W        W23435  27.914  18.511   4.364
52836W        W23436  43.306  37.394  14.021
52837W        W23437  38.402  33.917  14.640
52838W        W23438  27.550  26.197   1.282
52839W        W23439  26.242   0.688   0.454
52840W        W23440  41.335  29.272  13.535
52841W        W23441  19.368  24.976  13.092
52842W        W23442  20.636  42.759   1.256
52843W        W23443  14.208   3.307  14.664
52844W        W23444  38.455  27.682  11.351
52845W        W23445   6.395  10.672   1.502
52846W        W23446   3.649  15.886   4.947
52847W        W23447  31.175   1.354   3.398
52848W        W23448   0.367  26.292   0.275
52849W        W23449  14.711   6.931  11.089
52850W        W23450  36.974   5.916   0.923
52851W        W23451   0.296   7.197   4.770
52852W        W23452  23.706  43.155  12.829
52853W        W23453  33.251  23.453  13.156
52854W        W23454   5.852  30.335   1.239
52855W        W23455   8.070  42.983   4.527
52856W        W23456   3.390   9.127   0.388
52857W        W23457  44.257  39.376   2.393
52858W        W23458  42.896  23.619   4.378
52859W        W23459  32.058  32.217  11.662
52860W        W23460  37.854   1.019   3.541
52861W        W23461  11.685  43.587   3.803
52862W        W23462   1.375  37.874   0.389
52863W        W23463  26.109  16.885  12.443
52864W        W23464   8.231  26.219  14.432
52865W        W23465   1.930   9.325  14.959
52866W        W23466   5.709  17.128  14.842
52867W        W23467  37.006  31.609   3.255
52868W        W23468  23.137  27.975  11.455
52869W        W23469  21.144  23.629   4.433
52870W        W23470  30.069  21.422  13.552
52871W        W23471  10.185  10.671   0.202
52872W        W23472  36.899  10.344  13.351
52873W        W23473  26.559  42.857  12.499
52874W        W23474  23.481   0.634   3.580
52875W        W23475   9.826  34.030   2.922
52876W        W23476  16.212  11.284   4.493
52877W        W23477  28.434  27.437   4.129
52878W        W23478  23.130  11.057   5.156
52879W        W23479  13.001   7.714   2.374
52880W        W23480   5.439  21.855  11.156
52881W        W23481  28.383   1.486  11.175
52882W        W23482  36.585  11.372   3.718
52883W        W23483  18.307  22.473  11.143
52884W        W23484   3.484  17.135   4.231
52885W        W23485   6.764   8.877  14.919
52886W        W23486  30.515  20.143   0.961
52887W        W23487  43.289  20.202   0.357
52888W        W23488  14.253  39.261   3.578
52889W        W23489  16.094  43.837  12.373
52890W        W23490  28.684  26.829   3.353
52891W        W23491  32.994   2.232  11.136
52892W        W23492  18.173   8.688  10.821
52893W        W23493  39.405  39.165   1.336
52894W        W23494   2.140  12.686   4.237
52895W        W23495  21.262  39.513  12.081
52896W        W23496   3.975  30.030  13.596
52897W        W23497   8.152  38.735  13.314
52898W        W23498  39.627  23.632  13.057
52899W        W23499  23.673   3.672   4.617
52900W        W23500   5.513  35.117  13.493
52901W        W23501   6.339  40.045  13.039
52902W        W23502   5.332  27.446   0.307
52903W        W23503  14.720  38.903  10.110
52904W        W23504  15.573   5.906   2.598
52905W        W23505  41.877  38.921   4.572
52906W        W23506  31.573  27.680   2.788
52907W        W23507   8.449  23.529   0.444
52908W        W23508  25.520  15.579   0.300
52909W        W23509  34.002   8.481  14.260
52910W        W23510  38.393  35.638   1.551
52911W        W23511  18.193  36.839  14.303
52912W        W23512  14.826  34.466   3.182
52913W        W23513  10.231  13.211   1.730
52914W        W23514  15.105   7.565  11.557
52915W        W23515  22.144  10.005   2.785
52916W        W23516  14.290  26.138   4.240
52917W        W23517  11.757   6.183  10.811
52918W        W23518  22.773  30.176   1.734
52919W        W23519   1.328  11.762  10.491
52920W        W23520  42.870  29.841  12.945
52921W        W23521  27.529  10.348   0.261
52922W        W23522   5.294   0.745   4.068
52923W        W23523  37.469   8.256  11.908
52924W        W23524  14.723   6.177   4.684
52925W        W23525  31.602  40.775  12.177
52926W        W23526  42.544  39.971  14.876
52927W        W23527  44.884  32.062  14.293
52928W        W23528  14.049  24.963   0.305
52929W        W23529  28.490   0.287  11.497
52930W        W23530   9.116  11.704  14.353
52931W        W23531  42.189  10.319  14.793
52932W        W23532  39.045  15.029   2.857
52933W        W23533  38.903  14.618  14.474
52934W        W23534  34.179  38.090   0.501
52935W        W23535  25.028  31.557  14.911
52936W        W23536  17.018  17.108  13.035
52937W        W23537  29.628  35.601  12.876
52938W        W23538  19.260  32.673   2.893
52939W        W23539  39.065  26.410   9.902
52940W        W23540   9.099  33.110   3.450
52941W        W23541   8.488  24.667   1.262
52942W        W23542  33.470  36.061   1.330
52943W        W23543  28.823  44.283  14.379
52944W        W23544  25.980   1.289  10.971
52945W        W23545  38.358  10.556   1.688
52946W        W23546  18.042  38.402  10.975
52947W        W23547   9.828  20.740  12.848
52948W        W23548  17.105  44.965  11.943
52949W        W23549  34.892  12.333  14.408
52950W        W23550   2.288  35.852  11.641
52951W        W23551  21.407  35.391   2.316
52952W        W23552  41.567  38.908  10.511
52953W        W23553  32.209  18.766   2.660
52954W        W23554  13.589   6.486   4.202
52955W        W23555   3.560  35.224   5.190
52956W        W23556  21.631  13.068   0.357
52957W        W23557  35.087   8.732   2.834
52958W        W23558  22.596  24.681  13.398
52959W        W23559  22.867  41.224  12.128
52960W        W23560  24.570  29.724  13.576
52961W        W23561  21.189  19.079   2.628
52962W        W23562  16.296  44.306   1.875
52963W        W23563  28.923   0.453  12.330
52964W        W23564  44.795  39.240   0.792
52965W        W23565  31.678  15.292  13.966
52966W        W23566  41.203  10.870  12.380
52967W        W23567  20.124  44.854  12.150
52968W        W23568  29.444  18.190   3.718
52969W        W23569  33.442   8.817   0.439
52970W        W23570  36.274  43.017   3.183
52971W        W23571  24.520   0.710  12.972
52972W        W23572  35.712  11.096  13.093
52973W        W23573  40.012  12.624   0.075
52974W        W23574   3.818   4.124  13.029
52975W        W23575  35.591  25.299  11.608
52976W        W23576   3.657  27.515   0.531
52977W        W23577  42.358   9.820  12.909
52978W        W23578  21.663   2.481   3.820
52979W        W23579   6.688  37.921  12.422
52980W        W23580  25.532  27.662  13.844
52981W        W23581   0.844  25.739   3.708
52982W        W23582   6.638   1.418   1.310
52983W        W23583  10.741  20.145   0.765
52984W        W23584  44.325  35.484   0.430
52985W        W23585  36.885  10.630  12.549
52986W        W23586  34.883  15.894   2.579
52987W        W23587  11.379  22.134  14.458
52988W        W23588  41.885  39.056  12.152
52989W        W23589  44.733  19.765   0.491
52990W        W23590  17.563  15.701  12.395
52991W        W23591  33.185  26.371  12.417
52992W        W23592   7.209  12.775  10.529
52993W        W23593  32.775  39.227  11.163
52994W        W23594  43.587  19.439  12.118
52995W        W23595  17.407  11.105   0.510
52996W        W23596   6.467  38.838   4.204
52997W        W23597  22.307   8.680   3.616
52998W        W23598  41.217   0.292  14.830
52999W        W23599  25.519   2.511  13.356
53000W        W23600  35.985  38.361  13.563
53001W        W23601  14.736   2.743   1.317
53002W        W23602  40.358   7.784   0.407
53003W        W23603   3.328  19.188   3.829
53004W        W23604   7.224  22.258  12.482
53005W        W23605  25.318   8.870  10.109
53006W        W23606   7.171   8.732  13.030
53007W        W23607   8.904  25.948   3.927
53008W        W23608   3.789  28.012   1.399
53009W        W23609  29.586   5.333  13.978
53010W        W23610  39.939  22.781  13.853
53011W        W23611   5.330  42.789   4.162
53012W        W23612   4.571   5.838  14.896
53013W        W23613   9.224  25.458  10.406
53014W        W23614  15.547  40.770   4.154
53015W        W23615  43.706  43.255  11.960
53016W        W23616   3.478  11.447  14.983
53017W        W23617  26.100  40.260   1.302
53018W        W23618   3.262  29.061   0.196
53019W        W23619  25.539  40.012  11.971
53020W        W23620  15.552  25.164  14.971
53021W        W23621  19.184   6.444  11.657
53022W        W23622   5.827  32.493  10.733
53023W        W23623  38.406  30.552   4.879
53024W        W23624  13.775  26.665  10.763
53025W        W23625  10.219  21.243   2.377
53026W        W23626  39.874   6.129  12.777
53027W        W23627  30.390  34.193  14.916
53028W        W23628  16.035  27.426  11.301
53029W        W23629   4.503  30.431   0.116
53030W        W23630   1.758   9.177   4.221
53031W        W23631  19.022  11.589   2.240
53032W        W23632  15.879  23.184  14.202
53033W        W23633  18.101   6.386   3.241
53034W        W23634  21.977  15.289  12.442
53035W        W23635   0.470  27.229  11.418
53036W        W23636  17.042  22.963  11.144
53037W        W23637  11.475   9.323   3.612
53038W        W23638  24.866  42.491   4.612
53039W        W23639   1.513  26.551  11.160
53040W        W23640  32.534  10.467   2.126
53041W        W23641  23.074  28.150   3.948
53042W        W23642   7.723  34.984  12.539
53043W        W23643   3.874   6.671   0.639
53044W        W23644  19.537  24.856   1.397
53045W        W23645  10.151  17.031   4.044
53046W        W23646  37.631  10.337   0.967
53047W        W23647   9.606   2.747   1.833
53048W        W23648   5.249  42.749  13.814
53049W        W23649   3.826  44.597   0.644
53050W        W23650  18.105  37.320   3.173
53051W        W23651  13.777  26.151   2.604
53052W        W23652  36.704  23.209   1.390
53053W        W23653  41.555   5.189  14.753
53054W        W23654   6.860   7.337   0.941
53055W        W23655  29.129   1.391  10.599
53056W        W23656  33.215  15.002   2.649
53057W        W23657  26.030  12.578  10.639
53058W        W23658  28.697  13.379   3.358
53059W        W23659  21.195  15.801   0.135
53060W        W23660   2.870  31.315   1.787
53061W        W23661  25.710  10.860  14.677
53062W        W23662  44.977  28.685   0.914
53063W        W23663  19.374  17.503  13.955
53064W        W23664  11.048  40.798   3.182
53065W        W23665  18.040  17.250  12.947
53066W        W23666  29.196  17.542  12.319
53067W        W23667  20.628  10.710  13.436
53068W        W23668  11.831   5.587   4.144
53069W        W23669  28.168   3.259   2.606
53070W        W23670  24.481  38.290   3.746
53071W        W23671  25.483   9.679   0.331
53072W        W23672  34.404  29.996   3.276
53073W        W23673   0.010   8.116   3.803
53074W        W23674  16.643  43.868  13.829
53075W        W23675   0.940  28.878  14.842
53076W        W23676  16.159  43.793   2.319
53077W        W23677  16.378  16.261   0.325
53078W        W23678  15.128  12.207  11.654
53079W        W23679  41.539  11.904  10.967
53080W        W23680  14.048  39.038  12.474
53081W        W23681  26.896  13.364   4.222
53082W        W23682  25.581  25.717   5.106
53083W        W23683  24.492  25.566  14.790
53084W        W23684  27.511  23.682   3.751
53085W        W23685  37.408  18.371   4.157
53086W        W23686   7.345  26.556   0.010
53087W        W23687   6.747  13.358   2.831
53088W        W23688  29.068  35.919   2.793
53089W        W23689  28.105  44.853   4.851
53090W        W23690  25.482  42.842  13.048
53091W        W23691   1.327  27.282  14.009
53092W        W23692  44.050  22.852  12.204
53093W        W23693  35.577   6.499  11.484
53094W        W23694  25.019   2.857  14.037
53095W        W23695   7.326  35.556   1.773
53096W        W23696   5.874  21.492  13.850
53097W        W23697  29.583  41.997  13.408
53098W        W23698  20.697  43.406  11.992
53099W        W23699  16.200   4.391  10.743
53100W        W23700  34.610  33.286  14.523
53101W        W23701  44.698  44.912  13.575
53102W        W23702   7.650   6.324   3.969
53103W        W23703  10.891  14.146  14.304
53104W        W23704  10.054   7.933  11.086
53105W        W23705  34.400   6.424   3.017
53106W        W23706  16.349  36.319  12.885
53107W        W23707  32.086  44.963  12.981
53108W        W23708  35.807   6.458  14.831
53109W        W23709   2.269   1.882   3.700
53110W        W23710  18.068   1.361   0.792
53111W        W23711  33.377  33.697   3.054
53112W        W23712  24.702  18.346   3.322
53113W        W23713   5.742  20.985  13.906
53114W        W23714  34.498  13.163   3.322
53115W        W23715  16.592  38.146   4.225
53116W        W23716  29.488  20.087   1.492
53117W        W23717  35.156   6.811  10.718
53118W        W23718  41.084   7.830   2.021
53119W        W23719  31.306  33.484  12.322
53120W        W23720  20.165  20.572  11.232
53121W        W23721  19.802  10.847   2.719
53122W        W23722  39.107  28.909  11.188
53123W        W23723  27.738   0.121  14.384
53124W        W23724  41.517  25.631   1.320
53125W        W23725  29.532  25.672  12.103
53126W        W23726   5.446   1.788   0.719
53127W        W23727  35.907  40.271  10.988
53128W        W23728  11.678  34.478  14.392
53129W        W23729   4.032  21.677   1.884
53130W        W23730  17.843  44.368  10.946
53131W        W23731  38.573  32.381   0.100
53132W        W23732  32.358  19.091   4.025
53133W        W23733  34.904  34.530   1.056
53134W        W23734   3.703  22.508   0.474
53135W        W23735  25.704  27.263  11.526
53136W        W23736  19.009  34.669   0.880
53137W        W23737  33.471  36.295  13.067
53138W        W23738  29.560  10.121   3.170
53139W        W23739  31.010  37.549   2.158
53140W        W23740  22.294   4.903   1.020
53141W        W23741  12.365   3.875  12.455
53142W        W23742   1.137  24.393   2.401
53143W        W23743  11.704  36.317   1.341
53144W        W23744  29.567  20.626  13.488
53145W        W23745  18.680  35.287   3.147
53146W        W23746   8.850   8.021   1.479
53147W        W23747  18.156  44.156  10.608
53148W        W23748   0.498  15.688   3.228
53149W        W23749   5.430  43.035  14.752
53150W        W23750  33.704  14.463  11.489
53151W        W23751  18.196  20.066   0.201
53152W        W23752  22.268  34.502  12.579
53153W        W23753  25.554  26.798  11.684
53154W        W23754  30.598  40.990  12.070
53155W        W23755   3.740  28.214  14.552
53156W        W23756   8.854  17.072   3.755
53157W        W23757   0.066  26.483   4.144
53158W        W23758  31.393  26.941   4.167
53159W        W23759  12.367  43.414   0.870
53160W        W23760  26.758  31.553   2.764
53161W        W23761  18.565   5.927   1.473
53162W        W23762  29.550  22.048  10.603
53163W        W23763   3.379   2.470   2.375
53164W        W23764   7.464  27.007  11.603
53165W        W23765  32.382  13.802  11.516
53166W        W23766  22.183  25.979  10.608
53167W        W23767   3.281  38.292   0.995
53168W        W23768  17.934  31.527   1.650
53169W        W23769   9.758  31.245   4.201
53170W        W23770  15.191   4.607  14.651
53171W        W23771  23.168  10.871  14.390
53172W        W23772  21.459  37.350  11.608
53173W        W23773  20.505   7.143   4.191
53174W        W23774   4.931  41.392   2.277
53175W        W23775   7.993  24.986   5.135
53176W        W23776   4.139  22.211  12.424
53177W        W23777  37.383  12.165   4.928
53178W        W23778   6.763   8.935  10.688
53179W        W23779   5.099  11.649  14.320
53180W        W23780  29.019  31.847   2.891
53181W        W23781  13.902  18.657   0.395
53182W        W23782  20.130  31.670   2.964
53183W        W23783  38.142  21.323  11.612
53184W        W23784   3.970  43.453  14.954
53185W        W23785  43.865  25.143  14.627
53186W        W23786  29.194  25.428  11.210
53187W        W23787  13.579  32.064   3.226
53188W        W23788  38.365  15.200  11.187
53189W        W23789  20.295  23.962   3.671
53190W        W23790   6.452  18.579   4.139
53191W        W23791  34.373  42.002   4.098
53192W        W23792  15.297  33.484  12.914
53193W        W23793  21.941   3.723   4.181
53194W        W23794  23.603  14.057   2.211
53195W        W23795  33.470  38.910   0.302
53196W        W23796  44.366  10.381  14.358
53197W        W23797  11.123  25.704  12.019
53198W        W23798  28.056  29.490   1.033
53199W        W23799  22.481  13.284  10.989
53200W        W23800  39.926  20.442   0.275
53201W        W23801  29.377  44.382   3.608
53202W        W23802  32.999  30.610   2.883
53203W        W23803  23.496  29.417  11.643
53204W        W23804  41.927   1.973   0.265
53205W        W23805  40.815  34.324   3.559
53206W        W23806  17.880  36.232   2.710
53207W        W23807   7.214  10.768   0.398
53208W        W23808   8.834  32.439   5.001
53209W        W23809  23.027  32.527   3.665
53210W        W23810   8.173  35.180  12.365
53211W        W23811   5.430  24.568  12.877
53212W        W23812  16.669  15.687   3.460
53213W        W23813  29.448  38.998  14.486
53214W        W23814  30.818   3.190  11.598
53215W        W23815  30.440  21.807   2.852
53216W        W23816   2.010   8.610  14.423
53217W        W23817  11.636  33.789  13.095
53218W        W23818  25.562  25.457   3.160
53219W        W23819   9.876  39.435  12.527
53220W        W23820  26.996   9.393   1.000
53221W        W23821  14.571  28.693  12.833
53222W        W23822  30.253  24.051  13.987
53223W        W23823  13.417  29.030   2.658
53224W        W23824  26.491  10.489  13.493
53225W        W23825  13.167  16.528   3.672
53226W        W23826   2.395   8.794   4.501
53227W        W23827  22.468  17.184  14.312
53228W        W23828  43.176  12.493   2.444
53229W        W23829   2.302   2.227  14.465
53230W        W23830  18.746  14.202  13.117
53231W        W23831  28.899   0.801   4.911
53232W        W23832  42.118  26.057   1.157
53233W        W23833   7.410  17.625  11.094
53234W        W23834   9.560  14.151   1.259
53235W        W23835  43.789  37.193   1.109
53236W        W23836   0.921   3.816  10.437
53237W        W23837   2.014  43.599  11.575
53238W        W23838  28.055  27.001   0.386
53239W        W23839  25.956  33.603   3.139
53240W        W23840  41.026   6.934   0.877
53241W        W23841  34.565   6.628   1.992
53242W        W23842  44.830   2.695  10.608
53243W        W23843   2.605   6.373  14.922
53244W        W23844  33.611  29.011   1.287
53245W        W23845  22.404   3.413   2.352
53246W        W23846  39.298  18.978   3.555
53247W        W23847   5.126  40.827  13.913
53248W        W23848  11.282  41.312  10.641
53249W        W23849  35.926  12.854   3.396
53250W        W23850  38.598  37.598  13.594
53251W        W23851  39.013  24.110   4.586
53252W        W23852  12.383   9.121   4.704
53253W        W23853  24.006  19.825  11.518
53254W        W23854  43.349  11.147   2.864
53255W        W23855  16.839   0.308  10.645
53256W        W23856  41.901   8.432  13.344
53257W        W23857   5.290  39.393   3.126
53258W        W23858   2.477  25.599   3.822
53259W        W23859  25.195  41.908   3.156
53260W        W23860  17.488  43.931  13.506
53261W        W23861  14.742  36.465  11.248
53262W        W23862  28.070  36.622  14.974
53263W        W23863  23.983  18.598   1.926
53264W        W23864  28.636  31.449   3.354
53265W        W23865  44.889   4.895   4.661
53266W        W23866   6.907   4.977   4.414
53267W        W23867  33.432   4.214   1.641
53268W        W23868   1.422  22.710  13.930
53269W        W23869  25.037   1.692   4.111
53270W        W23870  35.491   9.107  11.134
53271W        W23871  40.426   6.704   4.836
53272W        W23872  28.590  40.717  13.099
53273W        W23873   8.668  20.132   4.106
53274W        W23874  23.763  24.417  11.148
53275W        W23875  21.254  38.804  11.138
53276W        W23876  44.302  17.738  12.537
53277W        W23877  14.640  32.990   3.085
53278W        W23878  19.592  19.043  10.523
53279W        W23879  15.126  19.629   3.629
53280W        W23880  35.358  26.895  11.962
53281W        W23881  35.383  44.462   1.411
53282W        W23882  14.633  40.481  14.482
53283W        W23883  14.481   8.119   3.231
53284W        W23884  34.537  36.821   4.024
53285W        W23885  41.410  35.620  10.749
53286W        W23886  34.855  29.914  11.615
53287W        W23887  12.430  12.697   4.899
53288W        W23888  37.067   2.713   0.957
53289W        W23889  12.712   5.732   3.648
53290W        W23890  40.812  14.238   2.292
53291W        W23891   8.735   7.733   1.909
53292W        W23892  30.400  20.525   3.415
53293W        W23893  27.686  40.435  13.094
53294W        W23894  18.079   4.401  13.460
53295W        W23895  19.641  44.778   1.419
53296W        W23896   1.203  10.093   0.295
53297W        W23897  36.120   9.666   1.406
53298W        W23898  10.652  18.662  12.646
53299W        W23899  43.435  15.784   0.830
53300W        W23900  40.506  36.581  11.189
53301W        W23901   5.764  35.313   1.118
53302W        W23902   1.355  19.292  14.473
53303W        W23903  14.997  42.277   3.364
53304W        W23904  23.747  11.502  13.834
53305W        W23905  25.184  42.688   0.255
53306W        W23906  38.371  38.125   1.731
53307W        W23907  33.031   2.871  10.680
53308W        W23908  10.314  11.835  11.426
53309W        W23909  21.012  41.317   3.947
53310W        W23910  24.086  16.123  11.242
53311W        W23911  44.863  10.850  11.648
53312W        W23912  23.174  25.997  12.889
53313W        W23913   4.985  28.894   4.731
53314W        W23914  21.171  39.966   1.820
53315W        W23915  12.377  16.198  12.383
53316W        W23916  37.472  41.795   4.033
53317W        W23917   6.418  44.360   1.822
53318W        W23918  12.393  41.045   1.155
53319W        W23919  36.345  32.707  12.949
53320W        W23920  17.736  21.990  14.882
53321W        W23921  36.428  37.568  14.294
53322W        W23922  14.569   3.693   3.267
53323W        W23923  40.190  13.446   0.493
53324W        W23924   8.453  31.186  11.110
53325W        W23925  27.589  37.447   0.145
53326W        W23926  27.786  17.718  10.446
53327W        W23927  18.134   3.793   1.842
53328W        W23928  22.784  24.651   2.674
53329W        W23929   0.489  21.297  14.297
53330W        W23930  21.604  34.379  13.140
53331W        W23931  10.572  31.291  11.098
53332W        W23932  19.389  41.193   1.254
53333W        W23933  44.020   3.856   0.870
53334W        W23934   4.972  15.801   2.526
53335W        W23935  18.089  20.717  10.704
53336W        W23936   7.627  23.768  14.961
53337W        W23937  43.986  23.070   0.206
53338W        W23938  22.400  14.704   0.315
53339W        W23939  41.489  31.866   3.633
53340W        W23940  30.182  14.310  10.520
53341W        W23941  32.836  30.235  10.774
53342W        W23942  17.532  24.416  11.030
53343W        W23943  17.654   1.929  13.372
53344W        W23944  12.605  13.224  13.786
53345W        W23945  14.575  20.395  12.971
53346W        W23946  15.875  27.332   9.805
53347W        W23947  40.212  43.906   4.364
53348W        W23948  18.140  33.920   0.537
53349W        W23949  20.604  29.460   4.920
53350W        W23950  37.557  40.684   3.876
53351W        W23951  38.592   4.642  14.231
53352W        W23952  26.555   3.973   2.153
53353W        W23953  36.998  25.120  12.565
53354W        W23954  34.150  12.894   2.479
53355W        W23955  18.220  24.495   5.688
53356W        W23956  11.220   9.932   4.332
53357W        W23957   8.766  35.045  13.930
53358W        W23958  44.834  16.156  14.010
53359W        W23959  27.850   5.749   0.873
53360W        W23960  19.510  15.278   3.391
53361W        W23961  34.071  44.327  13.812
53362W        W23962  25.925  33.072   2.170
53363W        W23963   7.185  42.550   4.542
53364W        W23964  24.753  26.563   0.308
53365W        W23965  14.996  24.381   4.946
53366W        W23966  26.535  26.750  10.713
53367W        W23967  37.878   5.631  14.885
53368W        W23968   1.314   9.446   3.838
53369W        W23969  39.601  10.123   4.520
53370W        W23970  22.588  14.053  10.999
53371W        W23971   7.473  20.754  14.336
53372W        W23972  40.255  24.502   1.790
53373W        W23973  39.404  32.430  12.138
53374W        W23974  29.213  25.636  11.686
53375W        W23975  12.704  43.775  12.931
53376W        W23976  17.886   9.892   0.877
53377W        W23977  24.884  22.550  10.889
53378W        W23978   3.279   1.885   3.734
53379W        W23979  33.162  18.591   0.708
53380W        W23980  24.820  38.470   4.634
53381W        W23981  39.506  12.682   1.321
53382W        W23982  29.943   7.657   3.132
53383W        W23983   6.150  41.811  10.911
53384W        W23984  30.411   5.444  14.771
53385W        W23985  10.365   9.755   1.038
53386W        W23986  14.707   7.740  13.607
53387W        W23987  22.048  33.896  11.227
53388W        W23988   8.852   4.313   2.314
53389W        W23989   9.702  19.708   3.627
53390W        W23990   7.635   7.390  11.748
53391W        W23991   0.780   4.297   3.196
53392W        W23992   5.400  37.255   2.740
53393W        W23993  43.087  44.448   3.687
53394W        W23994   4.041  43.256   4.600
53395W        W23995  38.319  30.039  14.858
53396W        W23996   4.233  18.122   2.161
53397W        W23997  23.324  43.367  11.732
53398W        W23998  28.765  22.930  10.705
53399W        W23999  38.951   7.420   1.977
53400W        W24000  39.682  20.021   4.897
53401W        W24001  31.785  43.862   2.679
53402W        W24002  12.551   7.775  12.088
53403W        W24003  11.143  22.285   2.750
53404W        W24004  31.450  18.160   0.352
53405W        W24005  19.220  32.998   1.961
53406W        W24006  41.616  31.776  13.493
53407W        W24007   5.700  12.039  13.857
53408W        W24008  41.553  36.756   4.099
53409W        W24009  38.337  39.433  14.913
53410W        W24010  14.812  29.620  11.303
53411W        W24011   6.526  16.180  12.075
53412W        W24012   7.192  19.013  10.675
53413W        W24013  19.590   0.718   2.241
53414W        W24014  22.823  21.777  12.122
53415W        W24015   2.058  30.732  10.401
53416W        W24016  33.837  12.357  11.359
53417W        W24017  32.077  36.048   3.839
53418W        W24018  39.671  38.648  13.828
53419W        W24019  27.119   4.532   1.728
53420W        W24020  40.404   2.327  14.319
53421W        W24021  11.801  41.505   2.887
53422W        W24022  35.413  36.835   1.170
53423W        W24023   8.134  40.047   0.317
53424W        W24024  42.480  28.890   2.399
53425W        W24025  20.558  17.561   1.594
53426W        W24026   5.666  31.024  14.785
53427W        W24027  42.824  41.085  11.885
53428W        W24028  43.848  19.108   3.113
53429W        W24029  40.098   9.240   0.321
53430W        W24030  22.234  32.845   0.334
53431W        W24031  42.746   1.708   2.703
53432W        W24032  34.934  33.970  14.259
53433W        W24033  38.972  33.896  13.298
53434W        W24034  44.520  25.063   3.821
53435W        W24035  38.610  35.040   2.289
53436W        W24036  20.703  20.522  11.263
53437W        W24037   6.425  41.049  11.722
53438W        W24038  37.975  23.011   1.016
53439W        W24039  20.528   1.799   4.127
53440W        W24040  23.807  29.535   4.199
53441W        W24041  41.967  31.585   2.738
53442W        W24042  43.284  17.732   0.315
53443W        W24043  38.904  26.075   5.079
53444W        W24044  21.133  10.614   2.944
53445W        W24045  44.448   1.912  11.785
53446W        W24046   6.307   6.695   5.026
53447W        W24047  24.209  37.480  14.938
53448W        W24048   8.426  18.602  13.900
53449W        W24049   0.814  44.948   2.539
53450W        W24050   9.052  19.189   0.878
53451W        W24051  38.600  14.738  10.671
53452W        W24052  15.658   9.687  12.925
53453W        W24053  44.319  10.370  13.846
53454W        W24054  37.006  19.720  12.084
53455W        W24055  29.512  41.579   3.967
53456W        W24056   8.426  14.238   3.252
53457W        W24057  44.871  16.498   2.278
53458W        W24058   9.625  36.279   3.311
53459W        W24059  40.094  17.146  14.273
53460W        W24060   3.334  22.236  11.514
53461W        W24061  27.065  41.023  12.528
53462W        W24062  42.436  14.430  10.743
53463W        W24063  10.946  41.518  13.336
53464W        W24064  18.753  14.116  10.778
53465W        W24065   1.219  18.785  14.367
53466W        W24066   4.381  27.722   2.785
53467W        W24067  43.587   8.628  13.546
53468W        W24068  43.466  35.420  12.093
53469W        W24069  17.828   9.423   3.227
53470W        W24070  26.604  12.783   5.065
53471W        W24071  26.379   4.239   3.963
53472W        W24072   4.526  27.590   1.932
53473W        W24073  36.931   8.281   1.674
53474W        W24074  41.997  20.558   0.738
53475W        W24075  32.493  44.965  13.986
53476W        W24076  15.308  43.484   3.056
53477W        W24077  10.678  40.118   0.991
53478W        W24078  22.696  25.979  13.065
53479W        W24079  32.167  11.243   2.272
53480W        W24080  33.075  25.972  11.028
53481W        W24081  31.877   7.604   3.737
53482W        W24082  32.699  20.603   0.950
53483W        W24083  30.170  24.428   2.611
53484W        W24084  37.102   3.183  14.312
53485W        W24085   5.565  10.853   0.740
53486W        W24086  36.446  19.008   1.236
53487W        W24087   3.561  41.856  11.823
53488W        W24088  30.148  38.421   1.290
53489W        W24089  30.531  13.762   1.781
53490W        W24090   3.210  21.675  14.041
53491W        W24091  40.823  35.097  11.500
53492W        W24092  14.074  35.856   0.353
53493W        W24093  11.741  21.289   2.741
53494W        W24094  34.568  36.003  13.243
53495W        W24095   7.426  16.743  11.377
53496W        W24096   7.756  33.959   2.095
53497W        W24097  30.224  17.757   0.431
53498W        W24098  33.096  42.405   1.856
53499W        W24099  21.157  44.507  14.794
53500W        W24100   9.563  17.110   3.394
53501W        W24101  12.103  30.398   4.447
53502W        W24102  40.940  12.535   0.237
53503W        W24103  30.874  32.893   4.177
53504W        W24104  13.168   2.807   1.286
53505W        W24105  25.807  38.202   4.773
53506W        W24106   1.796  18.724   1.640
53507W        W24107  30.324  15.685   3.830
53508W        W24108  25.284  26.484   0.247
53509W        W24109  27.259  22.153  12.016
53510W        W24110  21.982  43.909  14.896
53511W        W24111  24.731  23.513   0.899
53512W        W24112  15.040  35.360  11.601
53513W        W24113  37.962  40.783   1.218
53514W        W24114  39.918  18.022  14.617
53515W        W24115  21.565  31.727  10.080
53516W        W24116   1.878  15.574  13.877
53517W        W24117  27.426   2.212   0.238
53518W        W24118  19.510  28.249   3.312
53519W        W24119  26.072  10.824  11.952
53520W        W24120  41.359  35.540   4.432
53521W        W24121  38.784  23.606   2.342
53522W        W24122  40.032  37.689   4.007
53523W        W24123  40.817  19.172   1.847
53524W        W24124   9.846  12.679   3.795
53525W        W24125  30.323  24.023   3.096
53526W        W24126  30.590  40.995   2.714
53527W        W24127   1.076  10.747   3.190
53528W        W24128  18.811  36.976   4.152
53529W        W24129  38.137  15.901  10.261
53530W        W24130   1.655   5.661  12.148
53531W        W24131   9.776  30.406   3.250
53532W        W24132  11.425  39.445  11.105
53533W        W24133  38.649   4.366   0.859
53534W        W24134  16.371   7.782   0.198
53535W        W24135  40.840   2.874   3.187
53536W        W24136   8.324  31.110  12.881
53537W        W24137  30.805   1.313  11.069
53538W        W24138  30.568  25.868  11.001
53539W        W24139  14.146  17.102  11.156
53540W        W24140  37.449   9.338   3.325
53541W        W24141  10.438  13.901  13.068
53542W        W24142  18.584  39.596  13.745
53543W        W24143  33.944  13.197  11.225
53544W        W24144  14.106  25.103  14.795
53545W        W24145  42.802  10.651  10.700
53546W        W24146  32.092  26.143   3.273
53547W        W24147  25.644  26.504   2.521
53548W        W24148   0.970  13.360   3.716
53549W        W24149  16.207  19.259  10.701
53550W        W24150  33.624  11.786  13.497
53551W        W24151  13.593  23.420   2.837
53552W        W24152  14.460  26.944   1.145
53553W        W24153  12.686   4.890  11.405
53554W        W24154  43.026   4.890   3.076
53555W        W24155  34.357  29.680  13.067
53556W        W24156  43.426  28.352  11.161
53557W        W24157  34.937  12.856  14.425
53558W        W24158  21.097   4.195  10.649
53559W        W24159   1.031   3.926  12.423
53560W        W24160  42.545  40.776  12.933
53561W        W24161   1.940  16.589   3.813
53562W        W24162   0.760  11.405   5.091
53563W        W24163  21.523   2.131   0.939
53564W        W24164  24.087  43.229  14.814
53565W        W24165   2.212  44.406  10.374
53566W        W24166  36.254  12.679   1.296
53567W        W24167  34.576  17.138   2.658
53568W        W24168   3.813   8.698  12.161
53569W        W24169  22.783  31.679   4.673
53570W        W24170   8.001   0.347  13.397
53571W        W24171  30.874  19.211   1.892
53572W        W24172  31.670   0.502   3.273
53573W        W24173   9.395   6.358   1.859
53574W        W24174  12.678  17.351  14.561
53575W        W24175  27.555  19.174   4.023
53576W        W24176   8.785  36.049   4.599
53577W        W24177  21.197  13.583  10.986
53578W        W24178   3.416  37.976  12.033
53579W        W24179  41.882  39.195   3.287
53580W        W24180  37.647   1.671   1.715
53581W        W24181  16.169  10.831   0.820
53582W        W24182  44.619  13.350  11.689
53583W        W24183  34.922  19.806  14.810
53584W        W24184  27.354  15.868   0.967
53585W        W24185  19.128  14.724  13.855
53586W        W24186  17.587  17.961   1.702
53587W        W24187  29.508   1.262  12.187
53588W        W24188  31.366  35.602  12.871
53589W        W24189  43.738  33.879   3.635
53590W        W24190   5.570  22.877   2.690
53591W        W24191  39.838  18.045   0.472
53592W        W24192  30.505   8.407   4.206
53593W        W24193  37.997  17.820   3.331
53594W        W24194  35.190  23.147   1.369
53595W        W24195  10.866   6.730  12.114
53596W        W24196  29.637   5.909  12.501
53597W        W24197  29.558  11.726   4.241
53598W        W24198   0.386  40.520  13.249
53599W        W24199  34.412  21.054   0.563
53600W        W24200  30.489  32.507  13.588
53601W        W24201  24.516  37.719  11.097
53602W        W24202  39.856  17.554   0.366
53603W        W24203   6.484  38.078  10.725
53604W        W24204  20.759  41.612   3.583
53605W        W24205  23.641  37.899   3.873
53606W        W24206  43.852  21.805   1.006
53607W        W24207  21.225  40.877   4.317
53608W        W24208  25.166   7.159  13.636
53609W        W24209  44.956   0.840   0.972
53610W        W24210   8.919   3.357  10.864
53611W        W24211  15.297  24.076  13.503
53612W        W24212  11.845  44.044   2.265
53613W        W24213  41.877  39.720   1.242
53614W        W24214  13.810  27.515  13.971
53615W        W24215  13.637  30.502   4.782
53616W        W24216  21.758   6.954  12.565
53617W        W24217  36.940  26.421   2.820
53618W        W24218  39.795  33.063   4.455
53619W        W24219   1.432   7.936   4.471
53620W        W24220  32.568  41.447  14.654
53621W        W24221  35.443  17.076   0.836
53622W        W24222  30.127  16.515  13.328
53623W        W24223  44.781  23.700  10.613
53624W        W24224  38.909  42.631  10.628
53625W        W24225  24.195  30.997  14.948
53626W        W24226  25.838   9.625  10.171
53627W        W24227  28.988  16.791  13.279
53628W        W24228   2.109   3.849   4.158
53629W        W24229  29.553  41.907  11.139
53630W        W24230  16.058  28.766   4.075
53631W        W24231   7.829  35.199   3.444
53632W        W24232  36.906  41.226   3.217
53633W        W24233  43.855   2.481  12.436
53634W        W24234  30.952  41.302  13.487
53635W        W24235  28.463  26.131  14.939
53636W        W24236  43.688  18.963   1.023
53637W        W24237  11.134  44.972   1.967
53638W        W24238  10.334   3.268   4.144
53639W        W24239  42.522  14.390  12.158
53640W        W24240  34.156  33.449  13.786
53641W        W24241  34.409  13.684   0.349
53642W        W24242  30.897  15.740  11.242
53643W        W24243  43.411   1.256  12.474
53644W        W24244   6.088  10.549   2.338
53645W        W24245  27.215  13.143  12.497
53646W        W24246   1.651  36.959  12.400
53647W        W24247  14.919  44.473  11.173
53648W        W24248   5.783   6.290   4.227
53649W        W24249  34.147  29.946   4.258
53650W        W24250  28.187  18.111   4.599
53651W        W24251  17.050  16.666  11.497
53652W        W24252  25.043   1.382  12.413
53653W        W24253  20.951  28.746  11.594
53654W        W24254   1.705   3.584  13.136
53655W        W24255  19.615  41.229  13.356
53656W        W24256   0.720   0.641   0.589
53657W        W24257  41.627   7.679  14.845
53658W        W24258   9.442   9.052  11.131
53659W        W24259  22.081  28.936  11.930
53660W        W24260   5.264  32.220  13.805
53661W        W24261  36.401  43.505   4.723
53662W        W24262  20.505  43.582  14.530
53663W        W24263   4.401  12.872   3.285
53664W        W24264   5.429  41.235  13.796
53665W        W24265  40.425   0.084  11.471
53666W        W24266  43.796  32.314   3.483
53667W        W24267  13.266  22.760  12.527
53668W        W24268  38.993  25.208  14.774
53669W        W24269   4.339  14.136   4.514
53670W        W24270  39.999  20.126   1.883
53671W        W24271   7.392   0.326  14.927
53672W        W24272  23.460   3.934  12.536
53673W        W24273  33.377   1.339   0.951
53674W        W24274   6.272  13.886  10.713
53675W        W24275  28.993   7.137   3.807
53676W        W24276  27.271  26.186   3.500
53677W        W24277  13.080  25.754  11.719
53678W        W24278  33.028  35.398   0.922
53679W        W24279   5.781  26.124   4.520
53680W        W24280  34.725  36.813   2.626
53681W        W24281  10.863   5.938  14.943
53682W        W24282  43.226  11.706  14.505
53683W        W24283  34.293  42.821   3.539
53684W        W24284  44.473  18.986   3.358
53685W        W24285  35.460  41.226  12.388
53686W        W24286   0.820  35.628  12.940
53687W        W24287  41.736  15.645   0.048
53688W        W24288   1.962   2.916   4.163
53689W        W24289  42.477  11.111  12.554
53690W        W24290  44.204  25.658   0.491
53691W        W24291   5.232  37.012  13.568
53692W        W24292  29.643   1.766  14.388
53693W        W24293  20.964  26.416   3.629
53694W        W24294   6.888  22.099   1.884
53695W        W24295  34.596   1.615   1.630
53696W        W24296   8.365  31.851   2.291
53697W        W24297  26.922   9.342  11.926
53698W        W24298   2.651  26.895   3.436
53699W        W24299   7.707  25.079   0.380
53700W        W24300  10.745  28.103   0.015
53701W        W24301   7.968  39.183   0.811
53702W        W24302  42.470   6.059   2.263
53703W        W24303   0.043  37.891  13.089
53704W        W24304  41.348   5.011   3.616
53705W        W24305   5.584  32.966   2.561
53706W        W24306   0.667  42.715  12.191
53707W        W24307  15.171   9.196  13.612
53708W        W24308  30.391  41.964  13.848
53709W        W24309   3.805   6.702   1.713
53710W        W24310  10.975  23.871   1.646
53711W        W24311   2.810  14.266   0.379
53712W        W24312   0.296  41.494   4.216
53713W        W24313  33.345  41.443   2.634
53714W        W24314  28.431   9.376  10.714
53715W        W24315  30.229  36.852   2.311
53716W        W24316  15.646  19.427  13.563
53717W        W24317  18.248  25.166   2.769
53718W        W24318  44.316  21.544  11.354
53719W        W24319  41.098   6.328  13.310
53720W        W24320   5.779   5.406   1.270
53721W        W24321  11.293  33.882   3.773
53722W        W24322  21.854   8.832  12.599
53723W        W24323  23.047  33.700  14.774
53724W        W24324  19.408  28.083   0.964
53725W        W24325  25.760  14.547   1.395
53726W        W24326   7.965  10.237  12.575
53727W        W24327  22.564  33.488   0.085
53728W        W24328  27.957   1.894  12.919
53729W        W24329   1.516  35.047   3.177
53730W        W24330   2.316   1.380   1.679
53731W        W24331  29.626  37.199   4.952
53732W        W24332  17.593  26.819  14.093
53733W        W24333   0.271  44.995  14.877
53734W        W24334  28.567  21.130  10.283
53735W        W24335   1.683  31.604  11.907
53736W        W24336   1.375  15.439  13.761
53737W        W24337  17.079  30.849   2.323
53738W        W24338  17.256  15.272  10.770
53739W        W24339   9.641  26.032   0.922
53740W        W24340  32.930  21.501   4.547
53741W        W24341  13.536  13.333  10.199
53742W        W24342  13.853  35.669  11.058
53743W        W24343   2.998  31.910  11.072
53744W        W24344  25.795  37.294  12.119
53745W        W24345  37.003  38.849   3.849
53746W        W24346  37.315  40.368  12.661
53747W        W24347  37.774   1.087  13.343
53748W        W24348  24.070   7.387  12.547
53749W        W24349  27.365   8.303  11.410
53750W        W24350  21.981   5.921   1.896
53751W        W24351   7.138  13.656   1.362
53752W        W24352   3.378  21.589  14.532
53753W        W24353  13.591  14.744  14.291
53754W        W24354  41.973  43.232  13.528
53755W        W24355  25.105  28.122  14.474
53756W        W24356  41.787  19.228  11.681
53757W        W24357  16.054   9.804  10.622
53758W        W24358  25.671   8.965   2.156
53759W        W24359   7.251  32.687   4.387
53760W        W24360  13.747   6.692  12.489
53761W        W24361   9.663  20.634  10.676
53762W        W24362  29.523   4.644   4.319
53763W        W24363  16.820  42.021  13.466
53764W        W24364  36.555  35.876   4.196
53765W        W24365  22.998  32.042   5.008
53766W        W24366  25.842  13.841  10.238
53767W        W24367  22.545  33.457  13.593
53768W        W24368   9.756  40.928   4.876
53769W        W24369  27.736  23.681  14.953
53770W        W24370  18.382   7.034  13.581
53771W        W24371  12.412  18.767  14.336
53772W        W24372   1.492   9.896   3.592
53773W        W24373  43.353   9.672   1.499
53774W        W24374   9.564   2.208   4.927
53775W        W24375  11.627  43.469  14.540
53776W        W24376  41.302   8.301   3.429
53777W        W24377  16.525   5.862  12.824
53778W        W24378  13.606   2.977  13.933
53779W        W24379  36.098  27.980   0.708
53780W        W24380  11.268   0.272  11.911
53781W        W24381  43.975   0.724   1.672
53782W        W24382  20.708  27.152  12.477
53783W        W24383  10.360  24.672  13.612
53784W        W24384  39.703  14.703   3.291
53785W        W24385  19.979  33.757  11.778
53786W        W24386   4.642  32.944   2.880
53787W        W24387  33.841  19.481  14.304
53788W        W24388  40.439   4.810   0.806
53789W        W24389  30.174   6.672   0.974
53790W        W24390  17.034  16.823   1.786
53791W        W24391  22.880  32.672  11.016
53792W        W24392  31.654  17.108   3.185
53793W        W24393   1.063   0.218  10.997
53794W        W24394   2.241  11.871   0.292
53795W        W24395  13.916  16.091  12.468
53796W        W24396  13.790  32.709  13.355
53797W        W24397   5.845  39.022   0.534
53798W        W24398  17.946   3.291   4.180
53799W        W24399  33.837  40.126   0.186
53800W        W24400  38.099  24.077   0.293
53801W        W24401  13.525   6.347   3.312
53802W        W24402  29.390  36.959  13.935
53803W        W24403  36.501  24.954  12.527
53804W        W24404  10.806  23.580   1.012
53805W        W24405  40.744  37.837  14.766
53806W        W24406   9.540  25.483   2.869
53807W        W24407  40.348  16.760   0.330
53808W        W24408  29.179  33.056  13.613
53809W        W24409  27.149   1.422  14.699
53810W        W24410  29.075  40.713  14.253
53811W        W24411  33.665  32.951  11.837
53812W        W24412  25.179   6.151  14.478
53813W        W24413  34.003   2.065  12.047
53814W        W24414  29.165  34.624  14.343
53815W        W24415  13.093  19.160  12.891
53816W        W24416   7.901  18.501  10.852
53817W        W24417  25.472  23.013   0.470
53818W        W24418   8.108  16.283  11.505
53819W        W24419   0.965  28.453   0.802
53820W        W24420  29.343  16.143   4.199
53821W        W24421  21.635   8.729  12.117
53822W        W24422   9.154  19.272  10.568
53823W        W24423  33.159   9.328  11.161
53824W        W24424  37.186  27.239   1.337
53825W        W24425  41.823   7.833  10.337
53826W        W24426  15.725  38.369  10.961
53827W        W24427   0.476  14.138  12.466
53828W        W24428   3.277  32.768   9.874
53829W        W24429  29.883  11.926  12.487
53830W        W24430  38.145   1.322  13.079
53831W        W24431   6.113  16.712   3.303
53832W        W24432   6.843   4.503  10.432
53833W        W24433  28.641  37.508  14.044
53834W        W24434  39.266  26.675  12.107
53835W        W24435  44.707   1.927  12.256
53836W        W24436  40.518  10.378  11.870
53837W        W24437  34.663  15.771  12.019
53838W        W24438  21.252  10.582  13.903
53839W        W24439  23.084  43.151   4.120
53840W        W24440  35.482  28.306   4.130
53841W        W24441  24.411  40.347  10.739
53842W        W24442  15.170  19.781  11.063
53843W        W24443  35.933  35.601   2.329
53844W        W24444   4.487  34.772   1.736
53845W        W24445  13.155  19.679   4.676
53846W        W24446  35.352  14.353   1.720
53847W        W24447  30.435  43.804   2.038
53848W        W24448  26.868   6.422   1.727
53849W        W24449  18.711  17.604   1.458
53850W        W24450   3.296   4.009   0.753
53851W        W24451   8.289   3.654  12.959
53852W        W24452  33.427  29.864   4.546
53853W        W24453   9.438  36.501   3.722
53854W        W24454  28.297   8.200   2.474
53855W        W24455  27.079  23.440  11.174
53856W        W24456  29.739  43.388  13.028
53857W        W24457  15.762   8.747  12.782
53858W        W24458  43.337  37.530  10.522
53859W        W24459  15.254  16.125   4.118
53860W        W24460  41.223   0.445   2.882
53861W        W24461   8.163  39.996   3.205
53862W        W24462  17.853  28.104   4.110
53863W        W24463  41.092  30.563   3.779
53864W        W24464   4.206  35.042  13.016
53865W        W24465   0.018  13.387   0.012
53866W        W24466  18.794  23.439  13.892
53867W        W24467   3.308  18.007   1.391
53868W        W24468  14.167  26.996  10.592
53869W        W24469  32.720  29.389  10.468
53870W        W24470  35.713  40.858  14.414
53871W        W24471  33.634   4.927  13.761
53872W        W24472  20.791  33.989   3.197
53873W        W24473   3.367  13.714  10.661
53874W        W24474  35.146  17.284  11.149
53875W        W24475  37.769  16.240  14.898
53876W        W24476   4.874  26.200  10.794
53877W        W24477  36.880  28.674   1.732
53878W        W24478  42.161  25.787  13.957
53879W        W24479  29.126  20.626   2.141
53880W        W24480   8.426  15.195   4.838
53881W        W24481  12.988  13.569  13.536
53882W        W24482  32.347  14.243  13.352
53883W        W24483  22.720  25.978   3.211
53884W        W24484  19.080   5.605  12.016
53885W        W24485  11.839   1.465   4.168
53886W        W24486  42.394  32.238   0.992
53887W        W24487  43.005  18.835   3.896
53888W        W24488  16.577  33.595   1.607
53889W        W24489  26.295  30.024  11.566
53890W        W24490  43.742   4.062   3.779
53891W        W24491   8.782  30.649  11.828
53892W        W24492  22.036  13.199  13.589
53893W        W24493  42.528  44.405   4.673
53894W        W24494   9.261  43.094   5.061
53895W        W24495  18.817   8.704  13.044
53896W        W24496  18.829  22.012   1.648
53897W        W24497  11.564  20.209   1.353
53898W        W24498  31.481  30.414  13.371
53899W        W24499  14.882  16.549  11.162
53900W        W24500  43.195  14.713  11.651
53901W        W24501  38.515  32.599  14.115
53902W        W24502   6.446  37.156  10.528
53903W        W24503  16.128  39.148  14.411
53904W        W24504   1.473  40.538  13.913
53905W        W24505  36.775  12.349  13.589
53906W        W24506  36.581   9.652  13.873
53907W        W24507   0.687   5.803  14.047
53908W        W24508  19.722  42.931  14.990
53909W        W24509  28.059   4.882  10.763
53910W        W24510  33.988  43.034   4.943
53911W        W24511  16.814  39.878  14.351
53912W        W24512   0.762  28.164   3.634
53913W        W24513  14.348  41.682  14.391
53914W        W24514  29.987   1.127  12.038
53915W        W24515  18.154  10.213  10.220
53916W        W24516  20.777  41.217   1.282
53917W        W24517  41.370   7.405   2.126
53918W        W24518  36.550  11.323   4.601
53919W        W24519  13.654  42.990  14.544
53920W        W24520   4.216  22.531  14.103
53921W        W24521   7.625  25.247  14.834
53922W        W24522   0.802  16.544  12.506
53923W        W24523  39.362  11.723   2.748
53924W        W24524  31.936   3.485  12.447
53925W        W24525   3.690  20.739  12.063
53926W        W24526   7.384  33.311   2.226
53927W        W24527   8.377  37.559  13.565
53928W        W24528  39.297  35.149   1.856
53929W        W24529  10.317   1.369   2.368
53930W        W24530  37.046  33.623  13.850
53931W        W24531  20.035  20.089   4.754
53932W        W24532  39.954  33.137   0.057
53933W        W24533   6.897   7.240  14.968
53934W        W24534  19.803  43.409   3.133
53935W        W24535   2.618  20.352   1.170
53936W        W24536  25.688   4.844  11.188
53937W        W24537  29.045  26.072   2.733
53938W        W24538  33.018  27.602   4.192
53939W        W24539  18.687  37.385  10.772
53940W        W24540   8.672  10.796  12.822
53941W        W24541  38.848  42.434  12.535
53942W        W24542  16.774  10.838  10.651
53943W        W24543   9.402  41.495   1.817
53944W        W24544  34.868   1.708   1.182
53945W        W24545  41.304  31.640  14.127
53946W        W24546  22.047  40.074  12.884
53947W        W24547  10.744  10.425   3.815
53948W        W24548  35.590  22.721  12.946
53949W        W24549  40.760  28.092   2.510
53950W        W24550  36.465  36.630  14.087
53951W        W24551   6.254   5.479  13.401
53952W        W24552  20.371  18.869   2.713
53953W        W24553  37.361   2.619   3.594
53954W        W24554  30.270  11.286  10.752
53955W        W24555  12.157  18.672   4.612
53956W        W24556  40.338  43.132  11.984
53957W        W24557  43.015  33.525   3.357
53958W        W24558   5.716  44.827   1.227
53959W        W24559  12.243  24.721  11.539
53960W        W24560  28.350  16.091  14.791
53961W        W24561  15.672  18.032  10.694
53962W        W24562  41.422  13.383   1.166
53963W        W24563  16.052  25.399   4.073
53964W        W24564  37.402   1.506  14.781
53965W        W24565  18.157  36.338  11.412
53966W        W24566  15.774  29.866   1.371
53967W        W24567  21.189   6.280   4.548
53968W        W24568  20.229   2.318  10.320
53969W        W24569  17.420  31.343   4.358
53970W        W24570  30.784  42.621  13.190
53971W        W24571  18.622  11.074   1.450
53972W        W24572  38.447  32.024   3.513
53973W        W24573  35.424  34.328   2.390
53974W        W24574  39.019  32.460   1.322
53975W        W24575  17.739  23.925   5.119
53976W        W24576   1.388  19.778  12.518
53977W        W24577  11.590   3.342   4.963
53978W        W24578  28.757  39.844   0.080
53979W        W24579  10.186  17.989  13.750
53980W        W24580   6.188  32.019   1.895
53981W        W24581  13.555  38.056  10.470
53982W        W24582   1.849   6.202  12.368
53983W        W24583  39.408  40.473   3.491
53984W        W24584  18.206   3.479  12.098
53985W        W24585  35.508  38.877   4.043
53986W        W24586   2.474  19.062   3.293
53987W        W24587  26.136  23.735   4.091
53988W        W24588  15.194  11.624  14.664
53989W        W24589  22.537  41.083   2.547
53990W        W24590  38.030  15.640   2.613
53991W        W24591  30.950  37.937   4.229
53992W        W24592  33.642  32.406   3.172
53993W        W24593  40.329  24.760  11.882
53994W        W24594  25.686  21.521   0.356
53995W        W24595   1.729   1.789  11.545
53996W        W24596  17.592   5.918  11.878
53997W        W24597  25.911  24.276  14.456
53998W        W24598  11.192  15.594   0.377
53999W        W24599  27.105  39.775   4.250
54000W        W24600  26.532  34.743   1.868
54001W        W24601  12.259   9.952   5.157
54002W        W24602   9.799  27.497   1.701
54003W        W24603  29.248  14.183   1.709
54004W        W24604   4.701  12.423   5.053
54005W        W24605  43.702  14.669  11.527
54006W        W24606  27.717   3.521  14.990
54007W        W24607   5.295  17.845  13.085
54008W        W24608  33.325  35.425   4.702
54009W        W24609   4.129  37.492  10.688
54010W        W24610  44.432   7.288   4.671
54011W        W24611   2.769  25.912   0.470
54012W        W24612  21.046  31.445   4.187
54013W        W24613  10.905   7.973  14.649
54014W        W24614  14.646   5.847  13.055
54015W        W24615  42.393   9.288  13.501
54016W        W24616   9.842  20.938   1.658
54017W        W24617  21.010  31.560   1.262
54018W        W24618  28.063  44.459   5.160
54019W        W24619  11.067   5.458   1.602
54020W        W24620   0.708  16.599   1.733
54021W        W24621   1.386  26.151   2.159
54022W        W24622  22.936  21.428   0.534
54023W        W24623  24.156  30.112   1.852
54024W        W24624  30.994  15.938  10.355
54025W        W24625   4.274  25.508  11.839
54026W        W24626  38.032  26.214   3.750
54027W        W24627  23.912  11.247   3.596
54028W        W24628  36.897  36.384   1.879
54029W        W24629   7.878   5.467   3.129
54030W        W24630  29.915  37.995  10.722
54031W        W24631   9.227   5.913   1.045
54032W        W24632  37.065  22.724   0.343
54033W        W24633  40.578  34.538  13.637
54034W        W24634  21.100  23.916  11.807
54035W        W24635  23.675  44.674   2.498
54036W        W24636  24.235  40.142   1.629
54037W        W24637  37.000  13.655   2.734
54038W        W24638  14.057  31.367  14.831
54039W        W24639  12.801  32.621   0.309
54040W        W24640  20.269  10.464   3.310
54041W        W24641  42.796  25.095   1.400
54042W        W24642  30.872  33.029  12.709
54043W        W24643  33.528  28.704  14.253
54044W        W24644  43.212  24.592  14.882
54045W        W24645  20.087   6.578  14.332
54046W        W24646  23.258  34.465  12.489
54047W        W24647  14.146  32.482  13.036
54048W        W24648  13.062  38.511   2.226
54049W        W24649  41.346  23.081   0.452
54050W        W24650  39.448  34.630   0.048
54051W        W24651   4.864  11.958  11.179
54052W        W24652   7.502  26.032   3.672
54053W        W24653  15.217  18.173   0.700
54054W        W24654  26.261  21.246  12.020
54055W        W24655  15.755  32.282   2.273
54056W        W24656  37.061   8.435  11.124
54057W        W24657   1.752  22.184  12.479
54058W        W24658  44.477   6.369   4.913
54059W        W24659  20.683  11.421  11.177
54060W        W24660  16.335  44.634   4.117
54061W        W24661  38.011   3.473   0.308
54062W        W24662  43.345  23.076  11.496
54063W        W24663  18.306  33.194  11.648
54064W        W24664  34.554  12.194   4.592
54065W        W24665  24.997  16.547   3.844
54066W        W24666  36.757  39.545   3.760
54067W        W24667  27.719  11.212   3.284
54068W        W24668  19.423  14.806  13.361
54069W        W24669  15.698  14.796  13.579
54070W        W24670   0.411  40.592   4.920
54071W        W24671  39.551   1.739  14.428
54072W        W24672  23.249  22.726   2.434
54073W        W24673  32.520   1.845  11.927
54074W        W24674  31.361  27.500  12.544
54075W        W24675   8.306   8.660   2.573
54076W        W24676  23.653  13.267  10.719
54077W        W24677  34.307   1.325   0.565
54078W        W24678  41.819  29.859   2.223
54079W        W24679  25.579  19.494  12.907
54080W        W24680   1.021  19.294   0.850
54081W        W24681  19.202   2.465   3.914
54082W        W24682  42.439   5.485   1.226
54083W        W24683   6.286   4.902  10.140
54084W        W24684   6.726  16.702  10.798
54085W        W24685  36.881  36.082   2.393
54086W        W24686   0.325  35.367   3.634
54087W        W24687  16.595  29.073   3.182
54088W        W24688   5.673  19.552  12.978
54089W        W24689  17.385  17.368   5.141
54090W        W24690  22.127   3.959   1.782
54091W        W24691  22.587  11.863   2.306
54092W        W24692  11.833  13.332   0.645
54093W        W24693  37.876  13.051   2.746
54094W        W24694   3.133  20.126  13.941
54095W        W24695  20.305  34.935   2.599
54096W        W24696  35.944  24.706   4.536
54097W        W24697   4.216  23.121   1.901
54098W        W24698  21.089  37.976  12.395
54099W        W24699   2.612   1.988   0.393
54100W        W24700  12.817   8.630  11.578
54101W        W24701  35.614  26.689  13.587
54102W        W24702  21.375   8.278   2.272
54103W        W24703   5.774  28.135   1.877
54104W        W24704  36.102  39.771  12.935
54105W        W24705  27.703  40.128   0.228
54106W        W24706  33.851  27.480  10.490
54107W        W24707   0.656  13.864   0.489
54108W        W24708  33.665  18.217  13.442
54109W        W24709  19.463   0.344  13.856
54110W        W24710  26.538  28.716   4.073
54111W        W24711  15.219   3.826   0.464
54112W        W24712  17.541  18.702   3.855
54113W        W24713  34.487   5.115   1.820
54114W        W24714  26.069  32.826  12.090
54115W        W24715  16.522  37.757   2.373
54116W        W24716  36.123  26.605  12.102
54117W        W24717  13.384  18.766  13.111
54118W        W24718   2.538  31.562   2.136
54119W        W24719   4.990  21.135   4.321
54120W        W24720  34.630  19.335   2.495
54121W        W24721  26.392   3.450  12.942
54122W        W24722  13.088  20.963   3.977
54123W        W24723  14.616  43.835   4.881
54124W        W24724  26.752  37.594  14.336
54125W        W24725  21.973  40.128   1.163
54126W        W24726  27.575   1.365   4.152
54127W        W24727   5.379  18.593  11.888
54128W        W24728  29.110  19.340  14.329
54129W        W24729  43.390   2.902   0.133
54130W        W24730  30.701  26.420   3.217
54131W        W24731  34.843  21.092  11.161
54132W        W24732  28.433  24.097   2.695
54133W        W24733  24.032   6.616   2.395
54134W        W24734   8.359  36.037  11.352
54135W        W24735  26.168  43.868   4.119
54136W        W24736  12.628  10.722  12.401
54137W        W24737  16.926   9.826   0.694
54138W        W24738  23.768  18.675   2.903
54139W        W24739  32.117  14.149   0.466
54140W        W24740  15.213  39.740  13.477
54141W        W24741  28.651  20.670   3.452
54142W        W24742   8.425  39.498   0.250
54143W        W24743  23.461  32.934  13.406
54144W        W24744   0.029  23.673   0.116
54145W        W24745   0.260   7.264  12.972
54146W        W24746   0.476  37.422  13.952
54147W        W24747   6.481  30.076   1.880
54148W        W24748  37.703  39.881   1.465
54149W        W24749  11.454  18.455   1.189
54150W        W24750  22.005  10.683   5.057
54151W        W24751  17.106  12.334  11.947
54152W        W24752  34.921  26.166   4.887
54153W        W24753  11.999   5.285   1.845
54154W        W24754  42.941  37.437   4.140
54155W        W24755   6.965  25.132   3.726
54156W        W24756  26.201  15.210  13.266
54157W        W24757  27.528  17.331  10.686
54158W        W24758  26.884  24.745  14.594
54159W        W24759  40.374   3.717   1.670
54160W        W24760  11.557   4.977  11.213
54161W        W24761   0.772  10.798  11.550
54162W        W24762  28.986  14.536   2.415
54163W        W24763  11.410  15.126   0.363
54164W        W24764  34.614  10.781  14.840
54165W        W24765  35.299  19.035  14.275
54166W        W24766  21.085  32.631  13.506
54167W        W24767  10.587  38.529   4.393
54168W        W24768  21.137   8.241   1.165
54169W        W24769   5.707  43.322   0.727
54170W        W24770   0.460   4.759   2.812
54171W        W24771   1.480  17.808  13.910
54172W        W24772  35.475  44.055   4.610
54173W        W24773  13.743  15.268   2.201
54174W        W24774  23.529  33.115   3.503
54175W        W24775  19.022  11.800  12.821
54176W        W24776  34.781  12.852   0.755
54177W        W24777  36.996  24.960  14.816
54178W        W24778  20.126  32.041   0.591
54179W        W24779   5.000  19.520   2.808
54180W        W24780  22.384   8.143  12.384
54181W        W24781  22.900  20.047   4.242
54182W        W24782  23.737  22.222   1.374
54183W        W24783  13.325  38.852   3.704
54184W        W24784  26.525  32.816   4.423
54185W        W24785  20.058   7.873   3.235
54186W        W24786  16.356  28.854   4.812
54187W        W24787   1.482  44.988  14.240
54188W        W24788  19.463  24.520   2.241
54189W        W24789  11.848  44.822   1.288
54190W        W24790  17.794  22.510  10.733
54191W        W24791  24.557  16.536   2.922
54192W        W24792  27.526  40.469   4.047
54193W        W24793  26.571  41.839   0.662
54194W        W24794  13.866  29.008   0.703
54195W        W24795   3.892  15.776  10.265
54196W        W24796   8.215  39.411   1.588
54197W        W24797   8.783  38.893   4.515
54198W        W24798  32.160  34.423  12.870
54199W        W24799  14.482  23.520  10.929
54200W        W24800  31.383  39.793  13.050
54201W        W24801   0.769  21.354   3.717
54202W        W24802   7.441  32.017   3.268
54203W        W24803   2.206  34.631   2.308
54204W        W24804  35.536  26.009  10.541
54205W        W24805  43.327  24.443   4.601
54206W        W24806  43.864  31.854   1.348
54207W        W24807   5.346  12.802  14.970
54208W        W24808  39.045  29.940   3.755
54209W        W24809   0.241   0.551  11.165
54210W        W24810   9.763  44.555   1.317
54211W        W24811  42.489  39.876  11.240
54212W        W24812  26.145  21.939   4.127
54213W        W24813  11.426   7.304  12.478
54214W        W24814  30.212  13.693   0.415
54215W        W24815  11.678  24.689   2.256
54216W        W24816  34.822  22.868  13.291
54217W        W24817  38.567   3.662  11.638
54218W        W24818  24.117  16.842   2.668
54219W        W24819  17.626  16.281  13.108
54220W        W24820   5.778  20.076   3.325
54221W        W24821  31.109  23.046   0.399
54222W        W24822  10.228   2.919  12.917
54223W        W24823   2.955  21.277   4.025
54224W        W24824  15.217  30.134   4.816
54225W        W24825   3.696  19.535  14.753
54226W        W24826  24.259  18.545  11.071
54227W        W24827  27.482   9.923  14.932
54228W        W24828  14.431  28.020  14.196
54229W        W24829  18.594  39.109  12.252
54230W        W24830  29.166   9.877  11.550
54231W        W24831  44.311  32.940  13.606
54232W        W24832   8.834  37.346  13.462
54233W        W24833  30.529  10.448   4.086
54234W        W24834  20.350   5.797  11.032
54235W        W24835  31.110  41.080   4.037
54236W        W24836   8.306  14.395   1.885
54237W        W24837   0.912  29.820   2.823
54238W        W24838   9.879   5.257  13.570
54239W        W24839  14.183  15.693   0.535
54240W        W24840  17.235   6.235  12.542
54241W        W24841  31.416  19.054  12.982
54242W        W24842   5.244   5.519   2.772
54243W        W24843  40.425  23.688  14.656
54244W        W24844  39.139  19.102  13.180
54245W        W24845   9.719   4.738  12.414
54246W        W24846   2.362  32.503  11.212
54247W        W24847   1.229  18.676  13.851
54248W        W24848  14.362  20.582  12.539
54249W        W24849  23.029  24.393   0.375
54250W        W24850   6.147   6.175   3.655
54251W        W24851  34.478  40.988   2.679
54252W        W24852  39.047  40.355  12.897
54253W        W24853  18.107  39.886  12.138
54254W        W24854  34.914   9.507  13.605
54255W        W24855  16.324  42.880   4.994
54256W        W24856  44.984  28.060  12.104
54257W        W24857  37.425  37.475  12.961
54258W        W24858  26.697   2.076   0.912
54259W        W24859  43.582  18.329   4.204
54260W        W24860   4.714   6.716  12.984
54261W        W24861  27.037  29.773  13.673
54262W        W24862   0.627  23.165   2.179
54263W        W24863  10.267  35.618  11.522
54264W        W24864   5.042  19.725   3.853
54265W        W24865  31.912  21.321  10.009
54266W        W24866   7.920  39.017  12.021
54267W        W24867  38.601  21.317   0.369
54268W        W24868  26.395  19.855   4.374
54269W        W24869   4.435  34.427  13.863
54270W        W24870  42.215  39.795   0.455
54271W        W24871  23.022   8.671   0.569
54272W        W24872   3.611  36.074   1.935
54273W        W24873  28.173  35.441   0.357
54274W        W24874  35.653  36.387   1.320
54275W        W24875  28.660  43.463   1.471
54276W        W24876  36.523  43.941  10.668
54277W        W24877  41.807  39.080  11.649
54278W        W24878  31.012  36.884  11.139
54279W        W24879   2.487  30.444  14.196
54280W        W24880  27.487  33.570   3.133
54281W        W24881  17.550   7.888   4.205
54282W        W24882  25.923   8.277   0.481
54283W        W24883  31.534   4.710  12.042
54284W        W24884  12.147   8.174  13.779
54285W        W24885  11.367  22.958   3.271
54286W        W24886  18.188   8.581   3.610
54287W        W24887  43.265  38.447  13.494
54288W        W24888  38.910   5.936  11.517
54289W        W24889  20.549  27.368   1.001
54290W        W24890  44.360   4.019   4.983
54291W        W24891  25.020  22.005  14.751
54292W        W24892  40.363  38.161  10.816
54293W        W24893  34.694  37.971   2.864
54294W        W24894  41.283   3.331  12.137
54295W        W24895  42.263  10.834  11.529
54296W        W24896  19.701  21.024   1.759
54297W        W24897  32.506  10.314   3.361
54298W        W24898  43.580  37.918  13.245
54299W        W24899   7.276   5.240  11.411
54300W        W24900  35.606   7.180  10.796
54301W        W24901  42.797  33.492   4.324
54302W        W24902  24.041  10.601   2.158
54303W        W24903  19.642  21.770   4.109
54304W        W24904  18.124  23.498  11.147
54305W        W24905  30.581  41.987  12.404
54306W        W24906  32.467  37.496   0.872
54307W        W24907  32.027  39.882   1.514
54308W        W24908  15.802  39.388  11.167
54309W        W24909  32.535  37.817  12.833
54310W        W24910  10.831  43.548   2.416
54311W        W24911  42.192   2.374  12.184
54312W        W24912  38.013  18.663   3.531
54313W        W24913  22.675  32.453   4.141
54314W        W24914   7.506  18.302  12.101
54315W        W24915   2.248  25.733   1.082
54316W        W24916   1.980  37.061  14.885
54317W        W24917  44.382   9.879   3.604
54318W        W24918  31.630  34.123   1.423
54319W        W24919  20.967  23.220  12.374
54320W        W24920  29.377  17.612  10.689
54321W        W24921  42.996  30.857  14.077
54322W        W24922   5.362  30.740   0.807
54323W        W24923  21.965  12.628   3.897
54324W        W24924   1.252  28.644   0.200
54325W        W24925  19.547  27.074   2.581
54326W        W24926   3.406   7.605   3.119
54327W        W24927   1.583  34.714  12.394
54328W        W24928  27.086  41.699   2.806
54329W        W24929  37.724  44.717  13.823
54330W        W24930  44.486  37.956  13.014
54331W        W24931   4.770  21.783  13.285
54332W        W24932  36.921  19.518  14.792
54333W        W24933   6.430  42.436  14.291
54334W        W24934   2.933  36.188  12.054
54335W        W24935  17.770  20.132  13.472
54336W        W24936  32.586  25.830  11.156
54337W        W24937   1.305   1.002  10.566
54338W        W24938  26.702  42.370   0.630
54339W        W24939  43.036  15.219  11.718
54340W        W24940  38.072  43.811  12.899
54341W        W24941  36.872  19.787  14.304
54342W        W24942  18.603  13.675   1.922
54343W        W24943  23.165  41.258   3.849
54344W        W24944  20.687   2.589  12.516
54345W        W24945  35.098  18.911   5.160
54346W        W24946  28.577  44.323  10.694
54347W        W24947  41.555  33.420   0.677
54348W        W24948  31.567  34.676   0.473
54349W        W24949   0.507  43.862  11.549
54350W        W24950  43.458  38.566   2.690
54351W        W24951   0.500  28.351   1.714
54352W        W24952  17.970  18.960   2.671
54353W        W24953  24.640  12.567   0.272
54354W        W24954   8.440  10.928  11.499
54355W        W24955   5.182   0.183  12.895
54356W        W24956  13.855  35.574  14.951
54357W        W24957  40.307  17.805   0.251
54358W        W24958  32.840  41.360   4.535
54359W        W24959  39.451  26.572   0.711
54360W        W24960  43.324  30.397   1.500
54361W        W24961  26.040  42.344  13.976
54362W        W24962   7.152  12.782   0.937
54363W        W24963  42.252   4.921  11.566
54364W        W24964  44.159  44.367   5.139
54365W        W24965  19.977   5.442   2.478
54366W        W24966   0.608  10.430  13.367
54367W        W24967  41.867  25.612   0.898
54368W        W24968  36.551   1.961  13.434
54369W        W24969  37.585   7.230   2.850
54370W        W24970  18.552   3.970   4.154
54371W        W24971  27.227  41.985  12.959
54372W        W24972   4.445  23.959  12.339
54373W        W24973  11.167  32.833   3.687
54374W        W24974  30.617  31.741  13.848
54375W        W24975  44.817  34.512  12.115
54376W        W24976   0.883  30.375   4.224
54377W        W24977   4.645  36.491   0.450
54378W        W24978  11.752  15.148   1.962
54379W        W24979  20.417  22.613   0.308
54380W        W24980  18.284  19.321   2.965
54381W        W24981  31.929  27.205  11.461
54382W        W24982   5.406   9.186  13.902
54383W        W24983   8.037  11.232   1.690
54384W        W24984  15.367  23.342   3.637
54385W        W24985  11.657  12.837  10.074
54386W        W24986  30.907  32.906   0.297
54387W        W24987   0.192   6.903  14.039
54388W        W24988  13.595  41.953   0.097
54389W        W24989   8.407  18.818  13.421
54390W        W24990  38.454  23.298   4.578
54391W        W24991  32.000   7.584   0.416
54392W        W24992  28.980  11.712  10.746
54393W        W24993  21.183  22.537  14.759
54394W        W24994   9.313   6.352   1.324
54395W        W24995  28.740   4.921   1.222
54396W        W24996  31.844  35.513  13.558
54397W        W24997  26.923  24.086   4.073
54398W        W24998  32.890  21.234  14.219
54399W        W24999  21.183  37.488  12.518
54400W        W25000   3.217   1.699  14.498
54401W        W25001   5.869  30.966   3.226
54402W        W25002  31.626  25.417   3.100
54403W        W25003   2.075  30.470  14.687
54404W        W25004  14.301  43.827   5.302
54405W        W25005  23.067  29.135  12.899
54406W        W25006   2.429   4.697   0.489
54407W        W25007  35.927   8.408  14.780
54408W        W25008  38.824  27.587   3.611
54409W        W25009  24.540  40.561  12.486
54410W        W25010  36.212  12.782   4.815
54411W        W25011  23.156  35.884  14.576
54412W        W25012   0.169  39.352  14.002
54413W        W25013  27.095  22.449  12.432
54414W        W25014  38.525  23.190  13.778
54415W        W25015  37.091  14.222   2.795
54416W        W25016  15.428  16.595   5.405
54417W        W25017  42.216  24.696  14.736
54418W        W25018  29.731   5.925   1.256
54419W        W25019  25.091  18.290  12.518
54420W        W25020  39.164  23.283   4.207
54421W        W25021  21.454  32.589  12.067
54422W        W25022  12.281  33.477  11.219
54423W        W25023   8.914  14.882  13.772
54424W        W25024  38.118  10.361   0.768
54425W        W25025  24.612  34.540  10.755
54426W        W25026  39.866  33.722   3.208
54427W        W25027  17.017  41.845  10.621
54428W        W25028  11.145  44.072  11.722
54429W        W25029  30.146   0.527  13.113
54430W        W25030  28.539  23.908  10.668
54431W        W25031  13.479  39.738  11.923
54432W        W25032  39.082  25.323  12.520
54433W        W25033  12.263  13.681  13.789
54434W        W25034  32.921  24.031   1.325
54435W        W25035   3.708  41.102  14.407
54436W        W25036  39.078   5.792   1.427
54437W        W25037  41.350  40.745  10.745
54438W        W25038  32.092  43.654  11.357
54439W        W25039  32.627  35.162   2.155
54440W        W25040  40.692  21.973   5.004
54441W        W25041  21.711   6.423  14.305
54442W        W25042  30.475  43.816   4.325
54443W        W25043  31.045  29.546  13.026
54444W        W25044  24.253  28.217   0.621
54445W        W25045  33.379  24.231  12.780
54446W        W25046  13.820  36.297   0.140
54447W        W25047  36.021  26.229   2.463
54448W        W25048  20.724   5.132   2.191
54449W        W25049   1.693  14.775  13.516
54450W        W25050  24.000  40.952   2.712
54451W        W25051  22.308  10.948  10.326
54452W        W25052  32.583  26.906   2.279
54453W        W25053  23.845  28.431   0.335
54454W        W25054  42.377  15.126   3.579
54455W        W25055  27.568  12.071  13.968
54456W        W25056  34.258  17.954  11.537
54457W        W25057   7.866  36.601   0.530
54458W        W25058   6.123  16.089   0.436
54459W        W25059  32.588  27.897  14.180
54460W        W25060  14.417  12.447  14.386
54461W        W25061  38.484  13.579  14.437
54462W        W25062  12.863  40.053  14.926
54463W        W25063  15.255  26.625   3.162
54464W        W25064  37.018  29.334   4.166
54465W        W25065   3.162  43.168   4.248
54466W        W25066  20.215   0.601   1.462
54467W        W25067  19.971  35.113   0.402
54468W        W25068   6.089  24.323  12.134
54469W        W25069  10.843  25.610  11.541
54470W        W25070  37.073  24.445  13.911
54471W        W25071  38.085  42.839   1.950
54472W        W25072  44.973   2.901  12.427
54473W        W25073   7.212  13.572   2.772
54474W        W25074  27.137  33.035   0.744
54475W        W25075   4.366  37.044  10.681
54476W        W25076  35.965  26.104  13.059
54477W        W25077  27.192  14.691   1.667
54478W        W25078  26.032   9.193  11.318
54479W        W25079  32.071  19.583  13.432
54480W        W25080   9.739  34.038  11.075
54481W        W25081  16.834   6.776  14.406
54482W        W25082  11.495  14.657  13.233
54483W        W25083  33.262  25.985   1.818
54484W        W25084  20.168  18.149  14.031
54485W        W25085  25.486  43.352   4.246
54486W        W25086  19.237   3.249  11.970
54487W        W25087   7.646  23.767   3.010
54488W        W25088  35.388  31.590   0.477
54489W        W25089  27.619  33.349   0.971
54490W        W25090   7.752  37.260   4.635
54491W        W25091  22.021  19.783  13.169
54492W        W25092  42.512  24.944  11.651
54493W        W25093  18.124  19.743  12.161
54494W        W25094   3.966   2.287   0.292
54495W        W25095  17.605  27.215   2.420
54496W        W25096  33.853  44.767  14.940
54497W        W25097  23.039   0.764   3.350
54498W        W25098  12.770   9.916   0.809
54499W        W25099  43.676  30.085   1.240
54500W        W25100  17.623  24.289   1.942
54501W        W25101  33.239  11.313   4.062
54502W        W25102  30.070  16.719   0.401
54503W        W25103  34.803  30.370  13.958
54504W        W25104  16.595  21.542  12.450
54505W        W25105  21.657   2.711   2.010
54506W        W25106  38.425  14.773  12.938
54507W        W25107  14.777  24.651  13.873
54508W        W25108   3.102  43.494  11.156
54509W        W25109   7.463  26.956   2.754
54510W        W25110  22.756   7.269  13.257
54511W        W25111  39.720  13.558  11.420
54512W        W25112   5.423  34.888   3.628
54513W        W25113  13.326  13.330  12.661
54514W        W25114  40.856  39.070  12.079
54515W        W25115  10.834  15.878  13.397
54516W        W25116   2.982  26.925  12.123
54517W        W25117  40.776   4.439   3.998
54518W        W25118  35.935   0.285   1.433
54519W        W25119  17.752   3.961   0.623
54520W        W25120   2.996  22.764  13.434
54521W        W25121  38.075  18.524  14.417
54522W        W25122  30.118  40.459   0.818
54523W        W25123  37.632   8.087   2.829
54524W        W25124  40.409  39.582   2.866
54525W        W25125  38.898  24.186  13.264
54526W        W25126  12.390   0.284   1.828
54527W        W25127  19.536  36.919   3.596
54528W        W25128  41.065  16.327   3.684
54529W        W25129  12.748  43.737   3.717
54530W        W25130   9.167  11.635   3.185
54531W        W25131  33.070  10.796   3.897
54532W        W25132   9.225  28.361   2.175
54533W        W25133  26.746  44.011  11.223
54534W        W25134  16.124  20.306  13.142
54535W        W25135   2.124   6.715  14.232
54536W        W25136  28.563  23.152   4.757
54537W        W25137  33.119  39.553  10.911
54538W        W25138  30.192  17.284   0.218
54539W        W25139  42.780   3.218  12.065
54540W        W25140   3.614  38.692   0.255
54541W        W25141   4.783  16.230  12.863
54542W        W25142  38.147  38.391   0.274
54543W        W25143   5.643   6.305   4.769
54544W        W25144  18.090  25.940  12.019
54545W        W25145  11.845  21.046  10.134
54546W        W25146   8.884  11.222   2.122
54547W        W25147  43.512   2.868  12.428
54548W        W25148   0.463  28.773  14.633
54549W        W25149  29.232  17.678   4.097
54550W        W25150  30.664  32.253  13.988
54551W        W25151   3.299   8.465  10.600
54552W        W25152  22.602   4.899  13.885
54553W        W25153  22.065   0.740  13.373
54554W        W25154  25.639  44.337   9.698
54555W        W25155  31.831   3.933   1.348
54556W        W25156  40.193  29.574  11.551
54557W        W25157  44.873  14.871   2.788
54558W        W25158   1.785  17.875  12.976
54559W        W25159  23.666  36.519   1.746
54560W        W25160  19.877  19.335   0.439
54561W        W25161  29.207   1.421   1.226
54562W        W25162   5.933  36.512  13.452
54563W        W25163  19.575  41.492   0.854
54564W        W25164  43.946  19.120  12.259
54565W        W25165  40.106  24.230  11.459
54566W        W25166  24.157  42.438   0.295
54567W        W25167   1.240  20.640   3.582
54568W        W25168   1.344  15.969  11.974
54569W        W25169   8.781  31.387   0.681
54570W        W25170  41.824   5.630  10.650
54571W        W25171  12.077   2.836  14.973
54572W        W25172  17.477  18.189  12.471
54573W        W25173  33.626  32.482  12.536
54574W        W25174   2.447   0.896  13.425
54575W        W25175  22.717   7.305  12.751
54576W        W25176   2.828  30.592   2.357
54577W        W25177   0.370   4.063   4.162
54578W        W25178  31.367  42.300  13.819
54579W        W25179   0.895   4.437  11.649
54580W        W25180  43.886  21.459  14.062
54581W        W25181   9.624  44.268   2.745
54582W        W25182  32.988  14.078  12.539
54583W        W25183   6.379  27.613   1.282
54584W        W25184  24.339   4.847  12.453
54585W        W25185  34.166  39.835   3.931
54586W        W25186  28.916  42.597   3.445
54587W        W25187  34.646  35.063   3.437
54588W        W25188   3.521  26.559  13.486
54589W        W25189   8.260  14.775  11.719
54590W        W25190  31.651  44.471   4.818
54591W        W25191  24.757  10.122  12.611
54592W        W25192   3.272  32.479  14.553
54593W        W25193  35.099  39.488  12.483
54594W        W25194  19.607  13.530   4.297
54595W        W25195   7.456  33.975  12.149
54596W        W25196  16.726  26.732   1.739
54597W        W25197  42.474  43.334  12.594
54598W        W25198  18.864  11.990   1.706
54599W        W25199   7.844  39.754   4.279
54600W        W25200  31.935  18.839   3.190
54601W        W25201  10.807  29.829  11.656
54602W        W25202  10.730   7.851  13.630
54603W        W25203   9.357  27.871   2.109
54604W        W25204  37.224  34.944   0.790
54605W        W25205  10.929  22.543  12.476
54606W        W25206  30.497   4.236   0.217
54607W        W25207  32.467  15.147   1.225
54608W        W25208   2.476  34.966  10.748
54609W        W25209  39.474  27.497   1.062
54610W        W25210   0.276  20.895  14.007
54611W        W25211  37.932  11.638  14.949
54612W        W25212  13.170  35.508   4.686
54613W        W25213  42.806  35.056  12.485
54614W        W25214  17.557  31.096   0.244
54615W        W25215  27.570  40.409   1.173
54616W        W25216  12.564   6.604  14.379
54617W        W25217  28.538  42.755  11.374
54618W        W25218  32.558  19.724   1.262
54619W        W25219  20.930  20.123  11.052
54620W        W25220  42.819   6.334   5.165
54621W        W25221  41.553   0.363   3.819
54622W        W25222  24.124  37.745   0.381
54623W        W25223  44.902  21.677  11.561
54624W        W25224  39.292  39.261  12.317
54625W        W25225  32.069  17.522  11.167
54626W        W25226  12.277  21.156   1.885
54627W        W25227  26.318  16.040   2.288
54628W        W25228  26.750  15.045   1.859
54629W        W25229  42.234  23.556   1.382
54630W        W25230  25.773  29.394  12.639
54631W        W25231  44.734  30.722  13.443
54632W        W25232  34.470   6.192   3.981
54633W        W25233  32.939  34.618  11.569
54634W        W25234  33.838  40.853   1.245
54635W        W25235  14.332  22.252  14.794
54636W        W25236  15.135   5.727  12.893
54637W        W25237  40.087  16.324  11.904
54638W        W25238   7.399   1.048  13.338
54639W        W25239  25.469  37.940   3.395
54640W        W25240  43.055  37.936   4.097
54641W        W25241  17.996  40.864   4.405
54642W        W25242  29.091  32.891  11.645
54643W        W25243   4.679  31.369  14.910
54644W        W25244  15.420   1.782   3.613
54645W        W25245  29.867  42.997   2.186
54646W        W25246  18.503  39.973  12.453
54647W        W25247  38.252  41.030   0.242
54648W        W25248   5.419  26.162   4.163
54649W        W25249   0.142  35.484  11.896
54650W        W25250  43.372   3.781  10.641
54651W        W25251  40.461  32.536  11.896
54652W        W25252  40.012   1.057   2.731
54653W        W25253  14.115  32.429   1.410
54654W        W25254   9.895   5.249  14.477
54655W        W25255  15.193  20.535  14.386
54656W        W25256  42.034  21.087   0.026
54657W        W25257  25.900  20.206   2.566
54658W        W25258   9.204  34.657   3.663
54659W        W25259   9.377  21.115   3.210
54660W        W25260  38.336  10.335  12.486
54661W        W25261  44.595  35.048  13.743
54662W        W25262  38.087  31.489  12.999
54663W        W25263  26.157  11.274   2.343
54664W        W25264  40.331  41.049  11.627
54665W        W25265  26.710  43.877  12.110
54666W        W25266  34.450  11.864  13.337
54667W        W25267  19.816  17.100   3.682
54668W        W25268  11.913  31.040   1.375
54669W        W25269  16.336  15.862  12.166
54670W        W25270  36.416  27.948   1.680
54671W        W25271  10.100  26.150  10.822
54672W        W25272  41.480  26.096  11.889
54673W        W25273  42.329   3.887  10.774
54674W        W25274  25.933  13.663  14.869
54675W        W25275  28.372  21.594   4.772
54676W        W25276  13.157  23.138   3.581
54677W        W25277   5.903  29.410  14.552
54678W        W25278  41.977  23.308   5.017
54679W        W25279   6.834  28.767  14.833
54680W        W25280  18.211  12.734  14.941
54681W        W25281  43.905  21.808   3.913
54682W        W25282  25.643  15.849  13.879
54683W        W25283  10.029  22.038   1.627
54684W        W25284  10.981  14.899  14.425
54685W        W25285   3.226  30.429  13.426
54686W        W25286  26.392  20.226   2.408
54687W        W25287  13.458   8.325  13.803
54688W        W25288   5.253  12.285  14.064
54689W        W25289  44.799  43.073   2.176
54690W        W25290   4.830  29.563   3.135
54691W        W25291  44.659   8.979  13.759
54692W        W25292  26.438  30.611  11.784
54693W        W25293  35.447  30.611  14.341
54694W        W25294   5.982   0.063   0.844
54695W        W25295  25.382  19.929   3.174
54696W        W25296  42.739  18.016  11.520
54697W        W25297  34.421  41.345  12.547
54698W        W25298  43.742   6.452  13.859
54699W        W25299  31.901  36.919   3.915
54700W        W25300  15.058  44.893   0.457
54701W        W25301   1.293  32.297   2.918
54702W        W25302  23.667  34.636   1.363
54703W        W25303   4.371  36.902   3.928
54704W        W25304  41.942  27.242   4.018
54705W        W25305  18.048  17.775  13.025
54706W        W25306  35.084  20.310  13.794
54707W        W25307   1.016  28.567  10.962
54708W        W25308  44.946  31.393  13.784
54709W        W25309  19.795   3.482  10.617
54710W        W25310   8.438  17.499   3.232
54711W        W25311   1.279  29.968  11.160
54712W        W25312   8.016  27.724  10.617
54713W        W25313  32.678  44.950  13.504
54714W        W25314  25.672  22.890  13.411
54715W        W25315  33.909  29.755   0.645
54716W        W25316  33.961   7.722   1.173
54717W        W25317  23.606   4.287  13.372
54718W        W25318  13.799  34.118   2.710
54719W        W25319  20.185  20.319   1.745
54720W        W25320  40.789   6.419   1.310
54721W        W25321  31.914  19.743   3.289
54722W        W25322  22.775  15.886   5.018
54723W        W25323  24.647  37.907   2.400
54724W        W25324   8.202  18.624   0.777
54725W        W25325  34.812  31.208   1.254
54726W        W25326  37.163  14.301  12.413
54727W        W25327   2.472  28.550  12.050
54728W        W25328  36.568  11.661  13.413
54729W        W25329  12.372  18.716   3.732
54730W        W25330  30.601  38.258   9.740
54731W        W25331  11.667  25.394   0.892
54732W        W25332  33.749   3.352   1.628
54733W        W25333  26.976   4.876   0.744
54734W        W25334  26.166  10.211   0.372
54735W        W25335   8.874  33.060  14.042
54736W        W25336  22.239  35.075   3.637
54737W        W25337  30.954  10.260  10.181
54738W        W25338  40.710  42.573   4.456
54739W        W25339  30.477  32.080  11.142
54740W        W25340   5.408   0.815   1.444
54741W        W25341  30.699  37.841  12.398
54742W        W25342  23.301   8.357  14.688
54743W        W25343   4.860  36.342  14.999
54744W        W25344  23.723   3.001  11.571
54745W        W25345  21.472   5.598  12.607
54746W        W25346  28.323  20.123  10.125
54747W        W25347   4.323  38.746  10.495
54748W        W25348  24.206  19.709   1.423
54749W        W25349   2.691  19.771  11.952
54750W        W25350  43.788  15.700  10.969
54751W        W25351  22.463  42.293  11.147
54752W        W25352  39.435  21.649   3.076
54753W        W25353  25.192  13.364  13.041
54754W        W25354  18.035  41.240   2.272
54755W        W25355  44.742   0.890   3.248
54756W        W25356  34.413  24.248  11.605
54757W        W25357  20.339   8.726  11.422
54758W        W25358  41.862  17.784   1.920
54759W        W25359  12.733  39.413   0.736
54760W        W25360   5.979   0.438   3.765
54761W        W25361  20.331  27.715  11.166
54762W        W25362  20.786  38.123   4.243
54763W        W25363   3.909  41.998   2.957
54764W        W25364  37.285  34.993   4.541
54765W        W25365  35.363  43.936  11.310
54766W        W25366   6.639   5.548  14.262
54767W        W25367   0.794  42.044  10.482
54768W        W25368   0.526   5.363   4.066
54769W        W25369  39.590  38.038  12.898
54770W        W25370  15.138  42.147   9.537
54771W        W25371  12.730  20.592   0.716
54772W        W25372  34.981   2.197   1.437
54773W        W25373  36.725  44.361   1.046
54774W        W25374  29.316  28.333   3.301
54775W        W25375   7.624  16.593  12.490
54776W        W25376  17.540  21.982   2.750
54777W        W25377  35.511  18.088  11.736
54778W        W25378  35.993  20.043  10.657
54779W        W25379  33.385  37.752   0.993
54780W        W25380  43.323  34.285   4.549
54781W        W25381  24.447  22.097   0.932
54782W        W25382  11.354  24.719   4.583
54783W        W25383  33.261  13.771   2.755
54784W        W25384  21.667  15.142   3.815
54785W        W25385   1.017   7.281   1.949
54786W        W25386  33.653  39.513   2.318
54787W        W25387  43.034  14.404  12.088
54788W        W25388  29.071  32.847   4.517
54789W        W25389  18.309  34.802   2.832
54790W        W25390  28.281  44.968   1.750
54791W        W25391  33.002   7.603  10.740
54792W        W25392  26.304  27.998   0.395
54793W        W25393  42.142  19.797  14.016
54794W        W25394  13.749   0.509   3.120
54795W        W25395  20.021  29.267   9.914
54796W        W25396  41.349  19.587   2.252
54797W        W25397  35.223   4.584   1.287
54798W        W25398  39.096  32.834  11.948
54799W        W25399  11.739  10.765  11.154
54800W        W25400   2.227  38.027   0.837
54801W        W25401  26.343  33.265  12.143
54802W        W25402  41.588  22.323  11.142
54803W        W25403   4.426  25.183  14.335
54804W        W25404  40.028  41.967  12.507
54805W        W25405   0.473   9.353   4.750
54806W        W25406  44.300   8.661   4.092
54807W        W25407  25.770  11.577   0.965
54808W        W25408   4.473   6.778  12.035
54809W        W25409  32.458  39.761  12.452
54810W        W25410  39.093   1.238   1.823
54811W        W25411  12.329  44.796  11.692
54812W        W25412   5.976  34.038  10.480
54813W        W25413  30.886  19.712   3.178
54814W        W25414  44.757  18.031  13.403
54815W        W25415  12.226  22.720   1.287
54816W        W25416  23.938  30.841  12.089
54817W        W25417  27.392   1.324  12.048
54818W        W25418   9.185  19.131   2.844
54819W        W25419  35.424   9.907  14.008
54820W        W25420   7.644  31.304  11.111
54821W        W25421  31.064  26.037  11.007
54822W        W25422  33.484  26.603  10.725
54823W        W25423   7.448  19.421  14.033
54824W        W25424  22.191  11.738   0.547
54825W        W25425  20.630  21.871  12.693
54826W        W25426  34.801  32.989   0.046
54827W        W25427  39.244  25.616   3.780
54828W        W25428  39.669  40.807   3.132
54829W        W25429  12.297   9.130  13.289
54830W        W25430  43.960   9.190   3.308
54831W        W25431   6.506  44.936   0.686
54832W        W25432  26.710   2.672  14.801
54833W        W25433   2.226  17.089  11.140
54834W        W25434  43.418  39.798   2.684
54835W        W25435  35.580  17.355   1.713
54836W        W25436  10.143  37.064   4.698
54837W        W25437   5.127  26.255   3.298
54838W        W25438  31.190   4.778  14.063
54839W        W25439  42.047  25.473  14.396
54840W        W25440  16.255  33.416   1.235
54841W        W25441  12.334  19.555   2.858
54842W        W25442  25.095  19.587  12.137
54843W        W25443  32.968  10.884  10.442
54844W        W25444  30.193  18.303   2.268
54845W        W25445  13.970  11.918   0.142
54846W        W25446  15.573  31.337  11.962
54847W        W25447  29.718  12.680   1.908
54848W        W25448  12.129  39.518  12.641
54849W        W25449   9.859  21.106  14.059
54850W        W25450  12.365  30.573  10.781
54851W        W25451  39.072  29.373  12.221
54852W        W25452  27.853  21.521  14.850
54853W        W25453  18.336   4.427   1.726
54854W        W25454  25.576   5.129   3.433
54855W        W25455  13.706  30.919  11.118
54856W        W25456  42.270   1.238  14.520
54857W        W25457  14.405   3.359  11.902
54858W        W25458  39.314  18.061   4.504
54859W        W25459  12.809  27.947   3.168
54860W        W25460  32.814  21.123   4.168
54861W        W25461  26.015  36.782   0.047
54862W        W25462   3.343   7.916  13.888
54863W        W25463  12.181  14.651   3.314
54864W        W25464   5.098  11.705  13.356
54865W        W25465  29.679   8.671   0.555
54866W        W25466  34.362  10.825  14.386
54867W        W25467  32.645  12.696  11.616
54868W        W25468  32.514  26.187  12.889
54869W        W25469  12.850  39.187  12.118
54870W        W25470  25.988  32.317  12.051
54871W        W25471   9.799  15.627   4.591
54872W        W25472   3.016   3.379  13.786
54873W        W25473  31.207  28.026   0.820
54874W        W25474  30.970  21.545   2.807
54875W        W25475  32.069   9.777  11.995
54876W        W25476   3.484  39.520  11.149
54877W        W25477   4.201  44.962  12.394
54878W        W25478  31.103   7.915  14.463
54879W        W25479  32.613  41.933   4.104
54880W        W25480  19.105  33.447  11.487
54881W        W25481   0.210  23.525  12.455
54882W        W25482  40.071  18.762  14.910
54883W        W25483  22.523   4.437  12.168
54884W        W25484   4.488  22.995  13.371
54885W        W25485   2.737  43.357  13.005
54886W        W25486  39.775  21.575   2.684
54887W        W25487  39.518   4.035  14.769
54888W        W25488  23.258  24.221  14.754
54889W        W25489  12.509  37.960   3.412
54890W        W25490  29.014  34.686  12.872
54891W        W25491  15.660  19.823   2.226
54892W        W25492  33.882   8.146   1.930
54893W        W25493  21.634  43.183   2.100
54894W        W25494  26.162  44.946   4.784
54895W        W25495  22.169  39.000  14.414
54896W        W25496   6.436  11.866  13.083
54897W        W25497  39.273  32.931   3.747
54898W        W25498  23.050  10.623   9.879
54899W        W25499   2.429   5.025   4.700
54900W        W25500  40.829   3.063   1.344
54901W        W25501   8.738   4.821  14.386
54902W        W25502   8.747  42.947   2.697
54903W        W25503   4.431  36.540   1.790
54904W        W25504  38.587  35.520  14.792
54905W        W25505  12.392   5.835   0.683
54906W        W25506  33.316   1.735   3.243
54907W        W25507  32.404  12.596  13.168
54908W        W25508   3.580  13.867   0.210
54909W        W25509  30.371   3.735   0.263
54910W        W25510  38.851  24.169   2.781
54911W        W25511  39.122  38.470   4.659
54912W        W25512   6.200  14.508  14.920
54913W        W25513  39.052  19.528   0.845
54914W        W25514  23.066   7.282  11.414
54915W        W25515  32.367   2.329  11.890
54916W        W25516  14.895  37.477  11.300
54917W        W25517  19.477  28.774   3.315
54918W        W25518  44.776  37.918  10.954
54919W        W25519   3.258   0.674  10.282
54920W        W25520  43.637  36.336  12.482
54921W        W25521  31.196  44.436   4.506
54922W        W25522  36.102  10.605   1.590
54923W        W25523  18.071  14.737  12.095
54924W        W25524   5.432  10.972   3.669
54925W        W25525  18.782  33.834   4.618
54926W        W25526  27.470  26.100  11.119
54927W        W25527  19.761  35.100  13.801
54928W        W25528  36.543  35.149  11.550
54929W        W25529  10.252  42.995   3.757
54930W        W25530   9.844   2.168   3.762
54931W        W25531   8.854  19.598   4.275
54932W        W25532  19.584  33.426   3.035
54933W        W25533   9.542   6.357   0.798
54934W        W25534  26.768  24.729  11.159
54935W        W25535  43.304  32.013  13.612
54936W        W25536  42.486  12.520   1.144
54937W        W25537  33.676  25.698  12.417
54938W        W25538  44.485  42.804   3.333
54939W        W25539   7.086   5.847   0.086
54940W        W25540   3.077  43.348   1.857
54941W        W25541  22.699  23.855  13.358
54942W        W25542  40.007  19.813   2.320
54943W        W25543  12.327  19.060  13.445
54944W        W25544  44.546  17.848  13.823
54945W        W25545  28.997  30.140   4.622
54946W        W25546   7.488   0.524  11.134
54947W        W25547  25.468  35.606   3.657
54948W        W25548  15.027  35.041   2.172
54949W        W25549  28.199  17.269   0.212
54950W        W25550  37.675   5.887  14.464
54951W        W25551   0.555  38.463   1.818
54952W        W25552   3.253  10.740   3.854
54953W        W25553  17.965  28.951  13.061
54954W        W25554  13.632  31.216  12.577
54955W        W25555  40.257  36.353   1.199
54956W        W25556  17.798  42.515   3.364
54957W        W25557   7.770  32.565   4.121
54958W        W25558  34.614  33.367   2.340
54959W        W25559  33.535   1.872  11.986
54960W        W25560  37.223  17.863   2.727
54961W        W25561  28.917  18.362  10.663
54962W        W25562   2.815   6.288   4.856
54963W        W25563  38.828  13.553   2.816
54964W        W25564  27.795   2.860   4.771
54965W        W25565  35.180  15.635  12.012
54966W        W25566  21.620  25.586  14.868
54967W        W25567  15.533  36.562  10.764
54968W        W25568  21.729   5.866  10.097
54969W        W25569   4.079  31.415  10.790
54970W        W25570  15.686   8.407  12.396
54971W        W25571  26.544  16.749   1.213
54972W        W25572  34.054   4.211   4.433
54973W        W25573   7.059  31.337  13.992
54974W        W25574  18.171  24.489  12.636
54975W        W25575  32.403  14.802   4.393
54976W        W25576  40.734  23.714  10.728
54977W        W25577  41.086  41.051  14.916
54978W        W25578  11.092  25.652   1.642
54979W        W25579  41.298  29.798  11.143
54980W        W25580   4.420  40.003  12.470
54981W        W25581  29.352   8.220  10.705
54982W        W25582  35.957  32.525   3.124
54983W        W25583  44.260  43.787   3.434
54984W        W25584  38.127  16.717  13.763
54985W        W25585  34.069  29.069   0.012
54986W        W25586  13.423   3.285  12.140
54987W        W25587  30.886  27.428  12.741
54988W        W25588  27.118  20.623  10.650
54989W        W25589  41.242  26.482  11.146
54990W        W25590  12.323  28.021   0.080
54991W        W25591  27.960  39.517  13.826
54992W        W25592  44.021   7.552   2.274
54993W        W25593   5.316  44.502   1.055
54994W        W25594  21.564  31.637   1.302
54995W        W25595  21.529   7.831   2.458
54996W        W25596  23.057  31.592  14.717
54997W        W25597   9.982   9.394   0.911
54998W        W25598  31.249  19.052   4.765
54999W        W25599   6.551  10.502  11.501
55000W        W25600   1.857   4.490   0.922
55001W        W25601   3.438  17.630  14.951
55002W        W25602  16.444   7.350  11.709
55003W        W25603  30.193  36.843  13.419
55004W        W25604  44.833  12.054  13.152
55005W        W25605  14.865  23.971   1.852
55006W        W25606  12.773   7.255   2.223
55007W        W25607  29.431   6.359   2.328
55008W        W25608  37.375   8.748  14.545
55009W        W25609   8.271   9.205  12.140
55010W        W25610  17.137  38.978   3.330
55011W        W25611  39.866  20.053  14.354
55012W        W25612  20.292   0.547  14.309
55013W        W25613  31.859   8.554  10.821
55014W        W25614  35.552  25.519  12.079
55015W        W25615  10.660  31.477  12.928
55016W        W25616   0.701  17.024  12.318
55017W        W25617  37.595  12.738   0.639
55018W        W25618  38.566  14.824  12.052
55019W        W25619   5.846  28.149   2.604
55020W        W25620  31.889  28.700   1.204
55021W        W25621  10.174   7.208   0.829
55022W        W25622  37.075  27.619   4.717
55023W        W25623   5.443   2.270   0.474
55024W        W25624  44.499  27.953   2.152
55025W        W25625  31.945  35.049  12.074
55026W        W25626  31.481  26.428  14.953
55027W        W25627  22.776  34.498   3.349
55028W        W25628  15.155  17.162   2.183
55029W        W25629  37.961  14.013   0.304
55030W        W25630  27.424  10.148  12.910
55031W        W25631   9.703  39.791   1.307
55032W        W25632   2.097  13.730   4.064
55033W        W25633  37.966   6.432  11.010
55034W        W25634  12.403  29.136   4.210
55035W        W25635  30.696  12.607  11.599
55036W        W25636  40.809   0.858  12.751
55037W        W25637  29.969  15.133  10.407
55038W        W25638  18.049  26.617  14.193
55039W        W25639  35.145  12.113   0.451
55040W        W25640  22.082  32.026  13.927
55041W        W25641  34.101  31.886   1.815
55042W        W25642  26.699  41.863   3.118
55043W        W25643  35.356  35.792  13.731
55044W        W25644   2.524  15.074   2.890
55045W        W25645  26.900  31.488   4.905
55046W        W25646  26.119  13.792  12.036
55047W        W25647  14.887  11.904   3.194
55048W        W25648  41.839  28.760   1.222
55049W        W25649  12.843  39.735  13.614
55050W        W25650   3.965  11.863   4.154
55051W        W25651  38.581   3.526   2.682
55052W        W25652  37.778  37.287  10.076
55053W        W25653   8.670  15.003  11.957
55054W        W25654  17.027   4.879   1.733
55055W        W25655   8.720   8.943  14.887
55056W        W25656  20.028  40.510   1.199
55057W        W25657  40.646  36.270  12.710
55058W        W25658  12.191  27.896  12.980
55059W        W25659  14.719  25.570   4.929
55060W        W25660  12.169   0.609   0.873
55061W        W25661  23.255  19.646   4.190
55062W        W25662  41.773  21.583  14.824
55063W        W25663  27.369  44.562   2.282
55064W        W25664  13.824  14.858   1.196
55065W        W25665  17.734   8.588   4.979
55066W        W25666  26.950  28.198  12.892
55067W        W25667  24.221  41.313   4.598
55068W        W25668  30.654   2.438  11.511
55069W        W25669  20.970  42.333   0.476
55070W        W25670  11.447  43.820   0.015
55071W        W25671  30.550  22.835   2.926
55072W        W25672   9.152  25.509  12.926
55073W        W25673  20.136  37.728   3.733
55074W        W25674  34.574  34.938   1.279
55075W        W25675  33.174  24.220   4.345
55076W        W25676  13.130  41.346   3.577
55077W        W25677  18.178   5.727   4.409
55078W        W25678  23.725  29.855  12.981
55079W        W25679   8.308  14.352  12.033
55080W        W25680  37.658  27.881  11.596
55081W        W25681   3.426  30.639  14.446
55082W        W25682  20.799  20.266   1.379
55083W        W25683   6.444  41.263  13.948
55084W        W25684   0.970   9.203   0.442
55085W        W25685  15.376  18.719   4.539
55086W        W25686   2.022  19.848  10.733
55087W        W25687  29.373  15.842  11.151
55088W        W25688  26.068  29.735  12.373
55089W        W25689  38.870  28.206  12.584
55090W        W25690  40.027  14.455  10.689
55091W        W25691  40.033  24.548  13.187
55092W        W25692   0.274   1.952  10.733
55093W        W25693  22.303  10.819   1.375
55094W        W25694  20.091  20.146   2.232
55095W        W25695   0.333  37.481  12.409
55096W        W25696   8.633  11.095  10.771
55097W        W25697  39.581  42.545  14.605
55098W        W25698  27.513  27.714  10.546
55099W        W25699  24.056  21.828   2.272
55100W        W25700  10.824  42.896   4.230
55101W        W25701  37.635  20.123  14.557
55102W        W25702  35.688  16.900  11.690
55103W        W25703  23.774   4.188   3.265
55104W        W25704   2.357  20.199  12.643
55105W        W25705  36.297  20.177   2.263
55106W        W25706  29.526  16.535  10.750
55107W        W25707   4.256  26.747   2.996
55108W        W25708   6.191  37.780  12.363
55109W        W25709   6.285  20.744  12.530
55110W        W25710   4.770  36.828  13.722
55111W        W25711  24.292   9.046   3.663
55112W        W25712  11.642  28.606  10.749
55113W        W25713  12.264   8.850  10.918
55114W        W25714  19.307  30.243  12.093
55115W        W25715  40.906   0.763  14.945
55116W        W25716  43.446  41.936  12.581
55117W        W25717  15.830  41.057   2.117
55118W        W25718  25.347  38.475   4.642
55119W        W25719   2.883  40.131   2.668
55120W        W25720  42.335   3.975   1.691
55121W        W25721   4.124  19.902   2.495
55122W        W25722  19.697  11.723   0.749
55123W        W25723   6.419  21.431  11.297
55124W        W25724  29.037  30.472  14.313
55125W        W25725  27.318   9.896   3.726
55126W        W25726  19.481  37.071  14.872
55127W        W25727  33.491  25.246   3.339
55128W        W25728  15.127  30.039  11.555
55129W        W25729  39.114  25.837  12.485
55130W        W25730   7.749  12.738  11.580
55131W        W25731  28.410  27.624  14.879
55132W        W25732   4.932  34.510  14.015
55133W        W25733  42.260  39.048  14.868
55134W        W25734   0.999  43.458   2.327
55135W        W25735  27.147  28.700  14.375
55136W        W25736   6.328  16.866   4.556
55137W        W25737  25.504  17.178   0.433
55138W        W25738   5.964  37.591  13.863
55139W        W25739  28.600  23.674  13.415
55140W        W25740  41.455  20.034  11.798
55141W        W25741  34.931  37.130   4.077
55142W        W25742  33.959  27.912  12.057
55143W        W25743  11.314  44.260   3.350
55144W        W25744  38.230  41.022  11.346
55145W        W25745  26.762  31.981   4.257
55146W        W25746   8.745  26.536  11.937
55147W        W25747  10.608  39.463   0.535
55148W        W25748  29.493  13.153   0.276
55149W        W25749  18.359  25.763   2.768
55150W        W25750  17.767  14.128   0.202
55151W        W25751  16.708  41.988   2.713
55152W        W25752   8.415  14.511   0.462
55153W        W25753  22.928  12.701   2.247
55154W        W25754  21.436  28.583   1.884
55155W        W25755  14.105  30.097   0.195
55156W        W25756   4.072  38.346  11.853
55157W        W25757  20.493  38.669  11.261
55158W        W25758  20.129   2.352   0.871
55159W        W25759  42.335  29.026  14.043
55160W        W25760  40.980  32.997   0.925
55161W        W25761   5.748   5.349  13.099
55162W        W25762  24.925   7.168   0.978
55163W        W25763  11.566   2.003   5.098
55164W        W25764  40.925  30.913  11.172
55165W        W25765  26.958   6.912  13.539
55166W        W25766  27.969  26.560   4.077
55167W        W25767  44.017  26.951  12.000
55168W        W25768   2.283  40.081   0.218
55169W        W25769  15.102  23.192   4.078
55170W        W25770  12.096  42.704   2.742
55171W        W25771  17.366  21.035   1.330
55172W        W25772  35.604  40.820  11.466
55173W        W25773  39.982   9.634   3.645
55174W        W25774   4.828  41.436  13.091
55175W        W25775   8.698  11.684   4.587
55176W        W25776  43.848  33.458   1.385
55177W        W25777  14.169  21.969   2.483
55178W        W25778   1.694   1.848   1.944
55179W        W25779  37.485  30.951  10.388
55180W        W25780   5.308  28.876   0.379
55181W        W25781  22.187  25.705  13.236
55182W        W25782  24.653  32.226  11.177
55183W        W25783  32.651  32.736  14.942
55184W        W25784  13.248  43.941  10.031
55185W        W25785  11.504  25.139   1.308
55186W        W25786  43.814  39.418  14.241
55187W        W25787  30.927  40.300   3.662
55188W        W25788  28.465  43.342   3.424
55189W        W25789   9.918  40.455  13.416
55190W        W25790  38.046  18.310   3.166
55191W        W25791  30.527  44.888   0.379
55192W        W25792   1.932  14.190  12.529
55193W        W25793  30.229   6.359  12.820
55194W        W25794   8.708   5.478  10.588
55195W        W25795  40.038  11.246  11.222
55196W        W25796   5.767  20.812   3.919
55197W        W25797  42.533  20.139  14.104
55198W        W25798  11.184  19.798  13.958
55199W        W25799  27.306  19.489   1.325
55200W        W25800  31.709  40.480   2.926
55201W        W25801  35.664   3.799  13.386
55202W        W25802  21.689  35.824   3.763
55203W        W25803  16.879   0.489   0.655
55204W        W25804  29.684  13.100   4.504
55205W        W25805   6.170  16.532  13.841
55206W        W25806  38.100  41.922  12.593
55207W        W25807  42.041  19.045  12.887
55208W        W25808  43.773   5.279   4.231
55209W        W25809  28.003  26.728  10.696
55210W        W25810   6.885  35.196   3.453
55211W        W25811  22.621  24.835  14.921
55212W        W25812  25.037  38.936   4.589
55213W        W25813  34.183  24.709   2.232
55214W        W25814  26.359   8.805  10.901
55215W        W25815  26.490   9.186  12.156
55216W        W25816   4.219   4.885   0.376
55217W        W25817   2.581   7.191   0.724
55218W        W25818   7.569   3.005   2.749
55219W        W25819   9.233  18.669  11.440
55220W        W25820   5.407   5.384   1.666
55221W        W25821  32.645   3.671   2.471
55222W        W25822   8.674  38.053   0.710
55223W        W25823  17.856  39.520  14.942
55224W        W25824   5.282   1.881   2.671
55225W        W25825  27.067   1.740  11.546
55226W        W25826  12.195  15.735  12.100
55227W        W25827   9.192  35.313   2.834
55228W        W25828   1.411  34.990   0.550
55229W        W25829  12.127   8.388   3.331
55230W        W25830   7.382  33.146   1.731
55231W        W25831  21.746  30.723  14.522
55232W        W25832  15.757  19.038  13.894
55233W        W25833   9.367  20.607   3.705
55234W        W25834  23.421  17.792  12.142
55235W        W25835  10.682  29.131   2.124
55236W        W25836  33.350  17.827   2.763
55237W        W25837   7.727  23.976  14.477
55238W        W25838  10.123   2.800   1.815
55239W        W25839  29.833  22.881   3.796
55240W        W25840  38.871  38.165   1.553
55241W        W25841  44.861  35.829   0.632
55242W        W25842  14.587   0.979  13.180
55243W        W25843  43.165  44.342  11.155
55244W        W25844  26.569  30.314  12.185
55245W        W25845   7.136   3.696   1.324
55246W        W25846   5.181  16.558  13.990
55247W        W25847  33.493  24.451  14.256
55248W        W25848  30.890  39.256  11.601
55249W        W25849   6.069  23.024  13.405
55250W        W25850  32.393  14.624  13.017
55251W        W25851  37.550  43.325  10.686
55252W        W25852  23.616  18.646  12.017
55253W        W25853   0.890  37.750   4.973
55254W        W25854  29.193  35.349  11.412
55255W        W25855  44.579  35.674   1.837
55256W        W25856  11.172  17.346  14.242
55257W        W25857  32.620   8.769   5.025
55258W        W25858  15.013  40.203  11.228
55259W        W25859  44.895  31.912  12.905
55260W        W25860  34.443  22.423  14.386
55261W        W25861  24.264  37.391   1.755
55262W        W25862  41.055   6.918  12.900
55263W        W25863  34.298  32.003   0.949
55264W        W25864   2.638  37.413   5.056
55265W        W25865  40.344  13.815  14.734
55266W        W25866  33.554  34.105  13.040
55267W        W25867  36.604  23.187   3.190
55268W        W25868  38.974  34.425  13.496
55269W        W25869   1.196  31.375   2.343
55270W        W25870  40.247  38.321   3.988
55271W        W25871  29.480  12.608  14.963
55272W        W25872  29.647  23.571   0.244
55273W        W25873  22.520  24.803  12.211
55274W        W25874  33.448   1.029   1.951
55275W        W25875  40.008  16.686  13.521
55276W        W25876  31.801   4.384  12.935
55277W        W25877  10.823  20.694  13.921
55278W        W25878  42.447  41.275   3.629
55279W        W25879  11.431  11.494  13.483
55280W        W25880  16.411  24.747   1.353
55281W        W25881  44.817  13.841   4.778
55282W        W25882  31.508  20.338   0.979
55283W        W25883  44.474  17.000  11.096
55284W        W25884  36.514  18.317  14.462
55285W        W25885  23.638  14.310  14.382
55286W        W25886   3.657  13.227  13.379
55287W        W25887   0.896  42.285   4.590
55288W        W25888   2.995   4.626   1.304
55289W        W25889   2.245  29.444   4.557
55290W        W25890  17.298   9.761   0.300
55291W        W25891  16.685  17.849   2.376
55292W        W25892  39.629  39.306   4.409
55293W        W25893   0.519  30.423  12.651
55294W        W25894  33.880   9.852  14.260
55295W        W25895  31.474  43.319  13.068
55296W        W25896  16.821   0.441   4.572
55297W        W25897  36.944  21.608   3.647
55298W        W25898   8.644  10.667   4.715
55299W        W25899   0.962  10.336   9.881
55300W        W25900  13.859  31.083   3.216
55301W        W25901  16.000  28.380  12.403
55302W        W25902  42.072   9.833   3.123
55303W        W25903  24.528   2.116   1.775
55304W        W25904   2.625   6.135  13.904
55305W        W25905  12.048  11.328   2.923
55306W        W25906  42.902  14.082   0.735
55307W        W25907  23.010  34.343  12.945
55308W        W25908  39.010  42.077   4.175
55309W        W25909  38.642  44.585   4.385
55310W        W25910  35.830  15.042   0.076
55311W        W25911  34.658  42.902  12.480
55312W        W25912  13.210  39.592   0.546
55313W        W25913   3.894  39.385   3.585
55314W        W25914  14.875  18.260  10.902
55315W        W25915  27.400  15.361   0.838
55316W        W25916  34.433  31.679  11.525
55317W        W25917  27.590  38.509   3.271
55318W        W25918  32.342  43.707   0.382
55319W        W25919  19.126   1.510  12.625
55320W        W25920  27.259  31.506  10.519
55321W        W25921  16.984  30.999   0.967
55322W        W25922  13.242   8.817  13.521
55323W        W25923  13.877  28.925  11.672
55324W        W25924  40.084  21.181   3.631
55325W        W25925  36.662   2.283   2.228
55326W        W25926  31.136  13.857   3.709
55327W        W25927  41.282  26.653  13.164
55328W        W25928  40.512  11.867  11.578
55329W        W25929  19.016  42.336   3.743
55330W        W25930  25.825  17.133   3.182
55331W        W25931  44.305  37.339   1.303
55332W        W25932  41.598  42.713  11.321
55333W        W25933  28.180  31.116   2.144
55334W        W25934  26.299   0.753  12.694
55335W        W25935  12.908  16.810   0.429
55336W        W25936  23.907  42.817   0.066
55337W        W25937  25.679  15.385   4.122
55338W        W25938   9.935  25.538   0.935
55339W        W25939  31.533  41.037   0.277
55340W        W25940  37.577  34.114  13.367
55341W        W25941  39.723   3.308   4.293
55342W        W25942  14.877   1.771   3.646
55343W        W25943  42.692  31.898   0.753
55344W        W25944  35.102  38.549  13.011
55345W        W25945  39.844  23.346   3.709
55346W        W25946  15.772  11.283  12.934
55347W        W25947  23.980  13.895  13.487
55348W        W25948  25.761  17.821   4.158
55349W        W25949  31.451   5.031   0.418
55350W        W25950  11.821  37.492   2.769
55351W        W25951  29.820  10.625  11.630
55352W        W25952  17.717  32.513   4.297
55353W        W25953  10.826   8.544  11.102
55354W        W25954  27.717  33.148   4.806
55355W        W25955   2.267  30.041   0.448
55356W        W25956  21.830  34.376   2.748
55357W        W25957   2.558  30.617  14.684
55358W        W25958  17.534   7.237   4.499
55359W        W25959  37.774  19.071   0.702
55360W        W25960  32.227  13.601  14.820
55361W        W25961  27.901   7.896   0.272
55362W        W25962   2.155  39.440  13.596
55363W        W25963  14.120   2.975  13.945
55364W        W25964   4.937   1.883   4.097
55365W        W25965   7.838  22.559   3.116
55366W        W25966  24.540  37.801   1.917
55367W        W25967  11.572   4.233  14.595
55368W        W25968  38.782  28.424  13.778
55369W        W25969  12.334  18.547  13.474
55370W        W25970  26.147   9.423  12.482
55371W        W25971  44.308  12.399  13.894
55372W        W25972  11.360  31.746  10.811
55373W        W25973  17.248   2.089   0.071
55374W        W25974  40.562   0.785  14.460
55375W        W25975  13.609  41.552  14.304
55376W        W25976  10.167  23.217   4.660
55377W        W25977  16.299   0.382   4.578
55378W        W25978  36.379  24.415   4.397
55379W        W25979  12.322  12.529   2.816
55380W        W25980  22.724  42.739   1.892
55381W        W25981   2.457  27.871   0.358
55382W        W25982   4.645  41.004  13.918
55383W        W25983  10.684  18.536   3.158
55384W        W25984  39.826  34.957  11.385
55385W        W25985  40.978   4.367  14.266
55386W        W25986  15.707   7.482   0.821
55387W        W25987   4.554  16.585   2.267
55388W        W25988  32.309  26.633   1.275
55389W        W25989  29.445   9.932   1.068
55390W        W25990  34.995  35.596  11.584
55391W        W25991   0.804  40.290  11.991
55392W        W25992   1.525   1.248  14.949
55393W        W25993  33.483  11.484  10.681
55394W        W25994  14.845  22.126  14.833
55395W        W25995  26.628  20.568  12.491
55396W        W25996  14.080  19.682   3.029
55397W        W25997   5.014  42.007   3.589
55398W        W25998  43.412  42.319  13.422
55399W        W25999  17.269   8.756  14.976
55400W        W26000  20.986  26.063  11.654
55401W        W26001   7.033   3.878   3.840
55402W        W26002  12.388  43.288   3.552
55403W        W26003  35.363   2.354  13.586
55404W        W26004  13.310   0.087  14.859
55405W        W26005  37.395  30.374   4.375
55406W        W26006   2.282   1.390  12.095
55407W        W26007  20.797  16.656  11.909
55408W        W26008  14.338  14.114  12.769
55409W        W26009  32.963  24.479   4.748
55410W        W26010  16.828   6.844  12.547
55411W        W26011  34.732  42.039  14.583
55412W        W26012  31.185  14.547  11.593
55413W        W26013  14.244  24.493  14.380
55414W        W26014  33.782  40.530  14.299
55415W        W26015  44.647  35.270  11.844
55416W        W26016  44.268  24.754   4.164
55417W        W26017  24.579  21.363   0.429
55418W        W26018  14.374  26.007  11.482
55419W        W26019  13.691  15.655   4.857
55420W        W26020   0.282  33.276   0.567
55421W        W26021   0.765   0.962  13.047
55422W        W26022  44.274   7.102  11.664
55423W        W26023   0.210   8.654  11.094
55424W        W26024  34.881  10.750   0.283
55425W        W26025  14.322   0.027   2.807
55426W        W26026   4.795  11.194   1.871
55427W        W26027  15.811   5.030  10.216
55428W        W26028  40.235   4.592   3.785
55429W        W26029  17.696  30.493   3.604
55430W        W26030  14.319   7.075  11.423
55431W        W26031  29.404  19.098  13.020
55432W        W26032  22.241  32.330   1.256
55433W        W26033   8.063  33.827   1.694
55434W        W26034  17.255  19.931   4.594
55435W        W26035   0.726   7.273   3.406
55436W        W26036   1.903  18.345  13.188
55437W        W26037  33.863  19.601  10.657
55438W        W26038  30.449  28.691  14.994
55439W        W26039  14.222   5.723   2.667
55440W        W26040  24.729  10.250   4.485
55441W        W26041  20.245   1.067   0.549
55442W        W26042  19.093   3.434  12.826
55443W        W26043   9.389  25.006  14.780
55444W        W26044  15.996  32.149   4.524
55445W        W26045  16.164  30.877   0.759
55446W        W26046  14.352  24.017  13.478
55447W        W26047  11.251   1.025   1.270
55448W        W26048  15.788   8.384  14.223
55449W        W26049   6.994  39.010  13.977
55450W        W26050  15.344  27.506  10.749
55451W        W26051  22.693  17.811   2.574
55452W        W26052   2.893  22.476  11.630
55453W        W26053   9.121   0.694   3.203
55454W        W26054  41.250   0.572   4.187
55455W        W26055  25.927  16.360  13.830
55456W        W26056  28.247   3.535   1.739
55457W        W26057  11.844  28.120   0.949
55458W        W26058  26.331  34.911  12.643
55459W        W26059  12.225  26.017   2.322
55460W        W26060  34.177  18.867   4.553
55461W        W26061  23.096  20.187  14.975
55462W        W26062  11.851  10.869   2.983
55463W        W26063   0.946  34.442   4.552
55464W        W26064  24.410  16.610  11.925
55465W        W26065   6.432  24.295  12.519
55466W        W26066   5.943  24.722  11.666
55467W        W26067  32.621  24.517  14.340
55468W        W26068  20.050   4.510   2.190
55469W        W26069  17.752  21.535   0.202
55470W        W26070  26.461   7.793  11.032
55471W        W26071  36.836   6.794  13.149
55472W        W26072  12.619  12.065   0.241
55473W        W26073   4.979  21.551  12.887
55474W        W26074   2.240  36.347  11.553
55475W        W26075  13.566  31.137  10.681
55476W        W26076  18.265  20.080   0.745
55477W        W26077  26.978  30.619  11.009
55478W        W26078  29.777  11.765  14.381
55479W        W26079   7.351  39.009   0.113
55480W        W26080  28.987   0.782   0.041
55481W        W26081  33.878  16.624   2.835
55482W        W26082  28.046  30.959  14.459
55483W        W26083  13.274  36.724   3.030
55484W        W26084  10.907  21.758   1.343
55485W        W26085  22.106   2.881   1.754
55486W        W26086  21.142  19.648  11.071
55487W        W26087  20.004  24.985  13.602
55488W        W26088  33.048  43.060  12.990
55489W        W26089  14.125  12.449  10.333
55490W        W26090  20.555   0.773   3.628
55491W        W26091  25.158  29.493   2.632
55492W        W26092   7.580   4.804  13.094
55493W        W26093   3.350  39.507  14.316
55494W        W26094  12.722   8.385   1.782
55495W        W26095  28.966   8.799  11.320
55496W        W26096  14.149  11.738  11.064
55497W        W26097  28.281  41.330  10.122
55498W        W26098   6.172  30.268  12.942
55499W        W26099  37.961  38.591  12.095
55500W        W26100   6.513  21.314   4.170
55501W        W26101   3.716  42.596   2.293
55502W        W26102  36.395   5.800   1.650
55503W        W26103  44.957  15.584   2.298
55504W        W26104  39.493  18.876  14.746
55505W        W26105   3.858   2.276   2.528
55506W        W26106  11.868  25.226   4.068
55507W        W26107   7.512   5.936   3.651
55508W        W26108   1.480  16.178   0.787
55509W        W26109  17.071  24.004  12.462
55510W        W26110  14.812  26.920   1.512
55511W        W26111  21.004  31.481  11.167
55512W        W26112  11.594  38.126  10.994
55513W        W26113   8.831  34.839  13.391
55514W        W26114  13.763   6.221   2.855
55515W        W26115  34.223   6.414   0.890
55516W        W26116  23.693  37.557  11.236
55517W        W26117  31.619  34.889   2.156
55518W        W26118  43.482  25.104  10.721
55519W        W26119  37.315  32.267   0.956
55520W        W26120  13.337  38.857   4.882
55521W        W26121  25.963  17.328   0.244
55522W        W26122   6.318   1.573  11.256
55523W        W26123   9.069  37.983   1.018
55524W        W26124   1.355  15.131  14.259
55525W        W26125  27.480  32.201   1.824
55526W        W26126  37.534   4.280  13.348
55527W        W26127  41.289  15.536  11.197
55528W        W26128   8.006   5.323   2.221
55529W        W26129   7.378   5.701  11.211
55530W        W26130  43.964  39.772   1.042
55531W        W26131  21.935  27.713  11.196
55532W        W26132  42.856  24.157   1.495
55533W        W26133  27.978   9.388  10.459
55534W        W26134   8.738  32.937  12.384
55535W        W26135  25.346  37.123  11.946
55536W        W26136  27.577  21.318   3.957
55537W        W26137  30.831  34.786   1.436
55538W        W26138  29.100  18.665   4.360
55539W        W26139  16.847  15.789  12.967
55540W        W26140  11.891  16.101  12.519
55541W        W26141  22.615  41.414   4.565
55542W        W26142  30.218   1.502   1.462
55543W        W26143  23.150   8.608  10.863
55544W        W26144   8.048  43.325   0.705
55545W        W26145  14.393   1.040  14.815
55546W        W26146   8.695  20.704  12.380
55547W        W26147   2.413  10.443  10.122
55548W        W26148  29.084  14.148   3.196
55549W        W26149  31.424   9.909   4.099
55550W        W26150  16.061  41.467  11.582
55551W        W26151  31.878   6.236  11.164
55552W        W26152  25.406  34.068   2.472
55553W        W26153   4.132  29.512   4.720
55554W        W26154  10.105   6.255   4.166
55555W        W26155   2.022  42.884   1.262
55556W        W26156   3.500  10.418  14.875
55557W        W26157  34.223  26.474   1.357
55558W        W26158  44.798  40.542   4.206
55559W        W26159  26.045  35.543   2.349
55560W        W26160  11.599   9.857  14.209
55561W        W26161  28.706  40.555  14.573
55562W        W26162  16.110   9.367  12.363
55563W        W26163  25.113   5.892   0.499
55564W        W26164  32.188  26.676  12.453
55565W        W26165  29.382   6.834   3.198
55566W        W26166  37.838  24.681  10.877
55567W        W26167   6.901  13.622   3.262
55568W        W26168  41.399  19.741   1.331
55569W        W26169  27.455   0.763  10.827
55570W        W26170   5.592  43.057   2.366
55571W        W26171  18.218  21.049  12.999
55572W        W26172  14.800  26.160   0.776
55573W        W26173   4.234  35.972  12.925
55574W        W26174  22.281  21.975  10.736
55575W        W26175   3.714  21.274  14.306
55576W        W26176  43.801   3.241   2.780
55577W        W26177  37.105  10.540  13.819
55578W        W26178  17.671  15.320  12.992
55579W        W26179   5.776  28.624   0.437
55580W        W26180  29.372  16.676   0.861
55581W        W26181   0.429  15.122   4.755
55582W        W26182  38.394  40.962  11.834
55583W        W26183  41.804  29.098  14.022
55584W        W26184  40.451  24.137  10.819
55585W        W26185  34.746  43.836  12.837
55586W        W26186   5.318  14.259  14.726
55587W        W26187  43.487  22.647   4.335
55588W        W26188  40.860  44.387   1.244
55589W        W26189  36.227  37.039   3.774
55590W        W26190   7.446  14.547  13.310
55591W        W26191  31.864  34.223   2.787
55592W        W26192  20.145   8.855  10.193
55593W        W26193  20.493   8.080   2.218
55594W        W26194   1.261  37.436  14.462
55595W        W26195  44.029  35.131   4.805
55596W        W26196   3.530  12.913  12.975
55597W        W26197   0.393  38.567   4.575
55598W        W26198   4.119   6.335  13.030
55599W        W26199   8.883  34.103   0.725
55600W        W26200  26.707  11.239  10.386
55601W        W26201   5.971  26.487   1.346
55602W        W26202   2.826  22.519   2.790
55603W        W26203  34.523  42.105  13.712
55604W        W26204   7.797   9.585   1.393
55605W        W26205   1.769  21.455  13.136
55606W        W26206  34.990   0.921  12.538
55607W        W26207  30.473  30.195   2.799
55608W        W26208  44.056  35.439   0.915
55609W        W26209  29.322   1.058  10.937
55610W        W26210  43.089  20.233   3.614
55611W        W26211  33.456  10.269   4.710
55612W        W26212  10.312  16.127  11.175
55613W        W26213  28.185   7.725   2.649
55614W        W26214  14.156  13.155   2.389
55615W        W26215  16.753  31.492   0.748
55616W        W26216  40.532   9.420  10.511
55617W        W26217  38.571  12.755   1.181
55618W        W26218  31.558  22.720   1.507
55619W        W26219  13.461  19.152  10.531
55620W        W26220  11.472  19.355  11.723
55621W        W26221  18.030  36.174   0.024
55622W        W26222  10.623  17.317   1.932
55623W        W26223  39.943  28.699  14.398
55624W        W26224  39.928   1.786  13.984
55625W        W26225   6.998  24.195  13.814
55626W        W26226   6.563  27.967   3.068
55627W        W26227   4.644  30.477   4.061
55628W        W26228  41.551  36.852  14.491
55629W        W26229  36.480  41.336  14.939
55630W        W26230  26.972  39.585  12.860
55631W        W26231  30.431  44.716  13.127
55632W        W26232   9.654  11.348  14.905
55633W        W26233  33.734  17.645  14.187
55634W        W26234  24.715  40.810  12.951
55635W        W26235  44.756  19.590  10.646
55636W        W26236   4.973   9.788  14.453
55637W        W26237   5.046  33.479   0.460
55638W        W26238  26.717  36.655   4.126
55639W        W26239  24.933   9.597   0.258
55640W        W26240  25.221  32.670   0.881
55641W        W26241  35.120   1.259  11.058
55642W        W26242   8.346  31.453   0.019
55643W        W26243  15.532  38.537   1.419
55644W        W26244  23.977  44.329   0.773
55645W        W26245  37.702  22.810  14.041
55646W        W26246   0.223  29.154  14.323
55647W        W26247   1.245  40.405   1.075
55648W        W26248  22.475  16.155  12.165
55649W        W26249  22.700  43.811   2.789
55650W        W26250  18.577  13.864  11.187
55651W        W26251  31.010  31.461   3.894
55652W        W26252   5.561  15.342  11.045
55653W        W26253  17.017   3.567   4.228
55654W        W26254  18.511  14.646  13.215
55655W        W26255  25.101  32.914   4.219
55656W        W26256  13.207  15.173   0.003
55657W        W26257  43.352  23.656   3.631
55658W        W26258  12.554   1.545  11.587
55659W        W26259  43.790  14.084  10.755
55660W        W26260  20.731  18.943   2.260
55661W        W26261  35.403  16.234   0.377
55662W        W26262   1.654   9.240  13.422
55663W        W26263   7.633  11.759  11.989
55664W        W26264   5.192  10.978  10.323
55665W        W26265  23.414   3.661  14.378
55666W        W26266  27.472  38.548   4.856
55667W        W26267  17.208  16.881   3.569
55668W        W26268  32.963  24.772   2.719
55669W        W26269  29.755   9.308  13.781
55670W        W26270  15.333  22.767   2.373
55671W        W26271  31.675  36.104  13.743
55672W        W26272   0.873   4.688   3.591
55673W        W26273  25.225  23.106  14.031
55674W        W26274   5.745  31.208   2.222
55675W        W26275  11.107  10.455   4.193
55676W        W26276  20.048   8.550   1.461
55677W        W26277  43.294   3.201   2.181
55678W        W26278  19.918  32.113   2.797
55679W        W26279   4.416  30.928   4.828
55680W        W26280   1.047  35.904  11.035
55681W        W26281   8.161   5.915   1.821
55682W        W26282  34.334  41.516   3.892
55683W        W26283  12.195   1.425   2.839
55684W        W26284   7.188  33.979   4.195
55685W        W26285  29.760   1.846   4.585
55686W        W26286  19.207  19.971   2.324
55687W        W26287  35.467  39.616  13.018
55688W        W26288  40.011   8.139   0.268
55689W        W26289  30.871  33.249  10.376
55690W        W26290  28.939  13.238   2.882
55691W        W26291   0.962  25.894   0.985
55692W        W26292  25.884   0.426  14.983
55693W        W26293   2.642  17.722  13.071
55694W        W26294  39.350   9.697  12.951
55695W        W26295  43.352  37.350  11.571
55696W        W26296  16.032  11.923  13.794
55697W        W26297  19.583  20.716   4.258
55698W        W26298   2.396  26.147  11.191
55699W        W26299   2.414  11.156   1.691
55700W        W26300   2.040   1.348   4.560
55701W        W26301  16.569  25.047  12.470
55702W        W26302   4.755   3.333   1.819
55703W        W26303  31.865  13.592  10.700
55704W        W26304  33.039   7.182   3.401
55705W        W26305   8.449  27.729  11.505
55706W        W26306  42.179  13.985  14.477
55707W        W26307   9.335   4.673   4.202
55708W        W26308  10.812  35.899  13.211
55709W        W26309  32.346  39.254   4.172
55710W        W26310  41.810  29.717   4.606
55711W        W26311  19.996  43.793  12.954
55712W        W26312   1.775   8.943   3.748
55713W        W26313   9.824  11.687   3.844
55714W        W26314  32.173  10.702   2.876
55715W        W26315  33.157  24.174   1.752
55716W        W26316  39.149  23.621  14.793
55717W        W26317  18.701  32.227   4.418
55718W        W26318  42.313  33.927   3.187
55719W        W26319  42.036  44.367   3.738
55720W        W26320  18.142  35.516  10.827
55721W        W26321  31.911  12.619  13.356
55722W        W26322  39.442  37.322   0.007
55723W        W26323  26.380  13.801  11.549
55724W        W26324   8.885  14.115  14.944
55725W        W26325  12.126  19.755   2.440
55726W        W26326  19.704  15.205   2.396
55727W        W26327  22.805  20.814  14.299
55728W        W26328   8.722   5.388  11.662
55729W        W26329  31.622   8.279  11.192
55730W        W26330  16.907  24.589   1.343
55731W        W26331  14.081  43.541  11.910
55732W        W26332  21.645  17.823   4.635
55733W        W26333  24.383  15.694  11.199
55734W        W26334  38.134  16.090  14.556
55735W        W26335   3.036   0.788  14.069
55736W        W26336   0.949  10.639   4.446
55737W        W26337  11.413  14.151  13.562
55738W        W26338  29.679  38.384  13.891
55739W        W26339  29.380   0.554   9.948
55740W        W26340  19.792  10.306  11.114
55741W        W26341  19.559  33.996  10.523
55742W        W26342   4.725  29.072  11.558
55743W        W26343  36.445  15.027   4.578
55744W        W26344  38.864  14.903   1.217
55745W        W26345  23.943  36.291   1.371
55746W        W26346  13.564  38.643   2.322
55747W        W26347  19.722  27.501   2.325
55748W        W26348  13.203  28.400   0.454
55749W        W26349  14.927   7.075  11.575
55750W        W26350  18.780  31.551  11.741
55751W        W26351  10.711  42.404   3.374
55752W        W26352  16.230  18.025   4.923
55753W        W26353  16.976  35.886   5.000
55754W        W26354  36.425  30.483  12.576
55755W        W26355  19.630   9.326   4.338
55756W        W26356  31.928  19.764  10.790
55757W        W26357  16.150   9.704  12.754
55758W        W26358   1.229  44.049  13.829
55759W        W26359  21.880   9.617  10.288
55760W        W26360  37.519  37.635   4.096
55761W        W26361  16.225  17.329   3.324
55762W        W26362   7.686  14.200  11.268
55763W        W26363  41.455   1.717   4.322
55764W        W26364  11.850  40.081  12.905
55765W        W26365  21.742   4.851   2.299
55766W        W26366  17.697   2.964   1.800
55767W        W26367  30.759  42.898   1.062
55768W        W26368  19.229  40.877   2.683
55769W        W26369   2.527  31.713   4.084
55770W        W26370  17.037  38.548  14.666
55771W        W26371  35.249  15.104   0.906
55772W        W26372  39.050  42.830   1.639
55773W        W26373  11.131  42.717   5.380
55774W        W26374  42.694  35.981   4.540
55775W        W26375   3.798  18.678   3.256
55776W        W26376  30.250   1.918   4.694
55777W        W26377  40.557  22.118   1.849
55778W        W26378  34.573  18.425  13.373
55779W        W26379  37.440  22.044  11.281
55780W        W26380  18.528   9.393  11.899
55781W        W26381  24.803   9.838  14.821
55782W        W26382   5.835   2.232   1.875
55783W        W26383   9.457  38.882   1.859
55784W        W26384  21.513  42.747   1.476
55785W        W26385  44.554   1.430  13.018
55786W        W26386  10.431  22.173  11.134
55787W        W26387  20.495  34.103   1.240
55788W        W26388  12.048  35.460  14.392
55789W        W26389  37.109  14.687  11.146
55790W        W26390  32.942   0.691   4.655
55791W        W26391  30.648  40.976   3.238
55792W        W26392  44.923  30.106   0.751
55793W        W26393  39.598  39.057  13.537
55794W        W26394  12.642  26.880  14.902
55795W        W26395  31.506  14.711   4.573
55796W        W26396  21.772   0.977  13.011
55797W        W26397   4.240   7.929  11.595
55798W        W26398  22.346  26.417   4.620
55799W        W26399  38.340  10.662   0.286
55800W        W26400  35.880  39.845   0.891
55801W        W26401  17.278   7.915  10.562
55802W        W26402   5.677  39.956  10.742
55803W        W26403  38.047  35.616  13.008
55804W        W26404  28.901  33.998  11.311
55805W        W26405   7.641  41.577   1.262
55806W        W26406  32.649  36.458  12.543
55807W        W26407   8.606   2.412  13.529
55808W        W26408  23.820  44.165  12.601
55809W        W26409  44.023  33.281  13.323
55810W        W26410  34.175  17.219   0.312
55811W        W26411   1.071  17.946   1.815
55812W        W26412  36.215   3.906  11.773
55813W        W26413  26.066  27.213   2.221
55814W        W26414  12.367  26.225  10.752
55815W        W26415   5.672  33.002  12.551
55816W        W26416   8.873   2.296  13.014
55817W        W26417   9.656  13.813  14.999
55818W        W26418  20.501  11.683  11.575
55819W        W26419  10.335  42.206   2.365
55820W        W26420  39.434  43.907   2.387
55821W        W26421  12.203   1.911   1.457
55822W        W26422  39.814   3.660   0.702
55823W        W26423  26.677  11.267   3.253
55824W        W26424  27.362  37.603  13.684
55825W        W26425   1.469  15.534   1.375
55826W        W26426  41.917   5.626   1.172
55827W        W26427  38.611  43.403   1.404
55828W        W26428  28.081  18.133  10.340
55829W        W26429  20.089  14.868   4.735
55830W        W26430  29.128  33.897  10.858
55831W        W26431  35.998  12.011   0.809
55832W        W26432  31.700  24.406   4.226
55833W        W26433  28.568   5.390  14.678
55834W        W26434  12.152  33.456   4.602
55835W        W26435  24.896   3.346   3.786
55836W        W26436  20.346  16.841   0.746
55837W        W26437  26.222   0.897  13.699
55838W        W26438   1.214  18.243  10.518
55839W        W26439   0.578  14.654  11.253
55840W        W26440  23.857   2.761   0.236
55841W        W26441  11.629  24.726   4.123
55842W        W26442  12.246  14.652  12.967
55843W        W26443  31.571   8.677  14.322
55844W        W26444  37.364   8.872   0.049
55845W        W26445  27.544  30.960  14.242
55846W        W26446  44.711  15.838   0.979
55847W        W26447  15.317  37.275  11.526
55848W        W26448  20.173  14.273  14.469
55849W        W26449   6.640  29.907  10.379
55850W        W26450  24.206  34.087  11.139
55851W        W26451   9.687   4.953  10.387
55852W        W26452  31.500  25.268   1.414
55853W        W26453   1.039  11.575   3.091
55854W        W26454  42.479  21.564  12.925
55855W        W26455  12.658   6.876   2.781
55856W        W26456  25.712   4.254   2.398
55857W        W26457  18.091   2.279   0.214
55858W        W26458  15.624   3.227  12.910
55859W        W26459  28.134  37.289   1.790
55860W        W26460  22.123  24.928   0.263
55861W        W26461  29.701  38.756  12.926
55862W        W26462   9.810  31.941   2.509
55863W        W26463  21.468  26.614  14.910
55864W        W26464   8.478  34.845   4.110
55865W        W26465  31.979  11.829  12.044
55866W        W26466  24.237  13.129   3.885
55867W        W26467  19.139  31.078   0.794
55868W        W26468  16.277  24.482  12.607
55869W        W26469   4.345  39.361   4.265
55870W        W26470  30.513  22.802   4.690
55871W        W26471  11.493   3.422   0.447
55872W        W26472  40.470  21.645   2.154
55873W        W26473  19.191  40.744   1.128
55874W        W26474  44.495  22.184   3.181
55875W        W26475  25.714   7.159   4.841
55876W        W26476  21.172  44.043  12.011
55877W        W26477  21.989  38.943   4.232
55878W        W26478  11.833   5.804   1.742
55879W        W26479  31.040  38.441   4.242
55880W        W26480  23.514  12.928  12.980
55881W        W26481  35.660   9.805  14.921
55882W        W26482  24.173  30.141  11.450
55883W        W26483  15.370   6.683   4.228
55884W        W26484  38.023  39.523   3.678
55885W        W26485  27.841  16.465  13.889
55886W        W26486   9.689  25.737   4.736
55887W        W26487   3.456   5.433   4.592
55888W        W26488  26.827   5.868  11.734
55889W        W26489  42.928  21.793  12.929
55890W        W26490   8.867  13.178  12.194
55891W        W26491   5.388   5.379   4.714
55892W        W26492  40.788   3.804   0.852
55893W        W26493  30.385  18.220  13.664
55894W        W26494   8.324  31.079   2.820
55895W        W26495  35.599  29.415   2.306
55896W        W26496  13.388  30.619  11.353
55897W        W26497   4.394  21.712   4.060
55898W        W26498   0.244   2.299  11.480
55899W        W26499   5.213  24.984   0.851
55900W        W26500  18.526  23.628  13.475
55901W        W26501  29.057  23.572   1.556
55902W        W26502  22.618  31.398  10.935
55903W        W26503  27.047   8.445   3.402
55904W        W26504  39.009  39.442   0.389
55905W        W26505  27.073   1.702   0.953
55906W        W26506  11.044  24.354  11.197
55907W        W26507  22.108  21.817  14.074
55908W        W26508  36.864  19.144  10.646
55909W        W26509  12.721  41.988  10.206
55910W        W26510  25.814  33.792  10.279
55911W        W26511   8.397  37.540  12.408
55912W        W26512  19.248  35.944   0.227
55913W        W26513  12.542  23.582  12.515
55914W        W26514  34.634   1.283  11.673
55915W        W26515  18.991  15.647  13.846
55916W        W26516  17.628  13.042  11.176
55917W        W26517  38.594   3.804   1.011
55918W        W26518  20.093   3.962   1.975
55919W        W26519  10.668  34.988   2.428
55920W        W26520  36.840   2.814   1.902
55921W        W26521   2.844   6.247  12.230
55922W        W26522  29.442   9.791   3.662
55923W        W26523  40.309  32.721   4.148
55924W        W26524   5.850  21.677  12.543
55925W        W26525  39.622  32.586   2.679
55926W        W26526  13.030   5.990   4.938
55927W        W26527   4.276  28.765   2.696
55928W        W26528  34.964  21.978  12.900
55929W        W26529  34.947   8.467   4.655
55930W        W26530  21.248   5.939  14.531
55931W        W26531  19.765  32.934  14.889
55932W        W26532  11.808  25.964  13.851
55933W        W26533  12.381  27.478   1.189
55934W        W26534  37.497  43.290   4.132
55935W        W26535  29.199  27.191   0.984
55936W        W26536  23.103  17.735  13.071
55937W        W26537  15.610  10.769   3.017
55938W        W26538   7.389  37.648   1.856
55939W        W26539  39.454   3.279  12.091
55940W        W26540  40.905   5.351  11.150
55941W        W26541  38.402  25.029   0.603
55942W        W26542   4.422  24.872  13.511
55943W        W26543  25.055  37.912   1.811
55944W        W26544  16.053  37.534   2.279
55945W        W26545  39.337   7.809  13.576
55946W        W26546  21.118  41.990  13.636
55947W        W26547   0.703  28.040   1.390
55948W        W26548  21.542  36.628   1.240
55949W        W26549  22.550  24.721  13.923
55950W        W26550   9.201  38.657   3.982
55951W        W26551  21.272   3.712   2.291
55952W        W26552  11.397  43.476  11.066
55953W        W26553  18.104  20.335  14.322
55954W        W26554  12.648   9.959  14.923
55955W        W26555   5.369  38.060   3.388
55956W        W26556  41.399  38.420  14.887
55957W        W26557  16.105  12.561  10.266
55958W        W26558   4.048  23.271   3.403
55959W        W26559   9.748  31.648  13.781
55960W        W26560   9.158  18.226   3.229
55961W        W26561  25.593   3.148   3.216
55962W        W26562  11.794  11.258   3.371
55963W        W26563   0.280  26.785   0.374
55964W        W26564  14.795  15.593  12.645
55965W        W26565  20.658   0.265  11.678
55966W        W26566  17.934  16.777  11.515
55967W        W26567  25.751  19.721  11.023
55968W        W26568  27.767  26.104  12.403
55969W        W26569   1.313  38.144  13.408
55970W        W26570  24.475  10.700   2.420
55971W        W26571   1.247   1.980   0.422
55972W        W26572   1.226  38.481   2.409
55973W        W26573  32.657   1.460  10.718
55974W        W26574  11.800  10.260   3.648
55975W        W26575  29.162   7.071  12.044
55976W        W26576  42.796  30.084  12.508
55977W        W26577   0.306  44.668  12.062
55978W        W26578   6.289  33.951  12.224
55979W        W26579   8.352  25.522  13.536
55980W        W26580   8.340  37.695  11.750
55981W        W26581  13.693  18.169  14.465
55982W        W26582  10.597  25.921   4.840
55983W        W26583   2.323  18.689   2.957
55984W        W26584  10.653  41.021  13.426
55985W        W26585  13.204  44.946  12.183
55986W        W26586  10.476   3.960   1.966
55987W        W26587  32.044   1.443   1.798
55988W        W26588  15.050  44.343  14.045
55989W        W26589  30.410  21.738  12.555
55990W        W26590   0.480  27.945  14.884
55991W        W26591   2.812  38.078  10.657
55992W        W26592   4.251  21.474   3.621
55993W        W26593  44.158   1.303   2.565
55994W        W26594  38.487  29.446   0.793
55995W        W26595  36.451   0.795  11.447
55996W        W26596  19.677  33.531  10.279
55997W        W26597  10.223  32.621  11.643
55998W        W26598   1.143  32.755  12.112
55999W        W26599  42.274   1.110   2.031
56000W        W26600  28.501  20.840  11.623
56001W        W26601   2.795  44.546   2.319
56002W        W26602  30.122  29.112   4.148
56003W        W26603  15.758  27.791  13.804
56004W        W26604  22.353  29.607   4.751
56005W        W26605  26.478  27.193   0.035
56006W        W26606  12.339   7.291  13.349
56007W        W26607  44.568  37.142  13.512
56008W        W26608  37.199   0.898  10.685
56009W        W26609   3.473  39.075   3.232
56010W        W26610   9.744  14.616  13.078
56011W        W26611  40.599   2.910  12.449
56012W        W26612  31.667  21.161   1.318
56013W        W26613   2.031  28.940   1.189
56014W        W26614  35.533   9.425   2.528
56015W        W26615   3.315  24.684  11.901
56016W        W26616  20.141   5.759   1.116
56017W        W26617   0.044   2.492  14.744
56018W        W26618  15.273   3.479   1.325
56019W        W26619  32.422  17.888  13.057
56020W        W26620  41.859   2.378  10.398
56021W        W26621  17.733  18.471   0.804
56022W        W26622  12.019  39.468   0.544
56023W        W26623   0.121  21.770   1.113
56024W        W26624  27.464   6.927  10.728
56025W        W26625  15.781  38.455   4.395
56026W        W26626  26.172  27.100   4.612
56027W        W26627  39.776  21.914  12.074
56028W        W26628  43.063  24.929  10.456
56029W        W26629  26.420  26.081  13.394
56030W        W26630   3.398  44.835  12.059
56031W        W26631  40.514   5.465   3.640
56032W        W26632  32.654  36.944   1.718
56033W        W26633  20.552  19.625  13.418
56034W        W26634  38.447  31.476   4.383
56035W        W26635  27.479  29.605   1.805
56036W        W26636  15.131  11.718  11.408
56037W        W26637  11.172   7.924   2.150
56038W        W26638  44.035  44.506   3.332
56039W        W26639  13.392   3.718   1.391
56040W        W26640  22.219   2.507   1.341
56041W        W26641  25.964  32.559   2.225
56042W        W26642  29.613  42.603  12.483
56043W        W26643  31.974  27.651  11.739
56044W        W26644  37.403   1.824   2.146
56045W        W26645  23.013  39.812  11.963
56046W        W26646   2.392  30.950  14.294
56047W        W26647  25.158  16.028  14.991
56048W        W26648  27.421  41.576   2.092
56049W        W26649  40.475   9.241   4.342
56050W        W26650  37.388   0.422  10.634
56051W        W26651   6.840  29.554  12.121
56052W        W26652   6.786  41.842  13.587
56053W        W26653  28.586  19.889  12.433
56054W        W26654  20.245  41.745  13.069
56055W        W26655   1.439  10.299   4.897
56056W        W26656  20.291  24.479   3.757
56057W        W26657  32.088   5.503   0.217
56058W        W26658  38.034  27.659   2.214
56059W        W26659  10.118  33.045   4.546
56060W        W26660  19.370   1.522  11.179
56061W        W26661  10.790   9.120   2.735
56062W        W26662  17.528   1.329   1.198
56063W        W26663  20.156  17.808   1.792
56064W        W26664  13.633  12.059   3.387
56065W        W26665  28.660   8.405  13.430
56066W        W26666  24.128  23.281   1.322
56067W        W26667  13.334  40.823   3.598
56068W        W26668  19.755  30.360  11.063
56069W        W26669  17.012   5.107   0.845
56070W        W26670  34.123   3.228  11.207
56071W        W26671  41.086   7.261   1.256
56072W        W26672  21.452  32.924   2.267
56073W        W26673  35.919  39.601  13.862
56074W        W26674  34.446   7.555   2.244
56075W        W26675   6.745  13.288   4.616
56076W        W26676  29.284  28.555   0.517
56077W        W26677  21.060  35.947   0.788
56078W        W26678  25.419  22.150  12.810
56079W        W26679  20.917  12.214   1.740
56080W        W26680  33.478  40.975   3.499
56081W        W26681  41.887  40.898   0.789
56082W        W26682   4.066   5.361   3.980
56083W        W26683  34.463  37.108   0.427
56084W        W26684   4.971  28.707   0.741
56085W        W26685  17.559  18.825  14.929
56086W        W26686  15.729  39.122  12.948
56087W        W26687  44.909  30.880   2.820
56088W        W26688  28.435  11.691   1.335
56089W        W26689  14.662  25.141   1.222
56090W        W26690  23.972  40.773  14.759
56091W        W26691  25.013  36.882   1.163
56092W        W26692  31.112  42.575  14.159
56093W        W26693  20.634  23.691   0.817
56094W        W26694   5.770  23.846   4.394
56095W        W26695  14.312  12.321   1.227
56096W        W26696   3.539  36.439   1.578
56097W        W26697   9.089  24.209   4.181
56098W        W26698  42.790  19.492   3.101
56099W        W26699  41.223   1.277   3.381
56100W        W26700  20.520   3.811  11.502
56101W        W26701  17.333  30.797   1.273
56102W        W26702  15.461  33.686   3.343
56103W        W26703   7.903   7.318   3.563
56104W        W26704  32.472   7.508   3.780
56105W        W26705  35.243  43.989  13.806
56106W        W26706  34.434   5.283   0.193
56107W        W26707  39.032  30.080  14.354
56108W        W26708   0.864  14.245  12.013
56109W        W26709  31.917  29.087   3.682
56110W        W26710  30.903  22.866   1.828
56111W        W26711  28.184  31.896   1.793
56112W        W26712  16.660  37.873  10.368
56113W        W26713  18.304  17.229   0.008
56114W        W26714  39.930  32.540  13.873
56115W        W26715  44.740   1.327   0.265
56116W        W26716  26.312   3.653  11.138
56117W        W26717  39.026  36.660   4.973
56118W        W26718  19.957  10.915  10.723
56119W        W26719  44.451  11.876  10.963
56120W        W26720  42.761  17.153   4.014
56121W        W26721  37.479  40.594  14.499
56122W        W26722  18.588  33.419  12.019
56123W        W26723  40.170  43.042  12.965
56124W        W26724   8.688   3.601   3.752
56125W        W26725  34.339  42.596   4.882
56126W        W26726   2.350  38.421  12.464
56127W        W26727   9.780  33.851  11.551
56128W        W26728  18.302  35.296   0.704
56129W        W26729   4.320  23.052   3.760
56130W        W26730  10.576   4.987   1.744
56131W        W26731  41.720  33.436   0.006
56132W        W26732   5.163  29.531   1.777
56133W        W26733  18.142  16.420   2.442
56134W        W26734  24.671  37.993   1.455
56135W        W26735  31.530   9.165   4.603
56136W        W26736  44.842   4.213   2.197
56137W        W26737  18.172  30.856   0.499
56138W        W26738  13.340   1.821  14.297
56139W        W26739  37.115  17.234   3.583
56140W        W26740  38.845  14.539   1.973
56141W        W26741  13.167   5.785  14.306
56142W        W26742  16.048   2.269  14.314
56143W        W26743  29.459  30.315   3.620
56144W        W26744  20.692   3.938  12.856
56145W        W26745   1.050  22.681  11.120
56146W        W26746  29.940  38.533   0.816
56147W        W26747  17.763   7.361  14.627
56148W        W26748   9.186  33.086   4.437
56149W        W26749  40.655  29.228  14.499
56150W        W26750  18.990   8.157   4.116
56151W        W26751  15.814  35.403  13.010
56152W        W26752  12.576  16.364  13.616
56153W        W26753  37.471   9.506   0.667
56154W        W26754  16.495  23.028   1.620
56155W        W26755  26.642   0.421   3.388
56156W        W26756  41.531   0.526  14.398
56157W        W26757  13.001  13.184  13.053
56158W        W26758  10.484  17.592  13.905
56159W        W26759  20.029  44.539   1.654
56160W        W26760  35.524  14.097  11.787
56161W        W26761  15.242  43.844   2.216
56162W        W26762  13.309  24.946   4.670
56163W        W26763  26.147  38.399   4.404
56164W        W26764  22.074  29.741  10.657
56165W        W26765  39.827  30.293  12.399
56166W        W26766  34.658  12.345   0.446
56167W        W26767   8.313   1.666   4.280
56168W        W26768   6.122  12.131  11.407
56169W        W26769  18.810   3.573  12.030
56170W        W26770   0.872   4.422   1.706
56171W        W26771  20.022  11.808  11.717
56172W        W26772  41.267  36.863   1.857
56173W        W26773  41.616   6.055   4.150
56174W        W26774  11.025   5.725   0.400
56175W        W26775   4.389  37.572   3.303
56176W        W26776  39.424  41.426   1.412
56177W        W26777   2.401   3.027  14.264
56178W        W26778  28.093  37.629  14.381
56179W        W26779  12.133  10.796  10.734
56180W        W26780  34.499  42.941   3.068
56181W        W26781  31.358  33.643   3.143
56182W        W26782  25.009  22.723   0.364
56183W        W26783  12.303   1.509   4.385
56184W        W26784   6.402   9.662  11.984
56185W        W26785  30.503  12.564   0.938
56186W        W26786  15.542   6.344   2.244
56187W        W26787  16.299  38.880  14.023
56188W        W26788  16.766   4.798   3.343
56189W        W26789  24.997  14.776   2.301
56190W        W26790  19.805  25.490  11.428
56191W        W26791  27.184  28.397   2.780
56192W        W26792   4.040  30.566  14.901
56193W        W26793  44.482   4.781  10.995
56194W        W26794  18.079  25.532   0.762
56195W        W26795  13.874  29.499   1.985
56196W        W26796  19.511  36.252   1.858
56197W        W26797  14.752   4.840   0.030
56198W        W26798  31.545  29.267   1.917
56199W        W26799  37.493  31.954  10.513
56200W        W26800  15.948  28.631  10.037
56201W        W26801  38.523   3.138  14.279
56202W        W26802  23.525   7.141   0.853
56203W        W26803  31.363   7.203   1.794
56204W        W26804  34.974  40.016  14.537
56205W        W26805  20.081  10.763  11.191
56206W        W26806  19.834  31.279   2.752
56207W        W26807  36.060  17.741  12.937
56208W        W26808  38.252  39.378   4.151
56209W        W26809   5.183   8.366   1.899
56210W        W26810  31.463  24.090  13.029
56211W        W26811  43.291  44.458  13.824
56212W        W26812  32.830  41.477   2.548
56213W        W26813   0.510   8.748   4.656
56214W        W26814  18.479  11.778   4.233
56215W        W26815  25.183   2.899  13.323
56216W        W26816  31.441  22.051   4.817
56217W        W26817   4.864   5.626   4.123
56218W        W26818  16.047   9.086  14.973
56219W        W26819  17.534   7.442   1.976
56220W        W26820   9.822  10.168   9.773
56221W        W26821   8.456  10.266  10.726
56222W        W26822  11.461   2.331   0.933
56223W        W26823  25.936  32.537  13.043
56224W        W26824  20.084  40.679  13.982
56225W        W26825  13.656  28.091   3.302
56226W        W26826  41.936  24.724   1.903
56227W        W26827   8.744  35.566   2.804
56228W        W26828  17.374  11.367  13.068
56229W        W26829  34.881  23.730   2.284
56230W        W26830  37.922  30.585   5.050
56231W        W26831  23.227  25.069  12.933
56232W        W26832  16.973  18.217  12.426
56233W        W26833  33.356  24.914   2.372
56234W        W26834   2.705  33.667   0.762
56235W        W26835   4.646  28.020  14.439
56236W        W26836  29.906  26.799  12.480
56237W        W26837  42.842  36.050   0.957
56238W        W26838  43.526  33.110  11.940
56239W        W26839  15.583  34.125  12.613
56240W        W26840  25.643   1.913   3.748
56241W        W26841   0.141   2.512   0.921
56242W        W26842   2.458  11.372  10.773
56243W        W26843  41.062   1.873  12.532
56244W        W26844  15.621  28.714  12.472
56245W        W26845  41.343  13.169   1.643
56246W        W26846   6.503  42.770  12.375
56247W        W26847  10.632  40.340   3.768
56248W        W26848  21.761  11.453  10.407
56249W        W26849  10.979  15.609  10.579
56250W        W26850  41.991   0.691   2.827
56251W        W26851   4.224  22.501   0.460
56252W        W26852  27.117  14.204   4.402
56253W        W26853  10.296  29.049   2.466
56254W        W26854   7.413  43.888  13.308
56255W        W26855  26.605  26.668   0.020
56256W        W26856  14.214  16.419  13.485
56257W        W26857  20.839  28.518  12.662
56258W        W26858   8.621  11.893  12.104
56259W        W26859  33.661  34.435  11.145
56260W        W26860  44.355  32.911  10.314
56261W        W26861  24.345  37.445   3.621
56262W        W26862  40.975  27.345  14.867
56263W        W26863   6.173  20.124   4.597
56264W        W26864  43.058  44.780  14.161
56265W        W26865  10.679  43.261   3.897
56266W        W26866  38.146  37.022   2.025
56267W        W26867   1.058   3.481   2.146
56268W        W26868  35.804  32.496  11.441
56269W        W26869  22.661   6.704   1.966
56270W        W26870  13.787  38.108  13.430
56271W        W26871  15.246  31.397  11.562
56272W        W26872   6.259  26.835  10.954
56273W        W26873  15.726   3.499  13.402
56274W        W26874  29.342   2.873  13.485
56275W        W26875  16.913  18.466   1.514
56276W        W26876  32.418   9.815   3.237
56277W        W26877  14.733  41.482  12.794
56278W        W26878  32.635  19.178   0.380
56279W        W26879   1.329  28.655   1.169
56280W        W26880  37.009   9.400   0.884
56281W        W26881  23.199  42.894  12.940
56282W        W26882  19.478  29.357  11.585
56283W        W26883   1.285  11.498   0.083
56284W        W26884  43.298  18.734   1.747
56285W        W26885  38.274  28.620  13.753
56286W        W26886  17.296  33.443  12.865
56287W        W26887  11.867  29.074  10.870
56288W        W26888  25.265  11.561  11.627
56289W        W26889  23.551  26.762  14.858
56290W        W26890   0.695  39.126  11.528
56291W        W26891  33.021   5.336   2.669
56292W        W26892  25.327  22.621   4.077
56293W        W26893   5.891  35.451   1.618
56294W        W26894  39.418  20.871  13.304
56295W        W26895  39.520   9.733  14.189
56296W        W26896  40.078   6.652   3.173
56297W        W26897   0.415  43.078   4.760
56298W        W26898   8.497  43.809  12.143
56299W        W26899  37.172  15.573  12.113
56300W        W26900   4.611  32.557   3.822
56301W        W26901  43.156  26.592  14.284
56302W        W26902  28.502  32.644  10.624
56303W        W26903   1.753   0.548   0.479
56304W        W26904  23.523  14.598  12.480
56305W        W26905  41.091   3.244  12.846
56306W        W26906  28.486  35.847   0.470
56307W        W26907  29.966  30.119   4.407
56308W        W26908   3.677   0.067   3.605
56309W        W26909   1.344  15.335   4.235
56310W        W26910  27.715  36.059   1.694
56311W        W26911  36.802  21.513   2.760
56312W        W26912   1.548   4.199   3.860
56313W        W26913  21.758  38.515  10.461
56314W        W26914  14.419  17.432  12.087
56315W        W26915  23.399  39.052  11.044
56316W        W26916  13.748   3.074   3.351
56317W        W26917  33.864  42.829   1.305
56318W        W26918   5.251  26.187  14.979
56319W        W26919  34.179  34.544   2.827
56320W        W26920   5.639  35.390  14.849
56321W        W26921   3.461  25.084  14.966
56322W        W26922  24.853   4.123   4.181
56323W        W26923   3.225  10.972  13.013
56324W        W26924  20.256   5.324   1.931
56325W        W26925   6.302  21.466  10.817
56326W        W26926  37.544   5.420  11.374
56327W        W26927  36.035  27.774   4.652
56328W        W26928  41.433  36.292  12.006
56329W        W26929  15.785  23.491   0.509
56330W        W26930   8.714  26.055   3.336
56331W        W26931  11.606   4.420   0.371
56332W        W26932   1.545  16.911   4.002
56333W        W26933  10.969  39.055   2.790
56334W        W26934  15.055  12.261   4.219
56335W        W26935  25.618  12.788   1.746
56336W        W26936   8.280  19.077   0.540
56337W        W26937   8.335  21.053   4.324
56338W        W26938  36.678  28.755  12.956
56339W        W26939   4.643  32.033  12.470
56340W        W26940   0.261  19.287  12.439
56341W        W26941  12.277  43.911  11.995
56342W        W26942  19.806  10.401   1.205
56343W        W26943   2.477  16.651   1.337
56344W        W26944   7.588  33.995   1.601
56345W        W26945  36.381  21.133  11.435
56346W        W26946  18.302   5.960  11.119
56347W        W26947  12.677  41.057  13.287
56348W        W26948  16.397  43.371   1.460
56349W        W26949  37.767  15.544   1.259
56350W        W26950   5.141  23.242  12.517
56351W        W26951  10.146  37.803  14.052
56352W        W26952  23.549  11.784  10.530
56353W        W26953   0.942   7.763  12.798
56354W        W26954  15.074  12.593  10.354
56355W        W26955   7.011  17.696   0.101
56356W        W26956  16.686   9.112   1.785
56357W        W26957  13.684   9.875  13.826
56358W        W26958  25.518  44.839  14.267
56359W        W26959  19.535   3.775   4.116
56360W        W26960  40.416  31.790  13.057
56361W        W26961  39.406  22.394  10.932
56362W        W26962  44.753  20.632  10.673
56363W        W26963  14.300  14.562  13.761
56364W        W26964  37.310  31.398  11.599
56365W        W26965   2.740  41.505   3.762
56366W        W26966   1.640  22.331   3.098
56367W        W26967  35.012  17.724  14.731
56368W        W26968  28.329  41.910  12.258
56369W        W26969   4.823  36.872  14.995
56370W        W26970  23.538  29.036  14.659
56371W        W26971  42.783  37.569  10.715
56372W        W26972  18.288  39.968   4.254
56373W        W26973  19.186  43.661  12.426
56374W        W26974  24.003  25.017   5.077
56375W        W26975  13.073   6.324  13.560
56376W        W26976  41.919  39.417   0.220
56377W        W26977  34.982  23.198   4.212
56378W        W26978   4.998   5.055  14.778
56379W        W26979  40.460  29.479   0.484
56380W        W26980  27.859  35.026   0.419
56381W        W26981  16.707  40.426   3.360
56382W        W26982  11.686  32.484  12.785
56383W        W26983   4.303  10.196   3.288
56384W        W26984  29.390  23.040   2.156
56385W        W26985  39.918  27.536   2.898
56386W        W26986  41.880  16.370  13.380
56387W        W26987  41.290   9.856  10.388
56388W        W26988  40.465   9.648   0.424
56389W        W26989  11.118  35.971   0.924
56390W        W26990  17.537  41.244  14.962
56391W        W26991   3.454  11.301   2.778
56392W        W26992  17.140  29.370   0.403
56393W        W26993  19.765  26.668  12.628
56394W        W26994  24.209  31.042  14.006
56395W        W26995  27.811  15.879  12.861
56396W        W26996  11.739  18.341  12.600
56397W        W26997  37.880  34.214  12.951
56398W        W26998  21.508  30.645  12.169
56399W        W26999   9.745  44.884  12.578
56400W        W27000  31.411  16.131  12.992
56401W        W27001   7.397  44.788   1.301
56402W        W27002  37.304  43.423  13.816
56403W        W27003   5.011  11.287   2.774
56404W        W27004  22.250  17.622   0.510
56405W        W27005  24.746  10.720   0.004
56406W        W27006   6.627   3.043   4.277
56407W        W27007  28.056  11.945  13.779
56408W        W27008  41.397  38.743   4.071
56409W        W27009  43.608  24.718   2.698
56410W        W27010  39.794  23.262  12.467
56411W        W27011  17.324  17.710  10.550
56412W        W27012   2.442  24.636   1.901
56413W        W27013  37.775   2.769  13.965
56414W        W27014  28.118  44.022  10.668
56415W        W27015   5.246  43.764  12.345
56416W        W27016  22.804  10.098  14.519
56417W        W27017  35.050  26.495  11.082
56418W        W27018  30.214  44.804  13.587
56419W        W27019  10.396  16.976   2.264
56420W        W27020  16.133   1.340   3.783
56421W        W27021  32.069  23.696   2.411
56422W        W27022  18.673  21.018   2.900
56423W        W27023   5.366  43.448   2.618
56424W        W27024  24.777  39.831  14.832
56425W        W27025  14.721  38.047   2.340
56426W        W27026   5.923  17.218   3.195
56427W        W27027  42.054  24.220   4.627
56428W        W27028   9.327  35.365  11.871
56429W        W27029  36.367   1.716  11.877
56430W        W27030  24.636  40.782  11.587
56431W        W27031   2.012   7.851  10.524
56432W        W27032  36.919  39.290  11.470
56433W        W27033   9.188  24.672   4.489
56434W        W27034  27.614  34.051   4.810
56435W        W27035  28.573   3.703   2.353
56436W        W27036  44.009  40.001  12.349
56437W        W27037  26.771  29.607  12.860
56438W        W27038  15.773   4.149  14.246
56439W        W27039   6.379  26.997   0.079
56440W        W27040  27.858   5.457   4.054
56441W        W27041  32.503  11.233  10.929
56442W        W27042  39.086  16.579  12.035
56443W        W27043  35.330  11.078   3.164
56444W        W27044   5.733  16.537   0.916
56445W        W27045  31.860  24.550  14.959
56446W        W27046  22.922  27.378   0.300
56447W        W27047  23.525   5.126   1.721
56448W        W27048  34.030  43.363  13.457
56449W        W27049  18.340  19.509  11.116
56450W        W27050  30.890  40.329  13.597
56451W        W27051  37.148   2.970   2.740
56452W        W27052  40.296   4.647  14.738
56453W        W27053  16.540   6.008  11.524
56454W        W27054   5.845  42.356  14.341
56455W        W27055  33.178  44.849  13.528
56456W        W27056  30.520  27.820  13.486
56457W        W27057   5.447  27.045   2.618
56458W        W27058  13.578  44.793   0.203
56459W        W27059  29.183  13.250  11.237
56460W        W27060  32.372  28.468  13.480
56461W        W27061  27.467  34.688   1.875
56462W        W27062  13.815  12.702  13.994
56463W        W27063  21.203  28.911  11.183
56464W        W27064  37.080  40.604  14.889
56465W        W27065   6.397   3.415  10.756
56466W        W27066  33.240  31.387   1.755
56467W        W27067   5.481  41.823   3.379
56468W        W27068  44.717  21.070   2.767
56469W        W27069  39.763  32.916   1.481
56470W        W27070   1.817   9.279   1.743
56471W        W27071   8.342  32.909  10.719
56472W        W27072  38.143  23.079  14.133
56473W        W27073   5.935  30.664  12.661
56474W        W27074  23.242   1.657   4.564
56475W        W27075   3.400   0.690   1.824
56476W        W27076   7.460  44.303   1.470
56477W        W27077   7.907  28.528   3.105
56478W        W27078  36.190   0.536  13.442
56479W        W27079   9.346   3.420   4.075
56480W        W27080  16.600  20.510  13.058
56481W        W27081   3.815  24.780  12.036
56482W        W27082   2.758  25.699   4.256
56483W        W27083  14.930   9.504   4.105
56484W        W27084   0.400  23.071  12.594
56485W        W27085  21.525  24.576   2.252
56486W        W27086  37.578  39.573   2.417
56487W        W27087  26.976  37.122  14.574
56488W        W27088  42.575  41.437  11.614
56489W        W27089  17.311  14.456  13.170
56490W        W27090   9.252  19.426   0.245
56491W        W27091  38.646  11.764  11.517
56492W        W27092  37.622  20.204   2.697
56493W        W27093  39.275  38.611   3.352
56494W        W27094  40.169  34.196  14.392
56495W        W27095  30.897   1.384  14.509
56496W        W27096   1.740  13.158  13.983
56497W        W27097  14.737  42.639  11.163
56498W        W27098  13.895  14.611   2.759
56499W        W27099  24.213  17.190  12.409
56500W        W27100  35.403  14.238   4.908
56501W        W27101  24.069  36.464   2.824
56502W        W27102   2.405  26.072  10.686
56503W        W27103  31.826  12.448   5.062
56504W        W27104  24.691  31.799  13.716
56505W        W27105  39.834  42.843   1.642
56506W        W27106   6.817  11.269  10.619
56507W        W27107  37.998  30.217   2.721
56508W        W27108  40.501  27.037  12.960
56509W        W27109  23.612  27.686  12.127
56510W        W27110  26.329   5.889   4.157
56511W        W27111  12.112  10.990   1.621
56512W        W27112   9.865  30.489  14.351
56513W        W27113  18.661  12.085   1.196
56514W        W27114  27.714  30.132   3.329
56515W        W27115  21.162  38.071  13.404
56516W        W27116   4.255   9.269  13.931
56517W        W27117  12.298  44.920   0.359
56518W        W27118  37.183  39.791   4.093
56519W        W27119  42.321   8.041   5.121
56520W        W27120   2.733   0.477   2.363
56521W        W27121  32.294  28.174   3.622
56522W        W27122   0.785  26.233  11.194
56523W        W27123  38.957   7.079  12.470
56524W        W27124  14.200  40.052  12.357
56525W        W27125   5.158  16.616   4.648
56526W        W27126  39.305  42.946  11.198
56527W        W27127  26.220  43.976   1.808
56528W        W27128  39.350  38.351   0.879
56529W        W27129   9.404   9.805  14.431
56530W        W27130  43.410  20.344  12.056
56531W        W27131   5.358  18.521   2.093
56532W        W27132   9.896  14.778   0.672
56533W        W27133   3.235  25.154   0.424
56534W        W27134  41.559   5.933  11.528
56535W        W27135  18.519  34.037  13.147
56536W        W27136  41.778  35.135   2.012
56537W        W27137  11.270  15.685   4.618
56538W        W27138   8.321  15.663   0.891
56539W        W27139  39.809  35.366  12.529
56540W        W27140  40.251  22.014   3.189
56541W        W27141  21.924  15.788  12.571
56542W        W27142  44.793  14.164   3.412
56543W        W27143  32.102  13.696   0.733
56544W        W27144   2.947  41.574  11.179
56545W        W27145  36.816  13.435  11.649
56546W        W27146  16.507   0.695  13.129
56547W        W27147  29.173  30.078   1.148
56548W        W27148  19.558   6.310  14.059
56549W        W27149   4.180  32.503   3.457
56550W        W27150   9.733   7.477   0.859
56551W        W27151  18.122  12.290   1.474
56552W        W27152  22.608  20.912  14.758
56553W        W27153  33.662   2.216  12.630
56554W        W27154  28.637  44.695   3.401
56555W        W27155  35.862  22.245   0.951
56556W        W27156  21.736  31.669   2.710
56557W        W27157  34.066  41.901   1.178
56558W        W27158  16.788  35.155   4.531
56559W        W27159  18.469  10.134   1.568
56560W        W27160  22.473  28.026  12.547
56561W        W27161   7.232  43.925   0.755
56562W        W27162  18.207  33.129   3.640
56563W        W27163  30.726  20.074  14.552
56564W        W27164   2.918  24.693  10.765
56565W        W27165  36.354  19.183   0.743
56566W        W27166  35.081  26.162   1.383
56567W        W27167   1.085  12.756  10.720
56568W        W27168  13.108  14.577   0.198
56569W        W27169  11.770  24.699   1.283
56570W        W27170  40.948  37.023   3.283
56571W        W27171  37.923  28.567  12.888
56572W        W27172  12.239   9.153  13.814
56573W        W27173  32.352   8.308   2.348
56574W        W27174  44.788  41.971  11.530
56575W        W27175  44.334  19.320  10.488
56576W        W27176  18.170  44.226   4.147
56577W        W27177   3.310   8.089  11.423
56578W        W27178  21.860   5.800   1.399
56579W        W27179  20.646   1.021   0.152
56580W        W27180  32.222  34.473  10.393
56581W        W27181   0.017   4.026  14.137
56582W        W27182  20.328  14.833   2.586
56583W        W27183  19.152  29.611  11.109
56584W        W27184  16.543  41.543   0.917
56585W        W27185  28.568   1.938   0.687
56586W        W27186  19.078   1.749   3.622
56587W        W27187  13.039  39.281  12.612
56588W        W27188  20.643   9.000  10.309
56589W        W27189   1.904  34.654   4.819
56590W        W27190  20.131  39.876  14.966
56591W        W27191   2.442  12.643  14.836
56592W        W27192   2.906  12.297   2.348
56593W        W27193  43.808   7.213  11.912
56594W        W27194  31.964  33.505   5.079
56595W        W27195  44.466  36.432   4.915
56596W        W27196  17.898   3.693  14.386
56597W        W27197   2.853  44.632   3.181
56598W        W27198  12.788  38.072  10.604
56599W        W27199  17.180  41.229  13.607
56600W        W27200  12.220  42.962   1.779
56601W        W27201  18.182  29.875   3.320
56602W        W27202  37.976  44.034   3.928
56603W        W27203  10.339  27.058   2.351
56604W        W27204   4.316  39.817   4.921
56605W        W27205  12.655  22.699   4.660
56606W        W27206  34.358  16.076  10.754
56607W        W27207  44.971  40.992  10.698
56608W        W27208  44.570  38.098  12.057
56609W        W27209  25.808   7.151  11.221
56610W        W27210  18.960  19.483   2.280
56611W        W27211   5.177  10.846  11.871
56612W        W27212  44.382   9.822   2.690
56613W        W27213   3.621   6.162  12.994
56614W        W27214  28.479  43.873  11.507
56615W        W27215  25.616   6.833   1.869
56616W        W27216  19.880  18.022  12.876
56617W        W27217  31.685  43.812   2.161
56618W        W27218   2.927  15.413   4.671
56619W        W27219  15.777  42.209  11.158
56620W        W27220  26.893   8.379  11.595
56621W        W27221  34.900  32.327  12.104
56622W        W27222  40.902  29.175   1.387
56623W        W27223  22.699  29.604   3.596
56624W        W27224  12.235   9.289   1.770
56625W        W27225  26.048   0.495   5.381
56626W        W27226   8.407  26.704   4.613
56627W        W27227  38.295  31.498  11.671
56628W        W27228  24.540  23.473  11.232
56629W        W27229  34.019  18.569   1.174
56630W        W27230   0.790   2.299   0.446
56631W        W27231   4.655  29.099  10.583
56632W        W27232  18.735  19.999   4.279
56633W        W27233  30.282  18.150  11.971
56634W        W27234  41.688   4.472   1.813
56635W        W27235  16.741  44.872  11.602
56636W        W27236  11.294  10.659  13.922
56637W        W27237  13.379  20.863  12.474
56638W        W27238  32.849  11.256  11.744
56639W        W27239  26.003   6.455  11.373
56640W        W27240  29.843  13.867  12.577
56641W        W27241  21.735   4.967   0.821
56642W        W27242   0.787  18.682  12.004
56643W        W27243  26.775  24.178  13.319
56644W        W27244   2.411   8.361  13.805
56645W        W27245  33.478   3.818  10.370
56646W        W27246   6.960   5.952  14.093
56647W        W27247  35.453  31.383   3.557
56648W        W27248  42.896   9.608   5.034
56649W        W27249  17.616  21.520  12.494
56650W        W27250  36.071  36.420   2.773
56651W        W27251  16.569  43.798   5.260
56652W        W27252   7.870  33.708  11.587
56653W        W27253  36.104   7.917   1.911
56654W        W27254  20.864  37.507   2.214
56655W        W27255  17.569  37.319  12.163
56656W        W27256   5.339  41.400   3.652
56657W        W27257  33.010  33.046   0.659
56658W        W27258   8.373   5.926  10.653
56659W        W27259  18.255  30.590   2.829
56660W        W27260  37.329  41.187  11.220
56661W        W27261  17.997   0.903  13.839
56662W        W27262   3.963  10.077  10.960
56663W        W27263   9.010   3.441  12.810
56664W        W27264  34.609   2.840   0.359
56665W        W27265   0.659  24.390  14.899
56666W        W27266  13.860  13.742  13.476
56667W        W27267  36.061  31.584  11.076
56668W        W27268   7.405   7.606  14.951
56669W        W27269  20.296  26.736  12.015
56670W        W27270  33.056   2.272   2.375
56671W        W27271  42.301  23.475  13.370
56672W        W27272  27.080  27.025   1.450
56673W        W27273  30.373  16.196  14.009
56674W        W27274   8.436  44.812   3.107
56675W        W27275  30.710   7.772  12.615
56676W        W27276  29.072  11.241   1.814
56677W        W27277  34.419  12.208  13.711
56678W        W27278  43.805   9.306  13.975
56679W        W27279   0.062  30.573  12.458
56680W        W27280  36.152  35.404   4.957
56681W        W27281  28.124  43.014  11.592
56682W        W27282  42.843   1.145   0.423
56683W        W27283  24.187  22.629  13.250
56684W        W27284   4.823  27.715  14.863
56685W        W27285  40.577  15.662   4.124
56686W        W27286  43.444   8.066   0.473
56687W        W27287  25.512   5.206   3.964
56688W        W27288  37.675  19.717   4.308
56689W        W27289  36.011  29.929  10.687
56690W        W27290  36.753  43.961   4.122
56691W        W27291  25.688  32.892   0.793
56692W        W27292   6.400  24.502  11.654
56693W        W27293   0.293   0.008   3.237
56694W        W27294   6.376   9.938  14.330
56695W        W27295  28.987  24.450  14.436
56696W        W27296  23.028  21.198  11.088
56697W        W27297  39.894  40.998  10.770
56698W        W27298   2.886  30.466   3.922
56699W        W27299  27.939   9.120  14.940
56700W        W27300   1.201  44.251  14.299
56701W        W27301  28.968  13.970  13.183
56702W        W27302  16.572  39.778   0.951
56703W        W27303   4.678  35.843  10.918
56704W        W27304  13.222   2.042   3.367
56705W        W27305  22.222  30.811   0.374
56706W        W27306   3.951  27.356   1.380
56707W        W27307  40.891  19.598   0.229
56708W        W27308  40.327  44.980   2.883
56709W        W27309  33.426  29.915  10.252
56710W        W27310  18.542  36.848  12.484
56711W        W27311  12.379  44.542   3.268
56712W        W27312   0.906  20.870  13.028
56713W        W27313  15.404  26.597  13.960
56714W        W27314  24.484   9.687  12.166
56715W        W27315  29.982   3.673   0.613
56716W        W27316  21.162  19.552   2.895
56717W        W27317  41.092  33.350   2.402
56718W        W27318   8.545   5.520  12.592
56719W        W27319  23.202   1.387   2.729
56720W        W27320  23.059   6.184   3.387
56721W        W27321  34.865  40.926   4.830
56722W        W27322  29.490  13.355   0.765
56723W        W27323   0.428  12.175  13.570
56724W        W27324  11.012   6.064   0.809
56725W        W27325  36.534   0.301  13.727
56726W        W27326  31.513  40.139  14.313
56727W        W27327   0.742  40.332  12.918
56728W        W27328  43.370  37.172  12.957
56729W        W27329  16.193   1.125  12.447
56730W        W27330  34.709   5.850   0.909
56731W        W27331   6.164  21.632  13.450
56732W        W27332  38.421  35.697  13.369
56733W        W27333   6.816  30.014   0.214
56734W        W27334   7.801  12.880  13.918
56735W        W27335   8.450  24.446   0.382
56736W        W27336   6.365  20.820   0.785
56737W        W27337  42.905  11.537  12.235
56738W        W27338  24.959  44.415   1.950
56739W        W27339  24.268  12.251  10.719
56740W        W27340  34.674  15.739   1.520
56741W        W27341   5.597  26.296   0.811
56742W        W27342  26.929  44.304  11.593
56743W        W27343   7.723  40.371   3.707
56744W        W27344  11.021  10.966   0.751
56745W        W27345  30.574  37.177  11.051
56746W        W27346  15.517   3.842  10.678
56747W        W27347   6.672  26.565  11.098
56748W        W27348  23.229   1.226  10.270
56749W        W27349  31.003   1.475   2.444
56750W        W27350  14.230  36.350   2.169
56751W        W27351  23.300  21.487  14.830
56752W        W27352  14.282  16.283  14.476
56753W        W27353  27.138  39.287   4.347
56754W        W27354  23.351  13.227  11.543
56755W        W27355  13.659  18.308  12.975
56756W        W27356  42.809  34.690   3.166
56757W        W27357  43.837   7.831  10.546
56758W        W27358  38.625   1.320  13.254
56759W        W27359   6.218  11.463   2.704
56760W        W27360  38.612  10.585  12.131
56761W        W27361  44.763   9.551   3.673
56762W        W27362  41.386  27.969  12.346
56763W        W27363   4.109  35.515  12.186
56764W        W27364   0.496  34.080  11.134
56765W        W27365  12.533  31.975   1.804
56766W        W27366  32.045   0.277  13.950
56767W        W27367  39.135  16.196   0.192
56768W        W27368   4.784   0.160  11.914
56769W        W27369  43.865  12.913   1.806
56770W        W27370  10.172  39.455   4.637
56771W        W27371  32.604  40.932   3.623
56772W        W27372  31.926  17.692   0.923
56773W        W27373  29.709  42.102  12.509
56774W        W27374  13.130  21.109  11.513
56775W        W27375  22.607  27.768   3.724
56776W        W27376   0.935  37.893  12.069
56777W        W27377  29.714   9.698  13.429
56778W        W27378  12.051  44.256   3.563
56779W        W27379   2.558  44.744   1.312
56780W        W27380  16.221  12.133  14.258
56781W        W27381   7.273  22.696   3.298
56782W        W27382  24.108   1.572   2.278
56783W        W27383  41.034   1.908   4.046
56784W        W27384  15.710  38.945   0.279
56785W        W27385   8.828   9.548  12.366
56786W        W27386  36.257  41.874   3.609
56787W        W27387  31.008   2.509   2.401
56788W        W27388  20.837  30.773  10.005
56789W        W27389  30.928   1.864  10.802
56790W        W27390  15.318  41.561   2.624
56791W        W27391  10.859  37.692   2.815
56792W        W27392   4.463   4.732  13.945
56793W        W27393  14.638  35.303  13.432
56794W        W27394  35.990  33.178   0.643
56795W        W27395  12.352  44.143   1.322
56796W        W27396   0.557   5.347   0.333
56797W        W27397  33.395  12.550  11.192
56798W        W27398   8.109   2.190  14.878
56799W        W27399  26.142  39.458   0.196
56800W        W27400  11.787   3.905   2.269
56801W        W27401   2.707   8.783   2.700
56802W        W27402  15.099  30.357  11.118
56803W        W27403  23.911  16.303  10.791
56804W        W27404  15.564   7.726   2.430
56805W        W27405   8.295   7.348   4.367
56806W        W27406  10.375  39.383  11.220
56807W        W27407   8.636  11.448  11.626
56808W        W27408   5.647   3.290  14.940
56809W        W27409  14.322  34.091   2.613
56810W        W27410  43.978  40.918   4.335
56811W        W27411   8.644  29.493  13.573
56812W        W27412  27.954  32.177   5.192
56813W        W27413  42.412  41.312  12.086
56814W        W27414  43.300  40.698  11.203
56815W        W27415  34.564  40.174   3.804
56816W        W27416  11.379  38.505   3.396
56817W        W27417  17.946  27.495   1.657
56818W        W27418  20.509   1.806   1.390
56819W        W27419   2.102  36.477  12.507
56820W        W27420  29.234  11.750   1.859
56821W        W27421  16.298   0.587  12.421
56822W        W27422   5.542  14.324   1.854
56823W        W27423  15.190  39.993  13.010
56824W        W27424  29.517  15.986   2.980
56825W        W27425  36.414  42.764   3.602
56826W        W27426  24.695  38.797   1.915
56827W        W27427  37.377   6.178  13.946
56828W        W27428  17.121  27.256  14.860
56829W        W27429  30.038  19.007  14.960
56830W        W27430  36.381  40.199  12.533
56831W        W27431   0.038  38.341   2.804
56832W        W27432  10.462  40.484  14.676
56833W        W27433   9.371  27.243  13.463
56834W        W27434  41.509  41.772   3.181
56835W        W27435  23.238  39.823  12.412
56836W        W27436  37.603  36.159  10.727
56837W        W27437  40.917  41.837   3.795
56838W        W27438  40.320  27.917   4.525
56839W        W27439  29.104  27.996  14.261
56840W        W27440   7.977  38.922  12.841
56841W        W27441  14.700   6.211   3.237
56842W        W27442  19.209   7.165   3.764
56843W        W27443  10.185  29.597  11.206
56844W        W27444   5.884  13.396  14.334
56845W        W27445  36.523  20.900  10.452
56846W        W27446  16.124  21.436   4.920
56847W        W27447  29.626  37.473   9.958
56848W        W27448  10.608  12.764   4.362
56849W        W27449  21.220  11.295  10.551
56850W        W27450   3.944   3.147   4.561
56851W        W27451   6.064  27.118   3.563
56852W        W27452  28.939  38.955   4.597
56853W        W27453   2.555  12.648   9.898
56854W        W27454   5.341  11.712  12.868
56855W        W27455  44.265  12.116  11.499
56856W        W27456  11.931  23.537   3.682
56857W        W27457  33.413  21.349   4.578
56858W        W27458   0.251  16.762  13.448
56859W        W27459  34.657  42.628  13.801
56860W        W27460  31.103   9.959  14.655
56861W        W27461  32.886  37.923   0.905
56862W        W27462  44.426  18.903   4.619
56863W        W27463   3.201  20.556  12.163
56864W        W27464  26.172  34.469  13.841
56865W        W27465   7.393   3.524  10.626
56866W        W27466   2.477  27.411   0.940
56867W        W27467  13.578  11.884  11.968
56868W        W27468  11.869  35.828   2.591
56869W        W27469  36.332  24.202   0.801
56870W        W27470  23.016  29.520   0.795
56871W        W27471  16.051   2.975   3.183
56872W        W27472  34.354  29.515   0.033
56873W        W27473  20.070   3.582  11.612
56874W        W27474  39.005  19.587  12.450
56875W        W27475  19.152  28.484  10.743
56876W        W27476  26.627  27.264  10.702
56877W        W27477   1.305  31.599  12.791
56878W        W27478  31.543   5.375  10.740
56879W        W27479  11.208   2.740  11.543
56880W        W27480  40.283  15.270   0.281
56881W        W27481  36.453  32.362  14.971
56882W        W27482   1.800  27.659   1.834
56883W        W27483   7.147  25.763  14.230
56884W        W27484  34.462  40.092   2.209
56885W        W27485   3.723   8.263  14.500
56886W        W27486   5.914  44.838  14.088
56887W        W27487  12.805  29.024  11.252
56888W        W27488   0.734  40.257  14.013
56889W        W27489   2.413  32.699  14.472
56890W        W27490  29.645   2.723   1.538
56891W        W27491  34.395  44.996  11.946
56892W        W27492   5.392  32.783  10.733
56893W        W27493  38.984  24.600   3.685
56894W        W27494  38.931   4.711   3.995
56895W        W27495  36.954  31.437   4.589
56896W        W27496  12.802   9.244   4.413
56897W        W27497   3.742   8.575  14.933
56898W        W27498  17.736  32.790   2.339
56899W        W27499  37.058   2.185  14.093
56900W        W27500  31.023  42.951  14.476
56901W        W27501  43.834  42.957   2.672
56902W        W27502  15.646  16.756   4.978
56903W        W27503  10.550   5.527   0.440
56904W        W27504  13.286  38.026   4.667
56905W        W27505  25.107   6.415  14.041
56906W        W27506  34.938  40.256  11.931
56907W        W27507  30.127  17.207  14.704
56908W        W27508  31.065  41.899  13.530
56909W        W27509   8.353  39.749  13.507
56910W        W27510   5.486   8.536  14.797
56911W        W27511  44.390  17.478  12.084
56912W        W27512  32.639   0.707  12.018
56913W        W27513  26.509   6.562  11.548
56914W        W27514  14.746  26.540  12.387
56915W        W27515  23.019  22.804  12.069
56916W        W27516  15.069  36.389   2.615
56917W        W27517  19.984   4.743   0.241
56918W        W27518  16.609  10.223  14.344
56919W        W27519  23.942   0.757   3.392
56920W        W27520   7.345  21.028   3.249
56921W        W27521  42.920  22.430  11.127
56922W        W27522  42.331  38.358  11.728
56923W        W27523  11.295  24.981   0.856
56924W        W27524  28.229  11.185   4.201
56925W        W27525  41.728  41.690  13.565
56926W        W27526  37.822   2.918  10.687
56927W        W27527   7.235  30.715   4.535
56928W        W27528  32.120  22.730  14.504
56929W        W27529   8.337  10.865  12.426
56930W        W27530  43.201  42.737   5.100
56931W        W27531   5.306  19.685  14.994
56932W        W27532  16.175  35.869   1.400
56933W        W27533  19.005  16.499  12.336
56934W        W27534  28.947  25.672   0.596
56935W        W27535  12.344  11.948   0.695
56936W        W27536  13.332  34.937   0.837
56937W        W27537  12.283  24.090   2.806
56938W        W27538  37.838  21.631  10.858
56939W        W27539  41.604  20.450   3.667
56940W        W27540  42.675   1.852   1.756
56941W        W27541   8.729  13.763  13.550
56942W        W27542   7.665   1.981   2.897
56943W        W27543  25.286  32.956   3.753
56944W        W27544  34.498  23.593   3.596
56945W        W27545   8.667  14.247   2.725
56946W        W27546  12.092  42.661   1.314
56947W        W27547   3.235  38.386  13.050
56948W        W27548  28.031  33.327  14.032
56949W        W27549  41.146  44.119  11.104
56950W        W27550   5.342  27.447   3.984
56951W        W27551  42.727  18.189  13.076
56952W        W27552  18.464  40.950   3.932
56953W        W27553  14.802  15.185  14.345
56954W        W27554  38.273   3.238   0.713
56955W        W27555   2.841  16.693  13.489
56956W        W27556   2.542  11.619  11.231
56957W        W27557  25.092  40.096   3.651
56958W        W27558  33.993   5.440   0.420
56959W        W27559   8.123  37.329  11.406
56960W        W27560   7.352  10.291  13.952
56961W        W27561  38.835  41.870   0.390
56962W        W27562  41.077   6.844  13.822
56963W        W27563  28.408  38.466  13.732
56964W        W27564  23.523   2.771  12.466
56965W        W27565  18.193  10.084   2.683
56966W        W27566  12.879  14.380   2.823
56967W        W27567  32.946  22.167  14.299
56968W        W27568  23.886   3.495   0.544
56969W        W27569  39.388  33.667   1.828
56970W        W27570  33.888  26.969  12.834
56971W        W27571   4.274  14.026  10.980
56972W        W27572  26.585   9.297   3.630
56973W        W27573  37.350   2.786   0.423
56974W        W27574  41.498  37.273   4.095
56975W        W27575  21.950  33.053   2.279
56976W        W27576   6.724  31.620   2.079
56977W        W27577  26.067  41.803   0.380
56978W        W27578  11.676  39.763  12.153
56979W        W27579  14.604   3.931  13.866
56980W        W27580  24.397  42.373   0.766
56981W        W27581  39.283  40.265  13.937
56982W        W27582  42.815  14.352   4.717
56983W        W27583  27.099  13.682   2.273
56984W        W27584   0.017  15.761  13.734
56985W        W27585  14.923   2.197  13.904
56986W        W27586  39.465  14.231  12.401
56987W        W27587  43.770  35.867  10.978
56988W        W27588  24.145  31.128  11.659
56989W        W27589  20.566   9.675  13.217
56990W        W27590  31.704  11.781   3.215
56991W        W27591   4.979   7.252   2.273
56992W        W27592  41.302  18.609   1.822
56993W        W27593  29.825   5.997   0.353
56994W        W27594   3.731  26.735  14.899
56995W        W27595  27.861   2.929  13.969
56996W        W27596  21.238  17.692  12.054
56997W        W27597   6.476  26.678   1.424
56998W        W27598  20.333  35.415  11.551
56999W        W27599   5.214  16.534   0.336
57000W        W27600  34.058  43.207   4.148
57001W        W27601  18.772  43.996   1.779
57002W        W27602   0.709   3.732  11.544
57003W        W27603  36.904   2.748  12.841
57004W        W27604  17.325  27.899  14.226
57005W        W27605   2.665  21.090  13.510
57006W        W27606  27.700  23.674   1.704
57007W        W27607   2.395   8.742  13.447
57008W        W27608  18.130   4.355  11.973
57009W        W27609  32.130  37.567   2.260
57010W        W27610  17.281  35.936   5.424
57011W        W27611  22.139  22.736   4.309
57012W        W27612  14.861  44.323  13.531
57013W        W27613   2.222  41.897  12.566
57014W        W27614  14.124  35.398   2.224
57015W        W27615  11.608  32.349   3.319
57016W        W27616  25.199  25.604  13.985
57017W        W27617  16.207  41.721   4.456
57018W        W27618   8.550  17.282   0.680
57019W        W27619   2.992  19.648  12.422
57020W        W27620  26.600  11.827   0.742
57021W        W27621  15.308  35.022   0.621
57022W        W27622   8.332  28.479   1.216
57023W        W27623   8.331   6.119   3.223
57024W        W27624  20.077  42.402  11.526
57025W        W27625   1.041   9.602  12.869
57026W        W27626   7.997  41.409  11.212
57027W        W27627  10.748   7.883  14.145
57028W        W27628  10.380   1.916  13.097
57029W        W27629   2.291  44.893   4.602
57030W        W27630  11.345  36.134   0.479
57031W        W27631   8.360   0.208  12.088
57032W        W27632   8.368  44.824   1.322
57033W        W27633  11.357  39.365  14.463
57034W        W27634   4.803  32.118   1.434
57035W        W27635  24.711  42.207   4.229
57036W        W27636   6.434  32.508  12.439
57037W        W27637  34.543  26.563   1.765
57038W        W27638  19.058   5.804  10.622
57039W        W27639   9.918  19.840   4.101
57040W        W27640  43.685  19.689   3.272
57041W        W27641  12.371  35.312  12.470
57042W        W27642  18.545  19.395   0.260
57043W        W27643  38.151  39.270  13.101
57044W        W27644  12.803  32.879   4.019
57045W        W27645  26.208  24.483  11.484
57046W        W27646  36.624  30.920  13.485
57047W        W27647  19.681  25.720  13.078
57048W        W27648  28.630   8.639   3.156
57049W        W27649  14.346  40.390  13.428
57050W        W27650  40.947  33.651  11.534
57051W        W27651  43.887   0.493   3.051
57052W        W27652  21.618   8.259  12.870
57053W        W27653   8.153  42.486  10.602
57054W        W27654  36.042  43.840   0.790
57055W        W27655  19.735  30.819  14.466
57056W        W27656   4.506   1.669   1.832
57057W        W27657  18.714   2.958  13.511
57058W        W27658  17.822   5.614  11.531
57059W        W27659  30.899  33.427   4.254
57060W        W27660  20.044  19.581  13.453
57061W        W27661  22.485   7.671  13.829
57062W        W27662  43.442  22.214   3.149
57063W        W27663  42.501  10.234  10.821
57064W        W27664   3.359   6.387  12.612
57065W        W27665  44.845  39.749  12.309
57066W        W27666  33.061  30.519   0.554
57067W        W27667   2.997  40.699  14.888
57068W        W27668  32.289  17.773  10.749
57069W        W27669  25.575   5.363  14.792
57070W        W27670  26.686  30.795   0.503
57071W        W27671  36.847  10.581  12.049
57072W        W27672  41.903  32.445  12.068
57073W        W27673   5.833  41.795   4.178
57074W        W27674  44.384   1.935  10.754
57075W        W27675  20.670  30.002   4.137
57076W        W27676  14.479  40.317   4.989
57077W        W27677  30.158  30.993   0.056
57078W        W27678  27.020   9.867  13.054
57079W        W27679  36.400  21.653  12.172
57080W        W27680   3.484   3.972  13.410
57081W        W27681  31.934  39.596   3.443
57082W        W27682  12.216  28.917   2.233
57083W        W27683  34.412  12.331  12.475
57084W        W27684  21.615  25.091  10.688
57085W        W27685  30.162  19.987  13.524
57086W        W27686  43.434  17.481   2.430
57087W        W27687  34.917  36.933   1.296
57088W        W27688  19.765  18.343  13.789
57089W        W27689  15.397  32.672   2.289
57090W        W27690  40.361  42.541  11.356
57091W        W27691  42.440  15.794   3.144
57092W        W27692  42.437  30.458  13.560
57093W        W27693  20.974   7.887   3.297
57094W        W27694  17.730  17.262  11.522
57095W        W27695  30.653   9.756  14.516
57096W        W27696   9.124  23.081  10.969
57097W        W27697  26.687  23.811   2.918
57098W        W27698  28.671  10.108   3.212
57099W        W27699  41.756  40.181   4.069
57100W        W27700  35.560  16.062   3.827
57101W        W27701  39.429  32.330  13.952
57102W        W27702  41.047  31.209  14.410
57103W        W27703  35.157  12.345  13.546
57104W        W27704  13.230  12.606  10.984
57105W        W27705   0.507  26.963   3.230
57106W        W27706  37.439  37.583   5.120
57107W        W27707  19.340   5.942  11.081
57108W        W27708  10.307  31.699  12.581
57109W        W27709  19.915  40.661  14.810
57110W        W27710  30.331  21.656  11.306
57111W        W27711   1.284  35.122  12.457
57112W        W27712   5.188  41.398   3.154
57113W        W27713  43.808   2.398   3.858
57114W        W27714  36.429  19.674  14.532
57115W        W27715  29.028  12.321  12.855
57116W        W27716  25.692   8.097  12.872
57117W        W27717  26.707  19.800   3.101
57118W        W27718  10.977  44.562  11.622
57119W        W27719  31.789   4.165   4.082
57120W        W27720   0.317   7.599   3.280
57121W        W27721  12.379  13.906   0.769
57122W        W27722  40.962  16.068  14.777
57123W        W27723  21.256  38.881   3.257
57124W        W27724  32.137   1.521   3.744
57125W        W27725   3.490  38.027   2.421
57126W        W27726   8.586   8.316   2.828
57127W        W27727   7.615  16.991  14.915
57128W        W27728  29.101  30.880   0.528
57129W        W27729  25.122  24.274   4.693
57130W        W27730  11.324  17.263  12.920
57131W        W27731  35.334  44.876   2.803
57132W        W27732  22.629  43.095  12.106
57133W        W27733  35.337  33.813   4.123
57134W        W27734  23.855  16.646   0.885
57135W        W27735  15.162  21.013  13.141
57136W        W27736  19.107  42.916   0.677
57137W        W27737  24.668  17.617  11.820
57138W        W27738  34.942   1.173  13.464
57139W        W27739  22.080  21.737   4.413
57140W        W27740  39.984  13.269   4.260
57141W        W27741  16.349  34.870   2.830
57142W        W27742  10.361  20.247   3.254
57143W        W27743   0.534  14.061  11.629
57144W        W27744  30.743  39.266  10.223
57145W        W27745  19.628  20.210  14.571
57146W        W27746  33.864   1.255   2.193
57147W        W27747  35.612  29.908  11.058
57148W        W27748  19.461  41.888  12.662
57149W        W27749   9.840  13.306  12.317
57150W        W27750  20.572  25.151  12.374
57151W        W27751  23.791  37.476  12.554
57152W        W27752  16.566  25.531  13.426
57153W        W27753  20.054   5.265   0.340
57154W        W27754  23.083  14.034  13.554
57155W        W27755  15.536   1.539  11.597
57156W        W27756  33.642   2.315  11.206
57157W        W27757  16.338  30.603  13.261
57158W        W27758  42.566  12.677   3.052
57159W        W27759  44.376  32.719  13.111
57160W        W27760  35.359  37.608   3.489
57161W        W27761  34.452  35.509  13.344
57162W        W27762   2.233  22.475  10.693
57163W        W27763   5.252   4.322   3.335
57164W        W27764  33.173  37.318   1.454
57165W        W27765  19.721  43.786  13.424
57166W        W27766  37.601   4.432  12.444
57167W        W27767  10.045  42.886   4.639
57168W        W27768  17.650  37.518  14.825
57169W        W27769   9.531  16.773  13.842
57170W        W27770  37.090  10.942   2.647
57171W        W27771  16.704  11.946   4.150
57172W        W27772  31.002  17.323   0.566
57173W        W27773  37.347  43.639   4.539
57174W        W27774  20.366  34.627   4.112
57175W        W27775  34.080  17.294   4.057
57176W        W27776   9.678  19.765   4.606
57177W        W27777  16.955  21.705   4.568
57178W        W27778  15.708  27.252  14.948
57179W        W27779  28.183   1.301  11.617
57180W        W27780   5.286  35.266  14.480
57181W        W27781  26.355  40.631   2.901
57182W        W27782   6.318  13.309   0.825
57183W        W27783  41.427  21.098   4.221
57184W        W27784  15.749   4.400  11.032
57185W        W27785  20.167   2.086   0.389
57186W        W27786  13.269  42.358   3.569
57187W        W27787  20.589   6.196   4.776
57188W        W27788  19.575  21.992   4.586
57189W        W27789   0.102   7.645   4.067
57190W        W27790  15.480  11.916  11.105
57191W        W27791  29.510  15.785  13.417
57192W        W27792   8.679  21.570  12.503
57193W        W27793   5.166  36.933  14.085
57194W        W27794  38.481  22.207  10.661
57195W        W27795  41.435  36.561   4.651
57196W        W27796  41.962  12.618   4.670
57197W        W27797  31.109  40.373  10.331
57198W        W27798  41.054  40.559  12.169
57199W        W27799  20.099   3.510   5.066
57200W        W27800  14.785  21.972  13.898
57201W        W27801  10.642   3.014  13.531
57202W        W27802  38.979  28.758   1.292
57203W        W27803  44.038  19.761   3.651
57204W        W27804  28.725  35.598   2.553
57205W        W27805  20.946   0.782  13.350
57206W        W27806   5.607  23.018  12.551
57207W        W27807  38.805  33.853  14.337
57208W        W27808   4.468  35.481  13.072
57209W        W27809  35.978   4.035  12.493
57210W        W27810  25.023  37.509  10.376
57211W        W27811  15.620  14.589   3.181
57212W        W27812  26.383  12.532  11.988
57213W        W27813  30.362  23.297   2.840
57214W        W27814  17.140  23.027   0.830
57215W        W27815  23.775  39.065  14.959
57216W        W27816  11.521  23.189   2.195
57217W        W27817   8.136  25.487   3.993
57218W        W27818   5.467  35.330  13.992
57219W        W27819  20.464  34.048  13.480
57220W        W27820  42.498   6.446   0.066
57221W        W27821  17.092  37.265  11.180
57222W        W27822  35.764   4.594   9.906
57223W        W27823  31.938  31.143  14.372
57224W        W27824  33.500   9.029  13.318
57225W        W27825  43.695  31.392   1.522
57226W        W27826   2.894   3.213  14.246
57227W        W27827  25.125  20.030   4.494
57228W        W27828  30.052  14.334   1.335
57229W        W27829  42.134   7.624   4.797
57230W        W27830   0.859  39.395  12.844
57231W        W27831  28.530  43.818  12.467
57232W        W27832  41.803  41.242   0.414
57233W        W27833  42.201  32.292   4.051
57234W        W27834  35.365  13.082   1.372
57235W        W27835  43.004  16.329   0.208
57236W        W27836  40.798  12.677   0.738
57237W        W27837  37.614  12.757  13.282
57238W        W27838   3.832  15.672   4.180
57239W        W27839  30.069  27.736  12.659
57240W        W27840  39.987  23.748   3.384
57241W        W27841  40.070  25.125  14.906
57242W        W27842  36.758  39.429  14.914
57243W        W27843  17.882   4.881  13.376
57244W        W27844  35.338  19.483  13.564
57245W        W27845  25.939  25.211  14.622
57246W        W27846  34.774   6.065  11.939
57247W        W27847  44.349  22.674  10.375
57248W        W27848  38.567   2.703   4.126
57249W        W27849  23.938  20.038   2.211
57250W        W27850  20.074  30.351   3.405
57251W        W27851  33.189   4.871   2.795
57252W        W27852   2.880  13.334   0.703
57253W        W27853  12.313  30.365  12.130
57254W        W27854  11.808  44.795  14.030
57255W        W27855  16.212  33.389  13.332
57256W        W27856  17.023   1.107  11.087
57257W        W27857  38.399  18.563   1.381
57258W        W27858  26.419  15.792  13.321
57259W        W27859  30.510  27.081  12.743
57260W        W27860  38.975  34.556  14.805
57261W        W27861  28.003  23.451  11.093
57262W        W27862   9.232   1.180  13.885
57263W        W27863   5.506   2.207  11.134
57264W        W27864  34.923   6.951   1.800
57265W        W27865  11.383  26.706   3.978
57266W        W27866   4.874  42.094   0.831
57267W        W27867  21.674   1.235  14.783
57268W        W27868  38.504   5.342  14.806
57269W        W27869   1.575  40.526  11.585
57270W        W27870  39.417  22.367  14.600
57271W        W27871  29.811  27.394   3.724
57272W        W27872  40.315  23.218  12.466
57273W        W27873   8.149  38.990   3.201
57274W        W27874  41.077  30.510  11.647
57275W        W27875  34.481  20.600  13.813
57276W        W27876   1.399   3.718  12.100
57277W        W27877  20.638  31.911  12.091
57278W        W27878  44.616  43.668   0.831
57279W        W27879  15.137  35.386  13.451
57280W        W27880  21.414   3.163  14.266
57281W        W27881   5.303  12.171  13.556
57282W        W27882  10.687  11.316  14.805
57283W        W27883   7.637  26.131  11.940
57284W        W27884  24.267  20.569  14.537
57285W        W27885  35.499  13.932  13.846
57286W        W27886  41.288  28.614   2.506
57287W        W27887  34.337  16.995  13.942
57288W        W27888  23.719  35.937  13.809
57289W        W27889   6.156  10.770  11.048
57290W        W27890  33.648  28.237   1.502
57291W        W27891   5.119  12.821   3.358
57292W        W27892  34.482  29.818   2.797
57293W        W27893   4.450  26.183  13.547
57294W        W27894  39.974   9.718   1.494
57295W        W27895  17.380  44.236   0.848
57296W        W27896   6.365   9.501  14.626
57297W        W27897  30.286  40.269  13.903
57298W        W27898  30.542  22.562   2.449
57299W        W27899  15.345  30.686   0.346
57300W        W27900  11.442  17.241  12.018
57301W        W27901  19.837  16.069   0.120
57302W        W27902   4.258   5.418   0.651
57303W        W27903  25.816  37.735   3.716
57304W        W27904  15.890  18.912  12.401
57305W        W27905  21.975  11.707   4.549
57306W        W27906  18.798  21.959  13.095
57307W        W27907  39.932  44.297   2.398
57308W        W27908  23.453  10.242  13.266
57309W        W27909  30.415   6.546   0.411
57310W        W27910  22.679  13.916   2.194
57311W        W27911  26.492  40.573  10.849
57312W        W27912  37.893   3.764  13.883
57313W        W27913  22.214  26.581  14.455
57314W        W27914  28.879  38.009  11.529
57315W        W27915  40.563   9.647  14.391
57316W        W27916  35.471  15.830   3.342
57317W        W27917  39.543  22.544   1.738
57318W        W27918  26.073   6.404  14.235
57319W        W27919  21.273  29.020   0.725
57320W        W27920  14.294  37.911   4.044
57321W        W27921  29.250  39.034  11.552
57322W        W27922  35.587  41.875   1.227
57323W        W27923  16.015  31.335  13.519
57324W        W27924  19.089  28.740   1.217
57325W        W27925   1.471  33.850   1.803
57326W        W27926  20.595  31.502   3.155
57327W        W27927   4.960  27.959  11.165
57328W        W27928  28.999  18.856  10.810
57329W        W27929  43.410   4.940  13.789
57330W        W27930  41.204  20.294   5.260
57331W        W27931  21.205  43.182  12.893
57332W        W27932   7.306  35.681  13.080
57333W        W27933   4.727   5.893   5.029
57334W        W27934  14.320  34.032   1.757
57335W        W27935  28.927  43.254  12.601
57336W        W27936   2.843  40.017   1.045
57337W        W27937  16.649  25.575  14.372
57338W        W27938  19.796  37.797   4.135
57339W        W27939  18.214  17.863   1.335
57340W        W27940  26.132  14.843   3.756
57341W        W27941   8.774   4.664   3.965
57342W        W27942  21.294  27.942   2.726
57343W        W27943  34.967  36.905   4.564
57344W        W27944  18.525  15.749   4.277
57345W        W27945  31.679  21.500   3.470
57346W        W27946  10.826   8.441   4.768
57347W        W27947   0.810  17.262  13.708
57348W        W27948  40.793  12.270   1.614
57349W        W27949   5.863  33.403  14.706
57350W        W27950  12.774  25.536   5.100
57351W        W27951   2.322  34.936   3.620
57352W        W27952  29.984  10.874  10.670
57353W        W27953  15.270  32.548   3.162
57354W        W27954  42.622  31.085   4.541
57355W        W27955  25.108  19.510   2.659
57356W        W27956  37.976  35.414   0.444
57357W        W27957  28.896   9.836   1.916
57358W        W27958   6.438  12.805   0.967
57359W        W27959  30.544   2.776   3.950
57360W        W27960  31.145  39.224  12.516
57361W        W27961   1.424  34.302  12.977
57362W        W27962  27.329  14.085   2.032
57363W        W27963  30.113   6.599  14.044
57364W        W27964   7.364  22.280  13.436
57365W        W27965  17.179  22.058  13.537
57366W        W27966  10.721  27.127   0.876
57367W        W27967  34.440  34.046  12.621
57368W        W27968  31.909  30.897  10.402
57369W        W27969  43.481  18.557  13.982
57370W        W27970  15.371  21.306  13.843
57371W        W27971  40.693  13.926  10.352
57372W        W27972   9.148  31.514  12.873
57373W        W27973  27.156  18.043   1.866
57374W        W27974  19.033  22.139  11.560
57375W        W27975  15.676  40.410  13.692
57376W        W27976   0.062  40.327   1.807
57377W        W27977  20.530   8.401  12.291
57378W        W27978   0.730  38.124  11.644
57379W        W27979  19.845   5.859  11.036
57380W        W27980  21.002  40.949  10.930
57381W        W27981   8.908   4.864   3.008
57382W        W27982   0.891  43.486  13.074
57383W        W27983  41.156  18.060   4.868
57384W        W27984  20.115  31.165  14.532
57385W        W27985  12.184  29.497   0.829
57386W        W27986  38.917   9.851  13.879
57387W        W27987  40.792   3.959  14.528
57388W        W27988   9.637  11.661  14.464
57389W        W27989  41.967  41.720   0.347
57390W        W27990   9.176  16.192  14.239
57391W        W27991  25.640  35.466  12.376
57392W        W27992   9.648  21.050   3.677
57393W        W27993  21.531  22.601  13.872
57394W        W27994  18.027  15.716  13.684
57395W        W27995  28.192  11.874   0.920
57396W        W27996  25.626   7.930   3.677
57397W        W27997  15.288  13.627   3.566
57398W        W27998  23.220  16.069   1.530
57399W        W27999  30.068   9.780   3.917
57400W        W28000   0.951  14.905   2.725
57401W        W28001  10.387  25.506   4.621
57402W        W28002   3.329  17.528   3.623
57403W        W28003  21.988  27.168  11.567
57404W        W28004  37.424   9.287  11.623
57405W        W28005  28.712  44.772   2.066
57406W        W28006   9.413  29.008   2.153
57407W        W28007  27.447  17.125   2.418
57408W        W28008  42.850  16.262   1.304
57409W        W28009  21.568  36.073   3.311
57410W        W28010  27.592  38.021  14.417
57411W        W28011   4.509  15.283   3.613
57412W        W28012   2.332  42.457   1.862
57413W        W28013   2.114  14.107  14.793
57414W        W28014  43.723  38.071  12.612
57415W        W28015  25.001  37.984   3.664
57416W        W28016  29.890  29.542   2.309
57417W        W28017  42.226   9.350   3.963
57418W        W28018  15.869   6.534  10.116
57419W        W28019   5.109  26.518  10.445
57420W        W28020   0.742   6.415  14.716
57421W        W28021   9.575  18.739   2.438
57422W        W28022  21.079  29.656   4.829
57423W        W28023   4.933   9.907  12.329
57424W        W28024  36.932   3.651   2.326
57425W        W28025   7.132  30.581  12.023
57426W        W28026   8.122  25.084  14.995
57427W        W28027  37.064  38.846  11.216
57428W        W28028  42.298  42.504   2.221
57429W        W28029  44.724  24.014   1.469
57430W        W28030  41.583  42.831  12.886
57431W        W28031   0.428  37.607  13.435
57432W        W28032  17.128  27.541   3.146
57433W        W28033  30.073   7.285  11.017
57434W        W28034  42.392   4.475  14.769
57435W        W28035  17.227  11.259  14.473
57436W        W28036  24.170   7.145  13.794
57437W        W28037   9.578   1.297  11.787
57438W        W28038  30.795  11.539  10.919
57439W        W28039  27.569  36.646  12.929
57440W        W28040  34.085   0.285   4.239
57441W        W28041  38.324  28.045  10.535
57442W        W28042  25.593   3.753   0.529
57443W        W28043  39.422   8.086  11.036
57444W        W28044  34.183  41.961  14.437
57445W        W28045   2.726  24.353   3.303
57446W        W28046   0.958   1.477   2.808
57447W        W28047  42.058  40.276   2.345
57448W        W28048  24.718  36.505   4.630
57449W        W28049  10.695  29.552   2.427
57450W        W28050  35.509  28.710   0.950
57451W        W28051   9.103   3.873  10.638
57452W        W28052  23.562  28.170   3.651
57453W        W28053  37.059  41.475   3.647
57454W        W28054  30.395  16.669   0.805
57455W        W28055  29.031   4.422   0.482
57456W        W28056   8.324  34.131   1.372
57457W        W28057  29.896  19.324   2.819
57458W        W28058  38.490  33.833  13.052
57459W        W28059  17.801  16.477   5.097
57460W        W28060  23.221  42.990   1.352
57461W        W28061  42.520  39.818  11.731
57462W        W28062  10.667  42.591   2.491
57463W        W28063   8.310  31.296   1.417
57464W        W28064   2.829  22.854  11.211
57465W        W28065  14.531  38.870  13.615
57466W        W28066  14.237  37.862   1.636
57467W        W28067  25.853   4.258  13.871
57468W        W28068   6.824  11.039  14.096
57469W        W28069  33.346  14.893  12.929
57470W        W28070  42.362  37.368  11.577
57471W        W28071  36.515  20.173  14.368
57472W        W28072   6.923  26.278   0.242
57473W        W28073  27.012   0.946  13.363
57474W        W28074  33.795  28.939   3.714
57475W        W28075  40.210  28.493   3.344
57476W        W28076  16.705  32.584  10.246
57477W        W28077  15.380  38.483   4.720
57478W        W28078   5.534  37.994   0.907
57479W        W28079  17.554   4.800   3.763
57480W        W28080   3.201  23.608   3.339
57481W        W28081  12.631  39.553  12.389
57482W        W28082  34.363  41.784  14.887
57483W        W28083  38.231  32.120   5.195
57484W        W28084  42.170  15.579   3.787
57485W        W28085  17.575   2.448  13.427
57486W        W28086  16.962  21.604  11.133
57487W        W28087  28.151   6.337   4.201
57488W        W28088  24.997   2.323  11.132
57489W        W28089   9.418  14.305   2.296
57490W        W28090  33.038  31.049   0.721
57491W        W28091  35.645  25.266  13.547
57492W        W28092  21.056  20.212   4.635
57493W        W28093  36.731  33.653  12.035
57494W        W28094  21.877  30.036   1.325
57495W        W28095  40.219  26.553  12.919
57496W        W28096  18.954   3.200   4.200
57497W        W28097  41.802  43.312   0.442
57498W        W28098  25.111   5.285   1.149
57499W        W28099  30.648   0.621  12.183
57500W        W28100  31.843  41.782  14.895
57501W        W28101  41.399  12.350   1.536
57502W        W28102   3.873  40.912   1.862
57503W        W28103  37.999  27.219   2.483
57504W        W28104  43.558  20.065   1.859
57505W        W28105  40.374  25.680  13.100
57506W        W28106  34.806  23.478   2.747
57507W        W28107   3.060  17.052  11.436
57508W        W28108   4.975   0.311   3.395
57509W        W28109  37.923  15.284   2.272
57510W        W28110  22.860  29.417  11.053
57511W        W28111  19.176   3.477   1.711
57512W        W28112  38.921  30.638  12.408
57513W        W28113  41.076  32.552   1.186
57514W        W28114  26.493  40.276   3.729
57515W        W28115  20.474   4.844  12.680
57516W        W28116   7.685   4.297   4.463
57517W        W28117  20.150   6.244   0.863
57518W        W28118  39.754  17.850  10.633
57519W        W28119  44.057  40.301  14.363
57520W        W28120  12.995  29.635   4.058
57521W        W28121   2.990  17.416  11.796
57522W        W28122  40.814  17.674   5.073
57523W        W28123  14.589  25.034   2.676
57524W        W28124  38.493  39.300   3.677
57525W        W28125  34.635  37.900  10.635
57526W        W28126  18.047  18.485  11.042
57527W        W28127  13.771  34.992   4.614
57528W        W28128  23.518  43.971  11.711
57529W        W28129  30.096  38.026  12.008
57530W        W28130  11.361  37.350  12.107
57531W        W28131  27.268  12.497  14.480
57532W        W28132  16.715  12.843  13.069
57533W        W28133  36.284  18.527  13.893
57534W        W28134  42.310  28.651   0.447
57535W        W28135  36.832   7.261   4.592
57536W        W28136  36.348  24.133  11.180
57537W        W28137  13.426  13.175   3.941
57538W        W28138  28.497  31.701   1.364
57539W        W28139  43.409  22.897   0.801
57540W        W28140  11.814   6.612   3.798
57541W        W28141  15.807  32.700   1.920
57542W        W28142  24.728  21.680  13.868
57543W        W28143  37.390  23.958   4.621
57544W        W28144   6.962   7.251   2.414
57545W        W28145  23.994  30.803   4.787
57546W        W28146  12.388   3.496   2.169
57547W        W28147  18.712  21.052  12.837
57548W        W28148  16.830  11.264  11.645
57549W        W28149  42.948  32.356  13.875
57550W        W28150  33.714  36.418  13.525
57551W        W28151  36.954  16.334   4.477
57552W        W28152  28.093   1.093   4.088
57553W        W28153  20.711  26.899  10.033
57554W        W28154   2.499  21.524  10.748
57555W        W28155  12.679  37.376  13.352
57556W        W28156  22.603   6.412   3.488
57557W        W28157  25.136  42.622  12.429
57558W        W28158  34.921  31.590  10.770
57559W        W28159   9.156  26.641   1.637
57560W        W28160   4.670  27.240  13.305
57561W        W28161   9.883  10.305   1.897
57562W        W28162   7.432  34.049   3.504
57563W        W28163  13.558  25.469  13.959
57564W        W28164   0.882   7.291   2.934
57565W        W28165   8.794   4.160  13.455
57566W        W28166  20.609  15.754   3.959
57567W        W28167  28.180  13.550   4.598
57568W        W28168  44.343  18.955  13.836
57569W        W28169   7.845  23.684  13.806
57570W        W28170  25.037   2.306  13.426
57571W        W28171  18.101  15.347   3.308
57572W        W28172  31.006  11.230  12.886
57573W        W28173  10.884  17.601   3.199
57574W        W28174  34.062  19.751   0.989
57575W        W28175  27.548  19.792   0.736
57576W        W28176  40.598   9.208  13.144
57577W        W28177   8.847   1.394   3.387
57578W        W28178  32.562  11.905  14.920
57579W        W28179   6.668  44.408   2.384
57580W        W28180  25.577  25.947   1.257
57581W        W28181  27.055   7.101  12.051
57582W        W28182  39.468   0.550   4.495
57583W        W28183  36.049  13.981  11.563
57584W        W28184  35.595  34.899  14.936
57585W        W28185   7.132  27.001  11.174
57586W        W28186  15.482  10.776  14.770
57587W        W28187  41.029  37.077   2.408
57588W        W28188  44.428  18.250   0.759
57589W        W28189  44.559   1.120   2.817
57590W        W28190  35.590   6.465  12.425
57591W        W28191  17.353  34.792   2.728
57592W        W28192  25.212  15.354   2.846
57593W        W28193   5.883  19.191   1.642
57594W        W28194   4.348   3.308  10.609
57595W        W28195  23.204  26.979   1.181
57596W        W28196  28.368  18.176   3.738
57597W        W28197   7.916  26.792  11.484
57598W        W28198  38.809  28.260   1.251
57599W        W28199   3.247  28.412   4.873
57600W        W28200   8.611  21.139   3.720
57601W        W28201  24.943  20.185   2.284
57602W        W28202  33.394  42.660   2.344
57603W        W28203  12.840  36.272  11.764
57604W        W28204   2.199  14.443  11.935
57605W        W28205  20.498  13.998   3.148
57606W        W28206  38.490  40.635   4.309
57607W        W28207  30.979  38.363   0.943
57608W        W28208  38.073  21.674   2.271
57609W        W28209  41.596  23.339  10.045
57610W        W28210  10.789  13.275  11.929
57611W        W28211  39.743  29.132  14.595
57612W        W28212  35.340   9.997  11.632
57613W        W28213  15.645  20.259  14.440
57614W        W28214   0.706  32.023   0.963
57615W        W28215  19.636  14.664   4.119
57616W        W28216   5.384  14.281  12.047
57617W        W28217  29.670  31.704  13.023
57618W        W28218   6.618  19.632   5.323
57619W        W28219  17.583  34.919   0.342
57620W        W28220  38.357  44.906  13.424
57621W        W28221  25.106   7.650   2.201
57622W        W28222   2.542  44.515  14.661
57623W        W28223  10.105  41.730   3.293
57624W        W28224  35.958  29.991  12.899
57625W        W28225   7.003   5.945  12.980
57626W        W28226   7.143  28.661   0.253
57627W        W28227   6.148   9.891   4.147
57628W        W28228  28.646  31.081   0.302
57629W        W28229  26.014  11.838   3.251
57630W        W28230  44.114  14.238  13.936
57631W        W28231  40.921  39.311   4.481
57632W        W28232  36.278   5.629  14.894
57633W        W28233  44.861  34.115  12.434
57634W        W28234  10.285   6.890   1.887
57635W        W28235  42.900  41.821  13.849
57636W        W28236  43.722   6.044   3.321
57637W        W28237   3.361  36.044   2.365
57638W        W28238   3.267  36.405  13.367
57639W        W28239  19.102  14.669  12.536
57640W        W28240  44.323  44.508   4.210
57641W        W28241  26.085  23.484  14.028
57642W        W28242  31.925  29.915  10.676
57643W        W28243  18.305  26.726   2.685
57644W        W28244   4.355  36.529   0.898
57645W        W28245  13.343  39.078  14.366
57646W        W28246  42.538  37.146  10.515
57647W        W28247   4.573  10.120  14.458
57648W        W28248   2.856  36.088  14.165
57649W        W28249  35.824   3.800  13.949
57650W        W28250  28.745  39.527  12.604
57651W        W28251   2.238  44.138   4.116
57652W        W28252   9.732   4.413  11.529
57653W        W28253  28.453  40.847  10.416
57654W        W28254  29.467  36.880   1.009
57655W        W28255  32.051  22.145  10.635
57656W        W28256  15.621  14.002  12.475
57657W        W28257  25.817   1.279   1.918
57658W        W28258  11.992  25.993  11.873
57659W        W28259  31.105   4.937   3.744
57660W        W28260  35.456  25.890   0.219
57661W        W28261   2.837   5.672  13.965
57662W        W28262  35.547  21.077   1.782
57663W        W28263  40.252  15.490  14.735
57664W        W28264  14.300  41.724  12.925
57665W        W28265  14.324  33.201   2.742
57666W        W28266  14.092  31.072  12.881
57667W        W28267  11.357  23.691  14.701
57668W        W28268  42.348   8.707   0.698
57669W        W28269   8.200  42.446   2.263
57670W        W28270   7.737   9.248   1.991
57671W        W28271  27.513  25.073   1.223
57672W        W28272  24.768   7.341  12.820
57673W        W28273  28.669  40.538   0.975
57674W        W28274  11.147  12.280   3.245
57675W        W28275   0.957  13.377  14.614
57676W        W28276   9.804  20.194   3.275
57677W        W28277  32.591  26.623  10.502
57678W        W28278   7.434  23.281  13.629
57679W        W28279   0.298   8.334  13.950
57680W        W28280  44.276  16.762   0.180
57681W        W28281  43.311   2.363  11.355
57682W        W28282   3.049  24.024   2.797
57683W        W28283  23.179  43.623  10.975
57684W        W28284  27.652  12.858  14.427
57685W        W28285  39.049  31.515   1.302
57686W        W28286  37.413  40.889   2.931
57687W        W28287  44.689   6.198   1.320
57688W        W28288  39.272  25.085  11.258
57689W        W28289  12.393  30.546   0.224
57690W        W28290   1.702  35.953  13.141
57691W        W28291  17.404  18.500   4.882
57692W        W28292  44.542   2.391  11.972
57693W        W28293  20.900  32.386   2.067
57694W        W28294  26.646   9.589  13.847
57695W        W28295   7.699  10.215  12.135
57696W        W28296  12.890   0.968  10.628
57697W        W28297  26.999  13.027   0.976
57698W        W28298   5.307  39.323  11.556
57699W        W28299  20.316  25.365  11.136
57700W        W28300  20.981  35.793  14.093
57701W        W28301  28.242  33.929  11.906
57702W        W28302  29.955  33.359   1.687
57703W        W28303  30.811   1.716   3.342
57704W        W28304   5.109  30.417  11.606
57705W        W28305  34.379  14.323   4.682
57706W        W28306   9.697  24.062  12.772
57707W        W28307   1.296   0.902  13.753
57708W        W28308   0.953  44.957   4.204
57709W        W28309  29.172  14.112  12.238
57710W        W28310   0.050  28.073   2.188
57711W        W28311   3.303  36.286   1.149
57712W        W28312   2.412   9.710   2.091
57713W        W28313  26.542  30.879   1.000
57714W        W28314  30.147   3.400   3.819
57715W        W28315   3.173   9.317  13.639
57716W        W28316   5.511  17.418   4.541
57717W        W28317  38.656   4.418  14.699
57718W        W28318   0.605  44.162  13.479
57719W        W28319  13.112  40.392   0.787
57720W        W28320   3.385  15.821  11.560
57721W        W28321   8.872  39.518  14.984
57722W        W28322  11.774  18.012  13.017
57723W        W28323  34.085  13.107   0.148
57724W        W28324  17.070  30.194  10.362
57725W        W28325  17.339  42.027  13.076
57726W        W28326  18.629   7.812  12.046
57727W        W28327   3.911  32.509   0.317
57728W        W28328  29.008  21.189   4.899
57729W        W28329   9.232   8.273   3.995
57730W        W28330  28.942  10.752   2.740
57731W        W28331  44.782  31.530   0.844
57732W        W28332  20.961  11.834  11.725
57733W        W28333  27.517   4.243  14.281
57734W        W28334   3.022  33.370   3.149
57735W        W28335  17.272   1.818   1.046
57736W        W28336  24.624  24.542   3.589
57737W        W28337  33.340  23.588   0.003
57738W        W28338  15.022  39.174   2.228
57739W        W28339   5.709  30.072   0.787
57740W        W28340  30.543  40.965  14.838
57741W        W28341  23.428  23.232  12.974
57742W        W28342  15.439  31.534  10.247
57743W        W28343   1.878  21.276   5.082
57744W        W28344  12.885  38.038   2.119
57745W        W28345  27.942  10.288   1.902
57746W        W28346  18.751   3.938  14.427
57747W        W28347  22.479  36.884  12.410
57748W        W28348   0.831  41.022   1.263
57749W        W28349  10.048  16.701   2.698
57750W        W28350  14.849  14.111  12.889
57751W        W28351  12.677  12.731  13.533
57752W        W28352  14.444  35.817   2.349
57753W        W28353  44.674  25.338   3.293
57754W        W28354   6.414  43.091  11.651
57755W        W28355  17.445  39.095   5.125
57756W        W28356  14.190   9.438  10.805
57757W        W28357  25.080  32.847   0.409
57758W        W28358  12.207  14.731  12.048
57759W        W28359   4.382  32.087  10.717
57760W        W28360  34.182  31.050   3.756
57761W        W28361  37.378  21.107  14.382
57762W        W28362   1.730  23.140  13.124
57763W        W28363  36.079  39.370   0.145
57764W        W28364  26.761  25.634   5.035
57765W        W28365  33.437  29.641   3.299
57766W        W28366  44.735  13.932   4.282
57767W        W28367   6.768  35.331  11.140
57768W        W28368   2.209  12.146  11.608
57769W        W28369  16.721  32.632  14.982
57770W        W28370  29.627  36.131   4.067
57771W        W28371  22.688  25.039  10.527
57772W        W28372  38.330   5.833  14.742
57773W        W28373  32.032  26.670  10.485
57774W        W28374  35.291  24.182   1.459
57775W        W28375   8.817  37.322  12.636
57776W        W28376  11.125  44.445  11.158
57777W        W28377  21.571  44.563   3.190
57778W        W28378  37.209  34.459   0.528
57779W        W28379  12.964  13.684  10.123
57780W        W28380  11.205   8.349   0.708
57781W        W28381   8.221   7.538   3.887
57782W        W28382   8.569  33.400  14.288
57783W        W28383  14.628   2.785  12.654
57784W        W28384  17.705  21.986  13.423
57785W        W28385   8.067  23.834   3.307
57786W        W28386  37.884  30.546  10.380
57787W        W28387  21.673  37.164   4.487
57788W        W28388  17.150   5.790   4.533
57789W        W28389   8.772  13.731   0.914
57790W        W28390  17.752  42.898  12.146
57791W        W28391  11.116  17.077   3.120
57792W        W28392  43.152  38.474   1.559
57793W        W28393  43.502  39.720   1.263
57794W        W28394  29.915  30.076  14.958
57795W        W28395  14.313  30.874  10.545
57796W        W28396  22.532  43.159  10.538
57797W        W28397  29.493  17.855   0.404
57798W        W28398  41.216  12.028   2.455
57799W        W28399  44.290   8.157  11.609
57800W        W28400  25.852  44.991  13.478
57801W        W28401  11.825  44.958  14.970
57802W        W28402  29.163   8.524  13.659
57803W        W28403  13.961  38.308   4.175
57804W        W28404  32.585  35.511  12.502
57805W        W28405  39.860  36.540  14.560
57806W        W28406  24.422  28.295   3.803
57807W        W28407  41.248  33.045   0.478
57808W        W28408   4.281  28.097  11.948
57809W        W28409  23.457  21.690  13.152
57810W        W28410  34.338  11.196  13.957
57811W        W28411  31.191  14.377  10.271
57812W        W28412  43.692  39.379   3.915
57813W        W28413  16.183  23.419   1.764
57814W        W28414  25.104  35.675   0.211
57815W        W28415  24.997  30.591   0.839
57816W        W28416  37.440  10.869   2.272
57817W        W28417   7.921  32.035   5.176
57818W        W28418  25.580  18.725   2.803
57819W        W28419  19.633  12.065   2.492
57820W        W28420  18.224  10.855   0.802
57821W        W28421   9.742  32.862  14.568
57822W        W28422  31.913  22.224   4.042
57823W        W28423   4.652   2.352  13.430
57824W        W28424  25.287   0.999   0.389
57825W        W28425   4.114  34.535  13.036
57826W        W28426  17.056  26.250   0.444
57827W        W28427  26.554  28.835  10.943
57828W        W28428  43.063   0.825  13.240
57829W        W28429  34.468  31.848  14.896
57830W        W28430  15.158  10.153  12.534
57831W        W28431  24.430  43.505   1.993
57832W        W28432  24.537  20.788   2.728
57833W        W28433  27.134  37.760   3.700
57834W        W28434  30.065  30.082  12.556
57835W        W28435  44.413   0.025   2.740
57836W        W28436  11.644  12.236  12.065
57837W        W28437  29.094  38.106   0.403
57838W        W28438  10.245  35.893  10.706
57839W        W28439  20.117  30.751  12.851
57840W        W28440   8.255  32.330   3.384
57841W        W28441   8.236  26.121  10.742
57842W        W28442  27.789  29.052   4.333
57843W        W28443  22.007  37.469  11.676
57844W        W28444   7.729  12.647   3.665
57845W        W28445  22.248  27.937  12.072
57846W        W28446  35.637  20.749  14.868
57847W        W28447  15.414   0.432   2.250
57848W        W28448   6.482  11.214  14.825
57849W        W28449   5.771  27.529   4.281
57850W        W28450  12.112   8.899   1.456
57851W        W28451  29.456  32.519   1.486
57852W        W28452  31.232  21.587  14.490
57853W        W28453  29.770  27.438  11.241
57854W        W28454  17.999  20.854   1.736
57855W        W28455  12.351  30.659  12.546
57856W        W28456  39.954  37.278   3.119
57857W        W28457  34.892  28.966  10.330
57858W        W28458   0.026  31.947   2.746
57859W        W28459  38.465  16.196   1.957
57860W        W28460  43.819  16.654   3.589
57861W        W28461  32.002  36.518   3.609
57862W        W28462   9.184  22.081  13.818
57863W        W28463   7.833  10.604  13.896
57864W        W28464   9.399  12.650   1.774
57865W        W28465  17.080  21.190  11.445
57866W        W28466  24.774  25.173   0.466
57867W        W28467  10.674  18.753  13.997
57868W        W28468  26.129  10.739   0.444
57869W        W28469   8.224  10.387   1.010
57870W        W28470  25.494  40.818  11.565
57871W        W28471  34.988  33.534   4.523
57872W        W28472  34.475  16.777   3.756
57873W        W28473  27.640  40.933   1.317
57874W        W28474  12.660  13.640  11.578
57875W        W28475  16.876   1.341  13.573
57876W        W28476  14.805  31.860   3.818
57877W        W28477   8.418  30.794  12.458
57878W        W28478  41.519  13.099  11.722
57879W        W28479  30.032  39.782   2.845
57880W        W28480   4.189  40.480   0.301
57881W        W28481  31.592  27.597  10.943
57882W        W28482   4.013  13.890   1.000
57883W        W28483  10.113  39.880  10.501
57884W        W28484  18.045   4.431  14.475
57885W        W28485  19.761  35.499  10.693
57886W        W28486  10.352   5.249  11.389
57887W        W28487  15.721  13.811  13.315
57888W        W28488   8.740  18.991   3.608
57889W        W28489  31.473   6.322  13.891
57890W        W28490   7.277   9.321  11.861
57891W        W28491   5.089   5.838  14.904
57892W        W28492  14.658  17.602  12.512
57893W        W28493   1.159  41.618  13.934
57894W        W28494   2.701  27.772   3.849
57895W        W28495  40.390  20.130   2.449
57896W        W28496  21.249   4.190   1.358
57897W        W28497  12.747   2.477  11.154
57898W        W28498   3.258  12.010  10.758
57899W        W28499  28.198  26.268  12.611
57900W        W28500  32.265  20.873   2.823
57901W        W28501  13.346  18.371   1.794
57902W        W28502  32.035  11.194   1.769
57903W        W28503  42.273  26.093   4.273
57904W        W28504  42.340   7.343  14.682
57905W        W28505  13.778  33.623  10.248
57906W        W28506   1.259  13.671   0.772
57907W        W28507  26.032  12.083  14.924
57908W        W28508  34.015  35.187   0.415
57909W        W28509  34.861  15.203  13.607
57910W        W28510  11.307  32.852   1.178
57911W        W28511  17.499   1.021  13.559
57912W        W28512  36.793  34.108   1.247
57913W        W28513  18.067  40.369  10.598
57914W        W28514  23.531  35.956  12.911
57915W        W28515  42.817  21.018  12.324
57916W        W28516  36.352  23.496  11.905
57917W        W28517  38.531   8.721   3.687
57918W        W28518  17.214  43.968   2.291
57919W        W28519  10.709  22.384   4.109
57920W        W28520  41.358  23.652   2.514
57921W        W28521   3.271  42.276   1.421
57922W        W28522  21.596  40.783  13.378
57923W        W28523  43.375  43.920  10.872
57924W        W28524  26.721  27.933   3.277
57925W        W28525  43.558  25.481  13.520
57926W        W28526  44.967   6.097  14.297
57927W        W28527  39.051  36.053  12.002
57928W        W28528  23.917  41.916  12.577
57929W        W28529   8.966  15.676  12.944
57930W        W28530  31.364   8.828  12.835
57931W        W28531   5.793   6.316  12.149
57932W        W28532  43.886   3.911   0.348
57933W        W28533  24.974  36.508  13.898
57934W        W28534   2.842  18.542  11.251
57935W        W28535   0.274   6.361   3.689
57936W        W28536   0.394   1.207  13.528
57937W        W28537  35.942  36.410  10.919
57938W        W28538   6.351  33.703  10.397
57939W        W28539   0.456   2.692  11.176
57940W        W28540  24.575   3.960   0.448
57941W        W28541  14.276  42.381   1.185
57942W        W28542  34.913  14.325  13.553
57943W        W28543  14.915   4.743   2.373
57944W        W28544  33.762  41.031   4.563
57945W        W28545  19.201   6.758   0.857
57946W        W28546  19.177  27.906  11.574
57947W        W28547  28.991  11.156  13.667
57948W        W28548  39.744  43.970   4.144
57949W        W28549  11.140  21.237   2.641
57950W        W28550  42.818  41.522  11.159
57951W        W28551  17.685  11.973   1.424
57952W        W28552  19.264  11.519   0.013
57953W        W28553  34.608  27.760  12.993
57954W        W28554  27.172  23.665   3.100
57955W        W28555  44.436  35.044   1.197
57956W        W28556   1.854  10.023   4.710
57957W        W28557   0.741  43.361   1.409
57958W        W28558  12.653  15.261  12.470
57959W        W28559  24.177  24.398  12.917
57960W        W28560  16.752  40.904   2.551
57961W        W28561  24.050  19.252   1.262
57962W        W28562  42.874  19.648  11.901
57963W        W28563  28.202  24.654  14.809
57964W        W28564  22.133  41.522   4.321
57965W        W28565  40.011  14.843   0.312
57966W        W28566  25.600  37.522  11.193
57967W        W28567  29.593  29.001   0.420
57968W        W28568  10.509   1.421   1.689
57969W        W28569  11.314   2.285   3.817
57970W        W28570  13.156  10.267   0.926
57971W        W28571  33.978  23.441   4.154
57972W        W28572  26.565  13.754  14.339
57973W        W28573  37.114   8.230  13.090
57974W        W28574  27.809  28.001   4.548
57975W        W28575   9.958  10.210  12.207
57976W        W28576  27.479  18.772   0.723
57977W        W28577  31.944   0.797   2.646
57978W        W28578  21.115  23.826  12.859
57979W        W28579  11.212  39.208  10.276
57980W        W28580  22.396  43.695   4.523
57981W        W28581  17.795   2.697   2.232
57982W        W28582  35.499  34.023  12.080
57983W        W28583  31.168   5.194  13.317
57984W        W28584  17.352   6.773   0.244
57985W        W28585  15.593  40.977   0.376
57986W        W28586  32.763  27.111   4.922
57987W        W28587  29.057  39.799   3.276
57988W        W28588  34.038  35.809   4.887
57989W        W28589  21.459  34.493  11.332
57990W        W28590  18.019   6.255   1.409
57991W        W28591  26.038  41.530   1.713
57992W        W28592   2.641  26.090   3.743
57993W        W28593  10.413   3.187   3.139
57994W        W28594  29.891  38.236  11.553
57995W        W28595  31.359  22.559   3.954
57996W        W28596  11.808  19.687   4.107
57997W        W28597  41.463  28.498  14.752
57998W        W28598  27.898   3.366   3.148
57999W        W28599  29.298  19.961   0.289
58000W        W28600  12.215  33.498   3.588
58001W        W28601  25.186  33.551  14.367
58002W        W28602  34.052  44.838  12.550
58003W        W28603   3.313   7.147  10.930
58004W        W28604  42.474  42.582   3.185
58005W        W28605  33.326  42.352   2.753
58006W        W28606   0.378  37.101  13.535
58007W        W28607  33.185  39.994   3.638
58008W        W28608  13.764   3.955  11.101
58009W        W28609  30.611   3.180   3.639
58010W        W28610  14.616  30.157   3.227
58011W        W28611  11.757  41.863   3.779
58012W        W28612   9.747  20.578   0.677
58013W        W28613  23.372   1.140   4.946
58014W        W28614  40.244  13.877  10.638
58015W        W28615  30.935  17.332   4.707
58016W        W28616  19.627  15.829  12.079
58017W        W28617  16.801  24.353   0.484
58018W        W28618  29.519   8.563   1.786
58019W        W28619  41.950  32.428   4.969
58020W        W28620  30.191  37.222  11.416
58021W        W28621  31.481   6.988   0.674
58022W        W28622  32.498  30.001  14.840
58023W        W28623  18.050  11.692   3.608
58024W        W28624  30.042  30.092   3.904
58025W        W28625  30.384  44.721   3.327
58026W        W28626  28.554   7.493  11.377
58027W        W28627   4.507  20.366  14.891
58028W        W28628  15.968   7.266  14.675
58029W        W28629   7.536  13.759   4.622
58030W        W28630   2.385  24.912   4.579
58031W        W28631  29.019  14.630   0.457
58032W        W28632  19.472   6.690   3.766
58033W        W28633  10.903  41.807   4.111
58034W        W28634  17.053   6.671   3.655
58035W        W28635   9.209  41.012  12.037
58036W        W28636  19.070  37.345  11.155
58037W        W28637   5.233   7.942  13.835
58038W        W28638   0.240  32.077  11.631
58039W        W28639  39.015  10.381   2.297
58040W        W28640  19.787  39.100   4.594
58041W        W28641  26.570  38.758   4.650
58042W        W28642  38.852  13.602   1.665
58043W        W28643  19.492  31.202  13.642
58044W        W28644  28.453  42.992  12.830
58045W        W28645   7.622  25.598  12.039
58046W        W28646  33.962  42.948   3.148
58047W        W28647  39.485  32.569  14.445
58048W        W28648   4.444  14.889  10.590
58049W        W28649   6.647  15.283   1.669
58050W        W28650   8.358  36.447   0.656
58051W        W28651  21.058  17.184   5.082
58052W        W28652  24.132  18.033   0.672
58053W        W28653  20.779  29.009  13.851
58054W        W28654  34.662   7.318   3.291
58055W        W28655  22.588  25.186  11.020
58056W        W28656  41.530   3.216   0.151
58057W        W28657  35.545  34.541  12.110
58058W        W28658  42.359  19.883  14.895
58059W        W28659   0.181  34.880   0.014
58060W        W28660   3.443  40.293  10.764
58061W        W28661  18.558  24.766   2.870
58062W        W28662   9.462  31.138  14.231
58063W        W28663   3.528  27.094   1.223
58064W        W28664   2.701  39.316   4.296
58065W        W28665  12.015  27.106   2.878
58066W        W28666  28.605  21.280   1.775
58067W        W28667  29.031  31.764   1.668
58068W        W28668  29.911  36.300  14.788
58069W        W28669  40.904  17.090  14.001
58070W        W28670  39.754   0.217   0.847
58071W        W28671  25.359  33.602   1.534
58072W        W28672  27.567  14.896  13.024
58073W        W28673  36.804  14.117   4.828
58074W        W28674  38.269  26.425  12.490
58075W        W28675  30.410  42.479  10.292
58076W        W28676  44.641  37.084  12.794
58077W        W28677   3.505  13.260  11.578
58078W        W28678   3.483  40.425  11.288
58079W        W28679  18.310  33.301  14.221
58080W        W28680   6.399  21.332   0.837
58081W        W28681  20.919   3.145  11.144
58082W        W28682  44.723  33.638  12.561
58083W        W28683   2.534  37.607   2.751
58084W        W28684  14.409   9.220   1.652
58085W        W28685  30.615  42.048   4.663
58086W        W28686  38.639  16.099   0.388
58087W        W28687  40.504  32.862   1.786
58088W        W28688  13.202  16.657   4.654
58089W        W28689  20.000   4.893   1.728
58090W        W28690  37.405  36.342   0.793
58091W        W28691  13.597   7.650  13.525
58092W        W28692  33.516   2.828  11.568
58093W        W28693   2.497  25.442   2.887
58094W        W28694  17.458  16.920   1.039
58095W        W28695   2.744   6.663  13.154
58096W        W28696  42.493  42.406  12.696
58097W        W28697  22.397  32.971  13.506
58098W        W28698  28.774  19.964  13.535
58099W        W28699  19.260   8.048   2.451
58100W        W28700  10.753  18.594  13.156
58101W        W28701  19.141  12.333  13.959
58102W        W28702  41.003  19.411   1.214
58103W        W28703  35.026  26.025   2.268
58104W        W28704  10.834  37.513  12.959
58105W        W28705  11.747  32.977  13.483
58106W        W28706  30.875  22.781  14.880
58107W        W28707  23.218  22.639  13.423
58108W        W28708  29.938   4.033   2.443
58109W        W28709  15.953  21.677  11.209
58110W        W28710  22.184   9.746   3.313
58111W        W28711  44.827  17.509   2.315
58112W        W28712  38.983   8.418   1.899
58113W        W28713  10.262   1.963   2.485
58114W        W28714  21.692  23.135  13.714
58115W        W28715  22.639   3.416   1.199
58116W        W28716  14.354   5.868   1.358
58117W        W28717  13.854  11.823  14.306
58118W        W28718  30.733  29.310  11.152
58119W        W28719  12.826  27.490   2.789
58120W        W28720  27.137  34.091   0.798
58121W        W28721  29.038  13.267   0.519
58122W        W28722  34.346  30.216  13.794
58123W        W28723  14.581  42.884  12.447
58124W        W28724  31.443  35.192  14.854
58125W        W28725  18.758  28.128   3.569
58126W        W28726  24.782   5.398  14.428
58127W        W28727  13.147  22.377  14.393
58128W        W28728  35.609  11.125   0.438
58129W        W28729   0.587  44.479   5.015
58130W        W28730  20.743  38.460   0.463
58131W        W28731  21.086  25.025  10.576
58132W        W28732  11.480   3.344  14.547
58133W        W28733   0.822   7.408   0.141
58134W        W28734  21.067  39.207   1.441
58135W        W28735  24.591  22.181  13.901
58136W        W28736   7.281  33.327  12.616
58137W        W28737  36.138  17.277  14.435
58138W        W28738  18.165  29.201  12.607
58139W        W28739  30.708   3.376  12.045
58140W        W28740  32.920  18.089   2.886
58141W        W28741  34.365  43.335  14.381
58142W        W28742  14.857  12.285   9.734
58143W        W28743  25.171  15.812   1.378
58144W        W28744  16.709   9.191  11.165
58145W        W28745   5.248  30.457  13.492
58146W        W28746  43.276   8.202   4.127
58147W        W28747  20.239  34.890   0.805
58148W        W28748  42.293  28.086  13.181
58149W        W28749  16.486  34.488  11.102
58150W        W28750   1.014  30.618   0.263
58151W        W28751   8.958  41.063   4.872
58152W        W28752  13.367   4.406   1.844
58153W        W28753  16.139  32.115  12.976
58154W        W28754  18.937  17.602   3.349
58155W        W28755  15.658  15.642  10.724
58156W        W28756  25.692  33.078  12.343
58157W        W28757  20.019   7.295   1.799
58158W        W28758   2.465  42.497   0.329
58159W        W28759  26.157   7.361  12.838
58160W        W28760  39.109  40.035   4.161
58161W        W28761  42.050  23.181  12.900
58162W        W28762  14.622  35.889   0.063
58163W        W28763  43.574   7.326   2.452
58164W        W28764  38.034  16.230   2.273
58165W        W28765  41.027  35.322  13.459
58166W        W28766   6.948  20.317   4.260
58167W        W28767   0.777  40.894  13.324
58168W        W28768   4.999  37.155   0.426
58169W        W28769  30.929  37.975   3.690
58170W        W28770   7.782   7.126  13.035
58171W        W28771  28.087  36.344   4.195
58172W        W28772  11.373  22.661  13.625
58173W        W28773   4.243  24.931   0.278
58174W        W28774   9.842   6.795  11.104
58175W        W28775   1.446  27.949  12.018
58176W        W28776   7.962   3.198  11.828
58177W        W28777  24.416  12.285   4.133
58178W        W28778  33.005   7.729  13.432
58179W        W28779  19.513  12.228  14.336
58180W        W28780  38.717  24.696  10.883
58181W        W28781  36.365  14.539  13.776
58182W        W28782  10.876  15.859   1.817
58183W        W28783  13.465  37.165   5.093
58184W        W28784   6.196  11.071   1.191
58185W        W28785   0.353  31.595   1.423
58186W        W28786  27.772   5.918   3.782
58187W        W28787  14.862  23.984  11.772
58188W        W28788  26.866  20.293  14.364
58189W        W28789  20.198  29.351   0.336
58190W        W28790  30.351   3.751   2.359
58191W        W28791  41.990  23.715  12.983
58192W        W28792   7.914  31.563  12.458
58193W        W28793  16.847   1.310  13.018
58194W        W28794  31.179   4.267  10.668
58195W        W28795   6.388   9.906  13.298
58196W        W28796  27.854   2.653   3.275
58197W        W28797  33.366   3.261   4.848
58198W        W28798  11.170  28.183   2.854
58199W        W28799  40.920   1.840   0.513
58200W        W28800  39.639  31.726  10.328
58201W        W28801   2.013  24.275  10.884
58202W        W28802  15.662   6.016  10.760
58203W        W28803  28.541  23.008  12.615
58204W        W28804  36.939  37.643  14.436
58205W        W28805  33.418  12.055  11.242
58206W        W28806   3.766  21.716   4.571
58207W        W28807  14.098  10.806   3.289
58208W        W28808   3.899   8.467   1.295
58209W        W28809  10.840  22.995   3.274
58210W        W28810  29.001  31.957  14.372
58211W        W28811  41.961  29.563   1.706
58212W        W28812   4.972  29.383  13.994
58213W        W28813  11.097  40.572   3.674
58214W        W28814  26.624  15.580  11.197
58215W        W28815  34.864  10.864  11.893
58216W        W28816   0.524   8.758  10.690
58217W        W28817  26.084  24.962   1.852
58218W        W28818  11.332  37.649   1.728
58219W        W28819   3.792   1.847  13.632
58220W        W28820   2.722  13.289   2.151
58221W        W28821  33.564  11.833  11.708
58222W        W28822   5.159  21.685   0.461
58223W        W28823  36.872  29.382   3.677
58224W        W28824  18.501  36.842   4.552
58225W        W28825  18.867  29.145  10.940
58226W        W28826  42.967  38.274   1.121
58227W        W28827  20.619   1.534  12.438
58228W        W28828   1.248  39.145  13.085
58229W        W28829  34.658  44.217  12.453
58230W        W28830  21.718  25.370  14.398
58231W        W28831  20.100  19.164  13.958
58232W        W28832  41.521   7.300  10.727
58233W        W28833  26.613  12.055   2.110
58234W        W28834   9.822   9.824  14.111
58235W        W28835  12.844  35.143  12.608
58236W        W28836  23.260  11.610  11.231
58237W        W28837  20.530  18.059   3.735
58238W        W28838  37.728  30.873  13.728
58239W        W28839  41.180   4.806   2.331
58240W        W28840  15.834  27.563  10.318
58241W        W28841  25.825  35.047  14.855
58242W        W28842  30.028  25.525  13.342
58243W        W28843  22.166   1.718   3.761
58244W        W28844   9.804  36.428  12.614
58245W        W28845  10.888  23.680  11.645
58246W        W28846  29.058  12.220  13.935
58247W        W28847   0.289  33.206  12.156
58248W        W28848  14.584  43.802  13.529
58249W        W28849  24.280  24.458   0.814
58250W        W28850  25.699  44.787   4.664
58251W        W28851  38.381  14.287   2.883
58252W        W28852  25.306   7.161   2.873
58253W        W28853  16.430  37.871   0.256
58254W        W28854  14.762  42.230   2.888
58255W        W28855  36.824  35.480  13.993
58256W        W28856  13.252  20.207  11.556
58257W        W28857  12.637  20.276  12.407
58258W        W28858  17.910  28.185  11.027
58259W        W28859   0.117  17.682  13.558
58260W        W28860  44.785  13.351  14.544
58261W        W28861  31.389  17.798  14.930
58262W        W28862  21.901   2.331   2.318
58263W        W28863   5.241  37.985  11.245
58264W        W28864  17.619  27.182   1.361
58265W        W28865   9.269  36.525   1.235
58266W        W28866  40.449  36.476   2.695
58267W        W28867  43.098   0.324  13.044
58268W        W28868  15.167  18.618  13.416
58269W        W28869  15.816  39.372   3.091
58270W        W28870  11.668   7.713  12.164
58271W        W28871  21.669  43.805  11.296
58272W        W28872  22.475  28.403  13.871
58273W        W28873  19.262  41.384  14.869
58274W        W28874  25.069  42.467   1.534
58275W        W28875  20.369  38.963   3.275
58276W        W28876  34.019  28.135   0.725
58277W        W28877   0.542  42.806   1.953
58278W        W28878  11.847   9.886  12.403
58279W        W28879  22.863  32.059  13.470
58280W        W28880  24.641  30.762  13.581
58281W        W28881  43.159  15.692   2.794
58282W        W28882  16.395  31.993  10.806
58283W        W28883  24.231   9.306  13.896
58284W        W28884  10.983  19.593   0.345
58285W        W28885  16.126  26.708   3.064
58286W        W28886  18.352  23.539   4.548
58287W        W28887  29.972  13.135  14.128
58288W        W28888  10.028   6.848   9.905
58289W        W28889   1.348  39.698  11.232
58290W        W28890  32.125  35.266  14.580
58291W        W28891   9.831   6.308   3.658
58292W        W28892  21.407  14.057  11.872
58293W        W28893  13.722  13.781  12.332
58294W        W28894  28.969  23.559   4.767
58295W        W28895  35.126   9.537  11.638
58296W        W28896  14.691   0.423   3.865
58297W        W28897   5.347   7.219   1.227
58298W        W28898  17.034  31.326   4.024
58299W        W28899  25.576  41.342   0.767
58300W        W28900  39.599  21.083   0.867
58301W        W28901  35.553  33.873   0.878
58302W        W28902   7.188  40.966   4.084
58303W        W28903  24.242   6.121  13.033
58304W        W28904  44.198  16.025  11.173
58305W        W28905   6.855  31.503   1.587
58306W        W28906  31.191  31.996   0.466
58307W        W28907  38.580   8.308   0.763
58308W        W28908   6.240   5.011   2.646
58309W        W28909  32.931   9.608  11.589
58310W        W28910  22.391  24.098  14.643
58311W        W28911  41.859  17.085  13.866
58312W        W28912  23.721  32.021  11.325
58313W        W28913  34.233  29.119  14.284
58314W        W28914  12.781  23.353  14.481
58315W        W28915  43.978  34.937  12.972
58316W        W28916  24.272  17.574  14.375
58317W        W28917  20.070   9.174   3.698
58318W        W28918  43.280  35.045  13.320
58319W        W28919  28.701  25.612  13.730
58320W        W28920  31.977  44.536  11.566
58321W        W28921  23.767   9.094  13.854
58322W        W28922  17.058  22.102   0.485
58323W        W28923  37.804  25.640  14.986
58324W        W28924  13.440  40.671   0.387
58325W        W28925   9.349  33.990   3.264
58326W        W28926  39.062  25.283  13.839
58327W        W28927  21.591  39.072  12.047
58328W        W28928  41.442  11.146   0.454
58329W        W28929  25.814  36.459   2.698
58330W        W28930  36.869  22.330   3.167
58331W        W28931  37.622   9.407   1.394
58332W        W28932  40.323  20.625  11.013
58333W        W28933  37.117  19.552  10.082
58334W        W28934  43.693  21.704  14.490
58335W        W28935   5.066  28.235   4.980
58336W        W28936   3.474  15.113  12.461
58337W        W28937  10.635  30.428  11.620
58338W        W28938  30.157  18.073   1.791
58339W        W28939  31.959   7.049   0.417
58340W        W28940  28.554  27.953  10.602
58341W        W28941  29.968  13.783  10.693
58342W        W28942  10.736  31.614  11.996
58343W        W28943  18.647  37.887   0.998
58344W        W28944   4.827  42.895  14.046
58345W        W28945  23.450  14.309  10.762
58346W        W28946  25.116  17.260  10.903
58347W        W28947   5.696   0.181   2.876
58348W        W28948   2.726  26.749   2.213
58349W        W28949  34.528  37.210  12.978
58350W        W28950  44.581  35.899  13.955
58351W        W28951   0.961  17.441   1.855
58352W        W28952   0.492   6.068   2.213
58353W        W28953  33.487  20.108   2.698
58354W        W28954  21.780  16.852   4.168
58355W        W28955  22.086  22.247   2.400
58356W        W28956  31.419  39.198   3.227
58357W        W28957  37.946  43.057   4.222
58358W        W28958  10.147   0.941  13.961
58359W        W28959  43.868  44.370   2.779
58360W        W28960  18.688  37.435   0.768
58361W        W28961   2.704  34.387   3.609
58362W        W28962   3.917  17.349  14.246
58363W        W28963   1.789   6.324  12.866
58364W        W28964  23.578  35.148   3.829
58365W        W28965  24.269  30.360  12.148
58366W        W28966  13.781  23.148  14.210
58367W        W28967  30.500  11.429  12.052
58368W        W28968  29.548  24.552  13.751
58369W        W28969   3.747  21.692  13.979
58370W        W28970  17.710  30.509  13.531
58371W        W28971   0.335   3.924  10.621
58372W        W28972   2.117  37.090   3.659
58373W        W28973   0.763  22.535  14.586
58374W        W28974  19.876  15.372  11.665
58375W        W28975  22.317  19.176  13.999
58376W        W28976  39.926  22.065  12.554
58377W        W28977  43.883   1.877  11.359
58378W        W28978   2.907  39.771   1.843
58379W        W28979   3.892   9.219   3.338
58380W        W28980  43.564   0.540  13.172
58381W        W28981  23.543   0.583  11.369
58382W        W28982   3.798  10.926   3.095
58383W        W28983   4.226   0.021  14.007
58384W        W28984   9.427  22.118  12.907
58385W        W28985  35.069   6.582  12.523
58386W        W28986  12.593  35.073   4.661
58387W        W28987  26.327  24.207  13.059
58388W        W28988   1.480   3.256   3.783
58389W        W28989  16.042  39.951   3.779
58390W        W28990  28.694   6.552   3.684
58391W        W28991  27.721  37.905   0.977
58392W        W28992  36.964  15.004   0.386
58393W        W28993  40.349  12.944  12.110
58394W        W28994   9.810  14.489  14.804
58395W        W28995  40.442  29.234   4.201
58396W        W28996  10.297  40.004  14.761
58397W        W28997   1.163  38.812  11.201
58398W        W28998  10.012   6.042  14.733
58399W        W28999   2.874  37.511   4.528
58400W        W29000  16.617  21.444  10.755
58401W        W29001  26.656  40.746   5.068
58402W        W29002  23.590   6.418   1.220
58403W        W29003  43.813  27.645  12.387
58404W        W29004  13.013  19.193   4.063
58405W        W29005   4.221  27.138   3.324
58406W        W29006   6.414  17.901   4.557
58407W        W29007  20.627  20.283  13.759
58408W        W29008  33.667  30.148   4.154
58409W        W29009  41.710  42.255  11.121
58410W        W29010   7.548  10.125   0.273
58411W        W29011   5.083  36.392  12.360
58412W        W29012  30.356   2.822  13.454
58413W        W29013  34.499   2.207  10.709
58414W        W29014  13.260   2.908   2.249
58415W        W29015  40.412  10.162   4.186
58416W        W29016  36.370   2.398   2.637
58417W        W29017  18.640  39.040   1.815
58418W        W29018   5.844  19.484   0.746
58419W        W29019   5.135  32.592  14.522
58420W        W29020  25.872  14.076   1.193
58421W        W29021  28.062  39.084   2.801
58422W        W29022  12.139  10.733   4.508
58423W        W29023  36.650  12.595   1.951
58424W        W29024  24.441   7.617  13.194
58425W        W29025  32.072  14.733  12.199
58426W        W29026  35.804   8.594  13.900
58427W        W29027  20.973  44.088  10.304
58428W        W29028   9.801  18.275   2.698
58429W        W29029  15.798  23.987   3.993
58430W        W29030  15.864  16.087   9.811
58431W        W29031  17.216  35.366  12.537
58432W        W29032  41.365  25.467  11.083
58433W        W29033  12.710  29.329   3.057
58434W        W29034  13.109   0.046  14.164
58435W        W29035  11.048  40.990   0.956
58436W        W29036  38.857  32.933   2.909
58437W        W29037   5.164  34.039  14.039
58438W        W29038  16.334  23.707   2.161
58439W        W29039  38.842  25.934   3.915
58440W        W29040  25.995  20.675  11.289
58441W        W29041   7.309  14.424   3.120
58442W        W29042   3.714  26.139  14.021
58443W        W29043  40.416  42.376  13.825
58444W        W29044  40.076  40.977  14.011
58445W        W29045  35.154  10.862  14.856
58446W        W29046  36.299  43.293   3.702
58447W        W29047  30.005  44.026   1.806
58448W        W29048   6.916  39.798   1.639
58449W        W29049  39.016  42.488   2.614
58450W        W29050  30.127  16.032  13.521
58451W        W29051  33.410  16.108   2.295
58452W        W29052  40.557   7.269  10.398
58453W        W29053  35.249  12.128  14.750
58454W        W29054  36.400  11.127   4.141
58455W        W29055  29.668  31.583  14.788
58456W        W29056  10.911  42.230  14.654
58457W        W29057   3.874  12.341  11.993
58458W        W29058  34.361   5.764   0.008
58459W        W29059  24.315  24.619   2.663
58460W        W29060  13.522  19.321   4.137
58461W        W29061  39.318  24.480  11.494
58462W        W29062  12.129  39.001  12.571
58463W        W29063   0.580  25.663  10.558
58464W        W29064  39.106  23.983  11.552
58465W        W29065  22.663   6.178   1.187
58466W        W29066  33.587  24.121   4.617
58467W        W29067   8.002  15.747  14.545
58468W        W29068  29.173  22.081   1.798
58469W        W29069  27.462  44.901  10.405
58470W        W29070  34.133  42.780   2.688
58471W        W29071  10.854  13.655  12.882
58472W        W29072  38.262  43.939   1.154
58473W        W29073   8.697  39.376   2.921
58474W        W29074  15.348  39.769   0.354
58475W        W29075   4.207   2.302  10.751
58476W        W29076  19.249  11.268  11.168
58477W        W29077  14.792  40.057  13.539
58478W        W29078  21.712  18.671   3.218
58479W        W29079  22.498  39.010  14.017
58480W        W29080  24.975  23.535  14.823
58481W        W29081   8.658   8.245   1.923
58482W        W29082  40.453  26.924  12.219
58483W        W29083  22.488  14.085  14.829
58484W        W29084  20.402  15.872   2.082
58485W        W29085  17.977  24.655   1.845
58486W        W29086  21.891  20.339   3.685
58487W        W29087  26.714  42.230   4.768
58488W        W29088  37.917  36.320  14.557
58489W        W29089   3.386   9.684   0.348
58490W        W29090  27.699   4.526   0.205
58491W        W29091   6.850  21.712   4.632
58492W        W29092  42.348  20.594   4.063
58493W        W29093  27.003  30.613   0.899
58494W        W29094  37.872  39.774  12.578
58495W        W29095  43.348  11.161  12.818
58496W        W29096  34.993  30.435  12.614
58497W        W29097  42.844  13.637  12.383
58498W        W29098  14.091  21.862  14.513
58499W        W29099   9.878  26.574  11.082
58500W        W29100  40.770  25.704  11.630
58501W        W29101  18.844   0.235  12.001
58502W        W29102   1.405  38.334  12.925
58503W        W29103  36.028   1.989  13.280
58504W        W29104   1.958  42.471  10.946
58505W        W29105  44.810  38.882  12.099
58506W        W29106  41.475  31.140  10.559
58507W        W29107   2.002  14.715   0.340
58508W        W29108   0.256  14.125  10.637
58509W        W29109  17.713  19.709   4.539
58510W        W29110   5.162  13.182   3.746
58511W        W29111  33.546  10.223   2.407
58512W        W29112  19.835   8.467   4.131
58513W        W29113   1.447   5.373  14.463
58514W        W29114  21.496   2.780  11.995
58515W        W29115  30.627   1.826  13.016
58516W        W29116  43.255  15.851  14.985
58517W        W29117  38.020  40.271  14.904
58518W        W29118  23.955  26.951   2.753
58519W        W29119  33.903  19.312   3.809
58520W        W29120   9.784   8.797   2.787
58521W        W29121  30.236  32.942  13.608
58522W        W29122  40.287  26.440  11.168
58523W        W29123  28.890  30.356   2.780
58524W        W29124  20.016  19.755   9.952
58525W        W29125  37.700  13.874   4.525
58526W        W29126  10.360  34.699  11.387
58527W        W29127  26.424   9.203  11.651
58528W        W29128   2.693  11.946  11.632
58529W        W29129  10.224  13.714  12.188
58530W        W29130  31.975  25.105   2.853
58531W        W29131  32.508   1.682   0.509
58532W        W29132   9.404  42.394  11.159
58533W        W29133  17.191   1.836   5.018
58534W        W29134  44.043  20.477  11.193
58535W        W29135  23.602  43.042  11.426
58536W        W29136   8.010  19.779  11.970
58537W        W29137   5.067  25.077   5.138
58538W        W29138  23.284  32.133  11.615
58539W        W29139  25.525  31.648   4.113
58540W        W29140   5.660  11.283  11.634
58541W        W29141  27.671   2.387   1.239
58542W        W29142   7.528   9.108  11.092
58543W        W29143  44.502   2.391  10.982
58544W        W29144  38.812  16.748   3.138
58545W        W29145  10.351   7.003  11.060
58546W        W29146  35.838   9.278  12.458
58547W        W29147   8.973   4.311  11.158
58548W        W29148  32.848   1.540  12.888
58549W        W29149  10.392   4.631   3.331
58550W        W29150  32.642  31.009   2.839
58551W        W29151   7.820   8.632   3.216
58552W        W29152  19.464  16.182   3.405
58553W        W29153  28.022  27.828  11.456
58554W        W29154  12.302  38.754  11.732
58555W        W29155  34.005   8.710   3.206
58556W        W29156  13.194  19.934   2.909
58557W        W29157  19.243  19.062  11.206
58558W        W29158  23.490  15.199   3.252
58559W        W29159   1.237  40.049  12.176
58560W        W29160  39.554  40.887   0.737
58561W        W29161  37.865  26.647  13.992
58562W        W29162  40.509  18.294   1.707
58563W        W29163  11.734  13.907  10.618
58564W        W29164  19.719  17.654   1.999
58565W        W29165  13.686  30.612   3.391
58566W        W29166  44.246  43.296  11.524
58567W        W29167   0.766  20.404   2.279
58568W        W29168  19.113  28.907   1.706
58569W        W29169   3.304  21.067  12.045
58570W        W29170  25.187  39.506  14.783
58571W        W29171   1.930  39.771   1.972
58572W        W29172  40.187  43.778  11.147
58573W        W29173  36.483  13.717  10.798
58574W        W29174   7.143  30.561  14.954
58575W        W29175  21.992  15.113   2.455
58576W        W29176  42.488   9.961   4.694
58577W        W29177  44.543  26.480  11.549
58578W        W29178   5.485  20.688   4.511
58579W        W29179  27.567  28.099  14.081
58580W        W29180  42.546  22.451  13.489
58581W        W29181  21.305  36.589  13.536
58582W        W29182  36.021  29.109   1.458
58583W        W29183  10.293  30.036  12.917
58584W        W29184  29.056  23.476   2.085
58585W        W29185   3.253  41.348  14.303
58586W        W29186  20.576   1.707   2.213
58587W        W29187  17.173  37.637   0.077
58588W        W29188  10.669  13.764  11.912
58589W        W29189  27.594  17.181  14.536
58590W        W29190  35.136  15.036  12.433
58591W        W29191  16.249  10.606   1.356
58592W        W29192  25.130  40.963   4.573
58593W        W29193  12.084  27.376   1.631
58594W        W29194   9.917  34.950   1.911
58595W        W29195  35.052  16.567  13.758
58596W        W29196   6.989  26.122   3.758
58597W        W29197  37.918  30.048   3.205
58598W        W29198  12.188  34.171   0.646
58599W        W29199  16.538  42.274  14.378
58600W        W29200  38.105  15.785   4.830
58601W        W29201  39.006  17.283   2.272
58602W        W29202  12.890  30.487   3.741
58603W        W29203  36.166   1.055  10.774
58604W        W29204  43.608  32.405   4.519
58605W        W29205  28.791  36.606   0.307
58606W        W29206  38.054  30.542  13.013
58607W        W29207  25.071  44.001  10.615
58608W        W29208  32.789  43.975  14.020
58609W        W29209  13.859   2.405  11.819
58610W        W29210  11.164  16.225  11.427
58611W        W29211  11.114   9.706  11.612
58612W        W29212  32.599  22.045  13.785
58613W        W29213  44.157   4.379  11.151
58614W        W29214  26.859  34.537   1.335
58615W        W29215  27.002  16.048  10.541
58616W        W29216   5.504  39.362   0.359
58617W        W29217  43.822  40.995   3.805
58618W        W29218  23.669  20.682   3.570
58619W        W29219  35.420  24.893   0.330
58620W        W29220   3.965   2.394  14.303
58621W        W29221  21.214  19.004   0.675
58622W        W29222  25.166   6.326   3.692
58623W        W29223  32.820   1.793  13.993
58624W        W29224  35.075  18.799   4.102
58625W        W29225  37.295  23.498  12.010
58626W        W29226  10.230  27.015  11.766
58627W        W29227   5.438   1.452  14.351
58628W        W29228   7.096  25.453   4.242
58629W        W29229  28.769  28.515   0.490
58630W        W29230  17.249  27.981  12.392
58631W        W29231   6.514  44.322  14.483
58632W        W29232  17.014  20.625  12.132
58633W        W29233  37.314  19.034   3.625
58634W        W29234  23.149   7.518  13.447
58635W        W29235  14.486  14.273   0.927
58636W        W29236   4.084  16.102  11.419
58637W        W29237  32.383   8.482  14.720
58638W        W29238   4.724  43.984   2.033
58639W        W29239  18.119  10.224  10.729
58640W        W29240  39.941  33.896   1.119
58641W        W29241  33.730   4.316   3.162
58642W        W29242  31.694  42.011   3.709
58643W        W29243  25.116  24.751  13.892
58644W        W29244  39.326  36.707  11.649
58645W        W29245  44.333   5.661   2.445
58646W        W29246  22.086  17.664   3.385
58647W        W29247  27.096  33.689   3.709
58648W        W29248  15.218   6.244   0.611
58649W        W29249  43.266  32.386   2.820
58650W        W29250   1.258   3.748   3.763
58651W        W29251   1.347  26.601   4.544
58652W        W29252  34.822  26.541   2.202
58653W        W29253  44.347  26.485   1.565
58654W        W29254   8.113   6.818  11.217
58655W        W29255  37.104  19.542  11.575
58656W        W29256  44.623  33.742  13.352
58657W        W29257  42.960  20.587   0.224
58658W        W29258   1.908  27.924  14.744
58659W        W29259  24.929  12.795  11.278
58660W        W29260  21.393  41.019   1.271
58661W        W29261   8.184  14.063   2.818
58662W        W29262  34.352  25.588  14.750
58663W        W29263  27.669  14.351   1.753
58664W        W29264  40.551  38.438  11.653
58665W        W29265  42.337  20.454  11.486
58666W        W29266  10.053  30.077   2.802
58667W        W29267  14.749  41.540   0.389
58668W        W29268   4.233  43.788   3.719
58669W        W29269  39.074   1.781   4.951
58670W        W29270  36.529  38.582   0.300
58671W        W29271  39.585  29.476  12.186
58672W        W29272   2.877  42.353   2.745
58673W        W29273  31.448  28.143   4.611
58674W        W29274  40.494  23.162  13.498
58675W        W29275  28.690  27.587  12.487
58676W        W29276  25.860   8.149  11.500
58677W        W29277  10.142  28.349  13.602
58678W        W29278  15.577  19.178   0.800
58679W        W29279  37.035  36.671  14.454
58680W        W29280  13.694  40.402  14.896
58681W        W29281  32.463  44.963  14.835
58682W        W29282   9.327   3.276   1.443
58683W        W29283  25.234   1.816  11.637
58684W        W29284  39.007  26.088  12.920
58685W        W29285  32.809  44.355  12.876
58686W        W29286   3.732   3.730   0.755
58687W        W29287  36.016   0.705   1.924
58688W        W29288  10.568  28.684  13.075
58689W        W29289  43.994  30.012   3.213
58690W        W29290  11.152  33.605   4.176
58691W        W29291  38.101  19.806  11.472
58692W        W29292  30.522  27.925   3.581
58693W        W29293  12.791  12.381   3.885
58694W        W29294  14.319  35.016   0.910
58695W        W29295  14.826  29.874   0.465
58696W        W29296  25.449   1.577  13.136
58697W        W29297  27.730  32.761  13.361
58698W        W29298  21.320   5.262  14.841
58699W        W29299  32.147   5.236   4.655
58700W        W29300  15.804  11.506  12.467
58701W        W29301  28.111   0.251   2.174
58702W        W29302  10.545  44.489  12.630
58703W        W29303  13.809  38.650   0.423
58704W        W29304   6.828  24.748   2.639
58705W        W29305  36.128   5.815   3.872
58706W        W29306   7.610  44.242   4.468
58707W        W29307  37.479  12.199   4.406
58708W        W29308  29.416   9.832  12.070
58709W        W29309  28.999  32.558   0.960
58710W        W29310  28.151  24.752  10.769
58711W        W29311  28.360   9.951  13.648
58712W        W29312  31.381  19.207   1.887
58713W        W29313  13.291  40.211  10.035
58714W        W29314  17.240  19.677  12.060
58715W        W29315  16.449  41.835   3.146
58716W        W29316  25.810  33.520   4.831
58717W        W29317   3.933  36.594   2.436
58718W        W29318  24.274  38.414  12.055
58719W        W29319  27.587  11.638  11.919
58720W        W29320  17.060   8.143   0.447
58721W        W29321  41.622  33.143   1.778
58722W        W29322  33.422  16.842   1.104
58723W        W29323  19.521   2.280  14.106
58724W        W29324  17.883  19.570  13.437
58725W        W29325  10.708  25.466  12.952
58726W        W29326  43.278  43.755   0.692
58727W        W29327  21.688  44.770   0.790
58728W        W29328  20.472  36.971  14.395
58729W        W29329   9.748   0.202   4.648
58730W        W29330  18.582   7.739  13.075
58731W        W29331  34.856  40.424   5.082
58732W        W29332  29.325  23.693  11.198
58733W        W29333   4.170  42.551   3.245
58734W        W29334   1.473   1.711  11.102
58735W        W29335  26.087  26.972  12.894
58736W        W29336   9.364  30.377   2.679
58737W        W29337  41.607   0.635   1.717
58738W        W29338  13.589  10.048   1.148
58739W        W29339  25.403  13.725   3.672
58740W        W29340  34.646  25.905   2.715
58741W        W29341  14.097  33.516  10.637
58742W        W29342  39.067  22.685   2.369
58743W        W29343  38.734   5.222   3.095
58744W        W29344  23.473  24.491   4.616
58745W        W29345   0.489  29.233  14.846
58746W        W29346   8.885  39.657  11.842
58747W        W29347  17.841   1.632  13.776
58748W        W29348  19.481  29.491   3.925
58749W        W29349  11.164  41.973  13.480
58750W        W29350  44.285  12.165   0.411
58751W        W29351  27.168  38.868   2.788
58752W        W29352   6.273  29.405   0.519
58753W        W29353  32.499  22.657  12.563
58754W        W29354   6.025  11.142  12.010
58755W        W29355  44.149  39.847   5.175
58756W        W29356  30.656   7.529   0.273
58757W        W29357  25.795   3.263   4.527
58758W        W29358  24.650  35.386   0.321
58759W        W29359  17.564  24.245   3.296
58760W        W29360  21.491  27.004   0.437
58761W        W29361   2.935  28.131   2.128
58762W        W29362  10.199  39.400   2.896
58763W        W29363  22.988  22.455  12.972
58764W        W29364  16.712   8.018   0.826
58765W        W29365  25.005   0.632   0.645
58766W        W29366  11.619  19.820   2.456
58767W        W29367  35.601  13.784   4.238
58768W        W29368  14.550  34.120   9.977
58769W        W29369  10.618   5.489   1.880
58770W        W29370  23.213  32.964   3.871
58771W        W29371   1.992   2.269   4.585
58772W        W29372   7.430  43.561   3.948
58773W        W29373  36.540  33.640  13.902
58774W        W29374  10.243  15.291  14.688
58775W        W29375  38.463  19.653  12.657
58776W        W29376  13.790  43.955   4.616
58777W        W29377  17.268  43.062   4.289
58778W        W29378  44.019  30.705  11.175
58779W        W29379  16.662  32.672  13.588
58780W        W29380  13.650  44.633   2.142
58781W        W29381   9.752  37.887  12.767
58782W        W29382  43.731   0.062   2.251
58783W        W29383  42.559  19.169   0.455
58784W        W29384   4.981   6.729   2.375
58785W        W29385  36.069  19.927   2.667
58786W        W29386   3.289  20.318   1.818
58787W        W29387  22.263  21.146   2.474
58788W        W29388  16.175   1.326   2.354
58789W        W29389  42.920  23.142   0.279
58790W        W29390   9.837  39.834   4.497
58791W        W29391   9.157   7.012  13.430
58792W        W29392  29.556  22.592  10.626
58793W        W29393   9.414  10.823  12.446
58794W        W29394  13.596   0.201   1.214
58795W        W29395   2.633  29.066  13.091
58796W        W29396  28.000   0.338   3.584
58797W        W29397   8.448   9.195   1.358
58798W        W29398  37.124   4.885   0.173
58799W        W29399   9.819  34.633  10.747
58800W        W29400   9.019  27.692  14.819
58801W        W29401  36.010  27.048  13.634
58802W        W29402  12.118   1.648  12.888
58803W        W29403  11.744  20.915   0.556
58804W        W29404  19.206   1.770   0.378
58805W        W29405  33.214  39.931   1.841
58806W        W29406  39.398   0.382  11.373
58807W        W29407  12.292  13.488  12.877
58808W        W29408  26.766  36.114  11.986
58809W        W29409  30.618  41.781   1.233
58810W        W29410  10.607  30.494  13.400
58811W        W29411  13.078  25.721   1.952
58812W        W29412  13.817  43.542  10.708
58813W        W29413  32.137   7.296   2.766
58814W        W29414  18.175  36.378  10.883
58815W        W29415   0.587  11.967  12.410
58816W        W29416   6.774   9.296  11.717
58817W        W29417  13.948   0.446   4.582
58818W        W29418  37.997  36.572   3.003
58819W        W29419   8.749  39.372   2.390
58820W        W29420  41.395   5.963  10.538
58821W        W29421   0.037  44.109   2.345
58822W        W29422  34.585  29.423   1.456
58823W        W29423  24.168  23.097  13.469
58824W        W29424  30.409  13.214   1.741
58825W        W29425   7.902  39.017  13.804
58826W        W29426  25.217  30.960  14.866
58827W        W29427  24.049   0.978  13.903
58828W        W29428  43.223  10.658  12.715
58829W        W29429  18.037  17.024  11.990
58830W        W29430  27.167  20.742  14.402
58831W        W29431  40.350  10.321   2.767
58832W        W29432  26.263  10.130  14.882
58833W        W29433  14.847  31.432   4.853
58834W        W29434  31.276   4.779   2.263
58835W        W29435  41.920  32.598   1.136
58836W        W29436  40.963  24.648  11.109
58837W        W29437  35.447   1.499   1.773
58838W        W29438  24.292  28.323   0.095
58839W        W29439  32.987  31.404   0.346
58840W        W29440  21.468  37.636   4.500
58841W        W29441   7.397  41.267   0.564
58842W        W29442  29.651  34.646   0.518
58843W        W29443  10.603  17.291  10.694
58844W        W29444  28.515  36.073  11.566
58845W        W29445  37.815  16.569   0.349
58846W        W29446   3.704  15.280   2.273
58847W        W29447  40.821  28.273   4.504
58848W        W29448   9.651  18.157  11.044
58849W        W29449  33.643   9.246  14.839
58850W        W29450   0.338  40.862  12.405
58851W        W29451   7.311  40.428  12.952
58852W        W29452   9.935   2.890   0.434
58853W        W29453  29.139   9.330   3.351
58854W        W29454  11.472  22.112   0.038
58855W        W29455   8.206  26.937   4.152
58856W        W29456   1.789  21.036  11.399
58857W        W29457  42.033   2.072  10.789
58858W        W29458   4.556  33.926   2.452
58859W        W29459  12.894  30.481  13.103
58860W        W29460  21.111  20.338   0.400
58861W        W29461  38.535  20.875  10.695
58862W        W29462  31.256  43.100   0.889
58863W        W29463   6.388   7.488  13.501
58864W        W29464  13.383  32.970  13.074
58865W        W29465  37.781  38.403  12.539
58866W        W29466  43.129  31.659   0.277
58867W        W29467   9.656  28.738  13.565
58868W        W29468   3.454   0.764   4.961
58869W        W29469  42.486  22.228   0.244
58870W        W29470   8.188  13.641  13.780
58871W        W29471  22.639   0.826   0.071
58872W        W29472  35.511  23.250   1.745
58873W        W29473  16.402  18.313   1.284
58874W        W29474  39.426  20.000   3.605
58875W        W29475  35.326   8.289  10.753
58876W        W29476  29.173  38.997  14.055
58877W        W29477  43.271  17.740   1.996
58878W        W29478  13.577  42.029  12.509
58879W        W29479  24.770  41.859  12.861
58880W        W29480  23.606   4.127   1.871
58881W        W29481  21.677  27.244  11.161
58882W        W29482  30.663   9.271  12.051
58883W        W29483  34.953  26.373  12.976
58884W        W29484  12.337  26.081   1.072
58885W        W29485   6.889  35.377  13.392
58886W        W29486  42.928  12.671   0.288
58887W        W29487   8.398  22.294   1.729
58888W        W29488  43.084  22.431   4.088
58889W        W29489  31.381  41.835   1.943
58890W        W29490  28.993  27.222   0.516
58891W        W29491  18.895  25.618  11.959
58892W        W29492  13.670  31.423  14.414
58893W        W29493  24.631  10.807  14.460
58894W        W29494  38.940   8.476   2.676
58895W        W29495  29.724   6.786   1.257
58896W        W29496   1.816  16.571   3.069
58897W        W29497  27.090  30.905  12.459
58898W        W29498  22.057  27.472  14.288
58899W        W29499  23.466  35.933   4.579
58900W        W29500   3.415  25.477   3.655
58901W        W29501  33.330   3.709   0.396
58902W        W29502  29.582  27.168   2.695
58903W        W29503  29.841   1.619  12.000
58904W        W29504  42.850   4.369  12.617
58905W        W29505  41.339  16.812   3.692
58906W        W29506  14.046  37.572   1.248
58907W        W29507   5.292  26.637  14.742
58908W        W29508  36.471  25.730  14.865
58909W        W29509   2.480  25.507  13.661
58910W        W29510  26.197  41.895  13.041
58911W        W29511   9.147  36.485  11.230
58912W        W29512  26.444   8.381   4.051
58913W        W29513  20.822  11.116   4.517
58914W        W29514  18.227   2.799   1.894
58915W        W29515  22.959  10.710  11.665
58916W        W29516  11.219  19.216   1.792
58917W        W29517  15.755  11.089  11.632
58918W        W29518   4.776  31.116   1.277
58919W        W29519  38.418  37.271  14.474
58920W        W29520  38.018  13.020   0.535
58921W        W29521  32.198   9.309   0.813
58922W        W29522   4.636   5.477  12.016
58923W        W29523  13.066   6.786  13.336
58924W        W29524   3.207   5.013   1.008
58925W        W29525  41.231  19.906  11.344
58926W        W29526  16.458  43.310   4.505
58927W        W29527  33.503  26.661   3.221
58928W        W29528  13.740  24.572   0.490
58929W        W29529   8.432  36.303   4.894
58930W        W29530  28.439   6.764   4.242
58931W        W29531   5.752  15.249   3.565
58932W        W29532   9.310   3.653  13.892
58933W        W29533  26.453  18.171   1.134
58934W        W29534  25.631  15.474   4.648
58935W        W29535  27.950  11.667   3.261
58936W        W29536  42.490  31.302   0.775
58937W        W29537  29.607  18.493   3.076
58938W        W29538  11.049   0.385   0.267
58939W        W29539  25.532  37.084  10.948
58940W        W29540  30.490  27.618  12.977
58941W        W29541  19.357   0.005  11.525
58942W        W29542   4.306  16.964  11.672
58943W        W29543  16.057  36.555  10.696
58944W        W29544  13.687   3.939   1.774
58945W        W29545  17.408  14.601  10.216
58946W        W29546  20.716  23.589  13.107
58947W        W29547   1.320  35.360   0.941
58948W        W29548   1.488  29.650   3.792
58949W        W29549   4.464  24.858   1.755
58950W        W29550   3.608  16.643  12.110
58951W        W29551   5.378   3.761  13.733
58952W        W29552  11.670  22.309   2.675
58953W        W29553  38.460  20.823  13.100
58954W        W29554  23.457  38.112  13.430
58955W        W29555  23.454  38.331  14.340
58956W        W29556  41.823  29.507  14.377
58957W        W29557  13.105  29.165   9.953
58958W        W29558  31.463  36.849   3.642
58959W        W29559  29.516  28.091   3.705
58960W        W29560   9.357   6.956  14.023
58961W        W29561  41.515  39.403  12.989
58962W        W29562  16.146   9.813  13.253
58963W        W29563  23.686  26.629   0.360
58964W        W29564  44.150   7.177   1.218
58965W        W29565  37.942  31.440   1.589
58966W        W29566   7.628   4.357  13.807
58967W        W29567  31.959  33.973  12.129
58968W        W29568  41.016  39.338   0.162
58969W        W29569  10.080  18.028   2.335
58970W        W29570  40.713  13.269  12.317
58971W        W29571   3.996  42.062   1.578
58972W        W29572   1.984  29.880   4.754
58973W        W29573   0.480  18.499   1.482
58974W        W29574  27.438  20.218  12.730
58975W        W29575  38.929   7.155   3.310
58976W        W29576   7.924   0.543   1.322
58977W        W29577   6.842  23.216   0.285
58978W        W29578  37.966   0.998  13.854
58979W        W29579  42.023   3.699   2.621
58980W        W29580  24.229  13.118   0.838
58981W        W29581  12.877  32.890  13.097
58982W        W29582   3.196  17.771  11.457
58983W        W29583  15.383  12.656   2.190
58984W        W29584   6.394  42.274   0.422
58985W        W29585  36.963   5.023   1.862
58986W        W29586  19.155  43.826  14.751
58987W        W29587  37.601  40.012   3.356
58988W        W29588   3.664  28.407   0.301
58989W        W29589  18.278  22.248   3.789
58990W        W29590   3.360  40.878   4.583
58991W        W29591  12.330  17.995  13.515
58992W        W29592  16.270  15.533   4.512
58993W        W29593  41.312  10.156   3.112
58994W        W29594  26.477  43.877  11.662
58995W        W29595  27.676  18.805  13.972
58996W        W29596   6.469  20.024   0.040
58997W        W29597  31.661   4.361   3.191
58998W        W29598  40.167  31.820  13.954
58999W        W29599   5.431  24.002   1.771
59000W        W29600  14.563  19.498   0.408
59001W        W29601  15.362   2.030  11.588
59002W        W29602  18.223  41.890   3.833
59003W        W29603  36.287  18.710   2.328
59004W        W29604  23.318  39.971  11.595
59005W        W29605  22.125   7.962  14.012
59006W        W29606  20.226  41.288  11.964
59007W        W29607  19.182  22.730   1.272
59008W        W29608  14.629  10.169  12.567
59009W        W29609  20.760  17.644   1.135
59010W        W29610  28.931  25.650   0.068
59011W        W29611   9.149   2.418   0.222
59012W        W29612  43.956   5.612  11.617
59013W        W29613   9.436   1.937  10.669
59014W        W29614  29.991  19.266   4.215
59015W        W29615  26.522  30.950  10.625
59016W        W29616  21.419  22.728  11.368
59017W        W29617  12.864  36.583  12.985
59018W        W29618  26.152   4.182   2.674
59019W        W29619  35.003  35.371   4.738
59020W        W29620  30.651  38.374  13.155
59021W        W29621  28.699  36.829   4.659
59022W        W29622  12.136  40.268   0.645
59023W        W29623  31.347  26.677   1.466
59024W        W29624  23.316   6.711   0.250
59025W        W29625  33.617  26.450  14.340
59026W        W29626  32.650  18.580   0.689
59027W        W29627  17.693  27.075  12.524
59028W        W29628  28.282  16.807  11.901
59029W        W29629  22.627  11.352   2.392
59030W        W29630   7.270  21.060   2.315
59031W        W29631   6.743  39.601  14.384
59032W        W29632  28.166  27.945  11.954
59033W        W29633  34.238  19.908  13.555
59034W        W29634   9.055  41.487   4.576
59035W        W29635   6.851  18.659   2.648
59036W        W29636   4.760  28.272   1.346
59037W        W29637  31.923  39.880   2.406
59038W        W29638   5.996  36.280   1.424
59039W        W29639   0.223  43.780   3.723
59040W        W29640  27.909  18.049  11.623
59041W        W29641  19.075  39.854  11.056
59042W        W29642  40.990   5.985   1.538
59043W        W29643   1.045  26.960   2.986
59044W        W29644   2.342   6.404  12.424
59045W        W29645  22.068  31.361   1.347
59046W        W29646  30.896  36.502  14.984
59047W        W29647   9.149  40.014   0.439
59048W        W29648   8.781  28.690   1.408
59049W        W29649  21.787  14.685   2.731
59050W        W29650  31.596   3.658   4.843
59051W        W29651  29.376  27.925  11.661
59052W        W29652  44.835  20.661  13.641
59053W        W29653  42.322   5.808  10.755
59054W        W29654   8.331  18.009  13.042
59055W        W29655  16.716  10.074   2.711
59056W        W29656  18.577  34.137  14.684
59057W        W29657  20.743  33.590   0.399
59058W        W29658  18.559  39.784   0.817
59059W        W29659  43.215   6.829  11.217
59060W        W29660  24.209  42.895   4.580
59061W        W29661   5.849  32.810  12.008
59062W        W29662  32.444   3.547   3.920
59063W        W29663  24.153  25.727  11.069
59064W        W29664  21.490  43.248  12.453
59065W        W29665  10.160  37.865  11.126
59066W        W29666   4.290  36.813  13.900
59067W        W29667  40.996  37.664   1.086
59068W        W29668   0.128  25.099   1.896
59069W        W29669   3.949  25.123   1.073
59070W        W29670  29.084  20.347  11.229
59071W        W29671  17.216   3.267   1.844
59072W        W29672  18.017  44.864   3.455
59073W        W29673  21.225  31.244  13.410
59074W        W29674   4.414  42.470  12.315
59075W        W29675  39.383  19.820  10.258
59076W        W29676   7.752  35.491   4.344
59077W        W29677   2.596  41.316  13.535
59078W        W29678   7.206  20.811   0.946
59079W        W29679  38.437   0.913  12.982
59080W        W29680   4.376  37.573   4.198
59081W        W29681  22.932   1.947  10.770
59082W        W29682   9.398   6.361  11.572
59083W        W29683  29.004  43.194   0.120
59084W        W29684   1.485  19.154  13.048
59085W        W29685  37.978  41.327   4.513
59086W        W29686  43.939  43.534   3.106
59087W        W29687   5.947  27.089  13.152
59088W        W29688  25.661  38.495   4.225
59089W        W29689  32.503  21.058   1.888
59090W        W29690  10.198  11.794   0.486
59091W        W29691  31.345  28.435  11.939
59092W        W29692  13.260  44.810  11.700
59093W        W29693  29.945  10.642   2.768
59094W        W29694  34.466  43.089  10.810
59095W        W29695  21.821  10.265  10.592
59096W        W29696  12.720  40.467   2.822
59097W        W29697  40.042  42.379   0.524
59098W        W29698   6.184  30.284   0.820
59099W        W29699  42.781  38.380   3.873
59100W        W29700  36.389  11.669   0.765
59101W        W29701  14.534  32.139   1.757
59102W        W29702   7.952   7.885   2.364
59103W        W29703   8.933  16.513   1.402
59104W        W29704  21.852   9.711   4.964
59105W        W29705   5.757  30.884  12.176
59106W        W29706   9.572  41.369   4.192
59107W        W29707  17.382  12.773  14.282
59108W        W29708  14.488  29.372   4.331
59109W        W29709  43.577  15.443  14.893
59110W        W29710   7.365  10.965  11.696
59111W        W29711  38.310  34.597  12.402
59112W        W29712  43.249  37.501   4.563
59113W        W29713  22.741  28.528  14.694
59114W        W29714  44.891   2.372   2.905
59115W        W29715  19.811  12.227  11.486
59116W        W29716  44.747  40.927  14.799
59117W        W29717  16.994  30.922   4.338
59118W        W29718  37.893  32.626  11.600
59119W        W29719  31.734  27.617   1.381
59120W        W29720   0.900  38.160   2.685
59121W        W29721  32.848  12.756   2.409
59122W        W29722   3.127  11.107  14.448
59123W        W29723   3.922  20.918  12.482
59124W        W29724  16.038  35.152  14.787
59125W        W29725   4.897  33.522  14.962
59126W        W29726  22.176   5.452   2.809
59127W        W29727  43.056  38.131  14.358
59128W        W29728  17.331  37.065   2.972
59129W        W29729  44.146  35.916   1.627
59130W        W29730  33.065   7.699   4.609
59131W        W29731   1.920  27.119  14.780
59132W        W29732  17.189  12.808  12.371
59133W        W29733  35.491  43.741  13.423
59134W        W29734  14.173  39.110   4.830
59135W        W29735  21.533  21.446  14.351
59136W        W29736   9.408  17.052  11.578
59137W        W29737  27.664  24.555   2.467
59138W        W29738   4.131  44.444  13.044
59139W        W29739  15.079  14.760  14.382
59140W        W29740  35.603  33.400  14.926
59141W        W29741  40.837  41.663  13.061
59142W        W29742   9.471  25.200   3.541
59143W        W29743  27.490  18.269   2.287
59144W        W29744  11.314   4.731  13.049
59145W        W29745  30.563   8.405  11.183
59146W        W29746  26.126  38.398  10.766
59147W        W29747  17.350  10.025  13.985
59148W        W29748   4.333  38.864  13.633
59149W        W29749  24.589  13.813  12.831
59150W        W29750  36.033  39.358   1.643
59151W        W29751   5.377  19.512   2.431
59152W        W29752  20.345  37.923  10.991
59153W        W29753   7.465  36.341   1.332
59154W        W29754   8.255  11.803   0.938
59155W        W29755  27.984  35.945   0.372
59156W        W29756   9.284   5.762  13.099
59157W        W29757  12.902  28.119  10.675
59158W        W29758  22.300   7.243   2.378
59159W        W29759  30.506  30.836  10.620
59160W        W29760  40.356  17.721   3.360
59161W        W29761  31.295  14.666  12.872
59162W        W29762  43.469  41.644  13.014
59163W        W29763  30.590  14.276   1.562
59164W        W29764  23.737  32.467  10.603
59165W        W29765  26.867  40.908  11.654
59166W        W29766  42.865  36.902  11.041
59167W        W29767   2.873  37.959  12.040
59168W        W29768  40.967  10.691   4.652
59169W        W29769   4.011  32.262   2.171
59170W        W29770  12.286  29.952   4.684
59171W        W29771  31.548  30.920   4.626
59172W        W29772   4.307   8.209   1.608
59173W        W29773  31.152  38.373  13.428
59174W        W29774  26.157   9.901   3.665
59175W        W29775  21.506  28.013  10.796
59176W        W29776  16.235  27.987   1.960
59177W        W29777   4.160   8.278  14.770
59178W        W29778  18.537  17.686  14.922
59179W        W29779   5.474  26.536   0.355
59180W        W29780  22.170  15.551  13.881
59181W        W29781   8.777   6.434   4.491
59182W        W29782  43.824  28.886  12.963
59183W        W29783  22.477  39.759   4.172
59184W        W29784  36.229  44.910   3.250
59185W        W29785  43.963  16.106   0.622
59186W        W29786  24.968  23.005   4.101
59187W        W29787  15.875   4.939   2.847
59188W        W29788  40.436   9.521   1.360
59189W        W29789  15.121  16.651   0.744
59190W        W29790  29.611   7.972   2.699
59191W        W29791  13.141  12.164  11.950
59192W        W29792  17.263  10.697  12.425
59193W        W29793   7.321  37.097  12.094
59194W        W29794  40.883  37.590  13.049
59195W        W29795  37.562   8.043   0.890
59196W        W29796   1.452  34.367   1.819
59197W        W29797  23.951  33.624  11.151
59198W        W29798  17.572  12.375  13.367
59199W        W29799  26.208   0.927   5.099
59200W        W29800  43.359  44.484   2.746
59201W        W29801  33.348   2.572  14.806
59202W        W29802   9.231  39.271   0.779
59203W        W29803   5.162  27.913  11.924
59204W        W29804  11.816  16.324   0.831
59205W        W29805  30.055  27.254   4.523
59206W        W29806   3.548  15.767   0.509
59207W        W29807  41.760  28.599   2.748
59208W        W29808  42.352  18.540   2.392
59209W        W29809   8.421  16.984   0.234
59210W        W29810   1.243  20.306  13.425
59211W        W29811   6.853   7.621  12.397
59212W        W29812   4.710  44.226  13.823
59213W        W29813  25.893  33.566  14.385
59214W        W29814  17.709  14.829   2.679
59215W        W29815  13.282  43.810  14.710
59216W        W29816   8.390  42.611  11.440
59217W        W29817  20.313  26.918  10.915
59218W        W29818  44.321  29.763  12.046
59219W        W29819   2.700  29.003  12.103
59220W        W29820  10.244  29.595   4.606
59221W        W29821  44.303  38.865   3.322
59222W        W29822   8.692   3.569  13.628
59223W        W29823  38.316  40.410  13.511
59224W        W29824  34.602  24.544   0.743
59225W        W29825  43.809   3.772  12.794
59226W        W29826  29.372  12.575   3.845
59227W        W29827  43.366   3.754  14.543
59228W        W29828  15.263  16.852  14.860
59229W        W29829  29.216  43.850   0.874
59230W        W29830  28.291   6.634   4.715
59231W        W29831  12.174  32.300   4.916
59232W        W29832  44.506  44.983   0.483
59233W        W29833  25.959  26.561  12.588
59234W        W29834  20.183  27.740  13.541
59235W        W29835   2.662  15.197  13.072
59236W        W29836  43.234   8.738   4.157
59237W        W29837  36.053  12.916  10.633
59238W        W29838  22.077   6.957   2.807
59239W        W29839  36.218   3.145  14.481
59240W        W29840  34.828   0.407  12.567
59241W        W29841   7.791  33.179  14.973
59242W        W29842  29.143  39.138   2.760
59243W        W29843  39.522   3.920  13.281
59244W        W29844  35.167  39.368  13.424
59245W        W29845  41.832  35.907  12.511
59246W        W29846   7.281  41.024  11.816
59247W        W29847  28.039  19.270  13.332
59248W        W29848  11.189  42.753  11.842
59249W        W29849   8.296  23.326   1.982
59250W        W29850  25.055   5.131   2.182
59251W        W29851   5.372  38.985   3.460
59252W        W29852  39.622  23.743   0.883
59253W        W29853  35.195  19.772   4.191
59254W        W29854  28.190  41.721  14.430
59255W        W29855   6.108   7.275   5.123
59256W        W29856  13.574  23.514   1.905
59257W        W29857  26.183  30.647  12.236
59258W        W29858  13.162  33.040  11.599
59259W        W29859   6.010  17.201  10.252
59260W        W29860  27.007  38.521   0.974
59261W        W29861   3.495  29.190   2.698
59262W        W29862  43.233  20.610   1.721
59263W        W29863  14.265  14.583   1.904
59264W        W29864  12.364  19.736  13.258
59265W        W29865  29.532  32.189  11.113
59266W        W29866  24.227   7.753  14.370
59267W        W29867  25.615   3.455  14.529
59268W        W29868  37.024   4.858   1.140
59269W        W29869   6.829  15.019   1.254
59270W        W29870  44.084  34.972  13.870
59271W        W29871   2.083  35.095   3.192
59272W        W29872   0.763  15.759   5.056
59273W        W29873  28.232  24.801   4.926
59274W        W29874  19.300  13.720   1.506
59275W        W29875  20.669  42.235  13.533
59276W        W29876   6.191  23.083   3.699
59277W        W29877  39.342   6.300  13.072
59278W        W29878  11.058  44.823   2.856
59279W        W29879  30.967  22.200   4.032
59280W        W29880  13.742  31.624  10.688
59281W        W29881  30.667  42.547   5.006
59282W        W29882   2.019  19.590   1.689
59283W        W29883  35.537   3.783   2.434
59284W        W29884  43.269  35.990  14.204
59285W        W29885  27.714   0.184  13.738
59286W        W29886  30.193  18.620  11.751
59287W        W29887  25.051  36.884   1.686
59288W        W29888  16.930  24.429   2.735
59289W        W29889  12.221  31.940  13.904
59290W        W29890   1.286  43.767   2.658
59291W        W29891  37.179  24.670   4.094
59292W        W29892  15.958  39.898  11.019
59293W        W29893  32.620  25.120   4.925
59294W        W29894  32.806  37.896  11.268
59295W        W29895  23.254  26.808  11.933
59296W        W29896  16.583  17.017   1.957
59297W        W29897  14.200  37.340   4.707
59298W        W29898  30.917  35.086   0.989
59299W        W29899   4.703  21.733   3.570
59300W        W29900  26.550  24.300  13.814
59301W        W29901  17.045  23.265  10.712
59302W        W29902  10.865  42.582  10.949
59303W        W29903  43.104  13.071   2.358
59304W        W29904  40.850  41.808  13.558
59305W        W29905  24.132  36.544  14.977
59306W        W29906  36.906  15.344   4.634
59307W        W29907  25.453   1.756   3.253
59308W        W29908  27.192  30.556   3.500
59309W        W29909  27.130  27.174   0.379
59310W        W29910  31.040   9.863  14.146
59311W        W29911   6.883  11.579  13.993
59312W        W29912   0.643  21.615  14.668
59313W        W29913  28.113  15.412  11.063
59314W        W29914  14.018   1.956  11.580
59315W        W29915  43.738  43.916  12.344
59316W        W29916  11.890  28.477   1.339
59317W        W29917  38.454  36.245   0.266
59318W        W29918  20.039   2.174  13.010
59319W        W29919  26.649   3.854   3.678
59320W        W29920  16.672  22.073  12.415
59321W        W29921  33.049  13.572  12.670
59322W        W29922  10.719  40.730   2.278
59323W        W29923  20.942  34.430  14.901
59324W        W29924  19.375   3.045   0.665
59325W        W29925   1.332  12.646   4.782
59326W        W29926  39.522  44.298   3.799
59327W        W29927  31.965   9.576  10.656
59328W        W29928   6.609  17.193   5.006
59329W        W29929   9.926   1.807  12.910
59330W        W29930  29.874  34.966   2.106
59331W        W29931   5.676   8.227  13.717
59332W        W29932  33.971  26.901   3.578
59333W        W29933  13.386  10.415   3.905
59334W        W29934  37.369  24.730  11.161
59335W        W29935  10.837  13.348  10.623
59336W        W29936  30.038  27.747  13.182
59337W        W29937  40.370   1.556   3.835
59338W        W29938  20.617  26.617  13.812
59339W        W29939  35.537  20.713   2.218
59340W        W29940   3.116  39.878  11.051
59341W        W29941   6.431  34.333  13.916
59342W        W29942  40.709  14.329   1.324
59343W        W29943  21.291  43.708   0.430
59344W        W29944  15.147   3.396   4.588
59345W        W29945  23.423   2.965   1.375
59346W        W29946   5.240  25.709   3.823
59347W        W29947  26.561  40.262   4.577
59348W        W29948   9.215  11.160   4.189
59349W        W29949  36.588  16.107  11.183
59350W        W29950   7.394   5.974   2.313
59351W        W29951  15.676  31.511   3.797
59352W        W29952   4.659  41.133   4.584
59353W        W29953  12.913  22.680   3.651
59354W        W29954  25.173  24.804   3.858
59355W        W29955   9.512  40.419   2.132
59356W        W29956  41.684  13.749  14.303
59357W        W29957   2.476   3.667   3.229
59358W        W29958  39.873  11.848  13.914
59359W        W29959  17.141  25.457  12.408
59360W        W29960  17.609  15.232  11.143
59361W        W29961  34.586  36.833  11.982
59362W        W29962   6.725  31.331  12.200
59363W        W29963  31.871  19.982   2.848
59364W        W29964   2.046  16.897  12.871
59365W        W29965  28.188  44.578   3.146
59366W        W29966  31.151  38.086   2.754
59367W        W29967  18.611  33.048  13.382
59368W        W29968  33.684  18.424  14.938
59369W        W29969  18.017  40.905   1.388
59370W        W29970  36.047  35.087  14.725
59371W        W29971   3.428  42.942   5.266
59372W        W29972   8.399   2.084   2.746
59373W        W29973  41.204  28.902   4.775
59374W        W29974   3.519   8.811  14.508
59375W        W29975  12.616  11.152   1.756
59376W        W29976   0.782  16.831  13.414
59377W        W29977   7.004  16.793  11.671
59378W        W29978  38.911  40.605   1.209
59379W        W29979  27.734   4.704   2.850
59380W        W29980  19.349  23.191   2.784
59381W        W29981   4.351  39.954  11.563
59382W        W29982   6.130   2.412  12.457
59383W        W29983   0.149  24.396  12.298
59384W        W29984  17.552  31.703   1.348
59385W        W29985  30.342   6.925  14.375
59386W        W29986  10.339  41.929  13.969
59387W        W29987  27.954  29.018  12.397
59388W        W29988  31.586  28.049  11.195
59389W        W29989  20.036   1.068  12.436
59390W        W29990  33.176  25.560  12.810
59391W        W29991  38.110   7.155  10.505
59392W        W29992  39.596   2.015   1.740
59393W        W29993  17.315  21.029  12.015
59394W        W29994  20.071  37.331   0.067
59395W        W29995  11.915  28.975   2.719
59396W        W29996  44.537  17.186   1.911
59397W        W29997  23.549  32.862   0.362
59398W        W29998  13.700  20.029  13.781
59399W        W29999  44.295   1.528   0.127
59400W        W30000  41.742  39.548   2.753
59401W        W30001  38.738   6.195   1.307
59402W        W30002  22.684   3.512   4.578
59403W        W30003   0.444   2.510   2.251
59404W        W30004  10.086  40.321  10.784
59405W        W30005  25.029  37.365   1.312
59406W        W30006  26.499   5.768  14.795
59407W        W30007  41.115  23.657  12.371
59408W        W30008  12.429  36.030  11.530
59409W        W30009  23.536  19.583   4.651
59410W        W30010  29.135  37.422  13.915
59411W        W30011  30.026  20.209  14.856
59412W        W30012  22.483  42.690  10.756
59413W        W30013  24.461  12.895  11.431
59414W        W30014  32.595  32.773   1.754
59415W        W30015  37.100  31.956   0.572
59416W        W30016  28.116   3.426  13.911
59417W        W30017   5.852   5.617   1.762
59418W        W30018  25.858  39.002  12.629
59419W        W30019  31.956   5.164   5.114
59420W        W30020  10.673  27.265  14.726
59421W        W30021  41.357  38.943  12.874
59422W        W30022  36.963  20.755  14.320
59423W        W30023   0.390  38.086   2.483
59424W        W30024  14.134   8.325   4.317
59425W        W30025   5.716   9.504   1.461
59426W        W30026  23.008  24.704  12.025
59427W        W30027   7.511  30.008   4.076
59428W        W30028  10.615  32.586   0.614
59429W        W30029  11.369  23.606   4.565
59430W        W30030   7.969   1.205  14.719
59431W        W30031   7.601  19.290  13.444
59432W        W30032  10.272  19.074   4.498
59433W        W30033  11.708   6.170  12.220
59434W        W30034  31.746  39.742  12.055
59435W        W30035  34.780  36.866  11.191
59436W        W30036  39.317  30.529  12.061
59437W        W30037  24.148   6.396   2.885
59438W        W30038  30.134   7.249  12.408
59439W        W30039   3.809  22.719  13.830
59440W        W30040  37.443  22.916  14.487
59441W        W30041   3.054  20.749  10.457
59442W        W30042  41.586  42.819  12.381
59443W        W30043  33.034  29.945  14.844
59444W        W30044   4.524   7.461   4.135
59445W        W30045  33.350  33.894  13.785
59446W        W30046  30.161  34.070  14.076
59447W        W30047  28.393  28.649   0.818
59448W        W30048   6.759   4.435   3.690
59449W        W30049  25.453  33.405  12.020
59450W        W30050   6.401   8.931  11.536
59451W        W30051  19.479  27.826   5.459
59452W        W30052   8.370   6.436   2.783
59453W        W30053  21.481  15.357   2.315
59454W        W30054   9.138  37.518   2.781
59455W        W30055  26.729  16.927  14.733
59456W        W30056   6.661  26.025  11.109
59457W        W30057  21.269  43.246   3.529
59458W        W30058  23.805  36.927   3.606
59459W        W30059  16.689  32.060  10.356
59460W        W30060   4.188  20.666  11.570
59461W        W30061   8.910  24.054   2.470
59462W        W30062  35.992   3.407  11.117
59463W        W30063  29.918  33.108   2.160
59464W        W30064  42.248  16.764  12.790
59465W        W30065  41.975  16.077   3.785
59466W        W30066  43.880   1.436  12.428
59467W        W30067  19.228   5.278  12.976
59468W        W30068  17.481  23.581   1.372
59469W        W30069  22.786  18.473  11.549
59470W        W30070  37.784   3.749  14.910
59471W        W30071  17.713  37.968  12.050
59472W        W30072   9.471  23.289   4.135
59473W        W30073  13.345  20.072   3.622
59474W        W30074   4.349  34.985   4.758
59475W        W30075  28.653  15.883  12.164
59476W        W30076   9.305   3.198  12.440
59477W        W30077   9.351  31.379  10.745
59478W        W30078  30.120  32.093  11.999
59479W        W30079  31.420   6.373  12.933
59480W        W30080  34.237  29.961  14.776
59481W        W30081  11.643   7.385   5.023
59482W        W30082   9.570  38.907   0.070
59483W        W30083   2.309   1.115   1.189
59484W        W30084   8.645  31.808   4.442
59485W        W30085   5.045  14.072   3.118
59486W        W30086  19.631   5.414  13.964
59487W        W30087  11.229  28.512   3.741
59488W        W30088  39.328  15.652  14.426
59489W        W30089  17.478  29.579  11.898
59490W        W30090  23.148  29.657  13.600
59491W        W30091  26.138  34.037   2.838
59492W        W30092   4.465  44.101  10.978
59493W        W30093  30.985  35.327  11.138
59494W        W30094   0.097  24.162  10.602
59495W        W30095  41.308  41.863   4.654
59496W        W30096  10.131  31.638   3.410
59497W        W30097  20.643  23.108   0.285
59498W        W30098  25.288  43.799  14.750
59499W        W30099  35.071  30.153  13.554
59500W        W30100   7.903  35.321  14.031
59501W        W30101  31.998  44.252   0.941
59502W        W30102  11.205  19.103   0.279
59503W        W30103  44.074  32.481   0.363
59504W        W30104  10.584   3.733  14.480
59505W        W30105  25.090  35.844  14.275
59506W        W30106   3.441   6.008  14.477
59507W        W30107  13.508  33.640  13.386
59508W        W30108  10.368  40.971   3.003
59509W        W30109  34.783   3.975   4.368
59510W        W30110  40.483  30.635  10.409
59511W        W30111  23.721  23.416   3.786
59512W        W30112  43.731  43.187   1.768
59513W        W30113  13.622  12.105   2.880
59514W        W30114  11.683  43.721   1.861
59515W        W30115   1.324  18.620   4.391
59516W        W30116  27.696  40.462  10.618
59517W        W30117  35.993  43.894  14.776
59518W        W30118  26.633  16.191   2.872
59519W        W30119  31.719  16.074   3.141
59520W        W30120  16.149  21.427   2.910
59521W        W30121  40.632  12.868  10.739
59522W        W30122  30.978  40.715  14.733
59523W        W30123   3.383   0.498   3.613
59524W        W30124  18.856   2.224  11.921
59525W        W30125  13.559  35.476   2.920
59526W        W30126  32.616   7.384   4.653
59527W        W30127  25.150  14.978   0.000
59528W        W30128  27.240   7.128   3.335
59529W        W30129  42.023  37.242   4.100
59530W        W30130   4.844  27.463  13.938
59531W        W30131  18.857  38.386   2.227
59532W        W30132  43.288   6.553   3.349
59533W        W30133  10.240  24.466   2.214
59534W        W30134   7.323  16.652   2.814
59535W        W30135  22.590  13.700   4.612
59536W        W30136  43.473  24.020  11.474
59537W        W30137  24.629  17.540  13.841
59538W        W30138   7.287  32.126  11.988
59539W        W30139  23.259  26.751  11.206
59540W        W30140  38.376  38.805  13.039
59541W        W30141  20.281  23.529   2.697
59542W        W30142  12.285  36.580   2.876
59543W        W30143  20.755  26.057   3.278
59544W        W30144  13.549  19.638   0.278
59545W        W30145   0.746  32.118  11.539
59546W        W30146  11.307  27.616   1.384
59547W        W30147  32.128  14.357   2.434
59548W        W30148  20.173  21.675  11.420
59549W        W30149   0.400  23.876  11.236
59550W        W30150  18.896   2.971   0.849
59551W        W30151  29.887  33.647   3.759
59552W        W30152  38.325  32.346  11.500
59553W        W30153  25.838  29.013   1.355
59554W        W30154   0.909  28.312   2.258
59555W        W30155  42.460  40.775  12.084
59556W        W30156  17.271  40.910  12.673
59557W        W30157  16.182  30.419   3.839
59558W        W30158  23.859  32.454   2.734
59559W        W30159  32.620   7.320  11.555
59560W        W30160  32.900   4.840   3.248
59561W        W30161  39.512   5.381   2.919
59562W        W30162   4.667  36.979  14.218
59563W        W30163  21.731  36.741   0.335
59564W        W30164  28.727   5.275  11.924
59565W        W30165   8.795  27.388   2.862
59566W        W30166  22.489  43.933  13.485
59567W        W30167   7.522  14.253   3.568
59568W        W30168  28.498  25.452   0.762
59569W        W30169  26.956  16.113  14.779
59570W        W30170  20.361  24.854  11.115
59571W        W30171  18.747  16.705  14.482
59572W        W30172  43.270  30.599   0.089
59573W        W30173   1.160   7.720   2.787
59574W        W30174   3.273  35.919   4.106
59575W        W30175  36.879  44.397  13.916
59576W        W30176   1.308  34.674  11.982
59577W        W30177  23.239  20.750   3.857
59578W        W30178  40.602  40.304   1.304
59579W        W30179  23.709   1.796   4.383
59580W        W30180   7.777  43.546   3.140
59581W        W30181  27.359  36.928  12.545
59582W        W30182  24.457  35.511  14.699
59583W        W30183  35.297  36.049  14.321
59584W        W30184  13.555   9.596   2.252
59585W        W30185  11.631  39.680  13.164
59586W        W30186  32.016   7.705   1.461
59587W        W30187  29.556  44.308  14.024
59588W        W30188  26.011  24.925   3.787
59589W        W30189  32.926  29.626   0.720
59590W        W30190  11.634  40.286   4.691
59591W        W30191  39.866  30.482   2.813
59592W        W30192   3.730  20.681   0.508
59593W        W30193  13.811  28.436   0.752
59594W        W30194  31.506  33.144  13.916
59595W        W30195  34.055  32.222  11.114
59596W        W30196   7.591  30.900   0.907
59597W        W30197   6.255  24.729  11.219
59598W        W30198  23.563   1.962  11.628
59599W        W30199  37.235  35.785  13.310
59600W        W30200  23.928  10.946  12.442
59601W        W30201   3.861  12.584   0.764
59602W        W30202  10.483  40.369  12.510
59603W        W30203  33.593  37.954  10.748
59604W        W30204  37.768  35.966   2.233
59605W        W30205  21.568  30.053   3.318
59606W        W30206   9.678   5.848   0.818
59607W        W30207  38.764   6.754   0.455
59608W        W30208  22.286  35.999  12.472
59609W        W30209  13.112  23.766  14.514
59610W        W30210  22.970  17.300  14.322
59611W        W30211  23.762  41.946  11.092
59612W        W30212   3.615  29.990   4.925
59613W        W30213   4.716  42.377  14.929
59614W        W30214  26.246  18.324   2.395
59615W        W30215  40.087   5.696   1.282
59616W        W30216   2.039  23.542   0.015
59617W        W30217  21.707   4.318  14.776
59618W        W30218  38.610  37.445   4.631
59619W        W30219  35.422  28.188   0.753
59620W        W30220  14.243  40.386  10.011
59621W        W30221  44.542  32.580  10.682
59622W        W30222  24.409  18.516   0.984
59623W        W30223  39.014  36.403  10.239
59624W        W30224  33.966  22.187  14.489
59625W        W30225  15.021   5.231  14.345
59626W        W30226  37.937  34.429   4.161
59627W        W30227  32.133  39.126   4.620
59628W        W30228  41.104  13.013   0.352
59629W        W30229   3.187  22.511   0.516
59630W        W30230  39.318  19.754   1.760
59631W        W30231   1.383   4.699  14.927
59632W        W30232  27.189  10.272   2.303
59633W        W30233  23.699  11.542  10.969
59634W        W30234  10.704  29.198   4.209
59635W        W30235  17.600  23.010   4.099
59636W        W30236  27.519  26.278   0.357
59637W        W30237  35.428  11.896  13.583
59638W        W30238  44.573  20.076   2.853
59639W        W30239   1.255  31.050   4.548
59640W        W30240   2.142   6.451   1.775
59641W        W30241   6.887   2.789   0.425
59642W        W30242  27.408  31.510   0.483
59643W        W30243   4.819  27.088   0.864
59644W        W30244  24.714   3.970  14.936
59645W        W30245  26.643  38.961  13.946
59646W        W30246  40.458   4.213  13.448
59647W        W30247  31.922  15.687  10.877
59648W        W30248  40.747   1.459  14.274
59649W        W30249  36.868  14.271  12.843
59650W        W30250  41.824  37.938   1.349
59651W        W30251  15.622   5.955   0.801
59652W        W30252  12.771  22.983   2.947
59653W        W30253  44.911   7.549   0.200
59654W        W30254  19.973   0.401   4.655
59655W        W30255  10.402  38.851  13.003
59656W        W30256   3.492  19.067  11.164
59657W        W30257  11.445  29.088   0.719
59658W        W30258   3.187  12.358   1.169
59659W        W30259   2.676  43.842  10.751
59660W        W30260  30.526  44.266  10.609
59661W        W30261  22.024  39.343   3.576
59662W        W30262  38.019  40.295   1.368
59663W        W30263  31.692   8.912   2.171
59664W        W30264  12.221  23.927  13.041
59665W        W30265   8.680   4.494  11.536
59666W        W30266  28.467  30.936   3.427
59667W        W30267  21.579  27.547   0.104
59668W        W30268  26.659  32.046   3.352
59669W        W30269  13.076   1.917  14.745
59670W        W30270  44.360  19.428   4.782
59671W        W30271  33.187  42.965  11.933
59672W        W30272   6.991  38.306   0.809
59673W        W30273  43.875  44.015   1.422
59674W        W30274  36.362  29.166  10.759
59675W        W30275  22.447  38.137  14.436
59676W        W30276  30.596  39.969   2.673
59677W        W30277  20.586  19.425   1.854
59678W        W30278  40.905  13.198  14.893
59679W        W30279  42.378   3.794   0.679
59680W        W30280  38.485  42.024  13.575
59681W        W30281  40.918  19.326  12.098
59682W        W30282   8.805  34.798   0.321
59683W        W30283  25.513  42.242   2.824
59684W        W30284  41.868  22.621   3.781
59685W        W30285  41.355  16.312   2.776
59686W        W30286  32.823  21.057   3.282
59687W        W30287  28.890  43.767  14.406
59688W        W30288  16.117  10.699  13.931
59689W        W30289   2.276  31.412   2.858
59690W        W30290  22.430  30.121  13.460
59691W        W30291   3.980   7.492  13.273
59692W        W30292  40.223  35.107  12.351
59693W        W30293  18.094  44.411  12.083
59694W        W30294  36.835   9.313  12.366
59695W        W30295  36.878  24.187   0.320
59696W        W30296   0.544  23.208  10.719
59697W        W30297  30.742  19.135   4.781
59698W        W30298  40.037  24.983   4.680
59699W        W30299  42.043  13.911   2.682
59700W        W30300  28.627  27.846   3.272
59701W        W30301  19.728  20.656   4.843
59702W        W30302   7.197  28.123   4.623
59703W        W30303  26.482  26.000  14.260
59704W        W30304  37.625   7.204  10.687
59705W        W30305  12.091   6.769   0.908
59706W        W30306  44.943  41.225   0.821
59707W        W30307  24.865  35.772   1.720
59708W        W30308   9.830  11.945   4.299
59709W        W30309  31.595  13.794  14.836
59710W        W30310   0.902  17.235  11.376
59711W        W30311   7.416  39.667  11.891
59712W        W30312   4.385   5.027   3.743
59713W        W30313   5.749  22.711  11.118
59714W        W30314  10.021   6.691  13.393
59715W        W30315  40.261  33.648  14.737
59716W        W30316  18.315  35.064  13.144
59717W        W30317  37.749  23.633   0.311
59718W        W30318  30.990  10.511   2.763
59719W        W30319  20.069  37.147   0.925
59720W        W30320   8.151  10.852   0.266
59721W        W30321  38.989   2.461   0.465
59722W        W30322   0.791   2.851   2.437
59723W        W30323  29.370  26.432   0.612
59724W        W30324  37.667  31.066   0.397
59725W        W30325  38.060  24.240  14.519
59726W        W30326   3.663   9.365  13.485
59727W        W30327  41.336   6.407  12.846
59728W        W30328   0.354  42.865   0.457
59729W        W30329  30.125   3.904   3.764
59730W        W30330  39.314   3.942  12.816
59731W        W30331  42.006  25.855   4.671
59732W        W30332  37.149  15.332   1.857
59733W        W30333  27.474  36.212   4.629
59734W        W30334  19.284  34.836   1.874
59735W        W30335  10.978  30.715  11.906
59736W        W30336   0.867  17.206  11.877
59737W        W30337  17.319  35.100   0.930
59738W        W30338  17.330  38.086   1.345
59739W        W30339   8.708   7.060   3.240
59740W        W30340  17.672  37.512  11.223
59741W        W30341  41.319  25.637  10.606
59742W        W30342  22.876   8.824   1.586
59743W        W30343   7.621  32.835   0.415
59744W        W30344  41.850  24.222  11.210
59745W        W30345  39.134   9.858  12.512
59746W        W30346   1.263   0.920  11.440
59747W        W30347  42.458  11.858  14.895
59748W        W30348  39.382  31.970   4.216
59749W        W30349  34.048  14.844   0.407
59750W        W30350   6.106  41.811   0.198
59751W        W30351  11.261  24.449   0.897
59752W        W30352  36.415   3.975  14.999
59753W        W30353  41.080  28.928  14.504
59754W        W30354  13.451  11.010   1.389
59755W        W30355  41.748  42.590   2.173
59756W        W30356  17.547  19.944   1.326
59757W        W30357  25.132   9.396  14.807
59758W        W30358  24.005  19.315  11.493
59759W        W30359  16.197  33.205  11.185
59760W        W30360  18.634   2.867   5.431
59761W        W30361  39.736  14.583  14.954
59762W        W30362  11.262  38.192   3.783
59763W        W30363  27.631  15.185  13.448
59764W        W30364  27.451  34.551   3.633
59765W        W30365  35.967  13.867   1.389
59766W        W30366  10.148  14.883  12.887
59767W        W30367  23.566  32.471  13.609
59768W        W30368   5.129  20.230  14.374
59769W        W30369  37.130  13.098   2.307
59770W        W30370  36.928  16.677  14.215
59771W        W30371  19.445   3.160  14.325
59772W        W30372  32.525  31.310   4.479
59773W        W30373  18.650  23.457  13.013
59774W        W30374  14.389  32.618  11.115
59775W        W30375  37.820  32.879   0.228
59776W        W30376  21.716  17.633   2.589
59777W        W30377  28.214  14.136  12.472
59778W        W30378  37.902  17.301  11.528
59779W        W30379  39.889  33.963   0.601
59780W        W30380  35.380  27.851  12.062
59781W        W30381  26.249  15.560  12.899
59782W        W30382  26.234  38.471   4.905
59783W        W30383  42.560  32.607  13.567
59784W        W30384  14.843  39.816   4.618
59785W        W30385  27.133  27.938   1.659
59786W        W30386  30.125  19.784  12.307
59787W        W30387  21.055  21.669  11.965
59788W        W30388  35.967   0.368   2.372
59789W        W30389  10.132  28.621  12.736
59790W        W30390  32.259   2.484   4.685
59791W        W30391  31.183  28.603  10.633
59792W        W30392  19.646  16.617   3.592
59793W        W30393  37.829  43.855   1.424
59794W        W30394  23.818   7.168  10.224
59795W        W30395   0.534   0.462   3.293
59796W        W30396   4.730  14.142  12.116
59797W        W30397   1.281  37.584  13.496
59798W        W30398  16.381  28.948  10.111
59799W        W30399  18.396   6.268   2.843
59800W        W30400  16.149  23.209  11.103
59801W        W30401   2.179  31.516  12.001
59802W        W30402  42.549  30.938  13.791
59803W        W30403  43.984  13.720   3.407
59804W        W30404  19.587  25.009   0.907
59805W        W30405  37.423  38.022  12.514
59806W        W30406  31.404  21.828  12.622
59807W        W30407  12.847  40.014  12.550
59808W        W30408  27.206  26.684  12.961
59809W        W30409  24.349  33.193  12.011
59810W        W30410  39.231  16.146   4.160
59811W        W30411  17.212  44.112  12.611
59812W        W30412  11.550  16.253   3.581
59813W        W30413  17.127  26.791  12.022
59814W        W30414   1.229  44.524  12.925
59815W        W30415  29.488  18.605  12.960
59816W        W30416  26.031  40.871   3.243
59817W        W30417  28.944  26.179  13.059
59818W        W30418  34.877   7.131   4.312
59819W        W30419  44.289  19.689   0.227
59820W        W30420  14.579   7.772  14.524
59821W        W30421  44.736  35.985  14.438
59822W        W30422  22.378  19.994   4.126
59823W        W30423   7.761  31.492   3.474
59824W        W30424  35.098  23.608   0.888
59825W        W30425  30.700   5.979  13.473
59826W        W30426   1.061  40.477  11.592
59827W        W30427  33.362   0.702  14.273
59828W        W30428  25.576   9.538   1.276
59829W        W30429  28.432  12.906  13.919
59830W        W30430  10.325  14.721   0.396
59831W        W30431  43.515  31.407  12.449
59832W        W30432  32.647  41.529   0.154
59833W        W30433   6.957  25.704   2.122
59834W        W30434   2.207   1.901   1.764
59835W        W30435  44.762   5.716  14.599
59836W        W30436  32.323  17.719   3.660
59837W        W30437  43.902  17.168   3.839
59838W        W30438  38.738   7.215  13.960
59839W        W30439  43.739  31.481   3.583
59840W        W30440  24.192  19.159   0.677
59841W        W30441  29.472   1.331   0.791
59842W        W30442  24.589  21.549  10.832
59843W        W30443   6.750  14.797  13.743
59844W        W30444   6.141  24.984   1.997
59845W        W30445  27.239  42.989   5.009
59846W        W30446   2.480  15.303  14.892
59847W        W30447   7.124  20.164   1.154
59848W        W30448  27.612  42.958  14.549
59849W        W30449  25.137  29.939   3.617
59850W        W30450   8.311  41.508  13.957
59851W        W30451  22.262   1.304  11.021
59852W        W30452  15.565  36.884  12.540
59853W        W30453  33.582   9.648  11.135
59854W        W30454   6.224  41.006   3.244
59855W        W30455  13.061   4.893  12.551
59856W        W30456  23.698  44.367  12.100
59857W        W30457   9.983  15.278  13.387
59858W        W30458  42.751   6.710   2.146
59859W        W30459  11.617  14.582  11.137
59860W        W30460   9.868   0.224   3.707
59861W        W30461   6.536  36.035  12.537
59862W        W30462  38.460  16.263  10.991
59863W        W30463  43.895  22.300  11.596
59864W        W30464  12.629  33.495   0.258
59865W        W30465  39.069   0.889  11.982
59866W        W30466  28.624   2.495  15.000
59867W        W30467  43.391  41.046  14.473
59868W        W30468  18.860  39.388  11.088
59869W        W30469  23.737  33.614   4.232
59870W        W30470   4.280  23.625  14.418
59871W        W30471   2.312   4.637   2.368
59872W        W30472  30.086  27.680  12.130
59873W        W30473  29.659  12.437  11.799
59874W        W30474  17.198  44.031   4.558
59875W        W30475   7.678  28.085  12.115
59876W        W30476  29.395  24.163   2.647
59877W        W30477   2.965  26.018  11.873
59878W        W30478  26.747  19.476   4.295
59879W        W30479  41.147  28.962  10.945
59880W        W30480  29.399   3.683   4.203
59881W        W30481  32.641  29.737   4.665
59882W        W30482  35.384  33.901   1.384
59883W        W30483  29.346  42.069  12.954
59884W        W30484   9.811  18.342  12.005
59885W        W30485  21.491  10.752  14.351
59886W        W30486  33.085   8.623   4.206
59887W        W30487  38.783  20.238  13.788
59888W        W30488  44.391   8.499   0.844
59889W        W30489  17.735  25.255   1.062
59890W        W30490  33.529   3.452   2.401
59891W        W30491  16.826  16.628  13.105
59892W        W30492  34.482  26.598   0.859
59893W        W30493  37.360  14.247  11.241
59894W        W30494  41.429  31.446  11.714
59895W        W30495  37.798   6.916   0.331
59896W        W30496  33.897  37.872  11.147
59897W        W30497  12.448  40.080  13.833
59898W        W30498  18.720   0.736   1.325
59899W        W30499  23.506  20.191  10.496
59900W        W30500  42.970  14.727   1.441
59901W        W30501  27.289  22.524  14.427
59902W        W30502   0.677   8.916   2.309
59903W        W30503  39.756  26.756  12.874
59904W        W30504  32.100  23.967   3.606
59905W        W30505  38.224  23.669   2.301
59906W        W30506   4.774  25.742   1.772
59907W        W30507  13.692  36.462  14.474
59908W        W30508  31.411  19.699  10.640
59909W        W30509  34.756   0.949  13.038
59910W        W30510  34.006  38.524   0.225
59911W        W30511  24.551  29.999   1.486
59912W        W30512  41.872  13.176   3.917
59913W        W30513   4.435   9.449  10.395
59914W        W30514  30.159  36.350   3.259
59915W        W30515   9.963  23.125   4.194
59916W        W30516  21.514  33.070  12.605
59917W        W30517   5.290  23.455   3.625
59918W        W30518   9.606  27.456   0.649
59919W        W30519  37.857   8.929  14.409
59920W        W30520  16.113  37.875   0.674
59921W        W30521  43.531  41.542  14.386
59922W        W30522  39.585  33.333  12.908
59923W        W30523   9.343  20.800   0.916
59924W        W30524   2.943  33.959  11.744
59925W        W30525  18.714  15.272   4.099
59926W        W30526   8.377  27.326   1.239
59927W        W30527   1.403  43.403   0.794
59928W        W30528  43.590   4.544   3.748
59929W        W30529  11.309  41.506  11.473
59930W        W30530  27.007  28.400  12.442
59931W        W30531  26.671   9.867   1.746
59932W        W30532  37.945  26.252   0.854
59933W        W30533  41.881   9.793  11.976
59934W        W30534  25.125   4.978   4.251
59935W        W30535  13.611  23.919   2.242
59936W        W30536  32.856  40.097  12.502
59937W        W30537  14.042   8.401  14.706
59938W        W30538  34.788  40.338  14.201
59939W        W30539  23.471  32.005   1.288
59940W        W30540   1.291  32.521  14.821
59941W        W30541  13.996  11.715   4.706
59942W        W30542  28.986  15.645   0.544
59943W        W30543  23.626   5.990  12.565
59944W        W30544  23.524  41.511  12.694
59945W        W30545  16.763   2.857  12.018
59946W        W30546  31.960  34.557  11.903
59947W        W30547  20.484  32.732   0.420
59948W        W30548  38.779  29.880  13.941
59949W        W30549  33.404  36.763  14.457
59950W        W30550  40.784   8.315  11.145
59951W        W30551  28.012  39.450  12.910
59952W        W30552   1.692  30.194  14.883
59953W        W30553  34.189  35.303   1.314
59954W        W30554  36.999  24.212  13.463
59955W        W30555   2.356   4.949   1.948
59956W        W30556  35.300  15.646   4.861
59957W        W30557  38.007   7.403   3.205
59958W        W30558  15.612  32.557   0.909
59959W        W30559  19.838  34.106   2.033
59960W        W30560   8.641  31.630  12.845
59961W        W30561  11.493  24.232   1.319
59962W        W30562  23.131  34.915   3.979
59963W        W30563   5.435   2.811  14.812
59964W        W30564  16.134  20.858   3.737
59965W        W30565  29.576  41.900   1.250
59966W        W30566  41.867   8.234   2.671
59967W        W30567  38.360   3.241   3.017
59968W        W30568  10.128  17.689   0.471
59969W        W30569  23.657  27.678   2.346
59970W        W30570   2.712  18.325  13.654
59971W        W30571  32.415  10.159   0.851
59972W        W30572  44.149  30.948   3.571
59973W        W30573  10.151  16.318  13.027
59974W        W30574  44.891  42.136  14.367
59975W        W30575  14.698  25.717  13.047
59976W        W30576   2.420  10.140   4.892
59977W        W30577   1.835  14.068   4.342
59978W        W30578  42.579  21.094   1.381
59979W        W30579  26.733  16.296   1.419
59980W        W30580   8.315   9.411   3.138
59981W        W30581   0.454  17.559  13.956
59982W        W30582   5.872  14.093   0.573
59983W        W30583   9.546  22.995   0.018
59984W        W30584  20.273  24.077  14.579
59985W        W30585  34.071  16.769   1.859
59986W        W30586   5.835   8.069   0.263
59987W        W30587  39.772   5.946   5.186
59988W        W30588   5.948  27.245  14.937
59989W        W30589  29.511  20.689  10.687
59990W        W30590  15.222   5.174   0.848
59991W        W30591  27.659  40.984  14.399
59992W        W30592  23.778   5.085   0.919
59993W        W30593  14.963  15.203   1.896
59994W        W30594  38.820   4.831   4.487
59995W        W30595  28.482   7.533   5.000
59996W        W30596   1.181  11.902  14.740
59997W        W30597  31.065  23.456   3.915
59998W        W30598   1.293  19.577   2.766
59999W        W30599  14.720  19.710  14.956
60000W        W30600  36.110  41.298   2.664
60001W        W30601   9.657  20.224   4.344
60002W        W30602  31.598  19.451   4.565
60003W        W30603   7.416  39.872  13.647
60004W        W30604  12.568  16.819   0.841
60005W        W30605  23.158   1.141  12.897
60006W        W30606  20.809   8.281  14.970
60007W        W30607  28.474  15.526  12.519
60008W        W30608  36.387  29.644   2.630
60009W        W30609  37.977  24.571  13.611
60010W        W30610  14.167   4.040   3.334
60011W        W30611  32.890  22.190  11.655
60012W        W30612  28.416  16.690   4.704
60013W        W30613  18.502  13.124  11.680
60014W        W30614  33.624   8.854   2.852
60015W        W30615   0.972  18.284  11.728
60016W        W30616  30.630  27.489  14.799
60017W        W30617  27.690  44.691   3.139
60018W        W30618  18.829   3.300   2.865
60019W        W30619  15.758  16.865   1.877
60020W        W30620  26.370  33.792  12.020
60021W        W30621  30.159  39.382  12.404
60022W        W30622  35.320  31.850  13.869
60023W        W30623   6.853   2.749  14.339
60024W        W30624  35.445  31.112   0.734
60025W        W30625  41.269  24.432  14.618
60026W        W30626  20.588  22.604   2.880
60027W        W30627   5.967  32.906   4.359
60028W        W30628   5.162  34.106   1.661
60029W        W30629   8.665  35.344  12.515
60030W        W30630  13.342  15.161  14.510
60031W        W30631  26.191   9.405   4.426
60032W        W30632  25.641   0.371  14.341
60033W        W30633  44.411   1.968  13.073
60034W        W30634  35.095  21.692   2.338
60035W        W30635   5.486  32.481  11.142
60036W        W30636  11.055  37.059  12.895
60037W        W30637  28.208  41.415   3.354
60038W        W30638  15.087  34.608  12.900
60039W        W30639  27.675  27.614  12.547
60040W        W30640  18.522  44.704   2.256
60041W        W30641  21.330  44.142   2.302
60042W        W30642   5.261  36.283  11.637
60043W        W30643  34.425  21.988  11.427
60044W        W30644  29.162  26.619   3.423
60045W        W30645  28.003   6.944  10.714
60046W        W30646  35.528   2.946   1.491
60047W        W30647  44.330   6.804   2.785
60048W        W30648  10.100  32.962  10.734
60049W        W30649  37.476   5.223  12.893
60050W        W30650  11.770  35.069  10.728
60051W        W30651   7.756  23.737  10.676
60052W        W30652  17.437  17.818  13.568
60053W        W30653  43.831  34.653   1.293
60054W        W30654  23.734   2.722   3.900
60055W        W30655   6.101  43.229   4.579
60056W        W30656  42.103  27.688   2.295
60057W        W30657  31.165  37.516  12.893
60058W        W30658  15.376  13.085   1.883
60059W        W30659  21.896  19.551   2.202
60060W        W30660   0.782  27.065  12.618
60061W        W30661   3.313  40.489   2.426
60062W        W30662  11.641  23.711   4.140
60063W        W30663  22.828   3.369  11.643
60064W        W30664  20.073  33.400  14.057
60065W        W30665  28.200  10.382   1.471
60066W        W30666   4.256   6.404  10.825
60067W        W30667  26.037  26.194  14.505
60068W        W30668  38.552  39.408  11.927
60069W        W30669   9.878  10.221   0.314
60070W        W30670  27.742   2.044  14.812
60071W        W30671  18.987  28.420   3.102
60072W        W30672   1.931  21.724   4.855
60073W        W30673  21.615  44.879  11.699
60074W        W30674  42.800  30.686   0.423
60075W        W30675  11.906  16.344   4.441
60076W        W30676  24.770  28.036   1.365
60077W        W30677   6.773   8.080   0.329
60078W        W30678  31.602  32.948  11.158
60079W        W30679   3.354  39.014  14.373
60080W        W30680  37.288   7.373   4.357
60081W        W30681  27.703   7.506   0.542
60082W        W30682  38.976   3.969  10.592
60083W        W30683   7.764   2.708  11.742
60084W        W30684   3.940  23.030   1.046
60085W        W30685  29.214  20.399  14.517
60086W        W30686  10.933  31.007  11.416
60087W        W30687  21.084  35.608  12.043
60088W        W30688  36.332  11.369   1.545
60089W        W30689  27.232  29.658   3.681
60090W        W30690  18.418  23.734   0.216
60091W        W30691   9.957  25.001  12.035
60092W        W30692  21.087  39.128   1.950
60093W        W30693  28.536  26.032  11.891
60094W        W30694  20.068   2.030   4.154
60095W        W30695  31.125  39.462  13.354
60096W        W30696  23.081  40.385   2.766
60097W        W30697  33.900  27.389  11.991
60098W        W30698  12.368  33.873  10.891
60099W        W30699  35.454  42.797   3.199
60100W        W30700  18.058   2.257  13.421
60101W        W30701   0.356  40.329   2.250
60102W        W30702  28.849  16.250  13.918
60103W        W30703  15.007  44.538   2.825
60104W        W30704   4.784  16.647   3.662
60105W        W30705  26.659   7.055  11.461
60106W        W30706  23.779  20.860  14.503
60107W        W30707  20.817  29.831   2.036
60108W        W30708   9.208  28.096  10.896
60109W        W30709  40.798  22.445   1.450
60110W        W30710  30.482  10.835  13.266
60111W        W30711  15.632  43.899   3.179
60112W        W30712  12.795   8.850   1.261
60113W        W30713  34.480  31.861   2.210
60114W        W30714  40.325  38.326  13.460
60115W        W30715   9.153  15.232   0.761
60116W        W30716   6.113  17.084   2.710
60117W        W30717  15.249  19.004  11.504
60118W        W30718   6.727  18.287   2.286
60119W        W30719   4.207   9.860   3.682
60120W        W30720  39.906   4.404  14.965
60121W        W30721  10.988   2.276  11.193
60122W        W30722  35.557  41.713  11.214
60123W        W30723  21.108  18.570   0.938
60124W        W30724   1.468  44.482   3.235
60125W        W30725   6.671  13.364  13.025
60126W        W30726  43.514  18.500  10.030
60127W        W30727  17.136  39.098  10.627
60128W        W30728  39.846  41.268   2.731
60129W        W30729  25.167  31.349  11.117
60130W        W30730   6.252   7.962  14.478
60131W        W30731  10.795  18.387  13.667
60132W        W30732   8.083  10.341   0.082
60133W        W30733  28.916   1.424   0.793
60134W        W30734  17.208  26.466   0.960
60135W        W30735  28.976  15.812  11.463
60136W        W30736  13.558   0.872   4.266
60137W        W30737  22.609   9.661  12.137
60138W        W30738  19.077  40.019   3.600
60139W        W30739  38.468  38.081  13.497
60140W        W30740  36.938  29.641  11.226
60141W        W30741  22.689  28.717   4.061
60142W        W30742  10.446   3.420   2.675
60143W        W30743  37.630  13.131   2.299
60144W        W30744   2.207  26.779  13.797
60145W        W30745   5.496  21.140   4.221
60146W        W30746   3.455  28.448  12.177
60147W        W30747   0.958   6.242  10.810
60148W        W30748   7.286  14.824   2.213
60149W        W30749  31.256  18.364   1.224
60150W        W30750  33.633  32.187   4.892
60151W        W30751  23.222  13.804  13.068
60152W        W30752  14.748  30.639  12.093
60153W        W30753  25.607  34.054   1.483
60154W        W30754  19.685   8.658  11.894
60155W        W30755  22.539  43.460   1.925
60156W        W30756  11.289   9.200   1.299
60157W        W30757  10.625  14.988   4.871
60158W        W30758  21.574  23.906   4.575
60159W        W30759  30.474   1.973  12.090
60160W        W30760  14.921  20.142   4.086
60161W        W30761  39.521  13.187   1.207
60162W        W30762  17.883   5.895   3.230
60163W        W30763  12.500  27.676  13.707
60164W        W30764  13.581   7.206  13.839
60165W        W30765  16.308  17.621   2.740
60166W        W30766   3.237  13.938  13.022
60167W        W30767  23.798  39.279   2.809
60168W        W30768  44.241  12.307  10.627
60169W        W30769   7.316  40.938  12.801
60170W        W30770   5.483   9.721  12.117
60171W        W30771  44.826  42.266  11.107
60172W        W30772  10.153  33.161  12.471
60173W        W30773  10.212  37.682  10.622
60174W        W30774  19.244  12.362   3.807
60175W        W30775   5.177   1.155   2.378
60176W        W30776  18.847  11.433   4.377
60177W        W30777  29.810  20.016   0.299
60178W        W30778  43.729   3.440   0.475
60179W        W30779   6.479  39.666  12.011
60180W        W30780  36.607  23.533  13.782
60181W        W30781  23.564  19.580  11.449
60182W        W30782  18.582  34.031   0.252
60183W        W30783   0.474  33.588  14.288
60184W        W30784   7.640  13.868   1.268
60185W        W30785   7.904  10.952  11.494
60186W        W30786  11.685  28.676   3.557
60187W        W30787  26.129   3.730   2.384
60188W        W30788   4.516  18.724  13.934
60189W        W30789  25.125   1.643   0.853
60190W        W30790   6.204  40.611   4.557
60191W        W30791   2.468  42.011   2.114
60192W        W30792  30.421  13.835  10.451
60193W        W30793  33.968  18.226   3.098
60194W        W30794   1.261   8.413   4.300
60195W        W30795  19.495  17.593  10.710
60196W        W30796  17.518  13.198  14.825
60197W        W30797  32.358  32.452   3.740
60198W        W30798  34.166  19.136   2.394
60199W        W30799  30.062  23.523  10.668
60200W        W30800  10.279  20.705   1.314
60201W        W30801   8.971   9.952   2.714
60202W        W30802  28.157  23.386  13.470
60203W        W30803   2.688   2.657  11.887
60204W        W30804  10.358  30.975  13.019
60205W        W30805   5.707  21.290   2.335
60206W        W30806  17.098   4.517  13.142
60207W        W30807  31.560  33.641  13.879
60208W        W30808  42.625  18.135   3.363
60209W        W30809  14.717  13.490  12.047
60210W        W30810  19.729  17.254  14.765
60211W        W30811  26.419  21.035   3.727
60212W        W30812   1.094  28.184  14.324
60213W        W30813  10.164   4.216  13.573
60214W        W30814  41.446  14.329   0.361
60215W        W30815  24.342  43.571  11.884
60216W        W30816   9.301  29.972  13.905
60217W        W30817   9.797  30.046  14.040
60218W        W30818  41.912  44.721   2.625
60219W        W30819  14.670  19.924  11.214
60220W        W30820  16.634  28.906  12.892
60221W        W30821  21.706   9.791  10.763
60222W        W30822  32.557   3.455   4.532
60223W        W30823  37.417  34.623   3.722
60224W        W30824  43.234  10.450  13.274
60225W        W30825  40.087  23.023   0.174
60226W        W30826  14.999  10.681  10.833
60227W        W30827  44.004   8.283  13.520
60228W        W30828   5.270  12.564  11.891
60229W        W30829  27.995   6.188  14.254
60230W        W30830   7.105  17.373  14.316
60231W        W30831   6.718  39.439  12.420
60232W        W30832  27.522  23.185  14.938
60233W        W30833   4.736  17.016  14.783
60234W        W30834  20.438  13.902  13.143
60235W        W30835  29.310  39.788  11.725
60236W        W30836   9.031  17.211   0.857
60237W        W30837   6.851  18.078  14.756
60238W        W30838  10.847   6.507  14.218
60239W        W30839  37.201  27.028   3.592
60240W        W30840   3.340   5.733  13.827
60241W        W30841  29.652  21.367  12.864
60242W        W30842  28.699  23.789  11.560
60243W        W30843  31.879   5.914   4.571
60244W        W30844   5.380  42.295   4.658
60245W        W30845  24.584  38.553  10.678
60246W        W30846   0.399  37.645   2.814
60247W        W30847  18.997  44.567   2.013
60248W        W30848  20.316  26.301   3.339
60249W        W30849  28.026   1.614   4.109
60250W        W30850   1.933  11.428   2.417
60251W        W30851  38.547  17.403   4.546
60252W        W30852  18.921  14.969  13.445
60253W        W30853  31.994   1.549  13.298
60254W        W30854  33.965  38.253   2.800
60255W        W30855  20.276  38.171  12.569
60256W        W30856  44.058  32.627   4.334
60257W        W30857  21.304   5.021  12.427
60258W        W30858  44.357  28.499   4.242
60259W        W30859  37.353  44.399  12.864
60260W        W30860  29.601   3.153   1.265
60261W        W30861  31.552   1.381   1.652
60262W        W30862  30.909  22.955  12.205
60263W        W30863   3.216  36.566   3.201
60264W        W30864  25.220  16.576   0.812
60265W        W30865   3.852   6.708  14.189
60266W        W30866   0.101   9.013  12.910
60267W        W30867  20.547  12.337  11.007
60268W        W30868  21.075  12.315   3.470
60269W        W30869  28.538  27.335   3.224
60270W        W30870  26.432  23.289   4.087
60271W        W30871  10.203  32.460  10.706
60272W        W30872  31.015  31.747  13.480
60273W        W30873  44.838  35.332   1.315
60274W        W30874   4.227   7.018   2.926
60275W        W30875  21.092  31.236   3.720
60276W        W30876  44.427  36.802  14.410
60277W        W30877  36.124  20.137  12.516
60278W        W30878  34.002  22.179  12.401
60279W        W30879  13.077   1.777   4.300
60280W        W30880   4.887  44.778  14.705
60281W        W30881  30.615  30.426  11.394
60282W        W30882  24.973  29.606  11.609
60283W        W30883  23.931  26.445   4.925
60284W        W30884  12.684  14.786   4.087
60285W        W30885   7.182  25.115   3.250
60286W        W30886   3.731   3.213   2.914
60287W        W30887  36.096   2.347  11.147
60288W        W30888  24.944   0.448   4.610
60289W        W30889  38.416  37.905  12.204
60290W        W30890  22.658  22.075   1.435
60291W        W30891  40.955   5.780  12.193
60292W        W30892   6.006  27.631  10.703
60293W        W30893   9.807   4.862   2.230
60294W        W30894  12.114  31.818   2.096
60295W        W30895  40.534  38.074  11.306
60296W        W30896  15.760  25.378   0.385
60297W        W30897   2.965  22.291   4.141
60298W        W30898   1.274  10.973  14.940
60299W        W30899  18.233  31.950   1.788
60300W        W30900  12.243   5.220   2.709
60301W        W30901   5.188  29.693  12.632
60302W        W30902   6.413  38.451   2.745
60303W        W30903  28.888  11.560  13.311
60304W        W30904  11.220   5.000   4.497
60305W        W30905  17.105   7.317   3.127
60306W        W30906   4.827  43.511   1.853
60307W        W30907  17.068   7.087   1.610
60308W        W30908  42.629  32.172  14.324
60309W        W30909  35.549  19.396  14.034
60310W        W30910  26.980  43.832   2.301
60311W        W30911  41.403  34.015   1.861
60312W        W30912  40.502  17.503  12.542
60313W        W30913  44.986  24.870  14.343
60314W        W30914  10.231  32.132   4.775
60315W        W30915   7.841  34.002   0.747
60316W        W30916   8.115   0.092   4.755
60317W        W30917   3.059   8.388   2.842
60318W        W30918  14.177  29.474   2.918
60319W        W30919  14.791  22.736   2.416
60320W        W30920  10.327   8.253   0.735
60321W        W30921  31.676   5.496   4.823
60322W        W30922  10.714  33.833  13.857
60323W        W30923  10.606  39.882  10.685
60324W        W30924  16.821  35.000  12.301
60325W        W30925   6.312  15.174  12.907
60326W        W30926  30.001  35.861   0.067
60327W        W30927   1.048  16.948   1.885
60328W        W30928  19.324   1.750  13.596
60329W        W30929   2.223  36.805  10.749
60330W        W30930  24.609  37.879   0.943
60331W        W30931  29.634  28.066   1.748
60332W        W30932  23.992   8.805  11.038
60333W        W30933  23.080   5.298  10.794
60334W        W30934  22.282  33.097  14.855
60335W        W30935  41.989  32.098  13.380
60336W        W30936  10.720  30.240   4.222
60337W        W30937  40.910  32.225  11.984
60338W        W30938  41.335   2.705   3.116
60339W        W30939  18.705   4.737   4.989
60340W        W30940  10.133   8.859   4.582
60341W        W30941  24.248   9.538   4.923
60342W        W30942  38.877  14.086   4.592
60343W        W30943  32.816  41.049   2.820
60344W        W30944  22.003   5.710   2.377
60345W        W30945  37.559   5.934   1.894
60346W        W30946   7.325   5.399   0.900
60347W        W30947  31.082  13.752  14.197
60348W        W30948  34.656  19.593   1.853
60349W        W30949   7.328  40.751   3.628
60350W        W30950   8.269  34.367   0.036
60351W        W30951  42.927   7.380   3.202
60352W        W30952  35.099  23.126   0.022
60353W        W30953  44.101  14.872   1.672
60354W        W30954  27.717  16.094  12.042
60355W        W30955   6.668   8.788  12.921
60356W        W30956  33.209   9.630  14.868
60357W        W30957  28.749  26.554  11.638
60358W        W30958  34.418  37.833  11.136
60359W        W30959  15.360  18.342   3.244
60360W        W30960  16.585   9.538  12.479
60361W        W30961   1.967   2.233  11.668
60362W        W30962  22.241  26.098   2.959
60363W        W30963  16.859   9.595   2.783
60364W        W30964  17.868  42.804   2.661
60365W        W30965   1.880  13.815  14.420
60366W        W30966  25.046  42.355   2.498
60367W        W30967  41.305  24.317   0.976
60368W        W30968  15.786   5.411  11.386
60369W        W30969  32.052  25.628   3.312
60370W        W30970  20.690  11.218  12.509
60371W        W30971  36.581   2.496   0.032
60372W        W30972  10.429   4.387  12.951
60373W        W30973  17.978  35.766   0.861
60374W        W30974  24.019  19.055   3.204
60375W        W30975  17.754  29.515  13.436
60376W        W30976  22.663  32.570   3.247
60377W        W30977  13.007  41.976   9.756
60378W        W30978  16.551  28.505   1.665
60379W        W30979   0.844  44.725   1.048
60380W        W30980   6.333   4.093   1.421
60381W        W30981  36.449  33.079   2.774
60382W        W30982  38.083   9.703  13.397
60383W        W30983   6.819  24.139   3.306
60384W        W30984  40.355  12.324   0.860
60385W        W30985  34.566  39.885  14.000
60386W        W30986   7.430  23.960  14.055
60387W        W30987  24.061  24.579   2.211
60388W        W30988  31.933  35.517   4.712
60389W        W30989   3.586  34.178   2.346
60390W        W30990  42.005  36.903   1.323
60391W        W30991  17.981   5.236   3.820
60392W        W30992   8.745   5.383   3.709
60393W        W30993  11.806  43.776  13.773
60394W        W30994  12.854  31.548   0.455
60395W        W30995  42.560  35.954   3.873
60396W        W30996  28.005  39.840   2.226
60397W        W30997  29.332  11.270  13.288
60398W        W30998  37.904   7.181   0.764
60399W        W30999   7.153  11.056   2.757
60400W        W31000  38.985  36.354   3.461
60401W        W31001  10.386   1.208  14.425
60402W        W31002  23.996   2.098  10.738
60403W        W31003   3.329  17.821   2.133
60404W        W31004  42.524   2.487   3.178
60405W        W31005  40.068  23.759   2.430
60406W        W31006  38.300  43.391  13.409
60407W        W31007   9.858  12.776  13.667
60408W        W31008  17.480  18.294  14.908
60409W        W31009   6.211  32.553   1.806
60410W        W31010   0.622   3.217  14.646
60411W        W31011  28.122  30.493   3.391
60412W        W31012   0.315  42.003  14.042
60413W        W31013  10.041  40.359   2.273
60414W        W31014  21.489  11.747  12.923
60415W        W31015  13.201   1.006   0.278
60416W        W31016  32.198  40.318   4.098
60417W        W31017  33.752  41.559  11.846
60418W        W31018  23.145  11.440  12.086
60419W        W31019   6.383  13.838   0.766
60420W        W31020  17.808  32.891   3.349
60421W        W31021  28.112  17.651   0.539
60422W        W31022  41.410  21.359   3.777
60423W        W31023  25.377   8.272  11.488
60424W        W31024  42.974   3.696  14.963
60425W        W31025   4.493  21.885   1.796
60426W        W31026  42.986  34.645   2.244
60427W        W31027  25.585   9.933   1.881
60428W        W31028  22.999  42.864   2.371
60429W        W31029  22.178   9.671  14.016
60430W        W31030   9.922   0.257  12.071
60431W        W31031   8.159   0.913   3.293
60432W        W31032  20.433  11.921  14.612
60433W        W31033  30.513  17.790   3.634
60434W        W31034  17.157  28.370  12.725
60435W        W31035  26.745  19.467  14.675
60436W        W31036  39.250  35.379  14.055
60437W        W31037  36.007  38.221   4.315
60438W        W31038   5.994  19.912  12.799
60439W        W31039  18.165  36.355  14.540
60440W        W31040  34.924  14.617   3.264
60441W        W31041  37.989  12.198   3.207
60442W        W31042  29.251  19.718  12.956
60443W        W31043  36.292  16.515   1.388
60444W        W31044   1.293   6.284   1.939
60445W        W31045  12.834   0.683  11.050
60446W        W31046   3.667   1.424   2.796
60447W        W31047   5.915  22.761  14.312
60448W        W31048   7.935  35.948  11.620
60449W        W31049   2.991   4.136   1.155
60450W        W31050   4.200   8.837   1.030
60451W        W31051  14.538  21.249   5.038
60452W        W31052  38.038   6.758  14.867
60453W        W31053  42.002  25.677   3.148
60454W        W31054  12.651  39.683   3.782
60455W        W31055  37.410  15.628  12.887
60456W        W31056  11.427  37.430   2.184
60457W        W31057   7.436  22.158  10.651
60458W        W31058   4.175   5.844   1.374
60459W        W31059  13.694  19.748  14.257
60460W        W31060  18.715  39.747  14.846
60461W        W31061  20.026   8.499  12.255
60462W        W31062   8.526  23.051   0.314
60463W        W31063  13.920   6.361  14.569
60464W        W31064  16.818  39.421   0.637
60465W        W31065  18.472  39.365   3.211
60466W        W31066  14.187  15.468  12.042
60467W        W31067  26.548   1.222   2.680
60468W        W31068   5.705  24.425  13.454
60469W        W31069  34.444   6.110  10.505
60470W        W31070   5.817  16.208   4.050
60471W        W31071  10.831  43.065  14.477
60472W        W31072  38.019  32.495   1.442
60473W        W31073   5.800  43.899   3.733
60474W        W31074  39.991   8.326  11.657
60475W        W31075  19.160  12.748   3.474
60476W        W31076  32.290  34.562   0.051
60477W        W31077  19.688  25.529  14.515
60478W        W31078  15.244  24.630  13.586
60479W        W31079  24.988  23.951   0.938
60480W        W31080   7.782   8.635   0.279
60481W        W31081  38.361   7.761   4.516
60482W        W31082  35.568  41.050  13.929
60483W        W31083   0.746  42.877   3.031
60484W        W31084  28.184  43.703   0.693
60485W        W31085   2.384  43.022   3.668
60486W        W31086  11.506  10.134  12.056
60487W        W31087  29.487  29.319   0.892
60488W        W31088  39.423  26.601   1.239
60489W        W31089  17.343  28.153   4.130
60490W        W31090  31.122  25.080  13.449
60491W        W31091  15.713  38.598  12.902
60492W        W31092   1.444  40.306  14.378
60493W        W31093  14.602  13.405  14.894
60494W        W31094  19.498  42.406   4.708
60495W        W31095   0.939  21.155   0.249
60496W        W31096  27.022  30.581   2.441
60497W        W31097  36.325   7.344   2.635
60498W        W31098   9.357  30.174   4.499
60499W        W31099  42.056  28.510  12.925
60500W        W31100   9.575  19.243  13.395
60501W        W31101  42.784  29.154  11.620
60502W        W31102  28.826  28.739  13.740
60503W        W31103  13.572  12.258  13.942
60504W        W31104  34.532  39.662   4.697
60505W        W31105  33.676  37.770   2.700
60506W        W31106  17.034  40.462  13.886
60507W        W31107  29.881   2.189   4.211
60508W        W31108  18.194  30.870   2.328
60509W        W31109  33.128  38.985   4.162
60510W        W31110  12.247  37.601   4.605
60511W        W31111   7.455   7.344  13.393
60512W        W31112  36.640  30.496   5.057
60513W        W31113  29.184  42.795  14.829
60514W        W31114  28.917  16.618   2.755
60515W        W31115  26.334  26.062   3.722
60516W        W31116  15.028  38.516  11.580
60517W        W31117  39.354   6.837  13.132
60518W        W31118  33.290   2.199  12.293
60519W        W31119  31.360  11.213  12.439
60520W        W31120  16.437  10.265  11.143
60521W        W31121  23.951  35.672  11.544
60522W        W31122  24.760   9.043   4.150
60523W        W31123  37.385  20.142   3.286
60524W        W31124  26.615  19.461   2.246
60525W        W31125  17.129  21.748  11.620
60526W        W31126  21.312  12.253   4.763
60527W        W31127  13.706   6.464  14.095
60528W        W31128  23.645   5.244  12.054
60529W        W31129  36.211  14.712  12.380
60530W        W31130   2.254   4.903   4.212
60531W        W31131  27.965  34.224  12.981
60532W        W31132  24.494  23.696   4.682
60533W        W31133   6.214  28.928   0.296
60534W        W31134  21.241  28.984  14.364
60535W        W31135   7.852   0.472   3.300
60536W        W31136  14.478  33.329  11.563
60537W        W31137  17.676  44.808   1.683
60538W        W31138   9.858  12.863   0.959
60539W        W31139   8.263  21.465   2.429
60540W        W31140   0.049   6.403   2.267
60541W        W31141  24.029  29.970  11.882
60542W        W31142  18.196  39.735  13.340
60543W        W31143  23.471  30.528   2.312
60544W        W31144  35.875  13.037   1.258
60545W        W31145  19.189  13.210  14.362
60546W        W31146  43.864  44.756  14.297
60547W        W31147  31.443  28.059  12.668
60548W        W31148   3.418  23.225  13.130
60549W        W31149   1.189  33.490   3.747
60550W        W31150   8.099  28.059   4.927
60551W        W31151  30.565  34.078  11.102
60552W        W31152  32.070  18.157   3.670
60553W        W31153  31.614   6.443  14.374
60554W        W31154  10.750   4.314   3.130
60555W        W31155  18.048  37.096  11.078
60556W        W31156  17.339  17.175  13.872
60557W        W31157  30.395  37.768   0.820
60558W        W31158  11.945   3.321   4.245
60559W        W31159   7.697  27.377   3.724
60560W        W31160   6.116  10.097   2.538
60561W        W31161  37.669  36.896   4.595
60562W        W31162  30.605  39.957  11.658
60563W        W31163  12.721  24.492  11.476
60564W        W31164  40.233  36.475  14.205
60565W        W31165  33.584  40.535  13.299
60566W        W31166  43.464   9.847  12.164
60567W        W31167  11.894   5.006  11.637
60568W        W31168   6.470  17.367  11.187
60569W        W31169  19.588  36.639   3.122
60570W        W31170   3.336  21.591  11.970
60571W        W31171  29.018  15.340  11.638
60572W        W31172  12.300  39.025  13.047
60573W        W31173  40.344  25.552  14.951
60574W        W31174  34.509  41.024  10.762
60575W        W31175  20.629  35.423  11.100
60576W        W31176  22.142  19.332   1.772
60577W        W31177  16.316  12.182   1.729
60578W        W31178   2.699  30.947   3.723
60579W        W31179  40.846  14.070   0.400
60580W        W31180   1.297   1.482   1.954
60581W        W31181  28.675  11.372  11.843
60582W        W31182   2.448  38.764  12.919
60583W        W31183   7.512  12.479   1.142
60584W        W31184  26.092   6.932   2.060
60585W        W31185  27.634   9.659  12.846
60586W        W31186  29.026   1.237   4.054
60587W        W31187  13.222  31.488  10.816
60588W        W31188  44.201  26.477  14.368
60589W        W31189  42.795   0.866  13.698
60590W        W31190  24.727  36.918   2.402
60591W        W31191  41.781  16.581  13.844
60592W        W31192  22.062  36.316   2.703
60593W        W31193  19.237   9.660   0.011
60594W        W31194  30.012   2.951  11.254
60595W        W31195  10.427   0.758   3.720
60596W        W31196  19.111  24.933  11.493
60597W        W31197  36.683  28.257  12.792
60598W        W31198   7.874  32.722  13.617
60599W        W31199  12.132   8.659  13.951
60600W        W31200  22.308  37.713   0.728
60601W        W31201  38.239   5.335   4.223
60602W        W31202   9.792  37.078  14.014
60603W        W31203  27.122  26.933   4.317
60604W        W31204   8.452   3.790   4.174
60605W        W31205  28.082  40.706  14.337
60606W        W31206   9.355  13.137   4.261
60607W        W31207  18.811   2.444   2.405
60608W        W31208   6.120  42.530  14.725
60609W        W31209  12.140  10.095  14.872
60610W        W31210  11.778   0.421  14.715
60611W        W31211  34.849  11.772  10.627
60612W        W31212  10.449  23.573  11.886
60613W        W31213  18.771  35.280  14.911
60614W        W31214  23.031  23.493  11.593
60615W        W31215  43.093  43.577  13.857
60616W        W31216  16.204   2.341  11.630
60617W        W31217  22.737  23.241  11.958
60618W        W31218   1.475  32.565   4.844
60619W        W31219  24.721  17.685   0.406
60620W        W31220  32.494  37.166   2.189
60621W        W31221  25.196  14.096   0.218
60622W        W31222  17.820  18.209   1.275
60623W        W31223   5.589  36.033   4.710
60624W        W31224  38.919   1.722  13.230
60625W        W31225   7.562  29.764   2.845
60626W        W31226  21.778  35.763   2.316
60627W        W31227  26.160  13.042   2.921
60628W        W31228  24.275  42.890   3.807
60629W        W31229   2.528  42.476   3.860
60630W        W31230  38.561  29.290  11.268
60631W        W31231   6.263   8.315   3.363
60632W        W31232   1.859  14.302  11.576
60633W        W31233  44.507  12.238  11.957
60634W        W31234   7.669   3.698   1.361
60635W        W31235   1.688   6.267   1.597
60636W        W31236  26.730  13.897   4.245
60637W        W31237  31.537  27.581  12.014
60638W        W31238  17.227   7.772  13.837
60639W        W31239  19.136  23.689  11.888
60640W        W31240  31.802   4.803   2.418
60641W        W31241  26.469  15.291   1.448
60642W        W31242  10.736  20.663   1.534
60643W        W31243  31.053   5.271  13.830
60644W        W31244  37.973  25.154  10.698
60645W        W31245   5.754   0.651   3.328
60646W        W31246  38.642  26.404  14.305
60647W        W31247  15.543  26.062   1.420
60648W        W31248   7.447  11.658   2.773
60649W        W31249  44.727  41.625  14.449
60650W        W31250  38.670  21.262  12.897
60651W        W31251  38.881   3.770   4.290
60652W        W31252   4.644  14.561   4.567
60653W        W31253  30.639  21.091  14.694
60654W        W31254  22.430  44.455  11.568
60655W        W31255  27.133  27.726   0.303
60656W        W31256   8.266  21.700  14.954
60657W        W31257  14.051  23.892  12.548
60658W        W31258   0.283  30.655   2.251
60659W        W31259  37.134  32.032  14.507
60660W        W31260  26.684  27.199   4.220
60661W        W31261  29.058  35.092   4.549
60662W        W31262  27.614  18.791  10.429
60663W        W31263   9.440  39.797   2.639
60664W        W31264   4.690  43.314  11.833
60665W        W31265  26.018  24.059   1.763
60666W        W31266  15.642  40.140   2.575
60667W        W31267  33.497  31.994   2.525
60668W        W31268   6.367  23.810   0.015
60669W        W31269  26.501   1.787  12.037
60670W        W31270   6.762  10.363  14.730
60671W        W31271  12.251  13.882  10.742
60672W        W31272  38.819  42.216  13.021
60673W        W31273  24.391  38.071  10.734
60674W        W31274  35.424  14.246   4.379
60675W        W31275  10.158   6.684   0.881
60676W        W31276   7.220   8.272   4.107
60677W        W31277  38.358  23.978  14.167
60678W        W31278  29.976   9.451   4.882
60679W        W31279  16.099  34.393  13.154
60680W        W31280  35.046  43.413  12.756
60681W        W31281  32.425  24.618   1.976
60682W        W31282  39.469  34.999  11.042
60683W        W31283  34.641  26.544   5.133
60684W        W31284   3.493  40.499  12.847
60685W        W31285  28.574  21.781   2.356
60686W        W31286  29.492  14.143  14.870
60687W        W31287   3.865  23.323  12.042
60688W        W31288   3.535  37.192   3.879
60689W        W31289  26.520  34.449  11.764
60690W        W31290  17.664  35.902   1.391
60691W        W31291  40.917   9.340   4.608
60692W        W31292  31.378   6.731  10.577
60693W        W31293  19.802  19.996   1.530
60694W        W31294  11.368   5.208  13.283
60695W        W31295  41.781  11.621  11.652
60696W        W31296  26.049  26.110  10.912
60697W        W31297  20.190  33.867  14.902
60698W        W31298  35.015   5.881   1.850
60699W        W31299  17.504  29.504   4.081
60700W        W31300  37.477   0.200  14.768
60701W        W31301  38.527  34.375  13.037
60702W        W31302   7.198  11.074   1.909
60703W        W31303  13.871  13.153   9.836
60704W        W31304  15.267   8.387   4.607
60705W        W31305   2.938   0.834   4.127
60706W        W31306  23.935  12.077   3.155
60707W        W31307  12.860  39.806  13.095
60708W        W31308   9.685  10.421   3.335
60709W        W31309   7.183   2.785  10.637
60710W        W31310  23.310   6.975  11.085
60711W        W31311  34.964  36.318  11.834
60712W        W31312  41.498  10.396   0.627
60713W        W31313  29.672  22.104  14.982
60714W        W31314  13.696  19.692   3.789
60715W        W31315  18.860  22.590   0.425
60716W        W31316  37.884  42.428  12.485
60717W        W31317  29.150  13.723   2.639
60718W        W31318  25.088  18.609   0.459
60719W        W31319  35.770   3.061  10.771
60720W        W31320  38.332  19.497   1.394
60721W        W31321  25.674   5.666  12.865
60722W        W31322  42.561   0.536   3.895
60723W        W31323  18.918   4.911  13.480
60724W        W31324  41.331  24.663  10.754
60725W        W31325  23.218  22.056   0.520
60726W        W31326  20.036  18.583   1.325
60727W        W31327   6.466   0.742  13.455
60728W        W31328   1.954  24.519  11.932
60729W        W31329  27.985  26.226  10.769
60730W        W31330  26.270  36.266   2.844
60731W        W31331   5.067  36.085   4.620
60732W        W31332  36.370   3.800  12.256
60733W        W31333  14.669  33.307  14.813
60734W        W31334   7.724   7.336  13.880
60735W        W31335  37.768  28.164  12.013
60736W        W31336  29.459   0.789   3.257
60737W        W31337  11.380  25.865  14.223
60738W        W31338  22.485  13.337  13.336
60739W        W31339   2.474  14.692  13.986
60740W        W31340  42.358   8.180  10.172
60741W        W31341  36.066  33.343   4.867
60742W        W31342  27.622  36.609   4.262
60743W        W31343  25.699  17.331   4.381
60744W        W31344   5.634   6.282  14.213
60745W        W31345  39.921  32.228   3.487
60746W        W31346  16.384  27.777   4.124
60747W        W31347  27.131  38.009  12.035
60748W        W31348  25.101   7.418  11.583
60749W        W31349  30.106  21.176  14.768
60750W        W31350  36.518  29.446   3.286
60751W        W31351  24.763  23.627   3.703
60752W        W31352  15.659  25.916  14.396
60753W        W31353   6.942  22.004  14.711
60754W        W31354  44.789  27.938   3.137
60755W        W31355  40.461  28.977  10.189
60756W        W31356  19.327  12.261  13.429
60757W        W31357  26.491  18.247  10.743
60758W        W31358   0.784  32.078   2.009
60759W        W31359  12.084  21.619   0.699
60760W        W31360   9.485  22.644  12.958
60761W        W31361  35.630  20.044  12.397
60762W        W31362  17.596  17.019  13.450
60763W        W31363  20.161   7.675   4.728
60764W        W31364  31.540   9.614   3.687
60765W        W31365  43.969  19.189  12.756
60766W        W31366  12.579  26.369   4.759
60767W        W31367  38.440  39.957  10.589
60768W        W31368  32.991  15.666  11.422
60769W        W31369  24.115  11.815  14.401
60770W        W31370  21.537  18.719   4.185
60771W        W31371  41.416  26.622  14.973
60772W        W31372   5.863  24.412  11.227
60773W        W31373  35.411   8.287   2.747
60774W        W31374  44.805  10.360  14.004
60775W        W31375  30.081  42.966   0.298
60776W        W31376  10.218  17.933  12.868
60777W        W31377  24.550  10.015  11.305
60778W        W31378  13.444  40.404  13.570
60779W        W31379  26.862  24.570  12.059
60780W        W31380  25.528  15.026   1.460
60781W        W31381  26.210  39.809  12.482
60782W        W31382   2.952   8.276   1.436
60783W        W31383  39.096  24.965  11.726
60784W        W31384  12.381  43.392  11.154
60785W        W31385  18.251   4.870   3.570
60786W        W31386  44.640   4.318  13.359
60787W        W31387   9.807  13.608  11.917
60788W        W31388   1.345  11.833  11.483
60789W        W31389  18.353  32.430   0.811
60790W        W31390  37.005  42.882   0.981
60791W        W31391  39.144  36.087  14.713
60792W        W31392  18.131  16.892  10.660
60793W        W31393   8.765  19.731   1.904
60794W        W31394  39.425  36.480  13.011
60795W        W31395  20.349  25.937   2.930
60796W        W31396   7.620  36.085   3.671
60797W        W31397  10.548   6.194  12.852
60798W        W31398   2.254  11.176  13.454
60799W        W31399  39.852  27.723  14.438
60800W        W31400  28.420   1.943  13.143
60801W        W31401  11.334   6.765   1.430
60802W        W31402  21.827  19.624   3.272
60803W        W31403  15.460  43.893   0.347
60804W        W31404  42.274  22.600   4.487
60805W        W31405   0.219  18.511  13.896
60806W        W31406  13.393   1.080  13.890
60807W        W31407  29.866  35.037   2.621
60808W        W31408  35.194  36.991  10.840
60809W        W31409  28.484  40.298  14.983
60810W        W31410  41.251  32.371   4.318
60811W        W31411  34.028  13.737   1.338
60812W        W31412  12.577  42.710   1.478
60813W        W31413  35.993  34.878   2.800
60814W        W31414  19.247  20.704   3.198
60815W        W31415  32.933  44.231  10.435
60816W        W31416  14.310  19.629  10.994
60817W        W31417  40.939   5.407  12.541
60818W        W31418  30.481  24.110  14.980
60819W        W31419   8.756  18.612   1.343
60820W        W31420  13.720  24.107   1.301
60821W        W31421  20.798  41.078   0.413
60822W        W31422  33.544  44.764  12.448
60823W        W31423  17.070  20.065   2.389
60824W        W31424  10.106   2.447   2.704
60825W        W31425  16.670  29.269  14.215
60826W        W31426  35.590  39.567   4.585
60827W        W31427  15.034  27.543   4.095
60828W        W31428  39.933  27.702  13.608
60829W        W31429  20.709  26.256   2.749
60830W        W31430  31.987  32.626  12.900
60831W        W31431  33.112  12.208   1.252
60832W        W31432  21.179   5.110   1.395
60833W        W31433  16.681  21.053   1.836
60834W        W31434  16.933   7.864  11.571
60835W        W31435  20.131  40.745  12.773
60836W        W31436  37.881   1.474  11.582
60837W        W31437  32.522  28.751  14.040
60838W        W31438  40.888  15.537  13.842
60839W        W31439   8.718  13.262   3.645
60840W        W31440  44.448   9.375   2.418
60841W        W31441   8.962  10.506  14.815
60842W        W31442  10.090  14.474   2.393
60843W        W31443  11.497  41.690   4.194
60844W        W31444  35.044   6.743  14.010
60845W        W31445  30.095   6.140  14.305
60846W        W31446  18.742  18.520   0.448
60847W        W31447  20.886   1.986   3.822
60848W        W31448  12.738  22.653  13.926
60849W        W31449   4.153  42.898  12.413
60850W        W31450   5.979   0.800   4.696
60851W        W31451  29.938  28.237   4.543
60852W        W31452  31.928  34.483   3.267
60853W        W31453  12.792  25.491   0.252
60854W        W31454   5.641  18.645  10.866
60855W        W31455  17.201  34.809   1.724
60856W        W31456  28.753  16.115   0.958
60857W        W31457  34.874   9.842   4.397
60858W        W31458   2.894  29.089   3.672
60859W        W31459  33.456  22.673   4.292
60860W        W31460  16.189  19.846  11.566
60861W        W31461   6.648  33.482  13.102
60862W        W31462  10.029  20.287  12.736
60863W        W31463  17.301  25.090  14.534
60864W        W31464  22.985  27.820  13.299
60865W        W31465  31.505  21.452  10.361
60866W        W31466   1.938   4.929  12.363
60867W        W31467  39.271   7.717   2.354
60868W        W31468  19.133   9.988  11.836
60869W        W31469  35.161   9.961  13.516
60870W        W31470  34.535  13.191  13.754
60871W        W31471   0.093  42.449  13.350
60872W        W31472   0.266  25.099  12.259
60873W        W31473  21.582  41.456   2.323
60874W        W31474  18.528   7.808   3.319
60875W        W31475  33.101  30.897   0.206
60876W        W31476   2.248  42.021   1.620
60877W        W31477  17.912  37.931   1.795
60878W        W31478  40.891   2.512  10.706
60879W        W31479  12.905  35.225   0.803
60880W        W31480  38.855  34.338   1.638
60881W        W31481  33.006  17.192   3.477
60882W        W31482  10.953  40.905  12.988
60883W        W31483   3.439   2.537   4.288
60884W        W31484  26.329  22.304  11.724
60885W        W31485  22.534  23.633   4.247
60886W        W31486  30.437  10.923   2.271
60887W        W31487  16.250  16.258  12.512
60888W        W31488   8.659  42.321   3.929
60889W        W31489  26.547  15.909   4.725
60890W        W31490  32.017  28.802  14.865
60891W        W31491  16.220  29.535   2.799
60892W        W31492   2.951  31.232   0.357
60893W        W31493   5.926  21.250  11.234
60894W        W31494  26.724   3.340   0.496
60895W        W31495  19.043   4.722   2.199
60896W        W31496  30.120  27.505   0.333
60897W        W31497  10.104  10.674   3.206
60898W        W31498   8.892   7.748  12.440
60899W        W31499  24.243  34.244   4.787
60900W        W31500  41.642  13.059   0.462
60901W        W31501   0.992  39.887   2.337
60902W        W31502  28.697  14.611   0.039
60903W        W31503   2.763  19.866   0.358
60904W        W31504  31.026  25.473   3.790
60905W        W31505  26.639   5.691  10.922
60906W        W31506  15.701  28.798   4.650
60907W        W31507  23.269  28.895   1.864
60908W        W31508  43.446   5.597   0.348
60909W        W31509   3.136  36.641  12.024
60910W        W31510  20.338  29.902   2.218
60911W        W31511  18.523  34.665  11.941
60912W        W31512   2.967   6.303   3.447
60913W        W31513  18.186   1.338  14.050
60914W        W31514   6.442   8.604  13.366
60915W        W31515   2.156   1.782   0.547
60916W        W31516  32.242  24.537  13.184
60917W        W31517  38.133  22.376   0.842
60918W        W31518  25.872  39.804   2.164
60919W        W31519  41.683  10.054  11.138
60920W        W31520   0.513  23.874  14.998
60921W        W31521   6.589  20.164   1.035
60922W        W31522  41.258  32.806   3.188
60923W        W31523  25.581   5.703   0.205
60924W        W31524  20.163  12.810   2.194
60925W        W31525  36.655  38.796  10.926
60926W        W31526   0.670  19.437   3.702
60927W        W31527  37.004  14.400  14.290
60928W        W31528  17.817  41.455   1.301
60929W        W31529  41.001   1.256  11.158
60930W        W31530  26.960  18.554  13.961
60931W        W31531   2.124  36.447   3.167
60932W        W31532  36.972  16.072   2.434
60933W        W31533  33.639  13.945   0.089
60934W        W31534  24.454  30.817  12.074
60935W        W31535   3.258  17.533  10.751
60936W        W31536   4.542  31.629   3.202
60937W        W31537  29.596   6.374   3.870
60938W        W31538  21.110   1.123  11.591
60939W        W31539  30.226   2.396   0.852
60940W        W31540  41.794   3.969   1.805
60941W        W31541  31.584  30.140  13.896
60942W        W31542  21.940  22.166   0.890
60943W        W31543  32.152  36.049  14.925
60944W        W31544  31.469   0.070  12.343
60945W        W31545  41.839  33.684   3.915
60946W        W31546  16.175  40.897  11.660
60947W        W31547  30.580  24.279  12.637
60948W        W31548  14.326  24.112   2.688
60949W        W31549  42.832  27.162  14.712
60950W        W31550   0.897  36.664  10.909
60951W        W31551  16.653  20.478   4.055
60952W        W31552  39.390  27.915   1.917
60953W        W31553   8.857   1.718   2.258
60954W        W31554  43.776  33.482  11.092
60955W        W31555  25.535  25.645   3.676
60956W        W31556  40.948  11.798   2.090
60957W        W31557  34.321  23.201  13.965
60958W        W31558   7.636  40.742  13.827
60959W        W31559  37.912  24.081  11.111
60960W        W31560  40.062  44.339  14.711
60961W        W31561  36.809  11.466   1.332
60962W        W31562  36.033  10.086   4.486
60963W        W31563  12.231  20.162   4.632
60964W        W31564  28.032  34.164   2.399
60965W        W31565  24.544  14.203   5.019
60966W        W31566   4.897  38.576   2.471
60967W        W31567  33.026  13.224   1.188
60968W        W31568  40.371  29.666  14.548
60969W        W31569   9.567  34.432  13.590
60970W        W31570  13.745  22.808  14.986
60971W        W31571  13.680  33.705  11.186
60972W        W31572  36.415  33.800   4.206
60973W        W31573  33.561   9.326  12.901
60974W        W31574  26.046  43.286   4.349
60975W        W31575  41.932  34.322   3.280
60976W        W31576  23.186  39.485   4.545
60977W        W31577  27.757  18.266  13.781
60978W        W31578  23.547   7.580  12.623
60979W        W31579  44.696  28.438   2.222
60980W        W31580  20.803  42.743  14.027
60981W        W31581  39.514   5.905   0.404
60982W        W31582   1.187  20.021  13.875
60983W        W31583   5.835   8.386   4.545
60984W        W31584  39.495  26.988  13.950
60985W        W31585  23.571  41.498  13.369
60986W        W31586  42.889  38.527  11.092
60987W        W31587  22.551  10.351   5.088
60988W        W31588  32.003  27.220  10.433
60989W        W31589  11.666   2.084   2.391
60990W        W31590  16.689  20.002  11.476
60991W        W31591  26.980  41.975  11.526
60992W        W31592   3.272  11.881   1.308
60993W        W31593  20.578   9.953  11.280
60994W        W31594   9.314  23.496  10.743
60995W        W31595  37.058  17.608  12.511
60996W        W31596  36.833  22.755  10.883
60997W        W31597   3.681   2.425  12.472
60998W        W31598  44.294  22.658   3.843
60999W        W31599  11.696  41.278   1.720
61000W        W31600  31.654  42.232  11.659
61001W        W31601   8.029  41.773   3.176
61002W        W31602  19.531   8.418  11.231
61003W        W31603  13.254  15.685   0.051
61004W        W31604  43.369  30.368  11.496
61005W        W31605  42.927  39.457  14.855
61006W        W31606  27.063  14.580   1.163
61007W        W31607   8.182  26.005   0.874
61008W        W31608  35.439  12.662   3.284
61009W        W31609   2.262  32.855   2.890
61010W        W31610  37.917   8.273  11.164
61011W        W31611   3.654  25.178  10.460
61012W        W31612  13.126  27.002  14.300
61013W        W31613   8.136   6.995   4.033
61014W        W31614  31.868  31.333  13.427
61015W        W31615  42.948  18.294  11.156
61016W        W31616  21.060   1.657  13.636
61017W        W31617  18.123  43.958   4.849
61018W        W31618  28.129  32.897   4.584
61019W        W31619  13.323  11.782  10.694
61020W        W31620  12.317  17.254   0.962
61021W        W31621  11.636  40.983  12.100
61022W        W31622  39.518   8.090  10.521
61023W        W31623  37.321   3.426  12.520
61024W        W31624  18.080  30.643  11.182
61025W        W31625  13.342  23.479   2.357
61026W        W31626  26.398   3.950  11.590
61027W        W31627  33.814  39.256  11.113
61028W        W31628  44.291  30.689   1.037
61029W        W31629  38.938   8.384   3.194
61030W        W31630   9.328  10.335   3.711
61031W        W31631  27.522  19.068  11.942
61032W        W31632  31.973  32.106   2.447
61033W        W31633  41.743  34.200   3.760
61034W        W31634  14.138  34.864  11.893
61035W        W31635  29.650  21.171  10.870
61036W        W31636   0.217  12.006  14.013
61037W        W31637  27.976  41.797   0.745
61038W        W31638  30.702  44.768   1.347
61039W        W31639  39.337   9.422   2.912
61040W        W31640   6.451   2.233   2.795
61041W        W31641  39.385   6.664  11.678
61042W        W31642  27.936  16.095   2.150
61043W        W31643  13.858  19.245  12.195
61044W        W31644  20.438  21.019  14.953
61045W        W31645  21.246   5.280   2.916
61046W        W31646  38.532  24.908   4.511
61047W        W31647  13.975  19.706   1.284
61048W        W31648  20.000   7.101  10.187
61049W        W31649  28.382   8.717   2.170
61050W        W31650  20.976  33.425   1.841
61051W        W31651  20.727  32.546  10.769
61052W        W31652  31.105  23.595  14.365
61053W        W31653  35.265   6.766   4.400
61054W        W31654  41.020  43.898   3.088
61055W        W31655   1.891  36.806  12.866
61056W        W31656  29.073  11.230  14.714
61057W        W31657  16.427  37.143   1.891
61058W        W31658  14.248  37.617  10.775
61059W        W31659  10.775  22.037   4.519
61060W        W31660   8.123   6.472   4.147
61061W        W31661  14.282  41.982  13.923
61062W        W31662   4.213   5.178   1.802
61063W        W31663   7.696  38.396   1.232
61064W        W31664  29.715  36.779   2.302
61065W        W31665  19.814  16.645  11.948
61066W        W31666  18.637  37.340  13.809
61067W        W31667  34.412  26.520  13.512
61068W        W31668   8.736  22.155   0.976
61069W        W31669  43.249  14.825  12.664
61070W        W31670  34.841  27.834  10.929
61071W        W31671  37.545   2.365   5.011
61072W        W31672  36.467  13.423   2.657
61073W        W31673  16.305  17.507  14.845
61074W        W31674  29.403   8.642  11.553
61075W        W31675   1.349  14.092  10.945
61076W        W31676  35.278  20.791  14.489
61077W        W31677  26.504  27.005  11.167
61078W        W31678  15.380  40.818  13.458
61079W        W31679  34.123  30.072   3.737
61080W        W31680  19.696  35.326   3.274
61081W        W31681   7.522  17.211   1.742
61082W        W31682  38.615   5.548   3.775
61083W        W31683  29.130   5.906  12.535
61084W        W31684   0.229  41.833   0.278
61085W        W31685   6.607  11.640   0.077
61086W        W31686  23.031  32.892  14.354
61087W        W31687  29.139  19.800   4.792
61088W        W31688   7.666   3.457  11.043
61089W        W31689  22.790  43.275   1.229
61090W        W31690  19.605   0.795   4.136
61091W        W31691  14.645  18.755  12.143
61092W        W31692   7.112  44.265  10.725
61093W        W31693  24.705   8.429  13.357
61094W        W31694  36.437  41.388  13.412
61095W        W31695  41.918  32.985  11.616
61096W        W31696  20.727  43.070  11.106
61097W        W31697  27.225   8.349  14.016
61098W        W31698   3.722  39.085  10.797
61099W        W31699  12.723  17.163  10.711
61100W        W31700  10.247  22.974  14.260
61101W        W31701  38.377  25.383   4.664
61102W        W31702  12.175  23.663   1.632
61103W        W31703  31.037   0.481  11.229
61104W        W31704   8.554  20.692   3.450
61105W        W31705   6.667  30.597  13.269
61106W        W31706  10.329  18.605   0.392
61107W        W31707  42.665   2.376   1.698
61108W        W31708  26.496   5.948  13.289
61109W        W31709  36.079  11.294  12.802
61110W        W31710  22.775  35.973  14.968
61111W        W31711  33.940   9.271   3.172
61112W        W31712  14.332  12.726  11.616
61113W        W31713   1.333  10.619  11.787
61114W        W31714  16.492  23.523   1.359
61115W        W31715  43.479   0.544  14.509
61116W        W31716  22.652   7.226   0.705
61117W        W31717  41.486  26.611   5.074
61118W        W31718  15.617   9.552  10.514
61119W        W31719  42.130  28.228   0.690
61120W        W31720  17.646   1.175  14.878
61121W        W31721   7.325  13.713  12.942
61122W        W31722  19.753  23.081   4.522
61123W        W31723  39.364   1.328   1.379
61124W        W31724  39.362   7.298  13.408
61125W        W31725  35.515  36.259  13.901
61126W        W31726  30.672  40.975   3.751
61127W        W31727  23.478  35.530   1.310
61128W        W31728  13.178  32.142   3.554
61129W        W31729  34.517   3.502  14.017
61130W        W31730  36.085  25.296  12.424
61131W        W31731  35.847  35.849  13.924
61132W        W31732  21.987  14.261   2.924
61133W        W31733  42.450  43.998  10.409
61134W        W31734  43.279  34.249   2.329
61135W        W31735  16.253  37.705  10.015
61136W        W31736  36.437  29.137   2.663
61137W        W31737  17.519  12.205   3.281
61138W        W31738  32.736  24.195   0.888
61139W        W31739  38.123  23.451  14.974
61140W        W31740  22.038  10.703  10.747
61141W        W31741  34.635  36.800   1.732
61142W        W31742   8.997  43.130   0.732
61143W        W31743  12.750   2.383  13.048
61144W        W31744  39.519  35.496   3.255
61145W        W31745   3.581  31.438  10.716
61146W        W31746  41.283  28.552   1.976
61147W        W31747  31.691   1.907  14.559
61148W        W31748  35.637  36.444   4.133
61149W        W31749  33.437  20.082  14.038
61150W        W31750  38.919  18.870   3.145
61151W        W31751   8.503  12.255  13.384
61152W        W31752  35.521  18.261   2.443
61153W        W31753  14.407  23.543   3.849
61154W        W31754   6.861  15.832  10.250
61155W        W31755   8.379  17.734   0.026
61156W        W31756  27.426  12.789  10.680
61157W        W31757  12.591  26.758  13.553
61158W        W31758  33.344  40.208   2.797
61159W        W31759  32.986   3.082   4.491
61160W        W31760   8.261   3.647   0.800
61161W        W31761  28.769  29.673   3.783
61162W        W31762  16.578  38.552  14.926
61163W        W31763   1.263  10.845  11.350
61164W        W31764  26.798  43.975   0.798
61165W        W31765   5.966  15.305  11.977
61166W        W31766  31.098   3.397  14.825
61167W        W31767  34.813   5.365   1.140
61168W        W31768   8.998   1.432  11.149
61169W        W31769  16.710  37.583  10.982
61170W        W31770  32.884  12.607  12.960
61171W        W31771   8.603  41.447   3.827
61172W        W31772   9.753  31.004   4.672
61173W        W31773  23.798   2.668   4.951
61174W        W31774  11.238  41.094  12.438
61175W        W31775  34.416  21.071  14.597
61176W        W31776  11.700  27.971   4.549
61177W        W31777  13.827  40.944  11.614
61178W        W31778  19.871  16.800  14.929
61179W        W31779  15.808  42.884  14.389
61180W        W31780  22.181  31.152  13.505
61181W        W31781  20.240  22.995  14.952
61182W        W31782  26.533  16.332   0.946
61183W        W31783  35.599  38.643   0.437
61184W        W31784  18.070   7.663  14.939
61185W        W31785  11.277  33.335   3.750
61186W        W31786  24.482  32.726  11.130
61187W        W31787   0.808  40.082  14.815
61188W        W31788  27.454  38.123   3.564
61189W        W31789   5.390   0.225   4.132
61190W        W31790  36.546  12.623   0.509
61191W        W31791   4.744  18.994  13.554
61192W        W31792  17.988  29.627  11.806
61193W        W31793  33.206  31.364  11.476
61194W        W31794  36.296  18.976   2.783
61195W        W31795  20.642  43.785  14.064
61196W        W31796  10.777  14.760   0.680
61197W        W31797  25.573  34.571   3.704
61198W        W31798  20.193  41.792  12.109
61199W        W31799  39.102  41.284  13.109
61200W        W31800  24.999  38.548  11.627
61201W        W31801  40.881  19.947   5.004
61202W        W31802  29.121  30.960  13.555
61203W        W31803  38.223   1.919   0.573
61204W        W31804  36.465   2.991   3.304
61205W        W31805  37.062  25.739  11.563
61206W        W31806  12.094  21.583  14.330
61207W        W31807  36.007  38.124  11.864
61208W        W31808  12.526  33.887   3.127
61209W        W31809  42.879  18.845   1.358
61210W        W31810  44.897  33.965  11.512
61211W        W31811  22.104  20.140   4.577
61212W        W31812  44.070  35.321  14.510
61213W        W31813  20.963  29.552   4.308
61214W        W31814  25.454  18.578  10.148
61215W        W31815  21.653  26.703  12.873
61216W        W31816  35.681   3.981  11.591
61217W        W31817  31.475  40.790  14.820
61218W        W31818  26.748   0.318  10.262
61219W        W31819   7.733  35.534  13.298
61220W        W31820  11.971  35.318  11.126
61221W        W31821  16.392   0.984   4.028
61222W        W31822  28.736  25.570  11.034
61223W        W31823  17.593  31.386   2.023
61224W        W31824  43.414  22.434  11.778
61225W        W31825   9.187  25.607   0.244
61226W        W31826  22.574  42.482   3.235
61227W        W31827   6.381   0.843   1.790
61228W        W31828   2.210  27.956   1.819
61229W        W31829   8.998  22.069  10.821
61230W        W31830  34.129  17.786  13.825
61231W        W31831  19.660  21.507   1.942
61232W        W31832   1.043  22.881   5.058
61233W        W31833   7.777  30.816  11.897
61234W        W31834   0.311   8.807   1.458
61235W        W31835   0.703  26.907  13.927
61236W        W31836  30.724  34.877  11.664
61237W        W31837   0.479  16.530   3.499
61238W        W31838   3.735  28.410  11.719
61239W        W31839  20.399  37.907  10.454
61240W        W31840  38.419   2.850  11.310
61241W        W31841  26.472  32.430   2.219
61242W        W31842  11.799   3.678   3.351
61243W        W31843   9.898  24.113   4.062
61244W        W31844  43.823   2.944   0.524
61245W        W31845  39.114   8.792   2.273
61246W        W31846  30.066  12.593  14.769
61247W        W31847  31.330  23.119   1.726
61248W        W31848  31.463  35.404   0.974
61249W        W31849   5.378  36.934   4.733
61250W        W31850   0.237  19.777   0.327
61251W        W31851   1.444  37.539   2.190
61252W        W31852  16.707  34.978  10.389
61253W        W31853  31.671  18.265   2.363
61254W        W31854  38.922  29.170  11.608
61255W        W31855   0.166   3.056  14.866
61256W        W31856   6.794   9.621   0.566
61257W        W31857  10.996  16.017  12.831
61258W        W31858   2.508  30.040  14.520
61259W        W31859  44.245  20.569   9.863
61260W        W31860  15.088   7.332   0.141
61261W        W31861  13.329  36.237  11.566
61262W        W31862   7.702   6.935   2.286
61263W        W31863  24.503  21.647   4.204
61264W        W31864  34.111  21.968   1.386
61265W        W31865  23.568  32.942  10.700
61266W        W31866   2.324  43.818  14.319
61267W        W31867  27.617  39.316  11.122
61268W        W31868   8.145  41.579   4.182
61269W        W31869   4.932   9.847   0.794
61270W        W31870  14.886  20.115  13.899
61271W        W31871  32.630  19.619   3.553
61272W        W31872  18.377  26.838  12.986
61273W        W31873  40.103  33.169   4.006
61274W        W31874   8.130  15.725  11.433
61275W        W31875  38.797  25.113  14.277
61276W        W31876   8.778   2.226  10.758
61277W        W31877  15.570  35.831  14.384
61278W        W31878  35.530  14.495   3.504
61279W        W31879  25.528  16.647   0.365
61280W        W31880   8.805  36.083   2.783
61281W        W31881  23.008  37.667  13.846
61282W        W31882  42.812  22.772   3.325
61283W        W31883  35.521   8.433   0.400
61284W        W31884  43.011  28.791  12.087
61285W        W31885  21.512  18.069  14.312
61286W        W31886   3.520  34.680   3.292
61287W        W31887  37.480  42.261   4.214
61288W        W31888  23.607   6.114  13.536
61289W        W31889  19.346  13.867   2.452
61290W        W31890  31.040  41.303   5.041
61291W        W31891  11.357  39.377  12.040
61292W        W31892  32.128   2.910   3.767
61293W        W31893  22.078  36.590  10.695
61294W        W31894  13.658  44.575  11.501
61295W        W31895  16.736  18.504  12.840
61296W        W31896  13.036  33.161  12.517
61297W        W31897   1.409   2.636  11.128
61298W        W31898  34.434  13.666  13.966
61299W        W31899  26.191   6.927   1.244
61300W        W31900  43.725  31.463  14.418
61301W        W31901   0.991   1.217  14.897
61302W        W31902   0.224  43.689  11.943
61303W        W31903  43.849  13.368  12.666
61304W        W31904  12.553   3.865  13.973
61305W        W31905  21.185   1.321   4.540
61306W        W31906  33.922  42.424  13.091
61307W        W31907   2.301  14.555  12.479
61308W        W31908  27.735  12.258  12.991
61309W        W31909  31.967  23.526   1.438
61310W        W31910  39.529   9.209   2.288
61311W        W31911  21.739  29.905   0.848
61312W        W31912   7.257  10.363   4.600
61313W        W31913  33.951   0.995   0.794
61314W        W31914  33.673  15.320  12.987
61315W        W31915   1.756  15.843   1.712
61316W        W31916   3.700  23.638   3.502
61317W        W31917  24.200   4.912   1.694
61318W        W31918  43.497  36.936  10.749
61319W        W31919  17.350  39.450   1.867
61320W        W31920  32.855   9.793  14.040
61321W        W31921  25.125  33.682  13.852
61322W        W31922  19.275  42.011   3.243
61323W        W31923  29.203  35.170  12.776
61324W        W31924  23.759  24.437   0.820
61325W        W31925  13.817  27.525  12.600
61326W        W31926  26.583  10.796  10.601
61327W        W31927  13.822  42.468   0.889
61328W        W31928  32.461  15.537  14.816
61329W        W31929  12.297   4.745  10.718
61330W        W31930   1.743  30.885  11.673
61331W        W31931  30.870  23.090  10.479
61332W        W31932  10.409  36.356  10.503
61333W        W31933  33.149  15.575  14.150
61334W        W31934   2.974  16.723   1.411
61335W        W31935  18.552  34.594   1.457
61336W        W31936  36.179  18.244   4.833
61337W        W31937  24.793   0.417   3.244
61338W        W31938   1.184  14.173   3.281
61339W        W31939   2.192  10.651  13.460
61340W        W31940  38.485  40.120  11.086
61341W        W31941  24.125  32.687   2.361
61342W        W31942  29.300  32.145  12.430
61343W        W31943  15.624   7.187   0.384
61344W        W31944  21.736  15.880  14.999
61345W        W31945  22.574  13.801   2.740
61346W        W31946  37.251  18.251   0.190
61347W        W31947  39.051   4.220  14.968
61348W        W31948   3.354  18.631   4.137
61349W        W31949   8.334   1.866  12.837
61350W        W31950  30.563  10.799   2.752
61351W        W31951  30.676  19.931  11.583
61352W        W31952   5.147   7.162  14.861
61353W        W31953  11.217  29.491   2.516
61354W        W31954   9.801  30.341   1.476
61355W        W31955  22.088  25.181   2.956
61356W        W31956   2.721   3.912  11.317
61357W        W31957  26.193  19.094   4.414
61358W        W31958  22.734   5.697   0.968
61359W        W31959  27.364  33.162   3.422
61360W        W31960   2.983  14.763  13.990
61361W        W31961   7.144  35.088   0.261
61362W        W31962   0.112  21.118   1.902
61363W        W31963   4.482   4.540  12.669
61364W        W31964  26.067  14.596   2.371
61365W        W31965  43.184  19.579   2.695
61366W        W31966  24.771  22.065  12.101
61367W        W31967  34.857  24.643  12.429
61368W        W31968   2.796  35.161   2.748
61369W        W31969  37.597  17.621  12.033
61370W        W31970  28.952  33.566  10.149
61371W        W31971  24.683  31.062  12.492
61372W        W31972  10.792   5.158   1.269
61373W        W31973  32.329  30.018  14.334
61374W        W31974  38.039   7.403   0.322
61375W        W31975  16.488  34.031  12.535
61376W        W31976  40.053   1.030  10.199
61377W        W31977  16.613  32.382  14.031
61378W        W31978   7.626  31.720  12.877
61379W        W31979  24.026  30.436  11.081
61380W        W31980  15.913  20.782   2.365
61381W        W31981  16.483  28.448   1.148
61382W        W31982  13.492  40.340   4.915
61383W        W31983  16.266  40.256   0.425
61384W        W31984  42.026   2.410   3.331
61385W        W31985  29.561   4.361   4.741
61386W        W31986  41.341  35.942   4.131
61387W        W31987  43.962  27.711   1.635
61388W        W31988  44.887  18.948   2.197
61389W        W31989  13.180  30.188  14.803
61390W        W31990  15.187   1.946  14.805
61391W        W31991  27.475  42.530   2.868
61392W        W31992  25.489  23.042   4.355
61393W        W31993   5.726   3.505   0.835
61394W        W31994  30.458  18.812  11.181
61395W        W31995   1.404  40.032   0.729
61396W        W31996   2.263  39.018   1.721
61397W        W31997  32.633  20.059  14.762
61398W        W31998  10.692   3.346  10.927
61399W        W31999  26.176  16.714  11.671
61400W        W32000   5.292  37.583  14.685
61401W        W32001  24.990  35.344   3.726
61402W        W32002  37.481  42.855   0.038
61403W        W32003   0.371  10.899   4.557
61404W        W32004  44.858  19.797  13.114
61405W        W32005   8.864   6.700   0.221
61406W        W32006  13.693  13.180   1.181
61407W        W32007  14.183  10.251   2.335
61408W        W32008  39.596   3.948  11.824
61409W        W32009  18.352  25.508  11.902
61410W        W32010  12.717  11.351  12.035
61411W        W32011  37.803  21.291   2.697
61412W        W32012  24.550   5.715   4.140
61413W        W32013  36.464  44.768   0.840
61414W        W32014  41.397  39.509  13.853
61415W        W32015  31.903  32.633   3.624
61416W        W32016  28.748  11.838   0.934
61417W        W32017  16.313   6.816   3.360
61418W        W32018  27.841  27.718   2.941
61419W        W32019   3.801  25.169   4.502
61420W        W32020  26.751  40.935   2.796
61421W        W32021  33.650  32.889  14.357
61422W        W32022  12.143  43.479   3.993
61423W        W32023  34.617  10.699   3.815
61424W        W32024  16.184  21.744  11.669
61425W        W32025   8.284  12.053   2.159
61426W        W32026   0.271  28.417  14.958
61427W        W32027   8.819   3.482  14.114
61428W        W32028  10.100  37.863  11.634
61429W        W32029   9.486  35.231  11.389
61430W        W32030  18.271  31.570   2.672
61431W        W32031  23.992   9.900  12.168
61432W        W32032  31.436   5.349   0.850
61433W        W32033  38.258  24.693   4.887
61434W        W32034  28.095  33.743   4.178
61435W        W32035  41.111  14.412   3.636
61436W        W32036  18.927  38.604   3.797
61437W        W32037  44.921  25.029  13.574
61438W        W32038  40.249  14.124   3.551
61439W        W32039   3.372  35.035   3.667
61440W        W32040  28.443  14.542   0.782
61441W        W32041  43.005   9.882  14.009
61442W        W32042  12.102   2.824  12.637
61443W        W32043  18.988  21.980  14.470
61444W        W32044  20.608  35.360  11.996
61445W        W32045  15.281   4.138  12.323
61446W        W32046  41.836  17.252  11.106
61447W        W32047  22.519   7.458  14.681
61448W        W32048   8.413   2.710  10.988
61449W        W32049  38.941  34.452   4.214
61450W        W32050   7.542  36.569  11.175
61451W        W32051   3.851  44.154   3.593
61452W        W32052   2.408  32.641   1.003
61453W        W32053  17.137  29.540   3.736
61454W        W32054  40.361  36.763   4.664
61455W        W32055  36.094  23.272  11.519
61456W        W32056  42.330  20.901   0.927
61457W        W32057  12.369  42.353  12.123
61458W        W32058   6.799  10.256  11.096
61459W        W32059  38.440  42.923  14.054
61460W        W32060  33.103   6.208  12.574
61461W        W32061  24.568  42.540   2.951
61462W        W32062  13.626  43.726   1.764
61463W        W32063   3.732  20.618   1.990
61464W        W32064  22.760  26.907  12.810
61465W        W32065  43.996  37.728   1.207
61466W        W32066   3.457  18.670  13.914
61467W        W32067   5.428  39.348  13.511
61468W        W32068  35.829  10.168  11.416
61469W        W32069  18.779  27.033   3.187
61470W        W32070   1.014  28.628   3.704
61471W        W32071  25.664   1.971  11.848
61472W        W32072  11.680   8.359  13.872
61473W        W32073  39.488  29.492   4.653
61474W        W32074  35.657  10.345  14.300
61475W        W32075  20.595   9.666   0.608
61476W        W32076  38.667  29.676   3.454
61477W        W32077  15.572  43.355  14.369
61478W        W32078  28.535  35.239   2.867
61479W        W32079  10.970  36.782   3.726
61480W        W32080  16.584  21.995   0.732
61481W        W32081   8.845  27.999   0.845
61482W        W32082  37.005  39.519  12.474
61483W        W32083  12.775  20.040   1.974
61484W        W32084  37.693   1.962  10.617
61485W        W32085  21.054   0.134  12.573
61486W        W32086   4.450   7.720   1.449
61487W        W32087  35.007   2.923   3.520
61488W        W32088  31.949  24.819   4.380
61489W        W32089   4.365  34.257   1.704
61490W        W32090  23.462  30.379   3.174
61491W        W32091  10.784  19.820   5.185
61492W        W32092  25.671   3.425  13.675
61493W        W32093  32.600  22.486  14.581
61494W        W32094  36.582  20.950  13.911
61495W        W32095  42.954  19.075  13.468
61496W        W32096   2.961  28.142   2.656
61497W        W32097  42.000   2.683  13.844
61498W        W32098  19.023  21.978   4.289
61499W        W32099  14.679   9.751   4.522
61500W        W32100   7.804  31.217  12.858
61501W        W32101   7.677  24.532  11.165
61502W        W32102  32.364  33.517  14.508
61503W        W32103  19.637  12.382  13.839
61504W        W32104  44.913  26.502  10.709
61505W        W32105  35.565  21.505   2.662
61506W        W32106   5.741  10.142   3.124
61507W        W32107   5.729  13.710   4.253
61508W        W32108  14.029  17.333   0.027
61509W        W32109  13.556   8.833  13.934
61510W        W32110   7.788  12.151  12.551
61511W        W32111   1.790  36.168   2.822
61512W        W32112  26.205  11.595  14.844
61513W        W32113  40.456   2.922   0.600
61514W        W32114  35.123  40.292  10.467
61515W        W32115  26.249  17.553   1.862
61516W        W32116   2.973   9.712   4.228
61517W        W32117  15.999  28.148   0.400
61518W        W32118  25.146  38.607  12.129
61519W        W32119  18.199   2.461   4.100
61520W        W32120   9.176  42.962  12.009
61521W        W32121   9.763  36.493   2.856
61522W        W32122  27.654  38.849   1.926
61523W        W32123  37.038  44.238  12.478
61524W        W32124  30.205   4.380   1.873
61525W        W32125  44.371  37.859  14.027
61526W        W32126  34.544   6.880  14.115
61527W        W32127   8.699  29.053   1.770
61528W        W32128  18.485  24.625  10.279
61529W        W32129  29.610  20.585   1.387
61530W        W32130   0.825  40.359   2.464
61531W        W32131   3.316  30.741   0.392
61532W        W32132   4.854  34.653   3.685
61533W        W32133  30.733  27.509   0.314
61534W        W32134  22.478  36.395  14.938
61535W        W32135   4.884   0.930  11.588
61536W        W32136  25.132  14.197   0.735
61537W        W32137   6.348  22.269  12.529
61538W        W32138  19.382  13.389   2.216
61539W        W32139  18.111  11.724   0.732
61540W        W32140  11.293  28.828   0.291
61541W        W32141  41.846  33.685  14.435
61542W        W32142  30.200  40.641  12.671
61543W        W32143   0.638  36.912   3.174
61544W        W32144   8.264   0.321  10.731
61545W        W32145  32.007  22.609  11.386
61546W        W32146  11.111  34.062  13.537
61547W        W32147  44.782  30.457   1.287
61548W        W32148  23.692  13.559   0.261
61549W        W32149  34.989   7.396   4.767
61550W        W32150  19.013   4.003  13.998
61551W        W32151  16.502  24.622   0.797
61552W        W32152   2.971  20.567   3.781
61553W        W32153  44.771  28.142   1.750
61554W        W32154  25.149  25.862  13.460
61555W        W32155   0.442  21.377  10.651
61556W        W32156   8.805  39.319  14.509
61557W        W32157  38.327  17.531  11.248
61558W        W32158  32.609   5.949  10.995
61559W        W32159  23.188   1.741  11.169
61560W        W32160  37.645  19.974   0.355
61561W        W32161  22.603   2.237  11.666
61562W        W32162   5.138  11.762  14.825
61563W        W32163  41.285  14.217   4.490
61564W        W32164  14.381  36.753  14.416
61565W        W32165   2.375  10.814   1.268
61566W        W32166   8.430  35.533  10.655
61567W        W32167  24.542   2.322  11.392
61568W        W32168  29.114  24.536   2.419
61569W        W32169  40.428  38.454   5.024
61570W        W32170   8.330  15.202  11.075
61571W        W32171  31.667  22.004  13.027
61572W        W32172  13.104  38.387  12.033
61573W        W32173  29.309  29.483   4.549
61574W        W32174  18.132  34.365   0.808
61575W        W32175  32.119   7.885  13.481
61576W        W32176   6.471  19.101  12.592
61577W        W32177  23.591   7.242   3.553
61578W        W32178   5.849  16.776   2.270
61579W        W32179  37.245   3.720  12.987
61580W        W32180  15.209  37.835  13.784
61581W        W32181  32.587  13.131   1.466
61582W        W32182  44.042  36.361  13.416
61583W        W32183  37.775  30.369  13.503
61584W        W32184  15.121  14.108   3.541
61585W        W32185   4.540   0.880   2.750
61586W        W32186   4.239  31.323   4.515
61587W        W32187   6.981  25.176   4.679
61588W        W32188  37.212   6.701  11.254
61589W        W32189  40.310  41.480  13.926
61590W        W32190  33.010  35.518   2.326
61591W        W32191  39.374   4.423  13.042
61592W        W32192  22.759   0.260   1.734
61593W        W32193  12.300  24.064  12.143
61594W        W32194  12.941  38.120  14.465
61595W        W32195   8.357  17.358  12.134
61596W        W32196  10.460  13.212   2.270
61597W        W32197  28.570  34.757  14.940
61598W        W32198  16.947  36.025  11.634
61599W        W32199  19.739  28.560  14.804
61600W        W32200   2.191  11.793  13.093
61601W        W32201  24.074  37.935   1.755
61602W        W32202  40.422  26.628   4.083
61603W        W32203  25.787  34.428  11.679
61604W        W32204   2.032  23.987  14.103
61605W        W32205  29.859  28.464  11.640
61606W        W32206  16.709  31.226   2.407
61607W        W32207  38.800   1.196   3.208
61608W        W32208  23.679  18.123  11.000
61609W        W32209  19.059  26.281   2.577
61610W        W32210  24.914  10.726   4.262
61611W        W32211   3.123   7.869   2.791
61612W        W32212  14.094  33.877   2.209
61613W        W32213   0.846  39.548  14.863
61614W        W32214   0.848   9.780  11.562
61615W        W32215  32.596  35.481  11.394
61616W        W32216  12.761  27.300  14.535
61617W        W32217  43.859  11.708   2.631
61618W        W32218   3.807  24.414  12.562
61619W        W32219  27.229  29.167  10.549
61620W        W32220  13.330  27.096  11.905
61621W        W32221  13.745  30.173  10.658
61622W        W32222   8.807  40.382   3.192
61623W        W32223   9.848  24.067  14.303
61624W        W32224  12.218  27.956   0.622
61625W        W32225  19.528  24.300  14.076
61626W        W32226  19.681  26.571  13.124
61627W        W32227   4.138  26.662  11.959
61628W        W32228  25.566  37.162  14.281
61629W        W32229  15.089  18.429  12.353
61630W        W32230   4.670  38.746   3.607
61631W        W32231  12.863  38.726   2.986
61632W        W32232  41.832  21.288  11.602
61633W        W32233  22.397  28.703   0.026
61634W        W32234  38.979  34.828   0.240
61635W        W32235  20.277   6.949  11.735
61636W        W32236  25.224  13.126   4.741
61637W        W32237  19.563  18.730  13.516
61638W        W32238   1.812  25.092  10.782
61639W        W32239  15.751  17.253   0.854
61640W        W32240  27.666  28.564  14.353
61641W        W32241  18.034   3.261  13.009
61642W        W32242  22.615  16.629  11.882
61643W        W32243  32.941  32.509  13.051
61644W        W32244  25.476  14.835  12.977
61645W        W32245  15.200  32.967   0.910
61646W        W32246   4.685  17.294  12.961
61647W        W32247  24.147  32.603  14.686
61648W        W32248  17.343  20.542   2.402
61649W        W32249  44.910   8.718  13.355
61650W        W32250  20.647  39.274   2.187
61651W        W32251  40.174  30.368   3.214
61652W        W32252  20.146   2.830   3.798
61653W        W32253  26.157  24.647  12.819
61654W        W32254   9.968  20.224   2.329
61655W        W32255  17.787  31.008  12.350
61656W        W32256  12.917  10.709   1.804
61657W        W32257  15.319   9.854   1.903
61658W        W32258  29.211  24.954   0.325
61659W        W32259   5.863  27.973  12.927
61660W        W32260  26.066  33.539  13.153
61661W        W32261  14.976  42.509  14.441
61662W        W32262  42.533  25.733   1.357
61663W        W32263  17.695  42.899   4.519
61664W        W32264  14.037  31.535  12.655
61665W        W32265   8.910  10.338  13.953
61666W        W32266  14.109  28.188   0.347
61667W        W32267  32.561  32.874  12.948
61668W        W32268  29.973  22.008  11.469
61669W        W32269  16.886  12.268  11.493
61670W        W32270   6.780   7.082  10.704
61671W        W32271   8.191  37.641  14.063
61672W        W32272  28.330  16.430  11.032
61673W        W32273   9.974   0.458  11.318
61674W        W32274  20.851  25.371  11.149
61675W        W32275  20.511  37.933   4.647
61676W        W32276  44.209   1.271  14.371
61677W        W32277   1.985   7.233   4.214
61678W        W32278  18.652  10.106   0.218
61679W        W32279  23.551  30.041   2.184
61680W        W32280  12.256  31.455  10.841
61681W        W32281  24.742  44.300   0.651
61682W        W32282  28.985   6.391  14.445
61683W        W32283  36.568   4.678  13.489
61684W        W32284  17.202  44.504   2.279
61685W        W32285  43.340  44.511  12.976
61686W        W32286   0.441   1.027  11.044
61687W        W32287  21.348  41.797  14.838
61688W        W32288  35.284   7.387  12.567
61689W        W32289  15.723  17.789  11.129
61690W        W32290  23.605  32.115  12.373
61691W        W32291  43.672  15.249  13.008
61692W        W32292  44.040  14.113  11.661
61693W        W32293  27.324   6.192  12.405
61694W        W32294  39.771  13.065   1.656
61695W        W32295  13.677  20.327  14.790
61696W        W32296   8.130  22.101  11.188
61697W        W32297  29.081  43.433   0.569
61698W        W32298  36.845   4.788  14.745
61699W        W32299  32.834  25.183  12.965
61700W        W32300   9.067  34.983  11.607
61701W        W32301  34.400  19.971  14.872
61702W        W32302   7.741   8.830   4.639
61703W        W32303  20.255  34.376  12.572
61704W        W32304  36.136  21.229  10.582
61705W        W32305   0.281  23.682  10.759
61706W        W32306  22.146  16.320  13.447
61707W        W32307  32.125  43.543   2.012
61708W        W32308  36.522  38.000   1.102
61709W        W32309  19.861  25.200  13.136
61710W        W32310   1.991  19.580  13.284
61711W        W32311  36.699  12.222  12.283
61712W        W32312   8.103   1.682   3.195
61713W        W32313   8.764  10.060  12.254
61714W        W32314  32.429  11.118  11.437
61715W        W32315   6.543  19.562  11.266
61716W        W32316  25.705  41.868  12.880
61717W        W32317   6.760  19.238  10.391
61718W        W32318  39.896   6.811  13.057
61719W        W32319  23.787   5.657  13.826
61720W        W32320  27.564  38.484   2.273
61721W        W32321   4.700  33.564  12.997
61722W        W32322  18.551   1.325  10.899
61723W        W32323  14.105  43.971  13.406
61724W        W32324   7.458  36.984   4.078
61725W        W32325   3.236  43.522   0.691
61726W        W32326  38.886  31.023  14.731
61727W        W32327  44.064  24.181  13.997
61728W        W32328  41.063  12.719   1.673
61729W        W32329  32.204  21.392  13.046
61730W        W32330  15.900  22.154  11.822
61731W        W32331  25.527  10.654  10.760
61732W        W32332  30.753  35.974  14.971
61733W        W32333  25.566  13.364  10.505
61734W        W32334  13.653   8.283  12.426
61735W        W32335   9.626   5.113   1.806
61736W        W32336  24.062  17.527  14.869
61737W        W32337  26.637  25.914  12.959
61738W        W32338  10.956  37.086  12.257
61739W        W32339  20.753   7.813   0.898
61740W        W32340   9.719   7.363   4.195
61741W        W32341   6.911   2.297  12.962
61742W        W32342  34.460   5.991   4.760
61743W        W32343   5.251  27.167  13.883
61744W        W32344   5.833   7.908   1.193
61745W        W32345  42.326  31.345  12.461
61746W        W32346   3.823  19.456  12.005
61747W        W32347  44.319  16.527   3.548
61748W        W32348  27.603  26.770  14.184
61749W        W32349  31.467  31.952  10.964
61750W        W32350  39.850  24.926  12.115
61751W        W32351   9.197   1.381  12.118
61752W        W32352   5.970  44.203   2.778
61753W        W32353  27.420   9.544   4.129
61754W        W32354   0.008  15.119   4.465
61755W        W32355  38.885  21.727  13.025
61756W        W32356  21.252  19.101   3.668
61757W        W32357   4.071  37.323   3.860
61758W        W32358  34.422  12.238  10.671
61759W        W32359   9.554  28.875  10.907
61760W        W32360  38.419  15.058  12.476
61761W        W32361  31.564   1.884  12.561
61762W        W32362  25.587  16.836  10.382
61763W        W32363  21.434  42.543  13.926
61764W        W32364  13.606  28.525   2.867
61765W        W32365  17.960   6.059   4.096
61766W        W32366  22.774  40.836  10.843
61767W        W32367  18.176  40.579  14.363
61768W        W32368  33.566   9.150  12.014
61769W        W32369  12.603  33.048  14.997
61770W        W32370  15.729  10.334  14.339
61771W        W32371   8.608  34.952   1.304
61772W        W32372  35.112   5.758  10.764
61773W        W32373   5.515  31.450   3.302
61774W        W32374  32.101  23.584   4.952
61775W        W32375  26.561  21.213  12.463
61776W        W32376  23.518   7.151   2.650
61777W        W32377  26.082   9.289  10.807
61778W        W32378  38.498  33.405  10.709
61779W        W32379  39.202   8.222  11.993
61780W        W32380   2.305  28.419  10.685
61781W        W32381   6.985  40.511  12.543
61782W        W32382  18.734  17.064   4.541
61783W        W32383  20.563  14.170   3.672
61784W        W32384  12.293  40.795   2.543
61785W        W32385  37.060  43.547   4.124
61786W        W32386  35.319  39.355  11.968
61787W        W32387  38.197   1.304   2.310
61788W        W32388  12.576  23.282  11.108
61789W        W32389   8.809  34.306   4.728
61790W        W32390  37.424  37.507  12.452
61791W        W32391  25.409  17.185   3.517
61792W        W32392   1.924  28.044  12.210
61793W        W32393   0.321   3.189   0.391
61794W        W32394   0.790  41.998  13.831
61795W        W32395  42.716  33.257   5.032
61796W        W32396   5.608  21.640  12.051
61797W        W32397   9.190  39.605   4.821
61798W        W32398  38.545  13.147  14.109
61799W        W32399  19.926  31.611   0.423
61800W        W32400  40.541  14.674  12.569
61801W        W32401  44.289   2.333  13.395
61802W        W32402   2.337  41.392  14.505
61803W        W32403  33.817  43.533  12.934
61804W        W32404  37.569  26.524  10.470
61805W        W32405   6.612  16.324   3.794
61806W        W32406  31.441  15.862  14.869
61807W        W32407   2.162  18.460   0.955
61808W        W32408  25.586  41.826  11.887
61809W        W32409  41.008   1.052  14.505
61810W        W32410  34.868  38.692  14.858
61811W        W32411  14.255  12.515   4.969
61812W        W32412  16.548  38.946  13.321
61813W        W32413   8.612  21.672  14.241
61814W        W32414  44.930  31.052   0.643
61815W        W32415  25.627  32.318   0.969
61816W        W32416  28.586   1.127   3.156
61817W        W32417  37.479  39.884  10.170
61818W        W32418  25.091  33.006  11.649
61819W        W32419  36.904  28.154   1.719
61820W        W32420  36.305  10.065   2.355
61821W        W32421   4.703  30.559  12.065
61822W        W32422  43.366  42.205   3.177
61823W        W32423  40.526  26.002  11.246
61824W        W32424  24.566   2.493  13.529
61825W        W32425   3.464  22.323   1.957
61826W        W32426  28.017   6.197  11.549
61827W        W32427  37.669  12.478   1.616
61828W        W32428  13.654  21.388  13.266
61829W        W32429  40.008  11.839  13.401
61830W        W32430  10.603  25.201  11.262
61831W        W32431  27.611   6.780   1.275
61832W        W32432  29.412   0.361  12.134
61833W        W32433  22.532  23.741  14.280
61834W        W32434   5.847  37.033   2.590
61835W        W32435  22.667  23.187   1.275
61836W        W32436   5.766  33.080   3.908
61837W        W32437  23.755  36.902   3.021
61838W        W32438  25.417  26.289  11.660
61839W        W32439  12.243  17.694   1.723
61840W        W32440   9.554  14.676   3.124
61841W        W32441  38.984  11.626   1.841
61842W        W32442  23.391   8.749   1.471
61843W        W32443   2.337   4.435   1.865
61844W        W32444  33.884  34.390   0.898
61845W        W32445  33.680   6.731   3.648
61846W        W32446  41.881   0.446  10.779
61847W        W32447  27.524  26.503  10.758
61848W        W32448  33.472  23.223  10.817
61849W        W32449   9.814   7.955   2.368
61850W        W32450  35.427  14.796   3.105
61851W        W32451  22.554  31.655  14.906
61852W        W32452  39.072   5.685   4.676
61853W        W32453  18.562  25.680  12.351
61854W        W32454  27.941  39.717   4.168
61855W        W32455   5.429  24.112  11.212
61856W        W32456  38.395  41.256  13.856
61857W        W32457  42.565  10.893   4.618
61858W        W32458   5.035  10.781   0.910
61859W        W32459  44.926  20.611  13.134
61860W        W32460  40.925  43.433   4.430
61861W        W32461  25.881  13.893  11.533
61862W        W32462  44.498  10.578  12.129
61863W        W32463  15.101   2.323  14.398
61864W        W32464  19.012  35.479   0.339
61865W        W32465  32.990  41.491  11.326
61866W        W32466  38.486  18.318   4.854
61867W        W32467   2.717   7.163  14.741
61868W        W32468  20.036  17.060  12.989
61869W        W32469  15.878  42.107   4.908
61870W        W32470  17.327  16.712   2.640
61871W        W32471  30.981  30.352  13.511
61872W        W32472  44.318  24.252  11.639
61873W        W32473  27.679   9.537   0.841
61874W        W32474  30.544  29.033  11.534
61875W        W32475  21.001  33.987  14.346
61876W        W32476  36.418  41.955   0.839
61877W        W32477   6.189  27.932  13.453
61878W        W32478   3.995   6.768   4.827
61879W        W32479  17.845  40.868  14.069
61880W        W32480  24.228  39.733   4.984
61881W        W32481  28.046  24.071  11.360
61882W        W32482   1.821  20.839  12.397
61883W        W32483  24.731   4.046  12.954
61884W        W32484  18.715   7.443  13.521
61885W        W32485  20.726  10.852   4.076
61886W        W32486  17.123   3.684  10.998
61887W        W32487  24.735  30.589   2.616
61888W        W32488   9.510   1.795  12.000
61889W        W32489  40.952  29.417  11.088
61890W        W32490  31.203  24.615  14.308
61891W        W32491  37.150  29.904   2.760
61892W        W32492  32.440  44.449   0.769
61893W        W32493  30.585  13.560   3.242
61894W        W32494  26.396  41.432   3.145
61895W        W32495  36.254  22.998   0.492
61896W        W32496  26.375  42.429  12.020
61897W        W32497  39.118  13.987  13.055
61898W        W32498   8.866  15.271  11.183
61899W        W32499  41.342   1.296  14.808
61900W        W32500  27.411  39.284   1.882
61901W        W32501  15.881   6.288  12.653
61902W        W32502  20.800  34.860   4.683
61903W        W32503  31.893  19.141   2.791
61904W        W32504  25.125  42.591  14.396
61905W        W32505  18.409   3.016  11.404
61906W        W32506  35.136  33.503   1.642
61907W        W32507  34.010  23.073  12.370
61908W        W32508  21.073  35.805   3.206
61909W        W32509  17.659   4.069   0.145
61910W        W32510  35.684  11.784  14.856
61911W        W32511  31.975  19.517  14.403
61912W        W32512  32.215  26.918   3.606
61913W        W32513   4.181  35.965   4.461
61914W        W32514  41.161  35.122   4.655
61915W        W32515   5.157   7.404  11.706
61916W        W32516  34.575  42.632   1.819
61917W        W32517  26.394  42.947   1.792
61918W        W32518  38.619  31.020   1.177
61919W        W32519   8.460  10.124   2.487
61920W        W32520   5.386  19.024   2.232
61921W        W32521   8.240   2.447   0.333
61922W        W32522  20.704  13.220  13.302
61923W        W32523  44.848  40.266  12.490
61924W        W32524  29.778  36.939  14.291
61925W        W32525  23.444  12.638   2.213
61926W        W32526   2.771  20.317   2.133
61927W        W32527  43.760  25.772   1.718
61928W        W32528   5.664   6.402   3.716
61929W        W32529  26.950  10.227  14.435
61930W        W32530  14.620   7.836   1.411
61931W        W32531  13.136  10.298  11.199
61932W        W32532  20.718  26.469  11.843
61933W        W32533  33.967  40.069  14.363
61934W        W32534  23.183  10.215   4.553
61935W        W32535  44.191  36.402   0.890
61936W        W32536  26.613  13.980   4.775
61937W        W32537   2.358   8.463   0.871
61938W        W32538   8.817  24.646  13.686
61939W        W32539  10.333   9.388  11.097
61940W        W32540  25.721  19.608   1.344
61941W        W32541  21.237  35.000   4.441
61942W        W32542  22.154   7.932   1.914
61943W        W32543   2.927  38.180   3.367
61944W        W32544  29.495  33.836   4.974
61945W        W32545   4.779   2.954   4.549
61946W        W32546  12.194  21.587   3.313
61947W        W32547  35.925  26.166   4.823
61948W        W32548  43.947  35.763  10.517
61949W        W32549  41.292   8.344  14.455
61950W        W32550  34.880   4.910  11.909
61951W        W32551  19.606  19.818   5.089
61952W        W32552   6.252  37.388   3.293
61953W        W32553   2.269  26.224   4.119
61954W        W32554  29.859  23.046  10.713
61955W        W32555  43.762  42.116   4.729
61956W        W32556   6.838   8.310  11.141
61957W        W32557   4.316  11.451  12.824
61958W        W32558  32.167  28.575   0.301
61959W        W32559  14.303  10.940   1.800
61960W        W32560  39.112  14.751  12.937
61961W        W32561   3.661   8.753   3.146
61962W        W32562  24.930  44.857  12.729
61963W        W32563  14.705   6.759  13.624
61964W        W32564   4.839  18.578  14.864
61965W        W32565  34.135  31.932   5.327
61966W        W32566  38.126  36.568   3.969
61967W        W32567  20.430  10.848   3.645
61968W        W32568  10.641  30.167   1.822
61969W        W32569   5.323  42.269   2.637
61970W        W32570   7.336  11.208  10.715
61971W        W32571   2.461  16.059   1.766
61972W        W32572  24.989  33.415  13.347
61973W        W32573  24.097  37.889   4.648
61974W        W32574   9.327  34.457  10.700
61975W        W32575  29.127  37.410  12.814
61976W        W32576   6.403  18.827   0.926
61977W        W32577   3.837  11.680  12.592
61978W        W32578  29.896  42.033  11.687
61979W        W32579  33.655  37.267  11.958
61980W        W32580  16.526  14.123   0.958
61981W        W32581   8.655  22.704   1.937
61982W        W32582  39.553   0.044   4.525
61983W        W32583  27.077  31.047   4.121
61984W        W32584   4.537   5.518   3.730
61985W        W32585   4.845  25.553  10.110
61986W        W32586  30.844  44.406   4.129
61987W        W32587  16.653   5.851   2.650
61988W        W32588  43.112  33.623  11.016
61989W        W32589  38.679  37.318   1.386
61990W        W32590  33.166  18.048  14.748
61991W        W32591  11.747  37.526   3.618
61992W        W32592   8.880  40.078   0.930
61993W        W32593  10.790  41.687   2.072
61994W        W32594   1.692  37.559  10.197
61995W        W32595  23.100  25.245  11.162
61996W        W32596   2.403  16.065   2.649
61997W        W32597  13.586  13.312   1.677
61998W        W32598  23.028  43.892  12.518
61999W        W32599  41.043  42.113  11.932
62000W        W32600  21.398  39.019  10.277
62001W        W32601  22.210  36.432   1.793
62002W        W32602  31.327  21.094   0.706
62003W        W32603  40.999  31.535   2.630
62004W        W32604  17.644  43.737  13.989
62005W        W32605  40.494  26.641   3.202
62006W        W32606  26.209  39.141  14.199
62007W        W32607  12.758  15.138   1.795
62008W        W32608  44.441  35.013  14.260
62009W        W32609  25.241  33.797  10.600
62010W        W32610  15.896  32.497  12.615
62011W        W32611  25.468  16.808  13.834
62012W        W32612  27.963  32.248   4.336
62013W        W32613  41.370   0.023  11.431
62014W        W32614   4.558  14.617   0.504
62015W        W32615   0.644  10.016   2.899
62016W        W32616  12.339  10.249  11.592
62017W        W32617   0.676  22.704  13.758
62018W        W32618  28.938   9.404  11.558
62019W        W32619  24.960  24.960  11.534
62020W        W32620  15.308   4.732   3.264
62021W        W32621  10.173  37.384   0.954
62022W        W32622   9.390  15.596   0.001
62023W        W32623   8.145   4.629  12.455
62024W        W32624   9.832  38.494  14.927
62025W        W32625  39.132   5.773  14.423
62026W        W32626  27.672  33.835  10.695
62027W        W32627  27.426  32.705   3.216
62028W        W32628  33.680  38.957   2.322
62029W        W32629  37.576  24.753  13.038
62030W        W32630  41.281  19.534  12.460
62031W        W32631  11.663  30.455  12.670
62032W        W32632  36.631  17.508  11.230
62033W        W32633   2.907  44.546  12.492
62034W        W32634  15.197  34.305   0.393
62035W        W32635  13.801  39.449   1.888
62036W        W32636  32.068  15.240  11.561
62037W        W32637   9.426  20.968  12.621
62038W        W32638   8.321   7.690  10.640
62039W        W32639   9.128   6.198  11.145
62040W        W32640  10.388  21.163   3.309
62041W        W32641  19.556  33.964   9.989
62042W        W32642   2.354  40.615   2.758
62043W        W32643  42.843   3.613  13.095
62044W        W32644  27.762  10.303   1.212
62045W        W32645  34.552  41.820  12.341
62046W        W32646  33.152   5.169  11.194
62047W        W32647   4.369  17.591   1.290
62048W        W32648  20.775  16.185   3.651
62049W        W32649  27.519  29.107  11.681
62050W        W32650  20.218  38.895  11.626
62051W        W32651  43.348   0.964   2.746
62052W        W32652  28.349  35.971   2.367
62053W        W32653  26.057   7.972   1.230
62054W        W32654  22.639   2.989  10.701
62055W        W32655   7.393  22.648   4.076
62056W        W32656  40.952  17.809   9.973
62057W        W32657  38.228  42.266   0.800
62058W        W32658   0.853  25.156  12.120
62059W        W32659  35.893  32.149   4.748
62060W        W32660  18.230  15.586  11.196
62061W        W32661   4.949   6.191  12.489
62062W        W32662  36.866   6.855   3.391
62063W        W32663   9.027  42.944   4.620
62064W        W32664  11.207  14.622  10.393
62065W        W32665  26.716   4.862   2.696
62066W        W32666  37.186  38.611   1.457
62067W        W32667  32.053  38.398  13.878
62068W        W32668  18.239   8.385  13.450
62069W        W32669  41.447  20.125  13.381
62070W        W32670   4.820  11.695  11.624
62071W        W32671   1.406  25.469  14.527
62072W        W32672   0.132   7.934  10.631
62073W        W32673  22.377  18.805  11.661
62074W        W32674  21.253  24.119   2.602
62075W        W32675  24.741  14.262  13.083
62076W        W32676  31.981  24.130   0.339
62077W        W32677  30.781   4.295  12.849
62078W        W32678   1.919  39.183   0.423
62079W        W32679  22.337  37.058  10.634
62080W        W32680  34.038  18.165  10.670
62081W        W32681  37.534  35.441   1.125
62082W        W32682  20.292  16.706   4.879
62083W        W32683  25.689  11.148   4.291
62084W        W32684  26.123  38.880  11.039
62085W        W32685  38.421  15.816  12.955
62086W        W32686  24.269  19.382   3.524
62087W        W32687  42.365   8.665   4.141
62088W        W32688   1.037  41.513  12.112
62089W        W32689  22.611  21.099   0.247
62090W        W32690   4.810  12.399   4.202
62091W        W32691   1.532   5.878  12.625
62092W        W32692   5.480  30.702   1.314
62093W        W32693  37.284  44.915  12.082
62094W        W32694  32.579  34.109  12.916
62095W        W32695   3.023  33.883   3.174
62096W        W32696   1.787  41.118  13.008
62097W        W32697  16.165  38.603  12.618
62098W        W32698  44.116  18.068   0.365
62099W        W32699  33.893  25.209  10.823
62100W        W32700  37.606  13.619  14.505
62101W        W32701  12.342  44.880   1.363
62102W        W32702  29.432  21.221   0.562
62103W        W32703  22.878  10.244  10.299
62104W        W32704  16.617  15.070   2.377
62105W        W32705  39.106   4.728  13.396
62106W        W32706  26.543  33.239   2.461
62107W        W32707  14.054   0.372  12.978
62108W        W32708  35.326  10.389   4.994
62109W        W32709  38.474  38.421  14.850
62110W        W32710  10.576   6.885   4.622
62111W        W32711  27.551  34.077  13.843
62112W        W32712   7.903  44.599   1.407
62113W        W32713  11.572  42.672   4.041
62114W        W32714  34.511  18.759   0.299
62115W        W32715  14.338  22.660  10.818
62116W        W32716  22.002   6.963  12.102
62117W        W32717   0.317   4.943   4.281
62118W        W32718  33.538  22.234   3.323
62119W        W32719  14.331   0.957   1.315
62120W        W32720   8.481  20.216  11.137
62121W        W32721  32.427  29.167   3.784
62122W        W32722  11.241  33.418   2.844
62123W        W32723  25.963  28.233   2.312
62124W        W32724   4.433   6.838  11.069
62125W        W32725  35.041  20.637  11.752
62126W        W32726  35.846  44.020  12.036
62127W        W32727   5.812  36.601   3.351
62128W        W32728  15.230  26.411   2.676
62129W        W32729   1.851  27.961   2.281
62130W        W32730  18.151   4.398  12.525
62131W        W32731  18.212  29.702  12.604
62132W        W32732  20.845  24.439   1.641
62133W        W32733  32.918   6.174   3.338
62134W        W32734  40.047  30.143  10.522
62135W        W32735  18.297  12.312   2.408
62136W        W32736   6.240  34.856  13.955
62137W        W32737  34.780  35.012   5.223
62138W        W32738  25.152  43.592  12.391
62139W        W32739  11.325  21.136  10.308
62140W        W32740  22.973   4.883   0.314
62141W        W32741  33.658  43.470   4.351
62142W        W32742  21.598  27.382  14.616
62143W        W32743   0.300   0.535  14.893
62144W        W32744  13.370  22.087  13.443
62145W        W32745  34.851  19.109   3.730
62146W        W32746  14.777  36.634   1.347
62147W        W32747  37.128  10.129   4.585
62148W        W32748  37.754  38.868  14.415
62149W        W32749   7.523  40.197  11.589
62150W        W32750  11.146  36.211  14.994
62151W        W32751  34.040  15.533   0.907
62152W        W32752  24.351   7.263  11.062
62153W        W32753   4.292   0.177   2.692
62154W        W32754  37.819  21.469  10.370
62155W        W32755  26.629  14.597  12.205
62156W        W32756  16.012  42.917  12.321
62157W        W32757   7.205  11.725  13.570
62158W        W32758  44.030  25.598  12.480
62159W        W32759  16.200  27.688  10.883
62160W        W32760  20.536  43.734   0.020
62161W        W32761  22.040   6.166  11.572
62162W        W32762  37.639  41.351  10.856
62163W        W32763  40.513  37.337   2.620
62164W        W32764  41.297  22.508  10.731
62165W        W32765  30.498  14.236  12.882
62166W        W32766  20.174  33.582  13.549
62167W        W32767  20.168  20.091  13.553
62168W        W32768   7.593  21.605  14.273
62169W        W32769  44.574  24.565  11.973
62170W        W32770  40.709  15.041  12.913
62171W        W32771  18.398  27.934   0.771
62172W        W32772  27.974  42.229   2.448
62173W        W32773  20.147  31.529   3.997
62174W        W32774  10.878  32.968   0.886
62175W        W32775  28.063   3.403  11.257
62176W        W32776  44.602   2.892  12.057
62177W        W32777  35.667   6.925   4.091
62178W        W32778   7.353  18.465   1.105
62179W        W32779   4.411  19.300   4.550
62180W        W32780  18.666   6.138   2.415
62181W        W32781   9.207  22.313  13.365
62182W        W32782  32.257  39.654  11.966
62183W        W32783   9.785  40.994  11.420
62184W        W32784  39.047   2.670   2.810
62185W        W32785  35.796  23.730   2.280
62186W        W32786  12.556   0.607   1.218
62187W        W32787  35.417   6.889  12.753
62188W        W32788  24.301  28.104   1.127
62189W        W32789  40.646  37.146  13.020
62190W        W32790   7.227  12.320  13.145
62191W        W32791   8.893  25.517  13.649
62192W        W32792  22.977  27.188  14.441
62193W        W32793  23.956  16.406   1.356
62194W        W32794  22.497  14.607   1.700
62195W        W32795  16.344  24.092   3.899
62196W        W32796   5.013  42.471   3.865
62197W        W32797  39.028  35.546   3.061
62198W        W32798   2.162   8.369   4.229
62199W        W32799  14.626  32.499   0.426
62200W        W32800   5.608   7.175  13.937
62201W        W32801  11.362   8.944   3.292
62202W        W32802   7.362  28.913  13.165
62203W        W32803  38.123  32.027   0.160
62204W        W32804  22.749  39.924   1.330
62205W        W32805   3.749  40.577  14.369
62206W        W32806  19.508  13.962   3.363
62207W        W32807  28.726  14.901  14.147
62208W        W32808  36.631  14.595   1.182
62209W        W32809   4.695   9.994   0.372
62210W        W32810  38.095  26.702  12.877
62211W        W32811  42.863  36.592   3.740
62212W        W32812   0.147  17.725   0.829
62213W        W32813  23.252  18.147  13.926
62214W        W32814  26.364  25.238  11.364
62215W        W32815  27.023  19.226  13.450
62216W        W32816  44.516  32.552   3.198
62217W        W32817   1.586  40.531   0.695
62218W        W32818   3.382  25.490   1.133
62219W        W32819  27.071  44.734  13.404
62220W        W32820  26.998  41.016   0.564
62221W        W32821  40.511  38.077  12.615
62222W        W32822  28.431  22.561  10.548
62223W        W32823  28.110  42.972  13.937
62224W        W32824  17.664   5.302  12.664
62225W        W32825  28.828  33.520  10.653
62226W        W32826  13.513  10.846  11.155
62227W        W32827   8.309   0.133   0.560
62228W        W32828   5.023  14.178   1.823
62229W        W32829  11.254   2.694  11.038
62230W        W32830   4.396   1.465  13.493
62231W        W32831   7.115  43.249  10.967
62232W        W32832  43.348   7.097   3.346
62233W        W32833  28.008  26.091   0.846
62234W        W32834  14.706   0.385   2.853
62235W        W32835   3.915  39.691  11.428
62236W        W32836  22.052  13.726  10.885
62237W        W32837  12.567   3.626  12.061
62238W        W32838  12.847  41.446  12.377
62239W        W32839  13.246   5.107  14.304
62240W        W32840  40.005  18.571   0.851
62241W        W32841  21.796  36.984  11.550
62242W        W32842  37.114  23.295   4.074
62243W        W32843   8.871  43.906  10.733
62244W        W32844  23.538  36.508  12.887
62245W        W32845  28.575  37.971  13.762
62246W        W32846  38.347  33.026  14.360
62247W        W32847  17.034   3.382  14.347
62248W        W32848  26.173  30.072  13.511
62249W        W32849  22.977  44.764   0.902
62250W        W32850  30.471  33.473   0.836
62251W        W32851  36.892   0.562  11.514
62252W        W32852  34.410   2.223   3.731
62253W        W32853  31.479  31.402  14.441
62254W        W32854   0.206  20.473   0.786
62255W        W32855   5.094   3.266  11.995
62256W        W32856  31.416   1.554   4.182
62257W        W32857  40.052  16.005   3.062
62258W        W32858  25.171  25.271   2.294
62259W        W32859  17.373  14.606  14.581
62260W        W32860  17.983   4.174   4.611
62261W        W32861   0.916  18.251  14.949
62262W        W32862  41.056  37.792  10.499
62263W        W32863   6.220  32.568   4.789
62264W        W32864  23.749   0.123  14.088
62265W        W32865  27.531   0.706  11.319
62266W        W32866  36.315  32.609   1.847
62267W        W32867   8.616  16.805  10.379
62268W        W32868  15.448  32.838   3.651
62269W        W32869  29.450  10.169  14.286
62270W        W32870  15.006  42.377  13.465
62271W        W32871  21.152  23.271  12.841
62272W        W32872  21.808  22.431   4.540
62273W        W32873  39.538  35.614  14.837
62274W        W32874  12.685  14.814   2.223
62275W        W32875  33.942  26.003   3.286
62276W        W32876   0.779  19.597   2.751
62277W        W32877  41.437  29.316  11.209
62278W        W32878   7.669   4.247   2.611
62279W        W32879   0.922  37.515  11.201
62280W        W32880  13.803   9.632  14.268
62281W        W32881  11.775  11.715  11.941
62282W        W32882  26.527  31.577  12.965
62283W        W32883  40.416  27.111  11.745
62284W        W32884  25.552  16.055  11.974
62285W        W32885  30.326  14.840  14.021
62286W        W32886  32.655   1.977   1.273
62287W        W32887  10.333  43.950   0.238
62288W        W32888  17.737   4.768  12.467
62289W        W32889  17.159   5.319  12.532
62290W        W32890  15.272  16.876   3.084
62291W        W32891  11.043  21.647   4.758
62292W        W32892  26.182  17.273  13.763
62293W        W32893   5.342  37.424   0.167
62294W        W32894  29.892   6.354  11.891
62295W        W32895   9.716  14.367  11.231
62296W        W32896  44.252   5.422  13.124
62297W        W32897  33.654   1.289   3.222
62298W        W32898  29.162  43.278   4.591
62299W        W32899  41.329  42.508   4.212
62300W        W32900   4.846   7.499  14.332
62301W        W32901  39.120   7.083   1.212
62302W        W32902  44.956   2.970  13.416
62303W        W32903  26.590  24.990   1.734
62304W        W32904  33.063  20.009   0.529
62305W        W32905  29.210  16.680   4.075
62306W        W32906  39.865  25.744  11.143
62307W        W32907  11.593  38.106  14.906
62308W        W32908   3.815   9.409   0.302
62309W        W32909  27.964  35.297  12.018
62310W        W32910  39.606   8.228  12.931
62311W        W32911  20.204  27.393  12.555
62312W        W32912  37.527  14.427   2.604
62313W        W32913  22.250   3.418  12.975
62314W        W32914  34.167  44.513  11.987
62315W        W32915  30.095  21.524   0.250
62316W        W32916  18.020  13.673   1.911
62317W        W32917   7.655   6.712  14.991
62318W        W32918  23.257  11.549   3.057
62319W        W32919  27.219  44.736  11.530
62320W        W32920   8.235  22.289   4.124
62321W        W32921  34.588   2.734   4.633
62322W        W32922   7.387   4.107   0.552
62323W        W32923  29.657   1.356   2.285
62324W        W32924  44.552  44.301  12.631
62325W        W32925   6.112  42.321  10.634
62326W        W32926  36.780  31.138   0.452
62327W        W32927  16.075  44.827  10.901
62328W        W32928  18.071  19.983  14.695
62329W        W32929  27.484  31.029   3.824
62330W        W32930  33.975  19.377  11.513
62331W        W32931  17.656  11.678   0.993
62332W        W32932  43.562   1.467  12.023
62333W        W32933  18.971  21.432  11.076
62334W        W32934  32.535   9.397   2.923
62335W        W32935  44.955  27.499  10.691
62336W        W32936  30.573  10.655   1.829
62337W        W32937  37.109   0.673   2.741
62338W        W32938  18.308  11.711  14.849
62339W        W32939  39.272  40.316   1.903
62340W        W32940  25.952  35.046   3.285
62341W        W32941  37.857  32.389   0.468
62342W        W32942   5.598  43.379  14.310
62343W        W32943  39.923  41.744  13.382
62344W        W32944  23.641  17.105   2.950
62345W        W32945   7.482  27.018   4.059
62346W        W32946   6.459  26.142  12.535
62347W        W32947   4.683  41.600   4.898
62348W        W32948  34.177   8.216   3.262
62349W        W32949   9.753  16.818   4.338
62350W        W32950  20.982  17.398   2.300
62351W        W32951  30.895   6.792   4.590
62352W        W32952  20.736  27.773  14.340
62353W        W32953  36.975  35.177   0.387
62354W        W32954  25.774  16.118  11.093
62355W        W32955  44.059  10.633   2.373
62356W        W32956  44.713  39.638  14.432
62357W        W32957  20.725  39.404   0.835
62358W        W32958  29.702  22.692  14.377
62359W        W32959  18.794  35.753   3.333
62360W        W32960  26.958  44.913  10.540
62361W        W32961   3.089  25.174   2.934
62362W        W32962   8.723  28.968  13.588
62363W        W32963  32.493  20.628   3.282
62364W        W32964   8.345  35.875   2.787
62365W        W32965  29.051  22.050  10.694
62366W        W32966  18.660   8.776   1.885
62367W        W32967  33.389  27.501  11.945
62368W        W32968  26.587   8.364  13.016
62369W        W32969  15.625  27.954   2.785
62370W        W32970  16.950  19.310   2.742
62371W        W32971   8.913  41.890   3.130
62372W        W32972  14.727  44.488   0.335
62373W        W32973  22.525  44.536   3.232
62374W        W32974  12.792   6.598   0.431
62375W        W32975  31.577  12.640  14.847
62376W        W32976  42.316  24.951   1.617
62377W        W32977  20.763  33.808   4.144
62378W        W32978  18.463   1.008   2.844
62379W        W32979  12.701  14.924   0.846
62380W        W32980  23.297   3.058   1.894
62381W        W32981  34.903  36.104  10.458
62382W        W32982  11.201   2.889  12.493
62383W        W32983  39.880   6.975  11.679
62384W        W32984  19.293   1.236  13.592
62385W        W32985  32.368  18.706   0.269
62386W        W32986  13.829  20.822  14.918
62387W        W32987  37.267  33.344   3.156
62388W        W32988  20.263   7.935  11.566
62389W        W32989  17.728  13.771  11.901
62390W        W32990  33.409   9.910  11.579
62391W        W32991  28.187  19.032  11.594
62392W        W32992  44.363  31.020  11.401
62393W        W32993   4.505  42.723  13.700
62394W        W32994   1.068   8.697  12.967
62395W        W32995  18.967  43.745   3.837
62396W        W32996  19.733  16.051   4.687
62397W        W32997  12.701   7.143   3.646
62398W        W32998   7.015  41.853  13.113
62399W        W32999  24.682  34.539   4.948
62400W        W33000  41.048  22.036   4.249
62401W        W33001  43.452  15.693  12.861
62402W        W33002   0.322  11.085  11.578
62403W        W33003  15.734  15.581   0.826
62404W        W33004  30.896  18.371   0.382
62405W        W33005   4.238  18.235  12.703
62406W        W33006   8.201  29.682  11.077
62407W        W33007  15.322  11.394  11.068
62408W        W33008  17.557  31.147   2.634
62409W        W33009  38.767   5.010   4.963
62410W        W33010   7.417   5.688  14.015
62411W        W33011  14.553  10.802   3.749
62412W        W33012  43.461  41.500  10.776
62413W        W33013  20.765  14.651  13.575
62414W        W33014  39.505  19.606  12.632
62415W        W33015   2.814  13.833   2.152
62416W        W33016  28.221  20.236   0.386
62417W        W33017  44.754  36.766   4.604
62418W        W33018  14.152  33.834  12.933
62419W        W33019  14.679  34.485  14.490
62420W        W33020   9.218  43.726   3.337
62421W        W33021  32.009  39.422  14.639
62422W        W33022  37.365  31.494   0.285
62423W        W33023  17.876  21.064   3.716
62424W        W33024  29.588  38.875   2.817
62425W        W33025  29.888  43.833  14.494
62426W        W33026   5.296  19.154  14.199
62427W        W33027  35.347   1.817   1.379
62428W        W33028  31.160  21.786   0.321
62429W        W33029  13.831  24.755  11.079
62430W        W33030  27.952   1.407   2.754
62431W        W33031   2.653  13.270  14.815
62432W        W33032   5.745   6.153   3.243
62433W        W33033  44.794  18.023   2.277
62434W        W33034   5.946  12.629   4.591
62435W        W33035  33.831   8.834  14.590
62436W        W33036  15.066  15.059  11.117
62437W        W33037  41.270  10.339  12.068
62438W        W33038  36.878   3.410   2.779
62439W        W33039  19.508  33.620   4.041
62440W        W33040  41.028  39.584  12.081
62441W        W33041   7.598  19.752   2.165
62442W        W33042  38.508  20.547  12.078
62443W        W33043  43.359   7.039  13.024
62444W        W33044  11.158  15.364   2.877
62445W        W33045  42.499  36.628   0.511
62446W        W33046  15.058  18.752   3.364
62447W        W33047  30.020   2.086  11.843
62448W        W33048  32.367   3.197   2.472
62449W        W33049  22.776  29.059  10.683
62450W        W33050  38.772  20.364   3.066
62451W        W33051   4.027  19.663   1.682
62452W        W33052  35.813  35.036  10.657
62453W        W33053  16.493   8.615  11.821
62454W        W33054  28.636  19.720  14.900
62455W        W33055  42.591  19.850   0.776
62456W        W33056   3.779  42.415  11.017
62457W        W33057   8.935  19.873  12.101
62458W        W33058  39.418  35.807  14.331
62459W        W33059  17.572  38.405   0.244
62460W        W33060  41.529  43.012  13.408
62461W        W33061  24.684  16.820  14.316
62462W        W33062   1.237   5.261  11.639
62463W        W33063  14.105  35.348  14.253
62464W        W33064  34.447   7.709   1.317
62465W        W33065  17.035  15.963   3.754
62466W        W33066  40.982  38.655   4.675
62467W        W33067  19.876  24.762   3.709
62468W        W33068  36.565  23.910   3.656
62469W        W33069   6.925   0.296   1.883
62470W        W33070  17.083  24.950  12.523
62471W        W33071  15.693  36.131   3.244
62472W        W33072   2.542   1.347  10.615
62473W        W33073  17.664   0.851   1.657
62474W        W33074  12.372   7.223   0.896
62475W        W33075   5.828  23.238   2.264
62476W        W33076   7.614  35.179  14.924
62477W        W33077  40.654   3.301   1.771
62478W        W33078  10.165  26.011   0.873
62479W        W33079  33.527  33.125   0.562
62480W        W33080  28.653  25.508   2.698
62481W        W33081  13.149  11.225   1.848
62482W        W33082  11.107  23.100  13.437
62483W        W33083  44.241   9.622  11.160
62484W        W33084   8.193  17.180  14.416
62485W        W33085  38.085  32.551  14.408
62486W        W33086  24.141  10.857  14.328
62487W        W33087  41.282  22.631   0.717
62488W        W33088   2.429  39.300   1.283
62489W        W33089   3.401  15.356   1.372
62490W        W33090  23.956  36.958   1.706
62491W        W33091  20.734  39.923  13.328
62492W        W33092  26.461  28.227  14.911
62493W        W33093  10.692  38.451   2.101
62494W        W33094  29.899  35.968   4.535
62495W        W33095  41.100  11.691   2.867
62496W        W33096   3.727  27.601   2.347
62497W        W33097   1.366   7.478  13.927
62498W        W33098   9.617  28.382  10.726
62499W        W33099  28.986  28.856   2.713
62500W        W33100  15.545  23.101  10.315
62501W        W33101  21.546  24.778  12.123
62502W        W33102  23.721  24.618   4.176
62503W        W33103  28.714  13.073   5.153
62504W        W33104   8.227  34.881  11.070
62505W        W33105  17.780  13.426   4.100
62506W        W33106  30.897  29.348  14.980
62507W        W33107   5.639  20.182   4.581
62508W        W33108   6.253  26.489  13.903
62509W        W33109  15.902  14.347  13.405
62510W        W33110  43.970  17.187  12.091
62511W        W33111  28.542  14.229  10.828
62512W        W33112  34.554  26.778   4.146
62513W        W33113  42.468  37.825  11.153
62514W        W33114  28.620  22.637   1.867
62515W        W33115  26.184  20.109   3.713
62516W        W33116  30.496   9.945   4.185
62517W        W33117   4.224  15.083  11.012
62518W        W33118  12.886  12.541   4.379
62519W        W33119   9.143  38.521   1.430
62520W        W33120  11.350  28.454  14.472
62521W        W33121  38.042   2.115   1.827
62522W        W33122  23.977  23.760   4.716
62523W        W33123  24.003  21.162   3.701
62524W        W33124  39.340  37.706  11.464
62525W        W33125  41.208   9.157   1.730
62526W        W33126  19.775   2.717  14.306
62527W        W33127  22.692  41.866  13.775
62528W        W33128   4.937  11.184   3.726
62529W        W33129  25.104   7.475  12.226
62530W        W33130  12.066  13.361   3.759
62531W        W33131  26.088  20.255   1.998
62532W        W33132  22.340   4.184  11.270
62533W        W33133  26.533  34.327  13.460
62534W        W33134  27.076  37.448   4.107
62535W        W33135  33.329   9.699  14.339
62536W        W33136  18.467   4.979  13.214
62537W        W33137  22.708  34.862  14.041
62538W        W33138  23.520  23.153  10.479
62539W        W33139  20.476  34.071  11.732
62540W        W33140  44.768   4.280   0.369
62541W        W33141   1.552   0.320   0.038
62542W        W33142   3.482   9.561   3.206
62543W        W33143  36.376   6.850   0.352
62544W        W33144  38.888   5.763   4.182
62545W        W33145  26.679  33.579   2.102
62546W        W33146   5.014  20.679  10.671
62547W        W33147   0.575  21.144  12.730
62548W        W33148  43.112  24.870   4.196
62549W        W33149  12.331  39.348  11.073
62550W        W33150  26.641  29.123  12.736
62551W        W33151  41.455  17.903  13.931
62552W        W33152  39.928   6.655   2.297
62553W        W33153   5.188  31.912   1.815
62554W        W33154  31.385  35.306  12.435
62555W        W33155   3.958   9.241  10.459
62556W        W33156  19.410   6.784   1.927
62557W        W33157  30.458  38.762  11.997
62558W        W33158  11.274   6.185   2.247
62559W        W33159  36.636   2.732   4.100
62560W        W33160  10.551  21.989   0.379
62561W        W33161  11.599   5.797   2.202
62562W        W33162  31.552  17.643  13.962
62563W        W33163  14.564  24.233   3.171
62564W        W33164  31.863  28.947  12.128
62565W        W33165   5.855  15.825  11.362
62566W        W33166  23.477  38.913   1.753
62567W        W33167  36.109  38.852  11.071
62568W        W33168   2.963  19.059   4.785
62569W        W33169   5.931  44.815   4.560
62570W        W33170  40.588   5.413  13.851
62571W        W33171  39.982  40.990  11.266
62572W        W33172  37.534   6.647  14.860
62573W        W33173  32.964  41.772  12.690
62574W        W33174   5.709   4.375   3.592
62575W        W33175   0.421   5.744  13.426
62576W        W33176  32.669  36.071   2.647
62577W        W33177   5.404   5.845   1.940
62578W        W33178  36.633  30.339   3.239
62579W        W33179  40.048   9.624  13.433
62580W        W33180  32.547  26.181   3.564
62581W        W33181  19.863  25.074  11.121
62582W        W33182  11.729  25.613   4.402
62583W        W33183  27.207  11.259  12.625
62584W        W33184  40.796  12.160   3.586
62585W        W33185  22.651  42.188  10.676
62586W        W33186  13.870   0.828   2.679
62587W        W33187  16.211  26.518  13.344
62588W        W33188  35.578  20.223  13.957
62589W        W33189  34.322  17.438  11.534
62590W        W33190   3.980  40.060  13.423
62591W        W33191  36.086   7.791  14.414
62592W        W33192  21.210  32.344  10.733
62593W        W33193  30.681  31.658  11.501
62594W        W33194  44.314   5.600  10.385
62595W        W33195  23.544  13.830   3.422
62596W        W33196   4.789  41.495   3.648
62597W        W33197  42.894   0.781   3.154
62598W        W33198  37.142  28.583   3.034
62599W        W33199  40.250  27.911  11.128
62600W        W33200  31.109  30.050   3.744
62601W        W33201   6.928  42.530  14.295
62602W        W33202   3.776  28.457  11.210
62603W        W33203  18.617  40.538   5.038
62604W        W33204   7.161  26.615   2.510
62605W        W33205  21.521  26.007   1.609
62606W        W33206  33.875  21.521   2.100
62607W        W33207   4.260  27.089   1.984
62608W        W33208   7.659  22.712   0.060
62609W        W33209  39.771   5.397   0.841
62610W        W33210   6.563  24.758   1.199
62611W        W33211  24.434  30.587  10.806
62612W        W33212  13.050  29.421   0.515
62613W        W33213  24.545   7.485  13.686
62614W        W33214   6.465   7.181   9.810
62615W        W33215   5.315  13.062   1.354
62616W        W33216  24.565  38.052   4.788
62617W        W33217  42.783   5.313   2.136
62618W        W33218  41.977   4.962   2.650
62619W        W33219  24.467  11.311   0.887
62620W        W33220  34.083   8.330   4.526
62621W        W33221  42.062   2.397   2.247
62622W        W33222  43.669  36.060   1.484
62623W        W33223   1.403  17.503  11.196
62624W        W33224   9.223  29.881  13.022
62625W        W33225  44.880  28.785  12.684
62626W        W33226  44.794  32.411   2.787
62627W        W33227  22.442  30.399  13.900
62628W        W33228   1.817  35.910  13.646
62629W        W33229  32.061   0.947  12.085
62630W        W33230   3.337  11.105   0.386
62631W        W33231  24.647   9.901   0.582
62632W        W33232  17.188   4.052   4.150
62633W        W33233  42.474  19.722  14.398
62634W        W33234  40.300  41.321   2.469
62635W        W33235  29.899  37.328  13.438
62636W        W33236  41.776  36.467  11.631
62637W        W33237  38.984   1.252  11.585
62638W        W33238  10.640   7.317   4.320
62639W        W33239   3.800  12.606  12.653
62640W        W33240  18.544  41.460   3.771
62641W        W33241   2.749  12.615   1.327
62642W        W33242  36.447   7.396   0.339
62643W        W33243  26.541  15.186   3.068
62644W        W33244  41.646  10.805  13.312
62645W        W33245  25.426  35.559  12.833
62646W        W33246  44.179  19.820   3.129
62647W        W33247   5.328  31.148   4.177
62648W        W33248   6.402  39.609  11.122
62649W        W33249  26.190  32.535  10.708
62650W        W33250  22.493  35.873  11.178
62651W        W33251  29.633  10.211  14.768
62652W        W33252  12.442   7.444   1.369
62653W        W33253   4.673  21.447  11.534
62654W        W33254   2.164  28.171  14.360
62655W        W33255  33.418  41.968   1.840
62656W        W33256  10.187   4.665  12.233
62657W        W33257  20.413   3.937  11.019
62658W        W33258  30.948   6.359  14.845
62659W        W33259  36.609  40.917  14.247
62660W        W33260  44.370   3.953   2.721
62661W        W33261  17.494  13.195  13.860
62662W        W33262  36.134  44.389   1.955
62663W        W33263  25.734  30.899   3.123
62664W        W33264  20.023  43.888   3.151
62665W        W33265  31.104  37.535  13.896
62666W        W33266  34.385  39.470   0.302
62667W        W33267  21.543  16.283  12.875
62668W        W33268  33.230  43.627   4.077
62669W        W33269  17.699  14.059  10.212
62670W        W33270  25.569  32.578  12.200
62671W        W33271  33.060  26.602  12.852
62672W        W33272  23.202  38.917   0.921
62673W        W33273   7.541  10.367   1.046
62674W        W33274   4.294  12.709  14.028
62675W        W33275   3.790  19.048  12.403
62676W        W33276  20.095  39.130   1.725
62677W        W33277  33.115   9.897   3.565
62678W        W33278  26.179  28.579   2.795
62679W        W33279  29.204  15.665  12.996
62680W        W33280  31.446  18.575   4.043
62681W        W33281  24.466  34.100  14.387
62682W        W33282  37.362  31.533   2.902
62683W        W33283  41.113  41.880  12.391
62684W        W33284  39.975   0.785  14.450
62685W        W33285  15.154  28.598   0.713
62686W        W33286   8.472  23.530   3.218
62687W        W33287  17.209  25.127  12.013
62688W        W33288   3.530  12.119  13.354
62689W        W33289  12.302  44.301  13.514
62690W        W33290  14.914  42.978   0.315
62691W        W33291  36.584  36.901  14.556
62692W        W33292  41.424  33.593   3.611
62693W        W33293  31.171  34.997   3.799
62694W        W33294  36.321   6.850  13.047
62695W        W33295  19.468   1.491  10.639
62696W        W33296  37.915  14.907   3.782
62697W        W33297   3.427  32.511  11.228
62698W        W33298  31.199   7.363  11.609
62699W        W33299   8.232  41.922   0.789
62700W        W33300  33.486   5.615   4.664
62701W        W33301  37.940   0.905  12.869
62702W        W33302  28.943  12.330   0.908
62703W        W33303  36.037  19.148   4.928
62704W        W33304  21.213   4.238  10.108
62705W        W33305  28.996  25.063   4.530
62706W        W33306  11.862  33.104   3.763
62707W        W33307   5.961  26.454   2.306
62708W        W33308  37.588  36.612   4.173
62709W        W33309   3.343   4.922  10.758
62710W        W33310  14.068   0.907   4.267
62711W        W33311  29.047  43.251  14.496
62712W        W33312  27.681  15.373   1.751
62713W        W33313   9.310  29.985  11.290
62714W        W33314  34.877  39.916   0.859
62715W        W33315   3.367  36.787  10.628
62716W        W33316  43.379  32.599   1.424
62717W        W33317  22.058  24.522  13.879
62718W        W33318  19.062  39.387   4.860
62719W        W33319  37.895   2.737  14.809
62720W        W33320  38.395  19.157  11.978
62721W        W33321   2.778  31.923  10.161
62722W        W33322  42.095  14.604   4.679
62723W        W33323   0.859   3.006  11.914
62724W        W33324   2.399  33.877   1.887
62725W        W33325   7.783  31.018   1.612
62726W        W33326  29.563  27.583   1.950
62727W        W33327  15.581   3.212  11.105
62728W        W33328  16.041   0.789  13.353
62729W        W33329  18.169   7.712  11.202
62730W        W33330  39.886  36.449   3.911
62731W        W33331  22.165  20.829   2.089
62732W        W33332  14.871  31.053   3.425
62733W        W33333  40.527  29.398  12.955
62734W        W33334  42.844  17.016   0.840
62735W        W33335  28.166  29.912  14.449
62736W        W33336  31.244  20.089  12.438
62737W        W33337  24.835  28.453   4.548
62738W        W33338  26.700  34.364   2.243
62739W        W33339  13.091  35.540   2.522
62740W        W33340  38.787  17.642  14.329
62741W        W33341  41.278  38.177  11.015
62742W        W33342  13.121  14.065  14.381
62743W        W33343  44.698   3.865  13.086
62744W        W33344  11.606  25.904   0.875
62745W        W33345  11.536  28.805  12.394
62746W        W33346   5.942  25.208   3.733
62747W        W33347  22.898   4.464  13.933
62748W        W33348  35.008  18.822  13.847
62749W        W33349  30.696  14.893  10.739
62750W        W33350  15.755   3.900  11.140
62751W        W33351  30.160   1.338  10.769
62752W        W33352   2.425  42.478   3.356
62753W        W33353  44.855  21.457  12.041
62754W        W33354  16.125  12.559   3.011
62755W        W33355   6.844  42.363   0.792
62756W        W33356  39.047   8.579   0.897
62757W        W33357  25.474   7.555   2.531
62758W        W33358   2.731  35.787  12.984
62759W        W33359  38.345   3.050  14.762
62760W        W33360  31.386  25.603  14.514
62761W        W33361  44.751  32.140  11.539
62762W        W33362  39.247  11.190   0.841
62763W        W33363  27.674  35.338   0.006
62764W        W33364  15.738  37.113   2.947
62765W        W33365  39.357  39.510  12.771
62766W        W33366  27.639  21.366  10.324
62767W        W33367   7.546  16.239  12.101
62768W        W33368  38.576  36.445   4.811
62769W        W33369   0.005  22.729   4.394
62770W        W33370  34.993  43.245  12.255
62771W        W33371   1.108   8.694  14.246
62772W        W33372  25.577  37.231   5.085
62773W        W33373  35.359  15.700   4.335
62774W        W33374   8.435  10.075   2.994
62775W        W33375  41.743  32.453  11.581
62776W        W33376   1.105  30.451   2.564
62777W        W33377  16.068  27.487   3.797
62778W        W33378  15.735  12.193   3.979
62779W        W33379  10.917  26.588   3.130
62780W        W33380  40.496  20.114   1.204
62781W        W33381   3.492  31.514  11.651
62782W        W33382  37.532  24.480   2.892
62783W        W33383  33.145  43.425  14.598
62784W        W33384  29.486  32.422  13.532
62785W        W33385  19.524  24.503  11.573
62786W        W33386  22.183  25.010  10.729
62787W        W33387   2.307   7.049   3.822
62788W        W33388  18.479  19.223   4.819
62789W        W33389  21.228  36.633   0.321
62790W        W33390  21.044  30.418   2.263
62791W        W33391  20.475  32.058   3.804
62792W        W33392  16.325  31.583  10.486
62793W        W33393  10.654   3.210  13.018
62794W        W33394   4.261  23.364   0.753
62795W        W33395   0.661   5.235   0.842
62796W        W33396  35.523  11.883  12.389
62797W        W33397  42.779  19.072  14.983
62798W        W33398   3.775  24.196  13.058
62799W        W33399  35.088  17.659   3.082
62800W        W33400   9.595   4.837  13.940
62801W        W33401  19.637  24.989   4.259
62802W        W33402   3.453  40.085  12.564
62803W        W33403  21.463   9.268   0.313
62804W        W33404  28.924   0.075   0.796
62805W        W33405  22.324  41.775   0.852
62806W        W33406  19.085  26.377   1.308
62807W        W33407  21.624  41.395   3.241
62808W        W33408  20.591  39.368   4.713
62809W        W33409  13.851  42.075   3.697
62810W        W33410  41.894  25.174   2.864
62811W        W33411  20.261  27.421  10.740
62812W        W33412  30.355  16.845   0.003
62813W        W33413   8.068  17.041   3.122
62814W        W33414   6.302  31.868  11.200
62815W        W33415  18.239  14.344   4.210
62816W        W33416  39.438  39.769  11.080
62817W        W33417  35.110  18.318   0.840
62818W        W33418  15.172  11.107  14.466
62819W        W33419  15.246  39.035  12.418
62820W        W33420   2.708  42.492  12.137
62821W        W33421  40.283  31.493   4.747
62822W        W33422  22.885  38.398   0.729
62823W        W33423  24.229  39.833  13.925
62824W        W33424   9.773   7.808   4.551
62825W        W33425  38.327  19.535   5.465
62826W        W33426  18.116   0.010   2.404
62827W        W33427   8.750   1.056   1.442
62828W        W33428  35.842   6.556   2.773
62829W        W33429  12.164  22.206   2.874
62830W        W33430  23.261   5.726  13.863
62831W        W33431   5.127   1.252   1.472
62832W        W33432   6.488  44.538   3.558
62833W        W33433  16.653  33.356   9.693
62834W        W33434  14.041  13.293  10.316
62835W        W33435  17.336  20.499  12.537
62836W        W33436  43.878  13.297  13.686
62837W        W33437  10.577  38.050  13.925
62838W        W33438   6.284  35.764  12.904
62839W        W33439   9.543  35.511   1.327
62840W        W33440  27.074  33.871   3.193
62841W        W33441  18.558  40.452  11.566
62842W        W33442  39.321   2.335   0.867
62843W        W33443  16.182  23.949  12.102
62844W        W33444   9.416  11.287   4.772
62845W        W33445   8.804  16.704   3.373
62846W        W33446  43.451  31.701  12.043
62847W        W33447  23.206   1.576  14.787
62848W        W33448  33.061  25.175   0.910
62849W        W33449  43.187  42.730   2.309
62850W        W33450   4.206   3.597   2.279
62851W        W33451  39.907  20.976  13.488
62852W        W33452  19.329  29.184   1.322
62853W        W33453  24.641  33.596  14.355
62854W        W33454   2.339   7.785   0.094
62855W        W33455  25.278  19.927  13.842
62856W        W33456   2.252  31.606  11.179
62857W        W33457   9.199   9.909  12.480
62858W        W33458  34.410  19.001   2.809
62859W        W33459  22.642  38.043  13.870
62860W        W33460   3.495   8.666  12.567
62861W        W33461  35.515   1.558  11.131
62862W        W33462  41.139  13.210  12.041
62863W        W33463  13.618  15.331   1.229
62864W        W33464  31.318  19.201  10.803
62865W        W33465  25.790  29.049  12.104
62866W        W33466  29.172  38.827  11.094
62867W        W33467  19.502  31.984  11.610
62868W        W33468  39.729  36.474  13.461
62869W        W33469  18.804  12.549   2.162
62870W        W33470  39.406   4.800   0.243
62871W        W33471  41.371  29.970  13.029
62872W        W33472  40.781  20.537   1.219
62873W        W33473  19.327   4.715  13.241
62874W        W33474   3.952  23.009  13.406
62875W        W33475  41.809  25.030  13.337
62876W        W33476  20.856  40.407  14.956
62877W        W33477  36.525  15.301  11.600
62878W        W33478   9.422  29.994   2.329
62879W        W33479  40.954  43.295  13.830
62880W        W33480  33.933  39.147   3.096
62881W        W33481  44.055  24.711   2.430
62882W        W33482  31.776  36.979   4.892
62883W        W33483  28.197   7.287   0.501
62884W        W33484   3.378   9.886  13.905
62885W        W33485  24.732  20.428  14.360
62886W        W33486  43.031  24.785   2.846
62887W        W33487  42.280  33.920  11.498
62888W        W33488  28.601  15.802   2.671
62889W        W33489  19.950  34.102   0.409
62890W        W33490   0.409  24.897  11.039
62891W        W33491  20.052  20.488   0.758
62892W        W33492  43.382  13.218   2.923
62893W        W33493  27.210   5.648   2.323
62894W        W33494  41.798  13.095   0.970
62895W        W33495  43.759   5.415  12.437
62896W        W33496  11.809  44.235   0.681
62897W        W33497  16.108  14.853  14.429
62898W        W33498  38.714  21.391   1.821
62899W        W33499  38.069  17.093  11.070
62900W        W33500  15.411  16.076   5.398
62901W        W33501  40.900  36.106   2.236
62902W        W33502  22.263  24.048  11.601
62903W        W33503  34.052  39.947   4.451
62904W        W33504  12.760   2.569  10.564
62905W        W33505   5.656  15.630   4.260
62906W        W33506  27.022  35.529   1.925
62907W        W33507  27.559  31.145   3.326
62908W        W33508   3.919  44.787  13.392
62909W        W33509  39.730  22.064   3.130
62910W        W33510  32.403  16.244  12.173
62911W        W33511  31.630  16.367   0.784
62912W        W33512  36.136  39.831   2.402
62913W        W33513  25.221  40.891  12.972
62914W        W33514  31.921  18.476  14.382
62915W        W33515  42.905  23.722  12.911
62916W        W33516   2.864  38.414  12.312
62917W        W33517   3.923  41.591   1.377
62918W        W33518  26.242  27.066  13.410
62919W        W33519   5.012  15.394  10.319
62920W        W33520  29.095  18.507  11.174
62921W        W33521  25.233  21.804   1.667
62922W        W33522  18.194  41.270  13.340
62923W        W33523  22.618  22.974   0.805
62924W        W33524  13.761   1.967   1.789
62925W        W33525   7.627   4.869  13.598
62926W        W33526  16.603  41.394  14.243
62927W        W33527  31.504  30.016   4.180
62928W        W33528   2.421  30.461  12.073
62929W        W33529   3.943  41.017  11.728
62930W        W33530  18.736  21.015  12.061
62931W        W33531  32.349   0.726  12.452
62932W        W33532   2.078  15.741   4.795
62933W        W33533   1.746  21.510  13.704
62934W        W33534   9.517  41.427   2.342
62935W        W33535  43.818  13.979   3.840
62936W        W33536   7.125  30.735   2.791
62937W        W33537  12.772  28.511  13.313
62938W        W33538  26.391  43.474   1.875
62939W        W33539   9.781   1.151  14.798
62940W        W33540   4.482  38.075  14.705
62941W        W33541  17.160  10.662   3.741
62942W        W33542   5.690   3.831  12.266
62943W        W33543  10.394  18.954  14.759
62944W        W33544  20.149  21.538   4.135
62945W        W33545  27.142  39.790   3.213
62946W        W33546   2.017  42.376   1.333
62947W        W33547   8.730  21.420   5.065
62948W        W33548   7.383  33.999  13.895
62949W        W33549  26.094  27.522  14.731
62950W        W33550  37.069  32.697   1.770
62951W        W33551  17.429  14.727   3.994
62952W        W33552  27.972  20.583  13.924
62953W        W33553  11.380  13.301   1.379
62954W        W33554  38.902  31.610   4.736
62955W        W33555  11.065   1.325   0.855
62956W        W33556  22.088  38.464   1.898
62957W        W33557  33.478  24.036   3.985
62958W        W33558  22.140  23.013  12.571
62959W        W33559  29.691  18.024   4.175
62960W        W33560  14.078  15.766  12.949
62961W        W33561  11.435  39.254   1.254
62962W        W33562  32.093  18.611   4.520
62963W        W33563  26.451  37.516   3.211
62964W        W33564  10.792  44.400  13.094
62965W        W33565   0.992  18.123   3.103
62966W        W33566  37.520  30.680  13.170
62967W        W33567  44.323  41.042   3.612
62968W        W33568  13.286   5.627   0.667
62969W        W33569  44.097  19.347  10.031
62970W        W33570  28.497  18.636   0.258
62971W        W33571   7.326   2.999  12.506
62972W        W33572  38.347  24.447  14.918
62973W        W33573  37.262  11.141   1.870
62974W        W33574  13.865  39.908  13.970
62975W        W33575  22.184  37.568   1.697
62976W        W33576  42.538  37.985   4.118
62977W        W33577  31.782   8.031  13.829
62978W        W33578  44.445   9.126  14.572
62979W        W33579  19.980  34.417   0.833
62980W        W33580  13.268  25.566  14.973
62981W        W33581  35.953   6.717  13.899
62982W        W33582   4.405   0.490  11.077
62983W        W33583  14.877  38.914  14.013
62984W        W33584  19.053  16.574   4.335
62985W        W33585   7.880   7.854  12.545
62986W        W33586   6.851  31.627  10.687
62987W        W33587  32.607  14.306  13.794
62988W        W33588   4.782   1.541  10.914
62989W        W33589  29.257  24.649  12.445
62990W        W33590  41.933  19.051   2.976
62991W        W33591  29.658  32.592   0.020
62992W        W33592  13.120   1.264  13.453
62993W        W33593  17.604  36.584   0.824
62994W        W33594  28.418  13.598  12.831
62995W        W33595  31.212   3.663  12.029
62996W        W33596  34.933  27.985  14.960
62997W        W33597  24.922  14.918   3.148
62998W        W33598   5.205   0.495  13.313
62999W        W33599  22.338   9.486   9.905
63000W        W33600  28.152  14.123   0.841
63001W        W33601  42.990  36.918   4.152
63002W        W33602  12.138  40.504   4.530
63003W        W33603  22.605   3.386  11.047
63004W        W33604  24.261  41.879   0.771
63005W        W33605   3.379  39.592  12.620
63006W        W33606  41.264  38.716   2.761
63007W        W33607  18.467   9.077   2.689
63008W        W33608   2.961  37.949  12.979
63009W        W33609  44.202  44.754   0.829
63010W        W33610   9.126   6.457  11.982
63011W        W33611  17.589   8.604   1.281
63012W        W33612   8.270  12.643  14.039
63013W        W33613  30.778  19.998   3.587
63014W        W33614  24.219  11.697  14.912
63015W        W33615  24.556   6.050   2.899
63016W        W33616  32.909   6.414  13.943
63017W        W33617  23.567  19.098   1.097
63018W        W33618  33.308   5.233  12.564
63019W        W33619  34.004  23.782   1.824
63020W        W33620  38.476  14.032  14.724
63021W        W33621  22.615  44.462   1.991
63022W        W33622  18.715  32.840  10.657
63023W        W33623  19.231  20.649   4.648
63024W        W33624   8.863  17.993  10.893
63025W        W33625  20.580  30.369  13.475
63026W        W33626   7.204  38.372  11.791
63027W        W33627  41.530   3.134  12.542
63028W        W33628  22.487   9.842  11.207
63029W        W33629  40.114  10.840  14.880
63030W        W33630  31.628  43.599  14.339
63031W        W33631  13.432  43.039   0.452
63032W        W33632  20.546  22.708   4.150
63033W        W33633  16.847   3.346  10.701
63034W        W33634  31.211  29.547   3.687
63035W        W33635  41.601   4.459  12.091
63036W        W33636  38.951  25.165   4.696
63037W        W33637   5.109  42.705  14.970
63038W        W33638  23.625   8.700  14.952
63039W        W33639  37.043   5.389  12.635
63040W        W33640  32.482  29.416  12.584
63041W        W33641   2.248  15.373   4.050
63042W        W33642  30.110  20.152   2.247
63043W        W33643   7.591  36.802   1.051
63044W        W33644  16.677  36.912  14.841
63045W        W33645  24.932   8.325   4.009
63046W        W33646  14.999  31.943  12.504
63047W        W33647  27.430  14.841  12.532
63048W        W33648  26.263  35.095   4.106
63049W        W33649   4.850  18.229  11.459
63050W        W33650  23.315  40.299  13.915
63051W        W33651  35.980  37.500  10.744
63052W        W33652   7.768   4.753  14.584
63053W        W33653  12.848  29.644  14.155
63054W        W33654  13.667  27.059   5.017
63055W        W33655  41.886  14.574  12.860
63056W        W33656  26.663  44.952  13.206
63057W        W33657  22.970  10.730   2.842
63058W        W33658  24.040  34.603  12.134
63059W        W33659  15.797   1.043  14.918
63060W        W33660  44.968   8.667  11.835
63061W        W33661  42.519  29.948   4.772
63062W        W33662  15.285  39.800   3.386
63063W        W33663  25.468   5.982  10.554
63064W        W33664  23.109   8.099   3.559
63065W        W33665   2.991  19.625   3.620
63066W        W33666  16.303   0.836   2.449
63067W        W33667  17.721   8.152   2.680
63068W        W33668  11.110  27.177   2.710
63069W        W33669  18.625  38.103  12.148
63070W        W33670  25.849  35.058   0.753
63071W        W33671  14.890   8.734  12.218
63072W        W33672  29.606  28.971   3.842
63073W        W33673  36.380  10.426  12.640
63074W        W33674  12.797   0.026  11.590
63075W        W33675  15.760  11.001  12.467
63076W        W33676  35.638  44.882   1.258
63077W        W33677  29.652   5.488   3.353
63078W        W33678  22.000  36.679   3.076
63079W        W33679  26.298   3.299   4.520
63080W        W33680   8.765  25.493   5.059
63081W        W33681  27.442   4.334  14.785
63082W        W33682  29.867   8.389  11.570
63083W        W33683  15.622  39.391   4.413
63084W        W33684  21.466  18.192   0.897
63085W        W33685  41.351  40.004  11.968
63086W        W33686  39.547  11.664   0.961
63087W        W33687  20.671  32.204   1.333
63088W        W33688   6.762  37.269  13.213
63089W        W33689   3.378  36.046  11.220
63090W        W33690  32.355  26.576   2.650
63091W        W33691   5.705   3.880   4.100
63092W        W33692  10.213   2.555  13.922
63093W        W33693   1.490  19.658   1.727
63094W        W33694  27.408  37.004  10.643
63095W        W33695  26.997  19.541   3.858
63096W        W33696   3.849   5.706  13.803
63097W        W33697  32.625  15.577   2.148
63098W        W33698  28.975   1.394  12.861
63099W        W33699  38.863  33.845   0.380
63100W        W33700  36.436   4.624  10.175
63101W        W33701  19.058  13.077  11.051
63102W        W33702  42.814  20.799   2.257
63103W        W33703  40.868  34.071   2.612
63104W        W33704  31.982  29.760   4.146
63105W        W33705   8.380  30.160  11.060
63106W        W33706  23.925  12.287  11.132
63107W        W33707  29.359  38.522  14.278
63108W        W33708  26.922  25.987  13.387
63109W        W33709  43.310  10.764  11.702
63110W        W33710  41.978  16.094   0.179
63111W        W33711  39.480   2.010  11.652
63112W        W33712  18.714  13.379  11.276
63113W        W33713  40.501  38.732   1.294
63114W        W33714  35.674  33.980  13.142
63115W        W33715   1.369  40.815   4.626
63116W        W33716  13.767  10.916  13.789
63117W        W33717  13.365   1.290   1.425
63118W        W33718  32.112  29.986  11.964
63119W        W33719  20.279  23.059  11.892
63120W        W33720   7.370  14.831  12.125
63121W        W33721   9.383  32.989  13.830
63122W        W33722  36.343  24.477  12.372
63123W        W33723  41.435  14.858   0.332
63124W        W33724  36.421   3.552  11.433
63125W        W33725  31.181   7.278  10.740
63126W        W33726  37.784  10.349   2.339
63127W        W33727   3.252  38.416   0.502
63128W        W33728  30.576   9.217   0.245
63129W        W33729  12.947   5.318  11.110
63130W        W33730  17.900   2.949   3.755
63131W        W33731  24.449  14.177  13.509
63132W        W33732  38.017  40.297   3.176
63133W        W33733  14.658  40.554   2.325
63134W        W33734   4.651  32.597  14.302
63135W        W33735  10.426  29.427  14.649
63136W        W33736  31.486  39.319  11.614
63137W        W33737  13.228  42.921  12.851
63138W        W33738  28.429  40.943   2.722
63139W        W33739  26.457   4.862   0.735
63140W        W33740  28.904  37.491  11.099
63141W        W33741  20.520   9.341  12.485
63142W        W33742  17.683  10.624  12.091
63143W        W33743   9.633  29.908   1.784
63144W        W33744  35.796  14.173   3.134
63145W        W33745  22.850   4.277  11.237
63146W        W33746  38.962  14.256   4.120
63147W        W33747  12.674  17.024   2.506
63148W        W33748  18.651  15.804  13.477
63149W        W33749  44.292  41.944   3.499
63150W        W33750  21.076  33.568   4.512
63151W        W33751  28.808  27.512   3.719
63152W        W33752  29.027  41.248   0.685
63153W        W33753  11.245  25.435   0.601
63154W        W33754  27.579  33.072  12.995
63155W        W33755  42.206  35.668   0.855
63156W        W33756  33.507  38.090   1.431
63157W        W33757   3.896  16.624  10.644
63158W        W33758  35.526   2.190   3.890
63159W        W33759  43.789   9.374   1.484
63160W        W33760  38.098  12.055  14.701
63161W        W33761  20.139  39.199   0.916
63162W        W33762  19.759  17.652   1.474
63163W        W33763   5.592  17.847   1.218
63164W        W33764  44.059   5.970   4.987
63165W        W33765  37.397  34.917  10.654
63166W        W33766  38.348  32.332  10.775
63167W        W33767   9.643   4.573   1.820
63168W        W33768  22.078  34.867  14.477
63169W        W33769  36.605  35.522  12.084
63170W        W33770  10.465  36.121  11.516
63171W        W33771  21.687  20.206   2.625
63172W        W33772  19.167  32.865   3.841
63173W        W33773   3.144   5.257  13.900
63174W        W33774  21.001  30.107  11.181
63175W        W33775  32.122  31.980  12.131
63176W        W33776  41.054  24.695  14.239
63177W        W33777  25.144  38.446  12.629
63178W        W33778  35.421   0.762   3.312
63179W        W33779  18.550  27.731   4.488
63180W        W33780   7.399  44.524  14.530
63181W        W33781  38.452   9.609  11.086
63182W        W33782  28.994  18.788  12.973
63183W        W33783  16.800  25.679   2.340
63184W        W33784  13.083   2.311  13.445
63185W        W33785  29.286  40.518   2.627
63186W        W33786  41.425  30.019   2.575
63187W        W33787   2.965  24.553   2.868
63188W        W33788  41.290  18.546   3.249
63189W        W33789  25.684  14.268   0.723
63190W        W33790  28.991  23.076  13.979
63191W        W33791  41.985  39.948   4.458
63192W        W33792  30.407   4.267  14.184
63193W        W33793  15.894  28.507  12.898
63194W        W33794   4.236   6.217   3.253
63195W        W33795  26.631  33.791   4.571
63196W        W33796   7.647  30.964  14.424
63197W        W33797   6.965  32.837   1.695
63198W        W33798  34.683  19.427  14.533
63199W        W33799   0.056   2.887  14.380
63200W        W33800   9.281  12.626  12.883
63201W        W33801  15.309   4.687   0.700
63202W        W33802   8.383  43.956  13.016
63203W        W33803  41.737  12.114   2.439
63204W        W33804  20.477  39.913  12.861
63205W        W33805  25.983  15.874   0.345
63206W        W33806  11.804  41.763  14.053
63207W        W33807  24.576  34.595  14.153
63208W        W33808   7.811  15.216  10.786
63209W        W33809  43.381   5.373  12.818
63210W        W33810   7.236   3.321  12.897
63211W        W33811  34.756  29.862  13.873
63212W        W33812  29.432  11.447   5.049
63213W        W33813  17.205  41.937  12.588
63214W        W33814  20.112  10.206   3.736
63215W        W33815   0.225   5.217  11.719
63216W        W33816  17.804   9.209   4.330
63217W        W33817  32.508  11.705  10.731
63218W        W33818   2.769  32.165   4.627
63219W        W33819  29.866  15.709  11.186
63220W        W33820  36.644  43.363   2.337
63221W        W33821  13.128  26.887  12.322
63222W        W33822  14.701  44.376  14.823
63223W        W33823  20.513  17.515  10.474
63224W        W33824  42.837  43.083  12.266
63225W        W33825  23.658  41.365   4.646
63226W        W33826  29.676  27.957  11.245
63227W        W33827  28.905   1.445  13.371
63228W        W33828  24.964  23.498  13.789
63229W        W33829  42.949  13.571   2.266
63230W        W33830  35.412   8.247   4.444
63231W        W33831  12.892  28.531  12.823
63232W        W33832  27.587  28.051  11.638
63233W        W33833  15.761  39.635   3.516
63234W        W33834  10.291  16.759   0.412
63235W        W33835  26.005  12.728   1.292
63236W        W33836  19.508  30.577  14.896
63237W        W33837   6.279  13.148  12.191
63238W        W33838  17.570  21.723   4.579
63239W        W33839   4.886  14.157  12.957
63240W        W33840  11.921  39.867  13.911
63241W        W33841   7.256  14.205   0.234
63242W        W33842  35.688  14.773  14.359
63243W        W33843  41.943  11.268  13.373
63244W        W33844   5.532  37.300  13.887
63245W        W33845  17.213  33.924   0.998
63246W        W33846  25.970  28.163   4.615
63247W        W33847  22.686  14.004   4.170
63248W        W33848   1.002  24.730   4.688
63249W        W33849  21.028  26.214   0.020
63250W        W33850  44.340  29.450   1.291
63251W        W33851   7.417  39.398  10.488
63252W        W33852  21.513  13.194   1.458
63253W        W33853  30.706  33.726   3.871
63254W        W33854  15.690  13.082  14.150
63255W        W33855  43.532  13.971  12.613
63256W        W33856  25.230   2.051  14.901
63257W        W33857  32.454  10.384  14.963
63258W        W33858  43.534  42.458  12.513
63259W        W33859  41.250   8.849   0.569
63260W        W33860  14.311  29.942   1.383
63261W        W33861  14.600  12.060  13.020
63262W        W33862  44.393  43.391  12.032
63263W        W33863  34.884   6.531   4.068
63264W        W33864  27.943   9.366   4.513
63265W        W33865  39.453  26.297  10.698
63266W        W33866  36.459  16.315  13.939
63267W        W33867  29.146  36.681  12.696
63268W        W33868  32.889  23.140  12.870
63269W        W33869   3.455   6.678  14.785
63270W        W33870  32.833  18.885  13.496
63271W        W33871  32.620  38.799  11.398
63272W        W33872   4.777  18.462  12.668
63273W        W33873  36.272   1.110   2.767
63274W        W33874  28.552  32.201  14.234
63275W        W33875  30.575   3.288  13.362
63276W        W33876  33.938   2.454  14.499
63277W        W33877  22.487   0.046   4.105
63278W        W33878   6.615  34.305   3.760
63279W        W33879  18.715   6.498  11.893
63280W        W33880  36.357  15.701   4.035
63281W        W33881  12.104  25.624   4.764
63282W        W33882   7.953  26.353   3.781
63283W        W33883   5.178  38.408  14.437
63284W        W33884  15.834  36.573  11.177
63285W        W33885  38.743  28.567   0.390
63286W        W33886  24.477  12.789  14.261
63287W        W33887  35.563   3.120   1.972
63288W        W33888  11.288  40.279   4.109
63289W        W33889  14.112  34.527   1.796
63290W        W33890   0.501  13.231   0.875
63291W        W33891  32.137  32.948   2.404
63292W        W33892  13.225  38.332  10.765
63293W        W33893  14.321   0.451  11.105
63294W        W33894  10.456  43.567  12.395
63295W        W33895  33.455   3.592   3.892
63296W        W33896  38.619  41.463  12.941
63297W        W33897  38.946  43.814  12.101
63298W        W33898  11.617  11.054   3.824
63299W        W33899   0.551  39.988   4.691
63300W        W33900  21.960  23.589   3.205
63301W        W33901  44.861  19.938   2.439
63302W        W33902  29.520  18.680   4.651
63303W        W33903  11.934  40.230  14.315
63304W        W33904  42.316  14.862  12.186
63305W        W33905  18.227   1.854   1.481
63306W        W33906  41.844  25.652  10.768
63307W        W33907   8.746  27.901  11.106
63308W        W33908   2.296   6.537  12.932
63309W        W33909  15.748  17.413  14.682
63310W        W33910  14.504   6.946   3.714
63311W        W33911   3.951  35.036  13.460
63312W        W33912  16.748  14.289   3.654
63313W        W33913  24.652  17.582   2.695
63314W        W33914  11.045  13.860  13.320
63315W        W33915   6.228  29.576   1.824
63316W        W33916  23.005  18.100  12.357
63317W        W33917  44.322  43.452   0.434
63318W        W33918  23.274  19.120  14.769
63319W        W33919  25.081  37.600   3.193
63320W        W33920  14.658  20.208   3.645
63321W        W33921  32.908  28.691   3.425
63322W        W33922  35.130  31.660   4.446
63323W        W33923   0.950  17.045   3.199
63324W        W33924  36.608  36.388   4.154
63325W        W33925  34.900   7.024  14.483
63326W        W33926  33.480   9.197   4.730
63327W        W33927  30.482  20.978   4.203
63328W        W33928  32.161  33.780   2.117
63329W        W33929  10.257  33.431  10.586
63330W        W33930   8.819  13.199  11.631
63331W        W33931  20.804  24.969  14.267
63332W        W33932  24.363   6.711   1.312
63333W        W33933   5.710  16.075  13.205
63334W        W33934   9.155  10.250   1.438
63335W        W33935  30.485   8.370   1.363
63336W        W33936  27.215  16.140   2.862
63337W        W33937  27.988  15.080   3.321
63338W        W33938   3.625  16.388   0.469
63339W        W33939   1.553  41.603  12.143
63340W        W33940  14.619   7.005   2.835
63341W        W33941  30.310  17.855   3.149
63342W        W33942  13.765  38.745   1.411
63343W        W33943   6.775   3.075   3.791
63344W        W33944  39.599  19.908   0.696
63345W        W33945   2.757  13.641  13.761
63346W        W33946  32.087  35.962  13.427
63347W        W33947  17.638   1.002   2.833
63348W        W33948  21.580  30.162   2.810
63349W        W33949   2.608  43.377  13.968
63350W        W33950   4.734   5.654   0.679
63351W        W33951   4.906  24.697   1.938
63352W        W33952  30.678  43.378   0.890
63353W        W33953  37.477  26.310  13.972
63354W        W33954  26.989  38.418   2.957
63355W        W33955  28.139  15.306   2.815
63356W        W33956  37.914  33.397   0.263
63357W        W33957  16.777   7.689   2.896
63358W        W33958  22.923  24.305  13.485
63359W        W33959  11.066  39.002  11.806
63360W        W33960  44.724   0.483  12.340
63361W        W33961  36.377   2.163  12.944
63362W        W33962  33.999  32.474   4.184
63363W        W33963  22.928   1.947   3.503
63364W        W33964   2.317  36.454   3.640
63365W        W33965   8.750  20.700   0.652
63366W        W33966  15.654   4.995  13.984
63367W        W33967  27.025  28.440   4.075
63368W        W33968   9.820  20.537   1.174
63369W        W33969  42.821  14.756  12.391
63370W        W33970   7.117  36.463  13.815
63371W        W33971  43.388   4.146   0.403
63372W        W33972  44.324  23.195   1.988
63373W        W33973  14.563  42.775  14.959
63374W        W33974  44.444  20.700  12.840
63375W        W33975  40.489  29.420   3.724
63376W        W33976  18.256   9.362   4.526
63377W        W33977  14.575   9.908   2.284
63378W        W33978  38.614  42.850   1.953
63379W        W33979  14.672   3.716  12.885
63380W        W33980  33.488  25.071   2.849
63381W        W33981  43.741  27.422   3.832
63382W        W33982   3.500  24.746   1.781
63383W        W33983  42.975  13.291  13.242
63384W        W33984  33.064   1.851   4.533
63385W        W33985  23.309   4.875   3.653
63386W        W33986  19.013  25.225  13.603
63387W        W33987  29.609   2.978   2.797
63388W        W33988  37.131  34.973   4.053
63389W        W33989  24.470  23.277   2.134
63390W        W33990  18.642  19.605  13.848
63391W        W33991  39.794  30.660   4.038
63392W        W33992  30.463  39.810  14.052
63393W        W33993  32.966   5.922   0.820
63394W        W33994  11.367  14.195  13.042
63395W        W33995   7.656   7.400  11.193
63396W        W33996  16.336  19.179  12.329
63397W        W33997   5.599  42.927  12.596
63398W        W33998   4.871   6.444  13.412
63399W        W33999  12.716   4.151   3.704
63400W        W34000  31.946  27.658  13.523
63401W        W34001  24.127  23.910  11.411
63402W        W34002  29.992  10.106   1.238
63403W        W34003  26.040  19.440  11.966
63404W        W34004   2.342  15.546   2.732
63405W        W34005  11.577  10.227   4.104
63406W        W34006   7.335  31.488   2.155
63407W        W34007  19.531   1.345   2.899
63408W        W34008  33.277  33.429  14.012
63409W        W34009  12.734   0.196   1.456
63410W        W34010  41.614  41.546  11.955
63411W        W34011  14.317  23.937   3.540
63412W        W34012   1.786   9.750  11.184
63413W        W34013  40.823   7.401   2.255
63414W        W34014  35.199  19.745  11.283
63415W        W34015  34.334  20.303   1.315
63416W        W34016  42.087   4.848   3.155
63417W        W34017   0.050  35.964   3.448
63418W        W34018  24.540  10.922   2.875
63419W        W34019  13.593  17.173   4.538
63420W        W34020  13.991  32.256  11.092
63421W        W34021  21.488  42.333   1.129
63422W        W34022   6.530   9.238  12.703
63423W        W34023  39.510  17.914   2.665
63424W        W34024   2.482   5.622  14.495
63425W        W34025  17.606  20.066  10.663
63426W        W34026  19.100  24.603  14.395
63427W        W34027  27.688  38.509   3.811
63428W        W34028  38.903   1.779   4.451
63429W        W34029  25.410  23.265   0.019
63430W        W34030   2.896  38.085  11.514
63431W        W34031  14.142  19.484   1.727
63432W        W34032  24.943  41.270  14.954
63433W        W34033  22.094  13.450   4.602
63434W        W34034  38.760  11.653  12.449
63435W        W34035  24.285  33.010   3.998
63436W        W34036  44.306  41.477   3.263
63437W        W34037  26.137  12.334  11.445
63438W        W34038  38.253   4.059  12.960
63439W        W34039  41.400  12.507   2.428
63440W        W34040  36.911   2.509   0.482
63441W        W34041  44.855  42.462   0.473
63442W        W34042   8.504   1.221   0.707
63443W        W34043   4.808  41.888   2.137
63444W        W34044  43.724  32.615   2.702
63445W        W34045  42.339  17.764  12.411
63446W        W34046  44.920  11.751  10.747
63447W        W34047  28.761  36.325  12.577
63448W        W34048  12.860   1.497  11.997
63449W        W34049   9.646  41.462  14.402
63450W        W34050  33.447  37.494  12.366
63451W        W34051   0.345  44.925   1.802
63452W        W34052  31.009  38.870   3.959
63453W        W34053   9.365  41.699   3.260
63454W        W34054  20.063  10.138  14.075
63455W        W34055   5.663   8.793  10.736
63456W        W34056  41.002  18.794  12.094
63457W        W34057  41.799   6.337  11.175
63458W        W34058  25.567  20.810   4.295
63459W        W34059  44.080   6.346   4.568
63460W        W34060  32.372  24.014   5.122
63461W        W34061  41.065  36.908   4.000
63462W        W34062  19.921  14.860  14.786
63463W        W34063  30.070   5.972   4.347
63464W        W34064  39.250  22.248   1.383
63465W        W34065   6.793   1.445  12.104
63466W        W34066  27.955  12.797  10.675
63467W        W34067  28.038  32.197  10.031
63468W        W34068  31.565  33.745   3.619
63469W        W34069   7.888  41.194  13.810
63470W        W34070   7.934  36.845  11.370
63471W        W34071  42.818  32.536  11.653
63472W        W34072  32.629  18.136  12.234
63473W        W34073  23.027  35.518  14.946
63474W        W34074  19.186  40.974  13.598
63475W        W34075  33.994   3.891   3.346
63476W        W34076  36.970  15.852   4.681
63477W        W34077  13.732  36.361   2.874
63478W        W34078   4.359  42.019  14.846
63479W        W34079  13.443  27.891  14.000
63480W        W34080  18.522   9.879   3.476
63481W        W34081   4.391  33.307  14.944
63482W        W34082  41.624  19.702  14.121
63483W        W34083   6.542   2.742   2.898
63484W        W34084  35.573  12.216   0.158
63485W        W34085  34.116  14.048   1.823
63486W        W34086  35.604  13.514   1.230
63487W        W34087  28.709  21.288  11.817
63488W        W34088  16.510  40.817  14.301
63489W        W34089  10.602  44.225  14.853
63490W        W34090   5.879  41.030  14.543
63491W        W34091  41.415  18.603   1.305
63492W        W34092   7.350  31.917  14.969
63493W        W34093   7.827  16.038  14.024
63494W        W34094  10.104  20.050   4.599
63495W        W34095  44.821  26.654  13.538
63496W        W34096  11.717  41.345   3.822
63497W        W34097  20.305   9.943   3.326
63498W        W34098  35.081   7.902   2.889
63499W        W34099   8.771  36.877   3.282
63500W        W34100  37.588  18.033  11.126
63501W        W34101   1.154  35.188   4.074
63502W        W34102  31.459  18.666   3.138
63503W        W34103  37.820  33.443   1.099
63504W        W34104  37.159  35.295  14.591
63505W        W34105  30.227  44.207  13.791
63506W        W34106  34.547  37.382  12.066
63507W        W34107  11.857  26.186  10.715
63508W        W34108  30.362  33.493   3.543
63509W        W34109  23.616   6.754  14.301
63510W        W34110  29.211  34.101  14.460
63511W        W34111  20.179  28.423   0.698
63512W        W34112  19.064  42.519  11.522
63513W        W34113  41.401  23.232  13.550
63514W        W34114  31.251  11.433   1.088
63515W        W34115  26.016  12.245   4.104
63516W        W34116  41.749   0.338  13.980
63517W        W34117  36.776  34.264  10.612
63518W        W34118   0.686   1.124   0.375
63519W        W34119  18.651  41.757  11.291
63520W        W34120   9.853   2.681   3.696
63521W        W34121   9.170  33.875  12.454
63522W        W34122  19.951  27.983   2.357
63523W        W34123   8.134  25.127   0.985
63524W        W34124   9.889  21.156   3.231
63525W        W34125  29.477  38.302  11.012
63526W        W34126  42.266  41.462   2.229
63527W        W34127   9.405  13.238   2.197
63528W        W34128  30.581  42.760   2.927
63529W        W34129  19.411  36.886  10.761
63530W        W34130   5.256  16.011   0.335
63531W        W34131  42.407  41.566   4.091
63532W        W34132  44.448  44.490   3.631
63533W        W34133   7.766  29.438   4.832
63534W        W34134  34.812  16.231   2.172
63535W        W34135   6.337  18.280  12.833
63536W        W34136  28.890  41.449   0.196
63537W        W34137  13.015  32.626   1.302
63538W        W34138  28.508  28.400   3.223
63539W        W34139  17.029  26.477  12.802
63540W        W34140  43.703  15.873   1.803
63541W        W34141  10.878  29.390  13.305
63542W        W34142   2.208  16.157   1.325
63543W        W34143   1.341   6.696   4.480
63544W        W34144  21.000  12.551  11.207
63545W        W34145   6.967  23.079  13.798
63546W        W34146  28.263   5.851   3.968
63547W        W34147  32.147   8.076   4.986
63548W        W34148  43.869   0.747  11.106
63549W        W34149  34.925   3.868  11.942
63550W        W34150   4.501  11.374   2.782
63551W        W34151   1.380  18.402  11.110
63552W        W34152  34.105  27.662   0.999
63553W        W34153  35.451  29.618   1.833
63554W        W34154  40.765   0.875  13.271
63555W        W34155   5.845   4.817  10.389
63556W        W34156  40.497  38.821   3.508
63557W        W34157  29.560  37.934   2.713
63558W        W34158  17.392  28.223  14.717
63559W        W34159  13.580   6.878   3.222
63560W        W34160   0.300   8.581   4.207
63561W        W34161  26.238  21.529   3.775
63562W        W34162  34.620  44.974  14.469
63563W        W34163  31.179   0.361   4.458
63564W        W34164  11.322   4.743  11.611
63565W        W34165  38.012   0.127  12.470
63566W        W34166   8.760  28.189   1.336
63567W        W34167  21.837  21.624   3.210
63568W        W34168  44.773  19.094  13.558
63569W        W34169  31.861  29.290  14.891
63570W        W34170  38.895  24.713  13.942
63571W        W34171   3.245  13.164  11.113
63572W        W34172   4.721   5.228   1.490
63573W        W34173  13.759  39.754  12.897
63574W        W34174  38.481   2.414   4.573
63575W        W34175  21.772   4.000   3.776
63576W        W34176  43.956  10.695  13.954
63577W        W34177  33.945  43.806  14.672
63578W        W34178  28.691  40.027  12.535
63579W        W34179  18.134  38.110  12.318
63580W        W34180  42.353  39.764  12.197
63581W        W34181  41.526   8.350  11.538
63582W        W34182  41.594   6.371  14.822
63583W        W34183  18.861  37.652  10.356
63584W        W34184   6.072  21.244   2.732
63585W        W34185  27.739  20.710   1.285
63586W        W34186  12.358   9.397   0.653
63587W        W34187  15.717  41.953   1.292
63588W        W34188  41.255  11.633   4.180
63589W        W34189  28.992  44.512  13.061
63590W        W34190  30.660  39.223   4.118
63591W        W34191  34.389  41.538  11.477
63592W        W34192  15.139  31.661   2.260
63593W        W34193  13.158  22.422   4.046
63594W        W34194   5.178   9.290  14.358
63595W        W34195  35.256   8.849  11.532
63596W        W34196  23.567  22.137  10.648
63597W        W34197   4.756   5.753   2.761
63598W        W34198  16.305  32.481   9.952
63599W        W34199   8.385   2.654  14.852
63600W        W34200  13.257   9.141   4.112
63601W        W34201  20.627  30.991  14.650
63602W        W34202  18.959  24.256   4.505
63603W        W34203   9.920  18.879  11.531
63604W        W34204  20.044  30.662   3.811
63605W        W34205   0.343  25.152  14.956
63606W        W34206  44.326   7.980   0.844
63607W        W34207  42.526  37.469   2.671
63608W        W34208  30.611  30.188   0.459
63609W        W34209  22.644  44.652  12.967
63610W        W34210  44.304   3.683   4.550
63611W        W34211  42.963  18.797  11.154
63612W        W34212  41.331   2.312   4.188
63613W        W34213  43.301  15.652  11.580
63614W        W34214  24.392   3.241  13.880
63615W        W34215   7.933   2.557  11.249
63616W        W34216  32.116  17.931   1.543
63617W        W34217  18.238  10.831   3.159
63618W        W34218  43.703  21.982   2.747
63619W        W34219  17.543  11.687  11.086
63620W        W34220  17.261   2.956   3.584
63621W        W34221  34.167  18.620  13.125
63622W        W34222  37.535   0.913   1.841
63623W        W34223  37.583   3.635   4.443
63624W        W34224   4.751  23.904   5.116
63625W        W34225  14.871   0.747  11.600
63626W        W34226   6.693  44.504  10.918
63627W        W34227  38.183   7.688  12.604
63628W        W34228   5.144   7.487   0.738
63629W        W34229  20.022  33.078  13.651
63630W        W34230  21.583  36.615   4.230
63631W        W34231   8.561   6.975  11.514
63632W        W34232  24.506  38.904   4.568
63633W        W34233   9.447  16.622  14.325
63634W        W34234  38.536  21.084   0.929
63635W        W34235  24.076  25.063  13.496
63636W        W34236  10.366  19.341  12.721
63637W        W34237  41.785  21.373  10.404
63638W        W34238  43.779  27.125   4.289
63639W        W34239  19.420  22.536   2.275
63640W        W34240  16.577  34.352   3.109
63641W        W34241  12.888  16.074   1.670
63642W        W34242  43.777  38.516  11.168
63643W        W34243   3.746  27.032   4.577
63644W        W34244   0.037  37.567  10.638
63645W        W34245   5.444  34.563  14.755
63646W        W34246  12.822  32.091   2.228
63647W        W34247  23.256  41.868  11.264
63648W        W34248  42.869  13.105  10.843
63649W        W34249   0.233   3.638  11.407
63650W        W34250  11.380   4.062   1.550
63651W        W34251  11.272  41.470   0.824
63652W        W34252   8.385   4.283  14.013
63653W        W34253   0.799  13.873  11.192
63654W        W34254  42.504  35.478   1.904
63655W        W34255  25.048  20.375  12.657
63656W        W34256  34.581   6.173   1.762
63657W        W34257  22.634  38.511   0.287
63658W        W34258  27.420  38.274   1.233
63659W        W34259  31.534  43.011   3.736
63660W        W34260  38.858  28.111   3.396
63661W        W34261  30.379  30.644  13.852
63662W        W34262  42.919  32.418   3.636
63663W        W34263  34.035  33.637  11.207
63664W        W34264  33.286  22.279   5.118
63665W        W34265   9.252  22.439  14.394
63666W        W34266  13.365  41.477   0.138
63667W        W34267  23.525  44.394  12.982
63668W        W34268   9.141  20.537  12.546
63669W        W34269  31.167  12.730  13.793
63670W        W34270  11.651  14.616   3.260
63671W        W34271   8.130   6.883   1.982
63672W        W34272  39.550  24.274   0.769
63673W        W34273   8.987  44.263  11.182
63674W        W34274   4.969  44.528   1.473
63675W        W34275   1.766  44.801   4.603
63676W        W34276  23.784  23.853   2.642
63677W        W34277  42.022  40.167   1.470
63678W        W34278  10.531   4.950   3.712
63679W        W34279  34.918  17.426  10.710
63680W        W34280  30.995  38.546  12.005
63681W        W34281   2.270  14.288   1.636
63682W        W34282  36.939  28.569  11.177
63683W        W34283  15.716  15.870  10.269
63684W        W34284   3.976  16.021   1.796
63685W        W34285  11.316  26.994  12.554
63686W        W34286  31.712  11.327   1.399
63687W        W34287   4.354  44.277   3.696
63688W        W34288  42.584  29.976   0.383
63689W        W34289  36.487  26.292   4.100
63690W        W34290  30.194  40.684   3.076
63691W        W34291  17.519  40.239  14.948
63692W        W34292  23.090  24.950   3.147
63693W        W34293  42.857  36.037   1.929
63694W        W34294  19.483  29.870  11.754
63695W        W34295  33.767  21.060  12.044
63696W        W34296  44.454  18.289  10.635
63697W        W34297  28.378  33.081   0.300
63698W        W34298  35.356   3.587   2.002
63699W        W34299  29.521   4.166  11.484
63700W        W34300  37.887  31.965  12.228
63701W        W34301   7.680  34.459  12.094
63702W        W34302  17.480  20.645  14.340
63703W        W34303  44.004  22.173   1.382
63704W        W34304  37.288   9.321  13.439
63705W        W34305  11.872  11.139   4.327
63706W        W34306  32.319  35.891   2.983
63707W        W34307  37.640  18.857   2.721
63708W        W34308  14.813  23.774   3.244
63709W        W34309   0.850  15.641  14.896
63710W        W34310  38.895  11.641  10.170
63711W        W34311  16.547  34.415  12.892
63712W        W34312  10.187   1.212   3.776
63713W        W34313  40.325  28.934   4.620
63714W        W34314   2.459   6.041   1.751
63715W        W34315   5.740  30.992  12.995
63716W        W34316  15.434   4.160  14.680
63717W        W34317  32.849  16.257  13.059
63718W        W34318  29.637  21.306  12.377
63719W        W34319  20.258  36.472   1.793
63720W        W34320  44.287   3.020   0.286
63721W        W34321  34.506   6.223   0.279
63722W        W34322  19.798  21.732   0.010
63723W        W34323  16.073  13.190  14.957
63724W        W34324   1.711  39.893   3.264
63725W        W34325  34.091  11.264  14.443
63726W        W34326  12.151  33.473  14.886
63727W        W34327  38.821  25.660   4.755
63728W        W34328  17.101  17.534   2.412
63729W        W34329  19.584   9.827  12.936
63730W        W34330  19.649  40.083  14.550
63731W        W34331  11.305  10.164   1.416
63732W        W34332  44.251  14.282  10.716
63733W        W34333  34.607  32.103   1.344
63734W        W34334   5.021  12.233   3.751
63735W        W34335  24.047  34.630  14.349
63736W        W34336  24.053   1.889   2.666
63737W        W34337  15.780  29.493   4.574
63738W        W34338  21.162  17.598  11.101
63739W        W34339  44.005  26.947  14.483
63740W        W34340  25.098  22.789   1.826
63741W        W34341   8.708  38.726   5.011
63742W        W34342   1.148  36.691   3.307
63743W        W34343  43.280   6.648   4.267
63744W        W34344  38.087  17.174   4.433
63745W        W34345  24.665   5.791   1.523
63746W        W34346  34.568  25.134  14.946
63747W        W34347  41.051  31.377   2.133
63748W        W34348   8.197  26.246   3.300
63749W        W34349  40.456   9.338  12.655
63750W        W34350  35.881   9.391  13.288
63751W        W34351  34.980   2.356   1.943
63752W        W34352  17.139  15.823   4.720
63753W        W34353  14.364  23.502   4.356
63754W        W34354  38.102  14.097   4.173
63755W        W34355   9.173  23.186   1.502
63756W        W34356  12.587  25.583   4.631
63757W        W34357   4.716  16.814   2.711
63758W        W34358   6.305  21.983  10.782
63759W        W34359  24.207  16.769  11.494
63760W        W34360   3.262   5.452   1.751
63761W        W34361  10.622  14.687   3.159
63762W        W34362   9.776  41.872   3.708
63763W        W34363   9.086  17.948   3.653
63764W        W34364  18.316  43.506   3.026
63765W        W34365  27.969  21.276   0.328
63766W        W34366   5.157  14.143   0.209
63767W        W34367  24.630  15.573   0.277
63768W        W34368  32.053  35.535   3.773
63769W        W34369  22.108   9.791  12.104
63770W        W34370  27.922  41.773  14.882
63771W        W34371   0.940  26.461  11.650
63772W        W34372  43.468  28.232  14.779
63773W        W34373  25.801  29.610  11.233
63774W        W34374  44.196  38.631  13.402
63775W        W34375  22.462  24.543  11.777
63776W        W34376   5.053  21.020   0.497
63777W        W34377  33.122  34.932   2.936
63778W        W34378  38.252   2.213  11.076
63779W        W34379  21.230  18.749  12.868
63780W        W34380  42.075  41.513  11.770
63781W        W34381  22.588  12.326  13.872
63782W        W34382  19.342   7.420  11.525
63783W        W34383  25.950   2.319  11.550
63784W        W34384  24.313  17.192  13.566
63785W        W34385  22.378  27.755  12.989
63786W        W34386  23.577  43.557  11.332
63787W        W34387  17.127  25.998  11.664
63788W        W34388  10.757  10.118  11.131
63789W        W34389  40.443  36.813   3.283
63790W        W34390  15.578  39.310   3.905
63791W        W34391  16.892   9.266   3.176
63792W        W34392   5.787  41.936   4.665
63793W        W34393  24.194  22.931   3.373
63794W        W34394  11.112  42.362   2.641
63795W        W34395   9.929  29.898   0.028
63796W        W34396   1.077  44.438  14.781
63797W        W34397   3.897   1.185  11.480
63798W        W34398  35.109  25.789   3.436
63799W        W34399  43.895  37.237   1.622
63800W        W34400  21.664  30.040   3.822
63801W        W34401  19.801  12.737   0.033
63802W        W34402   0.956  40.920  11.362
63803W        W34403  26.924  28.180  10.623
63804W        W34404  32.920   5.796  12.889
63805W        W34405  18.725  43.231   2.772
63806W        W34406  23.717  33.037  12.926
63807W        W34407  12.894  21.570   4.954
63808W        W34408  16.249  20.239   1.815
63809W        W34409  40.643  13.332   1.404
63810W        W34410   5.752  24.941  11.220
63811W        W34411  20.231  19.709   0.017
63812W        W34412  38.524   7.468   3.222
63813W        W34413  12.313  23.723   0.185
63814W        W34414  28.517  37.951  14.284
63815W        W34415   7.842  44.574   3.053
63816W        W34416   9.279  38.893  12.089
63817W        W34417   0.137  21.773   1.630
63818W        W34418  13.227  11.193  10.911
63819W        W34419  11.174  39.763  12.354
63820W        W34420  28.558  18.589  10.955
63821W        W34421  28.076  11.292  12.676
63822W        W34422   7.967   6.903  14.044
63823W        W34423   3.350  23.003   4.565
63824W        W34424   7.607  25.865   2.704
63825W        W34425  12.669  29.164   2.225
63826W        W34426  19.594  44.052  11.035
63827W        W34427  30.694   5.708   3.631
63828W        W34428  30.541  27.495  11.906
63829W        W34429  19.199  31.630  14.562
63830W        W34430   6.916  18.024   1.881
63831W        W34431  17.779  21.968  10.672
63832W        W34432  41.894  38.199  14.319
63833W        W34433  27.551  37.806   2.760
63834W        W34434   2.466   1.952   2.249
63835W        W34435  39.412  25.699   1.247
63836W        W34436  23.433  32.768   4.286
63837W        W34437  36.555  15.090   1.222
63838W        W34438   8.919  12.835  10.968
63839W        W34439  21.305  31.884  11.262
63840W        W34440  28.636  42.287  11.188
63841W        W34441  37.480  22.920   2.917
63842W        W34442  10.175  23.896  13.930
63843W        W34443   6.890   1.134  13.381
63844W        W34444  11.959  20.237   3.238
63845W        W34445  10.191  18.220  11.558
63846W        W34446  41.035  39.100   4.949
63847W        W34447   2.726   6.517   0.437
63848W        W34448   6.020  33.576  14.249
63849W        W34449  43.807  26.705   4.589
63850W        W34450  15.786  13.385  14.545
63851W        W34451  30.005   0.416   4.690
63852W        W34452  29.945  15.170  13.004
63853W        W34453   9.918  41.875   2.378
63854W        W34454  12.269  30.626   1.280
63855W        W34455   9.656  34.871  12.964
63856W        W34456  13.237  13.757   0.275
63857W        W34457  36.173  28.109  12.842
63858W        W34458  37.083  22.082  14.867
63859W        W34459  36.240   9.869  10.741
63860W        W34460   4.913  19.524  12.641
63861W        W34461  16.280  41.595   2.677
63862W        W34462  17.782  16.268   4.083
63863W        W34463  32.062  10.213  12.699
63864W        W34464  12.883  41.801   3.702
63865W        W34465  31.653  38.633   1.420
63866W        W34466  42.286  14.138   2.133
63867W        W34467  39.860   3.223  11.335
63868W        W34468   9.010  25.164   3.733
63869W        W34469  10.253  20.855  10.687
63870W        W34470  13.817  18.466   4.135
63871W        W34471  16.746  37.537   3.403
63872W        W34472  15.537  27.149   4.886
63873W        W34473  42.029   0.927   1.629
63874W        W34474  15.379  32.332  10.436
63875W        W34475  12.742  13.189   0.789
63876W        W34476  44.326  36.400   3.404
63877W        W34477   5.172  31.929  11.573
63878W        W34478   0.849  42.395   1.952
63879W        W34479  22.940  11.623   1.216
63880W        W34480  16.621  38.819  10.574
63881W        W34481   9.575   0.898   4.141
63882W        W34482   7.849  43.962  13.003
63883W        W34483  18.666  37.358   3.809
63884W        W34484  33.620  20.619   0.814
63885W        W34485   1.998   0.111   0.314
63886W        W34486   5.794  43.827  14.539
63887W        W34487  27.515  40.899  11.067
63888W        W34488  37.393  40.020   0.720
63889W        W34489  35.603  44.469  12.139
63890W        W34490  35.632  26.038   3.747
63891W        W34491  17.763  21.734   3.154
63892W        W34492  41.734  16.486  11.568
63893W        W34493  21.903  35.885   0.120
63894W        W34494  10.087   8.243  10.672
63895W        W34495  42.082  38.106  13.841
63896W        W34496  38.762  23.075  12.441
63897W        W34497  43.452   0.200  13.527
63898W        W34498  25.479  28.977   2.271
63899W        W34499  29.150   7.687  11.702
63900W        W34500  30.943  26.477  14.820
63901W        W34501   9.276  41.193   3.118
63902W        W34502  30.615  14.357   4.236
63903W        W34503  12.385  37.552   1.628
63904W        W34504   4.808   9.394   2.409
63905W        W34505  12.570  25.473  12.550
63906W        W34506  27.062  39.371   2.610
63907W        W34507   6.486  30.705   0.703
63908W        W34508  17.058  32.931  12.364
63909W        W34509  26.737  23.500   0.831
63910W        W34510  40.654  27.884   3.675
63911W        W34511   8.615  26.933   2.341
63912W        W34512  30.528   1.765  14.479
63913W        W34513  17.092  28.412  14.227
63914W        W34514   7.898   2.009   4.264
63915W        W34515  37.082   4.462  12.535
63916W        W34516   6.319  40.507   3.105
63917W        W34517  33.328  31.115  11.932
63918W        W34518  38.468  43.336   1.898
63919W        W34519  16.729  42.838   4.684
63920W        W34520  40.801   8.829   0.909
63921W        W34521  22.012  26.140   3.954
63922W        W34522  14.654  13.478   1.699
63923W        W34523  14.684  19.346  13.470
63924W        W34524  22.043  17.125  14.617
63925W        W34525  21.212  11.684  11.243
63926W        W34526  34.461   6.463  11.936
63927W        W34527  44.335   0.612   9.941
63928W        W34528   9.805   7.414   3.176
63929W        W34529  33.427  44.416  14.934
63930W        W34530  16.177  44.506  11.636
63931W        W34531  38.633  31.460   0.030
63932W        W34532  42.753   9.357   2.772
63933W        W34533  18.444  39.268  13.380
63934W        W34534  42.397   1.725  10.731
63935W        W34535  36.425  41.515  10.716
63936W        W34536  23.610  14.869  12.027
63937W        W34537  22.772  35.920  12.575
63938W        W34538  23.951   9.227   3.316
63939W        W34539  11.932  29.635  12.516
63940W        W34540  42.995  31.447   0.752
63941W        W34541  30.570  41.641  13.488
63942W        W34542  33.124   3.854  13.239
63943W        W34543  31.208  35.840   1.772
63944W        W34544  31.258  10.831  11.578
63945W        W34545  10.108  17.318  14.184
63946W        W34546  26.114   0.439  13.447
63947W        W34547  38.844  22.634  13.042
63948W        W34548  33.117  32.670  12.587
63949W        W34549  27.594  29.073   1.867
63950W        W34550  34.496  42.865  14.233
63951W        W34551  38.282  29.803  12.422
63952W        W34552   9.188   3.360   2.780
63953W        W34553  24.728  25.052  10.932
63954W        W34554   5.289  17.448  14.446
63955W        W34555  20.282  39.019   0.176
63956W        W34556   6.412  15.748   3.093
63957W        W34557  38.057  44.098   0.317
63958W        W34558   2.539   0.830   3.783
63959W        W34559   7.800  43.583  12.475
63960W        W34560  11.353  39.015  13.936
63961W        W34561  17.715  17.191  10.484
63962W        W34562  16.010  14.450   9.797
63963W        W34563  17.999  26.973   0.941
63964W        W34564  30.890   7.707  12.145
63965W        W34565  15.375  26.036  10.336
63966W        W34566  36.553   0.192  10.857
63967W        W34567  36.406  34.079   3.785
63968W        W34568  44.246   2.700  14.615
63969W        W34569  31.604  24.058  11.069
63970W        W34570  24.251  31.921  11.302
63971W        W34571  38.285  37.952  14.980
63972W        W34572  32.686  28.838   2.279
63973W        W34573  31.171  40.417   1.505
63974W        W34574  41.447   7.237   1.629
63975W        W34575  27.843  20.222   4.518
63976W        W34576  14.472   7.888  12.072
63977W        W34577  17.552  36.594  10.699
63978W        W34578  21.580  10.249  13.606
63979W        W34579  43.995   1.680   0.510
63980W        W34580   6.766  36.066   0.161
63981W        W34581  39.281  15.565   3.961
63982W        W34582  20.158  21.437  14.774
63983W        W34583  25.660  27.671  12.846
63984W        W34584  26.913  41.801  13.964
63985W        W34585  22.501  44.677   1.107
63986W        W34586  11.701  33.420  14.603
63987W        W34587  25.042   1.354  12.920
63988W        W34588  18.453   9.495  11.016
63989W        W34589  23.142   2.915   3.252
63990W        W34590   2.994   6.929   4.877
63991W        W34591  12.842   1.354   0.396
63992W        W34592  30.441  39.894   0.482
63993W        W34593  34.906  43.761  12.365
63994W        W34594  29.511  14.372   0.370
63995W        W34595  21.028   9.725  12.939
63996W        W34596   0.321  20.182   4.051
63997W        W34597  35.588  37.472  12.494
63998W        W34598  44.882  10.365  13.454
63999W        W34599  20.777  13.905   2.136
64000W        W34600  22.950  32.043   1.194
64001W        W34601  32.348  11.153   4.628
64002W        W34602  16.335  39.545  12.979
64003W        W34603  26.528   1.946  14.396
64004W        W34604  42.629  20.281  11.085
64005W        W34605  22.811   6.660   0.443
64006W        W34606  37.587  14.714   1.047
64007W        W34607  42.535  17.181   2.184
64008W        W34608  19.231  22.248  12.017
64009W        W34609  22.450   8.625   1.815
64010W        W34610  34.494   7.204  14.923
64011W        W34611  34.240  31.497   4.047
64012W        W34612   4.429   7.316   0.261
64013W        W34613  41.425  39.515   1.431
64014W        W34614  10.829   7.701  11.171
64015W        W34615  31.978  29.001   2.725
64016W        W34616  17.175  28.447   2.526
64017W        W34617  33.644  31.577  11.659
64018W        W34618  36.569  43.447   3.284
64019W        W34619  44.871  17.483   0.480
64020W        W34620  29.387  27.002  10.560
64021W        W34621   9.166  24.553  14.915
64022W        W34622  17.096  33.928  12.551
64023W        W34623  17.691   2.940   4.672
64024W        W34624   6.336  37.028   1.655
64025W        W34625   1.188  19.074   4.172
64026W        W34626   7.932  44.786  11.661
64027W        W34627  32.428  30.980   1.860
64028W        W34628  16.609  38.054   0.832
64029W        W34629   3.989   0.446  12.352
64030W        W34630  14.964  19.770  13.485
64031W        W34631  35.086  35.467   1.380
64032W        W34632   1.319  12.826  14.707
64033W        W34633   3.799  17.156   2.725
64034W        W34634   3.789  23.549  11.521
64035W        W34635  14.055  18.794   3.345
64036W        W34636  37.470  30.517   3.867
64037W        W34637  26.181  36.815   2.819
64038W        W34638  25.057  41.591  11.622
64039W        W34639  30.334  41.574  12.702
64040W        W34640   9.296  13.819   0.801
64041W        W34641  12.715   4.150  14.753
64042W        W34642  41.144  44.095  14.539
64043W        W34643   1.627   8.201  12.523
64044W        W34644  38.558  42.038  14.590
64045W        W34645  18.318   3.193   4.597
64046W        W34646   0.694  29.203  12.556
64047W        W34647  37.408  19.853   0.818
64048W        W34648  24.660  42.119  14.000
64049W        W34649   5.457  21.473   0.894
64050W        W34650  32.013  41.345   1.392
64051W        W34651  29.166  15.163  12.461
64052W        W34652  25.682  44.847  11.084
64053W        W34653  14.771  33.479   1.404
64054W        W34654   4.359   8.688   4.905
64055W        W34655  14.875  32.175  14.411
64056W        W34656  29.421  32.162  12.947
64057W        W34657   8.749  33.864   4.443
64058W        W34658  22.771  27.532  11.580
64059W        W34659  41.746  15.350   2.343
64060W        W34660  13.394  20.569   2.344
64061W        W34661  16.636  37.142  13.395
64062W        W34662  18.568  27.500   3.151
64063W        W34663  35.137  31.533  12.969
64064W        W34664  14.605  26.571   4.122
64065W        W34665   0.819  33.384   4.568
64066W        W34666  23.580  17.255   3.870
64067W        W34667  21.841   7.135   0.463
64068W        W34668  32.590   8.681  14.280
64069W        W34669  22.003  29.054   2.784
64070W        W34670   4.701   3.428   3.190
64071W        W34671  15.753  26.997   1.425
64072W        W34672  18.779  27.875   0.432
64073W        W34673  30.310  25.605   0.810
64074W        W34674  13.152  28.118  12.630
64075W        W34675   3.445   7.334   4.238
64076W        W34676  29.093  42.310  14.564
64077W        W34677  37.886  11.615  12.987
64078W        W34678  30.552  25.848   0.434
64079W        W34679   2.402  40.027   0.730
64080W        W34680  42.795   5.866  11.984
64081W        W34681   9.396  37.468   3.743
64082W        W34682  12.124   5.349   0.069
64083W        W34683  22.813  40.895  14.279
64084W        W34684  19.938  34.772  14.966
64085W        W34685  33.515  39.590  11.342
64086W        W34686  13.048  13.166  10.150
64087W        W34687  36.613   7.253  12.906
64088W        W34688  33.283  40.787   2.125
64089W        W34689   4.809  17.261   1.193
64090W        W34690  24.944  30.762   3.402
64091W        W34691  13.000   2.750  14.760
64092W        W34692  44.987  41.953   4.394
64093W        W34693  15.605   6.644   3.129
64094W        W34694  40.538  20.276   3.767
64095W        W34695  23.316  14.218  11.534
64096W        W34696  37.074  32.389   4.789
64097W        W34697  17.053  38.008  14.403
64098W        W34698  26.523   5.181  13.118
64099W        W34699  26.579   1.766   2.822
64100W        W34700  36.353  22.350   2.662
64101W        W34701  11.277  42.454   3.132
64102W        W34702  20.144  21.233  10.039
64103W        W34703   3.702  18.244   2.279
64104W        W34704  24.290  33.008  14.962
64105W        W34705  10.767  33.639   2.813
64106W        W34706  32.223  14.567  14.021
64107W        W34707  38.593  26.040   2.084
64108W        W34708  12.647   2.235  14.676
64109W        W34709  38.074  17.141  13.361
64110W        W34710  29.020  20.947   0.318
64111W        W34711   8.197  23.124   3.362
64112W        W34712  22.581  34.857  11.787
64113W        W34713  11.929   3.054   4.707
64114W        W34714  28.707  11.615  11.159
64115W        W34715   1.449  34.880   1.822
64116W        W34716  14.547   4.387   0.293
64117W        W34717  12.844  38.422  12.488
64118W        W34718  30.606  33.945   1.735
64119W        W34719  39.582  40.677  12.034
64120W        W34720  40.999  13.419   4.293
64121W        W34721  11.648  41.811   0.450
64122W        W34722  33.003  26.073  12.793
64123W        W34723  12.208   8.535   1.869
64124W        W34724  44.932   6.239   0.866
64125W        W34725  30.638   9.704   0.464
64126W        W34726   7.751  44.738  11.193
64127W        W34727  28.148  12.271   3.711
64128W        W34728  34.215  31.398   1.651
64129W        W34729  11.177  34.492  12.453
64130W        W34730  13.325  35.584  14.099
64131W        W34731  22.757  23.254  13.881
64132W        W34732  36.863  20.172  10.652
64133W        W34733  37.502  18.869  13.513
64134W        W34734  14.188  30.758  11.079
64135W        W34735  18.884  28.485  10.294
64136W        W34736  11.025   1.661  12.106
64137W        W34737  42.459  29.555   0.791
64138W        W34738  23.604  31.146   4.657
64139W        W34739   8.831  10.978  11.832
64140W        W34740  36.384  34.041   2.863
64141W        W34741  30.599  35.348  12.380
64142W        W34742   9.569  22.545   0.873
64143W        W34743  16.831  42.538  13.313
64144W        W34744  43.993  16.059   4.626
64145W        W34745   2.868  24.504  11.702
64146W        W34746  17.870  11.329  11.692
64147W        W34747  20.024  10.167  12.322
64148W        W34748  37.045  38.967   4.952
64149W        W34749  39.637  28.086  12.842
64150W        W34750  42.009   8.602   3.016
64151W        W34751   2.758  36.960   2.656
64152W        W34752  19.987   4.027  10.722
64153W        W34753  14.786  29.771  14.261
64154W        W34754   3.177   4.952  13.391
64155W        W34755  18.580   2.932   3.193
64156W        W34756   9.596   3.323  13.535
64157W        W34757  33.017   0.393  11.126
64158W        W34758  42.854  36.334   4.189
64159W        W34759  15.090  22.974  12.536
64160W        W34760  16.040  38.231   0.305
64161W        W34761   7.070   2.852   2.727
64162W        W34762  22.605   1.463   0.733
64163W        W34763  24.145   0.237   2.081
64164W        W34764  38.970   3.385  14.298
64165W        W34765   4.962  35.151   3.623
64166W        W34766   7.746  14.248   4.679
64167W        W34767  22.037  40.033  12.043
64168W        W34768  42.478   7.354  10.677
64169W        W34769  23.283  19.035  12.072
64170W        W34770  34.457  20.115  14.000
64171W        W34771  44.298  24.450  12.991
64172W        W34772  32.199  13.940  12.606
64173W        W34773  34.926  21.266  13.477
64174W        W34774  31.136  14.623  10.730
64175W        W34775   0.817  32.518   2.849
64176W        W34776  25.280  26.542   4.295
64177W        W34777  26.324  40.536  14.365
64178W        W34778  22.155   3.390   1.413
64179W        W34779   4.162  34.787   5.702
64180W        W34780  39.271  26.377  11.704
64181W        W34781  37.463  21.432   4.795
64182W        W34782  11.380  30.964   1.894
64183W        W34783  14.519  30.955   3.793
64184W        W34784  10.245  24.496  10.811
64185W        W34785  12.813  25.857  14.837
64186W        W34786  44.014  40.980   1.175
64187W        W34787  32.791   0.260   0.740
64188W        W34788  23.341   2.507  10.143
64189W        W34789  11.658  23.097  13.569
64190W        W34790   1.508  36.996   3.505
64191W        W34791  20.587  20.235  13.242
64192W        W34792  31.424   8.193   2.648
64193W        W34793  28.753   8.413   2.326
64194W        W34794  21.536  42.054   0.288
64195W        W34795  15.095  16.088  11.045
64196W        W34796   7.904  42.334   2.668
64197W        W34797  29.892  19.303  10.581
64198W        W34798  44.283  32.525   2.699
64199W        W34799  17.541  18.614  10.946
64200W        W34800  27.515  25.153   4.096
64201W        W34801  44.274  41.462  12.583
64202W        W34802   9.762  35.505   3.123
64203W        W34803  40.960  11.162   2.663
64204W        W34804  12.291  12.339   3.709
64205W        W34805  12.765  39.722   0.317
64206W        W34806   7.450   0.310   0.997
64207W        W34807   9.556   3.039   4.368
64208W        W34808  35.022   8.530  14.878
64209W        W34809  31.634  27.654   4.656
64210W        W34810  38.403  31.687   0.443
64211W        W34811   3.503  40.600   4.113
64212W        W34812  27.106  39.251  11.603
64213W        W34813   5.243  36.844  12.544
64214W        W34814  38.603   9.188  13.973
64215W        W34815  36.437  28.967   3.136
64216W        W34816  44.815  32.997   0.812
64217W        W34817  21.459  26.438  10.715
64218W        W34818  26.095   8.310   3.232
64219W        W34819   1.264  22.241  13.700
64220W        W34820  11.717  29.111   2.264
64221W        W34821  23.199  16.044  11.438
64222W        W34822  13.177  38.596  12.890
64223W        W34823  13.615  44.881  11.087
64224W        W34824  27.349  32.415  13.422
64225W        W34825   0.953  12.654   3.336
64226W        W34826  44.556  30.597   1.899
64227W        W34827   8.177  29.329  12.382
64228W        W34828   7.589  25.154  13.415
64229W        W34829   6.122  30.710  13.224
64230W        W34830  38.542  16.395   0.830
64231W        W34831  40.323  18.142  14.301
64232W        W34832  27.082  29.209  12.981
64233W        W34833   2.964   6.738   0.026
64234W        W34834  14.673  21.838   1.690
64235W        W34835  20.075   5.790  10.584
64236W        W34836  25.245  25.203   4.880
64237W        W34837  37.628  35.819  14.959
64238W        W34838  38.127  33.099   2.346
64239W        W34839  25.227   7.392   9.768
64240W        W34840  44.882   7.481   4.882
64241W        W34841  16.169  28.055  14.923
64242W        W34842   3.245  38.607  11.424
64243W        W34843  24.769  12.722  12.836
64244W        W34844  18.160  22.321  13.590
64245W        W34845  13.407  28.180  10.671
64246W        W34846  18.294  10.821   3.979
64247W        W34847  29.861  33.644   2.176
64248W        W34848  22.433  38.746   5.021
64249W        W34849  44.471  29.650  14.331
64250W        W34850  28.565  44.036  13.449
64251W        W34851   4.152  41.480  14.440
64252W        W34852  25.497  38.416   3.214
64253W        W34853   9.338  11.243  14.522
64254W        W34854  14.900  36.878  14.388
64255W        W34855  22.312  10.654   4.201
64256W        W34856   7.818   4.279  14.757
64257W        W34857   8.478   2.804  12.897
64258W        W34858   5.835   8.443   1.225
64259W        W34859  41.852  10.739   4.649
64260W        W34860   0.213  27.816  12.550
64261W        W34861  40.763   6.521  10.809
64262W        W34862  13.596  32.449  11.416
64263W        W34863  44.072  41.393   1.714
64264W        W34864  23.967  44.898  12.307
64265W        W34865  12.616  13.216   1.287
64266W        W34866  43.568   7.372   3.731
64267W        W34867  11.844  12.821   0.819
64268W        W34868   7.446  23.103   1.405
64269W        W34869   1.927  30.861   1.099
64270W        W34870   2.211  15.326   2.275
64271W        W34871   2.196  40.799  13.791
64272W        W34872  24.200  24.444  11.392
64273W        W34873   3.737  35.615   2.154
64274W        W34874  21.821  39.550  12.080
64275W        W34875  25.575  41.341   4.299
64276W        W34876  30.506   6.599   4.884
64277W        W34877   7.900  34.916   0.763
64278W        W34878  17.844  12.336  12.360
64279W        W34879  35.363  22.099   0.940
64280W        W34880  13.256  19.386   1.791
64281W        W34881  28.966  44.242   3.323
64282W        W34882  40.911   7.126   3.211
64283W        W34883   3.252   0.016   3.906
64284W        W34884  29.084  41.862  14.275
64285W        W34885  19.467   2.096   3.673
64286W        W34886  32.652   6.460  13.494
64287W        W34887  29.603  35.876  13.537
64288W        W34888  20.343  12.201  11.469
64289W        W34889   0.764  36.202  10.694
64290W        W34890  30.920  27.900  13.873
64291W        W34891  44.530  44.238  11.604
64292W        W34892  39.900  27.369  14.819
64293W        W34893  33.057  20.588  11.610
64294W        W34894  17.157  14.656   2.690
64295W        W34895  44.025  27.069   0.804
64296W        W34896  39.851  20.612  14.355
64297W        W34897  44.809  16.082   3.237
64298W        W34898  35.306  32.990   1.256
64299W        W34899  29.159  34.134  13.573
64300W        W34900  19.617  18.102   1.718
64301W        W34901  37.384  13.587  13.574
64302W        W34902  23.225   0.408   2.429
64303W        W34903   2.244   4.164  12.443
64304W        W34904  27.669   1.399   1.330
64305W        W34905  41.513  35.387  14.871
64306W        W34906  12.181  41.871  13.520
64307W        W34907  38.753  28.496  13.024
64308W        W34908  43.554  29.676  13.566
64309W        W34909  33.367  35.530  11.970
64310W        W34910  19.196  27.466   2.347
64311W        W34911  43.370  37.989   0.876
64312W        W34912  12.660   8.905   2.600
64313W        W34913   6.404  10.795   3.159
64314W        W34914  14.317  30.456  11.604
64315W        W34915  19.622  40.978   3.247
64316W        W34916   5.821  36.952   1.703
64317W        W34917   8.726  31.520   1.167
64318W        W34918  18.633  31.573  12.584
64319W        W34919   0.955  41.386   4.557
64320W        W34920   7.233  21.220  14.240
64321W        W34921   3.843  17.052  10.991
64322W        W34922  39.501   0.483   0.474
64323W        W34923  31.163   5.925   0.061
64324W        W34924  26.156  17.036   1.933
64325W        W34925  21.551  44.276  14.003
64326W        W34926  26.920   8.152   1.311
64327W        W34927   1.406   9.312  12.027
64328W        W34928   7.386  32.723   2.876
64329W        W34929  43.340   8.305   1.832
64330W        W34930  30.383  28.160   3.129
64331W        W34931  21.986  41.235  11.201
64332W        W34932  30.433  38.778   3.197
64333W        W34933  37.762   8.380   1.224
64334W        W34934  13.047   8.498  12.345
64335W        W34935   3.758  31.590   4.542
64336W        W34936  34.497  38.410   4.141
64337W        W34937  24.936  32.851   1.256
64338W        W34938  12.300   9.308   1.171
64339W        W34939  41.803  29.152  12.842
64340W        W34940  20.688   6.464  10.448
64341W        W34941   5.813  29.658   0.463
64342W        W34942  31.894  43.774  13.833
64343W        W34943  19.108  29.900   1.933
64344W        W34944   7.272  29.398   4.997
64345W        W34945  44.284  26.518   4.584
64346W        W34946  11.589   0.248   1.438
64347W        W34947  24.159  24.564  10.870
64348W        W34948   9.833  13.193   4.010
64349W        W34949   8.794  43.466   4.552
64350W        W34950  12.874   3.343   0.745
64351W        W34951  10.558  14.110   1.390
64352W        W34952  23.495  34.665   4.301
64353W        W34953  16.667  43.885  11.519
64354W        W34954  39.430  27.427  14.509
64355W        W34955  17.111  24.615  12.938
64356W        W34956  37.779  13.437  12.596
64357W        W34957  29.786  36.568  11.982
64358W        W34958   8.816  20.241   3.584
64359W        W34959  19.513   3.764  12.734
64360W        W34960  24.762  24.610  14.982
64361W        W34961  23.136  42.176   4.056
64362W        W34962  18.737  40.412  10.233
64363W        W34963   9.347  26.934  13.035
64364W        W34964   3.984  23.676   0.443
64365W        W34965   1.687  10.815  14.682
64366W        W34966   7.502  17.189   3.983
64367W        W34967   4.504  27.944   2.328
64368W        W34968  13.664   9.363  14.939
64369W        W34969  24.793  13.282  12.010
64370W        W34970  18.217  35.118   3.265
64371W        W34971  34.624  22.773   3.073
64372W        W34972  36.393  44.792   1.737
64373W        W34973  30.949  27.456   0.816
64374W        W34974  44.917  29.798  10.747
64375W        W34975  37.934   2.215  14.791
64376W        W34976  10.928  16.266   2.668
64377W        W34977   2.541  17.130  14.394
64378W        W34978  28.668   8.246   2.837
64379W        W34979  23.544   3.159  14.333
64380W        W34980  44.997   2.464  11.067
64381W        W34981  15.786   3.895  10.223
64382W        W34982  22.416  32.483   3.716
64383W        W34983  40.402  23.448   3.421
64384W        W34984  16.593  24.056   2.461
64385W        W34985  20.609   9.503   1.893
64386W        W34986  23.004  12.663   1.401
64387W        W34987   5.728  34.508   2.636
64388W        W34988  33.204   3.779  12.711
64389W        W34989   6.828  21.078  11.259
64390W        W34990  40.146  32.652  14.871
64391W        W34991  23.604  31.544   1.083
64392W        W34992  22.901   5.220  12.372
64393W        W34993  20.449   1.337   4.873
64394W        W34994  34.021  22.283  10.291
64395W        W34995  19.119  25.095   3.599
64396W        W34996  33.417  15.760  12.844
64397W        W34997   6.047  38.287   4.806
64398W        W34998  25.266  15.538  14.073
64399W        W34999  20.107   0.695   2.363
64400W        W35000  41.407  22.602   4.650
64401W        W35001  26.148   8.741  13.482
64402W        W35002  36.569  27.499   1.860
64403W        W35003  43.753  43.942   4.520
64404W        W35004  35.593  11.881  11.423
64405W        W35005  41.696  23.518   1.311
64406W        W35006  43.728   3.666  13.308
64407W        W35007   4.202  11.939  13.380
64408W        W35008  24.097  38.904   2.624
64409W        W35009  30.105  39.038   1.793
64410W        W35010  37.113  29.443  12.105
64411W        W35011  11.204  29.047   2.194
64412W        W35012   1.896  10.182   3.326
64413W        W35013   1.064  18.684   2.371
64414W        W35014  20.691   5.255  13.458
64415W        W35015  27.773  18.545   1.422
64416W        W35016  12.649  18.558  12.041
64417W        W35017  11.766   2.746  13.711
64418W        W35018   0.651  26.296   3.731
64419W        W35019  15.971  40.577  12.116
64420W        W35020  20.083   7.759  14.834
64421W        W35021  24.519  18.175  13.402
64422W        W35022  38.968  12.121   0.840
64423W        W35023  10.332  39.530   3.400
64424W        W35024  20.341  27.400   5.368
64425W        W35025  24.107  39.324  10.676
64426W        W35026  35.395  13.263   1.856
64427W        W35027  39.359  36.065   4.007
64428W        W35028  42.992   7.922  14.863
64429W        W35029  19.052   4.399  11.573
64430W        W35030  22.106  18.511   2.448
64431W        W35031  34.216   6.296  13.279
64432W        W35032  24.659  18.663   2.443
64433W        W35033  22.118   7.599   5.017
64434W        W35034  13.795  34.105  12.146
64435W        W35035  40.423  35.051   1.412
64436W        W35036   9.400  34.150   0.681
64437W        W35037   2.974  39.358  11.154
64438W        W35038  18.938  32.069  14.326
64439W        W35039   4.247  36.322   2.752
64440W        W35040  31.689   7.195  12.005
64441W        W35041  19.567  35.540   0.351
64442W        W35042  37.094  35.469   1.395
64443W        W35043  32.558  41.881   3.593
64444W        W35044  19.293  15.466  11.833
64445W        W35045  36.601  14.673  11.926
64446W        W35046  39.728   3.340  14.944
64447W        W35047   3.645  29.032   4.839
64448W        W35048   4.143  20.237   4.852
64449W        W35049  10.403  25.559  13.507
64450W        W35050  35.865  38.983   2.484
64451W        W35051  10.970   4.421  14.647
64452W        W35052   3.791  30.103  11.011
64453W        W35053  23.044  26.422   0.336
64454W        W35054  35.609  10.200   0.248
64455W        W35055  37.433  33.591   1.433
64456W        W35056  22.530   0.343   3.666
64457W        W35057   2.671  40.041  14.281
64458W        W35058  37.827  41.757   2.337
64459W        W35059   1.388  25.603   1.078
64460W        W35060  14.990  11.688   4.557
64461W        W35061  28.770  38.850  11.457
64462W        W35062  35.649  26.525  14.393
64463W        W35063  42.334  22.955  13.564
64464W        W35064  30.421  43.289  11.573
64465W        W35065  41.091  34.822   0.455
64466W        W35066  17.490  41.596   1.703
64467W        W35067  16.099  39.658  13.451
64468W        W35068  41.353  33.603  13.278
64469W        W35069   5.110   4.935   0.310
64470W        W35070  23.495   5.498  11.636
64471W        W35071  41.858   8.726  13.809
64472W        W35072  39.386  27.532   1.574
64473W        W35073  28.555  10.269  13.299
64474W        W35074  28.068  26.341   4.550
64475W        W35075   0.847   9.967  13.414
64476W        W35076   8.618   0.449  11.707
64477W        W35077  36.935  29.089  11.188
64478W        W35078  39.413  24.658  11.971
64479W        W35079  40.007  17.070   2.426
64480W        W35080  26.710  13.940   0.841
64481W        W35081  29.832  37.284   4.197
64482W        W35082   0.683  30.971  13.227
64483W        W35083   3.187  20.067   2.300
64484W        W35084  24.749  39.034   1.467
64485W        W35085  29.186   8.171   2.997
64486W        W35086  32.977   4.876   4.137
64487W        W35087  16.320  37.890   3.470
64488W        W35088  10.119   9.271   1.680
64489W        W35089  39.940  15.761  12.890
64490W        W35090  40.665  41.231   5.083
64491W        W35091  14.358  30.150  13.755
64492W        W35092  38.068   9.905  12.373
64493W        W35093  27.341   8.871  12.726
64494W        W35094  10.808  36.285   3.623
64495W        W35095  25.153  16.770  10.729
64496W        W35096  24.836  44.901  13.457
64497W        W35097  38.824  28.958  12.062
64498W        W35098  16.841   5.276   4.481
64499W        W35099  37.639  22.999   3.396
64500W        W35100   4.032  18.100   4.168
64501W        W35101   0.995  20.130  11.648
64502W        W35102  20.910  13.206  11.604
64503W        W35103   0.077  31.961   0.714
64504W        W35104  32.470  43.278  11.510
64505W        W35105  18.861  18.142  13.846
64506W        W35106  26.171   6.750   3.694
64507W        W35107  36.388  27.564  13.513
64508W        W35108  13.661  32.977  11.465
64509W        W35109  27.489  10.123  13.782
64510W        W35110  15.148  41.004  12.179
64511W        W35111  28.466   9.515   4.580
64512W        W35112   7.291  15.648   2.673
64513W        W35113   5.254   8.891   1.875
64514W        W35114  22.525   3.446  14.670
64515W        W35115  21.396  43.852  14.536
64516W        W35116  36.940  20.743   4.493
64517W        W35117  21.831   9.310  12.773
64518W        W35118  29.894  43.511   0.464
64519W        W35119  13.131  41.272  13.552
64520W        W35120  10.125  23.808   1.740
64521W        W35121  39.558   0.394  12.979
64522W        W35122  15.111  24.891   2.539
64523W        W35123   6.662  21.225   4.795
64524W        W35124   5.037  22.649  11.399
64525W        W35125  12.370  38.794  13.907
64526W        W35126  13.084  36.281   3.243
64527W        W35127  22.475  35.407  11.928
64528W        W35128  34.043   0.397   0.820
64529W        W35129  22.464   9.332  13.465
64530W        W35130  28.568  24.424   0.692
64531W        W35131  32.376   1.927  13.765
64532W        W35132  33.064   3.611   4.575
64533W        W35133  36.861  29.862  13.076
64534W        W35134  39.421  24.591  13.853
64535W        W35135  33.274  16.374  14.776
64536W        W35136  15.544   2.307   2.209
64537W        W35137  21.177  31.148  12.105
64538W        W35138  25.057  32.444  13.886
64539W        W35139  25.923  44.419  14.139
64540W        W35140  41.480  23.106   4.913
64541W        W35141  19.814  40.773   4.210
64542W        W35142  26.277  10.339   2.325
64543W        W35143  39.023   9.670   3.254
64544W        W35144   3.629  35.193   3.234
64545W        W35145   1.132  32.899   0.993
64546W        W35146  39.332  23.153  14.206
64547W        W35147  29.955  43.429  13.491
64548W        W35148  25.353   7.270  12.617
64549W        W35149   5.281  11.748  13.849
64550W        W35150  43.300   2.459   2.738
64551W        W35151  25.635  11.953   9.917
64552W        W35152   7.700  33.099  12.441
64553W        W35153   1.083  21.271  12.703
64554W        W35154  21.551   0.757   0.674
64555W        W35155  15.386  41.548  10.483
64556W        W35156  11.783  43.880  13.289
64557W        W35157  36.128  43.494   0.340
64558W        W35158  19.053  33.535   1.892
64559W        W35159  42.145  22.639  13.209
64560W        W35160  32.730  31.370   1.702
64561W        W35161  15.727  41.157  14.878
64562W        W35162  12.771  12.284   0.682
64563W        W35163  17.838  13.382   1.235
64564W        W35164  31.091  35.913   4.007
64565W        W35165  42.883  22.141  10.697
64566W        W35166  36.296   3.480  14.898
64567W        W35167  25.094  19.545   0.434
64568W        W35168  43.961   0.429  12.863
64569W        W35169   9.992   9.762   0.105
64570W        W35170   1.961  37.602   3.691
64571W        W35171  13.288  21.297  14.256
64572W        W35172  32.619  31.095   0.123
64573W        W35173  13.320  43.769   2.225
64574W        W35174  30.774  24.172  13.101
64575W        W35175  40.929   0.960  12.257
64576W        W35176   1.989   5.391  10.725
64577W        W35177   4.515  10.866   0.938
64578W        W35178   5.694   9.953   1.157
64579W        W35179  24.491  36.779  13.300
64580W        W35180   1.981  34.106   0.460
64581W        W35181  21.042  43.029  13.363
64582W        W35182  41.050  23.262   2.838
64583W        W35183  24.003  12.752   4.714
64584W        W35184  12.281  13.353   1.890
64585W        W35185  41.831  37.176  12.248
64586W        W35186  38.953  32.975  10.946
64587W        W35187  37.133  40.209   3.216
64588W        W35188   7.175  43.794  14.790
64589W        W35189  10.676  15.563   0.435
64590W        W35190  44.242   2.031  14.925
64591W        W35191  43.541  19.992   2.801
64592W        W35192  38.432  29.130   1.208
64593W        W35193   5.247  23.233  14.747
64594W        W35194  35.933  13.225   2.583
64595W        W35195  22.735  31.631   2.825
64596W        W35196   9.737  37.507   4.177
64597W        W35197  31.219  35.559   3.168
64598W        W35198  21.972  26.415  13.994
64599W        W35199  12.401   8.006  12.919
64600W        W35200  18.317  23.030   4.720
64601W        W35201  20.739  13.649  11.783
64602W        W35202  44.480  22.722   5.179
64603W        W35203  23.928  37.265  13.868
64604W        W35204   2.932  21.883  12.436
64605W        W35205  19.108  25.146  11.969
64606W        W35206  12.872   6.611  13.937
64607W        W35207  31.960  44.192  10.693
64608W        W35208  25.651   9.799  14.486
64609W        W35209  35.938  32.026  12.159
64610W        W35210  14.874  12.259  14.497
64611W        W35211   8.097  16.239  13.314
64612W        W35212   1.860  32.480  11.446
64613W        W35213  30.601  12.252   1.845
64614W        W35214  44.030  10.128   2.454
64615W        W35215   0.176   1.318   4.164
64616W        W35216  32.619  24.997  12.456
64617W        W35217  25.534  20.987  14.499
64618W        W35218  36.538  38.186  12.017
64619W        W35219   7.404  34.825   2.226
64620W        W35220  38.399  18.250  11.907
64621W        W35221  35.950  43.194  13.690
64622W        W35222  32.085   0.777   4.081
64623W        W35223  25.838  33.549   1.300
64624W        W35224  15.205  17.728  11.243
64625W        W35225   3.224  33.698  14.864
64626W        W35226  39.208  17.973  10.403
64627W        W35227  32.487  23.393   0.330
64628W        W35228  27.005  21.538   4.334
64629W        W35229  26.973  30.969   1.295
64630W        W35230  29.428  43.411   3.073
64631W        W35231  32.486  38.592   2.759
64632W        W35232   0.960   0.470   2.731
64633W        W35233  21.566  40.475   1.256
64634W        W35234  22.565  32.866  10.665
64635W        W35235  13.884  39.939   0.910
64636W        W35236  11.338  27.283   4.522
64637W        W35237  39.025  19.057  14.221
64638W        W35238  16.555  17.779  13.991
64639W        W35239  39.064  41.755  12.852
64640W        W35240   8.248  24.581  11.911
64641W        W35241  26.728   9.068  13.939
64642W        W35242  43.619  40.035  10.503
64643W        W35243  12.883  10.157  13.132
64644W        W35244  16.821  44.527   4.292
64645W        W35245  15.867  13.675   1.397
64646W        W35246  25.471  37.433  13.801
64647W        W35247  28.169  43.909   2.430
64648W        W35248  15.682   0.288  11.357
64649W        W35249  21.683  31.295   0.927
64650W        W35250   9.355  10.538   2.385
64651W        W35251  27.207   1.190  12.959
64652W        W35252  22.152   7.417   1.892
64653W        W35253  12.225   4.315  13.755
64654W        W35254  25.048  23.611  13.297
64655W        W35255  34.111  30.150  13.339
64656W        W35256  13.393  24.402   2.379
64657W        W35257  44.169   1.971   3.706
64658W        W35258  20.458  31.127  12.781
64659W        W35259  21.705   4.231   1.905
64660W        W35260  18.540  14.892  12.360
64661W        W35261  26.647  34.210   4.875
64662W        W35262  26.352  27.614   1.924
64663W        W35263  19.384  25.386   1.209
64664W        W35264   0.216  21.316  12.396
64665W        W35265  36.306  39.568  12.074
64666W        W35266  15.707  22.101   2.650
64667W        W35267  38.210  12.579  14.729
64668W        W35268  27.563  31.075   4.892
64669W        W35269  19.518   6.984  10.269
64670W        W35270   5.276  44.483  11.143
64671W        W35271  15.528  23.794   1.463
64672W        W35272  24.495  40.783   2.816
64673W        W35273  23.844  31.937  13.229
64674W        W35274  32.885  28.357  13.401
64675W        W35275  38.481  20.385   1.852
64676W        W35276  36.084   7.782  12.454
64677W        W35277  24.256  10.763  14.842
64678W        W35278  17.133   6.998  11.003
64679W        W35279  37.583  10.494  14.471
64680W        W35280   2.762  24.388   0.539
64681W        W35281  14.661  13.575   0.380
64682W        W35282  15.139   4.834  13.118
64683W        W35283  14.729  41.727   4.931
64684W        W35284  10.242  27.700   3.289
64685W        W35285  32.625  29.173  13.104
64686W        W35286  10.132  28.449   2.689
64687W        W35287  27.209  37.521  11.832
64688W        W35288  25.344   1.880   4.529
64689W        W35289  26.188  22.786   3.233
64690W        W35290  29.550  29.938   4.017
64691W        W35291   9.683  30.847  11.414
64692W        W35292  20.791  15.308   3.736
64693W        W35293  13.319  15.911   3.046
64694W        W35294  11.712  31.934  14.063
64695W        W35295  22.052  27.501  14.808
64696W        W35296  22.493  33.025   1.383
64697W        W35297   4.545   4.352  12.205
64698W        W35298  44.510  30.575  11.102
64699W        W35299  25.885   5.234  12.516
64700W        W35300  25.053  40.966   3.503
64701W        W35301   3.758  28.387   3.186
64702W        W35302   2.307  20.734   2.101
64703W        W35303   8.659   1.781  14.182
64704W        W35304  15.749  41.126  11.835
64705W        W35305  29.315  18.873  12.546
64706W        W35306  34.812  31.021  12.005
64707W        W35307  10.082  20.691   0.300
64708W        W35308   0.862   0.313  14.337
64709W        W35309  25.636   8.736  11.434
64710W        W35310  44.045  38.354  10.761
64711W        W35311  44.517  17.351   3.286
64712W        W35312  17.344   8.832  10.744
64713W        W35313   3.235   6.845   4.272
64714W        W35314  30.885  30.482   1.656
64715W        W35315  14.708  18.587   2.732
64716W        W35316  16.995  17.104   2.691
64717W        W35317  33.728  27.773  10.077
64718W        W35318  15.189   6.714  13.837
64719W        W35319  39.478  41.851  14.675
64720W        W35320   4.183  13.279   4.906
64721W        W35321  27.683  24.085   4.547
64722W        W35322  15.716   7.787  10.764
64723W        W35323  21.182  33.538  13.482
64724W        W35324  29.920  11.211  11.561
64725W        W35325  43.979  25.216  11.981
64726W        W35326  43.485  26.954  11.972
64727W        W35327  39.368  33.031   2.655
64728W        W35328  12.896  42.300   1.505
64729W        W35329  19.739   4.096   2.324
64730W        W35330   1.743  27.966  11.182
64731W        W35331  24.943  31.419  12.021
64732W        W35332   0.271  33.028   2.222
64733W        W35333  24.074  15.078  14.269
64734W        W35334  16.623  35.854   0.640
64735W        W35335  41.471  35.116  12.928
64736W        W35336  14.868   9.252  12.853
64737W        W35337  43.227  33.947   3.130
64738W        W35338   0.883  26.010  13.472
64739W        W35339  35.047  31.038   3.413
64740W        W35340  40.516  28.492  12.461
64741W        W35341  10.142   9.123  11.603
64742W        W35342  19.260   0.720   0.422
64743W        W35343  17.532  16.294  14.864
64744W        W35344   0.489  24.692  12.030
64745W        W35345   7.743  21.922   1.229
64746W        W35346  28.670   3.570   4.488
64747W        W35347  13.121   7.949  11.077
64748W        W35348   3.681  37.770   2.003
64749W        W35349  20.304  18.785   1.760
64750W        W35350  17.071  31.513  11.005
64751W        W35351   0.487  29.508   3.661
64752W        W35352  13.894   3.457   1.696
64753W        W35353   7.093  17.177   0.836
64754W        W35354   9.712  29.881   3.341
64755W        W35355  26.552  31.010  12.115
64756W        W35356  21.266   2.936  14.715
64757W        W35357   1.131  32.428  13.838
64758W        W35358  16.082   9.851   2.315
64759W        W35359  30.571  40.420   4.016
64760W        W35360   9.724  39.926  12.281
64761W        W35361  14.173   6.893   4.669
64762W        W35362  18.703  26.941  12.576
64763W        W35363  28.907  32.124  12.775
64764W        W35364  15.225  18.206  10.509
64765W        W35365  11.345  26.013   1.364
64766W        W35366   7.496  17.748  12.112
64767W        W35367  33.500  25.638  11.940
64768W        W35368  11.386   9.295  11.869
64769W        W35369  32.975  27.425  13.360
64770W        W35370   3.649   1.047  14.933
64771W        W35371  23.566  19.998  10.997
64772W        W35372  37.101  40.488   2.779
64773W        W35373   7.489   2.239  11.929
64774W        W35374  37.930  17.250   2.363
64775W        W35375  11.320  42.332  14.305
64776W        W35376  33.121  12.122   0.736
64777W        W35377  20.275  29.916   3.206
64778W        W35378  10.643  17.298  14.284
64779W        W35379  33.795  26.953   4.479
64780W        W35380  21.040  23.561  14.598
64781W        W35381   7.424  26.070   1.377
64782W        W35382  39.037  28.117  11.623
64783W        W35383  12.615  25.387  14.776
64784W        W35384  25.644  43.831   4.079
64785W        W35385  29.150  12.814   4.311
64786W        W35386  13.792  40.783  12.107
64787W        W35387  29.154  28.542   4.790
64788W        W35388  18.968   2.462  12.578
64789W        W35389  36.534  43.047  10.712
64790W        W35390  12.171  26.189   4.058
64791W        W35391  41.736   0.811  13.793
64792W        W35392  42.375  27.444  13.992
64793W        W35393  13.134  10.061   1.444
64794W        W35394  26.547  24.999  14.288
64795W        W35395   9.193  19.606  14.252
64796W        W35396  40.861  27.206   4.515
64797W        W35397  36.798  37.208  14.163
64798W        W35398   3.180  36.343   2.749
64799W        W35399  32.193  41.425   1.879
64800W        W35400  14.656  13.817   2.113
64801W        W35401   6.897  34.088   4.624
64802W        W35402  12.701  17.377   4.354
64803W        W35403   8.677   5.196  13.457
64804W        W35404  38.469  38.945  13.989
64805W        W35405  13.100   1.311  11.565
64806W        W35406  16.056  16.708  12.313
64807W        W35407  24.692  26.606  12.094
64808W        W35408   4.404  25.704  10.342
64809W        W35409  28.483  11.288  13.543
64810W        W35410  10.026  36.647  13.117
64811W        W35411  40.082  38.511  11.977
64812W        W35412  29.034  23.642  13.862
64813W        W35413  30.679  22.475  13.011
64814W        W35414  29.424  11.930   2.336
64815W        W35415   9.267  44.315  14.342
64816W        W35416   0.241   3.722   2.866
64817W        W35417  40.766  21.982  13.866
64818W        W35418  39.320  34.539   4.603
64819W        W35419  30.830  36.643   2.684
64820W        W35420  30.345  25.006   2.297
64821W        W35421  18.653  26.470   4.928
64822W        W35422   6.380  26.351   2.020
64823W        W35423   7.367   7.798  13.081
64824W        W35424  43.158   1.260   3.936
64825W        W35425  23.608  30.377  13.003
64826W        W35426  35.609  32.068  11.652
64827W        W35427  38.384  17.602  10.711
64828W        W35428   5.269  35.018  14.943
64829W        W35429  33.393  10.120   0.769
64830W        W35430  32.102   2.931   0.441
64831W        W35431   6.091   3.562  11.992
64832W        W35432  39.567  34.957  12.761
64833W        W35433  10.752  31.124   3.215
64834W        W35434  41.365   9.840  12.033
64835W        W35435  17.345  15.538   3.659
64836W        W35436   5.281   6.275   4.368
64837W        W35437  15.408   4.238   0.192
64838W        W35438  14.608  30.029  11.539
64839W        W35439  31.779   2.294  14.909
64840W        W35440  36.985   8.734   1.275
64841W        W35441  15.678  19.570   2.827
64842W        W35442  41.586  42.612   3.773
64843W        W35443   1.029  21.043  11.866
64844W        W35444  14.909  34.783  12.459
64845W        W35445  26.980  36.948  14.049
64846W        W35446  36.918  15.509   0.353
64847W        W35447  23.577  39.345   1.404
64848W        W35448  11.725  21.774   2.250
64849W        W35449  44.052  33.559   3.225
64850W        W35450  37.580  21.981  13.472
64851W        W35451  36.946  32.898   3.872
64852W        W35452   3.623   4.755   1.205
64853W        W35453  14.576   5.258  13.396
64854W        W35454  34.324   7.018  10.886
64855W        W35455  25.590   8.493   3.107
64856W        W35456  30.151  18.089  11.117
64857W        W35457  18.475  18.781  10.587
64858W        W35458  40.327  24.980   4.245
64859W        W35459   4.788  23.526   4.735
64860W        W35460  43.506   1.699  12.704
64861W        W35461  43.360   4.541  11.934
64862W        W35462  42.494   2.793  12.031
64863W        W35463   9.768  34.391  13.109
64864W        W35464  12.212  29.110   3.160
64865W        W35465   3.123  21.399  13.568
64866W        W35466   2.449  18.052  12.452
64867W        W35467  24.974   1.840   1.703
64868W        W35468  29.554  15.019  14.463
64869W        W35469  15.677  38.328  14.607
64870W        W35470  22.200   7.352   4.145
64871W        W35471  18.993  11.686   0.434
64872W        W35472   2.779  14.701   3.660
64873W        W35473  15.484  21.534  11.027
64874W        W35474  26.256  26.129  12.545
64875W        W35475  24.780  39.091   2.323
64876W        W35476  41.222  13.577  14.091
64877W        W35477  30.385  32.771  11.580
64878W        W35478   3.254   3.211   5.123
64879W        W35479  17.308  20.684  11.153
64880W        W35480   0.432  11.326  11.148
64881W        W35481  16.082  40.339   4.887
64882W        W35482  20.927   5.705  13.606
64883W        W35483   1.549  38.872   4.171
64884W        W35484  19.061  13.697   3.245
64885W        W35485  28.266  10.800   3.588
64886W        W35486  15.100  27.837  11.185
64887W        W35487  10.798  30.549  10.625
64888W        W35488   4.831  25.225   1.718
64889W        W35489  11.616  16.819  14.933
64890W        W35490   1.868  33.136  13.248
64891W        W35491  32.995  40.962  12.137
64892W        W35492   9.248  12.249  11.359
64893W        W35493  18.338  29.260   1.285
64894W        W35494   2.284  28.565   3.259
64895W        W35495  25.699  29.187   4.691
64896W        W35496  14.565  36.312  12.652
64897W        W35497   2.321  35.600  14.854
64898W        W35498  33.167  20.392   0.906
64899W        W35499  38.042  10.526  11.273
64900W        W35500  10.148  19.302  12.018
64901W        W35501   7.185  38.485   1.263
64902W        W35502  20.238  38.052   4.200
64903W        W35503  33.885  22.931   4.091
64904W        W35504   0.850  26.427   2.281
64905W        W35505   9.641  13.620   4.397
64906W        W35506  25.314   9.282   9.789
64907W        W35507   7.973  17.565  11.853
64908W        W35508   7.822  33.006   2.285
64909W        W35509   2.705  16.342   4.098
64910W        W35510  17.065  29.279  10.216
64911W        W35511  12.716  37.299   2.359
64912W        W35512  10.654  34.700   2.851
64913W        W35513  34.198  21.456   1.325
64914W        W35514  41.311  26.304  12.803
64915W        W35515  38.492  31.078  11.878
64916W        W35516  40.318   8.749   0.708
64917W        W35517  42.300  22.660   1.118
64918W        W35518  18.378   3.032  10.875
64919W        W35519  27.606  21.776  13.797
64920W        W35520  13.137  14.132   9.869
64921W        W35521  34.425  18.700   2.347
64922W        W35522   0.762  10.726   4.927
64923W        W35523  18.158  16.523  11.910
64924W        W35524  18.671  24.512   0.640
64925W        W35525   9.360  25.050  10.697
64926W        W35526  38.587   4.289  10.691
64927W        W35527   2.974  11.760   0.410
64928W        W35528  25.598  40.459   2.412
64929W        W35529  35.846  21.141   2.364
64930W        W35530  21.351   0.905  10.815
64931W        W35531  41.475  43.963   3.964
64932W        W35532  17.199  16.199  11.638
64933W        W35533  17.491  17.177   2.822
64934W        W35534  23.793  27.243  11.176
64935W        W35535  31.355  11.308  13.341
64936W        W35536  21.688  22.962   0.447
64937W        W35537  40.857  13.188   0.798
64938W        W35538  12.341  10.292  10.723
64939W        W35539  29.376  19.311   2.829
64940W        W35540  27.970  10.213   4.201
64941W        W35541  22.832  24.126  11.127
64942W        W35542  40.079  23.674  12.449
64943W        W35543  38.312  15.601  14.549
64944W        W35544   1.056  27.968   2.718
64945W        W35545  43.474  32.882   0.991
64946W        W35546  10.597  20.268   4.450
64947W        W35547  14.851  44.586   4.175
64948W        W35548  21.895  41.097   1.120
64949W        W35549  41.179   1.694  10.935
64950W        W35550  36.730  35.056   2.102
64951W        W35551  34.442  14.833  12.158
64952W        W35552  40.579  13.787   3.233
64953W        W35553  34.116  14.759  13.535
64954W        W35554  29.922  29.954  11.654
64955W        W35555  23.097  11.885   4.547
64956W        W35556   3.483   3.047  11.617
64957W        W35557  19.027  19.632  12.032
64958W        W35558  30.649   5.302   3.271
64959W        W35559  13.601  37.267   2.142
64960W        W35560  42.532  18.122   1.460
64961W        W35561  25.925   9.663   4.079
64962W        W35562  35.881  31.411   0.478
64963W        W35563  42.530  13.241   0.871
64964W        W35564   2.100  34.380  14.656
64965W        W35565  21.935  26.566   3.674
64966W        W35566  27.118  36.513   2.896
64967W        W35567   5.990  14.099   1.982
64968W        W35568  32.567   6.294   0.288
64969W        W35569  14.826  40.359  13.118
64970W        W35570  17.539  24.597  13.256
64971W        W35571  31.055  43.149  10.100
64972W        W35572  35.904  36.656  10.473
64973W        W35573  41.680  44.214   4.855
64974W        W35574  40.410  28.673  10.620
64975W        W35575  34.653  10.157  10.302
64976W        W35576  34.841  21.663   3.638
64977W        W35577  38.093  30.547   3.251
64978W        W35578  43.019  27.749  13.376
64979W        W35579  43.902  16.587  14.849
64980W        W35580  11.598  43.494   0.406
64981W        W35581  18.574  11.764  10.336
64982W        W35582  33.047  22.297  14.807
64983W        W35583   0.707  19.556  13.266
64984W        W35584  28.111  42.014   1.658
64985W        W35585   5.161  37.392   4.573
64986W        W35586  22.705  26.352   2.790
64987W        W35587  26.858   5.869   4.128
64988W        W35588  33.598  39.503   3.209
64989W        W35589  31.402  12.624   3.713
64990W        W35590  15.027  22.706   4.225
64991W        W35591  34.517   2.704  11.612
64992W        W35592  21.365  33.123  12.095
64993W        W35593  42.637   3.719   2.040
64994W        W35594   3.818  42.476   2.795
64995W        W35595  17.372  15.880   0.204
64996W        W35596  34.744  24.220   4.964
64997W        W35597   1.138   6.857   2.736
64998W        W35598   7.313  12.844   3.323
64999W        W35599   1.309   0.996   1.837
65000W        W35600  25.941   1.437  13.276
65001W        W35601  14.167  23.760  13.911
65002W        W35602  21.233  27.185  14.926
65003W        W35603   0.781  36.750   4.862
65004W        W35604   2.823  30.467   1.453
65005W        W35605  16.341  20.517  14.925
65006W        W35606  28.659  11.630  12.669
65007W        W35607   9.702  17.449   3.745
65008W        W35608  11.466  11.430   1.221
65009W        W35609  41.272  29.124   2.719
65010W        W35610   6.323   1.388   3.383
65011W        W35611   6.450   6.680   3.104
65012W        W35612  34.655  16.645   2.437
65013W        W35613  35.495  32.130   1.869
65014W        W35614  42.472   2.829   3.660
65015W        W35615  30.497  31.458  12.400
65016W        W35616  23.666   0.768   5.161
65017W        W35617   3.972  30.760  13.105
65018W        W35618  43.656   2.507   0.318
65019W        W35619  34.327  24.193  13.086
65020W        W35620  31.453  34.525  14.456
65021W        W35621  33.217  29.202  12.452
65022W        W35622  44.242  43.223   1.805
65023W        W35623   0.798  21.908  12.094
65024W        W35624  23.901  14.897  12.700
65025W        W35625  12.326  28.395  11.132
65026W        W35626  43.464  19.026  14.405
65027W        W35627  35.273  19.821  13.985
65028W        W35628  28.283  11.003  11.861
65029W        W35629  42.595  31.201  12.904
65030W        W35630  11.642  38.006   3.450
65031W        W35631   7.438  22.480   2.823
65032W        W35632  14.837  37.995  12.030
65033W        W35633   8.649  36.896  12.366
65034W        W35634  30.496  19.151   4.330
65035W        W35635  10.394  10.341   1.835
65036W        W35636  27.984  18.042  12.522
65037W        W35637  28.160  32.604   2.267
65038W        W35638  33.464  37.281   2.573
65039W        W35639  27.541  15.881   5.043
65040W        W35640  39.313  32.106  10.483
65041W        W35641  36.812   6.097   2.408
65042W        W35642  43.029   6.786   1.747
65043W        W35643   1.893   0.252  12.944
65044W        W35644   3.263  21.263  11.579
65045W        W35645  14.114  30.940  13.375
65046W        W35646  32.472  37.663  13.959
65047W        W35647  18.093  38.809  11.633
65048W        W35648  26.530   4.856  14.810
65049W        W35649   9.066  19.150  11.434
65050W        W35650   1.854  41.938   1.032
65051W        W35651   9.444  33.456   4.117
65052W        W35652  30.034  25.022  12.607
65053W        W35653  44.547   6.831  12.038
65054W        W35654  43.413  30.527   3.748
65055W        W35655   3.380   5.875   9.995
65056W        W35656  21.108   0.646  12.542
65057W        W35657   9.921   9.621   2.971
65058W        W35658  22.120  23.338  14.570
65059W        W35659  37.878  44.316   4.680
65060W        W35660   7.438  15.374  13.848
65061W        W35661   9.923  28.957   1.229
65062W        W35662   5.863   6.911   2.082
65063W        W35663   6.948   5.408  13.053
65064W        W35664  20.683  21.316  14.007
65065W        W35665  10.951  40.588  13.421
65066W        W35666   8.838  31.112  10.744
65067W        W35667   2.187  20.618  13.889
65068W        W35668   6.124  26.681   3.274
65069W        W35669  28.437   7.533  11.879
65070W        W35670   3.895  16.689  12.572
65071W        W35671  30.550  23.315   4.657
65072W        W35672  40.982  44.603   3.588
65073W        W35673   5.079  12.860   2.326
65074W        W35674  33.844  32.232  10.229
65075W        W35675  13.895  10.783   1.493
65076W        W35676  42.345  11.438   3.639
65077W        W35677   1.020  21.278   5.194
65078W        W35678  26.919  21.631  12.872
65079W        W35679  26.091  43.492  11.128
65080W        W35680  28.136  37.050   0.712
65081W        W35681  10.861   8.155  11.462
65082W        W35682  34.601  12.711  10.734
65083W        W35683  20.472  33.227   1.344
65084W        W35684   2.805  41.533   4.638
65085W        W35685   0.513   3.415   3.650
65086W        W35686  17.013  10.148  13.582
65087W        W35687  40.693  37.786   2.823
65088W        W35688  41.960   4.437   0.083
65089W        W35689  14.093  39.875  10.922
65090W        W35690  25.701  22.039   0.344
65091W        W35691  36.031  19.825   5.054
65092W        W35692  31.731  39.118  11.195
65093W        W35693   2.837   5.512  12.549
65094W        W35694   4.402  22.526  13.620
65095W        W35695  34.419  31.499  10.772
65096W        W35696  43.854  22.495  13.994
65097W        W35697  41.092  25.523   2.919
65098W        W35698  34.703  29.020   4.095
65099W        W35699  33.643   1.776   0.209
65100W        W35700  40.313   8.475  12.457
65101W        W35701  34.023   7.231  12.199
65102W        W35702   9.605  35.664  12.215
65103W        W35703  42.498  24.870  11.136
65104W        W35704   3.898  17.714   0.242
65105W        W35705  25.629  40.733   1.768
65106W        W35706  43.210  11.262   0.337
65107W        W35707  41.446  35.841   3.101
65108W        W35708  27.633   7.688  12.492
65109W        W35709  11.122  35.043  12.880
65110W        W35710  24.395  33.278  14.014
65111W        W35711  30.909  37.096  10.661
65112W        W35712  33.841  24.280  12.966
65113W        W35713  31.246  20.568   1.828
65114W        W35714  35.951  38.266  13.062
65115W        W35715  18.214   8.418   4.722
65116W        W35716   5.372  35.296  10.829
65117W        W35717   5.711  34.018   3.945
65118W        W35718  24.263  26.230   1.762
65119W        W35719  31.325   9.682  11.172
65120W        W35720  26.441  22.290   1.135
65121W        W35721  39.836  40.970  12.376
65122W        W35722  44.810  39.364  14.884
65123W        W35723  12.534  10.127   4.511
65124W        W35724  10.738  15.788   3.732
65125W        W35725  44.030   2.829   4.131
65126W        W35726  43.537  34.512   3.766
65127W        W35727  39.566  43.434   3.314
65128W        W35728  22.732  41.839   1.844
65129W        W35729  38.900  23.768  10.276
65130W        W35730  12.287  20.160   0.441
65131W        W35731  28.524  41.297   0.546
65132W        W35732   8.284  29.689   3.278
65133W        W35733  15.128  19.044   4.860
65134W        W35734  25.491  38.741   0.383
65135W        W35735  18.207  14.577   1.914
65136W        W35736   7.143   5.173   0.444
65137W        W35737  39.657  35.858  13.814
65138W        W35738   3.479  29.526   0.917
65139W        W35739   5.660  14.729   4.667
65140W        W35740   0.220  10.486   3.757
65141W        W35741   6.365   4.262   0.262
65142W        W35742  32.171  25.086   1.985
65143W        W35743   6.171  14.658   4.722
65144W        W35744  36.167  43.568   2.975
65145W        W35745  14.946  19.157  12.240
65146W        W35746  19.998   1.383   2.661
65147W        W35747  43.539  41.466   0.826
65148W        W35748  38.112   4.395  14.564
65149W        W35749  14.823  23.826   0.875
65150W        W35750  17.370  28.626   2.028
65151W        W35751   3.072  16.451   0.504
65152W        W35752  26.543  38.765  10.001
65153W        W35753  20.110  43.331  14.327
65154W        W35754   1.903  26.893   1.085
65155W        W35755  40.521   1.868  14.587
65156W        W35756  22.674  33.014   2.854
65157W        W35757  25.093  36.982   4.477
65158W        W35758  12.267  25.220   4.440
65159W        W35759  44.759  21.061  12.411
65160W        W35760  23.247  10.374  14.462
65161W        W35761  23.082  22.608   4.662
65162W        W35762  25.967  13.558   3.762
65163W        W35763   7.413  31.983   2.257
65164W        W35764  21.109  36.843   3.197
65165W        W35765  36.527   9.119  13.028
65166W        W35766  20.468  12.046  11.937
65167W        W35767  12.203   7.138  13.842
65168W        W35768   0.289  13.085  12.495
65169W        W35769  16.085  26.167  14.533
65170W        W35770  33.288   3.068   2.675
65171W        W35771  22.656   0.753  12.130
65172W        W35772  40.070   3.290   3.377
65173W        W35773  30.082  25.484  14.401
65174W        W35774  42.971  31.184  11.565
65175W        W35775  22.881  20.722  11.954
65176W        W35776  18.298  42.092  14.467
65177W        W35777  20.080  25.210   2.402
65178W        W35778  38.840   0.305   2.795
65179W        W35779  14.680  15.810  10.793
65180W        W35780  22.517  28.589  11.362
65181W        W35781   9.570  21.118  13.099
65182W        W35782  42.037  11.765  12.085
65183W        W35783  15.176  22.042   0.814
65184W        W35784  40.889  26.984  11.952
65185W        W35785  40.408   3.632  11.255
65186W        W35786  29.046  27.568  11.968
65187W        W35787  26.547   4.314   3.467
65188W        W35788  32.440  43.612   3.659
65189W        W35789  27.610  15.522  14.827
65190W        W35790  29.940  31.444   0.251
65191W        W35791  15.719  43.378  14.873
65192W        W35792  10.257  33.568   2.255
65193W        W35793  21.002   4.900   3.328
65194W        W35794  32.996  44.254  12.398
65195W        W35795  34.542  32.003  11.899
65196W        W35796  25.452  20.755   0.856
65197W        W35797  11.776  20.615  12.880
65198W        W35798  10.921  13.793   1.914
65199W        W35799   3.989  24.494  14.386
65200W        W35800  11.231  28.207  14.929
65201W        W35801  28.456  40.532  12.631
65202W        W35802  22.540  22.176   3.642
65203W        W35803  44.927  18.083  14.767
65204W        W35804  26.453  42.343  12.981
65205W        W35805  28.286  36.399   2.919
65206W        W35806  13.179  35.814  10.432
65207W        W35807   8.129  32.994   4.187
65208W        W35808  35.496  23.754   1.850
65209W        W35809   3.378  31.951  14.800
65210W        W35810  20.619  17.842   3.078
65211W        W35811  31.514   7.433   0.430
65212W        W35812  19.598  38.491  12.055
65213W        W35813  33.971   4.892   3.784
65214W        W35814   8.372   7.343   1.858
65215W        W35815  35.316  38.596  10.706
65216W        W35816   5.822  36.471   4.891
65217W        W35817  18.069  12.136  11.379
65218W        W35818  22.957  28.584  10.810
65219W        W35819   0.473  10.225   0.669
65220W        W35820  26.183  21.832  11.562
65221W        W35821  31.359  41.530   2.885
65222W        W35822  26.225   1.715  12.513
65223W        W35823  15.299  26.089   3.089
65224W        W35824  33.591  43.011   4.111
65225W        W35825  22.496   0.553   0.869
65226W        W35826  30.060   8.081   1.369
65227W        W35827  17.625  24.476  10.529
65228W        W35828  26.432  19.722   1.783
65229W        W35829  41.598  16.802   2.746
65230W        W35830  18.621  41.476  11.723
65231W        W35831  36.562  13.281  14.605
65232W        W35832  16.124  33.882  13.279
65233W        W35833  17.331  20.764   4.404
65234W        W35834  19.761   6.809   4.781
65235W        W35835  16.570  14.480  11.965
65236W        W35836  43.183  18.707  10.430
65237W        W35837  19.336  25.959  14.492
65238W        W35838  44.850  15.297   1.280
65239W        W35839  26.550  44.285   0.433
65240W        W35840  24.691  35.051  13.555
65241W        W35841   9.902  42.991  14.448
65242W        W35842  27.544   7.173  14.868
65243W        W35843   6.391  26.182   1.375
65244W        W35844  17.088  31.757  12.861
65245W        W35845  15.138  40.673   2.497
65246W        W35846  34.572  16.745  12.880
65247W        W35847   2.648  40.098  10.949
65248W        W35848   7.615  16.317  11.595
65249W        W35849   9.572  21.462  14.318
65250W        W35850   1.015  14.911  11.372
65251W        W35851  24.265  21.345   1.389
65252W        W35852  37.138  37.092   0.457
65253W        W35853  33.297  17.632  14.454
65254W        W35854   1.509   1.272   4.557
65255W        W35855  24.646  34.179   1.321
65256W        W35856   0.975  24.607  13.035
65257W        W35857  27.743   0.939  14.075
65258W        W35858  22.573  38.520  11.038
65259W        W35859  26.488  16.041  12.141
65260W        W35860  18.018  41.995  12.107
65261W        W35861  12.875  11.407  12.877
65262W        W35862  24.564  16.118  11.003
65263W        W35863  13.798  23.920  11.302
65264W        W35864  11.763  29.965   3.371
65265W        W35865  28.013   2.761   2.738
65266W        W35866  14.293  31.492   0.705
65267W        W35867  37.831  15.218  14.094
65268W        W35868  26.544  37.666  11.140
65269W        W35869  24.124  35.219   3.411
65270W        W35870  12.049  42.748   3.604
65271W        W35871  41.194  42.259  14.873
65272W        W35872  41.899  13.237  10.922
65273W        W35873   2.337  15.404  10.699
65274W        W35874  41.469   8.734   3.662
65275W        W35875  19.592   5.384  12.002
65276W        W35876  21.113  10.278   3.899
65277W        W35877  14.349   5.840   3.448
65278W        W35878  32.418  22.102  14.269
65279W        W35879   5.279  40.581  10.979
65280W        W35880   9.842  23.952  10.313
65281W        W35881  33.238  37.992   0.534
65282W        W35882  34.111  10.495   1.185
65283W        W35883   3.643   1.893   1.299
65284W        W35884  17.591  35.836  14.888
65285W        W35885   1.809  38.821   0.794
65286W        W35886  17.774   0.777  11.519
65287W        W35887   9.755  37.008   2.906
65288W        W35888  25.950  41.924  14.513
65289W        W35889   2.521  13.134   2.605
65290W        W35890  17.559  30.162   2.773
65291W        W35891  25.570   3.644  10.473
65292W        W35892   3.518  22.978  14.474
65293W        W35893  34.859  40.259   3.178
65294W        W35894  33.215  32.099   1.197
65295W        W35895  13.110  37.143   2.087
65296W        W35896  33.462   0.959  13.825
65297W        W35897  24.622  41.178   3.171
65298W        W35898  39.822  12.207   2.121
65299W        W35899  25.885  35.840   2.812
65300W        W35900  28.173  43.034   1.266
65301W        W35901  20.607  16.634   0.323
65302W        W35902   4.397  10.426  10.676
65303W        W35903   8.088  21.507   1.304
65304W        W35904  21.815  34.084  13.795
65305W        W35905  35.522  35.141   2.738
65306W        W35906   6.794  31.275  14.433
65307W        W35907  34.513  19.482   0.030
65308W        W35908  22.671  17.149  12.008
65309W        W35909  37.494  23.183  10.939
65310W        W35910   8.385   3.256  12.641
65311W        W35911  28.875  40.571   3.695
65312W        W35912  20.794  32.745  14.174
65313W        W35913   7.290  42.364  12.059
65314W        W35914  26.235  19.230  12.996
65315W        W35915  33.574   0.195  13.364
65316W        W35916  20.517  10.257  14.941
65317W        W35917   3.242  23.210   0.930
65318W        W35918  38.409  20.637  14.130
65319W        W35919  34.448  35.888   0.732
65320W        W35920  13.534  13.668   1.233
65321W        W35921  16.568  11.474   2.860
65322W        W35922  20.610  37.614  13.895
65323W        W35923   4.240  13.697   3.619
65324W        W35924  17.451  37.888  10.629
65325W        W35925   2.207  27.966  10.418
65326W        W35926  36.656   9.144   1.173
65327W        W35927  15.363  23.873   3.641
65328W        W35928   6.467  32.949  13.036
65329W        W35929  28.555  28.859  10.393
65330W        W35930  31.107  11.942   1.169
65331W        W35931   4.628  25.983  11.204
65332W        W35932  26.682  39.875   1.784
65333W        W35933   0.830  44.682  12.594
65334W        W35934   3.746  31.871   1.901
65335W        W35935  20.502  39.337  11.639
65336W        W35936  16.196  40.368  11.109
65337W        W35937  18.833   2.253  11.185
65338W        W35938  30.703   3.961   0.618
65339W        W35939  34.448  42.327  13.259
65340W        W35940  15.794  10.942  10.179
65341W        W35941  33.321  32.282  11.503
65342W        W35942   0.756  44.721   1.549
65343W        W35943  23.601  44.960  11.472
65344W        W35944   1.664   9.774   1.913
65345W        W35945   7.001   3.132  12.069
65346W        W35946   7.521  26.004  12.411
65347W        W35947   8.914  19.643   1.357
65348W        W35948   7.574  41.942  12.029
65349W        W35949  10.525  32.950   4.190
65350W        W35950  31.508   0.552  14.088
65351W        W35951  13.873   6.636   0.389
65352W        W35952  32.077  32.129   3.449
65353W        W35953   6.957  37.685   2.136
65354W        W35954  11.274   4.224   1.050
65355W        W35955  41.557   5.039  13.142
65356W        W35956   6.225  22.156  13.383
65357W        W35957   6.969  16.098   1.923
65358W        W35958  29.099   7.981  13.513
65359W        W35959  21.600  34.986  12.055
65360W        W35960  17.189  37.830  13.869
65361W        W35961  33.642   8.594   0.882
65362W        W35962  19.276  16.732   0.764
65363W        W35963  44.545  26.054  12.851
65364W        W35964  23.696  40.705  10.745
65365W        W35965   9.950  19.180  13.059
65366W        W35966  22.706  13.090  10.570
65367W        W35967  25.791  11.227   0.537
65368W        W35968  33.344  29.976  13.650
65369W        W35969  36.408  27.064   1.658
65370W        W35970  43.887   3.308   1.831
65371W        W35971   9.454   1.338   1.659
65372W        W35972  39.527  32.354   0.362
65373W        W35973  31.602  26.317   3.977
65374W        W35974  39.632  25.116   0.431
65375W        W35975   5.174  17.920  14.014
65376W        W35976  37.087  41.447   2.766
65377W        W35977   6.451  38.438  14.986
65378W        W35978  31.431   8.368   1.225
65379W        W35979   4.732  30.553   4.593
65380W        W35980  27.270  26.078  12.454
65381W        W35981  36.868  29.478   2.668
65382W        W35982  15.634  25.006  14.295
65383W        W35983  23.542  21.814  11.076
65384W        W35984  24.158  31.226  12.843
65385W        W35985   4.857   2.853  12.239
65386W        W35986  34.444  21.299  12.461
65387W        W35987   7.215  13.878  14.371
65388W        W35988  17.680  22.512  12.529
65389W        W35989  19.771  21.177   3.682
65390W        W35990  32.757   3.936  12.893
65391W        W35991  24.558  21.344   2.719
65392W        W35992  24.748  31.882  12.872
65393W        W35993  18.620  20.275   4.711
65394W        W35994  31.981  36.378   2.075
65395W        W35995  27.392  37.613   2.308
65396W        W35996   5.285  11.695   2.939
65397W        W35997  31.873  22.509   2.234
65398W        W35998  22.122   0.700   1.907
65399W        W35999  12.400  35.171  14.067
65400W        W36000   9.805  33.586  13.793
65401W        W36001  40.133   8.332  12.932
65402W        W36002  20.926  18.762   3.423
65403W        W36003  16.330  19.938   2.781
65404W        W36004  17.273  22.710  12.803
65405W        W36005   1.451  26.959  14.979
65406W        W36006  13.852  29.895  11.152
65407W        W36007  39.800  28.033  10.382
65408W        W36008  42.350   0.643  11.878
65409W        W36009  38.801   9.278  11.852
65410W        W36010  34.532  19.244   0.502
65411W        W36011  33.111  33.277   4.288
65412W        W36012   3.925  17.258  13.264
65413W        W36013  17.232  27.486   2.649
65414W        W36014  13.296  31.226   2.611
65415W        W36015  37.040   6.750  12.671
65416W        W36016   2.615  13.248  13.453
65417W        W36017  27.765  40.103   0.776
65418W        W36018  32.087  26.646   3.140
65419W        W36019   8.138  13.560   2.783
65420W        W36020  19.492   3.501  13.503
65421W        W36021  40.038  28.461  14.848
65422W        W36022   3.689   9.695  11.168
65423W        W36023  11.854  17.982   1.945
65424W        W36024  18.329  31.888   4.215
65425W        W36025  30.950   7.137  11.214
65426W        W36026   2.275  22.947  10.493
65427W        W36027  22.487  29.146   4.259
65428W        W36028   6.424  25.733   2.172
65429W        W36029  44.351  32.088  13.984
65430W        W36030  42.879  30.809   2.246
65431W        W36031  42.078   8.232   3.557
65432W        W36032  18.165  14.570   2.809
65433W        W36033  38.456   7.295  13.548
65434W        W36034  19.003  26.423   3.166
65435W        W36035  23.516  22.025   3.942
65436W        W36036  15.812  18.716   2.402
65437W        W36037  43.924   0.906  13.017
65438W        W36038  37.445  16.547   3.406
65439W        W36039  27.040  12.833   2.869
65440W        W36040  43.552  26.342  11.249
65441W        W36041  25.997   1.619  11.992
65442W        W36042  11.475  35.867  11.098
65443W        W36043   2.500  17.168   1.915
65444W        W36044  19.175  27.952   1.426
65445W        W36045  16.446  24.380  12.131
65446W        W36046  20.932  34.288   2.809
65447W        W36047  15.110  24.447   1.796
65448W        W36048  11.859  13.206   3.174
65449W        W36049  40.996   7.177   0.406
65450W        W36050  42.110  24.003  13.460
65451W        W36051  43.017   0.700   3.652
65452W        W36052  43.903  37.493  11.377
65453W        W36053  33.587  13.284  11.587
65454W        W36054  17.986  12.078  10.895
65455W        W36055   5.892  29.445   3.614
65456W        W36056  25.594  42.487  14.870
65457W        W36057  14.271  40.999  12.229
65458W        W36058  30.361  23.912  10.860
65459W        W36059  37.778   8.641  11.497
65460W        W36060   9.124  15.798   2.406
65461W        W36061  22.182  22.690   2.169
65462W        W36062  42.461   3.666   0.196
65463W        W36063  16.320  42.873  14.366
65464W        W36064  25.399   6.952   3.321
65465W        W36065  44.944   6.631   1.449
65466W        W36066   1.790   0.840  14.601
65467W        W36067  21.570   5.205  11.833
65468W        W36068  31.460   1.568   0.236
65469W        W36069  22.824   4.711  11.594
65470W        W36070  36.150  19.171   0.246
65471W        W36071  34.923   1.837  14.791
65472W        W36072   1.166  33.084  11.669
65473W        W36073   6.293  40.496  13.277
65474W        W36074   1.946   8.570  13.916
65475W        W36075  38.700  10.849   1.443
65476W        W36076   3.773  11.109   4.644
65477W        W36077  33.349  20.704  11.178
65478W        W36078  25.100  35.498   2.753
65479W        W36079  41.254  37.248   3.643
65480W        W36080  14.773  26.489   3.232
65481W        W36081   4.027  31.172   2.645
65482W        W36082   1.765  32.991   4.756
65483W        W36083  23.249  39.371  12.631
65484W        W36084  29.917  31.898   2.623
65485W        W36085  41.580  31.602   0.412
65486W        W36086  30.569  19.129   3.235
65487W        W36087  18.813   1.156  12.140
65488W        W36088  28.137  32.550  11.476
65489W        W36089  32.308   8.305  12.489
65490W        W36090  12.381   6.936   1.322
65491W        W36091  44.474  16.269   0.798
65492W        W36092  42.316  36.080  11.089
65493W        W36093  23.180  13.630   4.595
65494W        W36094  16.945  33.309  10.492
65495W        W36095  24.116  11.841  10.966
65496W        W36096  38.150  19.779   4.153
65497W        W36097  39.468  38.533  12.919
65498W        W36098   2.845  25.425   3.302
65499W        W36099  28.946  38.787   3.139
65500W        W36100  13.391  37.125  12.436
65501W        W36101  25.513  15.999   4.544
65502W        W36102  40.957  20.683  12.476
65503W        W36103  29.672  39.447  12.279
65504W        W36104  33.952  11.969   3.702
65505W        W36105  11.260  24.696   1.359
65506W        W36106  33.108  17.807  14.015
65507W        W36107   3.441  38.074  13.978
65508W        W36108  31.622  39.310  14.976
65509W        W36109  14.064  33.000  11.804
65510W        W36110  42.742  39.810   0.405
65511W        W36111  30.548  11.584   0.001
65512W        W36112   0.524   8.691  12.982
65513W        W36113  18.327  43.475  14.075
65514W        W36114  42.114  30.424  12.640
65515W        W36115  39.826  40.523  11.571
65516W        W36116  24.284  33.831  14.852
65517W        W36117  24.877  29.479   4.410
65518W        W36118  39.796  25.997   2.229
65519W        W36119  33.965  10.613  13.416
65520W        W36120  24.950  17.039  12.988
65521W        W36121  38.854  14.423  14.958
65522W        W36122  38.293  31.295  10.892
65523W        W36123  14.161  21.520   1.828
65524W        W36124   3.405  21.544   4.217
65525W        W36125  28.486  36.898  14.724
65526W        W36126   4.486   8.061  12.064
65527W        W36127  13.139   6.131  10.756
65528W        W36128  37.882  16.563  14.483
65529W        W36129  14.594  42.911   3.663
65530W        W36130   7.815  40.829   2.283
65531W        W36131  30.137   0.649  12.082
65532W        W36132  23.686   1.859   0.681
65533W        W36133   9.377  21.196  12.167
65534W        W36134  12.886  27.321  12.144
65535W        W36135   3.229  17.186   1.457
65536W        W36136  21.479  19.046  14.411
65537W        W36137  35.952  42.531   1.349
65538W        W36138  10.840  16.281  12.357
65539W        W36139  29.443  28.505   3.982
65540W        W36140  24.661   9.133  10.652
65541W        W36141  15.181  13.225  12.862
65542W        W36142  41.574   6.978  13.782
65543W        W36143   9.724  25.027   2.134
65544W        W36144   6.636  24.617   3.606
65545W        W36145  31.906  37.141   1.474
65546W        W36146  16.243   8.618   0.135
65547W        W36147  32.018  33.390  13.845
65548W        W36148  17.672  31.933  14.013
65549W        W36149  27.832  40.463   2.528
65550W        W36150  40.069  16.891   1.527
65551W        W36151  22.417  36.940   1.869
65552W        W36152  37.536  31.812   0.848
65553W        W36153  41.260  13.819   0.226
65554W        W36154   6.196  17.141  14.544
65555W        W36155  15.098   6.162  13.785
65556W        W36156  34.393   9.159   4.873
65557W        W36157   6.180  17.664  13.377
65558W        W36158   4.916  40.109  14.121
65559W        W36159  34.846  18.315   4.141
65560W        W36160   6.739  38.531  11.621
65561W        W36161  33.995  35.898  14.876
65562W        W36162  42.052  16.883   4.192
65563W        W36163  20.919  44.075  14.536
65564W        W36164  43.315  42.340  12.065
65565W        W36165  10.848  24.489   2.553
65566W        W36166   1.323  35.925   2.674
65567W        W36167   0.888  25.422  11.652
65568W        W36168  32.611   1.268   3.502
65569W        W36169  28.244  11.831   4.675
65570W        W36170  11.593  44.907  14.499
65571W        W36171  19.303  32.141  11.134
65572W        W36172  14.825  11.089   1.825
65573W        W36173  34.854  38.375  10.615
65574W        W36174  39.880  32.417  12.360
65575W        W36175  35.378  44.068   3.635
65576W        W36176   9.802   5.072   4.844
65577W        W36177  32.115  29.979  13.851
65578W        W36178  43.442  24.748   0.308
65579W        W36179  35.216  13.756  11.105
65580W        W36180  26.093   0.175   0.378
65581W        W36181   6.850   8.941  13.412
65582W        W36182  31.854  19.109   0.956
65583W        W36183   9.876  41.666  13.966
65584W        W36184  43.453   0.863   4.512
65585W        W36185  37.953  30.317  11.250
65586W        W36186  28.202  13.773   4.062
65587W        W36187  35.483  40.909   4.186
65588W        W36188   0.274  14.620   4.852
65589W        W36189  25.956  22.274  11.353
65590W        W36190  42.290  16.701  13.836
65591W        W36191  13.948   8.677  11.719
65592W        W36192  21.559   6.340  13.777
65593W        W36193  12.518  19.800  12.294
65594W        W36194   9.870  25.515   3.273
65595W        W36195   4.578  37.655  10.217
65596W        W36196  26.664  35.883  11.537
65597W        W36197  18.637  36.342   4.610
65598W        W36198  41.058  24.557   0.498
65599W        W36199  21.133  17.938  13.469
65600W        W36200  43.453  31.386  11.637
65601W        W36201  20.087  39.617  13.971
65602W        W36202  11.323  11.708  13.029
65603W        W36203  11.701  15.882  12.065
65604W        W36204  42.304  23.757   0.298
65605W        W36205  22.927  30.453   0.756
65606W        W36206  23.539  17.732   3.669
65607W        W36207  41.456  15.061  14.447
65608W        W36208  40.623  35.535  13.698
65609W        W36209  35.995   4.831   2.816
65610W        W36210   3.871  17.799   1.421
65611W        W36211  20.191   1.679  11.573
65612W        W36212  26.922  16.207   2.407
65613W        W36213  40.289  31.257   4.297
65614W        W36214  23.875  27.032  13.952
65615W        W36215   3.998  37.953  14.815
65616W        W36216  28.161   7.269   2.392
65617W        W36217  11.680   6.891   3.353
65618W        W36218  44.999  40.797   1.149
65619W        W36219  25.145  36.639   2.202
65620W        W36220  18.595   5.625   4.708
65621W        W36221  22.389  37.491   4.920
65622W        W36222   7.321  44.935   3.684
65623W        W36223  40.076   6.193  14.381
65624W        W36224   7.850  10.682  12.319
65625W        W36225  42.422   8.100  14.938
65626W        W36226  33.039   6.957  13.948
65627W        W36227  10.353   1.403  11.134
65628W        W36228  26.227  26.554  11.078
65629W        W36229  23.170   8.101   2.624
65630W        W36230  16.613  44.246   3.903
65631W        W36231  36.045   4.014  10.781
65632W        W36232  33.610  39.269   9.776
65633W        W36233   9.380  42.541   2.894
65634W        W36234   0.399  24.938   2.384
65635W        W36235  18.529   4.037  10.745
65636W        W36236  43.172  19.753  13.841
65637W        W36237  35.823  31.807   2.678
65638W        W36238  31.549  39.685  14.595
65639W        W36239   2.958  34.436  13.848
65640W        W36240  21.535  37.373  14.161
65641W        W36241  17.998  39.975  12.630
65642W        W36242  26.098   6.921  11.597
65643W        W36243  27.828  42.263  10.835
65644W        W36244  25.486  29.084   4.237
65645W        W36245  31.908  37.428   4.539
65646W        W36246  36.906  38.342   0.585
65647W        W36247  23.184   1.046  14.779
65648W        W36248   9.659  34.993  13.874
65649W        W36249  16.135  39.027  11.913
65650W        W36250   9.002  33.401   1.755
65651W        W36251  13.821  35.166   0.875
65652W        W36252  30.315  20.716  14.906
65653W        W36253  15.120   5.699  11.466
65654W        W36254   2.744  22.647   3.795
65655W        W36255  20.118  37.409   4.173
65656W        W36256  23.172  27.504   2.318
65657W        W36257  30.676   0.244   4.338
65658W        W36258   9.313  23.010   3.711
65659W        W36259  40.801   8.962   0.033
65660W        W36260  29.057  23.158   0.766
65661W        W36261  35.639  42.793   0.226
65662W        W36262  40.347  21.732   1.163
65663W        W36263  44.830  34.989  13.166
65664W        W36264  24.223  38.399   2.750
65665W        W36265  19.700   4.301   0.460
65666W        W36266  31.336  37.089  12.624
65667W        W36267  12.401  15.599  14.853
65668W        W36268  18.772  38.145   4.160
65669W        W36269  44.824   2.262   0.167
65670W        W36270   4.290   0.526   3.048
65671W        W36271  12.656  41.986  13.723
65672W        W36272  28.622  27.052  10.432
65673W        W36273   1.935  29.014   4.571
65674W        W36274  39.903  42.799  12.039
65675W        W36275   0.742  10.063   5.122
65676W        W36276   7.423  13.284   2.351
65677W        W36277  29.828   7.239  13.532
65678W        W36278   7.649  19.174  11.604
65679W        W36279  33.169   6.766   3.729
65680W        W36280  42.096  10.944   0.968
65681W        W36281  13.145  21.754  14.429
65682W        W36282   5.187  39.279  13.965
65683W        W36283  37.785  20.253  13.073
65684W        W36284  24.147  16.024   3.691
65685W        W36285  37.859  21.240  11.187
65686W        W36286  33.611  13.606  11.987
65687W        W36287  13.256  28.502  13.515
65688W        W36288  29.113  44.530  10.506
65689W        W36289  12.271  30.038   3.244
65690W        W36290  31.592  27.414   3.261
65691W        W36291   6.913  27.656   4.578
65692W        W36292  42.274   0.545   2.426
65693W        W36293  34.375   5.413   1.425
65694W        W36294   8.642  43.243   1.917
65695W        W36295  12.285  39.228   0.922
65696W        W36296  21.471  21.295   3.699
65697W        W36297  39.359  44.325  11.545
65698W        W36298  11.060   6.703   2.781
65699W        W36299  18.251  11.843  12.629
65700W        W36300  42.892  18.116   2.733
65701W        W36301   9.147  41.567   2.776
65702W        W36302  17.575  29.958   5.039
65703W        W36303   0.705  31.130   1.431
65704W        W36304  32.375  38.797   4.936
65705W        W36305   7.849  15.048   4.125
65706W        W36306  27.342   3.991   1.669
65707W        W36307   5.305   6.128  12.122
65708W        W36308  41.045   8.670  13.549
65709W        W36309  21.409   5.610  13.811
65710W        W36310  30.416  11.044  11.726
65711W        W36311  27.536  14.651  13.932
65712W        W36312  29.113  15.138   1.804
65713W        W36313  38.532   4.213  13.374
65714W        W36314  18.565  22.550  12.014
65715W        W36315   3.824  42.359  11.994
65716W        W36316  10.208  26.778   5.114
65717W        W36317  43.099  38.567   3.487
65718W        W36318  38.387   3.312   1.229
65719W        W36319  15.024  35.067  12.051
65720W        W36320  28.603  40.719  14.046
65721W        W36321  13.087   4.465  14.962
65722W        W36322  25.839  43.775  10.332
65723W        W36323   3.174  12.757  11.713
65724W        W36324  33.658   4.362   4.140
65725W        W36325  11.305  21.564  10.613
65726W        W36326   2.750  16.225   1.352
65727W        W36327  14.317   8.249  14.303
65728W        W36328  29.788  44.385  12.067
65729W        W36329  33.088  42.315   3.609
65730W        W36330   6.203   0.302   0.438
65731W        W36331  21.623   8.271   2.728
65732W        W36332   7.715  38.259  11.648
65733W        W36333   2.908  42.423   2.202
65734W        W36334  43.454  42.016  10.763
65735W        W36335  33.379   4.547  13.394
65736W        W36336  29.142  37.168   2.266
65737W        W36337  12.030  36.344   3.250
65738W        W36338  25.571   3.970  14.543
65739W        W36339  10.208   7.274  10.639
65740W        W36340  41.007  28.262  12.561
65741W        W36341  34.463  17.778   1.376
65742W        W36342  19.925  33.244  11.876
65743W        W36343  15.211  36.875   2.431
65744W        W36344   3.986  22.551  12.812
65745W        W36345  35.271  39.987   0.241
65746W        W36346  43.849  28.981  14.368
65747W        W36347  27.498  28.414  14.820
65748W        W36348  44.807   8.153  12.353
65749W        W36349  16.125  33.687  13.753
65750W        W36350   8.239  18.617   1.316
65751W        W36351  11.159  28.966  14.374
65752W        W36352  38.964  30.266   4.230
65753W        W36353   4.351  24.211  14.714
65754W        W36354  35.075  14.800   1.803
65755W        W36355  42.799  16.466  11.424
65756W        W36356  21.021  10.841  11.457
65757W        W36357   3.214  35.520  11.175
65758W        W36358  43.345  24.532  11.558
65759W        W36359   9.774  37.838   3.243
65760W        W36360  32.515  28.009  10.870
65761W        W36361  26.740   6.611  14.825
65762W        W36362  20.155  13.692   1.787
65763W        W36363  42.936  23.387  10.196
65764W        W36364  28.679  27.901  12.072
65765W        W36365  37.868  31.671  10.760
65766W        W36366  37.765   6.788  12.084
65767W        W36367  43.506   8.420   3.726
65768W        W36368  23.068  26.243  14.357
65769W        W36369  30.791  31.534   2.784
65770W        W36370  19.665   5.676   4.048
65771W        W36371  31.530   1.314  13.397
65772W        W36372   7.856  41.419   0.310
65773W        W36373  31.444  41.406   4.709
65774W        W36374   0.429   0.289  14.006
65775W        W36375   8.675  22.105  12.545
65776W        W36376  13.676  31.944  14.133
65777W        W36377   8.395  10.362   0.501
65778W        W36378  16.818  31.735   2.307
65779W        W36379  18.318  20.610  11.172
65780W        W36380  12.139   7.997  11.846
65781W        W36381  30.747  43.071  13.449
65782W        W36382   9.868   2.584   1.390
65783W        W36383  15.682  11.679  13.459
65784W        W36384   7.998  20.101   4.062
65785W        W36385  41.794   6.131  13.812
65786W        W36386  38.109  29.718   4.568
65787W        W36387  15.543  25.445   4.426
65788W        W36388   9.065  38.506  14.234
65789W        W36389  41.116  18.202   4.360
65790W        W36390   1.528  16.592   0.196
65791W        W36391  12.104   1.069   2.410
65792W        W36392  13.145  36.815  10.997
65793W        W36393  32.774  27.537   2.130
65794W        W36394   3.882   8.225  10.604
65795W        W36395  28.015  25.754  10.588
65796W        W36396  41.277  25.950   2.107
65797W        W36397   7.356  11.440  12.601
65798W        W36398  30.572  41.491  12.255
65799W        W36399  30.852  22.681   3.829
65800W        W36400  25.890  32.418   0.540
65801W        W36401  27.711  24.913  14.425
65802W        W36402  31.830  30.609   2.923
65803W        W36403  39.363  36.083   1.242
65804W        W36404  15.359  34.091   1.810
65805W        W36405   9.247  44.870   4.022
65806W        W36406  10.808  41.797  14.277
65807W        W36407  12.189   4.901  12.060
65808W        W36408  17.743  15.112  12.069
65809W        W36409  30.500  44.301  12.827
65810W        W36410  27.915   6.303   2.373
65811W        W36411  39.859  20.599   1.736
65812W        W36412  26.169  18.305  11.138
65813W        W36413  44.764   9.023  10.607
65814W        W36414  11.853  35.255  13.613
65815W        W36415  10.624  18.699   1.731
65816W        W36416  22.449   1.296   0.260
65817W        W36417  40.230  25.727   0.821
65818W        W36418  18.156   8.954  14.328
65819W        W36419  15.008  19.580   1.346
65820W        W36420   6.737  38.260  13.485
65821W        W36421  43.562   4.507   5.470
65822W        W36422  37.352   2.886  12.607
65823W        W36423   4.831  31.124  13.108
65824W        W36424  28.938  40.749   1.851
65825W        W36425  11.669  41.154  11.606
65826W        W36426  40.985  17.495  10.806
65827W        W36427  12.147  43.832  11.480
65828W        W36428  25.492  33.535   3.318
65829W        W36429  25.596  19.801   4.042
65830W        W36430   2.054  16.605   0.304
65831W        W36431  24.472  42.850  13.458
65832W        W36432  20.101  18.765   4.061
65833W        W36433  24.966  41.873   4.509
65834W        W36434  10.396  43.539   2.697
65835W        W36435  24.106  12.339   3.567
65836W        W36436  22.118  20.879  11.528
65837W        W36437  32.334  38.087  11.416
65838W        W36438   7.248  17.746  14.652
65839W        W36439  40.390  14.216  12.842
65840W        W36440   0.176  27.046  14.944
65841W        W36441  12.976   0.899  14.164
65842W        W36442  30.933  25.657  14.264
65843W        W36443  32.080  32.383  14.039
65844W        W36444   4.998  17.277   1.703
65845W        W36445  26.409  11.887   0.256
65846W        W36446  19.324   4.238   1.306
65847W        W36447  32.377  14.093  14.195
65848W        W36448  14.862   9.818   2.699
65849W        W36449  13.914  12.352  14.349
65850W        W36450  27.606  31.907  14.581
65851W        W36451  14.222  40.792  11.289
65852W        W36452  32.903   9.127   2.264
65853W        W36453  35.617   6.650  10.916
65854W        W36454  28.545  13.079   3.764
65855W        W36455  34.501  29.938   1.398
65856W        W36456  11.728   4.936   0.407
65857W        W36457  31.957  37.344   3.629
65858W        W36458  29.230  11.365   4.081
65859W        W36459  20.227  19.835   2.688
65860W        W36460  12.753  40.514  13.927
65861W        W36461  13.449  37.012  13.283
65862W        W36462  17.039   6.886   2.628
65863W        W36463  40.830  33.040   1.409
65864W        W36464   2.400  36.420   4.567
65865W        W36465   4.968  22.045   4.518
65866W        W36466  37.355  35.372   0.062
65867W        W36467  14.881  25.664   2.259
65868W        W36468  11.356   6.120  14.862
65869W        W36469  29.870  18.783   2.232
65870W        W36470   0.038  30.574   4.063
65871W        W36471  26.943  44.040  10.745
65872W        W36472  27.003  23.063  12.120
65873W        W36473  30.499  42.959   0.639
65874W        W36474  34.847  21.314   3.217
65875W        W36475   0.705  16.101   2.259
65876W        W36476  17.584  16.192   1.717
65877W        W36477   7.759  41.065   2.741
65878W        W36478  36.154  42.405  13.957
65879W        W36479   9.600  43.660  13.917
65880W        W36480  43.862  33.193   0.809
65881W        W36481  14.575  38.773   0.813
65882W        W36482   5.691  20.191  12.444
65883W        W36483  40.805  40.916   3.759
65884W        W36484  42.820  16.114  12.246
65885W        W36485  12.632  39.644   2.622
65886W        W36486  18.651   5.723  10.052
65887W        W36487  44.973  36.846  11.784
65888W        W36488  25.587  14.711   3.735
65889W        W36489  23.804  16.660  11.187
65890W        W36490   0.799  21.719  11.230
65891W        W36491  32.570  27.548   0.024
65892W        W36492  15.106   1.516  13.933
65893W        W36493   1.586  27.709  12.465
65894W        W36494  37.449   1.998  14.908
65895W        W36495  39.923  24.199  14.230
65896W        W36496  42.933  30.711   1.366
65897W        W36497   4.253  41.474   0.466
65898W        W36498   4.789  12.846  10.190
65899W        W36499   6.258  43.727   2.794
65900W        W36500  20.451  30.549  14.949
65901W        W36501  23.722   7.868   1.427
65902W        W36502  18.787  25.912   3.883
65903W        W36503   6.780   1.426   1.806
65904W        W36504  31.415  24.813   0.127
65905W        W36505  32.937   5.489   0.465
65906W        W36506   4.028   1.843   1.953
65907W        W36507   1.171  26.237  12.496
65908W        W36508  24.756  20.006   1.793
65909W        W36509  40.030  31.016  10.444
65910W        W36510  27.915  38.591   1.565
65911W        W36511  39.588  26.039  11.504
65912W        W36512  39.812  13.615  11.896
65913W        W36513  24.082   4.043   4.606
65914W        W36514   6.386  35.618   1.731
65915W        W36515  12.165  41.335   4.147
65916W        W36516  39.578  29.316   2.743
65917W        W36517  30.649   0.343  14.562
65918W        W36518  17.277  19.586   0.310
65919W        W36519  21.512  34.900   0.289
65920W        W36520  11.851  39.476  13.577
65921W        W36521   1.972  24.999   0.000
65922W        W36522  32.646   4.447  12.927
65923W        W36523   6.714  41.843   2.308
65924W        W36524  16.697  37.080  10.899
65925W        W36525  44.528   7.306  11.275
65926W        W36526  26.090   5.138  14.757
65927W        W36527  27.319  39.028   2.324
65928W        W36528  29.699   2.963   5.018
65929W        W36529   6.458  17.648   3.710
65930W        W36530   2.662  31.375   5.022
65931W        W36531  33.018  37.759  12.565
65932W        W36532  21.912  37.488   2.565
65933W        W36533  22.478  29.063  11.122
65934W        W36534  29.479   7.296   3.812
65935W        W36535  25.457  38.972  13.591
65936W        W36536  31.549   7.170   3.708
65937W        W36537  21.224   9.504  11.523
65938W        W36538   1.999   8.520  11.168
65939W        W36539   9.307  29.129   0.446
65940W        W36540  15.524  36.458   0.900
65941W        W36541  20.499   8.993  11.018
65942W        W36542   3.238  39.242   1.838
65943W        W36543  15.094  12.888   5.103
65944W        W36544  22.730  30.091   4.819
65945W        W36545  38.712  39.655   4.140
65946W        W36546   8.265  28.496  11.893
65947W        W36547  24.162  37.163  13.161
65948W        W36548   1.344  21.118  13.858
65949W        W36549  26.594  34.098   1.219
65950W        W36550  32.835  34.908   0.871
65951W        W36551   4.131  29.574   2.009
65952W        W36552  10.655  11.659  13.992
65953W        W36553  33.985   9.857  12.283
65954W        W36554  36.109  11.508  10.683
65955W        W36555   1.494  34.656   9.883
65956W        W36556   7.983  41.142   4.981
65957W        W36557  32.658   7.930   3.219
65958W        W36558  42.355  29.988  14.926
65959W        W36559  35.048   8.419  11.166
65960W        W36560  33.053  22.547  13.078
65961W        W36561  23.926  33.331  10.732
65962W        W36562  33.824  30.505   1.873
65963W        W36563  28.144  22.800   3.309
65964W        W36564   3.769  20.685   2.510
65965W        W36565   5.350  22.500  13.422
65966W        W36566   2.683   6.021   1.261
65967W        W36567  31.839   2.025   3.306
65968W        W36568  23.495  31.684   2.396
65969W        W36569  39.818  41.419  14.545
65970W        W36570  36.336  22.016   1.830
65971W        W36571  42.353   8.923   3.684
65972W        W36572  34.593  39.312   1.861
65973W        W36573  31.664   9.302  11.232
65974W        W36574  36.381  28.646  10.495
65975W        W36575  37.671  24.774   4.181
65976W        W36576  10.697   8.542  12.821
65977W        W36577  15.659  31.164   4.185
65978W        W36578  18.029   4.856   2.082
65979W        W36579   7.036  13.105   4.147
65980W        W36580  33.624  42.452   1.925
65981W        W36581  35.648  12.566   3.752
65982W        W36582  10.583  27.946   4.569
65983W        W36583   6.811  14.992   0.608
65984W        W36584  16.378   4.823  14.328
65985W        W36585   6.203  41.348  13.034
65986W        W36586   6.358  30.178   1.304
65987W        W36587  33.135  41.716   1.210
65988W        W36588  23.637  29.471  10.426
65989W        W36589  38.388  30.980  13.143
65990W        W36590  31.275   8.642  11.965
65991W        W36591  25.456  40.949   1.321
65992W        W36592   1.246   2.979   2.239
65993W        W36593  17.547  15.342   1.759
65994W        W36594  37.424   2.836  11.427
65995W        W36595  34.895  30.140   3.305
65996W        W36596  10.736  17.636  14.663
65997W        W36597  15.080  42.759  14.878
65998W        W36598  22.085   4.950  13.810
65999W        W36599  30.164  12.281  13.897
66000W        W36600  10.295  10.976   1.424
66001W        W36601   3.788  44.288   0.236
66002W        W36602  39.905   7.234  13.430
66003W        W36603  42.026  27.209   2.155
66004W        W36604  44.830   2.188  10.598
66005W        W36605  21.324   2.054  13.913
66006W        W36606   2.184  42.826   2.669
66007W        W36607  35.399  25.077  13.996
66008W        W36608  31.989  26.440   1.720
66009W        W36609  32.970  37.187  14.382
66010W        W36610   7.197  40.665   0.628
66011W        W36611  31.452  30.301  11.848
66012W        W36612  41.505  12.837   4.573
66013W        W36613  18.534  24.787  12.892
66014W        W36614  11.292   6.313  12.498
66015W        W36615  26.988  11.811   3.725
66016W        W36616   0.720  25.013   3.313
66017W        W36617   6.540  31.372   2.525
66018W        W36618  25.536  13.018   0.341
66019W        W36619  39.457  42.348   2.322
66020W        W36620   8.392  40.956  13.947
66021W        W36621  30.374  22.996  10.649
66022W        W36622  33.053  32.370   0.002
66023W        W36623   8.081  24.011  14.881
66024W        W36624  37.609  26.591   2.922
66025W        W36625  13.616  20.209  10.617
66026W        W36626  12.279  18.123   4.570
66027W        W36627  26.016  25.110   4.287
66028W        W36628   3.355  12.161   2.688
66029W        W36629  30.931  19.041  11.128
66030W        W36630   8.796   6.280   3.041
66031W        W36631  40.792  37.404  10.775
66032W        W36632   3.042  13.309  10.659
66033W        W36633  44.338  19.066  11.923
66034W        W36634  40.319  21.345   4.553
66035W        W36635  16.643   2.880  13.479
66036W        W36636   4.281  27.948  13.356
66037W        W36637   6.797  13.074   0.725
66038W        W36638  21.303  18.082   1.815
66039W        W36639  16.903  22.215   1.609
66040W        W36640  40.241  20.821   0.447
66041W        W36641   8.181  40.328   1.425
66042W        W36642  43.734   7.454   1.410
66043W        W36643   6.574   3.735   3.104
66044W        W36644  13.708  15.206  13.922
66045W        W36645  23.618  28.479  12.569
66046W        W36646  28.055  29.448   9.831
66047W        W36647  16.656   0.615  14.118
66048W        W36648  23.168  26.922   0.366
66049W        W36649   6.004  18.117  13.255
66050W        W36650  28.571  14.623  14.536
66051W        W36651  31.934   4.407   1.623
66052W        W36652  42.523  13.311  13.001
66053W        W36653  39.407  25.561  13.493
66054W        W36654  35.350  37.796   0.850
66055W        W36655  33.650  21.957   1.930
66056W        W36656  13.308  41.050  12.526
66057W        W36657   0.084  44.055  13.469
66058W        W36658  21.599  21.304  13.414
66059W        W36659   7.973  38.309   4.845
66060W        W36660  38.873  39.741  10.389
66061W        W36661  17.020  20.671  10.708
66062W        W36662  19.209  32.961   0.020
66063W        W36663  30.066  26.430  12.122
66064W        W36664   8.131  25.504  11.982
66065W        W36665   6.660   1.181   3.054
66066W        W36666  40.118   3.312  13.891
66067W        W36667  25.534   2.017   1.743
66068W        W36668  35.953  33.762   3.618
66069W        W36669  42.218  39.366  13.517
66070W        W36670  43.818   0.787   4.900
66071W        W36671  24.435  23.575  11.712
66072W        W36672   2.855  32.894   3.174
66073W        W36673  23.561  26.921  10.816
66074W        W36674  20.484  28.700   0.376
66075W        W36675  10.375  18.724   1.255
66076W        W36676  17.181  15.891  13.353
66077W        W36677  35.966  38.349   1.750
66078W        W36678  21.841   2.947  12.352
66079W        W36679  29.673  12.642   4.255
66080W        W36680  38.032   5.516   0.462
66081W        W36681  20.527  35.057   1.226
66082W        W36682  37.633  22.429  14.396
66083W        W36683  22.545  10.197   2.132
66084W        W36684   9.134  22.496  14.924
66085W        W36685   7.958   0.630  12.465
66086W        W36686  25.997  30.314  13.071
66087W        W36687  12.627   8.917  14.068
66088W        W36688  44.177  26.179  13.508
66089W        W36689  15.223  37.046  14.772
66090W        W36690  43.743  12.353   3.237
66091W        W36691   5.493  19.672  13.495
66092W        W36692  43.030  24.944  10.984
66093W        W36693  10.821  11.938   2.293
66094W        W36694  43.626   5.372  11.939
66095W        W36695  19.876  40.608  11.076
66096W        W36696  25.162  26.769   3.197
66097W        W36697  14.139  11.768   1.214
66098W        W36698  30.662  29.660  13.994
66099W        W36699  42.714  30.141   4.282
66100W        W36700  12.619  37.564  12.388
66101W        W36701  33.646  39.489  13.458
66102W        W36702  16.871   8.288  11.125
66103W        W36703  27.736  40.855  14.911
66104W        W36704  26.179  29.036  13.425
66105W        W36705  39.262  10.780   0.529
66106W        W36706  38.870  42.207  14.993
66107W        W36707  41.573  40.388   2.171
66108W        W36708   6.932  21.993   0.740
66109W        W36709  33.437   6.649   1.940
66110W        W36710  34.122   8.913  11.207
66111W        W36711  20.243  17.639   1.161
66112W        W36712  31.591  43.676   3.132
66113W        W36713  13.257  30.866  13.936
66114W        W36714  39.730   8.845   0.296
66115W        W36715  44.364  39.455  12.513
66116W        W36716  43.327   3.625  13.653
66117W        W36717  38.841  30.129  11.474
66118W        W36718   5.417  18.125   4.376
66119W        W36719   5.757  10.427  11.235
66120W        W36720  31.120  11.184   4.220
66121W        W36721   0.747  41.833  11.449
66122W        W36722   0.636   0.483  10.365
66123W        W36723  41.843   6.971  12.421
66124W        W36724  31.024   4.782  13.582
66125W        W36725  27.971  22.534   3.798
66126W        W36726  35.064  11.148   4.544
66127W        W36727  22.261  37.158   1.368
66128W        W36728  28.520   0.686   4.579
66129W        W36729   7.238  39.424  13.807
66130W        W36730  41.016  39.554  12.947
66131W        W36731  30.087  19.351  14.569
66132W        W36732  13.263   1.653  13.122
66133W        W36733  26.082  30.685  12.732
66134W        W36734  23.011  40.497   4.853
66135W        W36735  25.030  37.756  11.203
66136W        W36736  36.100  19.550  10.531
66137W        W36737  21.528  18.022  13.804
66138W        W36738  34.730   7.096  10.604
66139W        W36739  27.956  29.597   0.526
66140W        W36740  41.138   7.407  12.789
66141W        W36741  19.566  15.902  14.117
66142W        W36742  13.285  24.347   1.400
66143W        W36743  17.403   0.144   2.848
66144W        W36744  22.630   8.593  10.692
66145W        W36745   9.600  21.615   4.960
66146W        W36746  19.730  11.161   3.587
66147W        W36747  39.986   2.642  14.441
66148W        W36748  20.493  14.388   2.787
66149W        W36749  27.645   4.700   4.040
66150W        W36750  12.126  42.884  11.923
66151W        W36751  39.538  13.012   0.038
66152W        W36752  15.395   2.771   0.758
66153W        W36753  29.516  21.148   5.043
66154W        W36754  26.073  17.040   3.633
66155W        W36755   5.313  19.242  12.788
66156W        W36756  39.082  19.096  13.701
66157W        W36757  23.911  14.223   5.033
66158W        W36758  40.412   4.548  13.919
66159W        W36759  36.854  36.768  13.544
66160W        W36760  11.085   8.874  14.279
66161W        W36761   4.786  35.919  14.179
66162W        W36762  22.071   0.152   3.771
66163W        W36763   6.621   8.621   3.613
66164W        W36764   2.184  23.559   5.135
66165W        W36765  34.042  18.580   2.647
66166W        W36766   9.425  23.910   4.986
66167W        W36767  37.815   1.246   2.641
66168W        W36768  33.831  16.733  13.185
66169W        W36769  37.481  10.601   2.728
66170W        W36770  36.464  19.031  11.026
66171W        W36771  24.607  39.020  14.456
66172W        W36772  43.353  38.912  12.248
66173W        W36773  28.942  15.376   4.155
66174W        W36774  32.548  19.991  13.810
66175W        W36775  23.041  23.759   4.208
66176W        W36776   3.770   1.401  12.818
66177W        W36777  41.900  42.777   2.655
66178W        W36778   7.745   6.550  10.171
66179W        W36779  19.144   1.434  14.058
66180W        W36780  34.936  18.323  10.349
66181W        W36781  13.478  32.818  13.982
66182W        W36782  33.551  10.142  12.038
66183W        W36783  38.863  27.667   4.141
66184W        W36784  27.430  17.482  12.125
66185W        W36785  36.800  32.973  11.075
66186W        W36786  26.211  31.498   1.342
66187W        W36787  38.688  12.383   0.492
66188W        W36788   8.265  30.612  11.962
66189W        W36789   0.232  21.264  14.756
66190W        W36790  28.918  32.981   1.257
66191W        W36791  33.339  13.757  11.578
66192W        W36792   9.224  42.983  13.364
66193W        W36793  32.999  21.661  13.931
66194W        W36794  25.642  21.661  14.033
66195W        W36795  21.004  11.806   3.551
66196W        W36796  33.855  18.770  12.739
66197W        W36797  27.106  36.152  11.593
66198W        W36798  21.548   4.939   1.751
66199W        W36799  22.653   6.147   0.686
66200W        W36800  21.535  14.056   1.797
66201W        W36801  17.697   2.470  12.550
66202W        W36802  13.316  14.184  14.939
66203W        W36803  31.498  29.207   2.855
66204W        W36804  14.074  24.992   2.671
66205W        W36805   3.484  11.922   4.424
66206W        W36806  29.981  33.304   0.719
66207W        W36807  43.332  17.713  12.333
66208W        W36808  36.755  25.712   2.369
66209W        W36809  14.359  40.058  13.836
66210W        W36810  40.878  36.525   3.110
66211W        W36811   4.373  16.648   3.252
66212W        W36812   4.671   1.115  14.331
66213W        W36813  18.495  44.999   3.236
66214W        W36814   7.120  22.085  12.998
66215W        W36815  40.145  35.130  14.509
66216W        W36816  40.124  24.619  14.522
66217W        W36817  27.546  13.847   4.597
66218W        W36818   6.858  25.220  10.727
66219W        W36819  35.634  16.817   3.176
66220W        W36820  23.923  24.083   2.197
66221W        W36821  27.501  40.747  12.393
66222W        W36822  41.540   2.480  13.997
66223W        W36823   9.324  13.143  11.664
66224W        W36824  42.445  23.503  12.847
66225W        W36825  30.927  31.621  14.402
66226W        W36826  24.707  27.069  11.515
66227W        W36827  39.848  36.794   0.327
66228W        W36828  23.272  29.634  14.444
66229W        W36829  35.050  12.759  12.028
66230W        W36830   0.698  10.724   0.506
66231W        W36831  22.027  43.251   3.165
66232W        W36832   8.067   5.327  12.429
66233W        W36833  14.359  22.787   2.764
66234W        W36834  31.044  13.601  13.240
66235W        W36835  32.286  17.719  14.341
66236W        W36836   5.412  12.622   4.611
66237W        W36837   6.790  10.218   3.135
66238W        W36838  44.662   4.444  14.900
66239W        W36839   3.481  16.831  13.535
66240W        W36840  22.070  32.895  14.398
66241W        W36841  36.340   9.911  12.550
66242W        W36842  24.987  29.017   2.357
66243W        W36843  26.703  42.021  11.960
66244W        W36844  44.579  44.172   3.248
66245W        W36845  25.717  23.670  14.935
66246W        W36846   6.380  31.050   1.507
66247W        W36847  35.595  18.536  14.910
66248W        W36848  17.850  19.984  13.969
66249W        W36849  28.741  23.649   4.206
66250W        W36850  39.780  10.420  13.937
66251W        W36851  30.607   3.933   2.833
66252W        W36852  34.399  37.387  13.919
66253W        W36853   9.643  14.996   1.381
66254W        W36854  19.344  12.806   4.042
66255W        W36855  15.686  22.182   0.653
66256W        W36856  40.880  16.609  10.529
66257W        W36857  34.509  30.495  13.368
66258W        W36858  34.774  35.750  11.143
66259W        W36859  36.498  18.227  11.539
66260W        W36860  15.323  37.103  12.964
66261W        W36861   5.238  21.139  10.700
66262W        W36862  28.149   0.565  11.192
66263W        W36863   6.837  22.276   3.370
66264W        W36864  18.498  26.750  10.849
66265W        W36865  26.057  39.982   3.613
66266W        W36866  21.067  38.588   0.843
66267W        W36867  37.440  11.389  13.992
66268W        W36868   1.739  23.648   4.893
66269W        W36869   1.224  24.368   4.365
66270W        W36870  13.860  21.549   0.526
66271W        W36871  32.494  29.238  13.905
66272W        W36872   7.754  27.152  12.017
66273W        W36873  31.598  34.752  10.880
66274W        W36874   3.290  17.505  12.399
66275W        W36875  14.801  27.379  13.933
66276W        W36876  16.046  25.438  14.958
66277W        W36877  30.281  44.225  11.402
66278W        W36878  19.609  31.706   2.941
66279W        W36879   4.013  36.093   2.261
66280W        W36880  22.992  44.955  14.370
66281W        W36881  44.758  19.298   1.836
66282W        W36882  37.519  38.461  12.971
66283W        W36883  33.151  15.154   3.319
66284W        W36884  33.568  34.206   2.272
66285W        W36885  17.710   4.381  12.802
66286W        W36886  18.344   6.814   3.094
66287W        W36887   5.204  40.518  14.340
66288W        W36888  29.576   3.203   1.774
66289W        W36889  20.563  42.242   1.388
66290W        W36890   1.780  31.608   0.407
66291W        W36891  15.078  18.677  10.630
66292W        W36892   2.481  20.069  11.603
66293W        W36893  15.574   8.075   0.213
66294W        W36894  23.618  17.684   4.184
66295W        W36895  18.032  40.936   4.942
66296W        W36896   3.416  37.062  11.918
66297W        W36897  36.663  36.938  12.840
66298W        W36898  29.126  19.282   3.281
66299W        W36899  20.259  38.957  12.494
66300W        W36900  25.727  16.295   1.678
66301W        W36901  26.338   1.456  14.989
66302W        W36902   0.549  11.967  11.428
66303W        W36903  41.466  23.716  13.902
66304W        W36904  29.696  19.875  12.708
66305W        W36905  44.847  14.393  11.271
66306W        W36906  35.023  16.869   2.707
66307W        W36907  28.425  24.653   4.027
66308W        W36908  18.843  37.439  14.336
66309W        W36909   7.630  30.459  11.136
66310W        W36910   9.934  40.819  12.879
66311W        W36911  20.372  38.422   2.284
66312W        W36912  16.640  25.558  12.481
66313W        W36913  37.126  25.613   3.298
66314W        W36914  21.076  16.130  13.106
66315W        W36915  44.954  44.729   1.512
66316W        W36916  37.418  23.057  10.433
66317W        W36917  18.715  12.437  10.287
66318W        W36918  41.460   0.262  11.891
66319W        W36919  36.271  21.096   3.537
66320W        W36920  20.742   9.378   4.637
66321W        W36921  24.698  31.088   2.224
66322W        W36922   7.211  12.701   3.859
66323W        W36923  20.669  30.977   0.174
66324W        W36924  12.046  18.080   5.045
66325W        W36925  25.065  18.715  11.416
66326W        W36926   3.398  26.786  11.358
66327W        W36927  29.915  24.725  12.159
66328W        W36928  29.932  30.423  13.021
66329W        W36929   8.425  13.239  13.553
66330W        W36930  25.006  23.284   0.333
66331W        W36931  29.263  43.596  14.810
66332W        W36932  21.742  22.744  10.508
66333W        W36933  28.422   1.783   1.692
66334W        W36934  32.864  32.015  12.915
66335W        W36935  28.231  37.800   1.914
66336W        W36936  17.677  18.212   2.167
66337W        W36937  27.079  29.596   1.024
66338W        W36938  39.059  38.936  13.988
66339W        W36939  43.495  38.352  13.954
66340W        W36940  28.274  24.603   1.178
66341W        W36941  18.802   7.822  14.353
66342W        W36942  16.232  31.428  12.344
66343W        W36943  33.519  36.071  13.872
66344W        W36944  42.586  11.179   4.094
66345W        W36945  16.995   9.660  13.270
66346W        W36946  22.655  16.715   2.629
66347W        W36947  27.645   7.158   2.417
66348W        W36948   3.005  43.933  14.733
66349W        W36949  28.172  40.213   0.473
66350W        W36950  13.635  16.452  12.175
66351W        W36951  11.032  35.571  11.183
66352W        W36952   0.527  27.749  11.354
66353W        W36953  43.814   0.458   1.222
66354W        W36954   5.054  16.570   2.119
66355W        W36955   3.643   9.189   2.863
66356W        W36956  44.303  41.528  11.001
66357W        W36957  23.583  16.042  11.084
66358W        W36958   1.169  28.153   1.201
66359W        W36959  23.180  29.790   4.948
66360W        W36960  14.594  21.576  14.464
66361W        W36961  25.483   8.318   4.055
66362W        W36962  13.729  22.907   0.770
66363W        W36963   4.851   0.954   4.190
66364W        W36964   1.753   2.836   2.212
66365W        W36965  10.642  35.006   4.156
66366W        W36966   0.216  42.914  10.457
66367W        W36967   5.944  40.278   1.401
66368W        W36968  24.286  27.844  14.835
66369W        W36969  23.434  10.976   3.692
66370W        W36970  34.792  15.730   2.018
66371W        W36971  14.153   7.734   3.130
66372W        W36972  39.362  32.200   3.133
66373W        W36973  32.975  28.025  10.620
66374W        W36974  37.637  31.514  14.806
66375W        W36975  42.832   2.464  11.592
66376W        W36976  36.885  15.317   3.703
66377W        W36977   9.943  14.352   0.285
66378W        W36978  19.959   0.893  13.416
66379W        W36979  30.197  31.813  11.579
66380W        W36980  36.863  14.298   4.326
66381W        W36981  17.605  31.590  14.923
66382W        W36982  13.074   7.159  13.791
66383W        W36983  22.588  41.732   4.133
66384W        W36984   6.750  27.415  13.831
66385W        W36985  40.294   3.871   2.607
66386W        W36986   8.295  27.701  13.836
66387W        W36987  18.550  42.931   3.161
66388W        W36988  27.884  30.156  14.826
66389W        W36989  40.886  14.335   4.084
66390W        W36990  37.722  27.765  14.066
66391W        W36991  33.119  43.976  13.056
66392W        W36992  20.740  42.278  14.948
66393W        W36993  10.238  38.397   1.307
66394W        W36994  31.502  36.182   4.357
66395W        W36995  39.300  44.937  13.031
66396W        W36996  19.835   6.149   3.958
66397W        W36997   0.054   9.343  13.793
66398W        W36998  34.553   3.804  14.690
66399W        W36999  28.703  26.019   4.041
66400W        W37000   3.623  12.367  10.486
66401W        W37001  36.762   3.947   3.596
66402W        W37002   7.682  22.557  14.089
66403W        W37003  15.737   0.782   1.293
66404W        W37004  21.228  44.585  11.873
66405W        W37005  11.904  13.862   3.740
66406W        W37006  28.070  26.196  13.846
66407W        W37007   6.308  33.971  11.730
66408W        W37008  29.110  24.692   1.787
66409W        W37009  32.143  39.980   3.718
66410W        W37010   5.015  44.461   3.798
66411W        W37011   6.119  27.874  12.168
66412W        W37012  26.082  28.739  11.136
66413W        W37013  27.179   3.734  11.617
66414W        W37014  12.784  33.619  11.121
66415W        W37015   5.176  32.134   0.272
66416W        W37016  36.164   6.934   4.295
66417W        W37017  32.520  23.662  11.099
66418W        W37018  19.213  28.109   4.304
66419W        W37019  31.397  37.375   2.902
66420W        W37020  22.533  10.868  10.773
66421W        W37021  32.201  27.545  13.983
66422W        W37022   9.102   9.339  11.630
66423W        W37023  36.754  32.512   2.141
66424W        W37024  25.388  24.235  14.358
66425W        W37025  17.146  32.654  11.934
66426W        W37026  27.788  32.145   0.974
66427W        W37027  18.549  35.263   2.269
66428W        W37028  28.455  35.543  12.860
66429W        W37029   4.789  12.190  13.534
66430W        W37030  22.248  44.347   3.641
66431W        W37031  39.233  36.918  14.720
66432W        W37032   8.062  25.051  13.592
66433W        W37033  11.687  15.074   1.462
66434W        W37034  18.146   7.032  12.275
66435W        W37035  12.229  21.051   2.755
66436W        W37036  22.754   9.795  13.308
66437W        W37037   7.274  30.296  12.422
66438W        W37038  16.099  33.518   1.875
66439W        W37039  13.156  43.423   3.147
66440W        W37040  20.188  11.298   4.440
66441W        W37041  26.993  28.139   4.526
66442W        W37042  31.559   3.034   3.125
66443W        W37043  40.422  21.132   2.908
66444W        W37044  33.585   9.219   3.821
66445W        W37045  40.968  36.899  13.902
66446W        W37046  21.753  11.543  12.104
66447W        W37047  43.257  44.193   2.322
66448W        W37048  30.204  15.579  12.795
66449W        W37049  23.277  22.104   4.766
66450W        W37050  31.542  13.472  11.615
66451W        W37051  31.643  24.902   0.614
66452W        W37052  15.136  24.283  13.975
66453W        W37053  40.879  21.085   3.151
66454W        W37054  20.545   9.703   1.112
66455W        W37055  32.875  32.191  14.526
66456W        W37056  44.277   6.310  12.546
66457W        W37057  24.473  19.340   0.290
66458W        W37058  34.891  22.449  12.035
66459W        W37059  19.466   3.273   4.231
66460W        W37060  37.995  21.585   4.547
66461W        W37061  24.760  41.833   2.396
66462W        W37062  24.684   1.291  14.826
66463W        W37063   2.334  31.193  13.754
66464W        W37064  34.127  44.119   0.439
66465W        W37065  21.643  37.822  11.687
66466W        W37066  41.204  21.834   3.780
66467W        W37067  43.202  36.587   1.279
66468W        W37068  27.181   6.112   0.333
66469W        W37069  24.647   3.405   2.513
66470W        W37070  12.216  11.260   4.741
66471W        W37071  34.279  36.843   3.560
66472W        W37072   3.442  11.558  11.982
66473W        W37073  23.171  12.371   2.722
66474W        W37074  22.022  33.299  11.218
66475W        W37075   5.440  44.524  13.390
66476W        W37076  31.023  44.879   4.249
66477W        W37077   1.761  12.149  14.000
66478W        W37078  12.848  28.454   3.324
66479W        W37079  29.718  37.403  11.409
66480W        W37080  43.988  18.180  11.888
66481W        W37081  44.784  44.307   1.741
66482W        W37082   8.650   0.910  11.959
66483W        W37083   5.383  15.127  14.018
66484W        W37084  42.994  12.196  11.573
66485W        W37085   2.887  35.939  11.110
66486W        W37086   7.156  20.000   2.242
66487W        W37087  22.440  22.063  11.866
66488W        W37088  38.955  32.159   4.543
66489W        W37089  36.925  36.428  13.989
66490W        W37090  27.927  13.663   0.817
66491W        W37091   4.986  28.515   1.796
66492W        W37092  22.035   5.472  11.967
66493W        W37093  18.156  25.265  10.675
66494W        W37094  39.463  32.038  11.814
66495W        W37095  35.195  33.847   4.876
66496W        W37096  35.347   6.095  14.007
66497W        W37097  34.354  20.071  11.226
66498W        W37098   3.948  20.106  13.063
66499W        W37099  22.631  15.558   0.061
66500W        W37100  28.124  23.877  13.631
66501W        W37101  39.813  15.562  11.527
66502W        W37102  15.086  32.098  13.904
66503W        W37103   4.898  29.523   0.038
66504W        W37104   0.868  30.699  10.665
66505W        W37105  37.236  30.558  11.999
66506W        W37106  35.428  44.382   4.202
66507W        W37107  21.172  22.028  14.817
66508W        W37108  29.026  23.220   4.364
66509W        W37109  41.677  13.732  11.068
66510W        W37110  18.756  13.465   1.008
66511W        W37111  39.146   4.119   1.490
66512W        W37112  10.388  38.538  12.328
66513W        W37113  28.610  15.807   3.195
66514W        W37114   8.423  38.998  13.758
66515W        W37115  28.814   4.391  12.025
66516W        W37116  41.575  16.682   0.001
66517W        W37117  20.887  41.290   4.450
66518W        W37118  34.949  37.154   0.824
66519W        W37119  23.943  37.416  12.078
66520W        W37120  22.818  33.463   1.394
66521W        W37121  16.840  36.881  11.855
66522W        W37122  27.408  13.607   0.899
66523W        W37123   5.638  20.032   1.306
66524W        W37124   1.478  19.600  13.995
66525W        W37125  12.397  32.908  12.849
66526W        W37126  11.876   7.757   4.358
66527W        W37127   0.910  22.888  11.946
66528W        W37128   7.219  12.317  11.443
66529W        W37129  18.924  15.290  14.492
66530W        W37130   2.627  37.097  13.191
66531W        W37131  15.680  26.962   0.398
66532W        W37132  36.891  15.049   2.216
66533W        W37133  23.591  29.999   4.252
66534W        W37134   0.706  26.737   1.168
66535W        W37135   0.663  16.207   0.421
66536W        W37136  43.372  33.455  11.449
66537W        W37137   7.615  25.172   0.925
66538W        W37138  39.259  12.816  13.752
66539W        W37139   2.997  37.868   2.495
66540W        W37140  21.349   1.284  11.161
66541W        W37141  39.296  20.060  12.458
66542W        W37142  11.300  27.914  13.595
66543W        W37143  20.526  12.023   1.432
66544W        W37144  35.416  32.135  11.175
66545W        W37145  29.173  30.633  11.640
66546W        W37146  19.336  36.815   1.507
66547W        W37147   9.168  11.916  10.083
66548W        W37148  12.777  42.171   2.429
66549W        W37149  12.761  25.053   4.655
66550W        W37150  27.521  31.447  14.966
66551W        W37151  34.507   9.504  12.809
66552W        W37152  28.435  14.065  11.982
66553W        W37153  29.088   5.522   2.439
66554W        W37154  41.742  37.994   4.587
66555W        W37155  34.371   6.121  14.217
66556W        W37156  17.058   9.664   1.162
66557W        W37157  24.992  21.696   0.759
66558W        W37158   8.348  33.068   2.414
66559W        W37159  27.501  11.947  14.476
66560W        W37160  12.273  11.051   3.284
66561W        W37161  43.950  37.557  14.071
66562W        W37162  31.139  20.203   3.159
66563W        W37163  27.687  36.280  12.071
66564W        W37164  44.760   4.872   0.967
66565W        W37165  27.933  29.399  11.823
66566W        W37166  21.790  24.253  12.150
66567W        W37167  32.704  33.598  10.120
66568W        W37168  20.656  20.720  10.799
66569W        W37169  43.477   0.080  10.666
66570W        W37170  40.072   6.664  14.120
66571W        W37171  10.112  28.508  14.930
66572W        W37172  28.700  33.959  10.413
66573W        W37173  43.446   4.244   3.324
66574W        W37174  15.050  30.945  14.934
66575W        W37175   0.490   1.961   4.000
66576W        W37176  17.955  18.876   3.590
66577W        W37177  41.467  20.002  12.314
66578W        W37178  18.329  15.149  11.944
66579W        W37179  22.749  16.111  13.453
66580W        W37180  20.642  29.596  14.554
66581W        W37181  12.188  18.342  12.128
66582W        W37182  19.597  42.495   2.329
66583W        W37183  31.428  15.168   3.687
66584W        W37184  16.064  11.665  14.799
66585W        W37185  30.047   7.174   1.099
66586W        W37186  22.180   3.192  10.751
66587W        W37187  10.614   0.797   1.704
66588W        W37188  11.100   1.462  12.556
66589W        W37189   5.927  19.595   1.257
66590W        W37190  15.538  15.776   4.998
66591W        W37191   2.251  43.892   0.228
66592W        W37192  42.376  34.612   3.831
66593W        W37193  32.422   6.726  11.790
66594W        W37194   2.884  23.020  13.871
66595W        W37195  42.043  29.065  10.459
66596W        W37196   3.959   1.905  14.942
66597W        W37197  21.060   8.772   3.018
66598W        W37198  16.878   8.849   0.321
66599W        W37199  28.139  14.925  10.939
66600W        W37200  39.503  22.784  11.221
66601W        W37201  34.104   8.260   0.202
66602W        W37202  21.668  39.345   2.727
66603W        W37203   0.343  26.508   1.463
66604W        W37204  39.767   1.460   0.012
66605W        W37205  32.557  35.962   0.266
66606W        W37206  25.648  15.806   0.760
66607W        W37207  42.936   8.980   3.243
66608W        W37208  20.268  21.618  13.489
66609W        W37209  32.920  18.135   0.502
66610W        W37210  44.268  41.115  13.839
66611W        W37211   0.300  12.705  10.722
66612W        W37212   3.693   8.273   4.146
66613W        W37213  44.388  12.201   2.745
66614W        W37214  19.134  41.826   3.715
66615W        W37215  16.267   8.118  12.096
66616W        W37216  25.965  13.432  11.720
66617W        W37217  21.205  19.948  10.653
66618W        W37218  15.532  33.172  10.690
66619W        W37219  22.399  43.881  12.604
66620W        W37220   6.235   7.452  14.423
66621W        W37221  20.534  17.134   1.291
66622W        W37222  31.328   7.505   0.919
66623W        W37223  19.306  43.422   4.138
66624W        W37224  10.742  44.630   1.271
66625W        W37225  19.212  26.162  14.037
66626W        W37226  20.448  36.820  12.348
66627W        W37227   8.977  12.080  13.546
66628W        W37228  14.631  17.821   3.183
66629W        W37229  40.949  25.538   1.407
66630W        W37230  18.055  40.443  13.868
66631W        W37231  35.003  42.737  12.106
66632W        W37232  36.991  41.600  11.241
66633W        W37233  32.403  43.799  12.329
66634W        W37234   8.689  26.979  11.068
66635W        W37235  43.544  41.865  14.948
66636W        W37236  26.360   1.279  11.942
66637W        W37237   4.327   6.355   0.685
66638W        W37238   1.023  24.403   0.267
66639W        W37239  23.158  25.482  11.685
66640W        W37240  20.680  30.650   2.619
66641W        W37241   9.659  27.014   3.627
66642W        W37242  34.173  19.570  11.089
66643W        W37243  26.977  15.016   0.808
66644W        W37244  23.449   3.798   4.173
66645W        W37245  14.625  27.261  12.968
66646W        W37246  22.680  40.709   0.971
66647W        W37247  22.820   1.364   3.667
66648W        W37248  10.418  43.332   5.102
66649W        W37249  15.744  27.447   1.194
66650W        W37250  10.791  44.474  14.441
66651W        W37251  11.982   7.757   4.874
66652W        W37252  16.807  30.633  14.413
66653W        W37253  14.212   3.241   0.179
66654W        W37254  36.570  29.553   0.764
66655W        W37255   8.249   4.942   1.957
66656W        W37256  17.067   3.505   0.883
66657W        W37257  30.963   0.488   2.172
66658W        W37258  20.160  28.266  13.615
66659W        W37259  40.843  16.601   3.184
66660W        W37260  44.440  14.666   2.563
66661W        W37261  39.813   4.732   2.249
66662W        W37262  16.774   4.256  10.747
66663W        W37263  35.769  24.673   4.041
66664W        W37264  19.722  34.593   1.253
66665W        W37265  37.404  21.564   3.925
66666W        W37266  17.309  26.901   2.732
66667W        W37267   3.886  11.222  13.843
66668W        W37268  38.766  25.690  14.867
66669W        W37269  32.863  14.284  13.360
66670W        W37270  29.428  20.317  14.054
66671W        W37271  17.203  23.212  13.025
66672W        W37272   9.692  36.371   1.848
66673W        W37273  44.918   6.808   0.965
66674W        W37274  44.745   4.360  11.093
66675W        W37275  10.299  43.549   4.154
66676W        W37276  35.601  36.106  12.846
66677W        W37277  34.033  14.857   4.865
66678W        W37278  37.483  10.745   1.331
66679W        W37279  29.537  29.462   1.457
66680W        W37280  40.467  10.014   5.041
66681W        W37281  20.364  11.846  14.109
66682W        W37282   4.882  31.981  11.998
66683W        W37283   8.283  29.912  12.980
66684W        W37284  36.866   4.161  12.909
66685W        W37285  27.095   5.150   2.432
66686W        W37286  10.729  30.266   0.407
66687W        W37287  26.002  24.078  14.945
66688W        W37288  32.444   2.737  13.593
66689W        W37289  12.253  30.846   4.724
66690W        W37290   2.242   2.790   3.769
66691W        W37291  26.228   1.792   4.139
66692W        W37292  19.066  39.534  13.947
66693W        W37293  22.823  17.136   1.862
66694W        W37294  35.121  33.482   1.137
66695W        W37295   1.745  21.941   0.942
66696W        W37296  42.799  44.814  11.780
66697W        W37297  13.394  24.186  10.605
66698W        W37298  29.140  42.195  11.026
66699W        W37299   8.254  16.568   2.836
66700W        W37300  33.307  15.922   4.595
66701W        W37301   9.734  17.026  12.021
66702W        W37302  18.869  13.275   3.480
66703W        W37303   6.664  28.419  12.874
66704W        W37304  19.343  44.393   4.845
66705W        W37305  30.103  41.686   5.048
66706W        W37306   2.117  41.750   2.887
66707W        W37307  17.244  34.568  12.890
66708W        W37308  18.273  13.363  11.028
66709W        W37309  10.267  13.564   3.694
66710W        W37310  21.549   6.223  11.417
66711W        W37311  39.801  34.387   2.419
66712W        W37312   9.277  31.135  11.538
66713W        W37313  21.118  19.981   2.163
66714W        W37314   3.168   0.918  11.281
66715W        W37315  26.940   8.928  10.061
66716W        W37316   4.749  34.340  10.007
66717W        W37317  29.023   2.382   3.689
66718W        W37318  31.104  24.323  12.724
66719W        W37319  11.738  21.701  10.922
66720W        W37320  26.643  44.580   2.317
66721W        W37321  42.043  21.962   0.087
66722W        W37322  25.631  30.619   0.229
66723W        W37323  41.985  24.082  10.727
66724W        W37324  37.246  22.201   4.543
66725W        W37325  12.655  14.346  12.447
66726W        W37326  28.648  30.445   3.362
66727W        W37327  23.663   8.975   9.963
66728W        W37328   2.451  14.650  12.971
66729W        W37329   8.154  38.543   0.230
66730W        W37330  17.777   1.424   1.687
66731W        W37331  28.959  10.283  14.261
66732W        W37332  10.635  27.487  14.235
66733W        W37333  35.514  33.546   4.556
66734W        W37334  19.252  23.497  12.553
66735W        W37335  16.111   6.961   1.961
66736W        W37336  36.612  23.764   0.847
66737W        W37337  42.467  31.811   2.798
66738W        W37338  42.889   5.483  13.436
66739W        W37339   6.843   9.170  13.908
66740W        W37340  41.934  22.748   3.262
66741W        W37341  24.442  43.023  11.848
66742W        W37342  12.348  11.734   2.860
66743W        W37343   2.211  25.238   0.864
66744W        W37344  31.673  21.571  14.152
66745W        W37345  35.163  20.690   1.702
66746W        W37346  16.682  42.390  12.519
66747W        W37347  41.466  16.494  12.054
66748W        W37348   5.728  37.014  13.390
66749W        W37349  43.537  40.415  13.408
66750W        W37350   9.176  22.468   3.759
66751W        W37351  18.087   4.821   0.265
66752W        W37352   2.245   0.681   2.402
66753W        W37353  27.564  43.844   0.092
66754W        W37354  16.516  26.038   3.685
66755W        W37355  26.072   1.677   2.166
66756W        W37356  30.372  22.089   3.302
66757W        W37357   4.475  31.039   2.442
66758W        W37358  35.112  32.921  13.044
66759W        W37359   6.764   5.616   1.789
66760W        W37360  39.078   9.867   0.971
66761W        W37361  15.806  18.107   3.279
66762W        W37362  18.559  11.962  13.089
66763W        W37363  29.572  36.743   4.041
66764W        W37364  29.475  38.787   0.898
66765W        W37365  27.130  21.636   3.332
66766W        W37366  34.613   4.330  13.011
66767W        W37367  13.017  15.209   4.113
66768W        W37368   3.473  41.350   2.873
66769W        W37369  33.229  20.417  12.049
66770W        W37370  13.915  43.319   1.355
66771W        W37371   2.902  11.623  13.856
66772W        W37372  39.086   0.651   2.505
66773W        W37373  29.844  13.292  10.507
66774W        W37374  31.568  40.628   1.256
66775W        W37375  27.983  32.608   1.420
66776W        W37376  37.551  24.964  11.631
66777W        W37377  39.833  22.404  11.237
66778W        W37378   2.925  19.646  14.044
66779W        W37379  30.272   8.755  11.540
66780W        W37380   9.162  33.879   4.118
66781W        W37381  28.920  14.693   0.960
66782W        W37382  10.387  43.904  12.807
66783W        W37383  44.957  18.210   0.808
66784W        W37384   6.855  28.230  14.914
66785W        W37385  15.069   6.049  13.278
66786W        W37386  27.908  14.231   2.217
66787W        W37387  14.513  27.850   0.300
66788W        W37388  33.424  22.640  10.829
66789W        W37389  42.399   2.141  12.590
66790W        W37390  27.151   8.656   0.419
66791W        W37391  43.113  34.879   0.592
66792W        W37392  18.344  39.044   4.018
66793W        W37393  29.101   4.708   3.114
66794W        W37394  20.198  18.762   0.873
66795W        W37395  34.257  39.891   0.011
66796W        W37396   5.632  10.315   2.635
66797W        W37397   7.377  38.737   3.741
66798W        W37398  41.488   5.627   0.897
66799W        W37399  40.242  25.712   2.288
66800W        W37400  34.395  13.315  12.426
66801W        W37401  18.450  30.148  12.548
66802W        W37402  20.167  11.693   4.110
66803W        W37403   6.889   0.866   2.684
66804W        W37404  42.548  15.163  12.570
66805W        W37405  37.012  12.384  14.043
66806W        W37406  41.056  37.876  13.437
66807W        W37407  22.508  27.400   3.055
66808W        W37408  40.960   3.868  14.010
66809W        W37409  28.201  12.783   2.719
66810W        W37410  44.071  28.660  14.025
66811W        W37411   1.991  23.888   4.503
66812W        W37412  42.313  19.377   2.824
66813W        W37413  35.759  19.180  13.131
66814W        W37414  21.733  42.972  13.845
66815W        W37415   4.539   1.623  11.992
66816W        W37416  34.528  35.926   3.638
66817W        W37417  42.907  18.060   1.819
66818W        W37418  21.345  34.602  12.639
66819W        W37419   0.885   8.762   3.280
66820W        W37420  25.052   6.854   0.540
66821W        W37421  11.271  27.192  13.082
66822W        W37422  10.326  10.430   4.170
66823W        W37423  26.584  12.626   3.013
66824W        W37424   2.904  26.107  10.453
66825W        W37425  39.663  22.763  12.538
66826W        W37426  34.452  41.032   4.490
66827W        W37427  22.950  41.017  13.458
66828W        W37428   5.903  38.768  11.183
66829W        W37429  16.549   0.426  11.518
66830W        W37430  17.647  13.771   3.159
66831W        W37431  23.962  32.865   3.624
66832W        W37432  43.214  36.948   3.689
66833W        W37433  23.739  18.329   3.346
66834W        W37434   5.688  30.456  13.068
66835W        W37435  20.693  12.836  14.742
66836W        W37436  38.708   0.448   0.965
66837W        W37437  23.281  30.592   3.641
66838W        W37438   2.279  26.989  12.801
66839W        W37439  18.073  22.338   0.310
66840W        W37440  34.205  40.147  13.095
66841W        W37441  36.883  11.548  10.492
66842W        W37442  34.508  14.859   3.003
66843W        W37443  37.516   7.312   3.364
66844W        W37444  33.605  39.232   1.894
66845W        W37445  41.052  39.937  11.514
66846W        W37446  38.479  38.940  14.895
66847W        W37447  28.060  12.249  12.364
66848W        W37448   3.330  24.671   3.233
66849W        W37449  19.762  42.101  12.250
66850W        W37450  40.327  17.708  11.658
66851W        W37451  13.150  38.477  13.836
66852W        W37452  36.081   4.489  10.610
66853W        W37453  30.838  40.432   1.886
66854W        W37454  24.450  32.678  13.510
66855W        W37455  12.463  19.800  11.030
66856W        W37456   6.340  23.478  14.635
66857W        W37457  24.958  39.437  11.549
66858W        W37458  23.950  43.943   2.057
66859W        W37459   8.996  43.130  14.804
66860W        W37460  17.172  43.160  10.238
66861W        W37461  19.144   3.322   1.208
66862W        W37462  40.752  11.913  14.432
66863W        W37463  27.210  32.682  11.677
66864W        W37464  39.750  16.342  11.089
66865W        W37465  41.622  43.012   1.578
66866W        W37466  20.242  27.563   2.354
66867W        W37467  26.244   7.823   4.252
66868W        W37468  25.634  12.437   4.851
66869W        W37469   9.722  43.537   3.427
66870W        W37470  17.164  27.605   3.651
66871W        W37471  20.961  43.806   4.167
66872W        W37472  35.449  30.481  13.384
66873W        W37473   0.510  39.349  11.057
66874W        W37474   3.404  18.659   2.146
66875W        W37475  34.125  33.184  11.471
66876W        W37476   9.188  10.725  12.929
66877W        W37477   7.575   0.439   0.406
66878W        W37478  11.776  28.443  13.457
66879W        W37479  43.434   3.736   3.515
66880W        W37480  15.393  35.801   2.717
66881W        W37481  33.885  16.580  12.346
66882W        W37482  33.057  34.934   2.415
66883W        W37483   4.477   2.950  14.769
66884W        W37484  24.662  28.252   1.846
66885W        W37485   0.971   3.756  14.928
66886W        W37486  35.220  23.168  13.161
66887W        W37487  21.175  33.322  12.937
66888W        W37488  39.799   6.746   0.465
66889W        W37489  32.710  22.993   0.950
66890W        W37490  31.573  21.948  10.693
66891W        W37491  10.957   2.668   2.818
66892W        W37492  17.137  29.795  11.261
66893W        W37493  21.163  26.942   2.777
66894W        W37494  37.584  15.826  11.416
66895W        W37495  37.401   0.260   2.569
66896W        W37496   5.725  14.115  10.799
66897W        W37497   3.335  12.231  14.784
66898W        W37498  27.427  32.581  12.138
66899W        W37499  42.930  30.134  11.474
66900W        W37500  44.525  44.767  12.923
66901W        W37501  22.110  22.231  11.186
66902W        W37502   6.355   4.869   1.836
66903W        W37503  13.897   0.201  12.495
66904W        W37504  39.971  17.653   4.214
66905W        W37505   0.405  10.729  12.648
66906W        W37506  37.923  34.841   1.783
66907W        W37507  40.891  28.502  14.318
66908W        W37508  36.086  20.194   3.586
66909W        W37509  14.692  10.187  11.522
66910W        W37510  40.169  27.225  12.571
66911W        W37511  32.197  42.813  10.729
66912W        W37512  26.693  11.291   0.499
66913W        W37513   8.116   6.824  12.501
66914W        W37514  16.285  31.505  14.385
66915W        W37515  26.215  36.572   0.502
66916W        W37516  15.296  39.961   1.808
66917W        W37517  27.781  27.385  11.350
66918W        W37518  19.264  11.869  12.381
66919W        W37519  12.229   8.874  11.813
66920W        W37520  30.138   2.888  10.755
66921W        W37521  25.306  13.223  14.929
66922W        W37522  19.920  41.518  11.059
66923W        W37523  25.671  11.796  13.443
66924W        W37524  37.920  34.018  14.458
66925W        W37525  23.289  10.975   4.672
66926W        W37526  31.827  22.710  14.939
66927W        W37527  28.957   8.160   1.014
66928W        W37528   4.260  11.958   2.155
66929W        W37529   0.210  22.647   2.563
66930W        W37530  38.881  16.201  10.698
66931W        W37531  21.610   9.989   1.817
66932W        W37532  17.601   8.807   2.106
66933W        W37533  21.775   6.437   3.162
66934W        W37534  29.767  41.073   2.389
66935W        W37535  12.241  18.641  11.687
66936W        W37536  42.942  43.854  11.129
66937W        W37537  11.909   2.331  10.485
66938W        W37538  30.556  39.916  14.975
66939W        W37539   7.945  37.304  13.751
66940W        W37540  12.833  21.425   3.957
66941W        W37541  40.730  28.599  13.294
66942W        W37542  14.341  14.816  12.507
66943W        W37543   3.724  19.371   1.369
66944W        W37544  32.982  21.548  12.072
66945W        W37545  38.493  18.813   2.811
66946W        W37546  24.201  40.538   1.986
66947W        W37547  23.179  34.319   3.613
66948W        W37548  33.456  28.398   0.718
66949W        W37549  24.631   3.298  11.741
66950W        W37550   9.165   7.123   0.019
66951W        W37551  19.078   5.223  13.883
66952W        W37552  31.135   1.668   4.659
66953W        W37553   1.536  20.566   2.708
66954W        W37554  21.983   8.282   3.122
66955W        W37555   2.224  15.332   3.217
66956W        W37556  43.456   1.280   3.196
66957W        W37557  39.251  24.970   1.411
66958W        W37558  33.143   3.122  12.005
66959W        W37559  30.116  39.952   1.801
66960W        W37560  36.321  10.595   4.113
66961W        W37561  38.836  14.130  13.495
66962W        W37562  30.560  27.230   2.748
66963W        W37563  19.769   2.276  10.085
66964W        W37564  12.682  13.007   4.546
66965W        W37565   6.271  12.336   0.807
66966W        W37566  22.982  21.586   2.780
66967W        W37567  15.135  26.981  11.504
66968W        W37568  20.105  32.567  13.706
66969W        W37569  37.940  36.852  14.428
66970W        W37570   2.779  26.187   2.837
66971W        W37571  25.345  27.582  11.355
66972W        W37572  23.272  32.919   1.923
66973W        W37573  12.930  14.823  12.470
66974W        W37574  15.934  33.122   0.182
66975W        W37575  24.573   5.860   2.424
66976W        W37576  19.563  17.221   2.293
66977W        W37577  27.517  16.597   2.778
66978W        W37578  43.020  27.356   4.949
66979W        W37579   0.002  43.052  13.002
66980W        W37580   1.428  37.803   3.390
66981W        W37581   0.678   8.200  12.220
66982W        W37582  23.855  44.930   1.748
66983W        W37583  16.910   1.350  14.515
66984W        W37584  26.599   9.667  12.818
66985W        W37585  33.178  10.885  11.479
66986W        W37586  20.050  43.927  12.371
66987W        W37587  10.656   9.886  12.624
66988W        W37588  10.366  28.256   1.810
66989W        W37589  44.820  23.196   3.854
66990W        W37590  32.164  33.231  12.879
66991W        W37591  34.478  43.757  11.952
66992W        W37592  13.539  34.495   1.808
66993W        W37593   6.742  43.142  12.050
66994W        W37594  43.061  14.591   3.643
66995W        W37595  30.677  36.973  11.509
66996W        W37596  25.716  28.144  10.572
66997W        W37597  29.586  37.931   4.986
66998W        W37598  44.361  15.776  11.591
66999W        W37599  39.344  29.567  10.926
67000W        W37600  25.117  24.764   4.553
67001W        W37601  41.389  17.765   3.635
67002W        W37602  28.725  14.666   3.881
67003W        W37603  18.540  37.589  12.134
67004W        W37604  28.547  19.963   3.976
67005W        W37605  34.008  40.808   0.760
67006W        W37606  25.675  16.889   4.122
67007W        W37607  22.927  28.587   3.090
67008W        W37608  11.387   7.470   0.453
67009W        W37609  11.285  33.202   2.371
67010W        W37610  35.298   5.650   4.290
67011W        W37611  36.554  39.066   3.700
67012W        W37612  31.657  21.003  11.107
67013W        W37613  34.117  26.648   0.432
67014W        W37614  39.816  15.727  14.604
67015W        W37615  44.298  19.043  13.315
67016W        W37616  14.201  14.054  13.808
67017W        W37617   1.552  22.778   3.401
67018W        W37618  28.175  32.966  11.139
67019W        W37619  12.718  39.289   1.756
67020W        W37620  40.355   1.480  13.891
67021W        W37621  10.093   4.832   1.801
67022W        W37622  27.263  10.249   1.366
67023W        W37623  27.967  17.745   0.046
67024W        W37624  26.998  39.613   0.704
67025W        W37625   4.991  24.103   3.077
67026W        W37626  21.225  15.434  13.781
67027W        W37627  44.523  11.716   0.243
67028W        W37628  26.199  18.046   3.812
67029W        W37629  12.571   3.295   1.271
67030W        W37630  41.385   9.635   3.924
67031W        W37631   1.978   5.858   1.888
67032W        W37632  18.996  10.863  11.085
67033W        W37633  25.649  10.187  11.288
67034W        W37634   6.029  10.774  13.338
67035W        W37635  33.891  37.814   4.441
67036W        W37636  26.256  18.852   2.147
67037W        W37637  15.212   2.840   2.183
67038W        W37638  11.131  16.169   4.369
67039W        W37639   9.324  30.381   0.580
67040W        W37640  26.535  25.613   3.557
67041W        W37641  35.544  32.869   0.776
67042W        W37642  44.858   3.785   4.165
67043W        W37643  37.945  37.793   4.664
67044W        W37644  35.809  13.547  14.955
67045W        W37645  21.470  12.659   2.295
67046W        W37646  25.220  17.527  14.520
67047W        W37647  23.961  34.879  12.549
67048W        W37648   8.766  32.926   4.875
67049W        W37649  36.179  30.932   4.223
67050W        W37650   4.649  20.684   0.352
67051W        W37651  31.626  39.064  13.755
67052W        W37652  20.570  10.619   2.241
67053W        W37653  26.732  43.887   1.832
67054W        W37654  15.702  10.322   2.739
67055W        W37655   2.420  18.108   1.785
67056W        W37656   5.785  28.942   0.983
67057W        W37657  26.685  18.844  11.806
67058W        W37658  23.521  19.484  11.945
67059W        W37659  26.455  25.109   3.087
67060W        W37660  38.093  29.515   2.352
67061W        W37661  23.372  14.632   3.111
67062W        W37662  39.158   2.317  11.949
67063W        W37663  28.095  15.989  12.443
67064W        W37664  15.820  15.276  14.408
67065W        W37665   4.933  10.796  11.424
67066W        W37666  43.033  25.523  13.717
67067W        W37667  28.563  37.677  12.954
67068W        W37668   6.417  16.188  14.997
67069W        W37669  35.138  19.258   2.446
67070W        W37670   1.910  18.293   1.379
67071W        W37671   7.496  14.210  12.826
67072W        W37672  19.208  37.361  10.667
67073W        W37673  21.127  38.229  10.450
67074W        W37674  38.472  18.051   3.297
67075W        W37675  10.252  25.959   3.635
67076W        W37676  30.965  38.785  14.427
67077W        W37677  15.139   5.399   4.599
67078W        W37678  18.420  34.103  12.634
67079W        W37679   7.860  11.660   0.616
67080W        W37680  29.721  30.144  11.198
67081W        W37681   2.345  43.272   2.454
67082W        W37682  18.666  29.244   0.722
67083W        W37683  31.465   0.431   1.305
67084W        W37684  28.738   9.751  13.294
67085W        W37685  33.421  37.653  12.861
67086W        W37686  22.094  32.958   4.617
67087W        W37687  18.775  21.510   1.233
67088W        W37688  35.205  26.535   4.533
67089W        W37689  38.540  33.065  13.864
67090W        W37690  21.368  30.011   2.084
67091W        W37691   6.638   6.847   0.883
67092W        W37692   0.256   0.385   4.158
67093W        W37693  27.142  27.768  11.651
67094W        W37694  37.833  16.413  12.517
67095W        W37695  24.013   9.840   1.677
67096W        W37696   4.073   8.385  12.941
67097W        W37697  24.074   4.924  12.022
67098W        W37698  41.474  19.631  13.586
67099W        W37699  43.813   7.909  11.532
67100W        W37700  41.600  19.077  10.286
67101W        W37701  39.128  39.266  11.058
67102W        W37702  12.346  39.635   1.535
67103W        W37703   8.535  32.168  12.831
67104W        W37704  24.524  40.189   0.147
67105W        W37705  32.887   3.988   0.332
67106W        W37706   5.683  43.260  11.156
67107W        W37707  16.090   5.868   4.555
67108W        W37708  18.543  25.629  12.910
67109W        W37709   9.548  33.511  12.543
67110W        W37710  27.688  14.864   1.762
67111W        W37711  24.910   7.471   2.666
67112W        W37712   0.824  43.366   4.517
67113W        W37713  26.228  30.680   3.693
67114W        W37714  33.011  42.001  11.691
67115W        W37715  15.157   6.729  11.253
67116W        W37716  14.345  29.427  12.530
67117W        W37717   0.113  29.480  11.768
67118W        W37718  43.631  40.588  14.317
67119W        W37719   1.386   6.691  12.942
67120W        W37720  13.118  29.895   2.374
67121W        W37721  16.750  18.503  11.467
67122W        W37722  16.273   4.813   3.507
67123W        W37723  24.536   6.891   1.777
67124W        W37724   3.325  39.832   2.726
67125W        W37725  11.734  34.334  11.140
67126W        W37726   8.457  39.852   0.706
67127W        W37727   8.291  22.519   1.275
67128W        W37728  32.974  30.879  13.840
67129W        W37729   5.563  25.646   4.655
67130W        W37730   3.820   2.916   3.312
67131W        W37731  18.015  22.295   4.215
67132W        W37732   7.361  28.857  10.764
67133W        W37733   4.740   7.734  12.966
67134W        W37734  20.912  42.049   2.227
67135W        W37735  24.655  31.612   2.380
67136W        W37736  16.742  39.972   2.477
67137W        W37737  20.812  17.283  13.921
67138W        W37738  10.383  42.429   0.473
67139W        W37739  29.475  12.911  11.573
67140W        W37740  32.966  27.486   0.896
67141W        W37741  22.672  13.681   3.761
67142W        W37742  36.428  27.996  12.373
67143W        W37743  37.988  41.996  13.435
67144W        W37744  29.068  14.749  14.529
67145W        W37745  13.300  23.292   0.818
67146W        W37746  34.125   0.494  14.445
67147W        W37747  21.882  32.993   3.195
67148W        W37748  42.546   1.268  11.259
67149W        W37749  12.688   2.007  11.400
67150W        W37750  17.297   2.783  14.202
67151W        W37751  16.510  21.815   3.776
67152W        W37752  29.433  40.793   1.737
67153W        W37753  17.552  38.949  10.902
67154W        W37754  12.770  16.346   4.699
67155W        W37755  19.530   0.606  11.095
67156W        W37756  17.582  34.419   3.226
67157W        W37757  20.114  15.823  12.464
67158W        W37758  13.251   5.895   3.444
67159W        W37759  35.649  42.932  13.077
67160W        W37760  27.234  35.405  13.907
67161W        W37761  39.952  28.491   2.591
67162W        W37762  23.816   4.693   0.488
67163W        W37763  40.270  19.454  14.970
67164W        W37764  16.795  19.638  12.885
67165W        W37765   9.113  25.151  11.151
67166W        W37766  44.545   0.260   3.184
67167W        W37767   7.419  41.483   3.245
67168W        W37768  21.670  37.960   1.795
67169W        W37769  41.995  19.520   3.190
67170W        W37770  44.815  43.883  14.542
67171W        W37771  16.872  22.825  11.858
67172W        W37772  42.556  43.839  12.023
67173W        W37773  16.987  10.661  12.876
67174W        W37774   2.188  21.169   4.191
67175W        W37775  36.682  41.793  14.263
67176W        W37776  39.602  13.842  12.692
67177W        W37777  36.914   7.749   4.345
67178W        W37778   9.681  29.398  12.562
67179W        W37779  21.182  30.532  10.892
67180W        W37780  19.056  33.010   1.477
67181W        W37781  44.844   0.462  11.863
67182W        W37782  20.291  39.154  11.197
67183W        W37783  38.603  29.639  11.676
67184W        W37784  27.640   4.200   0.595
67185W        W37785  25.632  16.541   4.525
67186W        W37786  31.444  42.462   4.605
67187W        W37787  18.273   9.580   2.726
67188W        W37788  34.673   0.795  11.488
67189W        W37789  16.554  26.685  14.717
67190W        W37790  42.720  34.465   2.644
67191W        W37791  18.957  19.844  12.490
67192W        W37792  41.758   2.891   3.351
67193W        W37793  35.557   5.252  13.942
67194W        W37794   8.137  11.400  11.586
67195W        W37795  19.548  39.309   4.134
67196W        W37796  42.830  10.408  12.973
67197W        W37797  36.461  14.590  12.848
67198W        W37798  37.774  37.996  12.877
67199W        W37799  35.668  44.008   0.171
67200W        W37800  18.224  24.989  11.098
67201W        W37801  42.161  30.811  14.432
67202W        W37802  29.857  38.606   1.661
67203W        W37803  43.429  36.633  12.121
67204W        W37804  12.062  42.554   4.101
67205W        W37805   8.708  36.405  12.573
67206W        W37806  16.259   0.009  11.710
67207W        W37807   6.158  40.947  12.672
67208W        W37808  10.146  30.688  14.873
67209W        W37809  16.085  20.157   3.194
67210W        W37810   6.467  37.444   4.236
67211W        W37811  44.322  20.796  14.417
67212W        W37812  44.867  20.334   3.819
67213W        W37813  19.397  15.670   2.218
67214W        W37814  13.697  27.418  11.642
67215W        W37815  21.622  33.832   3.646
67216W        W37816   6.794   2.006   0.921
67217W        W37817  18.594   0.502   1.851
67218W        W37818  18.963   0.965   3.142
67219W        W37819  42.312  13.592  11.617
67220W        W37820  17.217  15.608   2.806
67221W        W37821  12.746  44.537  12.845
67222W        W37822  37.465  23.717  12.431
67223W        W37823   4.918  24.018  11.152
67224W        W37824  40.554  23.326   2.943
67225W        W37825   4.442  18.556  11.407
67226W        W37826  24.218  20.098   0.833
67227W        W37827   9.604  20.560   2.493
67228W        W37828  14.626  23.507  14.434
67229W        W37829  19.586  39.816  14.094
67230W        W37830   4.964  38.921  14.830
67231W        W37831  11.063   4.761  13.898
67232W        W37832  34.347  42.643  12.867
67233W        W37833   2.414   5.240  11.029
67234W        W37834  31.387  24.445   0.730
67235W        W37835  23.355   9.030  13.396
67236W        W37836  41.966  33.320  14.061
67237W        W37837   2.880   8.434   3.718
67238W        W37838  30.895  42.745  11.525
67239W        W37839  22.981  24.359   4.561
67240W        W37840   6.703  21.579   0.495
67241W        W37841  20.169  39.994   1.924
67242W        W37842  18.729  33.549  14.360
67243W        W37843  15.295  39.250   0.343
67244W        W37844  14.438   4.507   1.780
67245W        W37845  26.142  22.616   1.737
67246W        W37846  37.233  36.088  12.303
67247W        W37847  43.245  36.074   1.241
67248W        W37848  23.664  11.341   0.387
67249W        W37849  33.550  16.479  11.135
67250W        W37850  32.785  36.595  13.361
67251W        W37851   5.277  40.338  11.440
67252W        W37852  28.469  32.187  11.339
67253W        W37853  28.675   7.176  13.080
67254W        W37854  22.303   6.446   0.473
67255W        W37855  30.973   2.357  14.142
67256W        W37856   7.805  22.401   1.053
67257W        W37857   6.725  28.756   0.570
67258W        W37858  29.112  28.064   1.766
67259W        W37859  26.564   5.237  12.610
67260W        W37860  37.876   9.241  11.227
67261W        W37861   7.134  10.130   4.141
67262W        W37862   8.057   6.266   3.632
67263W        W37863  16.758  11.685  11.978
67264W        W37864   2.143   0.510  13.295
67265W        W37865  28.617  13.136   0.777
67266W        W37866   3.167  37.396   4.921
67267W        W37867  33.354  18.477  12.880
67268W        W37868  40.703  20.227  10.297
67269W        W37869  21.693   8.430  13.348
67270W        W37870  44.019  10.380   4.269
67271W        W37871   8.900  30.503   4.348
67272W        W37872  31.210  29.904  11.120
67273W        W37873  23.160  42.860   4.568
67274W        W37874  25.054  20.335   3.179
67275W        W37875  26.532  29.388   0.780
67276W        W37876   7.938   4.717  12.001
67277W        W37877   6.952  31.401  11.701
67278W        W37878   7.206  15.861  12.065
67279W        W37879  43.096  16.682  14.794
67280W        W37880  22.694  37.052   4.483
67281W        W37881  41.854  40.694  13.295
67282W        W37882  24.298  12.471   5.006
67283W        W37883  31.943  13.286   4.140
67284W        W37884  22.730  30.614   3.631
67285W        W37885  33.733  39.053   1.440
67286W        W37886  17.156  17.142   1.393
67287W        W37887  30.725   8.012  10.846
67288W        W37888  17.017  28.546   1.101
67289W        W37889  36.079  37.151   5.135
67290W        W37890  40.006  44.854  14.522
67291W        W37891  31.990  39.884  14.357
67292W        W37892   3.291   8.929   1.884
67293W        W37893  24.277  18.364   4.226
67294W        W37894  18.247  44.826  12.432
67295W        W37895   3.989  39.038   3.196
67296W        W37896  15.400  30.719   4.098
67297W        W37897  29.454  24.748  11.940
67298W        W37898  11.544  19.198   3.315
67299W        W37899  38.029  33.802   2.766
67300W        W37900   9.686  20.035   2.701
67301W        W37901   0.431  13.702  10.885
67302W        W37902  40.471  26.624   2.236
67303W        W37903  26.439  17.381  10.841
67304W        W37904  42.475  13.598   2.912
67305W        W37905  37.010  41.746   3.198
67306W        W37906  17.447  36.875   0.278
67307W        W37907  23.341  43.875  12.971
67308W        W37908  15.197  12.678   1.229
67309W        W37909  26.206   3.862  12.088
67310W        W37910  25.977   5.962  13.444
67311W        W37911   0.514   8.873   3.815
67312W        W37912  13.261  24.955   3.759
67313W        W37913  29.503   6.804  12.380
67314W        W37914  34.985  16.774  14.770
67315W        W37915  19.577  23.091  12.654
67316W        W37916  38.052  22.631   0.369
67317W        W37917  13.316   8.895  12.578
67318W        W37918   0.490  21.162   2.288
67319W        W37919  15.644  39.621   2.605
67320W        W37920   8.209  33.548   0.675
67321W        W37921  33.434  35.911  14.906
67322W        W37922  31.653  14.317  14.810
67323W        W37923  11.122  12.771   4.470
67324W        W37924  39.258   1.293  13.333
67325W        W37925  10.981  42.265   5.215
67326W        W37926   8.254  41.799  14.982
67327W        W37927  37.796  40.953   4.838
67328W        W37928   5.272   7.790  12.852
67329W        W37929   3.169   9.204  12.269
67330W        W37930  30.945  32.133  14.420
67331W        W37931  25.482   2.201   0.888
67332W        W37932  41.392  42.264   0.791
67333W        W37933  16.560   2.284  14.303
67334W        W37934  38.403  34.689  13.435
67335W        W37935   8.283  26.550   9.881
67336W        W37936  29.396  31.427  13.428
67337W        W37937   8.253  25.528  11.489
67338W        W37938   7.639  28.078   3.139
67339W        W37939   5.227  41.806   2.434
67340W        W37940  30.704  34.138   4.178
67341W        W37941  23.214  29.046   2.361
67342W        W37942  18.838  30.136  10.679
67343W        W37943  19.979  10.110  13.157
67344W        W37944  31.574  38.804  12.816
67345W        W37945  30.412  20.749  11.501
67346W        W37946  36.814  38.605   4.669
67347W        W37947  11.609   9.794   3.793
67348W        W37948   1.391  10.335  11.180
67349W        W37949  10.893  26.144  14.031
67350W        W37950  11.127   8.043   3.076
67351W        W37951  20.601  29.128   3.469
67352W        W37952   8.509  17.126  10.795
67353W        W37953  29.476   9.848   2.746
67354W        W37954   9.798  38.826  11.433
67355W        W37955  44.309  34.396  11.028
67356W        W37956  26.761  25.742   2.703
67357W        W37957  30.045  11.128  12.985
67358W        W37958  23.542   5.862   3.064
67359W        W37959   2.783  17.499   0.985
67360W        W37960  18.771  32.191  14.822
67361W        W37961  40.758  20.605   3.084
67362W        W37962  42.841  35.773   1.419
67363W        W37963  29.393  32.113   3.192
67364W        W37964  37.830  41.060   3.631
67365W        W37965  22.019  25.587  12.420
67366W        W37966  16.048  20.109  14.770
67367W        W37967  13.659   3.152  12.561
67368W        W37968  32.086  31.069  12.299
67369W        W37969  34.288  19.241  14.244
67370W        W37970   6.116  35.477   3.089
67371W        W37971  28.027  11.388  11.670
67372W        W37972  24.255  19.681  13.903
67373W        W37973  35.457  40.034  10.776
67374W        W37974  11.383  34.981  12.416
67375W        W37975  19.228  29.195   2.727
67376W        W37976   4.321   4.230  13.041
67377W        W37977  15.411  23.946  14.313
67378W        W37978  33.022   7.496  13.882
67379W        W37979  17.662  20.979  13.902
67380W        W37980  12.272  15.634  13.140
67381W        W37981   5.862  42.028   3.710
67382W        W37982  33.131  32.594   3.243
67383W        W37983   8.253  21.470   0.458
67384W        W37984   3.658  30.558  12.107
67385W        W37985  32.587  41.858  11.435
67386W        W37986  18.434   9.258  14.716
67387W        W37987  20.091  23.420  10.973
67388W        W37988  42.358   8.249  12.149
67389W        W37989  12.415  15.140   0.335
67390W        W37990  37.503  18.535   3.666
67391W        W37991  22.215  12.293   3.622
67392W        W37992  28.429  14.674   4.281
67393W        W37993   8.414  31.343  12.427
67394W        W37994  41.991  15.249   0.841
67395W        W37995  28.525  29.283  10.022
67396W        W37996  44.929  12.555  11.992
67397W        W37997  14.109  35.769  11.478
67398W        W37998  40.127   4.884  13.133
67399W        W37999  22.268  32.641  13.918
67400W        W38000  21.601  13.587   0.470
67401W        W38001  16.570  39.511   2.366
67402W        W38002  15.827  18.291  11.110
67403W        W38003  31.147  41.386   1.724
67404W        W38004   8.040  27.626   2.258
67405W        W38005  35.512  41.890  13.052
67406W        W38006  26.351  20.411  14.270
67407W        W38007  31.099   8.448  14.443
67408W        W38008   0.344  32.679  12.143
67409W        W38009  25.915  34.365  13.389
67410W        W38010  31.607   3.641   0.975
67411W        W38011  18.018  12.810   3.790
67412W        W38012  31.618  37.833   2.784
67413W        W38013   2.377  36.351   0.329
67414W        W38014  40.787  36.937   4.429
67415W        W38015  32.767  13.775   2.822
67416W        W38016  25.514  28.567  13.902
67417W        W38017   2.268  23.814   0.945
67418W        W38018  41.561  16.052   2.350
67419W        W38019  11.661  18.873   4.428
67420W        W38020  34.961  41.514  11.553
67421W        W38021  33.796  30.457  10.826
67422W        W38022  42.718  21.802   2.460
67423W        W38023  41.575  23.866   0.790
67424W        W38024  32.222  31.162   0.454
67425W        W38025  16.876  43.311   3.344
67426W        W38026  12.104  37.042  13.029
67427W        W38027  17.527  11.083   2.195
67428W        W38028  10.583  36.885  14.835
67429W        W38029  16.567   2.875  10.500
67430W        W38030  33.002   4.681  11.189
67431W        W38031   6.862  43.225   1.317
67432W        W38032  28.418  37.793  12.434
67433W        W38033  26.677   0.221  12.586
67434W        W38034   0.793   2.658  12.824
67435W        W38035  17.937  33.149  13.908
67436W        W38036  21.364  17.700   0.819
67437W        W38037   1.037  26.921   0.801
67438W        W38038  30.882   0.010   4.756
67439W        W38039   9.421  35.418  14.073
67440W        W38040  24.290  12.852  12.666
67441W        W38041  24.169  38.588   3.441
67442W        W38042  24.639   1.443   4.815
67443W        W38043  29.167  30.614  10.810
67444W        W38044  38.529   5.469  13.883
67445W        W38045  39.261  17.507  12.933
67446W        W38046  18.285   9.403   2.254
67447W        W38047   9.363  33.184   0.960
67448W        W38048  41.750  36.262   4.281
67449W        W38049  32.949  23.974  10.736
67450W        W38050  26.630  15.093  12.057
67451W        W38051  34.509  35.479  10.492
67452W        W38052   7.844  40.556   2.770
67453W        W38053  32.146  17.350   3.199
67454W        W38054  25.652  25.215  10.633
67455W        W38055   9.644  37.503   2.843
67456W        W38056  37.960  12.834   1.885
67457W        W38057  42.738   3.090   1.368
67458W        W38058  36.464  42.789  13.835
67459W        W38059  39.382  44.912   1.016
67460W        W38060  13.047  38.631  11.132
67461W        W38061  29.423   8.292   0.851
67462W        W38062  25.707   2.959  14.731
67463W        W38063  28.985   0.300  12.803
67464W        W38064  30.403  35.361  10.753
67465W        W38065  26.047  26.895  11.399
67466W        W38066  39.475  23.705   3.295
67467W        W38067   0.018  22.053  11.059
67468W        W38068   1.383  11.492   0.818
67469W        W38069  37.845  31.399   0.760
67470W        W38070  34.097  23.155  14.807
67471W        W38071  33.882  26.446   4.502
67472W        W38072  25.477  30.184  12.910
67473W        W38073  27.132  25.070   4.663
67474W        W38074  35.602  22.124  11.211
67475W        W38075  39.313  40.302  11.103
67476W        W38076  41.323  44.545  14.314
67477W        W38077  14.066  10.558  13.116
67478W        W38078  12.707   6.293   1.772
67479W        W38079   9.777   0.871  12.607
67480W        W38080  38.410   4.603  11.407
67481W        W38081  37.246  44.042   4.179
67482W        W38082   4.872  27.547   2.945
67483W        W38083  13.100  27.972   1.290
67484W        W38084  21.235  17.396   0.380
67485W        W38085  31.518   4.292   0.337
67486W        W38086  17.453  32.932  11.577
67487W        W38087  16.674  29.778   2.787
67488W        W38088   5.265  42.985  14.281
67489W        W38089  25.268  36.051  13.853
67490W        W38090   6.790  27.981  10.139
67491W        W38091   1.576  42.998  10.634
67492W        W38092  11.739  34.937   4.742
67493W        W38093  40.053  29.587   3.961
67494W        W38094  13.760   0.719  12.462
67495W        W38095  15.223  22.285  13.897
67496W        W38096  16.302  31.822  13.482
67497W        W38097  37.064  27.935   3.695
67498W        W38098  14.644  34.154  12.948
67499W        W38099  11.369  22.867   0.738
67500W        W38100   1.056  19.669   5.080
67501W        W38101  38.287  15.720   0.440
67502W        W38102  38.256   7.542   2.372
67503W        W38103   8.352  32.599   4.859
67504W        W38104   4.663  38.530  10.133
67505W        W38105   3.255  11.444  11.145
67506W        W38106  31.392   9.382   1.252
67507W        W38107  25.742  23.732  12.671
67508W        W38108  22.578  40.569  11.665
67509W        W38109  16.007   2.874   4.469
67510W        W38110  11.050  21.146  13.375
67511W        W38111  22.296  24.181  12.100
67512W        W38112   3.728  16.235   4.137
67513W        W38113  28.435  34.936  10.411
67514W        W38114  11.193  23.596  10.569
67515W        W38115   3.887   9.612  14.847
67516W        W38116  31.451  13.281  13.090
67517W        W38117  36.471  11.867  10.479
67518W        W38118  40.576   3.997  12.973
67519W        W38119   0.036   0.900   2.810
67520W        W38120  16.609  12.168  11.961
67521W        W38121  32.537   4.738  11.577
67522W        W38122   7.858  28.479   0.414
67523W        W38123   7.692  18.583  11.674
67524W        W38124  22.284  35.556   0.279
67525W        W38125  26.419  16.853   0.156
67526W        W38126  21.373  31.841  12.603
67527W        W38127  28.449  20.279   4.374
67528W        W38128  28.005  39.964   3.700
67529W        W38129   5.894  32.175  11.166
67530W        W38130  19.518   8.892   0.327
67531W        W38131  17.355  22.295  13.112
67532W        W38132  23.966  39.096   4.988
67533W        W38133  41.760  27.550   3.252
67534W        W38134  35.934  16.863   3.592
67535W        W38135  41.411   8.150  14.923
67536W        W38136   2.524  12.340  14.326
67537W        W38137  40.027   5.711  14.558
67538W        W38138  36.762   5.787  14.038
67539W        W38139  32.459  39.826   2.412
67540W        W38140  24.497  41.442   3.623
67541W        W38141  11.212  42.810  14.937
67542W        W38142   3.446   2.197   4.698
67543W        W38143  13.632   1.319   3.673
67544W        W38144   7.727  35.454  12.284
67545W        W38145  39.123  17.494  11.105
67546W        W38146  42.311  43.483   0.320
67547W        W38147  32.501  39.596   0.306
67548W        W38148  42.910  36.098  11.475
67549W        W38149  39.560   2.850   4.109
67550W        W38150   9.990  35.408  12.453
67551W        W38151  38.831  34.774   4.589
67552W        W38152  26.105   4.537  13.498
67553W        W38153  17.791  12.341   3.712
67554W        W38154   5.274   7.909  10.621
67555W        W38155   8.854  13.987  14.036
67556W        W38156  34.430  10.592   3.307
67557W        W38157   9.684  44.805  12.084
67558W        W38158  18.585  12.878  11.213
67559W        W38159  28.935  28.031   0.427
67560W        W38160  33.634  27.145  14.853
67561W        W38161  10.274  31.605   4.688
67562W        W38162  27.782  33.599   1.433
67563W        W38163  17.841  37.503  13.355
67564W        W38164  31.500  41.877  12.446
67565W        W38165   6.655  19.405  12.186
67566W        W38166  41.454  38.736   1.847
67567W        W38167  37.959  43.545   4.091
67568W        W38168  34.098  32.629  14.779
67569W        W38169  42.874   3.922   9.904
67570W        W38170   0.274  21.956   2.631
67571W        W38171  32.004  26.686  11.397
67572W        W38172  28.961  36.059   0.239
67573W        W38173  44.407  28.638   3.758
67574W        W38174  34.501  22.084  14.770
67575W        W38175  28.974   0.338   4.672
67576W        W38176   1.959  22.959  10.928
67577W        W38177  15.374  28.275   3.375
67578W        W38178  21.674  19.563   1.693
67579W        W38179  28.503  16.473  13.085
67580W        W38180  28.939  31.408   1.281
67581W        W38181   6.374  35.562  12.173
67582W        W38182   5.261  35.689   4.088
67583W        W38183   7.495   8.320  11.559
67584W        W38184   7.661  16.796  13.932
67585W        W38185   7.353  31.068   1.337
67586W        W38186  29.073  18.477  14.608
67587W        W38187  28.643  24.580  13.355
67588W        W38188  13.962  27.139   1.974
67589W        W38189  27.034  27.617   4.515
67590W        W38190  21.187   8.847   2.118
67591W        W38191  43.180  32.133  11.931
67592W        W38192  15.286  40.440   4.785
67593W        W38193  41.926  11.272  14.718
67594W        W38194  41.316  35.885  12.368
67595W        W38195  10.737  41.307  12.448
67596W        W38196  39.796  42.405   0.981
67597W        W38197  21.263  35.503   3.661
67598W        W38198  44.609  35.483  14.422
67599W        W38199  19.597  36.659  13.933
67600W        W38200  40.449  44.412   1.546
67601W        W38201  13.309   1.580  11.153
67602W        W38202   0.105  12.615   4.085
67603W        W38203  42.345  15.290   3.083
67604W        W38204  40.262   3.256  12.554
67605W        W38205  31.413  37.618  11.083
67606W        W38206  19.823  18.539  12.911
67607W        W38207  12.006  27.661  13.878
67608W        W38208  42.149  22.696   0.519
67609W        W38209  12.560   3.714   0.972
67610W        W38210  35.056  27.665  12.408
67611W        W38211  18.705  31.912  10.325
67612W        W38212  18.603   2.675  10.556
67613W        W38213  37.360  41.163   3.900
67614W        W38214  19.334  43.786  11.933
67615W        W38215   1.990  15.179   3.647
67616W        W38216  28.622  41.057  14.501
67617W        W38217  19.205   8.733  14.929
67618W        W38218  33.301  11.925   2.076
67619W        W38219  40.389  22.614   1.726
67620W        W38220  16.473   8.600  13.397
67621W        W38221  14.729  28.890  14.483
67622W        W38222  38.324  40.551  12.593
67623W        W38223  41.101  31.245   4.585
67624W        W38224  44.750  39.458   2.270
67625W        W38225  10.366  25.472  12.555
67626W        W38226   2.447  14.314   3.661
67627W        W38227  14.239  11.423  12.572
67628W        W38228  18.228  27.568   4.867
67629W        W38229  43.795  30.436  12.198
67630W        W38230  22.159  29.614   1.164
67631W        W38231  30.631  39.038   1.790
67632W        W38232   4.665  37.395   4.579
67633W        W38233  19.647   7.317  13.674
67634W        W38234  42.677  21.039  10.718
67635W        W38235  16.187  28.632  13.304
67636W        W38236  16.861  19.836   1.221
67637W        W38237  12.900  14.195  13.923
67638W        W38238  35.879  38.542   0.905
67639W        W38239  20.708  42.559   2.832
67640W        W38240  29.218  13.216   4.693
67641W        W38241   2.437  43.199  10.333
67642W        W38242  32.817  42.028  14.806
67643W        W38243   8.797  39.922  13.786
67644W        W38244  27.007  36.676  11.562
67645W        W38245  28.597   8.181  12.371
67646W        W38246  21.538  36.631  11.210
67647W        W38247  23.677  26.733   1.300
67648W        W38248  43.824  37.592   2.123
67649W        W38249  39.297  32.843   0.396
67650W        W38250  13.101  32.029   0.825
67651W        W38251  44.413  40.526   4.864
67652W        W38252  12.204  18.581  12.592
67653W        W38253  20.154  14.329   1.438
67654W        W38254  26.720   6.236   3.043
67655W        W38255  33.490  16.663   0.619
67656W        W38256  21.790   1.738  14.796
67657W        W38257   2.962  18.630   4.505
67658W        W38258   5.684  44.315  14.856
67659W        W38259   2.925  10.348  11.570
67660W        W38260   8.544  29.198  13.160
67661W        W38261  20.988  42.128   4.730
67662W        W38262  36.780  42.679  11.525
67663W        W38263  37.309  40.958   3.447
67664W        W38264   3.670  26.766   4.122
67665W        W38265  21.571  35.531   3.216
67666W        W38266  38.380   5.847   4.169
67667W        W38267  26.563  36.581  14.202
67668W        W38268  31.684  23.282   4.815
67669W        W38269  24.910   7.018  12.394
67670W        W38270  21.642   2.821  13.913
67671W        W38271  35.445   4.728  11.136
67672W        W38272   7.484  35.537   0.462
67673W        W38273   8.657  18.589  14.385
67674W        W38274  27.255  23.926  13.337
67675W        W38275  13.359  28.742  14.418
67676W        W38276  12.298  31.184  12.554
67677W        W38277   4.926   9.515  12.011
67678W        W38278  40.536  26.146  11.727
67679W        W38279   9.899  40.585   1.812
67680W        W38280  16.822  20.799   2.690
67681W        W38281  15.140   3.011   3.103
67682W        W38282  14.546  39.092   3.165
67683W        W38283   0.559  28.080  13.504
67684W        W38284  10.487   0.288   0.198
67685W        W38285  18.292  24.727   1.437
67686W        W38286  21.610  35.578   1.867
67687W        W38287  15.691   3.088   2.804
67688W        W38288  40.275  33.077   0.496
67689W        W38289   0.286  41.950  11.656
67690W        W38290  20.657  31.963   3.349
67691W        W38291  44.582  25.625   0.118
67692W        W38292  43.074  40.493  13.614
67693W        W38293  41.419  39.032   9.968
67694W        W38294   4.351  36.616  14.396
67695W        W38295  13.968  20.057   5.076
67696W        W38296   0.244  29.908   4.527
67697W        W38297  22.417  30.705  14.794
67698W        W38298   4.966   5.662   1.702
67699W        W38299  21.037  30.582   0.831
67700W        W38300  18.085  22.574   2.061
67701W        W38301  19.842  25.398  10.416
67702W        W38302  23.162  38.167  13.881
67703W        W38303   0.744  29.698  13.844
67704W        W38304   1.031   8.641  10.783
67705W        W38305  37.862  37.369   3.731
67706W        W38306  44.330  41.574  14.080
67707W        W38307  21.628  41.037  11.569
67708W        W38308  11.712  29.420   4.537
67709W        W38309  18.736  10.724   1.834
67710W        W38310  32.133  16.839   2.372
67711W        W38311   4.294  44.751   1.870
67712W        W38312  39.092  12.375  12.050
67713W        W38313  29.713  31.652   4.854
67714W        W38314  16.569   9.856  14.714
67715W        W38315   8.465   3.274  11.129
67716W        W38316  30.494  43.702   2.541
67717W        W38317   0.479  33.523   2.293
67718W        W38318  18.138   5.403   3.319
67719W        W38319  11.848   5.988  13.112
67720W        W38320   4.229   7.349   2.190
67721W        W38321  27.564  28.521   3.318
67722W        W38322  39.401  13.637  13.964
67723W        W38323  22.721  25.079  13.087
67724W        W38324  10.719  34.087  14.325
67725W        W38325  11.611  28.471  11.593
67726W        W38326  42.343   8.583  13.055
67727W        W38327  20.663  25.563  13.896
67728W        W38328  16.351  25.149  14.471
67729W        W38329  16.100  26.105   1.391
67730W        W38330   4.084  42.094   1.044
67731W        W38331  36.386  41.236  12.462
67732W        W38332  17.723  13.274  14.318
67733W        W38333   1.406  13.145  10.648
67734W        W38334  14.155  21.501  12.411
67735W        W38335  15.045  14.011   3.052
67736W        W38336  14.357   1.475   1.297
67737W        W38337   5.175  21.069   3.821
67738W        W38338  10.596  17.318   4.808
67739W        W38339   1.248  38.395  14.445
67740W        W38340  41.019  44.368  12.549
67741W        W38341   1.503   9.361  10.970
67742W        W38342  36.220  27.428   1.273
67743W        W38343  32.018  13.044   4.582
67744W        W38344   7.114  40.581  11.510
67745W        W38345  29.013  21.329   2.962
67746W        W38346  20.651   7.135  12.882
67747W        W38347  13.560  11.365  11.894
67748W        W38348  41.840  36.440  14.330
67749W        W38349  29.870  15.630  13.769
67750W        W38350  19.276  10.880   2.683
67751W        W38351  33.450  10.687   1.190
67752W        W38352  29.919  13.424   4.162
67753W        W38353   0.919  14.669   2.198
67754W        W38354  25.811   1.858  12.873
67755W        W38355  28.477  30.058   4.639
67756W        W38356  39.536  42.498   0.537
67757W        W38357  32.585  23.994  14.288
67758W        W38358   3.523   3.447   2.409
67759W        W38359  32.148  19.260  14.873
67760W        W38360   7.469  16.225   1.859
67761W        W38361  26.159  19.544  10.740
67762W        W38362  38.005  42.233  13.887
67763W        W38363  33.554  32.788   3.506
67764W        W38364  22.694  28.094   0.979
67765W        W38365   9.090  16.156   4.229
67766W        W38366   7.817   2.424  10.779
67767W        W38367   3.348  38.271  10.608
67768W        W38368   3.125  31.539  14.101
67769W        W38369  25.707  24.155  13.943
67770W        W38370   1.241  31.867   2.132
67771W        W38371  12.756  35.041  11.661
67772W        W38372  27.066  40.492  11.443
67773W        W38373  40.599  14.165   1.802
67774W        W38374   1.506  21.857  13.414
67775W        W38375   9.289  35.058  14.399
67776W        W38376  35.187   8.250   3.251
67777W        W38377  12.596  37.261   4.765
67778W        W38378   4.653  26.691   2.689
67779W        W38379  36.967  27.063  13.116
67780W        W38380  21.489  14.558   1.860
67781W        W38381   9.118  13.178  14.010
67782W        W38382   9.831  26.956   0.731
67783W        W38383  14.746  17.384   0.020
67784W        W38384  31.907  38.134  12.885
67785W        W38385  26.598  34.848   2.452
67786W        W38386  23.540  31.837   4.147
67787W        W38387  20.259   6.222  11.932
67788W        W38388  30.037  25.694   0.374
67789W        W38389  22.385  14.613  14.806
67790W        W38390   3.739   6.740   2.789
67791W        W38391   0.241  41.430  13.101
67792W        W38392  18.606  12.959   3.106
67793W        W38393  30.674  30.509  12.385
67794W        W38394   7.295  26.053  10.675
67795W        W38395   3.227   0.429   2.217
67796W        W38396  21.198  32.645  12.530
67797W        W38397   7.142  31.290  11.181
67798W        W38398   6.282  12.200  14.543
67799W        W38399  11.424   7.156  14.913
67800W        W38400  38.185   0.225   3.303
67801W        W38401   3.798  43.508  13.998
67802W        W38402  31.367  25.580   1.830
67803W        W38403  43.151  28.263  13.454
67804W        W38404   3.965   0.866  13.539
67805W        W38405  21.041  14.798   1.794
67806W        W38406   0.796  30.148   3.791
67807W        W38407  30.903   6.342  11.743
67808W        W38408  23.428  33.581   4.649
67809W        W38409  32.498  40.460  13.672
67810W        W38410  12.754   0.364   3.313
67811W        W38411  13.271   3.822   4.424
67812W        W38412  29.221   7.880   4.178
67813W        W38413  35.980  44.504  10.691
67814W        W38414  29.389  43.015  12.897
67815W        W38415  20.321  24.205   1.462
67816W        W38416   8.276   3.449   1.270
67817W        W38417   3.388  40.909  12.571
67818W        W38418  27.978  23.185   1.678
67819W        W38419   3.538   2.323   3.830
67820W        W38420  27.357  11.678  10.730
67821W        W38421  18.722   3.324  14.847
67822W        W38422  17.017  18.658   3.914
67823W        W38423  25.084  43.084  14.374
67824W        W38424  15.520  28.086  11.420
67825W        W38425  28.211  20.789   2.214
67826W        W38426  35.061   7.988   1.783
67827W        W38427   1.878  41.100   4.604
67828W        W38428  34.769  25.021  12.083
67829W        W38429  13.822  15.031  12.867
67830W        W38430  28.038  17.331   3.613
67831W        W38431  15.588  36.951   2.061
67832W        W38432  44.771  22.142   0.767
67833W        W38433  11.805  13.310   4.530
67834W        W38434  28.081  34.557  10.299
67835W        W38435  34.880  18.665   1.628
67836W        W38436  18.028  37.022   1.782
67837W        W38437   9.839  17.766  14.067
67838W        W38438   8.186  15.295  12.466
67839W        W38439  13.932  38.556   1.867
67840W        W38440  11.885  36.370   4.395
67841W        W38441  35.170   1.844   4.919
67842W        W38442  17.999  32.628  13.907
67843W        W38443   2.636  40.536  13.040
67844W        W38444  37.793  25.634   2.295
67845W        W38445   5.254  18.661  10.477
67846W        W38446  31.317   5.275  11.193
67847W        W38447  35.547  19.767  11.948
67848W        W38448  22.156   3.355   3.648
67849W        W38449  33.876  26.759  13.562
67850W        W38450  42.824  26.173  14.408
67851W        W38451  35.466  39.099   2.101
67852W        W38452   1.897  25.038   3.353
67853W        W38453   6.412  43.494  13.546
67854W        W38454   7.700  37.056  13.359
67855W        W38455  39.158  31.315  13.728
67856W        W38456  31.995  12.636   1.936
67857W        W38457  41.636  29.169   0.805
67858W        W38458  32.758  38.339  11.591
67859W        W38459  11.573   0.252   2.608
67860W        W38460  29.557  31.969   4.459
67861W        W38461  32.488  26.008   0.664
67862W        W38462  38.409   0.360  10.916
67863W        W38463  28.992   8.890  12.813
67864W        W38464  13.589  28.167   4.419
67865W        W38465   3.865   0.458   0.862
67866W        W38466  16.836  13.318  10.319
67867W        W38467   1.864  32.114  13.196
67868W        W38468   3.816   6.686   1.168
67869W        W38469  36.631  21.996   3.500
67870W        W38470  42.180  31.179   4.842
67871W        W38471  13.493   2.684  11.630
67872W        W38472   9.246  41.558  10.932
67873W        W38473  13.821   8.279  10.567
67874W        W38474  22.520  10.164  12.125
67875W        W38475  21.828  22.824   1.826
67876W        W38476   0.174  39.883   3.344
67877W        W38477   3.957  40.772   1.124
67878W        W38478  20.805  44.892  12.002
67879W        W38479   4.909  37.817  13.956
67880W        W38480  17.224  44.953   4.222
67881W        W38481   8.607   1.792   3.112
67882W        W38482  32.858  20.219  13.433
67883W        W38483   8.353   1.325   3.549
67884W        W38484   3.692   3.454  13.495
67885W        W38485   7.835  40.270   4.241
67886W        W38486  14.596  11.776   0.986
67887W        W38487  30.491  16.559  14.473
67888W        W38488  43.608  24.378  11.136
67889W        W38489   5.370  29.513  10.681
67890W        W38490   1.012  26.454   3.155
67891W        W38491  11.196  23.975   3.244
67892W        W38492   2.865   8.602   1.850
67893W        W38493   0.981  34.609   1.874
67894W        W38494  43.921  17.093  14.891
67895W        W38495  24.464  18.695  13.161
67896W        W38496   6.230   5.200  12.385
67897W        W38497  41.961  10.765  13.999
67898W        W38498  41.781  26.143  13.880
67899W        W38499  19.600  38.491  13.662
67900W        W38500   5.234   6.777   2.850
67901W        W38501  29.568  25.046  12.387
67902W        W38502   3.365  33.917   2.770
67903W        W38503  33.969  12.426  13.847
67904W        W38504   3.717  44.058   2.249
67905W        W38505  18.137  36.037  12.590
67906W        W38506  17.616   3.955  13.496
67907W        W38507  36.910  33.634   1.401
67908W        W38508  36.551  22.479   2.187
67909W        W38509  29.570  37.402   2.699
67910W        W38510  29.335   7.867  11.082
67911W        W38511   9.898   0.739   3.725
67912W        W38512  38.494   3.757  10.668
67913W        W38513  28.080   1.756   1.230
67914W        W38514   8.195  40.493   3.905
67915W        W38515  25.781  11.138  12.680
67916W        W38516  21.140   9.724   4.597
67917W        W38517  35.898   7.377   4.137
67918W        W38518  35.452  19.296  11.819
67919W        W38519  30.375   8.820  12.028
67920W        W38520   9.871  11.252   1.717
67921W        W38521  10.175   0.410   1.123
67922W        W38522  14.960  40.110   5.030
67923W        W38523  18.140  14.877  13.436
67924W        W38524  24.832  38.836  12.800
67925W        W38525  43.811  19.702  11.499
67926W        W38526   2.845   7.088   1.991
67927W        W38527  36.866  41.913   0.558
67928W        W38528  12.740  25.895   3.286
67929W        W38529  22.378  41.887  13.353
67930W        W38530  34.894  44.421   1.260
67931W        W38531  32.212  41.499   0.863
67932W        W38532  19.064   7.820  11.762
67933W        W38533  15.253  22.758  12.965
67934W        W38534  20.108   2.684  11.136
67935W        W38535  25.160  27.184   2.363
67936W        W38536   7.576  37.594   3.243
67937W        W38537  17.848  25.398  11.073
67938W        W38538  28.475  44.024  11.998
67939W        W38539  19.794  23.767   3.614
67940W        W38540   9.397   7.451  13.633
67941W        W38541   4.181   0.083   3.663
67942W        W38542  19.604  23.065  10.381
67943W        W38543   0.631  35.489  14.483
67944W        W38544  11.909   0.845  11.617
67945W        W38545  38.238  31.133  12.666
67946W        W38546   9.279  19.444   4.552
67947W        W38547  44.897  15.644  14.239
67948W        W38548  37.746  40.870  11.236
67949W        W38549  34.090  29.587   1.514
67950W        W38550  28.062  32.414  14.086
67951W        W38551   5.735  14.601   2.795
67952W        W38552  39.485  32.143   1.775
67953W        W38553  11.701   1.827   0.490
67954W        W38554  37.676  43.764  14.083
67955W        W38555  21.834   0.801   1.491
67956W        W38556  30.893  10.815   3.654
67957W        W38557   3.397  30.560  13.895
67958W        W38558  24.613   3.784   3.897
67959W        W38559  11.336   0.432  13.887
67960W        W38560   0.243  40.414  14.042
67961W        W38561  21.202  27.271   0.872
67962W        W38562  24.202  26.446  14.425
67963W        W38563  43.646  38.453   1.728
67964W        W38564  14.227  24.614  10.348
67965W        W38565  15.051   1.173  14.289
67966W        W38566   6.018  33.476   4.151
67967W        W38567  37.826  19.612  14.651
67968W        W38568  39.435  22.539  10.446
67969W        W38569  21.914   9.970  14.428
67970W        W38570  35.993  25.176   3.817
67971W        W38571  25.240  22.616  13.429
67972W        W38572  20.760  31.539  12.952
67973W        W38573  44.975  37.774  12.098
67974W        W38574  16.663  42.368  11.576
67975W        W38575  21.637  22.271  14.696
67976W        W38576  30.700   0.741   0.262
67977W        W38577  21.959  17.186  11.431
67978W        W38578   8.160  27.187  13.916
67979W        W38579  31.550   6.875   1.206
67980W        W38580  21.201   6.379  14.240
67981W        W38581   4.584   9.134  12.000
67982W        W38582  31.787  35.878  11.456
67983W        W38583  43.536  16.052  10.663
67984W        W38584  43.439  31.032  14.361
67985W        W38585   6.255  41.406  10.584
67986W        W38586   6.931  13.854   1.946
67987W        W38587  42.951  25.632  11.599
67988W        W38588   7.599  43.298  10.799
67989W        W38589   7.050  16.375  12.012
67990W        W38590  10.189  14.119   4.307
67991W        W38591  36.174  19.533   4.147
67992W        W38592  38.027  25.267   2.684
67993W        W38593  41.625  16.819  12.946
67994W        W38594  22.006  17.068   2.300
67995W        W38595  11.780  26.731   2.187
67996W        W38596  34.370  32.069  14.086
67997W        W38597  37.619  26.532  14.450
67998W        W38598  29.448  23.914   1.643
67999W        W38599  25.190  23.447   4.215
68000W        W38600   6.430  34.328  14.796
68001W        W38601   7.406  21.132  11.219
68002W        W38602  44.847  14.320   5.035
68003W        W38603   4.421  35.272  13.541
68004W        W38604  33.051  38.684   4.578
68005W        W38605   2.525  42.431  13.244
68006W        W38606  16.209  42.907   3.530
68007W        W38607  11.261  38.768   4.285
68008W        W38608  14.859  18.637   4.735
68009W        W38609   0.367  26.424  10.966
68010W        W38610  28.454  40.122   2.169
68011W        W38611  25.599  43.447  11.314
68012W        W38612  11.614  11.226  13.082
68013W        W38613  26.629  36.623   2.645
68014W        W38614  29.990  33.623   3.201
68015W        W38615  24.422   5.270   0.377
68016W        W38616  24.508  25.995   2.196
68017W        W38617  17.309  21.944   1.460
68018W        W38618  13.192  10.676  11.555
68019W        W38619  27.887  11.842  11.534
68020W        W38620  15.235  21.150  14.676
68021W        W38621  24.001  20.575   1.051
68022W        W38622  37.838  28.163  10.432
68023W        W38623  31.166   5.535  14.723
68024W        W38624  28.110  26.883   1.843
68025W        W38625  40.248   3.127  11.032
68026W        W38626  13.457  11.156  12.352
68027W        W38627  44.699  30.062  11.134
68028W        W38628  42.804   2.262  11.131
68029W        W38629  25.932  29.714   2.292
68030W        W38630  44.973  38.449  14.873
68031W        W38631   3.755  12.684   1.705
68032W        W38632  28.678  41.622   3.356
68033W        W38633  43.404  36.800  12.611
68034W        W38634  44.723  37.302   4.570
68035W        W38635  36.555  44.442  11.948
68036W        W38636   8.427   6.620   3.769
68037W        W38637  11.957   9.084   0.816
68038W        W38638  34.693  30.960   1.851
68039W        W38639  33.673  22.190  12.914
68040W        W38640  18.596  31.918  13.906
68041W        W38641   7.940  25.551   3.213
68042W        W38642  30.086   0.404   0.123
68043W        W38643  33.237   5.471   2.162
68044W        W38644  44.504  10.948   4.909
68045W        W38645  10.323  10.777  10.674
68046W        W38646  22.070   5.703  10.695
68047W        W38647  19.776   4.395  14.918
68048W        W38648   6.609  22.197  11.632
68049W        W38649   3.763  38.838   3.622
68050W        W38650  33.013  23.850  12.211
68051W        W38651   6.855   2.027  14.879
68052W        W38652  26.034  32.285  13.911
68053W        W38653  39.290  19.067   1.169
68054W        W38654  42.859  10.165  11.624
68055W        W38655  18.019  41.087  11.211
68056W        W38656   5.901  34.856  10.917
68057W        W38657  27.909  28.694  13.824
68058W        W38658  13.216  30.104  10.601
68059W        W38659  25.545  12.803  10.744
68060W        W38660   9.347  18.935   1.732
68061W        W38661   7.075  43.742   3.268
68062W        W38662  16.328  24.140  10.161
68063W        W38663  18.325  28.991   4.275
68064W        W38664  24.299  38.408   4.501
68065W        W38665  15.542  16.786  11.529
68066W        W38666  34.573  12.097   3.309
68067W        W38667  37.925  11.110  13.173
68068W        W38668   7.176  14.657   3.752
68069W        W38669   1.397   7.415  11.719
68070W        W38670  24.443  33.876   1.706
68071W        W38671  35.715  39.997   3.316
68072W        W38672  12.285   2.802   2.810
68073W        W38673  21.720  26.756   2.803
68074W        W38674   8.765  23.963   0.451
68075W        W38675   0.747   6.322   1.177
68076W        W38676  28.557  16.759  14.621
68077W        W38677  24.029  12.698  10.722
68078W        W38678   6.165  32.504  12.895
68079W        W38679   8.910  40.529   4.177
68080W        W38680  24.443  19.805  13.430
68081W        W38681  37.108  43.976  11.090
68082W        W38682  20.030  17.855  11.583
68083W        W38683  26.021   8.939  14.447
68084W        W38684  38.768  16.377   4.081
68085W        W38685  13.379  15.336   4.536
68086W        W38686  39.476   1.486  11.688
68087W        W38687  30.997  43.454  14.445
68088W        W38688  15.872  44.613   2.705
68089W        W38689  36.018  41.729  13.455
68090W        W38690   0.526   5.016  10.495
68091W        W38691  30.080  24.262  12.013
68092W        W38692  21.637  32.472   5.032
68093W        W38693  11.698   3.147  12.641
68094W        W38694  26.990  10.702  13.333
68095W        W38695  24.287  38.582  11.103
68096W        W38696  31.068  21.301   2.355
68097W        W38697   1.398  14.118  11.439
68098W        W38698   6.954  29.699  11.073
68099W        W38699  19.103  23.949  14.014
68100W        W38700  38.871  20.590  14.967
68101W        W38701   6.265  23.871   1.994
68102W        W38702  41.875  43.938  11.111
68103W        W38703  29.532   9.632  12.532
68104W        W38704  40.485  28.198   4.109
68105W        W38705  36.556  40.439  12.101
68106W        W38706  36.520   2.360  10.788
68107W        W38707  23.846  36.543   4.187
68108W        W38708   9.862  44.913   2.244
68109W        W38709  15.586  14.653  13.081
68110W        W38710  42.226  14.945  10.734
68111W        W38711  32.065  31.850  14.085
68112W        W38712  25.922   3.905  13.505
68113W        W38713  27.018  40.271   3.830
68114W        W38714  20.624   6.645  13.101
68115W        W38715  43.720  38.854  13.412
68116W        W38716   9.795  12.328   2.443
68117W        W38717   1.510  38.596  14.041
68118W        W38718  32.339  41.872  14.849
68119W        W38719  13.344  39.889  13.710
68120W        W38720  41.823   3.939  14.466
68121W        W38721   7.862  10.804   4.103
68122W        W38722   4.828  11.084   3.219
68123W        W38723  27.656  10.541  11.156
68124W        W38724   4.313  27.483  13.585
68125W        W38725  37.687  17.441   4.196
68126W        W38726  16.158  34.636  14.793
68127W        W38727  20.135  12.708  14.617
68128W        W38728  40.733  31.427  14.870
68129W        W38729   6.458  24.054  11.906
68130W        W38730  10.584  13.351   0.743
68131W        W38731  28.121  19.727   3.807
68132W        W38732   8.344  31.550   1.872
68133W        W38733  20.036   9.842  14.524
68134W        W38734   6.004   4.408  12.045
68135W        W38735  11.778  40.565   3.219
68136W        W38736  42.934  18.996   3.118
68137W        W38737  14.233   9.096   3.435
68138W        W38738  15.860   6.756   4.315
68139W        W38739  33.646  25.146  11.278
68140W        W38740  35.024  29.735   1.452
68141W        W38741  10.278  10.278   0.885
68142W        W38742  34.195  32.612  13.406
68143W        W38743  41.232  34.105  13.147
68144W        W38744   4.405  40.613  12.926
68145W        W38745  40.741  44.273   3.298
68146W        W38746  32.683  36.484   0.410
68147W        W38747  44.076  19.942   1.900
68148W        W38748  15.606  31.438   0.084
68149W        W38749   3.662  31.939  10.096
68150W        W38750  22.652   8.007   3.164
68151W        W38751  33.688  30.373  10.309
68152W        W38752  33.527  24.715   3.230
68153W        W38753  25.911   2.887   4.163
68154W        W38754  31.814  16.902   4.889
68155W        W38755  41.417  36.095  11.498
68156W        W38756   7.177  11.205  13.681
68157W        W38757   7.299  30.170   4.536
68158W        W38758  23.045   4.815   1.767
68159W        W38759   9.557  27.070   4.543
68160W        W38760  37.876  35.854   1.318
68161W        W38761  11.218  10.952   4.109
68162W        W38762  13.819  43.410  11.473
68163W        W38763   3.846  43.438  11.204
68164W        W38764  22.493  26.490  14.941
68165W        W38765  15.775  29.059  14.718
68166W        W38766  29.301  44.986  14.483
68167W        W38767   4.309  44.210   1.848
68168W        W38768  29.848  13.803  11.185
68169W        W38769   2.084  10.906  14.350
68170W        W38770  35.059  20.128   3.660
68171W        W38771  33.113  29.463  14.285
68172W        W38772   3.743  40.319   3.717
68173W        W38773  25.325  29.914  11.430
68174W        W38774  41.602  36.210   0.224
68175W        W38775   6.889  44.890  13.937
68176W        W38776  17.483  16.624   4.334
68177W        W38777  29.539  21.660   1.445
68178W        W38778  22.217   6.672   3.245
68179W        W38779  43.206  15.723  12.398
68180W        W38780  21.959  23.648  11.432
68181W        W38781  17.115  31.132   1.877
68182W        W38782  10.843  36.915   0.285
68183W        W38783  27.994  28.560  14.789
68184W        W38784  34.362   6.694   4.056
68185W        W38785   7.089  34.860   3.122
68186W        W38786   2.557   5.351   3.401
68187W        W38787  32.515  17.327   4.764
68188W        W38788  38.524   3.269  13.035
68189W        W38789  38.430  18.849   3.766
68190W        W38790   0.314  33.954  12.613
68191W        W38791  11.775  38.408   3.749
68192W        W38792   5.949  27.485  13.468
68193W        W38793   3.891  19.861  11.689
68194W        W38794  13.095  31.524   3.439
68195W        W38795   0.280  37.775   3.334
68196W        W38796  24.064  28.168  11.530
68197W        W38797   5.316  16.811   3.900
68198W        W38798  25.460  43.298   3.739
68199W        W38799  27.263   0.791  12.646
68200W        W38800  39.735   6.005  11.157
68201W        W38801  22.585  11.103   2.846
68202W        W38802  39.296  36.185  11.556
68203W        W38803  28.513   7.099   4.696
68204W        W38804  31.619  23.536   2.215
68205W        W38805  11.286   6.218  11.533
68206W        W38806  32.709  23.137   2.060
68207W        W38807  19.517  29.986   3.735
68208W        W38808   8.987  38.508   3.181
68209W        W38809  12.166  34.861   1.476
68210W        W38810  19.699  11.420   0.279
68211W        W38811   0.515  27.934   1.987
68212W        W38812  16.382  16.278  11.012
68213W        W38813  41.566   4.130  14.901
68214W        W38814  36.025  15.395  10.699
68215W        W38815  24.118  22.413   3.118
68216W        W38816   8.135   5.175  11.185
68217W        W38817   5.481  37.331   1.814
68218W        W38818  26.648  40.217  11.566
68219W        W38819   7.306   2.958  11.652
68220W        W38820  42.066  10.756  12.013
68221W        W38821  35.054  35.671   0.921
68222W        W38822  13.372   0.996  14.786
68223W        W38823   0.648  42.011   3.291
68224W        W38824  31.843  24.039   5.044
68225W        W38825  17.990  31.576  12.063
68226W        W38826  41.706  27.051   3.080
68227W        W38827  36.690  32.241   4.155
68228W        W38828   8.889  36.595   2.825
68229W        W38829   0.932  37.144   0.590
68230W        W38830   3.283  12.723   1.914
68231W        W38831  20.552  12.675   0.532
68232W        W38832  33.017   6.975  11.652
68233W        W38833  20.328   7.078   0.511
68234W        W38834  29.918   3.724  12.231
68235W        W38835  43.495  18.449  11.853
68236W        W38836  13.181  30.047  12.015
68237W        W38837   7.840  42.843  10.914
68238W        W38838  34.145  10.148  13.514
68239W        W38839  42.340   2.841   2.212
68240W        W38840  15.268  38.234   0.605
68241W        W38841  18.442  15.612  10.712
68242W        W38842  21.707  16.608  13.396
68243W        W38843  44.828   3.984   3.121
68244W        W38844  29.494  10.846  10.862
68245W        W38845  32.630  28.704   4.753
68246W        W38846  34.076  14.039   2.571
68247W        W38847  25.925  36.084  12.375
68248W        W38848  33.631  11.687   3.333
68249W        W38849  22.333  19.581   3.169
68250W        W38850  35.620   0.710  14.469
68251W        W38851   6.220  30.443   0.331
68252W        W38852  18.169   8.087   0.926
68253W        W38853  11.072   9.796   4.815
68254W        W38854  35.057   4.347   3.584
68255W        W38855  37.625   7.725   5.073
68256W        W38856  29.437  29.603  13.147
68257W        W38857  25.013  18.587   3.663
68258W        W38858   5.653   8.715  13.905
68259W        W38859   1.753   3.030  12.008
68260W        W38860  14.030   5.219  13.371
68261W        W38861   3.323  39.902   4.475
68262W        W38862  20.708   4.662  11.868
68263W        W38863  36.126  30.978   1.397
68264W        W38864  14.255   1.207   3.100
68265W        W38865  15.934  41.565   4.856
68266W        W38866   8.015  39.449  12.958
68267W        W38867  24.744  14.743   1.826
68268W        W38868  22.130   8.143  11.536
68269W        W38869   2.407   6.895   1.787
68270W        W38870   9.075   1.852   3.319
68271W        W38871   6.211   5.834  14.344
68272W        W38872  44.279  25.507  14.709
68273W        W38873  31.392   3.452   0.238
68274W        W38874   8.693  12.460   1.948
68275W        W38875  10.813  38.444  10.560
68276W        W38876   3.738   0.767  14.499
68277W        W38877  44.307  37.747   2.298
68278W        W38878  26.848  36.917   0.553
68279W        W38879  26.617  12.657   4.117
68280W        W38880  14.867  42.902   2.285
68281W        W38881  16.514  28.756   4.317
68282W        W38882  25.035   9.156  13.499
68283W        W38883   5.136  12.131  11.645
68284W        W38884  29.853   3.155   0.560
68285W        W38885  11.116  39.321   3.329
68286W        W38886  30.968  23.556   0.700
68287W        W38887  10.130  15.031   1.233
68288W        W38888  36.335  42.050   1.747
68289W        W38889  15.320   3.385  14.727
68290W        W38890   9.838   3.090   1.451
68291W        W38891  28.901   7.560  12.125
68292W        W38892  44.833   0.728   4.088
68293W        W38893  18.992   4.470   1.004
68294W        W38894  28.549  39.986   3.521
68295W        W38895  32.498  35.194   1.159
68296W        W38896  31.410  33.361  13.441
68297W        W38897  21.744  12.545   0.386
68298W        W38898   0.877   8.874  10.322
68299W        W38899   5.394  30.103  14.929
68300W        W38900  13.731  25.184  13.517
68301W        W38901  26.925  10.845  13.817
68302W        W38902  42.959  38.805   2.455
68303W        W38903  44.956  31.651  11.546
68304W        W38904   2.390   7.209   2.219
68305W        W38905  20.333  32.856  10.891
68306W        W38906  41.415  39.244   1.914
68307W        W38907   4.552  27.246  10.791
68308W        W38908  20.713  23.229   4.125
68309W        W38909  10.261  16.854   1.233
68310W        W38910  23.563  20.099  11.503
68311W        W38911  35.395  37.343   0.631
68312W        W38912  25.766  17.851   1.876
68313W        W38913  44.801  27.391  14.053
68314W        W38914   0.918  20.261  11.158
68315W        W38915  39.805  40.261   1.718
68316W        W38916  25.202  29.057  13.405
68317W        W38917  38.371  19.557  14.729
68318W        W38918   5.203  21.573   3.724
68319W        W38919  36.872  15.784  13.073
68320W        W38920  34.127   8.020  13.743
68321W        W38921   7.158  34.365  12.061
68322W        W38922   7.844   9.400   2.934
68323W        W38923  15.894   8.443   2.803
68324W        W38924  24.742   8.409   1.861
68325W        W38925  10.842  21.127  14.219
68326W        W38926  32.353  16.467  10.684
68327W        W38927  30.915  41.504   3.822
68328W        W38928  15.515  37.344  13.478
68329W        W38929  23.173  37.454  10.988
68330W        W38930  15.169  36.754  13.311
68331W        W38931  24.950  33.665  11.006
68332W        W38932  42.879  28.630  11.618
68333W        W38933   2.842  13.911   1.616
68334W        W38934  16.034  34.118  12.285
68335W        W38935  24.192  43.329  12.677
68336W        W38936  43.382   7.819   1.337
68337W        W38937  37.923  24.813   3.631
68338W        W38938   7.344  31.846  12.458
68339W        W38939  10.214  12.571   3.388
68340W        W38940   8.784   0.269   4.051
68341W        W38941   8.693   9.365   4.413
68342W        W38942  33.133  29.920  11.066
68343W        W38943  41.480  24.285   0.476
68344W        W38944  13.220  28.194   3.593
68345W        W38945   2.312  35.382   2.816
68346W        W38946   5.948  33.439  13.289
68347W        W38947  18.069   0.013   2.908
68348W        W38948  23.783  30.429  13.506
68349W        W38949  13.406   7.862   3.823
68350W        W38950  21.181  25.205  13.019
68351W        W38951  30.587   7.100   3.645
68352W        W38952  23.577  32.535  11.087
68353W        W38953  39.549  35.445  10.776
68354W        W38954  43.540  18.800   2.280
68355W        W38955  41.781  29.116  14.947
68356W        W38956   6.857  32.751  11.632
68357W        W38957  18.316   6.878   4.442
68358W        W38958  28.094  26.522   3.070
68359W        W38959  31.104  27.433  11.195
68360W        W38960   4.753  40.382  12.619
68361W        W38961  18.858   8.934   5.082
68362W        W38962  44.223  18.735  10.666
68363W        W38963  37.916  14.203   1.690
68364W        W38964  41.359  37.339  12.437
68365W        W38965  22.588  37.511  10.840
68366W        W38966  26.617   5.608   3.260
68367W        W38967  34.100   0.305  12.819
68368W        W38968  33.056  37.816   1.412
68369W        W38969  20.712  18.253   0.272
68370W        W38970  26.720  26.422   0.694
68371W        W38971  40.215   8.727  11.421
68372W        W38972  14.651  27.209   0.737
68373W        W38973  10.395  26.052   2.223
68374W        W38974  41.058   6.596  12.405
68375W        W38975  21.145  34.090   3.775
68376W        W38976   7.498  24.623   1.258
68377W        W38977  35.469   3.179   2.924
68378W        W38978  17.659  34.530  12.585
68379W        W38979   0.510  20.060   0.693
68380W        W38980  12.634  34.588  13.476
68381W        W38981   1.753   1.837   3.729
68382W        W38982  12.566  18.497   2.090
68383W        W38983  43.099  16.168   0.863
68384W        W38984  29.814  44.184  11.165
68385W        W38985  29.501  36.066   0.079
68386W        W38986  34.985  16.826   0.803
68387W        W38987  40.973  40.839   0.961
68388W        W38988   1.042  32.578   3.307
68389W        W38989  13.376  29.685   3.706
68390W        W38990   2.238  43.913   4.605
68391W        W38991  20.087  37.112   1.850
68392W        W38992   2.661   3.804  13.126
68393W        W38993  31.329   5.437   3.973
68394W        W38994   1.740  21.111  10.651
68395W        W38995  11.969   2.356   1.053
68396W        W38996  30.445  13.771  12.542
68397W        W38997  18.668  13.598  10.773
68398W        W38998  12.664   6.786   0.908
68399W        W38999  24.088  24.004  14.931
68400W        W39000  34.039  34.252   3.236
68401W        W39001  11.649  24.001  14.056
68402W        W39002  35.950  40.927   3.895
68403W        W39003  18.712  28.508   9.811
68404W        W39004   2.760  23.848   0.366
68405W        W39005  28.659  11.944   2.672
68406W        W39006  28.974  38.370  11.171
68407W        W39007  42.075  29.092  14.487
68408W        W39008  29.908  29.646  11.254
68409W        W39009  26.472  18.141   0.241
68410W        W39010  30.151  14.382   3.249
68411W        W39011   8.821  13.673  14.442
68412W        W39012  13.867  33.204   0.502
68413W        W39013  25.085  26.268   3.216
68414W        W39014  12.842  15.791   2.895
68415W        W39015  39.891   9.591  12.159
68416W        W39016   3.920  15.158   4.048
68417W        W39017  21.255   7.253   1.292
68418W        W39018  39.889   1.581   2.801
68419W        W39019  14.808  16.771  12.109
68420W        W39020  27.733  44.911   2.234
68421W        W39021  41.034  14.518  13.975
68422W        W39022   6.336   4.176   3.301
68423W        W39023  37.828  17.668   3.775
68424W        W39024  43.891  13.214   2.865
68425W        W39025  13.863  41.287  12.076
68426W        W39026  29.327  38.474   1.694
68427W        W39027   8.764  19.418   0.014
68428W        W39028   6.072  35.145  12.497
68429W        W39029  30.052  10.997  13.511
68430W        W39030  35.370  36.528  13.074
68431W        W39031   4.823  12.155   1.190
68432W        W39032  29.976  22.667   1.666
68433W        W39033  25.998   0.754   0.937
68434W        W39034   9.440  43.355  11.128
68435W        W39035  39.913  36.312   3.358
68436W        W39036  37.126  15.648  11.602
68437W        W39037  26.730  37.728   4.840
68438W        W39038   3.910  38.720  12.521
68439W        W39039  29.762  10.218   0.784
68440W        W39040  23.496   0.972   0.739
68441W        W39041  14.795  23.370  12.629
68442W        W39042  24.936  20.009   0.047
68443W        W39043  35.267   0.146  12.579
68444W        W39044  40.373  25.074  14.380
68445W        W39045   4.875  25.003   3.376
68446W        W39046   4.319  44.094  11.864
68447W        W39047  41.085  31.715  14.583
68448W        W39048   0.813  41.351   0.815
68449W        W39049   3.480  14.272  14.209
68450W        W39050  26.290   7.915  12.122
68451W        W39051  12.460  14.799   1.270
68452W        W39052  30.251   5.041  11.170
68453W        W39053  11.832   1.563   2.463
68454W        W39054  25.228  19.433   3.146
68455W        W39055   9.779  23.679   3.773
68456W        W39056  28.136  44.178   0.931
68457W        W39057   6.706  14.100  12.429
68458W        W39058  38.806  28.903   3.862
68459W        W39059  30.068  34.703  14.311
68460W        W39060  23.113  14.212   2.241
68461W        W39061  18.566   1.797  11.150
68462W        W39062  34.709  14.723   4.690
68463W        W39063   8.979  30.989  14.462
68464W        W39064   3.783  33.929  11.469
68465W        W39065  37.083  35.913   1.704
68466W        W39066   1.168  44.496   4.164
68467W        W39067  43.813  23.106  12.564
68468W        W39068  29.387  41.845   2.683
68469W        W39069   0.425  31.406  12.421
68470W        W39070  14.565  43.399   3.870
68471W        W39071  34.759  22.083   4.506
68472W        W39072  16.982  32.104  12.494
68473W        W39073  35.661  14.738  11.135
68474W        W39074  33.521   7.281  10.046
68475W        W39075  16.332   3.321  10.781
68476W        W39076  41.310  27.670   4.168
68477W        W39077  15.806  39.451   1.788
68478W        W39078  37.021   3.807  11.485
68479W        W39079  12.526  17.312   3.868
68480W        W39080  24.971  11.265   0.799
68481W        W39081  39.969  19.028  14.296
68482W        W39082  13.694  26.900   0.931
68483W        W39083   2.120  37.450   9.878
68484W        W39084  36.986  35.395   3.756
68485W        W39085   6.315   4.711  12.311
68486W        W39086  10.381  33.036   0.789
68487W        W39087  30.110   5.258   1.738
68488W        W39088   0.496  43.380  11.021
68489W        W39089  32.429  31.350  10.963
68490W        W39090  21.439  10.415   2.144
68491W        W39091  14.528  23.776   9.854
68492W        W39092  30.918  30.999   1.655
68493W        W39093   5.836  39.375   3.830
68494W        W39094  29.326  15.725  10.154
68495W        W39095  41.053   0.960  11.697
68496W        W39096  13.608  17.732   3.180
68497W        W39097  40.464  39.318   3.319
68498W        W39098   5.253  12.662  12.828
68499W        W39099  30.022   8.360   4.529
68500W        W39100  28.549  23.514   2.324
68501W        W39101  38.001  25.546  11.142
68502W        W39102   9.438  33.396  13.493
68503W        W39103   0.864  40.846   4.774
68504W        W39104   5.342  35.171   2.255
68505W        W39105  30.852  11.284  12.400
68506W        W39106  32.162  41.744   0.340
68507W        W39107  36.335   9.404  12.410
68508W        W39108  30.524  32.612  13.075
68509W        W39109  29.487   5.941   3.097
68510W        W39110  33.464  35.933   4.552
68511W        W39111  29.914  22.053  14.510
68512W        W39112  42.598  33.979   1.206
68513W        W39113  43.250  26.475  11.931
68514W        W39114   3.090  19.059   0.204
68515W        W39115  26.010  30.956  10.490
68516W        W39116  32.241  39.429  14.189
68517W        W39117  29.918   9.224  11.598
68518W        W39118  40.891  17.111  10.474
68519W        W39119  42.454  29.301   2.730
68520W        W39120  21.637   0.330  12.535
68521W        W39121  11.758  30.484  10.698
68522W        W39122  10.981  35.439   4.108
68523W        W39123  26.158  19.956   0.965
68524W        W39124  41.558   3.636  11.827
68525W        W39125  26.405   6.185   1.529
68526W        W39126  42.444  27.887   4.620
68527W        W39127   1.679   3.449  10.750
68528W        W39128  25.540  38.943   4.494
68529W        W39129  20.257  14.737   3.084
68530W        W39130  18.913   4.840  12.961
68531W        W39131   3.310  12.756  10.785
68532W        W39132  19.773  41.108   0.559
68533W        W39133   8.879   4.370  11.991
68534W        W39134  19.997   7.570   0.313
68535W        W39135  37.653  34.906  12.829
68536W        W39136  17.613  12.198  12.865
68537W        W39137  40.346  15.408  11.588
68538W        W39138  30.690  21.520  14.383
68539W        W39139  29.158   2.793   4.207
68540W        W39140  10.358  38.181  10.608
68541W        W39141   2.446  14.232  13.287
68542W        W39142  10.401   1.613  11.593
68543W        W39143  27.020  14.643  11.383
68544W        W39144  13.006   7.290   2.687
68545W        W39145  24.504  37.012   0.940
68546W        W39146  38.463  40.404   3.414
68547W        W39147  14.003  41.030  13.087
68548W        W39148  25.535  41.787   0.482
68549W        W39149  15.305  20.488   1.758
68550W        W39150  23.203   2.980  11.710
68551W        W39151  31.499  40.114   1.150
68552W        W39152  30.413  35.566  14.883
68553W        W39153  25.558  20.734  14.958
68554W        W39154  14.081  34.556   2.659
68555W        W39155  18.958  15.759  11.592
68556W        W39156  11.149  14.515   1.743
68557W        W39157  36.923  29.681   1.710
68558W        W39158  24.957  25.463  10.709
68559W        W39159  13.759  30.471   0.134
68560W        W39160  32.508  43.122   3.559
68561W        W39161  37.747  10.690   3.969
68562W        W39162  10.247  19.501  14.009
68563W        W39163  12.822  23.136   4.382
68564W        W39164  36.812   1.201   0.147
68565W        W39165  11.266   7.632  10.921
68566W        W39166  25.566  24.365  13.467
68567W        W39167  11.309   5.205  13.783
68568W        W39168  44.592   5.516   0.068
68569W        W39169   0.928  36.404   2.344
68570W        W39170  36.336  22.228   3.165
68571W        W39171  33.234  26.378   2.702
68572W        W39172  37.929  22.225  11.431
68573W        W39173  44.716   6.327  10.450
68574W        W39174  25.645  14.171  12.325
68575W        W39175   8.211  30.365   2.186
68576W        W39176  41.353  14.561  14.391
68577W        W39177  13.621  31.820   1.430
68578W        W39178   4.334  17.216  11.201
68579W        W39179  38.651  31.085  12.369
68580W        W39180  22.655  41.711   5.002
68581W        W39181  12.809  31.836  14.950
68582W        W39182   0.423   1.393  14.015
68583W        W39183   8.675  10.055  14.821
68584W        W39184  20.923   6.219   0.333
68585W        W39185  22.494   6.400  11.068
68586W        W39186  34.034  10.764  12.434
68587W        W39187  38.292  36.674  13.419
68588W        W39188  24.912  18.144   0.288
68589W        W39189  34.463  14.754   1.328
68590W        W39190  11.548  25.481  14.536
68591W        W39191  14.391  36.856   3.792
68592W        W39192  14.573  14.088   0.467
68593W        W39193  42.011  15.622   0.488
68594W        W39194  21.260   9.774   0.495
68595W        W39195  15.448  11.019  10.693
68596W        W39196  11.629  39.725  11.648
68597W        W39197  31.801  29.916  14.302
68598W        W39198  43.408  25.449   4.681
68599W        W39199  32.460  36.933   4.181
68600W        W39200  26.965   2.708   4.359
68601W        W39201   4.200  28.069   0.957
68602W        W39202  18.643  11.590   1.376
68603W        W39203  19.236  44.302   0.007
68604W        W39204  17.992   8.894   1.161
68605W        W39205  41.511  15.588  14.550
68606W        W39206  42.828   9.779   2.402
68607W        W39207  13.460  38.790   4.199
68608W        W39208   1.212  32.133  12.645
68609W        W39209  36.853  25.783  14.374
68610W        W39210  18.046  20.548  13.012
68611W        W39211  17.075   3.071  13.293
68612W        W39212  34.076   0.768   2.171
68613W        W39213  22.747  43.435  12.477
68614W        W39214  33.739   5.370   2.273
68615W        W39215  39.782  24.542   2.794
68616W        W39216  21.492  13.291  12.329
68617W        W39217  18.127  12.061  10.406
68618W        W39218  15.653  29.587   0.938
68619W        W39219  29.610  19.137  11.634
68620W        W39220  11.114  37.053   2.785
68621W        W39221  12.199   9.949  12.814
68622W        W39222  36.408  39.700  13.374
68623W        W39223  12.094   2.824   1.466
68624W        W39224  44.106   8.437   1.284
68625W        W39225   1.257  18.835   0.932
68626W        W39226  41.673   1.639  14.976
68627W        W39227   1.776  18.424   4.597
68628W        W39228  13.179   9.072  11.538
68629W        W39229  29.508   7.269   1.059
68630W        W39230  19.353  37.902   1.341
68631W        W39231  36.886   5.735  11.820
68632W        W39232  19.302  14.311  13.446
68633W        W39233  25.073  15.285   1.405
68634W        W39234  10.137  12.830   1.383
68635W        W39235   9.407  41.299  14.853
68636W        W39236  23.686  24.713   3.668
68637W        W39237  21.559  21.594  12.957
68638W        W39238  27.967  27.444   1.144
68639W        W39239   1.026   3.931  13.375
68640W        W39240   5.528   6.308   2.137
68641W        W39241  32.019  37.919  14.195
68642W        W39242  25.553  10.497   3.064
68643W        W39243  26.143   7.441   4.629
68644W        W39244   4.932  19.156  11.473
68645W        W39245  44.378  39.406  10.093
68646W        W39246  41.879  34.794   4.950
68647W        W39247  33.070  12.626  13.851
68648W        W39248   7.947   0.733   2.852
68649W        W39249  25.488  21.527   1.298
68650W        W39250  40.807   7.072  12.424
68651W        W39251  30.164  31.864   5.136
68652W        W39252  43.462  20.748  13.360
68653W        W39253  31.622  20.932   1.806
68654W        W39254  28.560  19.104  13.107
68655W        W39255   2.299  35.552   3.313
68656W        W39256  33.697  41.017  14.392
68657W        W39257  21.157  23.015   3.155
68658W        W39258  43.893   1.915  13.003
68659W        W39259  34.113  31.579  11.921
68660W        W39260  38.802  23.683  13.441
68661W        W39261   5.181  13.115   4.617
68662W        W39262  22.782  35.066   4.543
68663W        W39263  35.623   9.641   2.069
68664W        W39264  21.693  21.598   4.712
68665W        W39265  25.503   9.948  13.527
68666W        W39266  24.182  18.009  11.097
68667W        W39267   0.368  44.939  11.633
68668W        W39268   5.187  33.454  12.888
68669W        W39269  37.858   3.765   2.262
68670W        W39270  41.105  12.191  12.879
68671W        W39271  17.733  43.944   1.409
68672W        W39272  21.747  12.276   3.413
68673W        W39273  18.198  26.984  12.503
68674W        W39274  23.916  11.836   2.614
68675W        W39275  12.598   6.325  14.848
68676W        W39276  35.863   1.344  14.378
68677W        W39277  21.321  41.953   0.752
68678W        W39278   6.374   8.245  12.903
68679W        W39279  29.141  27.044   1.803
68680W        W39280   2.722   2.953  11.132
68681W        W39281  31.592  38.545  13.677
68682W        W39282   5.316  32.100   1.327
68683W        W39283   8.874  39.987  11.470
68684W        W39284   9.655  40.270   3.680
68685W        W39285  37.847  42.826   3.767
68686W        W39286  27.382  43.361   0.682
68687W        W39287   8.865  41.754  13.880
68688W        W39288  33.541  26.399  12.875
68689W        W39289  40.660  13.270  11.822
68690W        W39290  23.734  43.327   0.710
68691W        W39291   8.342  39.964  14.002
68692W        W39292  37.422   1.477  13.289
68693W        W39293  44.314  36.319   3.928
68694W        W39294  33.942  40.976   3.255
68695W        W39295  44.954  38.577  10.253
68696W        W39296   6.966  37.296   4.069
68697W        W39297  11.481  30.795   0.832
68698W        W39298   7.821  40.338  13.052
68699W        W39299  29.671  26.956  12.919
68700W        W39300   5.204  30.375   4.746
68701W        W39301  21.240   8.004  12.481
68702W        W39302   9.845  25.509  13.307
68703W        W39303  34.102  32.603   2.301
68704W        W39304  34.662  42.742   2.568
68705W        W39305  16.061  11.643   2.859
68706W        W39306  35.856   2.180  12.838
68707W        W39307  12.226  35.313  10.658
68708W        W39308  28.593  44.926  11.892
68709W        W39309  15.793  10.101   3.200
68710W        W39310  32.456  37.955   1.174
68711W        W39311  12.585  40.086  11.686
68712W        W39312   6.622  13.784  11.575
68713W        W39313  23.735  38.047  12.992
68714W        W39314  16.822  23.162   1.218
68715W        W39315  11.857  27.145  10.744
68716W        W39316  21.228  43.069  11.149
68717W        W39317  35.602  19.558   2.443
68718W        W39318  22.227   0.217   1.703
68719W        W39319   3.531  38.254   1.958
68720W        W39320  29.509  39.855   0.476
68721W        W39321  12.260   1.974  11.681
68722W        W39322   1.806  41.062   2.456
68723W        W39323   6.726  40.024   0.350
68724W        W39324   3.311   8.874  14.033
68725W        W39325   9.430  13.057   1.281
68726W        W39326  24.795   8.546   3.223
68727W        W39327  28.133  14.572   1.832
68728W        W39328   8.735  44.004  13.394
68729W        W39329  14.290  31.555   4.366
68730W        W39330  40.408  41.886   3.682
68731W        W39331  36.691  39.920  12.128
68732W        W39332  30.331  11.284  12.535
68733W        W39333  43.888  37.853   4.348
68734W        W39334  36.004  22.143  13.621
68735W        W39335  11.860  44.868  11.472
68736W        W39336  33.149  27.467  12.397
68737W        W39337  16.087  41.003   0.222
68738W        W39338  22.383   3.419   3.213
68739W        W39339   9.809   0.448   4.161
68740W        W39340  34.478  20.938   3.710
68741W        W39341  11.372  15.721  13.053
68742W        W39342  27.004  32.989   4.312
68743W        W39343  22.725  40.738   4.143
68744W        W39344  13.141  44.902   1.349
68745W        W39345   5.917   0.812  11.676
68746W        W39346  26.468  24.806  13.825
68747W        W39347  27.861  25.952  14.275
68748W        W39348  24.157  38.081  11.213
68749W        W39349  15.774  27.058   4.246
68750W        W39350  10.218   7.183   2.303
68751W        W39351  11.134   4.166   3.832
68752W        W39352   3.013  21.137   1.551
68753W        W39353  20.292  23.223  14.308
68754W        W39354   3.984  17.190   4.181
68755W        W39355  42.337  20.565  14.306
68756W        W39356  14.150  42.858   3.401
68757W        W39357  40.048  14.784   2.353
68758W        W39358  28.866  24.548   0.282
68759W        W39359  14.766  30.682   2.157
68760W        W39360  27.541   0.489   4.556
68761W        W39361  26.000  15.359   0.351
68762W        W39362  32.350  10.260   2.553
68763W        W39363  40.938  19.077   3.703
68764W        W39364  17.042  17.318   1.910
68765W        W39365  31.182  33.807   0.223
68766W        W39366   3.192   1.199   0.947
68767W        W39367  19.668  19.613  11.354
68768W        W39368  28.617  33.097  10.888
68769W        W39369   4.372   3.108   4.234
68770W        W39370  42.753  20.921   4.094
68771W        W39371  29.967  18.287   1.289
68772W        W39372   0.274  32.552  14.932
68773W        W39373  13.305  31.310   0.293
68774W        W39374  37.970  15.120  12.182
68775W        W39375  13.189  34.430  11.124
68776W        W39376  14.261  20.985   0.773
68777W        W39377  39.360  31.297  11.595
68778W        W39378  24.499  22.704   1.189
68779W        W39379  18.713  15.805   3.389
68780W        W39380  36.947   3.411  11.171
68781W        W39381  40.634  34.878   0.965
68782W        W39382  25.108  36.436  10.752
68783W        W39383  26.689  44.858  14.411
68784W        W39384   0.046  28.082  13.552
68785W        W39385  24.711  40.258  12.863
68786W        W39386  24.206  12.675   9.818
68787W        W39387  44.172  29.932   1.386
68788W        W39388  23.523   4.831  14.038
68789W        W39389   7.191  10.087  14.846
68790W        W39390  34.903   5.753   4.631
68791W        W39391  34.120  41.900   2.889
68792W        W39392  22.123  35.506   3.063
68793W        W39393  14.099  29.417   1.477
68794W        W39394  27.915  17.350   1.508
68795W        W39395  32.528  30.948   0.881
68796W        W39396  36.425  12.077   0.439
68797W        W39397  40.409  19.385  12.597
68798W        W39398  16.036  29.482   2.283
68799W        W39399  17.257   1.708   3.637
68800W        W39400  39.445   7.259   2.099
68801W        W39401  10.743   6.624   0.347
68802W        W39402   3.962  36.532  11.537
68803W        W39403  37.083   6.808  14.108
68804W        W39404  28.654  13.242  12.496
68805W        W39405  40.890   9.749  11.191
68806W        W39406   3.280  29.037  12.987
68807W        W39407  13.271   1.447   2.478
68808W        W39408  11.902  32.516  12.314
68809W        W39409  12.204   9.631  12.047
68810W        W39410  39.420  36.645   4.634
68811W        W39411  30.364  38.036   2.216
68812W        W39412  20.973  41.254   1.953
68813W        W39413  43.444  34.961   3.504
68814W        W39414  43.466  11.794  10.906
68815W        W39415   4.708  44.324   0.296
68816W        W39416  19.015   5.392   3.827
68817W        W39417   5.373  34.846   1.869
68818W        W39418  21.330  29.592  14.817
68819W        W39419   3.756   7.134  12.958
68820W        W39420  17.522  42.918   1.838
68821W        W39421  26.465  27.190   2.852
68822W        W39422  14.845  39.449  14.757
68823W        W39423  14.351   7.167  13.609
68824W        W39424   1.010  22.854   1.952
68825W        W39425  43.191  25.608  13.044
68826W        W39426  10.096   4.127  10.406
68827W        W39427  18.301  39.990  13.875
68828W        W39428   5.940  22.089   3.768
68829W        W39429  10.711  28.153   2.619
68830W        W39430  25.933   0.991  14.128
68831W        W39431   6.955  41.103  14.290
68832W        W39432  38.899  38.041   2.437
68833W        W39433  20.754  20.162   4.214
68834W        W39434  31.076  11.281   3.723
68835W        W39435  36.831  41.627   0.991
68836W        W39436  33.147  33.345   1.428
68837W        W39437   3.466  17.365  11.234
68838W        W39438  12.605  15.721   1.443
68839W        W39439  33.358  44.921  11.994
68840W        W39440  33.025   8.912  13.553
68841W        W39441   9.019  16.579  12.486
68842W        W39442  32.544  44.659  11.566
68843W        W39443  28.712  35.821  12.492
68844W        W39444  19.817  10.641  12.378
68845W        W39445  35.423   6.281  11.940
68846W        W39446  43.451  25.507  11.639
68847W        W39447   8.751  22.336  13.667
68848W        W39448  20.060   0.540   4.176
68849W        W39449   0.263  30.566  14.074
68850W        W39450  23.031   1.511   5.013
68851W        W39451  32.384  41.836   1.585
68852W        W39452  31.057  11.801   0.683
68853W        W39453  20.964   8.646   1.682
68854W        W39454   9.953  12.739  12.350
68855W        W39455  14.846  12.227  10.667
68856W        W39456  23.899  18.323   1.049
68857W        W39457  30.894  38.520   2.885
68858W        W39458   3.295  31.045   1.525
68859W        W39459   6.969  43.730  13.076
68860W        W39460  38.370   8.087  10.971
68861W        W39461  22.058  13.843   2.645
68862W        W39462  12.226  39.258   1.943
68863W        W39463  34.738  42.782   5.181
68864W        W39464  32.335  13.365  13.841
68865W        W39465  34.040   6.390   3.770
68866W        W39466   2.294  15.849   3.151
68867W        W39467   8.625   9.477   0.022
68868W        W39468   6.456  39.618  13.385
68869W        W39469  40.720   1.116   5.018
68870W        W39470  16.593   1.483  12.485
68871W        W39471   7.901  17.485  11.043
68872W        W39472  16.141   7.014   2.465
68873W        W39473   2.838  28.827   4.628
68874W        W39474  17.353  41.231   1.312
68875W        W39475  19.003  44.611  11.531
68876W        W39476  34.375  24.536  14.822
68877W        W39477  32.883  21.571  10.770
68878W        W39478  10.772   6.322   2.093
68879W        W39479   6.138  21.251  11.703
68880W        W39480  25.320  18.699  14.453
68881W        W39481  36.529  44.956  14.462
68882W        W39482  25.962  28.214  11.142
68883W        W39483  26.164  24.905   0.037
68884W        W39484  17.848  36.447  13.077
68885W        W39485  39.128  14.247  14.163
68886W        W39486   3.049  19.087   1.494
68887W        W39487  20.610  23.080   3.180
68888W        W39488   3.185  24.249  10.782
68889W        W39489  10.685  38.605  11.033
68890W        W39490  11.172  31.330   4.545
68891W        W39491  31.565   4.882  14.489
68892W        W39492  23.381   9.008   0.793
68893W        W39493   9.135  28.595  10.751
68894W        W39494  19.551  37.482   0.178
68895W        W39495  22.643  19.494  13.754
68896W        W39496  33.280  12.877  13.418
68897W        W39497  38.769  32.464   2.233
68898W        W39498  27.876   5.905   4.311
68899W        W39499  20.301  19.603  10.478
68900W        W39500  25.449  32.715   2.132
68901W        W39501  32.639  24.575  12.804
68902W        W39502  37.750  42.955   3.251
68903W        W39503   0.240   9.999   0.234
68904W        W39504  21.664  22.537   2.289
68905W        W39505  43.831  11.949   1.670
68906W        W39506   5.948  37.582   4.210
68907W        W39507  16.721   3.879   4.539
68908W        W39508   8.977  15.983   1.405
68909W        W39509   3.087  35.194   5.002
68910W        W39510   5.512  16.028   1.189
68911W        W39511  27.406  25.687   3.297
68912W        W39512  18.630   9.716  11.465
68913W        W39513  33.550  29.365   4.598
68914W        W39514  32.975  35.889  12.908
68915W        W39515  44.373  23.950  13.043
68916W        W39516  21.432  26.833   3.641
68917W        W39517  25.464   6.398   3.247
68918W        W39518   2.849  42.241   1.140
68919W        W39519  40.125  39.484  11.061
68920W        W39520   8.139  41.889  11.202
68921W        W39521  41.724  41.140   1.368
68922W        W39522  33.125  31.555   3.146
68923W        W39523  27.590  25.367   4.783
68924W        W39524  11.372  39.905  13.916
68925W        W39525  21.568  10.680  12.361
68926W        W39526  19.318  13.144   0.266
68927W        W39527  11.390   1.019  13.059
68928W        W39528   2.790  21.608   4.834
68929W        W39529  39.007  18.071   0.770
68930W        W39530  15.334  10.781   4.059
68931W        W39531  33.860   5.307   1.425
68932W        W39532   2.711   9.841   0.445
68933W        W39533  31.559  29.466   0.747
68934W        W39534   8.672  43.229  13.850
68935W        W39535  17.264  39.308  11.145
68936W        W39536   6.902   0.726   3.693
68937W        W39537  29.300  37.556   4.796
68938W        W39538  38.556  31.504   1.897
68939W        W39539  14.395  23.472   0.359
68940W        W39540  18.263  13.803  13.799
68941W        W39541   4.918  19.364  14.458
68942W        W39542  22.122  33.122  10.752
68943W        W39543  43.580  31.938  14.613
68944W        W39544   8.743  16.966  13.437
68945W        W39545  39.661   0.110  11.028
68946W        W39546  26.493  13.722  12.378
68947W        W39547  19.512  10.366  10.684
68948W        W39548  10.285  35.668   1.813
68949W        W39549  35.803  38.808  10.638
68950W        W39550  37.547  10.633  11.234
68951W        W39551   7.792  22.233   0.210
68952W        W39552   2.280  25.716  11.537
68953W        W39553  24.315  28.558  14.628
68954W        W39554  19.737   9.804   4.077
68955W        W39555  31.123  14.028   2.189
68956W        W39556  27.425   1.347   0.778
68957W        W39557  16.476  44.233   3.327
68958W        W39558  37.495  18.345  13.482
68959W        W39559  12.637  12.364  12.021
68960W        W39560  43.806  34.536  10.368
68961W        W39561  17.976   3.191   0.728
68962W        W39562  38.068  44.257   0.799
68963W        W39563  35.463  30.415  11.920
68964W        W39564  15.138  17.821  12.391
68965W        W39565  25.144  20.400  14.732
68966W        W39566  35.142  19.723   1.912
68967W        W39567   0.096  14.578  10.853
68968W        W39568  17.200   7.208  12.597
68969W        W39569  15.022  11.807  12.788
68970W        W39570  44.544  17.406  10.310
68971W        W39571  38.366  15.014   1.217
68972W        W39572  34.880  24.782  14.102
68973W        W39573  22.259   0.773  12.456
68974W        W39574  12.433  19.334   2.305
68975W        W39575   4.237  20.055  14.549
68976W        W39576  20.598  42.063  12.845
68977W        W39577   7.355  44.183   3.177
68978W        W39578  25.181  39.972  10.726
68979W        W39579  31.820   5.759  11.602
68980W        W39580  35.007   8.934  10.249
68981W        W39581  32.815  42.994   3.150
68982W        W39582  22.535   6.827  12.851
68983W        W39583   3.385   6.292  10.802
68984W        W39584  38.836   5.763  14.830
68985W        W39585   9.185  19.450  11.045
68986W        W39586  12.745  19.399   4.480
68987W        W39587  38.368  32.068  12.091
68988W        W39588  17.524  27.745  13.660
68989W        W39589  14.296  32.494   0.890
68990W        W39590  19.132  23.180  12.943
68991W        W39591   4.351  19.080   0.663
68992W        W39592  15.756  22.219   3.168
68993W        W39593  38.058  41.994   3.227
68994W        W39594  19.766  35.582   3.716
68995W        W39595  17.882  33.808  14.197
68996W        W39596  44.110   7.391  10.483
68997W        W39597  37.615  39.961   1.980
68998W        W39598  27.005   1.263   2.907
68999W        W39599  38.401   3.488   4.508
69000W        W39600  32.467  42.601   2.194
69001W        W39601  43.333  38.769  11.264
69002W        W39602  30.129   9.466   0.400
69003W        W39603  17.792  44.421   3.896
69004W        W39604  35.562  44.236   2.346
69005W        W39605  37.909  29.627   1.879
69006W        W39606  36.017   2.839   0.766
69007W        W39607  39.297  38.263  12.476
69008W        W39608  38.369   8.772   4.735
69009W        W39609  24.263  16.801  12.775
69010W        W39610  34.620  10.568   2.378
69011W        W39611   0.056  33.426   3.184
69012W        W39612  34.817  23.612   0.246
69013W        W39613  43.943  40.024   2.717
69014W        W39614  19.054   8.839  14.427
69015W        W39615  16.061  17.917  12.451
69016W        W39616  43.274  35.018   2.052
69017W        W39617  27.993   9.755   1.802
69018W        W39618  20.412  40.459   1.847
69019W        W39619   5.174  27.981  10.692
69020W        W39620  23.742  21.015  13.471
69021W        W39621  21.652  18.504   1.733
69022W        W39622  23.499  28.585  10.918
69023W        W39623  33.084  25.269  14.498
69024W        W39624  13.794  44.461  14.757
69025W        W39625   7.451  33.057   0.844
69026W        W39626  21.477   4.686   1.292
69027W        W39627  32.618  41.026  12.983
69028W        W39628  43.852  22.369  12.095
69029W        W39629  24.139   0.226  14.419
69030W        W39630  17.060  30.443   4.143
69031W        W39631  44.248  38.992  12.233
69032W        W39632  40.522  25.498   2.675
69033W        W39633  42.792  27.422   0.745
69034W        W39634  33.949  15.859   0.488
69035W        W39635  16.297  21.722  13.168
69036W        W39636  29.911  19.782   4.189
69037W        W39637  32.056   7.969  11.071
69038W        W39638  36.108  36.894  11.011
69039W        W39639   6.475  17.183  12.092
69040W        W39640  28.029  36.476   3.342
69041W        W39641   6.692  20.502   3.847
69042W        W39642  43.587   1.817  14.044
69043W        W39643  15.676  41.243   2.888
69044W        W39644  16.655   7.432   1.479
69045W        W39645   9.305  44.815   1.232
69046W        W39646  15.719  26.399   3.186
69047W        W39647  36.355  22.191  14.032
69048W        W39648  41.901  17.368   4.258
69049W        W39649  23.659  18.501  11.519
69050W        W39650  18.206  19.670   4.679
69051W        W39651  21.818  28.611   2.936
69052W        W39652  24.340   8.708   4.050
69053W        W39653   9.373  41.027  11.069
69054W        W39654  21.091  14.503  10.298
69055W        W39655  39.787  31.121   4.341
69056W        W39656   3.382  11.088   2.266
69057W        W39657   7.955  16.748   4.601
69058W        W39658  28.509   3.206  13.354
69059W        W39659  26.588  17.363  11.626
69060W        W39660   9.750  13.637   0.478
69061W        W39661  33.963  28.756  13.951
69062W        W39662  12.350  22.042   0.532
69063W        W39663  16.413  18.722  12.104
69064W        W39664  12.192  41.167   3.686
69065W        W39665  33.018  11.045   2.416
69066W        W39666  37.836   7.965   4.580
69067W        W39667  31.716  27.984   0.806
69068W        W39668  14.048   2.844  10.647
69069W        W39669  16.568   5.398  10.895
69070W        W39670  32.782  35.049  12.451
69071W        W39671  18.548  28.539   3.797
69072W        W39672  14.713  17.856  12.060
69073W        W39673  43.354  27.614   4.141
69074W        W39674  22.244  28.652  14.526
69075W        W39675  18.180  17.703   2.762
69076W        W39676  31.806  27.127   2.222
69077W        W39677  23.155   0.439  14.536
69078W        W39678  33.059  14.717   3.052
69079W        W39679  10.570  37.401   0.004
69080W        W39680  31.443  16.859  13.519
69081W        W39681  35.001  32.094  10.791
69082W        W39682  10.435   9.356   3.819
69083W        W39683  16.541  42.948   1.722
69084W        W39684  22.549   8.830  11.147
69085W        W39685   4.361  28.965   4.077
69086W        W39686  39.918  34.006  13.081
69087W        W39687   8.328  14.052  12.439
69088W        W39688   3.799  22.809   3.796
69089W        W39689  41.103  16.283  11.699
69090W        W39690   3.420  44.537  12.504
69091W        W39691   3.215  10.687  13.531
69092W        W39692  29.654  42.930   0.600
69093W        W39693  33.797  16.501   1.029
69094W        W39694  23.109  31.376   0.911
69095W        W39695   3.298   4.018  14.370
69096W        W39696  19.241  32.102  12.145
69097W        W39697   4.465   4.011   4.621
69098W        W39698  17.196  17.600  12.960
69099W        W39699   3.747  32.822   3.931
69100W        W39700  25.933  11.191   1.816
69101W        W39701  21.337   8.027  13.352
69102W        W39702   8.978  38.338  13.341
69103W        W39703  27.772  31.547  10.716
69104W        W39704  29.092  28.407   0.052
69105W        W39705  25.202   7.852   4.519
69106W        W39706  24.530  33.465  10.758
69107W        W39707   1.225  29.506  11.869
69108W        W39708  34.489  30.148   4.770
69109W        W39709  29.631  19.741   2.649
69110W        W39710  27.603  30.966  14.782
69111W        W39711  29.644  42.894  11.972
69112W        W39712  28.666  34.373  13.571
69113W        W39713  37.582   0.486   2.124
69114W        W39714  13.305   7.283   2.264
69115W        W39715  11.591  11.829  12.413
69116W        W39716  25.402  23.084   0.972
69117W        W39717   8.191   4.434   1.736
69118W        W39718  16.658  37.065  11.410
69119W        W39719   9.764   8.709  13.530
69120W        W39720  19.795  41.967   0.015
69121W        W39721  12.668  21.946  11.706
69122W        W39722  13.644  32.110   4.682
69123W        W39723   0.770   3.844   2.896
69124W        W39724  14.387   9.543   3.275
69125W        W39725  12.892   7.233  11.515
69126W        W39726  44.339  29.590  13.830
69127W        W39727  44.267   7.263  12.150
69128W        W39728  27.483  42.030   2.362
69129W        W39729  20.020  17.101   4.167
69130W        W39730  12.389  17.563  10.674
69131W        W39731  16.925  23.504   4.215
69132W        W39732  21.257  13.050  11.963
69133W        W39733  24.522  12.863  10.546
69134W        W39734  39.113  16.834  13.996
69135W        W39735  41.871  29.941  14.703
69136W        W39736   9.749  44.764   0.443
69137W        W39737  38.430  30.657  12.643
69138W        W39738  36.616   1.143   0.686
69139W        W39739  30.422  31.457   2.410
69140W        W39740   3.550  17.149   0.882
69141W        W39741  42.516   6.719  12.045
69142W        W39742  36.417   9.910  14.451
69143W        W39743   6.276   2.717   1.029
69144W        W39744  21.719  27.932  12.055
69145W        W39745  34.999  42.113  13.032
69146W        W39746  23.721  29.106  13.651
69147W        W39747  39.581  31.999  12.378
69148W        W39748  37.006  36.888   2.825
69149W        W39749   1.892  35.088  11.543
69150W        W39750  44.711  28.242  14.381
69151W        W39751  12.210   3.019   3.258
69152W        W39752  30.282  18.060   0.930
69153W        W39753   6.249  34.521   4.065
69154W        W39754  22.747  35.583  13.105
69155W        W39755   4.870  14.095   4.678
69156W        W39756  44.795   0.641  10.574
69157W        W39757  38.036   0.408  13.782
69158W        W39758  37.778  35.575  12.580
69159W        W39759   4.192   2.803  12.939
69160W        W39760  32.410  30.848  11.141
69161W        W39761  21.089  27.711  13.448
69162W        W39762  39.221  29.149   4.081
69163W        W39763  23.721  31.903   1.859
69164W        W39764  20.476   7.172   2.614
69165W        W39765  36.472  26.733   0.744
69166W        W39766  26.003  25.462   0.908
69167W        W39767  44.688  40.824  13.977
69168W        W39768  20.769   3.694  13.371
69169W        W39769   8.740  20.721   4.867
69170W        W39770  18.280   4.793  14.783
69171W        W39771   1.427  29.048  13.556
69172W        W39772  10.275  25.935   1.378
69173W        W39773  35.126  11.296  14.445
69174W        W39774  44.513  24.697  14.290
69175W        W39775  24.828  13.876  11.381
69176W        W39776  32.985  38.461  14.237
69177W        W39777  22.514  33.856   2.136
69178W        W39778  33.750   4.853  13.250
69179W        W39779  32.358  15.103   2.168
69180W        W39780  24.449  25.577  10.660
69181W        W39781  15.847  43.050   0.268
69182W        W39782  41.404   6.863  14.260
69183W        W39783  27.913   6.300   4.689
69184W        W39784  33.369  26.091  10.572
69185W        W39785  24.102  39.367  12.589
69186W        W39786   3.224  17.037  10.933
69187W        W39787  16.155  18.332   4.447
69188W        W39788  16.550  18.015   1.686
69189W        W39789  20.494   8.212   3.523
69190W        W39790  41.826  33.989  13.452
69191W        W39791  15.139  21.210   2.396
69192W        W39792   2.961  20.226  13.385
69193W        W39793   0.757  33.532  10.089
69194W        W39794   1.877  38.988  13.742
69195W        W39795  32.029  44.306   2.799
69196W        W39796  14.076   9.599   3.720
69197W        W39797  43.773   8.211  14.423
69198W        W39798  33.535  29.218  14.867
69199W        W39799  31.087  16.322  12.336
69200W        W39800  24.034   0.909   4.573
69201W        W39801  25.662  30.444  14.292
69202W        W39802   3.573  11.248  12.376
69203W        W39803   9.314  22.672   0.411
69204W        W39804   9.416   8.270  14.037
69205W        W39805  43.180  33.302  10.025
69206W        W39806   7.198  31.771   2.805
69207W        W39807  28.444  29.114  12.537
69208W        W39808   6.296  15.478  12.478
69209W        W39809  41.743  15.448  12.644
69210W        W39810   1.797  10.214   4.200
69211W        W39811  25.160  19.771  11.110
69212W        W39812  25.204  21.047   1.207
69213W        W39813  42.992  39.927  11.152
69214W        W39814  13.374  42.419  14.900
69215W        W39815   7.951  20.784  13.759
69216W        W39816  12.176  37.509   4.091
69217W        W39817  40.268  40.484   0.462
69218W        W39818  28.989  41.057   1.416
69219W        W39819  21.146  39.676  14.277
69220W        W39820  35.421  11.329  12.229
69221W        W39821  21.644  32.931   3.660
69222W        W39822  24.693  42.411  12.650
69223W        W39823   6.680   0.673   3.177
69224W        W39824  17.222   2.975  14.680
69225W        W39825  25.684  44.338  11.989
69226W        W39826   8.713   4.485   4.758
69227W        W39827  35.418  27.254   4.025
69228W        W39828  23.061  26.489  10.803
69229W        W39829  40.720   1.412  14.831
69230W        W39830   1.348  40.256   2.279
69231W        W39831  26.450  14.888  13.582
69232W        W39832  29.790  20.783  14.865
69233W        W39833  40.603  24.220   4.037
69234W        W39834  14.967  10.663  14.667
69235W        W39835  13.191  11.782   1.688
69236W        W39836  23.661  23.424   4.529
69237W        W39837  31.501   9.703  14.292
69238W        W39838  34.615   7.197   1.384
69239W        W39839   6.731  24.462  11.186
69240W        W39840  41.450  25.684   0.081
69241W        W39841   0.667  40.405   5.386
69242W        W39842  23.962   3.910  11.941
69243W        W39843  42.249  29.271  13.081
69244W        W39844   2.789  34.979   0.030
69245W        W39845  26.514  34.607  13.030
69246W        W39846   5.031  43.070  11.557
69247W        W39847   3.191  42.701   1.049
69248W        W39848  23.539  12.094  12.454
69249W        W39849  41.875   1.139  14.874
69250W        W39850  32.922  33.611   3.314
69251W        W39851  22.629   6.175  10.175
69252W        W39852  44.333  23.688   4.601
69253W        W39853   8.643  31.181  14.130
69254W        W39854  17.840  33.969  12.021
69255W        W39855  41.153  27.493  12.986
69256W        W39856   2.461  29.403  11.101
69257W        W39857   7.661  13.062  10.552
69258W        W39858   5.186   3.384   3.337
69259W        W39859   4.625  29.424  11.084
69260W        W39860  26.100  28.087  13.959
69261W        W39861  20.784  42.790   5.128
69262W        W39862  22.844  29.485   4.067
69263W        W39863  32.569  32.620  12.485
69264W        W39864  30.128  17.076   1.782
69265W        W39865  14.781   1.407   4.962
69266W        W39866   1.671   3.451   0.561
69267W        W39867  19.232  28.426   1.633
69268W        W39868  28.664  36.200  14.002
69269W        W39869   9.908   0.366  12.585
69270W        W39870   3.754   7.126  13.879
69271W        W39871  26.497   5.267  13.989
69272W        W39872  18.144  17.840  10.460
69273W        W39873  29.995   4.831  14.922
69274W        W39874  35.710   6.941  14.559
69275W        W39875  40.074  35.315   3.150
69276W        W39876  40.089  44.312  13.051
69277W        W39877  22.174  29.883  14.771
69278W        W39878  17.205  23.926   5.041
69279W        W39879  24.896   7.775   9.940
69280W        W39880  32.599  15.187  10.689
69281W        W39881  44.040  10.608  14.954
69282W        W39882   4.408  30.537  14.085
69283W        W39883  41.521  38.963   2.341
69284W        W39884  20.119  20.269   0.280
69285W        W39885  35.201  14.608   0.739
69286W        W39886  13.491  14.886   0.320
69287W        W39887  13.319  33.040  10.728
69288W        W39888  17.515  11.877  13.274
69289W        W39889  19.204  19.219   3.153
69290W        W39890  39.160   3.344  13.841
69291W        W39891  44.440   0.765   1.919
69292W        W39892  27.189   8.781  11.352
69293W        W39893  30.327  16.895  11.642
69294W        W39894  20.433  33.066  11.918
69295W        W39895   3.358   5.332  13.059
69296W        W39896  38.772  30.865   1.888
69297W        W39897  35.052   3.944   2.274
69298W        W39898  42.361   6.440   0.863
69299W        W39899  13.317  37.923  13.723
69300W        W39900   8.801  17.247   2.245
69301W        W39901  33.686  21.020  12.915
69302W        W39902  35.462  18.779  10.936
69303W        W39903   5.957  40.884   0.446
69304W        W39904  38.303   0.675   0.049
69305W        W39905  42.654  34.575   0.814
69306W        W39906  21.154  12.044   0.825
69307W        W39907  27.948   1.315  13.764
69308W        W39908  44.502  38.481  10.520
69309W        W39909  44.286  12.643  11.556
69310W        W39910  44.308  25.737   2.753
69311W        W39911  11.368  12.249  11.628
69312W        W39912   2.905   0.499  11.126
69313W        W39913   5.818  10.861  12.454
69314W        W39914  42.028  40.482  12.131
69315W        W39915  44.379  16.692   2.153
69316W        W39916  26.912  10.826   3.410
69317W        W39917  19.872  44.826  11.458
69318W        W39918   4.401   3.983  10.955
69319W        W39919   6.324   9.426  11.536
69320W        W39920  37.671  38.778   0.212
69321W        W39921  25.907  19.110  14.359
69322W        W39922  10.100  12.115  13.411
69323W        W39923  43.376  21.656   4.195
69324W        W39924  40.812   2.180  13.482
69325W        W39925  35.049  20.060   2.763
69326W        W39926  34.012  13.651  11.011
69327W        W39927  22.724   2.740  11.929
69328W        W39928  42.275  37.264  13.209
69329W        W39929   4.239  29.120  10.893
69330W        W39930  28.048   7.301   1.004
69331W        W39931  22.207  37.376  12.537
69332W        W39932  38.387  43.432  11.104
69333W        W39933  12.234  43.398  12.153
69334W        W39934  10.716   4.269   0.072
69335W        W39935  23.348  44.732   4.071
69336W        W39936  39.282   0.302  14.327
69337W        W39937   9.501  26.640   1.241
69338W        W39938  37.578  30.986  14.524
69339W        W39939   7.258  20.291  12.493
69340W        W39940  11.572   5.397  10.569
69341W        W39941  22.693  12.639   5.116
69342W        W39942  42.753  19.924  13.299
69343W        W39943  24.513  39.481   1.375
69344W        W39944  18.860  28.137  11.958
69345W        W39945  43.729  20.556   1.871
69346W        W39946  37.870  19.516   1.166
69347W        W39947   9.775  27.183  12.925
69348W        W39948  20.493  32.983   2.702
69349W        W39949  13.094  39.995  10.940
69350W        W39950  10.344  37.101  14.426
69351W        W39951  11.741  43.248  10.720
69352W        W39952   7.726  23.184  10.830
69353W        W39953   3.778  43.451  13.130
69354W        W39954  20.991  22.751   1.409
69355W        W39955  18.627  16.319   2.611
69356W        W39956  32.415  32.900   2.865
69357W        W39957  40.387  40.525   4.761
69358W        W39958   5.239  23.732  12.401
69359W        W39959  24.592   6.108   1.954
69360W        W39960  29.636  20.246   3.285
69361W        W39961  38.628  36.914  13.099
69362W        W39962  42.736  33.643   2.956
69363W        W39963  33.480  20.732   2.309
69364W        W39964  29.551   4.502  12.349
69365W        W39965   8.346   3.701   3.168
69366W        W39966  43.829   7.908   3.239
69367W        W39967  22.809  27.083  12.015
69368W        W39968  35.891  21.518   3.693
69369W        W39969  38.553  37.900  14.010
69370W        W39970  15.852  29.238  12.541
69371W        W39971   3.346   0.348  14.065
69372W        W39972  21.671  38.111   4.223
69373W        W39973  15.116  30.990  13.369
69374W        W39974  24.216  43.452  13.933
69375W        W39975  32.137  20.359  12.907
69376W        W39976  44.348  11.699   2.854
69377W        W39977  28.143  33.506   5.092
69378W        W39978  35.153  25.914   3.923
69379W        W39979  40.056   1.765   1.850
69380W        W39980  14.593  30.117   4.218
69381W        W39981  37.221  26.146  14.392
69382W        W39982   8.291   5.201   3.452
69383W        W39983  29.127  18.836   1.543
69384W        W39984  32.544  30.195   2.324
69385W        W39985  35.949  37.171   3.348
69386W        W39986  32.552   6.779  13.892
69387W        W39987  17.042  43.411   5.113
69388W        W39988   9.749  28.078  14.898
69389W        W39989  36.946  18.802  11.035
69390W        W39990  31.671  38.485   2.332
69391W        W39991  22.546  35.389  12.456
69392W        W39992   9.443  10.027   2.384
69393W        W39993  33.748   3.185  13.666
69394W        W39994  19.779  19.719  12.325
69395W        W39995  13.415  38.467   1.834
69396W        W39996  44.913   1.062   1.942
69397W        W39997  35.920  34.067   2.064
69398W        W39998  31.427  27.874  13.623
69399W        W39999  35.921  32.081  13.666
69400W        W40000   7.352  34.962  14.274
69401W        W40001  16.139  18.770   1.371
69402W        W40002  13.121   1.794   0.249
69403W        W40003   4.952  28.203   0.845
69404W        W40004  28.123  44.930   0.270
69405W        W40005  12.221  12.162   3.216
69406W        W40006  37.451  33.963  12.851
69407W        W40007  22.931  19.087   0.187
69408W        W40008  28.048  36.824  13.006
69409W        W40009  17.236  41.812   3.616
69410W        W40010  23.592  23.534   1.683
69411W        W40011  23.196  25.018  10.710
69412W        W40012  17.158  10.216  12.568
69413W        W40013  24.158  33.970   1.277
69414W        W40014  22.175  39.845  13.892
69415W        W40015   7.214   0.749  12.056
69416W        W40016  23.040  11.721   0.364
69417W        W40017  25.041   7.883  11.381
69418W        W40018   6.488   4.219   1.924
69419W        W40019   8.387   5.836  12.999
69420W        W40020  18.085  28.952  12.097
69421W        W40021  17.659   8.311  12.216
69422W        W40022  20.159  34.056  12.146
69423W        W40023  24.804   4.848  14.346
69424W        W40024  17.476   4.270   2.830
69425W        W40025  39.366  25.822  10.545
69426W        W40026  21.057  19.521  12.565
69427W        W40027  36.628   1.711   0.838
69428W        W40028   1.634   2.199  11.253
69429W        W40029   9.146  43.441   1.259
69430W        W40030  20.134  13.680  13.520
69431W        W40031  20.277  33.020  12.818
69432W        W40032  13.129  34.020   1.167
69433W        W40033  38.551   8.164  14.829
69434W        W40034  23.245  17.745  14.476
69435W        W40035   7.517  40.167  11.067
69436W        W40036  29.070  35.383   2.227
69437W        W40037   6.804  17.192   2.235
69438W        W40038  32.388  37.097   1.269
69439W        W40039  22.798  10.187   1.674
69440W        W40040  29.544  42.730   2.498
69441W        W40041  40.621  17.195  12.985
69442W        W40042   8.652  14.216   4.109
69443W        W40043  16.798  38.031   3.296
69444W        W40044  19.284  17.122  11.595
69445W        W40045  23.043   1.656  12.909
69446W        W40046  26.002   0.648   4.020
69447W        W40047  31.860  25.571  14.828
69448W        W40048  36.073   9.324  11.844
69449W        W40049   9.330  33.868  10.480
69450W        W40050  16.488  26.771   2.197
69451W        W40051   4.470  44.503  12.640
69452W        W40052  11.684  34.554  12.562
69453W        W40053  17.731  37.947   5.160
69454W        W40054  11.228  20.785   2.347
69455W        W40055  14.552  12.610   0.403
69456W        W40056  42.191  41.904  13.494
69457W        W40057   1.800  41.333   2.911
69458W        W40058  39.372  25.412   2.186
69459W        W40059  27.174  39.908  11.159
69460W        W40060  44.679  27.529   1.011
69461W        W40061  15.292   1.838   2.273
69462W        W40062  12.007   6.190   3.576
69463W        W40063  28.260  39.300   0.695
69464W        W40064  33.081  33.935   1.051
69465W        W40065  41.582  23.044   3.940
69466W        W40066  40.812  13.122   1.879
69467W        W40067  12.692  34.916   1.605
69468W        W40068  26.527  11.561  11.310
69469W        W40069  24.143  39.022   3.121
69470W        W40070  17.326  40.014   4.075
69471W        W40071  14.301  43.793   2.207
69472W        W40072  35.268  13.374   4.082
69473W        W40073  27.914  10.175  13.479
69474W        W40074  38.737  16.241  13.024
69475W        W40075  19.110  40.371   4.939
69476W        W40076   0.226  29.144   0.818
69477W        W40077  40.911  36.037   4.417
69478W        W40078  27.912  21.797  12.472
69479W        W40079  30.969  29.134  13.478
69480W        W40080  30.523  20.050  10.714
69481W        W40081   7.783  15.566   4.098
69482W        W40082   9.209  43.512  10.669
69483W        W40083  12.829  16.130  12.632
69484W        W40084  21.779  34.361  11.714
69485W        W40085  12.227  36.557  11.618
69486W        W40086  25.172  40.257  13.996
69487W        W40087  38.218  11.958  13.754
69488W        W40088  44.009  15.163  14.872
69489W        W40089  40.584  35.981   1.402
69490W        W40090  44.981  32.366   4.396
69491W        W40091  26.113  20.917  12.404
69492W        W40092  13.433  36.641  12.901
69493W        W40093  29.089  13.181   1.540
69494W        W40094  18.145   0.273  12.668
69495W        W40095  24.516  44.943   1.270
69496W        W40096  44.904   2.331   2.274
69497W        W40097   2.394  15.631  12.994
69498W        W40098   3.965  15.664  12.455
69499W        W40099  29.675  44.975   2.257
69500W        W40100  13.493  23.509  11.185
69501W        W40101  33.554   3.809  14.906
69502W        W40102  15.659   4.614  14.858
69503W        W40103   7.384   7.027  12.045
69504W        W40104   5.671  33.838  13.490
69505W        W40105  32.991  23.927   4.712
69506W        W40106  22.587  36.004   4.487
69507W        W40107  10.528  28.915   4.630
69508W        W40108   0.795  34.194  10.709
69509W        W40109  19.669  19.744   2.665
69510W        W40110  24.183  24.051  14.378
69511W        W40111   2.845  41.130  10.646
69512W        W40112  18.759   9.223   0.718
69513W        W40113  27.478  13.198  11.693
69514W        W40114  36.942  14.906  13.574
69515W        W40115  34.934  11.645   0.431
69516W        W40116  17.634  16.703   3.825
69517W        W40117   9.836  25.708  14.992
69518W        W40118  18.556  25.952   4.878
69519W        W40119  32.721   2.727  11.982
69520W        W40120  39.385  40.201  11.940
69521W        W40121   8.348  35.002   3.332
69522W        W40122  43.859  11.658   2.121
69523W        W40123  12.700  36.573   3.775
69524W        W40124  22.714  16.639   1.758
69525W        W40125   1.927  10.423   2.163
69526W        W40126  11.839  36.353   2.719
69527W        W40127  16.779  20.548  12.582
69528W        W40128  11.943   7.662  14.843
69529W        W40129   8.775  31.066   2.603
69530W        W40130  44.910  10.410   4.182
69531W        W40131  13.132   2.940   4.768
69532W        W40132  37.381  29.665   1.194
69533W        W40133  21.498   5.372  11.334
69534W        W40134  32.688   8.698  13.221
69535W        W40135  10.101   0.680  13.486
69536W        W40136  21.060   1.307  10.702
69537W        W40137   5.492  27.246  12.611
69538W        W40138  27.029  24.128  13.761
69539W        W40139  14.412  21.181   2.143
69540W        W40140  39.851  39.794   2.661
69541W        W40141  15.341  17.621   3.681
69542W        W40142  29.831  39.288  12.802
69543W        W40143  35.446  15.791   1.319
69544W        W40144  32.484  16.066   1.221
69545W        W40145  24.819  39.491  14.421
69546W        W40146  30.297  30.930  13.020
69547W        W40147  27.933   8.613   2.399
69548W        W40148  29.666  39.010  11.138
69549W        W40149  28.277  25.633   3.044
69550W        W40150  10.713   4.382  13.778
69551W        W40151   7.918  42.913  10.413
69552W        W40152  30.073  28.728   1.287
69553W        W40153  10.611  13.327   2.778
69554W        W40154  14.177   4.844  10.751
69555W        W40155   1.718   7.715  14.241
69556W        W40156  32.028  19.994   1.933
69557W        W40157   3.455  19.231  13.062
69558W        W40158   8.832  21.627   1.770
69559W        W40159  18.138  16.018  11.942
69560W        W40160  34.366  33.993   1.695
69561W        W40161  41.772  11.756   4.634
69562W        W40162  41.931  33.500   1.028
69563W        W40163  28.861  18.138   2.794
69564W        W40164  31.586  41.809  12.963
69565W        W40165  35.563  25.664   3.190
69566W        W40166  26.361   3.417  14.228
69567W        W40167  26.574   1.542   0.882
69568W        W40168   1.247   3.786  13.919
69569W        W40169  32.936  18.216  13.052
69570W        W40170   4.523  18.023   4.344
69571W        W40171  14.993  31.341  11.127
69572W        W40172  23.612  32.383   0.517
69573W        W40173  21.781   9.193   0.757
69574W        W40174  31.183  11.870   3.150
69575W        W40175  23.121   5.977  13.428
69576W        W40176  23.194  30.873   0.876
69577W        W40177  43.838  13.817  12.988
69578W        W40178  23.181  38.517   2.698
69579W        W40179  34.361  17.264   1.256
69580W        W40180  38.575  33.159   3.280
69581W        W40181  36.813  12.790  13.342
69582W        W40182  19.349  24.247  11.088
69583W        W40183  42.506  21.281  11.136
69584W        W40184  34.449  41.488   2.893
69585W        W40185  40.182  36.065   2.860
69586W        W40186   3.750  42.295   3.359
69587W        W40187  38.750  25.123  11.189
69588W        W40188  15.249  15.537  13.949
69589W        W40189  25.710  38.141   2.470
69590W        W40190   4.845  32.780   2.181
69591W        W40191  27.533   1.238   1.812
69592W        W40192  11.202  16.897  11.759
69593W        W40193  19.243   4.219   2.197
69594W        W40194  29.019  44.956  11.598
69595W        W40195   2.690  41.053  11.128
69596W        W40196   9.788   9.704  13.632
69597W        W40197   4.139  32.329  14.439
69598W        W40198  42.911  37.021  12.578
69599W        W40199  41.005  22.385   5.102
69600W        W40200  28.291  17.672  10.531
69601W        W40201  13.059  14.568  14.258
69602W        W40202  33.570   1.325  14.911
69603W        W40203  15.020  26.172   2.187
69604W        W40204  44.433  23.884   0.819
69605W        W40205  13.397  37.999   0.849
69606W        W40206  19.772  22.559  11.637
69607W        W40207  43.254  12.743  13.960
69608W        W40208  12.762  14.326   3.391
69609W        W40209  16.902  31.776   0.332
69610W        W40210  23.296  34.156  14.777
69611W        W40211   1.964  36.972  13.852
69612W        W40212  23.981  41.325   5.069
69613W        W40213  31.982  13.312  11.180
69614W        W40214  33.120   9.873   4.632
69615W        W40215   2.384  24.596   0.237
69616W        W40216   2.169   1.022   2.031
69617W        W40217  13.435  31.388   4.372
69618W        W40218  24.064  34.961   1.449
69619W        W40219   4.797  34.658  12.384
69620W        W40220  30.403   2.934   0.940
69621W        W40221  14.274  14.166  11.689
69622W        W40222  38.965  43.549  14.782
69623W        W40223  25.025  32.582  12.399
69624W        W40224  18.799   4.127   0.190
69625W        W40225  24.903  44.775   2.832
69626W        W40226  31.996  13.860   2.464
69627W        W40227  28.436   0.708  10.539
69628W        W40228  28.243  39.566  12.463
69629W        W40229  14.384  17.639   2.240
69630W        W40230  12.797  32.475  13.398
69631W        W40231  32.028  10.274   2.115
69632W        W40232  38.993  14.686   0.396
69633W        W40233   5.889  41.500  14.808
69634W        W40234  20.535   1.310  12.880
69635W        W40235  40.029  43.469  14.725
69636W        W40236  28.677  17.760   3.631
69637W        W40237  25.082  39.673  11.122
69638W        W40238  16.945  40.974  12.279
69639W        W40239  23.164  19.664   0.022
69640W        W40240  25.381   3.323  14.085
69641W        W40241  42.614  40.070  12.507
69642W        W40242  23.362   3.844  13.488
69643W        W40243  37.258  21.325  10.143
69644W        W40244  26.921  12.831  14.843
69645W        W40245  25.466  42.989  11.120
69646W        W40246  31.092  26.982  10.412
69647W        W40247   5.919  35.185   4.582
69648W        W40248  13.249  44.685  13.072
69649W        W40249  43.225  35.700   2.680
69650W        W40250  17.243  42.437   0.793
69651W        W40251  36.074   3.916  11.278
69652W        W40252  29.855  24.134   2.896
69653W        W40253   3.903  36.880   3.628
69654W        W40254  31.558   1.019   3.314
69655W        W40255  18.795  12.336  12.058
69656W        W40256  32.108  38.319  10.978
69657W        W40257  15.310  31.721  12.880
69658W        W40258   5.438  41.737  11.631
69659W        W40259  25.057  27.069   0.898
69660W        W40260  26.465  42.450   1.560
69661W        W40261  32.469  22.771   4.118
69662W        W40262  27.693   0.947   0.520
69663W        W40263  23.502  42.094  12.086
69664W        W40264  30.526  29.647   2.741
69665W        W40265  18.305  24.088  11.065
69666W        W40266  30.472  28.150   5.067
69667W        W40267  32.127  23.142   4.106
69668W        W40268  20.735  43.337   4.166
69669W        W40269  21.236  19.859   0.200
69670W        W40270  36.515  38.788   5.060
69671W        W40271  30.864   8.355   4.587
69672W        W40272   0.004  40.417  10.735
69673W        W40273  14.837  26.447   1.748
69674W        W40274  15.335  35.274   3.354
69675W        W40275  40.974  17.839  11.197
69676W        W40276  29.085  43.817   2.919
69677W        W40277   2.439  28.212   2.225
69678W        W40278   0.902   5.095  10.948
69679W        W40279  19.591   4.246   3.807
69680W        W40280  12.179  29.437  11.989
69681W        W40281  29.359   1.409   0.265
69682W        W40282  23.189  23.503   2.035
69683W        W40283  17.594   4.203  14.631
69684W        W40284  26.119  11.537  12.603
69685W        W40285  42.597   7.849   4.727
69686W        W40286  17.589  43.438  13.317
69687W        W40287  25.690  34.982  13.300
69688W        W40288   2.792  17.994  11.141
69689W        W40289  37.282  33.710  12.012
69690W        W40290  35.487  15.534  10.740
69691W        W40291  24.110  19.660   0.547
69692W        W40292  43.339   4.501  12.445
69693W        W40293  19.551  33.274   0.232
69694W        W40294  28.220   1.737  14.749
69695W        W40295  29.876  16.310   2.754
69696W        W40296  30.079  26.300  12.614
69697W        W40297  29.256  30.884  14.564
69698W        W40298  27.927  13.859  11.585
69699W        W40299  42.821  23.592   2.813
69700W        W40300   9.456   0.359  11.286
69701W        W40301  24.575   7.918   1.802
69702W        W40302   8.400   9.630  13.127
69703W        W40303  42.618  25.001   4.085
69704W        W40304  34.065  34.816   1.229
69705W        W40305  37.835  21.614  14.888
69706W        W40306  19.505  14.726   2.266
69707W        W40307  19.676  27.420  13.413
69708W        W40308   4.334  24.048   2.948
69709W        W40309  15.370  15.476  10.307
69710W        W40310   8.991  21.209  10.431
69711W        W40311  25.684   0.262   4.085
69712W        W40312  11.240  40.944  11.405
69713W        W40313   0.470  15.600   2.346
69714W        W40314  32.378  41.204  14.252
69715W        W40315  15.138  21.522   0.953
69716W        W40316  32.047  42.583  13.025
69717W        W40317   9.902  20.621  13.875
69718W        W40318  24.481   2.255  12.557
69719W        W40319  42.852  39.028  11.669
69720W        W40320  26.674  15.332  13.456
69721W        W40321  13.346  37.137  14.832
69722W        W40322  18.169  10.201   4.199
69723W        W40323  33.566  35.001   2.613
69724W        W40324  27.834  12.225   4.102
69725W        W40325  39.351  18.637   2.314
69726W        W40326  15.130  41.549  12.487
69727W        W40327  30.942   0.433  10.730
69728W        W40328  19.006  22.835   2.224
69729W        W40329  31.383  16.775   4.173
69730W        W40330   0.770  25.923  12.562
69731W        W40331  11.328  37.921   4.741
69732W        W40332  32.308  33.146  14.943
69733W        W40333  28.409  38.874   0.374
69734W        W40334  21.508   5.668   4.071
69735W        W40335   1.535   6.800  10.664
69736W        W40336  41.454  41.830   3.679
69737W        W40337  18.301  43.242   3.494
69738W        W40338   6.217  29.567  10.393
69739W        W40339  33.594  11.270  12.815
69740W        W40340  39.421  29.039  13.662
69741W        W40341   2.241  26.698   1.424
69742W        W40342  20.693  21.232   3.128
69743W        W40343  35.894  42.788   0.883
69744W        W40344  39.738  10.702   0.392
69745W        W40345  22.542  26.775   2.367
69746W        W40346   1.369  35.943   3.677
69747W        W40347  40.744  36.478  13.370
69748W        W40348  21.645  26.955   4.701
69749W        W40349   3.678   8.945   1.226
69750W        W40350  30.632  27.956  12.120
69751W        W40351  12.528  31.892   0.810
69752W        W40352  25.704  41.077   3.618
69753W        W40353  38.436   9.121   2.357
69754W        W40354   1.429  18.502   1.316
69755W        W40355  41.193  39.349  13.395
69756W        W40356  22.336   7.405  10.334
69757W        W40357  12.281  14.136   3.409
69758W        W40358  31.892   1.135  12.961
69759W        W40359  23.161  41.592  14.783
69760W        W40360  19.466  31.850  10.738
69761W        W40361  15.616  29.385   1.437
69762W        W40362  39.460  17.941   4.995
69763W        W40363  37.095  27.606   0.948
69764W        W40364  11.320  42.040  11.360
69765W        W40365  15.170  14.336  11.918
69766W        W40366  14.321  11.055  12.948
69767W        W40367  24.587  23.898  12.073
69768W        W40368  14.215  36.416   4.496
69769W        W40369  16.507  31.372  13.858
69770W        W40370  24.647  15.556   1.294
69771W        W40371  42.441  35.564  11.962
69772W        W40372  30.351  14.151   2.492
69773W        W40373   6.393   4.716  10.609
69774W        W40374   3.473  40.911  14.908
69775W        W40375  25.038   8.753   0.400
69776W        W40376  33.816   3.444  10.639
69777W        W40377  41.844  28.691   0.697
69778W        W40378  29.765  14.728  13.256
69779W        W40379  23.583  13.356   1.125
69780W        W40380  43.930  11.634  10.697
69781W        W40381  26.544  32.397   1.176
69782W        W40382  10.140   7.560   1.249
69783W        W40383  33.641  36.361  11.676
69784W        W40384  33.069  23.553   2.156
69785W        W40385   9.017   8.359  14.456
69786W        W40386  41.735  11.846  13.389
69787W        W40387  20.986  34.033  13.424
69788W        W40388  15.186  20.012   0.924
69789W        W40389  34.998  19.133   4.713
69790W        W40390  39.439  30.106   1.908
69791W        W40391   5.830  41.996   1.009
69792W        W40392  12.228  39.136  13.544
69793W        W40393   8.628  41.382  12.519
69794W        W40394   2.731  37.565  10.689
69795W        W40395  24.882  21.766  12.518
69796W        W40396  34.833  44.438   3.227
69797W        W40397  35.795   5.386  14.964
69798W        W40398   4.917  11.221  14.543
69799W        W40399   6.556  38.212   4.780
69800W        W40400  33.725  31.977   3.419
69801W        W40401  23.737  10.210   3.367
69802W        W40402  11.024  36.136  11.221
69803W        W40403  36.679  14.301  14.994
69804W        W40404  15.220  16.288  13.407
69805W        W40405   5.695  43.974   1.526
69806W        W40406  15.853  22.121  12.318
69807W        W40407  33.826   3.899   1.483
69808W        W40408  44.980  21.306  14.255
69809W        W40409   1.524   3.306   2.850
69810W        W40410  37.297  28.712  11.559
69811W        W40411  27.553   3.501   1.288
69812W        W40412  38.760  32.041   5.002
69813W        W40413  12.735  39.464  11.370
69814W        W40414  15.078  39.539  12.529
69815W        W40415  25.249  14.800  11.001
69816W        W40416  33.060  33.034   3.532
69817W        W40417  23.979  24.728   1.182
69818W        W40418  43.373   8.172   3.279
69819W        W40419  32.966  19.688  10.397
69820W        W40420  26.002  44.250   2.327
69821W        W40421   0.294  44.592   4.600
69822W        W40422  16.154  19.114   2.268
69823W        W40423  34.906  42.306   2.757
69824W        W40424  30.811  33.365  12.311
69825W        W40425  21.756  35.406   2.703
69826W        W40426  42.582  31.550  11.511
69827W        W40427  27.028  40.797   2.384
69828W        W40428  42.394  40.915  11.574
69829W        W40429  13.765  12.706   4.975
69830W        W40430  12.125  14.831   1.655
69831W        W40431  31.280   9.842  13.250
69832W        W40432  25.564  42.303  11.685
69833W        W40433  40.603  17.358  12.049
69834W        W40434  20.674  11.127   2.359
69835W        W40435   8.061  22.822   0.868
69836W        W40436  11.772   0.233  12.375
69837W        W40437   4.237  36.557   4.300
69838W        W40438  31.177  17.132  11.099
69839W        W40439  25.629   8.400  11.050
69840W        W40440  39.442  15.222   2.589
69841W        W40441   2.220  18.085   2.296
69842W        W40442   9.444  14.818   0.904
69843W        W40443  28.763  40.820   0.530
69844W        W40444  21.577  36.337   3.789
69845W        W40445  14.926  23.932  14.481
69846W        W40446   3.449  22.030   1.485
69847W        W40447   1.942  10.232  11.266
69848W        W40448  22.465  17.665  13.609
69849W        W40449  25.548  16.306  10.648
69850W        W40450  23.671   8.412  10.923
69851W        W40451  28.395   1.244  14.586
69852W        W40452  10.793  24.669  13.988
69853W        W40453  34.684  42.504  11.622
69854W        W40454  36.924  11.394  11.355
69855W        W40455  31.167   9.854   0.495
69856W        W40456  31.474   9.266  13.490
69857W        W40457  11.314  29.657  10.608
69858W        W40458   3.222  19.505  14.942
69859W        W40459  24.696  35.479  10.524
69860W        W40460  41.635   5.761   2.380
69861W        W40461  10.126  35.029  12.781
69862W        W40462  25.152  18.198   0.752
69863W        W40463  20.126  16.639   3.422
69864W        W40464  12.408  29.839  12.859
69865W        W40465  42.959  42.100   2.829
69866W        W40466  11.710  20.238  11.173
69867W        W40467  43.997  38.774  12.956
69868W        W40468   2.604  11.997   3.370
69869W        W40469  32.966   7.779  11.220
69870W        W40470  21.415  21.986  13.851
69871W        W40471  27.547   9.647  13.954
69872W        W40472  25.681  42.080  11.026
69873W        W40473  28.048  36.599   1.011
69874W        W40474   4.360  24.400  12.624
69875W        W40475  31.389  32.132  11.464
69876W        W40476  14.740  36.697   4.552
69877W        W40477  19.477   1.961  10.419
69878W        W40478  10.070   6.323  13.004
69879W        W40479   1.744  32.089  11.764
69880W        W40480  14.859  41.323   3.265
69881W        W40481  22.743  37.189   5.200
69882W        W40482   8.905  41.384   0.310
69883W        W40483   9.221  43.963   2.896
69884W        W40484   4.145  16.613  12.092
69885W        W40485   1.231   7.507   4.682
69886W        W40486   0.556  25.619   1.309
69887W        W40487  29.696  22.609   2.371
69888W        W40488  21.443  35.547   5.060
69889W        W40489  36.892   5.784  12.332
69890W        W40490  29.164   7.072  13.978
69891W        W40491   2.082   5.445   4.786
69892W        W40492  38.733  33.555  13.931
69893W        W40493  15.871  27.577   2.519
69894W        W40494   2.607   3.656  11.776
69895W        W40495  34.437  14.530  13.946
69896W        W40496  27.215   5.233   4.698
69897W        W40497  11.790  19.390   4.520
69898W        W40498   3.265   6.841  12.876
69899W        W40499  36.316  10.106   1.562
69900W        W40500  23.295  16.123  13.411
69901W        W40501  12.133  34.841  10.420
69902W        W40502  34.986  36.322   5.096
69903W        W40503  29.413  33.460   2.397
69904W        W40504  34.452   3.719   4.653
69905W        W40505  25.120   2.894   3.119
69906W        W40506  12.233  44.426   0.474
69907W        W40507  26.086  15.642   1.902
69908W        W40508  35.942  15.640   2.779
69909W        W40509  34.010  15.683   9.595
69910W        W40510  25.055  18.806  12.613
69911W        W40511   0.006  44.067  12.517
69912W        W40512   3.426  27.032   0.706
69913W        W40513   0.573  41.355   3.618
69914W        W40514  25.734   4.947  14.432
69915W        W40515  32.139  20.564  12.394
69916W        W40516  26.120   2.131  12.015
69917W        W40517   8.687  26.726   0.076
69918W        W40518   4.365  22.381   3.279
69919W        W40519  41.977  13.450  12.884
69920W        W40520  34.761  14.837   0.864
69921W        W40521  30.358   3.783   0.987
69922W        W40522   9.869   4.583   2.648
69923W        W40523  40.393  27.551   0.722
69924W        W40524  14.594  29.977  13.328
69925W        W40525  16.257  29.450   4.855
69926W        W40526   4.327  41.885  10.582
69927W        W40527  43.845  13.598   4.385
69928W        W40528  41.611  43.202  11.200
69929W        W40529  10.861  11.184  11.124
69930W        W40530  42.273  10.069  13.384
69931W        W40531  21.876  40.526   3.420
69932W        W40532   3.634  36.001   4.517
69933W        W40533   1.932   8.352  10.691
69934W        W40534  18.349  33.004   2.868
69935W        W40535  35.469  29.422  13.238
69936W        W40536   1.972  13.270   3.674
69937W        W40537  23.076  16.746   3.347
69938W        W40538  34.516  35.895  13.743
69939W        W40539  35.575  29.606  13.720
69940W        W40540  37.329  20.074   4.182
69941W        W40541   5.015  26.502  14.289
69942W        W40542  31.583  17.328  14.834
69943W        W40543  30.450   7.357  12.849
69944W        W40544   3.944  21.570   0.970
69945W        W40545   1.192  44.725  12.057
69946W        W40546  40.115  34.402  12.027
69947W        W40547  17.580  41.073  14.470
69948W        W40548   2.693   0.748  14.439
69949W        W40549  26.480  29.409   3.114
69950W        W40550  36.998   8.891   0.748
69951W        W40551   0.988  27.076   1.929
69952W        W40552  39.435  27.906  14.745
69953W        W40553  13.636  18.264   4.594
69954W        W40554  20.012  35.662   4.853
69955W        W40555  41.558  22.471  12.413
69956W        W40556   6.614   7.139  14.561
69957W        W40557  28.304  21.729   1.793
69958W        W40558   3.961  32.460  10.887
69959W        W40559  24.305  30.758   2.248
69960W        W40560  26.430  30.308  14.805
69961W        W40561  11.747   1.175   2.797
69962W        W40562  27.146  25.154  11.578
69963W        W40563  43.025  23.140  10.660
69964W        W40564   1.481   1.219  13.039
69965W        W40565  30.633  35.963  13.778
69966W        W40566  30.456  21.168   0.663
69967W        W40567  13.587  39.454  13.880
69968W        W40568   2.821   0.392   2.863
69969W        W40569  44.927  37.843   2.719
69970W        W40570  35.398  16.108  12.058
69971W        W40571  17.203  13.270  14.413
69972W        W40572   9.840  42.345  13.362
69973W        W40573  22.211   5.466   1.957
69974W        W40574  41.699   1.993  11.176
69975W        W40575   1.552  42.318  13.456
69976W        W40576  19.320  26.280  14.914
69977W        W40577  18.904  44.671  14.806
69978W        W40578  22.130  40.902  11.613
69979W        W40579  27.241   7.418   1.591
69980W        W40580  32.035  23.030   0.341
69981W        W40581  11.669  23.215  12.148
69982W        W40582   8.663  23.639  12.551
69983W        W40583   2.151  34.887   1.455
69984W        W40584  14.436  18.451  11.226
69985W        W40585  29.020  19.514  13.813
69986W        W40586  35.979   9.667   2.477
69987W        W40587  32.677  44.376   1.910
69988W        W40588  40.114  39.363   0.590
69989W        W40589   7.446  43.847   4.851
69990W        W40590  41.988  41.392   1.765
69991W        W40591  41.034  13.047   1.258
69992W        W40592  41.876   7.418  10.006
69993W        W40593  14.600  13.760  11.614
69994W        W40594   9.646  22.580  14.720
69995W        W40595  19.759  40.931   2.720
69996W        W40596  24.970   1.123   0.799
69997W        W40597   5.141  15.125   0.704
69998W        W40598  11.038   7.126  14.121
69999W        W40599  19.917  31.207  12.718
70000W        W40600  41.567  28.733   3.388
70001W        W40601  29.068  10.421   1.211
70002W        W40602  17.062  18.807   2.801
70003W        W40603  41.955  11.768  14.887
70004W        W40604  38.930   5.837  10.737
70005W        W40605  23.138   6.584   2.148
70006W        W40606  41.620  24.739   1.484
70007W        W40607  11.945  11.603  13.385
70008W        W40608  42.726   2.608  12.983
70009W        W40609   8.752  39.795  12.310
70010W        W40610  28.962   4.964   1.701
70011W        W40611  26.546  31.476  11.029
70012W        W40612   3.663  10.811   1.200
70013W        W40613  14.689  16.726   3.776
70014W        W40614  15.753  10.748   1.298
70015W        W40615  13.327  20.699  14.885
70016W        W40616   7.782  19.796   1.686
70017W        W40617  15.199  11.956  14.259
70018W        W40618  44.873  38.025   4.143
70019W        W40619  38.805  33.474   1.296
70020W        W40620  37.219   1.363   5.068
70021W        W40621  11.845  26.323  14.721
70022W        W40622  17.224  42.878   4.791
70023W        W40623  14.149  24.535   2.915
70024W        W40624  31.502   5.209  12.404
70025W        W40625  41.221   9.246  14.883
70026W        W40626   1.330  41.816  11.184
70027W        W40627  44.383   3.620  10.827
70028W        W40628  17.225  26.369   2.711
70029W        W40629  23.266  25.005  14.525
70030W        W40630   7.822  41.545  10.758
70031W        W40631  41.996  40.623   4.109
70032W        W40632   9.581  30.372  10.606
70033W        W40633  20.143   9.858   0.831
70034W        W40634   3.860  43.397  12.199
70035W        W40635  20.493   2.811   2.277
70036W        W40636   2.334  31.004  12.004
70037W        W40637  19.724  34.821  10.645
70038W        W40638  32.132  25.988   1.910
70039W        W40639   0.556  33.430  11.762
70040W        W40640   6.835  22.288   3.921
70041W        W40641  12.286  25.485   2.387
70042W        W40642  25.113  31.140  11.604
70043W        W40643  40.754   7.029   4.574
70044W        W40644  37.911  15.800   0.838
70045W        W40645  37.413  35.499   4.399
70046W        W40646  24.409  35.414  12.856
70047W        W40647  44.404  17.228  14.988
70048W        W40648  41.125  20.757  10.272
70049W        W40649  11.272   3.990  11.148
70050W        W40650  14.290  31.624  13.085
70051W        W40651  23.126  39.104   1.401
70052W        W40652  36.679  19.454   4.238
70053W        W40653  20.579  31.068   4.817
70054W        W40654  37.638  26.854   3.374
70055W        W40655  35.055  17.635  12.893
70056W        W40656  35.487   0.413  13.820
70057W        W40657  20.502  39.473   4.172
70058W        W40658  14.466   8.906  13.848
70059W        W40659  41.106  17.788   2.663
70060W        W40660  32.614  41.253   2.130
70061W        W40661   9.400  29.055   3.771
70062W        W40662  29.364  27.582   2.861
70063W        W40663   9.404  28.018  13.979
70064W        W40664  22.680  30.054   4.287
70065W        W40665   5.805   2.974  11.084
70066W        W40666   0.912  24.601   1.961
70067W        W40667  14.090  11.047   3.757
70068W        W40668  16.155  39.558   2.730
70069W        W40669  31.096  30.585   4.048
70070W        W40670   0.584   4.118  14.963
70071W        W40671  32.834   4.996   0.986
70072W        W40672  19.575  20.089  11.947
70073W        W40673  42.519   2.749  11.225
70074W        W40674  11.852  27.984  14.835
70075W        W40675  13.409  29.177   0.845
70076W        W40676  22.581  36.639   0.366
70077W        W40677  35.345   7.091  14.247
70078W        W40678  19.689  19.408   3.104
70079W        W40679  20.107   5.824   2.130
70080W        W40680  27.613  30.631   3.186
70081W        W40681  19.808  14.758   2.695
70082W        W40682  37.503  27.031   0.413
70083W        W40683  11.127  34.504   2.929
70084W        W40684   3.260  44.295   2.317
70085W        W40685  41.792  31.582   1.189
70086W        W40686   2.690  41.942  11.424
70087W        W40687  40.533  36.920   2.314
70088W        W40688  34.577  43.407  12.548
70089W        W40689  27.051  40.270   2.323
70090W        W40690   9.838  35.835  13.533
70091W        W40691  13.675  21.999   2.092
70092W        W40692  40.265   0.568  11.588
70093W        W40693  27.420   1.902  10.443
70094W        W40694  17.629  33.353   4.082
70095W        W40695  16.465   9.597   4.056
70096W        W40696  15.361  43.733  14.822
70097W        W40697   1.945  44.203   3.205
70098W        W40698  16.435  28.044  14.459
70099W        W40699  10.611  37.144   4.502
70100W        W40700  12.386  32.567  14.975
70101W        W40701  30.161  25.158  14.840
70102W        W40702  32.032  30.820   0.828
70103W        W40703  33.091  10.386  11.156
70104W        W40704  28.923  28.597   0.973
70105W        W40705   4.529  32.236  13.351
70106W        W40706  29.298   4.090  11.022
70107W        W40707   8.235  43.441  11.574
70108W        W40708  28.906   0.703   3.230
70109W        W40709   3.272   4.518   0.852
70110W        W40710   9.161  13.798  12.410
70111W        W40711  24.579  33.995   3.732
70112W        W40712  29.342   8.913  14.946
70113W        W40713  35.962   9.216  11.309
70114W        W40714  13.606   6.292  13.614
70115W        W40715  38.099  11.234  12.065
70116W        W40716  40.019   1.892   0.931
70117W        W40717   2.913  30.295   1.936
70118W        W40718  35.947   1.202   1.151
70119W        W40719  10.587  28.314   1.304
70120W        W40720  30.961  35.918  12.962
70121W        W40721  27.687  20.889  10.521
70122W        W40722  40.520  37.836  13.415
70123W        W40723   3.553  31.020   5.100
70124W        W40724  11.560  10.679   4.383
70125W        W40725   9.806  42.959   5.086
70126W        W40726  37.815  14.526   4.182
70127W        W40727  39.283  42.272   0.942
70128W        W40728  44.864   1.936  13.306
70129W        W40729  44.131  10.774   4.602
70130W        W40730  24.298   9.874  14.668
70131W        W40731  15.733   6.851  14.394
70132W        W40732  16.568   1.011   3.417
70133W        W40733  40.925  26.948   3.278
70134W        W40734  18.733   8.345  10.752
70135W        W40735  12.768  43.432  11.490
70136W        W40736   7.277  33.134   4.100
70137W        W40737   7.927  25.145   1.451
70138W        W40738  29.491  18.558   1.315
70139W        W40739  24.118  20.796   2.395
70140W        W40740  15.014  19.954   4.938
70141W        W40741  26.456  36.474  12.732
70142W        W40742  40.793  19.193  10.785
70143W        W40743  43.455  25.680   2.587
70144W        W40744  38.488   4.900   1.791
70145W        W40745  35.544  13.094   3.672
70146W        W40746  17.868  21.707  12.067
70147W        W40747   5.856  18.600   3.316
70148W        W40748  29.273  43.820   3.385
70149W        W40749  21.535  24.012  12.546
70150W        W40750  21.701   7.871  11.693
70151W        W40751  44.780  31.434   3.549
70152W        W40752  11.131  12.361   1.359
70153W        W40753  20.010   6.360  14.958
70154W        W40754  13.366  22.141   4.458
70155W        W40755   4.459  40.201  13.876
70156W        W40756  20.580   8.292  12.960
70157W        W40757   9.668  32.158  10.067
70158W        W40758   4.764   9.699  14.945
70159W        W40759   8.832   0.974   2.841
70160W        W40760  15.618   4.210   2.401
70161W        W40761   0.675  38.091   3.554
70162W        W40762  22.015  11.425  11.167
70163W        W40763  15.639  31.165   1.509
70164W        W40764  15.320  21.947   4.676
70165W        W40765  23.847   4.830  12.508
70166W        W40766  16.797  34.419   0.978
70167W        W40767  25.857  34.416   1.152
70168W        W40768  22.622  22.586   4.892
70169W        W40769  32.184  33.513  10.544
70170W        W40770   7.702  39.733   0.087
70171W        W40771   4.727   7.165  11.588
70172W        W40772   1.727  36.900   1.196
70173W        W40773  16.712  25.139   3.603
70174W        W40774   8.708  29.575   1.778
70175W        W40775   6.997  27.277   4.919
70176W        W40776   7.873  29.010   0.476
70177W        W40777  19.382  25.786  12.050
70178W        W40778  33.387  31.518   2.704
70179W        W40779   5.177   9.403  13.473
70180W        W40780  17.274   4.302   0.451
70181W        W40781  28.225  44.850   4.358
70182W        W40782  28.969  30.830   1.033
70183W        W40783   4.366  22.062  13.409
70184W        W40784   1.194  24.506  10.905
70185W        W40785  13.273  27.734   3.322
70186W        W40786   7.171  44.008  12.464
70187W        W40787  24.790   2.744   2.289
70188W        W40788   6.925   6.384   0.896
70189W        W40789  29.386  16.014  11.672
70190W        W40790  34.353  40.968  13.533
70191W        W40791  30.241  34.013   3.552
70192W        W40792  40.299  35.739   5.030
70193W        W40793  29.847  42.470  14.083
70194W        W40794   7.675  18.738   2.298
70195W        W40795   0.246  43.733   2.717
70196W        W40796  29.940  35.416   0.890
70197W        W40797  16.157  24.633  13.099
70198W        W40798  26.911  13.331   2.979
70199W        W40799  36.354  25.479   0.307
70200W        W40800   3.353   8.400   1.846
70201W        W40801  20.062   2.286   4.597
70202W        W40802  40.633  44.157  11.071
70203W        W40803  20.960   1.282  14.502
70204W        W40804  17.715  37.559  11.736
70205W        W40805  40.822   0.766   0.551
70206W        W40806  11.886  15.011  11.115
70207W        W40807  25.157  20.717   3.555
70208W        W40808  42.429   4.181  13.398
70209W        W40809  40.085  17.375  11.988
70210W        W40810   7.918  38.691   0.887
70211W        W40811   0.391  37.988   1.913
70212W        W40812  13.077   6.590  12.076
70213W        W40813  37.238  43.007   1.455
70214W        W40814   2.730  22.513   2.046
70215W        W40815  20.972   0.526   4.553
70216W        W40816  13.706  32.599   4.509
70217W        W40817  21.459  22.295  10.486
70218W        W40818  40.805   0.765  14.003
70219W        W40819  25.811  22.029  13.144
70220W        W40820  32.805  13.320  13.589
70221W        W40821  44.522  32.442  14.366
70222W        W40822  26.421  13.856  10.622
70223W        W40823  34.649  37.417  13.451
70224W        W40824  11.802  19.020  13.991
70225W        W40825  12.811   3.688   3.226
70226W        W40826   3.496  23.797   2.956
70227W        W40827   2.370  31.159  10.461
70228W        W40828  24.612  11.235   2.370
70229W        W40829   2.319  13.737  14.070
70230W        W40830  42.345  31.897   1.919
70231W        W40831  32.436  34.542  11.667
70232W        W40832   1.535  25.471   3.465
70233W        W40833   2.839  32.193  12.457
70234W        W40834  29.037  35.632   4.540
70235W        W40835  13.407  17.205  14.334
70236W        W40836  11.429  19.542   2.857
70237W        W40837   1.972  14.207   3.795
70238W        W40838   3.416  12.060  11.912
70239W        W40839  11.116  18.192   1.490
70240W        W40840  24.689  40.837   4.336
70241W        W40841  23.121  12.867  10.814
70242W        W40842  18.738   1.290  13.386
70243W        W40843  14.149  23.668  10.548
70244W        W40844  44.320  44.367  14.064
70245W        W40845   3.942  31.449   1.265
70246W        W40846  16.086   1.077  13.759
70247W        W40847  41.923  44.198   2.669
70248W        W40848   8.214  32.120   4.648
70249W        W40849   9.661  11.120   2.728
70250W        W40850   6.338  18.175  14.817
70251W        W40851  18.301   4.841  14.253
70252W        W40852  17.905  20.658  13.502
70253W        W40853  43.480   9.223   4.198
70254W        W40854  20.808  33.509  14.479
70255W        W40855  19.667  24.066   1.888
70256W        W40856  24.778  30.406  12.066
70257W        W40857  42.340   3.569   3.396
70258W        W40858   1.611  28.276   5.071
70259W        W40859  24.653  24.285  13.672
70260W        W40860  12.123  25.192  13.804
70261W        W40861  16.159  40.743   3.334
70262W        W40862  35.970   8.568  11.984
70263W        W40863  15.593  18.820   5.045
70264W        W40864  38.642  21.069  11.998
70265W        W40865   1.026  14.688   1.687
70266W        W40866  26.173   9.827   0.960
70267W        W40867  33.574  18.254   1.142
70268W        W40868  25.341  15.836  11.100
70269W        W40869   1.747  35.411   2.313
70270W        W40870  41.481   6.740   1.805
70271W        W40871  27.181  25.978  13.823
70272W        W40872  29.052  32.097  10.570
70273W        W40873   2.156  35.539  12.494
70274W        W40874  16.578  15.265   4.181
70275W        W40875  42.314   1.940   2.412
70276W        W40876  10.863  27.263  12.499
70277W        W40877  27.482   1.192  13.524
70278W        W40878   3.144   2.672   5.049
70279W        W40879  21.463  29.622   4.450
70280W        W40880   3.926  37.890   3.351
70281W        W40881  28.583  36.401  14.852
70282W        W40882  26.012   2.633  11.964
70283W        W40883  27.643   3.692  11.406
70284W        W40884   8.870   1.543   1.317
70285W        W40885  23.038   3.924   1.687
70286W        W40886  44.769  39.048   9.968
70287W        W40887  33.395  42.471  12.176
70288W        W40888  35.882  44.843   1.724
70289W        W40889   3.476  18.647  10.426
70290W        W40890  32.496  27.483   4.170
70291W        W40891  12.628   2.961   4.926
70292W        W40892  10.746  34.438   3.298
70293W        W40893  42.385  24.587   4.802
70294W        W40894  37.418   0.391   3.102
70295W        W40895   6.523  29.628  10.811
70296W        W40896  40.176  33.036  13.582
70297W        W40897  20.055  30.254   1.949
70298W        W40898  25.288  12.097  11.672
70299W        W40899   9.176  42.590  10.743
70300W        W40900  25.211  35.331  14.312
70301W        W40901  16.422   5.167  13.157
70302W        W40902  19.728  36.956  12.033
70303W        W40903  25.242  16.103   3.713
70304W        W40904  13.181  26.189   1.738
70305W        W40905  18.513   0.561  11.469
70306W        W40906   2.427  10.520   0.835
70307W        W40907  34.349  13.065   1.023
70308W        W40908  35.857   7.882  14.857
70309W        W40909   2.387   4.679  10.246
70310W        W40910  41.611  33.573   2.084
70311W        W40911  40.510  30.929   4.623
70312W        W40912  17.195   4.438  11.744
70313W        W40913  25.189   8.466   4.505
70314W        W40914  20.388  40.601  11.001
70315W        W40915   5.532  33.168   3.049
70316W        W40916  11.720   1.510  11.936
70317W        W40917  28.227  22.912  13.202
70318W        W40918  42.960   4.863   1.762
70319W        W40919  15.560   1.673   1.834
70320W        W40920  42.839  13.228   0.452
70321W        W40921  42.460   0.762  11.336
70322W        W40922  30.416  23.470   1.776
70323W        W40923  37.904  13.126   4.165
70324W        W40924  12.738   2.797   3.875
70325W        W40925  14.688   7.970  14.063
70326W        W40926  34.968  39.267  11.593
70327W        W40927  15.779  27.877   0.778
70328W        W40928  29.050   3.834   2.197
70329W        W40929  44.861   3.369  12.863
70330W        W40930  15.733  41.384  13.948
70331W        W40931  16.335   5.671  13.287
70332W        W40932  32.073  35.714   0.347
70333W        W40933  18.342  11.102   2.536
70334W        W40934  34.343   3.276   0.835
70335W        W40935  26.955   3.578   3.349
70336W        W40936  24.719   3.657  12.099
70337W        W40937   2.999  35.779  13.770
70338W        W40938  15.574  17.233  10.247
70339W        W40939   5.736  14.342   2.356
70340W        W40940  33.449  35.586  14.045
70341W        W40941   0.802  43.042   0.273
70342W        W40942  17.977   8.424  14.274
70343W        W40943  35.639   8.343   1.399
70344W        W40944  23.394  18.219  11.856
70345W        W40945   6.367  31.625  14.376
70346W        W40946  25.459  11.165   0.937
70347W        W40947  39.415  24.197  11.034
70348W        W40948  41.366  40.907   3.799
70349W        W40949  26.960  40.766  11.024
70350W        W40950   6.222  36.259  11.586
70351W        W40951  30.136  15.737   1.708
70352W        W40952  36.970  37.291  13.634
70353W        W40953  29.888  26.391   0.746
70354W        W40954   5.928  22.775  12.865
70355W        W40955  29.028   7.893  10.464
70356W        W40956  22.627  23.489   1.702
70357W        W40957  27.121   6.600   1.264
70358W        W40958  16.225   2.811   0.138
70359W        W40959  40.814   9.057  12.238
70360W        W40960   6.701  14.366  14.027
70361W        W40961   2.313  17.829   3.245
70362W        W40962  44.773  29.342  14.005
70363W        W40963   9.261  10.807   2.825
70364W        W40964  10.608  28.665   2.597
70365W        W40965  36.025  15.793  14.710
70366W        W40966  29.008  12.579   3.177
70367W        W40967  11.831   1.768   4.649
70368W        W40968  37.597  11.223   1.491
70369W        W40969  14.092  15.668   2.681
70370W        W40970  42.835  23.711   3.514
70371W        W40971  14.676   7.421  11.313
70372W        W40972  13.856  37.374   3.132
70373W        W40973  31.546  32.197  10.525
70374W        W40974  41.093  17.270  12.144
70375W        W40975  43.562  35.027   4.564
70376W        W40976  38.563  26.346   4.793
70377W        W40977   7.165  15.296   0.992
70378W        W40978  24.652  43.774  11.527
70379W        W40979  43.602  11.745   1.036
70380W        W40980  29.113  43.357   4.084
70381W        W40981  15.878   4.392  11.559
70382W        W40982  24.023  13.633  11.608
70383W        W40983  43.262   8.952  11.144
70384W        W40984  26.531  23.106  11.902
70385W        W40985  38.326  34.520  11.592
70386W        W40986  31.889  35.119   0.821
70387W        W40987  17.147  33.163   0.306
70388W        W40988  27.955  29.441   2.507
70389W        W40989  27.857  25.164   3.695
70390W        W40990  31.953  26.628  13.425
70391W        W40991  25.635  37.082   4.245
70392W        W40992  28.404   6.717  13.068
70393W        W40993   4.964  15.622   2.030
70394W        W40994  21.118  28.548   2.369
70395W        W40995  44.031  29.890   2.267
70396W        W40996   0.206  13.689   2.793
70397W        W40997  14.911  29.094   2.749
70398W        W40998   0.817  28.566   1.318
70399W        W40999  34.836  41.820   4.292
70400W        W41000  28.921   2.888   0.908
70401W        W41001  15.637  28.388   0.897
70402W        W41002   8.320  38.116   3.211
70403W        W41003  24.879  41.560   2.885
70404W        W41004  37.517   1.968  13.048
70405W        W41005  41.792  12.992  13.050
70406W        W41006   7.678   6.132   1.866
70407W        W41007  15.413  27.818   4.312
70408W        W41008  37.603   9.454  13.848
70409W        W41009  33.531  10.656  12.010
70410W        W41010   1.753  33.851   2.251
70411W        W41011  44.846  30.602  14.402
70412W        W41012  30.642  17.263   1.899
70413W        W41013   0.414   1.501   0.836
70414W        W41014  13.219  15.543  14.052
70415W        W41015   8.625   3.449   0.497
70416W        W41016  36.493   2.237   4.043
70417W        W41017  39.335  29.082  14.926
70418W        W41018   9.111   5.724  14.017
70419W        W41019  24.086  24.906  11.731
70420W        W41020  41.010  39.253   1.599
70421W        W41021   7.323  18.568  14.054
70422W        W41022  24.243  23.477   3.730
70423W        W41023  40.333  10.197  10.079
70424W        W41024  17.706  44.180   2.386
70425W        W41025  24.837   8.889   4.658
70426W        W41026  25.929   6.352  14.731
70427W        W41027   7.297  28.020   2.713
70428W        W41028  16.028  40.916   1.241
70429W        W41029  28.515  34.426  11.625
70430W        W41030  29.681   2.925  12.505
70431W        W41031  17.269   4.381  14.132
70432W        W41032  44.739  17.051  10.666
70433W        W41033  17.756  30.644  11.974
70434W        W41034  24.208  15.870  10.752
70435W        W41035  29.864  26.516   3.527
70436W        W41036  24.773  42.987   4.576
70437W        W41037  36.431  41.705   2.203
70438W        W41038   5.308  18.626   0.536
70439W        W41039   7.378  12.216   3.774
70440W        W41040  28.031  31.605   2.207
70441W        W41041  19.595  30.259  13.972
70442W        W41042  17.134   4.987  11.149
70443W        W41043  20.230   4.989   2.334
70444W        W41044  36.982  43.512   0.054
70445W        W41045  20.622  25.416  14.930
70446W        W41046   6.859  14.161   2.392
70447W        W41047   0.464  11.862  11.936
70448W        W41048  30.123  44.538   2.572
70449W        W41049  30.946  25.519  10.805
70450W        W41050  26.940   3.183   3.653
70451W        W41051   7.607  23.156  11.774
70452W        W41052  21.808  44.118  13.030
70453W        W41053   8.186  10.376   4.691
70454W        W41054  30.011  18.601  11.230
70455W        W41055  32.226  40.169  12.125
70456W        W41056  23.084  27.485   1.264
70457W        W41057  28.390  30.910   0.865
70458W        W41058  26.431  33.746   1.636
70459W        W41059  20.048  29.942  14.606
70460W        W41060  23.282  27.968  14.789
70461W        W41061  23.082  44.041  14.626
70462W        W41062  14.708  30.400  12.550
70463W        W41063  20.677  36.582  14.107
70464W        W41064  18.947   5.375   4.424
70465W        W41065   0.082   4.411   4.862
70466W        W41066  24.989  21.223   2.101
70467W        W41067  34.399  37.874   0.932
70468W        W41068  13.991  26.357   3.024
70469W        W41069  44.362  26.625  13.277
70470W        W41070   0.387  37.409  12.937
70471W        W41071   1.862  11.805   2.789
70472W        W41072  16.430   9.089   0.397
70473W        W41073  22.976  23.948   2.217
70474W        W41074  15.588  17.149  13.403
70475W        W41075  23.651  29.583  13.426
70476W        W41076  18.633  43.856   4.639
70477W        W41077  39.388   3.936   0.627
70478W        W41078  12.590   7.953  11.112
70479W        W41079  25.921   7.267  13.860
70480W        W41080  28.388  12.653   1.462
70481W        W41081  22.487  26.964  11.520
70482W        W41082   3.313  23.331  11.624
70483W        W41083  11.126  26.048  11.640
70484W        W41084  41.412  38.215   2.777
70485W        W41085   3.172  36.929   1.382
70486W        W41086  34.957  29.392   4.374
70487W        W41087   4.840  30.955   3.165
70488W        W41088  10.098   5.350   1.890
70489W        W41089  28.157  20.808  10.295
70490W        W41090  29.187  36.042  10.628
70491W        W41091   1.348  15.229  11.124
70492W        W41092  37.550  21.148   0.739
70493W        W41093  29.161  27.494  13.428
70494W        W41094  33.691  13.790  13.571
70495W        W41095  27.386  35.444   3.192
70496W        W41096  22.561  40.069  12.934
70497W        W41097   0.781  37.949   1.131
70498W        W41098   8.792  37.043   1.893
70499W        W41099  24.929  29.847  11.125
70500W        W41100   9.810   3.751  11.888
70501W        W41101  31.441  22.131  14.332
70502W        W41102  31.189   0.966  11.136
70503W        W41103   8.162  23.783   2.267
70504W        W41104  42.170   3.546   3.984
70505W        W41105  41.374  26.103  14.209
70506W        W41106   7.150   9.282  11.369
70507W        W41107  16.106   7.757   4.289
70508W        W41108  26.025  20.117  14.579
70509W        W41109  15.799  32.364  12.109
70510W        W41110  42.308   0.838   4.912
70511W        W41111  16.741  32.174   4.110
70512W        W41112  22.468  38.703   0.797
70513W        W41113  29.251  39.529  12.559
70514W        W41114  42.908  40.975  14.296
70515W        W41115   3.734  37.945   1.498
70516W        W41116  41.407  22.797   2.129
70517W        W41117   1.215   9.836   2.172
70518W        W41118  25.959  23.255   3.143
70519W        W41119  18.666   6.961   1.443
70520W        W41120  15.976  40.082  12.365
70521W        W41121  32.631   7.859  11.608
70522W        W41122   9.308  24.876  13.982
70523W        W41123  29.999  44.349  10.502
70524W        W41124  41.879  10.434   4.219
70525W        W41125  24.050   7.476   3.564
70526W        W41126  34.582  25.026   3.675
70527W        W41127  37.435  38.523  14.831
70528W        W41128  31.429  30.506   3.246
70529W        W41129   8.172   8.452   1.908
70530W        W41130  17.168  33.445  14.799
70531W        W41131   6.713  32.043  10.957
70532W        W41132  24.428  12.890   2.261
70533W        W41133  40.438  25.699   1.312
70534W        W41134   4.235  23.776  11.422
70535W        W41135  10.226  10.185  12.633
70536W        W41136  33.040  21.233   3.712
70537W        W41137   6.405   2.422  12.978
70538W        W41138  37.033  20.295   1.842
70539W        W41139  32.658  39.482  10.182
70540W        W41140  21.617  16.133  12.382
70541W        W41141  24.626  26.543   1.472
70542W        W41142   8.803  10.669   4.205
70543W        W41143   2.293  18.512   4.447
70544W        W41144   0.418   2.983   3.350
70545W        W41145  34.733  29.716   2.360
70546W        W41146  24.676  23.193   1.290
70547W        W41147   6.921  24.680   4.031
70548W        W41148  43.277  29.198  11.420
70549W        W41149  42.134  31.043   2.731
70550W        W41150  24.176   6.472  11.994
70551W        W41151  29.603  12.203   3.549
70552W        W41152  25.461  38.617  14.391
70553W        W41153  10.496   6.110  10.875
70554W        W41154   5.437   1.378   0.374
70555W        W41155  31.704  40.252  12.174
70556W        W41156   0.435  26.768  13.065
70557W        W41157  25.228  26.151  10.717
70558W        W41158   0.255  36.536  12.103
70559W        W41159  34.546   3.502  11.074
70560W        W41160   7.282  42.555   4.037
70561W        W41161   0.180  13.665   3.786
70562W        W41162  28.903  26.694   4.363
70563W        W41163  20.728  44.922  11.038
70564W        W41164   1.235   0.417  11.431
70565W        W41165   0.022  32.349   0.357
70566W        W41166  16.122   2.387   1.434
70567W        W41167  28.881   9.666   3.657
70568W        W41168  28.175  22.042   3.730
70569W        W41169  40.932   0.178   4.154
70570W        W41170  16.023   7.281  12.635
70571W        W41171  30.563  33.692  13.992
70572W        W41172  10.679  36.723   2.735
70573W        W41173   4.658  12.115   4.628
70574W        W41174  14.313  35.413  11.126
70575W        W41175  30.232  31.840   0.822
70576W        W41176  26.032  11.826   4.897
70577W        W41177  11.382  32.985  11.880
70578W        W41178  14.195  28.129   4.938
70579W        W41179  43.013  41.245  10.764
70580W        W41180   6.300  35.404  11.357
70581W        W41181  37.859   8.704   0.786
70582W        W41182  25.414   0.730   2.640
70583W        W41183  33.995  34.424  12.905
70584W        W41184  37.551   4.837   1.331
70585W        W41185  34.715  41.272   4.113
70586W        W41186  24.741  26.264  10.505
70587W        W41187  23.773   7.647   0.038
70588W        W41188  26.157  18.699  11.880
70589W        W41189  28.914  43.380   3.098
70590W        W41190  37.621  21.232   3.192
70591W        W41191  15.756   5.007   2.080
70592W        W41192  29.913   9.715  12.142
70593W        W41193  26.182  22.034  12.732
70594W        W41194  20.178   2.285  14.596
70595W        W41195  21.646   7.915  14.177
70596W        W41196  35.492  34.894   3.222
70597W        W41197  33.576   3.487  12.899
70598W        W41198  29.747  35.075  14.054
70599W        W41199  18.263  23.834  12.994
70600W        W41200  25.005  19.539  11.629
70601W        W41201  30.731  20.693   1.842
70602W        W41202  24.933  18.020   3.723
70603W        W41203  44.631  44.376  10.056
70604W        W41204  28.616  30.183  14.397
70605W        W41205  32.964  17.163   2.969
70606W        W41206  37.330  21.586   2.824
70607W        W41207   7.934  21.016  11.330
70608W        W41208  21.140  26.623   2.286
70609W        W41209  22.499   1.326  13.897
70610W        W41210  25.658  41.075  11.151
70611W        W41211  25.845  19.672  13.670
70612W        W41212  32.013  18.782  10.477
70613W        W41213  43.034  39.871   4.274
70614W        W41214  15.203  33.782  12.474
70615W        W41215  20.859   1.061   2.655
70616W        W41216  14.716   5.667   4.735
70617W        W41217   6.330  30.569   3.188
70618W        W41218  30.379  21.778   3.726
70619W        W41219  37.371  34.943  14.277
70620W        W41220  22.297  41.380   3.858
70621W        W41221  41.952   4.846  14.758
70622W        W41222  19.723  28.204   0.562
70623W        W41223  20.748  25.552   3.077
70624W        W41224  40.486  35.079   3.789
70625W        W41225  24.263   5.194  11.611
70626W        W41226  37.680  17.638  14.040
70627W        W41227  12.219   4.386  14.728
70628W        W41228  40.646  28.929  11.002
70629W        W41229  14.522  16.744  14.562
70630W        W41230   2.905  31.187   3.288
70631W        W41231  39.079   4.873  12.172
70632W        W41232   4.795  10.678   4.851
70633W        W41233  44.347  35.507   1.394
70634W        W41234  38.007  28.214   0.819
70635W        W41235  40.637  10.745   2.704
70636W        W41236  40.537  11.075   0.300
70637W        W41237  41.321  30.996  12.497
70638W        W41238  37.909  10.368   2.848
70639W        W41239  43.288  43.449   1.843
70640W        W41240  22.690  18.795   1.007
70641W        W41241  30.881  40.787  13.323
70642W        W41242  28.768  32.520  12.465
70643W        W41243  19.338  44.839  13.704
70644W        W41244   9.253  22.223   4.224
70645W        W41245  12.828  27.260   3.745
70646W        W41246  36.657  44.247   1.887
70647W        W41247  25.804   2.918  13.250
70648W        W41248   9.758  10.652  12.043
70649W        W41249  44.197  14.745  13.404
70650W        W41250  31.316  21.945   1.757
70651W        W41251   0.923   9.137   4.636
70652W        W41252   1.390  27.231   2.200
70653W        W41253  21.533  10.322   3.098
70654W        W41254   4.086  20.967   4.473
70655W        W41255  11.916  35.407   4.502
70656W        W41256  30.118   0.046  11.504
70657W        W41257  19.151  33.364   3.790
70658W        W41258  33.069   0.350  12.021
70659W        W41259  19.514  15.107   1.382
70660W        W41260  34.362  10.940  13.511
70661W        W41261   2.259  14.690  13.509
70662W        W41262  23.100  19.975  10.765
70663W        W41263  43.231   1.541  14.311
70664W        W41264  16.447  36.051  13.317
70665W        W41265  27.061  22.062   1.464
70666W        W41266  35.179  15.127   4.034
70667W        W41267  13.273  12.979   2.799
70668W        W41268   8.764  10.931   2.833
70669W        W41269  35.287  41.712   1.682
70670W        W41270  29.117  14.313  14.192
70671W        W41271  31.181   0.409   3.127
70672W        W41272   2.657  12.555   0.385
70673W        W41273  36.777  37.135  10.445
70674W        W41274  35.322  22.209  14.122
70675W        W41275   5.353  13.158  12.704
70676W        W41276  34.834   3.369   3.749
70677W        W41277   6.932   2.822   4.617
70678W        W41278  16.682   7.648  13.377
70679W        W41279  13.022   0.071   4.131
70680W        W41280   8.345  43.209   3.598
70681W        W41281  37.100  29.433   2.189
70682W        W41282   2.436  35.528   4.795
70683W        W41283   1.887  41.825   0.522
70684W        W41284  19.787  44.432  12.084
70685W        W41285  33.662  35.792  14.460
70686W        W41286  12.103   6.165  14.850
70687W        W41287  33.999  10.323   1.673
70688W        W41288  22.185  42.043   4.125
70689W        W41289  18.539  35.610   4.111
70690W        W41290  31.597  17.338  13.546
70691W        W41291  35.790  40.810  13.209
70692W        W41292  25.429  37.221  12.877
70693W        W41293  15.744  14.643   2.137
70694W        W41294  22.639  16.374   2.224
70695W        W41295  42.934   5.433   3.068
70696W        W41296   0.034  36.548   1.292
70697W        W41297  29.735  11.584   0.392
70698W        W41298  26.043  31.543   4.774
70699W        W41299  22.985  14.231  14.035
70700W        W41300   7.855   8.768  12.436
70701W        W41301  25.130   1.050  14.892
70702W        W41302  10.664  39.899  12.278
70703W        W41303  33.445   7.813  13.948
70704W        W41304  34.989  41.988   0.388
70705W        W41305   8.774  28.090  12.623
70706W        W41306  43.955   6.408  14.740
70707W        W41307   4.049  10.410  13.444
70708W        W41308  27.532   1.920   4.342
70709W        W41309  25.564  30.012   1.231
70710W        W41310  19.449  20.067   3.656
70711W        W41311  15.568  22.262  11.461
70712W        W41312   1.687  25.978  13.930
70713W        W41313  33.225  43.298   0.628
70714W        W41314  39.763  25.030   1.262
70715W        W41315  14.164  11.854   0.658
70716W        W41316  35.498  38.054   4.075
70717W        W41317  28.045  24.096   0.810
70718W        W41318   0.991  32.184   2.481
70719W        W41319  32.467   0.923  10.741
70720W        W41320  20.989   4.883  12.827
70721W        W41321  10.620  15.313  11.455
70722W        W41322   6.242  32.222   0.015
70723W        W41323  25.635  13.111   1.277
70724W        W41324  36.600  31.890   0.865
70725W        W41325  16.295  12.795  12.617
70726W        W41326  15.866  13.345   2.762
70727W        W41327  20.706   3.700  14.305
70728W        W41328  15.530  12.190   2.474
70729W        W41329  29.068  25.210   1.845
70730W        W41330  14.748  41.817  14.084
70731W        W41331  21.610  13.901   0.043
70732W        W41332  21.966  25.150  14.824
70733W        W41333  33.597   3.264   0.416
70734W        W41334  31.190  44.180   1.923
70735W        W41335  37.523  41.125   2.456
70736W        W41336  18.041  18.530   2.361
70737W        W41337   5.926  29.441   4.143
70738W        W41338   9.403  11.868   3.574
70739W        W41339   6.678   1.298   4.675
70740W        W41340  42.261   0.408  13.175
70741W        W41341  12.249  35.390   1.398
70742W        W41342  19.661   8.220   3.307
70743W        W41343  24.135   0.387  13.087
70744W        W41344  14.823   3.185   5.010
70745W        W41345  40.899  36.319   1.720
70746W        W41346   2.785  37.860   1.987
70747W        W41347  28.719   1.310  11.534
70748W        W41348   3.518   6.928   4.688
70749W        W41349  29.177  18.548  14.103
70750W        W41350   3.847  31.010  11.569
70751W        W41351  11.630  25.778  12.675
70752W        W41352  23.496  17.461   0.627
70753W        W41353  45.000  15.595   3.211
70754W        W41354  19.452   1.098   0.848
70755W        W41355  41.291  15.423   4.505
70756W        W41356  37.448  23.147   1.040
70757W        W41357   2.975   5.126   0.203
70758W        W41358  35.552  22.589   4.398
70759W        W41359  38.663  44.517   3.361
70760W        W41360  31.127  35.649  14.488
70761W        W41361  21.486  43.364  11.488
70762W        W41362  12.517  16.083   3.159
70763W        W41363  37.070   6.391   0.688
70764W        W41364  11.759  14.690  10.258
70765ION    NA+41365   9.119  42.252  11.577
70766ION    NA+41366   0.948  31.141   0.963
70767ION    NA+41367  16.529  14.545   9.818
70768ION    NA+41368  30.099  36.318   1.414
70769ION    NA+41369  11.842  14.235   2.117
70770ION    NA+41370  20.945  21.291   9.671
70771ION    NA+41371  32.232   5.384   2.980
70772ION    NA+41372   6.420  15.610   5.300
70773ION    NA+41373  16.279  24.537   3.604
70774ION    NA+41374  25.578  35.976   0.943
70775ION    NA+41375   3.330  43.532  13.515
70776ION    NA+41376   4.221  27.481   2.338
70777ION    NA+41377  40.462  40.648   0.937
70778ION    NA+41378  28.578  17.314  11.257
70779ION    NA+41379   3.970  10.435  11.619
70780ION    NA+41380  23.399   5.315   0.252
70781ION    NA+41381  36.944  10.045  13.866
70782ION    NA+41382  38.659  39.269  13.074
70783ION    NA+41383   0.046  16.633  13.916
70784ION    NA+41384  31.569  27.926   3.240
70785ION    NA+41385   7.368  32.361  12.441
70786ION    NA+41386   6.864  39.953  13.049
70787ION    NA+41387   6.976  20.414  13.616
70788ION    NA+41388  44.208  30.715  10.695
70789ION    NA+41389  10.322  41.790  12.190
70790ION    NA+41390  31.874  36.551  13.966
70791ION    NA+41391  34.239   3.646  11.488
70792ION    NA+41392  18.685  16.235   4.099
70793ION    NA+41393  16.129   2.854  10.791
70794ION    NA+41394   7.777  32.559   1.177
70795ION    NA+41395  20.796   2.877   0.468
70796ION    NA+41396   9.522  27.648  14.721
70797ION    NA+41397   7.628   5.848  12.552
70798ION    NA+41398  27.036  21.833  13.326
70799ION    NA+41399  18.042  12.710   1.797
70800ION    NA+41400  39.158  36.012   5.205
70801ION    NA+41401  35.850  20.934  14.413
70802ION    NA+41402  27.808  34.326  14.760
70803ION    NA+41403  24.209  36.347  13.447
70804ION    NA+41404  30.097   5.014  13.155
70805ION    NA+41405   8.667  39.326  13.448
70806ION    NA+41406  35.221   1.848   0.203
70807ION    NA+41407   8.391  25.100  12.191
70808ION    NA+41408  22.031  32.739   2.736
70809ION    NA+41409  24.395  33.362   3.022
70810ION    NA+41410  41.328  11.901  12.510
70811ION    NA+41411  34.616  31.497  12.001
70812ION    NA+41412  27.450  39.600  11.508
70813ION    NA+41413   2.645  25.592  14.178
70814ION    NA+41414  14.670   1.245  11.618
70815ION    NA+41415  15.720  12.870   2.882
70816ION    NA+41416  40.034  28.003  14.041
70817ION    NA+41417  33.392  29.302   9.787
70818ION    NA+41418   9.229  25.442   1.470
70819ION    NA+41419  27.108   4.061   3.456
70820ION    NA+41420  14.338   1.322   4.620
70821ION    NA+41421  39.623  14.345  14.192
70822ION    NA+41422  11.188  43.798   2.097
70823ION    NA+41423  12.007   5.804   1.247
70824ION    NA+41424  22.744   6.224   2.162
70825ION    NA+41425   8.408  24.485  13.973
70826ION    NA+41426  18.123   6.391   0.364
70827ION    NA+41427  36.809  37.831  10.931
70828ION    NA+41428  23.560  30.041   3.738
70829ION    NA+41429  34.227  40.948   0.290
70830ION    NA+41430  41.750  20.680   1.646
70831ION    NA+41431   2.849  41.358  12.669
70832ION    NA+41432  37.010   9.857   1.164
70833ION    NA+41433  10.999  22.179  14.834
70834ION    NA+41434  15.846   1.920   0.973
70835ION    NA+41435  30.210  27.806  14.917
70836ION    NA+41436  12.341   2.853  14.549
70837ION    NA+41437  41.038  10.150  12.493
70838ION    NA+41438  26.049  11.788  11.246
70839ION    NA+41439  18.769  28.572   0.016
70840ION    NA+41440  25.676  32.173   3.651
70841ION    NA+41441   0.169  18.570  13.023
70842ION    NA+41442  21.315  41.618   3.622
70843ION    NA+41443  19.848  33.401   4.385
70844ION    NA+41444  32.437  36.422  10.329
70845ION    NA+41445  41.942   4.936   1.843
70846ION    NA+41446  38.440  39.719   2.599
70847ION    NA+41447   8.093  42.434   3.130
70848ION    NA+41448   3.566  40.549   3.296
70849ION    NA+41449  23.753   9.850   0.432
70850ION    NA+41450  43.093  26.014  10.733
70851ION    NA+41451  39.821  19.811   1.176
70852ION    NA+41452  31.510  19.479  11.623
70853ION    NA+41453  43.645  21.561   2.073
70854ION    NA+41454  30.450  40.598  13.552
70855ION    NA+41455  30.991  24.253   0.035
70856ION    NA+41456   2.225  21.668   4.414
70857ION    NA+41457  20.443  19.557   0.474
70858ION    NA+41458   4.969   5.452   0.236
70859ION    NA+41459  25.126  42.324  13.963
70860ION    NA+41460  36.675   4.409   0.022
70861ION    NA+41461  28.564   9.631  14.004
70862ION    NA+41462  40.315   8.671   3.635
70863ION    NA+41463  28.238   6.084   5.054
70864ION    NA+41464  28.441   2.824   2.446
70865ION    NA+41465  15.252  28.065  10.729
70866ION    NA+41466  31.011  36.446  12.933
70867ION    NA+41467  25.710  19.065  12.139
70868ION    NA+41468  38.875   7.508  11.612
70869ION    NA+41469  38.193  29.720   2.870
70870ION    NA+41470  33.842   8.620   1.360
70871ION    NA+41471  11.652  30.375   0.061
70872ION    NA+41472  38.525  27.956  14.906
70873ION    NA+41473  33.897  36.067   2.271
70874ION    NA+41474   4.130  29.970   4.988
70875ION    NA+41475  23.078  41.330  11.586
70876ION    NA+41476  11.315  17.995  12.383
70877ION    NA+41477  37.097   7.217  10.605
70878ION    NA+41478   1.828  19.080   0.378
70879ION    NA+41479  29.609  19.916   3.707
70880ION    NA+41480  39.791  30.318   3.572
70881ION    NA+41481  24.655  18.671   4.962
70882ION    NA+41482  42.560  18.444  13.912
70883ION    NA+41483  40.731  14.647   3.329
70884ION    NA+41484  10.022  35.958   3.275
70885ION    NA+41485  37.425  12.276   2.409
70886ION    NA+41486  34.741  21.435   0.403
70887ION    NA+41487   4.162   2.912  11.075
70888ION    NA+41488  29.138  20.476   1.631
70889ION    NA+41489  26.771  10.997   2.332
70890ION    NA+41490  21.670  26.510   0.366
70891ION    NA+41491  31.451  23.103  14.076
70892ION    NA+41492  28.521   2.212   4.653
70893ION    NA+41493  11.636  14.110  12.462
70894ION    NA+41494  12.798  24.883   3.103
70895ION    NA+41495  41.698   0.371   3.110
70896ION    NA+41496  13.532  37.570   4.746
70897ION    NA+41497  25.178   6.652   2.879
70898ION    NA+41498  33.332  19.313   3.269
70899ION    NA+41499  14.252  27.436   3.538
70900ION    NA+41500   6.353   7.428  12.295
70901ION    NA+41501   0.581  42.035  14.500
70902ION    NA+41502  34.982  29.311  13.022
70903ION    NA+41503  28.106   1.305   0.010
70904ION    NA+41504  39.117   4.368  12.588
70905ION    NA+41505   3.673  11.239  13.358
70906ION    NA+41506   7.596  22.245  12.849
70907ION    NA+41507   0.647  17.708  13.495
70908ION    NA+41508  44.494  16.451  11.210
70909ION    NA+41509  30.193  10.640  11.978
70910ION    NA+41510  16.629  37.160   4.405
70911ION    NA+41511   5.990   8.537   9.846
70912ION    NA+41512   5.895   9.523  11.831
70913ION    NA+41513  27.628  10.220   3.269
70914ION    NA+41514  12.353   3.308   0.728
70915ION    NA+41515   5.608  39.944   2.716
70916ION    NA+41516  37.100  42.347   0.371
70917ION    NA+41517   8.722  28.817   2.619
70918ION    NA+41518  23.114  19.149  14.278
70919ION    NA+41519  43.347  38.055   1.908
70920ION    NA+41520  16.008  22.797  12.628
70921ION    NA+41521  40.098  22.458   9.464
70922ION    NA+41522   7.124  38.666  14.368
70923ION    NA+41523   3.134  26.402  12.228
70924ION    NA+41524  28.861  16.266   4.089
70925ION    NA+41525   1.932  41.668  12.919
70926ION    NA+41526  34.483  17.387   4.343
70927ION    NA+41527  35.475  32.532   4.626
70928ION    NA+41528  32.147  30.877  13.465
70929ION    NA+41529   6.389   0.387  14.507
70930ION    NA+41530   8.374  40.569  14.315
70931ION    NA+41531   0.868  34.511   0.033
70932ION    NA+41532  24.585  36.108   1.394
70933ION    NA+41533  26.174  14.822   1.531
70934ION    NA+41534  25.265  27.474  10.865
70935ION    NA+41535  26.268  38.965  11.551
70936ION    NA+41536   3.392   8.615  11.405
70937ION    NA+41537  33.893  15.236  13.482
70938ION    NA+41538  42.761  15.312   2.775
70939ION    NA+41539   6.615   9.943  10.731
70940ION    NA+41540  11.939  40.419   1.677
70941ION    NA+41541  44.497   1.919  13.660
70942ION    NA+41542  20.320  27.606  14.033
70943ION    NA+41543  44.113   3.041  13.799
70944ION    NA+41544   8.962   1.985   2.776
70945ION    NA+41545   0.191  27.602  13.760
70946ION    NA+41546  35.683  15.106   4.139
70947ION    NA+41547   2.902  10.304  12.087
70948ION    NA+41548  10.294   4.067  14.056
70949ION    NA+41549  12.693  36.231  14.164
70950ION    NA+41550  16.858   0.176  12.336
70951ION    NA+41551  22.143  12.889   2.769
70952ION    NA+41552  25.371   0.777   3.291
70953ION    NA+41553  44.744  29.290  12.811
70954ION    NA+41554  27.224   0.056   2.266
70955ION    NA+41555  41.324   3.986   4.560
70956ION    NA+41556  42.912  31.847  13.990
70957ION    NA+41557  26.864  41.073  13.964
70958ION    NA+41558  41.821  40.856  14.212
70959ION    NA+41559  33.908  40.680   2.153
70960ION    NA+41560   1.501  10.358  12.949
70961ION    NA+41561  44.205  16.085   2.324
70962ION    NA+41562  14.223  14.842  14.978
70963ION    NA+41563   8.461  31.851   1.449
70964ION    NA+41564  29.214  25.259  12.054
70965ION    NA+41565  23.726   0.671   2.225
70966ION    NA+41566  31.863  13.469   1.127
70967ION    NA+41567  20.865  36.201  14.406
70968ION    NA+41568  37.738  27.088  13.747
70969ION    NA+41569  23.523  43.893  12.251
70970ION    NA+41570  42.305  25.556   1.825
70971ION    NA+41571  14.727  29.383   0.421
70972ION    NA+41572  30.981  16.775  14.361
70973ION    NA+41573   0.763  38.387  12.945
70974ION    NA+41574  18.231  43.617  11.509
70975ION    NA+41575  14.321  25.220   0.688
70976ION    NA+41576  30.769  26.038  11.454
70977ION    NA+41577  35.443   1.128   1.322
70978ION    NA+41578  41.354  15.875   1.875
70979ION    NA+41579  32.545  15.629  13.499
70980ION    NA+41580  20.818  42.078  11.846
70981ION    NA+41581  25.123  19.701  10.104
70982ION    NA+41582   6.241   3.198   3.984
70983ION    NA+41583  43.421  24.227   0.205
70984ION    NA+41584  42.978  21.311   1.158
70985ION    NA+41585  20.693  27.421  11.640
70986ION    NA+41586  41.141  33.262  13.700
70987ION    NA+41587   8.039  17.867   0.415
70988ION    NA+41588  18.593   8.390   3.901
70989ION    NA+41589  40.229  34.818   3.192
70990ION    NA+41590  32.474   6.766  12.297
70991ION    NA+41591   2.469  12.118  11.179
70992ION    NA+41592   0.095   3.508   3.353
70993ION    NA+41593  21.170  15.481   4.082
70994ION    NA+41594  34.353   6.910   2.840
70995ION    NA+41595  14.625  41.003   0.355
70996ION    NA+41596  44.004   3.925  10.949
70997ION    NA+41597   6.982  26.534  14.116
70998ION    NA+41598  44.188  35.453   2.790
70999ION    NA+41599  32.579  44.294  11.962
71000ION    NA+41600  20.035  26.277  11.867
71001ION    NA+41601  29.483  33.228   1.938
71002ION    NA+41602  17.064  35.542   2.225
71003ION    NA+41603  31.366   9.812   3.240
71004ION    NA+41604   7.322  14.849  10.801
71005ION    NA+41605  12.281  22.128   1.438
71006ION    NA+41606  30.277  33.222  10.811
71007ION    NA+41607   2.855  38.879  12.541
71008ION    NA+41608   8.714  43.563   1.520
71009ION    NA+41609  23.354  25.362   3.271
71010ION    NA+41610  19.630  11.495  11.547
71011ION    NA+41611   0.673  41.096  13.815
71012ION    NA+41612   6.436   2.256  12.045
71013ION    NA+41613  38.406  30.212   2.134
71014ION    NA+41614   3.211  38.611   3.260
71015ION    NA+41615   4.643  26.241  10.317
71016ION    NA+41616  25.847   7.740  14.846
71017ION    NA+41617  44.950  25.031   5.325
71018ION    NA+41618  26.107  29.095   2.739
71019ION    NA+41619  38.954  12.448  12.858
71020ION    NA+41620  19.113   7.188  13.838
71021ION    NA+41621  20.059  37.173  12.362
71022ION    NA+41622  12.428  20.187   2.327
71023ION    NA+41623  17.530  37.081  14.598
71024ION    NA+41624   1.750   5.895   4.252
71025ION    NA+41625  26.777  42.286  14.846
71026ION    NA+41626   0.003  32.867   2.667
71027ION    NA+41627   7.427   3.265   1.703
71028ION    NA+41628  13.466  36.936   1.023
71029ION    NA+41629   0.334  35.875  10.666
71030ION    NA+41630   0.937  11.963  11.723
71031ION    NA+41631  26.221  40.386   3.319
71032ION    NA+41632   2.735  32.582  10.720
71033ION    NA+41633  21.575  40.789   3.879
71034ION    NA+41634  27.186   0.074  14.373
71035ION    NA+41635  19.105  41.362   1.847
71036ION    NA+41636   8.687  14.805   2.832
71037ION    NA+41637  17.196   0.366   1.605
71038ION    NA+41638  21.439  30.156   1.585
71039ION    NA+41639   9.582   1.232   0.700
71040ION    NA+41640  35.541  11.460  12.710
71041ION    NA+41641  17.483  16.876  11.295
71042ION    NA+41642  16.666   4.842   2.097
71043ION    NA+41643  17.094   7.237   0.307
71044ION    NA+41644   2.650  19.226  12.483
71045ION    NA+41645   1.897   7.991   0.728
71046ION    NA+41646  21.433   4.684  13.069
71047ION    NA+41647  22.972  27.046   3.510
71048ION    NA+41648  24.904   1.593   3.633
71049ION    NA+41649  25.422  26.322  13.479
71050ION    NA+41650   6.246  26.492  14.885
71051ION    NA+41651  41.818  30.597   5.396
71052ION    NA+41652   6.512  27.847   2.126
71053ION    NA+41653  34.338  14.056   0.691
71054ION    NA+41654   2.806  39.261   0.335
71055ION    NA+41655  35.425  13.826  14.724
71056ION    NA+41656  17.267  30.554  12.704
71057ION    NA+41657  12.619   8.423   2.795
71058ION    NA+41658  34.140  21.202   1.782
71059ION    NA+41659  44.946  34.334   0.786
71060ION    NA+41660  39.894  31.384   0.025
71061ION    NA+41661  27.310  36.594   3.835
71062ION    NA+41662  23.989   8.724  14.168
71063ION    NA+41663   6.344   7.939  11.435
71064ION    NA+41664  37.138  43.127  14.251
71065ION    NA+41665  16.581  38.499  13.580
71066ION    NA+41666  38.540  41.061   2.843
71067ION    NA+41667   9.806   2.723  12.145
71068ION    NA+41668   0.361  20.773  14.990
71069ION    NA+41669  40.968  25.218  12.494
71070ION    NA+41670  39.252  15.405  14.918
71071ION    NA+41671  17.139  38.150   1.829
71072ION    NA+41672   6.764  38.263   3.121
71073ION    NA+41673  36.666  27.222   4.498
71074ION    NA+41674  12.702   9.505  12.053
71075ION    NA+41675   5.733  44.480  11.442
71076ION    NA+41676  42.140  23.397  14.973
71077ION    NA+41677  21.533  30.971  10.857
71078ION    NA+41678  19.774  30.062   0.373
71079ION    NA+41679  21.460  23.955  13.878
71080ION    NA+41680   2.266  15.092  12.486
71081ION    NA+41681  10.417   5.347   0.921
71082ION    NA+41682  44.298  42.620   4.311
71083ION    NA+41683  26.093  16.062   0.866
71084ION    NA+41684  29.016  20.161  12.676
71085ION    NA+41685  42.948  40.283   0.422
71086ION    NA+41686   2.314   5.688   1.408
71087ION    NA+41687  13.604  13.369   0.261
71088ION    NA+41688  37.103   7.479  13.477
71089ION    NA+41689   7.918   1.917  10.690
71090ION    NA+41690   3.768  38.666   9.731
71091ION    NA+41691  25.429  43.401   2.676
71092ION    NA+41692  21.534  38.878   2.587
71093ION    NA+41693  33.021  39.899   4.119
71094ION    NA+41694  29.004  15.347  10.375
71095ION    NA+41695  27.781   3.279   1.739
71096ION    NA+41696   5.074  24.672  11.905
71097ION    NA+41697  28.661   4.362  12.535
71098ION    NA+41698  18.314  37.938  14.940
71099ION    NA+41699  29.121  18.568  13.539
71100ION    NA+41700  33.540   5.392   0.166
71101ION    NA+41701  12.785  18.868   1.222
71102ION    NA+41702  20.105   8.786   1.899
71103ION    NA+41703  23.543  16.707   1.308
71104ION    NA+41704  28.346  17.314  12.544
71105ION    NA+41705   9.159  25.750  12.261
71106ION    NA+41706  20.584  42.849   4.140
71107ION    NA+41707   3.055  30.190  12.368
71108ION    NA+41708  25.215  30.424   2.466
71109ION    NA+41709  43.014  34.343  12.045
71110ION    NA+41710  40.265   3.996   3.226
71111ION    NA+41711   2.755  33.453  14.042
71112ION    NA+41712  18.009  14.335   4.853
71113ION    NA+41713   2.813  40.630   2.511
71114ION    NA+41714  30.044  10.215   4.219
71115ION    NA+41715  11.911  16.100  11.636
71116ION    NA+41716   4.255   3.475  12.100
71117ION    NA+41717  15.318  14.706   0.720
71118ION    NA+41718  23.789  12.251  14.288
71119ION    NA+41719   0.507  40.549  10.795
71120ION    NA+41720  38.548  19.063  12.537
71121ION    NA+41721  10.735  26.765  14.755
71122ION    NA+41722  24.993  44.110  11.779
71123ION    NA+41723  14.014   8.889   0.768
71124ION    NA+41724   9.055  35.778  14.508
71125ION    NA+41725  23.320  19.436   3.708
71126ION    NA+41726   3.556  24.676  14.120
71127ION    NA+41727  16.203  13.598  13.158
71128ION    NA+41728  32.287   1.076   9.763
71129ION    NA+41729  10.752   8.729   3.624
71130ION    NA+41730  11.327  30.273  10.461
71131ION    NA+41731   1.367   0.370  12.883
71132ION    NA+41732  41.136  22.721  14.164
71133ION    NA+41733   7.436  19.458  10.738
71134ION    NA+41734  23.880  36.712   0.440
71135ION    NA+41735  27.956  21.195   1.431
71136ION    NA+41736  31.018  40.644  14.241
71137ION    NA+41737  12.147  13.938   5.357
71138ION    NA+41738  20.705  39.905   0.679
71139ION    NA+41739  12.282  38.520  14.327
71140ION    NA+41740   8.938  22.273  12.937
71141ION    NA+41741   7.818  41.942   1.633
71142ION    NA+41742   4.584  40.210   2.833
71143ION    NA+41743  26.623   1.667  13.978
71144ION    NA+41744  11.668  13.042   3.647
71145ION    NA+41745  29.372  30.547  12.093
71146ION    NA+41746  25.145  33.524   2.011
71147ION    NA+41747  14.142  10.192   2.858
71148ION    NA+41748  10.717  43.624   3.509
71149ION    NA+41749   4.504  38.254   3.647
71150ION    NA+41750  13.961   3.302  12.163
71151ION    NA+41751  23.046  40.617   1.836
71152ION    NA+41752  33.510  40.096  11.373
71153ION    NA+41753  41.448  10.487   4.967
71154ION    NA+41754  41.392  35.224   1.282
71155ION    NA+41755  34.930  22.496  12.942
71156ION    NA+41756  25.339  23.774  14.036
71157ION    NA+41757  35.613  35.507  12.287
71158ION    NA+41758  12.275  28.050  14.531
71159ION    NA+41759  15.685   5.651  12.183
71160ION    NA+41760   1.074   7.848   0.357
71161ION    NA+41761  31.879  34.024  11.110
71162ION    NA+41762  34.265  23.898   2.687
71163ION    NA+41763   7.338  19.165   2.844
71164ION    NA+41764  17.484  19.370  14.513
71165ION    NA+41765  14.275   6.268   1.002
71166ION    NA+41766  17.323  37.409   0.883
71167ION    NA+41767   2.686  27.219   1.489
71168ION    NA+41768   7.889  28.290   4.112
71169ION    NA+41769  11.200  38.075   0.263
71170ION    NA+41770  36.438  11.775  12.401
71171ION    NA+41771  41.988  38.076   2.155
71172ION    NA+41772  38.143  40.655  13.089
71173ION    NA+41773   1.322   8.793   0.567
71174ION    NA+41774  41.741  26.659   1.683
71175ION    NA+41775  28.787  11.081  13.182
71176ION    NA+41776  21.038  16.534   2.653
71177ION    NA+41777   1.916  23.080   3.665
71178ION    NA+41778  42.165  43.320   2.817
71179ION    NA+41779  21.551  30.793   0.916
71180ION    NA+41780  15.316  30.528  10.675
71181ION    NA+41781  29.685   5.173   0.809
71182ION    NA+41782  43.066   9.421  10.598
71183ION    NA+41783  17.870  10.145  12.048
71184ION    NA+41784  27.238  44.407  13.750
71185ION    NA+41785  36.989  11.100  12.681
71186ION    NA+41786  31.582  25.860  10.899
71187ION    NA+41787  16.697  41.581  10.332
71188ION    NA+41788   7.684  35.845   4.733
71189ION    NA+41789  44.103  33.791  13.315
71190ION    NA+41790  13.580  23.893   3.076
71191ION    NA+41791  33.466  21.930   3.778
71192ION    NA+41792  35.365  35.851   0.171
71193ION    NA+41793  32.018  14.394   1.476
71194ION    NA+41794   4.204  19.645  12.947
71195ION    NA+41795   4.448  35.765  11.905
71196ION    NA+41796  36.933   4.993   2.733
71197ION    NA+41797  18.749  28.095   4.080
71198ION    NA+41798   5.275   6.283   1.675
71199ION    NA+41799   6.844  10.298   0.251
71200ION    NA+41800  19.134  39.523  10.657
71201ION    NA+41801  28.880  28.839  13.245
71202ION    NA+41802  44.530   2.903   4.077
71203ION    NA+41803   7.686   9.450   0.893
71204ION    NA+41804  32.141  30.913   2.635
71205ION    NA+41805   2.670  41.113   3.398
71206ION    NA+41806  43.756  10.402  11.915
71207ION    NA+41807  20.808  17.404   3.293
71208ION    NA+41808   8.554  28.145   4.672
71209ION    NA+41809  26.978  16.851   0.958
71210ION    NA+41810  14.130  43.270   3.091
71211ION    NA+41811  26.497  35.926  10.643
71212ION    NA+41812  11.283  25.614   2.645
71213ION    NA+41813  39.448  39.700   0.679
71214ION    NA+41814   1.191  16.317   1.183
71215ION    NA+41815  36.038  27.518  10.349
71216ION    NA+41816  32.390   6.481   5.064
71217ION    NA+41817  20.181  35.883  13.749
71218ION    NA+41818  15.842   4.489   1.961
71219ION    NA+41819  36.188   9.108  10.373
71220ION    NA+41820  18.711   8.126   2.944
71221ION    NA+41821  19.233  14.859  14.380
71222ION    NA+41822  15.298  36.110  10.715
71223ION    NA+41823   7.163  25.276  11.145
71224ION    NA+41824  31.299  30.737   1.428
71225ION    NA+41825  32.940   9.097  11.614
71226ION    NA+41826  12.165  34.127  14.592
71227ION    NA+41827  27.526   8.830   0.108
71228ION    NA+41828  40.583  26.380   2.756
71229ION    NA+41829  11.677  36.408  12.747
71230ION    NA+41830  43.056  29.232   0.766
71231ION    NA+41831  16.096  21.220  11.710
71232ION    NA+41832   5.516  30.438  11.270
71233ION    NA+41833  37.079  19.119   2.297
71234ION    NA+41834  21.214  10.664   4.215
71235ION    NA+41835   9.376  34.363   1.228
71236ION    NA+41836  26.928  24.979   0.441
71237ION    NA+41837  37.008   1.469   4.512
71238ION    NA+41838  22.754  11.622   2.820
71239ION    NA+41839  12.196  33.201  11.643
71240ION    NA+41840  26.074  20.643  10.340
71241ION    NA+41841   2.174  14.898   4.282
71242ION    NA+41842  17.902  42.665  10.588
71243ION    NA+41843  18.044  32.358  14.908
71244ION    NA+41844   1.411  26.517  14.251
71245ION    NA+41845  23.039  23.979   3.214
71246ION    NA+41846  20.148  32.125  14.625
71247ION    NA+41847  24.435   3.633   1.048
71248ION    NA+41848  26.896   2.408   4.789
71249ION    NA+41849  15.517  12.255  12.068
71250ION    NA+41850  34.299  34.429   0.508
71251ION    NA+41851  20.769  12.210  13.484
71252ION    NA+41852   9.920  23.207  11.953
71253ION    NA+41853   9.115  35.219   0.295
71254ION    NA+41854  11.557   8.984   4.644
71255ION    NA+41855  18.315  32.328  11.346
71256ION    NA+41856  43.011  33.152   1.181
71257ION    NA+41857  15.392  33.809  11.564
71258ION    NA+41858  17.308   6.858   1.207
71259ION    NA+41859  42.418  33.095  13.890
71260ION    NA+41860  43.042  24.630  12.781
71261ION    NA+41861   8.698  25.374  13.153
71262ION    NA+41862  33.140  12.161  12.894
71263ION    NA+41863  28.505  10.517  14.190
71264ION    NA+41864  29.929  15.578  10.678
71265ION    NA+41865  13.137   1.333   3.792
71266ION    NA+41866  13.342  39.331   5.096
71267ION    NA+41867  12.738  34.350   2.283
71268ION    NA+41868  32.522  26.179  10.777
71269ION    NA+41869   0.542  41.051  11.580
71270ION    NA+41870   6.282  42.797  10.490
71271ION    NA+41871   1.376  22.556  10.750
71272ION    NA+41872  24.660  29.960   3.403
71273ION    NA+41873  22.249  31.218   3.598
71274ION    NA+41874  13.525   0.723  11.218
71275ION    NA+41875  22.169  41.833  11.978
71276ION    NA+41876  44.766  36.780  12.277
71277ION    NA+41877  24.909  14.768   4.509
71278ION    NA+41878   9.320  17.363  11.991
71279ION    NA+41879   6.358  11.200  10.272
71280ION    NA+41880  38.793  34.605  12.604
71281ION    NA+41881  25.143  20.707  10.743
71282ION    NA+41882   6.696  15.324  11.562
71283ION    NA+41883  11.859   6.961  12.545
71284ION    NA+41884  30.453  42.610   5.462
71285ION    NA+41885   3.097   6.186   0.281
71286ION    NA+41886   2.766  41.927  13.214
71287ION    NA+41887   7.964  12.898  14.861
71288ION    NA+41888  43.146  10.189   2.266
71289ION    NA+41889  10.288  10.832  14.047
71290ION    NA+41890  11.318  20.775   3.765
71291ION    NA+41891   9.935  37.252  10.394
71292ION    NA+41892  32.643   4.819  14.818
71293ION    NA+41893   0.968   5.457   3.098
71294ION    NA+41894  17.501  14.449  11.495
71295ION    NA+41895  43.135   4.672   3.539
71296ION    NA+41896  34.398   2.763   0.848
71297ION    NA+41897  25.086  11.623  14.377
71298ION    NA+41898  21.990   8.395   1.773
71299ION    NA+41899   8.223  37.634   2.150
71300ION    NA+41900  41.538   1.434  11.180
71301ION    NA+41901  19.268  24.649   4.345
71302ION    NA+41902  13.273  23.036   2.630
71303ION    NA+41903  44.877  37.755  14.098
71304ION    NA+41904   6.184   0.807   0.391
71305ION    NA+41905   9.619  31.646   0.862
71306ION    NA+41906  41.877  19.550   2.219
71307ION    NA+41907  23.429  19.037   1.571
71308ION    NA+41908  26.086  30.199  12.011
71309ION    NA+41909  27.177  10.696  14.560
71310ION    NA+41910  40.951  23.308  13.306
71311ION    NA+41911  26.573  35.577   1.707
71312ION    NA+41912  11.567   6.499   1.048
71313ION    NA+41913  27.389  10.255  10.463
71314ION    NA+41914   1.946   6.406  13.381
71315ION    NA+41915  22.871   3.430  12.993
71316ION    NA+41916  18.671  32.180   2.293
71317ION    NA+41917  22.657  30.019  11.612
71318ION    NA+41918  41.150  39.546  11.195
71319ION    NA+41919  33.873   5.729  11.885
71320ION    NA+41920  28.384  25.209   2.358
71321ION    NA+41921   7.668  36.321  13.846
71322ION    NA+41922  36.577  26.197   2.507
71323ION    NA+41923  24.540  43.003   1.861
71324ION    NA+41924   9.068  25.390   2.616
71325ION    NA+41925   2.297  43.972  12.077
71326ION    NA+41926  44.103  27.461  11.970
71327ION    NA+41927   3.162  35.015   2.386
71328ION    NA+41928   9.120  20.615   2.729
71329ION    NA+41929   5.768   2.771   1.811
71330ION    NA+41930  19.466  19.651   0.282
71331ION    NA+41931  27.971  19.526   1.992
71332ION    NA+41932  13.065  23.997  13.953
71333ION    NA+41933  23.800  16.034   0.615
71334ION    NA+41934  27.372  35.250   0.596
71335ION    NA+41935  10.660  30.662  11.144
71336ION    NA+41936  33.506  25.026  14.261
71337ION    NA+41937  32.958   6.425   2.016
71338ION    NA+41938  28.387  31.603  12.588
71339ION    NA+41939   3.735  32.820   1.443
71340ION    NA+41940   8.122  21.287   3.640
71341ION    NA+41941   6.626  13.819   0.077
71342ION    NA+41942  20.982   8.992   3.494
71343ION    NA+41943  23.022  34.974  14.464
71344ION    NA+41944   0.154  22.273   1.813
71345ION    NA+41945   4.682  17.582  11.097
71346ION    NA+41946  32.954  22.983   4.129
71347ION    NA+41947  44.246   8.843  12.355
71348ION    NA+41948  38.484  42.834   3.262
71349ION    NA+41949  37.041   3.544   1.040
71350ION    NA+41950  21.153  37.960  11.438
71351ION    NA+41951   4.299  29.153  10.193
71352ION    NA+41952  17.445  30.018   4.515
71353ION    NA+41953  44.640  17.707   0.049
71354ION    NA+41954  22.285  37.097  11.458
71355ION    NA+41955   5.769  28.491  12.963
71356ION    NA+41956  34.858   9.772  13.125
71357ION    NA+41957  21.965   6.675   1.454
71358ION    NA+41958  19.159  12.564   2.554
71359ION    NA+41959   9.866  43.983  14.288
71360ION    NA+41960   9.300   7.597   4.503
71361ION    NA+41961  33.147   4.455  11.622
71362ION    NA+41962   4.240  15.317  14.542
71363ION    NA+41963  11.937  44.457  10.815
71364ION    NA+41964  41.341   0.235   1.971
71365ION    NA+41965   5.873  21.685  11.543
71366ION    NA+41966  42.368  21.327   3.280
71367ION    NA+41967  17.087  24.465   4.189
71368ION    NA+41968  40.006  33.968   0.079
71369ION    NA+41969  14.723  27.902  12.005
71370ION    NA+41970  24.015  27.179   3.223
71371ION    NA+41971  39.036  22.363   1.860
71372ION    NA+41972  40.707  43.808   4.133
71373ION    NA+41973  28.047  22.322   0.321
71374ION    NA+41974  18.057  18.136   1.752
71375ION    NA+41975  40.847  33.575   1.289
71376ION    NA+41976  33.301   5.071  13.389
71377ION    NA+41977  36.936   0.713   0.972
71378ION    NA+41978  34.929  42.811  10.816
71379ION    NA+41979  15.473  16.182  13.963
71380ION    NA+41980  13.667   1.751  12.350
71381ION    NA+41981  26.332  28.913   1.288
71382ION    NA+41982  19.500  36.869  13.457
71383ION    NA+41983  10.297   1.878   1.498
71384ION    NA+41984  14.015  35.184  13.505
71385ION    NA+41985  41.554  22.872  10.330
71386ION    NA+41986  30.117   2.268  14.802
71387ION    NA+41987   3.358  40.068   0.546
71388ION    NA+41988  31.339   5.287   3.109
71389ION    NA+41989  26.901   3.824  13.492
71390ION    NA+41990  21.675   4.899   9.894
71391ION    NA+41991  10.364  38.684   1.741
71392ION    NA+41992  17.180  10.114   3.617
71393ION    NA+41993  24.512  43.621  12.365
71394ION    NA+41994   4.735  39.180   3.946
71395ION    NA+41995  37.979  15.406   3.654
71396ION    NA+41996  30.388  32.668   2.663
71397ION    NA+41997  23.255  24.484   0.843
71398ION    NA+41998  10.802  39.773   1.443
71399ION    NA+41999  20.615  31.853  13.876
71400ION    NA+42000  22.999  43.069  13.376
71401ION    NA+42001   4.026  18.112  11.409
71402ION    NA+42002  10.882  23.440   4.462
71403ION    NA+42003  20.121  31.959  12.113
71404ION    NA+42004   2.162  29.748   1.391
71405ION    NA+42005  26.095  23.231  11.234
71406ION    NA+42006  25.561  44.637  10.122
71407ION    NA+42007   6.929   3.445  12.480
71408ION    NA+42008  33.670  25.723   0.484
71409ION    NA+42009  25.820   0.302   9.687
71410ION    NA+42010  43.749  22.594   3.854
71411ION    NA+42011  28.895  26.198  10.698
71412ION    NA+42012  32.862  42.863  11.526
71413ION    NA+42013  40.309   0.698  12.794
71414ION    NA+42014  20.480  13.686   4.457
71415ION    NA+42015  20.131   3.608   0.671
71416ION    NA+42016  27.263  33.184  11.675
71417ION    NA+42017  35.098   2.938   2.086
71418ION    NA+42018  36.471  42.107   4.694
71419ION    NA+42019  25.764  14.424   4.672
71420ION    NA+42020  24.786  37.644  12.493
71421ION    NA+42021  44.823  42.767  11.222
71422ION    NA+42022  35.497  35.749  11.436
71423ION    NA+42023   2.353   9.844   4.106
71424ION    NA+42024  19.630  13.637  13.644
71425ION    NA+42025   8.571  30.549   2.506
71426ION    NA+42026  32.938  13.314   2.523
71427ION    NA+42027  35.759  41.079  14.907
71428ION    NA+42028  29.524  15.576   3.405
71429ION    NA+42029  40.067  39.004  10.836
71430ION    NA+42030  44.339  26.591  13.807
71431ION    NA+42031  35.870   6.726   2.259
71432ION    NA+42032   1.482  21.519   0.869
71433ION    NA+42033  11.039  34.056   1.671
71434ION    NA+42034   3.662  44.925   2.807
71435ION    NA+42035   7.902  30.120  10.866
71436ION    NA+42036  15.027  17.017   0.307
71437ION    NA+42037  18.745  43.947   3.149
71438ION    NA+42038  36.925  37.554   4.589
71439ION    NA+42039  24.966  24.123   0.008
71440ION    NA+42040   4.371  16.100   0.511
71441ION    NA+42041  17.986  37.932  10.684
71442ION    NA+42042  43.579  19.987  14.053
71443ION    NA+42043  42.429  12.517  13.478
71444ION    NA+42044  26.955  11.710   3.206
71445ION    NA+42045   8.594  34.515   1.643
71446ION    NA+42046   1.831  27.576  12.031
71447ION    NA+42047  35.218  38.369   1.529
71448ION    NA+42048   0.455  34.894   2.671
71449ION    NA+42049  10.738  10.225   2.669
71450ION    NA+42050   9.749  16.732   0.481
71451ION    NA+42051  16.679  33.190  13.549
71452ION    NA+42052  18.730  39.091   4.523
71453ION    NA+42053  14.875   5.546  10.746
71454ION    NA+42054  38.807   5.922  14.002
71455ION    NA+42055  32.805  44.912  14.433
71456ION    NA+42056  34.225  41.646   1.605
71457ION    NA+42057  15.436  12.216   1.942
71458ION    NA+42058   8.118  29.464  14.297
71459ION    NA+42059  33.717  38.445   2.117
71460ION    NA+42060  36.591  40.260   4.390
71461ION    NA+42061  41.674  23.495   3.564
71462ION    NA+42062   7.175   2.729   4.079
71463ION    NA+42063  24.981  30.347  12.960
71464ION    NA+42064   5.537   1.875  14.680
71465ION    NA+42065  37.046  21.736   4.661
71466ION    NA+42066  42.773   0.468   2.378
71467ION    NA+42067  11.390  21.720   1.793
71468ION    NA+42068   7.431  35.998  11.447
71469ION    NA+42069   7.110  11.862  14.480
71470ION    NA+42070  39.372  26.139   0.981
71471ION    NA+42071  42.305  10.478  14.307
71472ION    NA+42072  34.812  40.395   4.224
71473ION    NA+42073  31.031  27.914   1.690
71474ION    NA+42074   5.298  22.331  13.922
71475ION    NA+42075  36.032  22.430  11.254
71476ION    NA+42076  25.978  30.850  14.377
71477ION    NA+42077   6.523  41.831   3.048
71478ION    NA+42078  27.621  25.044  10.650
71479ION    NA+42079  26.320   2.531   0.180
71480ION    NA+42080  23.933   0.500   1.244
71481ION    NA+42081  14.784  27.717   2.826
71482ION    NA+42082  17.793   3.961   3.637
71483ION    NA+42083  32.217  23.505  12.363
71484ION    NA+42084  33.243  39.003   1.580
71485ION    NA+42085  31.614  30.770  11.672
71486ION    NA+42086  22.118  23.531   3.932
71487ION    NA+42087  22.863  15.779   2.329
71488ION    NA+42088   4.842   2.351   1.759
71489ION    NA+42089   4.951  28.985  12.669
71490ION    NA+42090  13.325  21.475   1.349
71491ION    NA+42091  11.270  37.422   5.053
71492ION    NA+42092   9.943  14.116  13.962
71493ION    NA+42093  10.443  41.499  13.449
71494ION    NA+42094  40.924  23.451   0.332
71495ION    NA+42095  40.395  43.738   2.281
71496ION    NA+42096  14.028  32.416   3.695
71497ION    NA+42097  30.014  16.382  14.331
71498ION    NA+42098  13.290  12.413   2.186
71499ION    NA+42099  24.445  11.841   2.660
71500ION    NA+42100   2.361  42.957   0.648
71501ION    NA+42101  10.020  19.237   4.038
71502ION    NA+42102   9.630  28.460   2.837
71503ION    NA+42103  29.201  10.702   1.833
71504ION    NA+42104  44.478  28.199   3.481
71505ION    NA+42105  19.827  41.661  13.591
71506ION    NA+42106  33.422  38.544  13.955
71507ION    NA+42107  20.717  36.851   3.883
71508ION    NA+42108  17.559  38.774  13.329
71509ION    NA+42109  28.904  12.634   4.934
71510ION    NA+42110  39.555  20.279  14.719
71511ION    NA+42111  20.243   4.294   3.125
71512ION    NA+42112  39.519  28.227  13.331
71513ION    NA+42113  13.206  31.086   4.035
71514ION    NA+42114   8.348  23.881  13.836
71515ION    NA+42115   3.871   9.646   2.799
71516ION    NA+42116  41.461  26.642   0.480
71517ION    NA+42117  29.197  31.973   4.084
71518ION    NA+42118  20.796   0.560   2.664
71519ION    NA+42119   8.249  19.783   1.928
71520ION    NA+42120  12.005  22.836  12.353
71521ION    NA+42121  19.053  17.917   4.180
71522ION    NA+42122  10.739  12.397   2.524
71523ION    NA+42123  20.334   0.078  11.332
71524ION    NA+42124  38.435  14.165  11.439
71525ION    NA+42125  27.517  28.597  11.490
71526ION    NA+42126  19.802  30.544   1.281
71527ION    NA+42127   2.885  20.404   3.179
71528ION    NA+42128  13.097   2.966  13.904
71529ION    NA+42129  22.451  29.058  10.179
71530ION    NA+42130  44.238  38.796   4.167
71531ION    NA+42131  39.541  29.527   4.130
71532ION    NA+42132  13.322   2.312   1.399
71533ION    NA+42133  23.507   4.278   0.549
71534ION    NA+42134  41.403  23.954  12.087
71535ION    NA+42135  17.413  29.282   3.362
71536ION    NA+42136  43.477   1.525  14.788
71537ION    NA+42137  24.476  25.140  11.371
71538ION    NA+42138   7.413  42.802  12.322
71539ION    NA+42139  15.824  40.380   3.112
71540ION    NA+42140  20.105  12.263   2.435
71541ION    NA+42141  34.844  30.624   3.102
71542ION    NA+42142   7.938  12.611  12.045
71543ION    NA+42143  17.433   9.425  11.509
71544ION    NA+42144   7.191  33.845   5.064
71545ION    NA+42145  38.736   0.827  14.850
71546ION    NA+42146   9.498   6.069  12.021
71547ION    NA+42147  39.599   1.895   4.003
71548ION    NA+42148  24.946  37.145  14.322
71549ION    NA+42149  18.748   3.311  11.105
71550ION    NA+42150  32.893  15.370   2.537
71551ION    NA+42151  24.656  30.710  14.528
71552ION    NA+42152   6.443  40.961   2.373
71553ION    NA+42153  35.670  33.953  11.365
71554ION    NA+42154  17.224  23.372   3.353
71555ION    NA+42155  16.349  43.893  12.813
71556ION    NA+42156  32.361  26.298  12.080
71557ION    NA+42157  24.016  41.280  14.767
71558ION    NA+42158  24.963  28.396  11.179
71559ION    NA+42159  21.471   1.341  14.323
71560ION    NA+42160  28.175  18.377   1.721
71561ION    NA+42161  22.145  37.984  13.707
71562ION    NA+42162  15.679  33.038   1.082
71563ION    NA+42163  16.906   7.460   3.848
71564ION    NA+42164  41.960   9.973   2.573
71565ION    NA+42165  29.734  29.182  13.013
71566ION    NA+42166  35.645  23.123   3.080
71567ION    NA+42167  17.035  15.635   0.490
71568ION    NA+42168  38.691  44.942  11.104
71569ION    NA+42169  18.976  16.714  11.481
71570ION    NA+42170  37.646  28.439  14.390
71571ION    NA+42171  32.288  37.339   3.198
71572ION    NA+42172   8.907  36.301  13.458
71573ION    NA+42173   1.625  29.191   2.684
71574ION    NA+42174  22.450  28.458  10.857
71575ION    NA+42175  21.264  28.468  12.953
71576ION    NA+42176  39.895  16.602  10.675
71577ION    NA+42177  23.949  21.629  12.378
71578ION    NA+42178  17.380  42.759   3.604
71579ION    NA+42179  20.276  24.749   3.333
71580ION    NA+42180   6.152  20.096   1.315
71581ION    NA+42181  10.568  26.255   3.316
71582ION    NA+42182  32.378  11.061   3.988
71583ION    NA+42183  23.545  18.068   4.648
71584ION    NA+42184  13.961  32.785  13.832
71585ION    NA+42185  24.538  42.943  14.501
71586ION    NA+42186  26.930  27.225   0.906
71587ION    NA+42187  27.602   4.004   0.131
71588ION    NA+42188  34.543   8.765   0.237
71589ION    NA+42189  28.854  28.379   2.379
71590ION    NA+42190  39.135  44.108   1.477
71591ION    NA+42191  16.167  34.166  10.826
71592ION    NA+42192   0.423  36.308   4.872
71593ION    NA+42193  11.803  13.297   1.656
71594ION    NA+42194  38.791  27.998   2.513
71595ION    NA+42195  44.310   5.929  14.900
71596ION    NA+42196  39.747   4.361   4.887
71597ION    NA+42197  43.215  44.486   1.853
71598ION    NA+42198  31.985  12.631   2.817
71599ION    NA+42199   1.867  33.369   1.358
71600ION    NA+42200  24.938  19.917  13.446
71601ION    NA+42201  20.997  32.397  11.196
71602ION    NA+42202  43.880   9.469  11.576
71603ION    NA+42203  11.602  35.169  14.605
71604ION    NA+42204  34.925  40.690   2.768
71605ION    NA+42205   5.719  22.519   0.079
71606ION    NA+42206  19.338   3.962  13.616
71607ION    NA+42207  17.863  11.187  13.015
71608ION    NA+42208  36.285  44.159  12.287
71609ION    NA+42209  12.334  34.868  10.895
71610ION    NA+42210  36.154  12.491   3.677
71611ION    NA+42211  39.732  17.968   9.282
71612ION    NA+42212   5.263  25.654  11.918
71613ION    NA+42213  30.501  33.386  13.548
71614ION    NA+42214  20.879  20.160  14.220
71615ION    NA+42215  29.243  27.424   2.366
71616ION    NA+42216  18.749  36.939  14.115
71617ION    NA+42217  16.229  12.651  13.625
71618ION    NA+42218  40.536   4.225  14.918
71619ION    NA+42219  44.612  27.482  11.083
71620ION    NA+42220   0.434  17.810   3.043
71621ION    NA+42221  36.197  36.008  10.722
71622ION    NA+42222  33.522   7.143   4.655
71623ION    NA+42223  27.590  37.407   1.108
71624ION    NA+42224  28.486  10.393   2.783
71625ION    NA+42225  31.421  25.696   2.652
71626ION    NA+42226  16.476  26.408   5.681
71627ION    NA+42227  28.375   2.880  13.862
71628ION    NA+42228  12.721  26.675   2.509
71629ION    NA+42229  29.504  10.277  10.756
71630ION    NA+42230  39.076  10.771   4.214
71631ION    NA+42231   6.294  38.142  14.561
71632ION    NA+42232  34.389   1.267  10.723
71633ION    NA+42233  39.490   3.742  10.626
71634ION    NA+42234   5.914  24.798  14.375
71635ION    NA+42235   6.174   3.889  11.502
71636ION    NA+42236   5.790  15.784  10.859
71637ION    NA+42237  16.107  18.071   3.691
71638ION    NA+42238  31.512  12.808   1.812
71639ION    NA+42239  13.289  43.434  11.476
71640ION    NA+42240   1.803   3.238  13.580
71641ION    NA+42241  28.331  33.411  12.663
71642ION    NA+42242  35.842  35.869   3.652
71643ION    NA+42243  34.105  17.909  14.401
71644ION    NA+42244  21.146   5.835   0.029
71645ION    NA+42245   5.759  16.265  12.363
71646ION    NA+42246  27.609  17.305   4.345
71647ION    NA+42247  25.603   1.231  10.637
71648ION    NA+42248  11.030  39.603   2.852
71649ION    NA+42249  43.587   6.427  14.360
71650ION    NA+42250  39.083  13.961  14.951
71651ION    NA+42251   6.266   0.013   2.517
71652ION    NA+42252  33.213  18.511  13.416
71653ION    NA+42253  32.676  33.420  11.133
71654ION    NA+42254  16.050  20.924  14.151
71655ION    NA+42255   7.675  14.413   1.364
71656ION    NA+42256  35.853   7.557   2.815
71657ION    NA+42257   9.136  21.068   3.664
71658ION    NA+42258  22.163  15.723  10.712
71659ION    NA+42259  41.062   6.415  10.399
71660ION    NA+42260  13.247  16.241   0.698
71661ION    NA+42261  18.226  43.361   2.526
71662ION    NA+42262  28.559  13.442  14.796
71663ION    NA+42263  13.576  25.870  11.822
71664ION    NA+42264   3.675  36.400  13.692
71665ION    NA+42265   4.028  39.391  14.927
71666ION    NA+42266  31.150   8.478   0.785
71667ION    NA+42267  41.622  12.249   1.086
71668ION    NA+42268  27.015  17.561  10.756
71669ION    NA+42269  26.962  40.334  10.129
71670ION    NA+42270  28.704   8.453   0.640
71671ION    NA+42271  12.821  39.252  14.402
71672ION    NA+42272  10.485  16.057   0.524
71673ION    NA+42273  39.289  34.546   1.796
71674ION    NA+42274  33.482  31.200   0.453
71675ION    NA+42275  14.781  22.211  13.430
71676ION    NA+42276  37.332   2.715   1.823
71677ION    NA+42277   9.178  42.717   1.036
71678ION    NA+42278  29.107   0.973   0.982
71679ION    NA+42279   5.691  19.178  13.848
71680ION    NA+42280  44.499  32.972   1.477
71681ION    NA+42281  28.587  19.093  12.057
71682ION    NA+42282  37.340   1.161   0.138
71683ION    NA+42283   0.018  13.126  10.859
71684ION    NA+42284  20.588  28.482   2.194
71685ION    NA+42285   0.190  15.573  11.006
71686ION    NA+42286  38.389  38.421   4.969
71687ION    NA+42287  37.545  37.554   2.738
71688ION    NA+42288  10.698  12.349  10.862
71689ION    NA+42289  14.632  13.386  13.464
71690ION    NA+42290  33.473  41.388   5.028
71691ION    NA+42291  11.338  40.646  10.389
71692ION    NA+42292  24.176   2.020   0.625
71693ION    NA+42293  25.444  20.303   2.809
71694ION    NA+42294  20.405  42.029   3.569
71695ION    NA+42295  36.437  35.853   4.984
71696ION    NA+42296  32.699   0.515   1.198
71697ION    NA+42297   0.242  31.234  11.635
71698ION    NA+42298  17.970  31.420   0.273
71699ION    NA+42299  24.656  28.196  14.727
71700ION    NA+42300   4.529  16.068  11.132
71701ION    NA+42301  16.120  17.220   1.903
71702ION    NA+42302   6.183   0.262  13.011
71703ION    NA+42303  42.954  36.064   2.961
71704ION    NA+42304  20.259  43.718  11.935
71705ION    NA+42305   7.810   5.982  11.217
71706ION    NA+42306  14.262   9.893  14.385
71707ION    NA+42307   6.621  42.620  14.765
71708ION    NA+42308  25.397  27.669   3.159
71709ION    NA+42309  41.895  24.197   1.835
71710ION    NA+42310  41.282  42.540  12.092
71711ION    NA+42311  35.786  35.005  14.299
71712ION    NA+42312  40.464  34.066  13.879
71713ION    NA+42313   8.331  19.725  11.095
71714ION    NA+42314  29.663  27.428  10.733
71715ION    NA+42315  14.328  38.021  13.891
71716ION    NA+42316  30.316  29.816  13.482
71717ION    NA+42317  13.197  26.741  11.509
71718ION    NA+42318  13.015  23.879   0.712
71719ION    NA+42319  44.416  40.170   9.820
71720ION    NA+42320  27.880  15.936   0.005
71721ION    NA+42321  12.357   9.118  12.755
71722ION    NA+42322  16.744  28.920  13.818
71723ION    NA+42323   6.962   4.467   3.116
71724ION    NA+42324  21.674  39.819   0.910
71725ION    NA+42325   7.312  31.064  11.980
71726ION    NA+42326  20.709   8.460  13.909
71727ION    NA+42327  32.521   9.779   0.240
71728ION    NA+42328   8.594  18.094   3.836
71729ION    NA+42329  23.998  35.361  11.119
71730ION    NA+42330  15.537  43.296   2.620
71731ION    NA+42331  21.324  26.167  14.217
71732ION    NA+42332  31.262   8.722  10.462
71733ION    NA+42333  13.094  14.617  12.916
71734ION    NA+42334  12.264  34.969  13.470
71735ION    NA+42335  17.007   4.323   4.600
71736ION    NA+42336  18.597   1.780  11.969
71737ION    NA+42337  44.815  11.147   3.558
71738ION    NA+42338  23.758   2.701   4.416
71739ION    NA+42339  12.775   2.321   4.580
71740ION    NA+42340  21.663  37.528   1.516
71741ION    NA+42341  11.173  20.759   0.806
71742ION    NA+42342  27.722  43.345   3.602
71743ION    NA+42343  12.774  27.806  12.370
71744ION    NA+42344  26.542   5.317   0.965
71745ION    NA+42345   6.243  18.545  14.466
71746ION    NA+42346  35.517  38.999  13.219
71747ION    NA+42347  18.129  34.999   3.761
71748ION    NA+42348  41.217  29.473   0.716
71749ION    NA+42349  41.325  10.956   1.346
71750ION    NA+42350  36.777  16.972  12.170
71751ION    NA+42351   7.406  42.448  11.170
71752ION    NA+42352  16.590  36.359   2.783
71753ION    NA+42353  12.203  37.518   1.092
71754ION    NA+42354   8.071  25.594   2.679
71755ION    NA+42355  38.369  41.843  10.861
71756ION    NA+42356  32.950  20.300  13.966
71757ION    NA+42357   0.773  17.133   1.466
71758ION    NA+42358   6.090  15.285   0.936
71759ION    NA+42359  36.146  16.721  13.773
71760ION    NA+42360  17.715  26.217   3.433
71761ION    NA+42361  25.361  21.675  13.045
71762ION    NA+42362  24.390   2.970  10.327
71763ION    NA+42363  18.820  20.580  13.462
71764ION    NA+42364  16.799  23.991  11.484
71765ION    NA+42365  36.407  44.368   1.451
71766ION    NA+42366   8.239  28.260   2.122
71767ION    NA+42367  33.382  15.957   3.690
71768ION    NA+42368  26.010  42.839  13.841
71769ION    NA+42369  36.862  14.229  11.986
71770ION    NA+42370  14.288  28.505   4.588
71771ION    NA+42371   7.356   7.742   5.143
71772ION    NA+42372  13.421  37.752  14.217
71773ION    NA+42373  25.111   0.850   4.336
71774ION    NA+42374  26.760  22.477  11.481
71775ION    NA+42375  29.534  36.342  13.771
71776ION    NA+42376  44.727  44.703   0.882
71777ION    NA+42377   7.086  20.267  14.375
71778ION    NA+42378  27.932   7.411   0.084
71779ION    NA+42379  34.152  33.607   2.365
71780ION    NA+42380   3.979  38.989   4.080
71781ION    NA+42381   8.129  17.032  11.137
71782ION    NA+42382  16.051  34.129   2.403
71783ION    NA+42383  20.098   4.527   0.708
71784ION    NA+42384  28.624   1.785   2.608
71785ION    NA+42385  37.963   3.895  10.682
71786ION    NA+42386   6.261  23.109  11.558
71787ION    NA+42387   3.652  12.297  11.516
71788ION    NA+42388  25.267  35.467   1.746
71789ION    NA+42389  41.032  42.558   3.393
71790ION    NA+42390  32.565   7.287  13.767
71791ION    NA+42391  14.158  42.723  11.467
71792ION    NA+42392  30.543  32.286  10.580
71793ION    NA+42393  18.423  24.714  13.445
71794ION    NA+42394   2.936  38.953  14.011
71795ION    NA+42395  43.772  17.862   2.581
71796ION    NA+42396  22.277  17.655  14.603
71797ION    NA+42397   8.459  41.922   4.518
71798ION    NA+42398   5.311  11.259  13.120
71799ION    NA+42399  42.070  42.119   1.297
71800ION    NA+42400  18.510  38.520   3.173
71801ION    NA+42401  22.971  41.290  10.691
71802ION    NA+42402  35.814  29.552   3.777
71803ION    NA+42403  28.888  39.259  11.142
71804ION    NA+42404  20.754   2.431   4.071
71805ION    NA+42405  43.828  24.199  12.910
71806ION    NA+42406  42.596  37.438  12.726
71807ION    NA+42407  22.443   1.269  12.437
71808ION    NA+42408   4.386  40.523   1.325
71809ION    NA+42409  32.161   6.201   1.930
71810ION    NA+42410   1.646  37.142  14.229
71811ION    NA+42411  36.510  22.684   3.324
71812ION    NA+42412  29.568  24.091   4.189
71813ION    NA+42413  33.037  14.298  14.718
71814ION    NA+42414   2.219  18.574   3.952
71815ION    NA+42415  30.089  10.794   0.947
71816ION    NA+42416  16.101  11.607   1.509
71817ION    NA+42417  21.659  10.707   1.770
71818ION    NA+42418  29.841  11.415  12.503
71819ION    NA+42419   8.829  18.759   2.753
71820ION    NA+42420  18.340  14.665  14.244
71821ION    NA+42421   9.720   6.030   1.284
71822ION    NA+42422  26.466  35.298   0.708
71823ION    NA+42423  17.057   3.380   3.289
71824ION    NA+42424  39.873   2.713  11.262
71825ION    NA+42425  15.112  13.599  14.914
71826ION    NA+42426  25.613   9.171   1.652
71827ION    NA+42427  20.122   6.556   1.306
71828ION    NA+42428   6.324  39.329   4.038
71829ION    NA+42429   1.751   0.409  11.543
71830ION    NA+42430   1.724  15.725  12.575
71831ION    NA+42431   7.789  29.640  11.736
71832ION    NA+42432  39.051   4.236   3.071
71833ION    NA+42433   3.333  37.349   1.674
71834ION    NA+42434   8.436  26.903  11.499
71835ION    NA+42435  35.357  14.583   1.261
71836ION    NA+42436  18.135  28.970   1.668
71837ION    NA+42437  18.600  23.965   4.748
71838ION    NA+42438  14.342  10.346   0.924
71839ION    NA+42439  42.557   7.410   0.530
71840ION    NA+42440  11.472  27.197  14.434
71841ION    NA+42441  12.954   8.599   4.571
71842ION    NA+42442  33.375   9.782   1.419
71843ION    NA+42443  14.494  36.115  11.520
71844ION    NA+42444  10.354  44.255   4.702
71845ION    NA+42445  40.241   5.834  13.031
71846ION    NA+42446  15.723   2.425   2.769
71847ION    NA+42447  36.747  13.448  12.305
71848ION    NA+42448  16.596  29.237   4.506
71849ION    NA+42449  34.547  11.229  11.700
71850ION    NA+42450  29.482  23.701  14.195
71851ION    NA+42451  35.714   3.178  12.895
71852ION    NA+42452  28.497   4.725   2.432
71853ION    NA+42453  11.662  38.564  10.714
71854ION    NA+42454  39.966  40.734  13.572
71855ION    NA+42455  30.598  38.490   5.692
71856ION    NA+42456   9.542  32.346  14.600
71857ION    NA+42457  42.225  30.502   2.795
71858ION    NA+42458  21.372   3.597  13.461
71859ION    NA+42459  34.556  31.940  10.523
71860ION    NA+42460  39.796   3.834   2.538
71861ION    NA+42461  42.406  30.126   3.860
71862ION    NA+42462   3.521  23.457   0.200
71863ION    NA+42463  19.452  13.970   0.758
71864ION    NA+42464  25.182  24.963  10.685
71865ION    NA+42465  18.224   9.987  14.183
71866ION    NA+42466  28.205  33.457  11.314
71867ION    NA+42467  20.627  21.564  14.513
71868ION    NA+42468  20.337  36.651   4.757
71869ION    NA+42469  17.636  13.666   0.443
71870ION    NA+42470  43.617  28.488  10.708
71871ION    NA+42471  19.700  30.961  12.310
71872ION    NA+42472  12.774  20.873   9.742
71873ION    NA+42473  20.077  33.044  12.348
71874ION    NA+42474  42.602  37.354   1.834
71875ION    NA+42475  26.855  27.668   2.040
71876ION    NA+42476  37.461   6.549   4.210
71877ION    NA+42477  15.245  38.946  12.941
71878ION    NA+42478  28.177   3.722  14.363
71879ION    NA+42479   1.678  34.266   3.432
71880ION    NA+42480  22.062  10.625   0.016
71881ION    NA+42481  12.681  35.529  11.560
71882ION    NA+42482  11.642  42.961  11.126
71883ION    NA+42483  31.823  19.583   1.228
71884ION    NA+42484   0.740   1.518   2.353
71885ION    NA+42485  22.352  18.907   2.689
71886ION    NA+42486   2.402  36.565  13.338
71887ION    NA+42487  19.543   7.617  11.080
71888ION    NA+42488  21.712  27.405   1.292
71889ION    NA+42489  20.002  20.009  11.192
71890ION    NA+42490   6.739   2.267   2.333
71891ION    NA+42491  40.047  22.011   1.819
71892ION    NA+42492  35.381  10.286   0.873
71893ION    NA+42493  22.091   6.437   2.760
71894ION    NA+42494  11.882  20.702  13.371
71895ION    NA+42495  22.476  29.493  13.805
71896ION    NA+42496  41.809  25.076  11.973
71897ION    NA+42497  14.085  18.150   3.684
71898ION    NA+42498  36.149  23.852   1.879
71899ION    NA+42499  34.929  14.733  14.789
71900ION    NA+42500  41.722  31.981   4.386
71901ION    NA+42501  26.608  14.445   2.282
71902ION    NA+42502  36.392  15.738   3.114
71903ION    NA+42503  24.334  28.685   4.504
71904ION    NA+42504  37.375  24.473   4.517
71905ION    NA+42505  25.499   4.896  12.533
71906ION    NA+42506  41.399  42.724   2.576
71907ION    NA+42507   0.360  18.227   4.395
71908ION    NA+42508  19.150  38.590  10.293
71909ION    NA+42509  13.448  39.835   1.832
71910ION    NA+42510  43.234  13.237   3.417
71911ION    NA+42511   3.182  23.702   0.999
71912ION    NA+42512  41.315  34.067   3.462
71913ION    NA+42513   2.973  37.519  13.257
71914ION    NA+42514  32.668   2.542   1.163
71915ION    NA+42515  31.481  18.004  11.623
71916ION    NA+42516  30.929  24.480   3.523
71917ION    NA+42517  36.033  17.180   2.623
71918ION    NA+42518  31.442  15.034  14.382
71919ION    NA+42519  12.324  22.502  13.116
71920ION    NA+42520  18.723   2.317   4.212
71921ION    NA+42521  43.884  20.506  12.040
71922ION    NA+42522  28.969  11.806   1.403
71923ION    NA+42523   8.649  35.807   2.328
71924ION    NA+42524  38.130  28.512  10.729
71925ION    NA+42525  24.551  40.580   0.483
71926ION    NA+42526  31.693  36.953  11.670
71927ION    NA+42527  28.268  26.947   4.219
71928ION    NA+42528  35.415  39.711   3.814
71929ION    NA+42529  21.930  14.820   1.487
71930ION    NA+42530  35.623  11.316   2.778
71931ION    NA+42531  29.804   2.927   2.323
71932ION    NA+42532  18.820  37.374  12.902
71933ION    NA+42533  30.286  41.347  11.824
71934ION    NA+42534  18.890  39.974  12.783
71935ION    NA+42535  13.778   5.954  12.069
71936ION    NA+42536   7.026   9.248   1.481
71937ION    NA+42537  21.259  16.488  12.487
71938ION    NA+42538  29.376   5.489   2.904
71939ION    NA+42539  16.887   1.870   3.973
71940ION    NA+42540  42.139  39.556  11.050
71941ION    NA+42541  37.888  18.163   5.491
71942ION    NA+42542   8.242  24.279  13.096
71943ION    NA+42543  22.401  11.638  10.711
71944ION    NA+42544  27.996  11.305   3.730
71945ION    NA+42545  42.852  13.052  14.210
71946ION    NA+42546  42.745  43.777   0.726
71947ION    NA+42547  24.814  35.061  14.044
71948ION    NA+42548  14.998   9.513   1.104
71949ION    NA+42549   8.293  20.590   4.575
71950ION    NA+42550  18.652  17.689   2.421
71951ION    NA+42551   7.823  21.833  11.598
71952ION    NA+42552  22.803  26.838  14.026
71953ION    NA+42553  29.900   7.849   0.222
71954ION    NA+42554   9.044  17.474   4.331
71955ION    NA+42555  12.139  13.669   2.886
71956ION    NA+42556   4.492   7.707  12.484
71957ION    NA+42557  16.591  15.734   3.983
71958ION    NA+42558  35.283  25.602  13.750
71959ION    NA+42559  24.936  14.732  12.850
71960ION    NA+42560   0.463  31.514   4.068
71961ION    NA+42561  21.615  44.335  14.506
71962ION    NA+42562   9.629   7.409  14.965
71963ION    NA+42563  40.895  33.096   2.841
71964ION    NA+42564   6.662   0.624  10.680
71965ION    NA+42565   4.476  43.838  11.444
71966ION    NA+42566  23.697  40.963  13.969
71967ION    NA+42567  16.023  25.412   3.126
71968ION    NA+42568  30.163   1.045  12.993
71969ION    NA+42569  26.623   7.110  14.861
71970ION    NA+42570  33.520  24.797   0.137
71971ION    NA+42571   4.964  17.572  12.603
71972ION    NA+42572  13.780  37.345   2.602
71973ION    NA+42573  29.819  11.454  13.502
71974ION    NA+42574  23.270  16.377  14.088
71975ION    NA+42575  13.218   4.662   9.984
71976ION    NA+42576  38.497  14.004   3.325
71977ION    NA+42577  21.827  12.171   4.667
71978ION    NA+42578  36.819  24.659  10.103
71979ION    NA+42579   4.710   9.329  14.579
71980ION    NA+42580  32.739  36.336  14.904
71981ION    NA+42581   8.600  28.774   4.133
71982ION    NA+42582  19.072  29.703  13.471
71983ION    NA+42583  34.014   5.967  14.663
71984ION    NA+42584   1.273  31.505   4.810
71985ION    NA+42585   5.794   1.173   3.352
71986ION    NA+42586   6.871  34.961   0.832
71987ION    NA+42587  34.198  12.213   4.170
71988ION    NA+42588   7.232   1.376  11.177
71989ION    NA+42589  40.367  36.371  14.678
71990ION    NA+42590  38.262  15.291   0.012
71991ION    NA+42591  16.620  38.676  11.361
71992ION    NA+42592  20.665   9.174  13.414
71993ION    NA+42593   7.852   8.154   1.478
71994ION    NA+42594  13.904  22.058   0.577
71995ION    NA+42595  37.517  25.510   1.836
71996ION    NA+42596  16.267  14.896   3.302
71997ION    NA+42597  17.487  12.818   0.951
71998ION    NA+42598  41.248  18.257  12.013
71999ION    NA+42599  41.683  18.922  13.765
72000ION    NA+42600   3.947   5.613  11.347
72001ION    NA+42601   0.423  13.438  13.879
72002ION    NA+42602   2.009  31.017   4.109
72003ION    NA+42603   1.721  44.511   2.789
72004ION    NA+42604  35.381  41.401   2.469
72005ION    NA+42605  39.694  44.086  12.132
72006ION    NA+42606  44.940   0.947  12.060
72007ION    NA+42607  20.742  16.630  14.219
72008ION    NA+42608  43.761  37.410  13.245
72009ION    NA+42609   1.530  43.483   3.792
72010ION    NA+42610  14.333   8.212   0.079
72011ION    NA+42611  33.167  11.601   0.816
72012ION    NA+42612   0.650  38.632   5.080
72013ION    NA+42613  11.856  28.941  13.614
72014ION    NA+42614  15.496  34.978   2.000
72015ION    NA+42615  39.931   7.398   1.861
72016ION    NA+42616   1.364  19.503   1.222
72017ION    NA+42617  26.788  33.662  12.281
72018ION    NA+42618  10.613  29.507  14.154
72019ION    NA+42619  32.196  18.396  12.202
72020ION    NA+42620  37.075   9.644   3.885
72021ION    NA+42621  20.209  10.431  12.733
72022ION    NA+42622  30.597  37.196   3.774
72023ION    NA+42623  39.077   0.882  11.036
72024ION    NA+42624  24.504   8.660   0.500
72025ION    NA+42625   9.447  16.006   4.569
72026ION    NA+42626  39.253   6.710  10.771
72027ION    NA+42627  10.847  25.160  10.776
72028ION    NA+42628  44.331  30.029  14.849
72029ION    NA+42629  34.360  13.721  11.473
72030ION    NA+42630  14.436  31.631  13.642
72031ION    NA+42631   9.447  13.577   4.880
72032ION    NA+42632  32.409  35.630   1.458
72033ION    NA+42633  37.880  26.091   4.244
72034ION    NA+42634  20.758  30.995  12.395
72035ION    NA+42635  37.381  38.484   3.841
72036ION    NA+42636  28.665  43.824   3.226
72037ION    NA+42637  41.604  17.194   0.187
72038ION    NA+42638   3.198  30.890   2.961
72039ION    NA+42639  17.664  31.196   1.087
72040ION    NA+42640  41.287   9.418  11.287
72041ION    NA+42641  35.293  28.066  10.742
72042ION    NA+42642  36.532  40.213  13.462
72043ION    NA+42643  41.811  37.387   1.223
72044ION    NA+42644  11.894  24.670  11.168
72045ION    NA+42645  35.625  43.720  11.678
72046ION    NA+42646  44.255  39.199   0.054
72047ION    NA+42647  29.271  13.595   1.229
72048ION    NA+42648  27.635  42.491  12.765
72049ION    NA+42649  19.124  22.472   4.088
72050ION    NA+42650  23.032  18.507   3.477
72051ION    NA+42651   5.187  21.029  14.807
72052ION    NA+42652  44.326  19.184  14.313
72053ION    NA+42653  26.530  43.713  10.863
72054ION    NA+42654  25.351   3.210   0.532
72055ION    NA+42655  27.683  40.078   3.304
72056ION    NA+42656  12.304  10.844   3.765
72057ION    NA+42657   3.184  23.113  12.687
72058ION    NA+42658   0.998  31.003  12.246
72059ION    NA+42659  18.188  23.263   0.918
72060ION    NA+42660   3.859   2.258   4.398
72061ION    NA+42661   6.004  21.219   4.164
72062ION    NA+42662  38.158  30.932  14.054
72063ION    NA+42663  30.995  17.315   3.166
72064ION    NA+42664  11.693   1.279  14.022
72065ION    NA+42665  22.699  43.288   2.853
72066ION    NA+42666  32.497  35.741  13.810
72067ION    NA+42667  41.239  42.750   0.596
72068ION    NA+42668   3.734   9.827  11.657
72069ION    NA+42669  29.569   3.464   0.865
72070ION    NA+42670  11.172  31.676  12.950
72071ION    NA+42671  33.627  34.298  14.020
72072ION    NA+42672  19.320  35.278   9.586
72073ION    NA+42673   9.041  30.094   1.659
72074ION    NA+42674  38.324   7.745   0.039
72075ION    NA+42675  22.700  30.468  14.403
72076ION    NA+42676   5.693   0.842  13.837
72077ION    NA+42677  16.700  11.281  14.579
72078ION    NA+42678  25.309  28.665   3.164
72079ION    NA+42679  38.271   4.112   2.289
72080ION    NA+42680   3.776  38.520  11.447
72081ION    NA+42681   0.742  13.599  12.945
72082ION    NA+42682  39.029  18.070  11.700
72083ION    NA+42683  37.698  27.967   5.041
72084ION    NA+42684  20.008  42.264   4.710
72085ION    NA+42685  23.629  44.393   0.359
72086ION    NA+42686   1.443  29.085  11.657
72087ION    NA+42687  18.506  19.044   1.081
72088ION    NA+42688  12.624  28.446   4.637
72089ION    NA+42689  23.535  36.115   2.077
72090ION    NA+42690  18.800   4.275   2.478
72091ION    NA+42691  24.391  28.602   3.132
72092ION    NA+42692  34.640  15.783  11.142
72093ION    NA+42693  40.527  39.862  12.453
72094ION    NA+42694  41.470  32.668   3.943
72095ION    NA+42695   2.544  26.867  14.249
72096ION    NA+42696  21.125  29.430   2.988
72097ION    NA+42697  27.851  16.058   0.900
72098ION    NA+42698  27.131  25.756   1.037
72099ION    NA+42699  14.218  26.115  14.485
72100ION    NA+42700   5.165  33.193   2.183
72101ION    NA+42701  12.298  36.887   2.316
72102ION    NA+42702  33.357  16.820  11.470
72103ION    NA+42703  18.241  40.650   3.486
72104ION    NA+42704   9.434  22.283  11.019
72105ION    NA+42705  40.262  11.565   0.295
72106ION    NA+42706  36.332  24.230  11.672
72107ION    NA+42707  39.039  21.994   3.942
72108ION    NA+42708  16.320  38.987  14.860
72109ION    NA+42709   6.738   0.699   2.165
72110ION    NA+42710  23.142  37.107   2.410
72111ION    NA+42711  25.479   3.447  12.203
72112ION    NA+42712  35.353  18.866   1.465
72113ION    NA+42713  43.135  15.786   3.713
72114ION    NA+42714  40.398  28.720   2.466
72115ION    NA+42715  22.207  34.603  11.506
72116ION    NA+42716  25.476  41.865   4.602
72117ION    NA+42717  20.645  28.135  10.345
72118ION    NA+42718  21.079  44.892  13.559
72119ION    NA+42719   4.876  20.787   2.365
72120ION    NA+42720  39.819   6.174  12.234
72121ION    NA+42721   7.769  32.950   3.767
72122ION    NA+42722  28.553  39.464   4.135
72123ION    NA+42723   6.782  14.910   2.875
72124ION    NA+42724   9.835  23.843   4.575
72125ION    NA+42725  12.795   3.064  10.368
72126ION    NA+42726   2.967   5.504   3.089
72127ION    NA+42727  19.404  38.180   2.258
72128ION    NA+42728  32.563  32.133  14.113
72129ION    NA+42729  21.897  31.613  12.680
72130ION    NA+42730  41.475  13.711   2.117
72131ION    NA+42731  41.766  27.143  12.639
72132ION    NA+42732   4.128   1.377  12.466
72133ION    NA+42733  32.791   5.519  11.190
72134ION    NA+42734  21.536  23.791  14.661
72135ION    NA+42735  21.996  13.400  11.568
72136ION    NA+42736  11.715  17.519   3.498
72137ION    NA+42737   1.557   1.961  13.797
72138ION    NA+42738   8.995  12.304  12.018
72139ION    NA+42739  19.644   5.265  14.457
72140ION    NA+42740   2.368  40.369  14.035
72141ION    NA+42741  33.892   6.772  14.243
72142ION    NA+42742  10.766  17.010   0.392
72143ION    NA+42743  20.471  35.056   3.839
72144ION    NA+42744  34.527   7.525  13.425
72145ION    NA+42745  23.041  38.865  13.154
72146ION    NA+42746   5.747  18.734   1.412
72147ION    NA+42747  22.605  13.120  12.895
72148ION    NA+42748  37.551  30.689   0.003
72149ION    NA+42749   2.942   9.436  13.204
72150ION    NA+42750  25.970  34.826   1.437
72151ION    NA+42751  29.963  44.009   0.325
72152ION    NA+42752  38.853  37.995  10.628
72153ION    NA+42753  21.417  32.463   1.952
72154ION    NA+42754   1.213  42.724  11.573
72155ION    NA+42755  30.075  14.119  13.825
72156ION    NA+42756  18.423  13.042   0.679
72157ION    NA+42757   8.466   3.633  10.757
72158ION    NA+42758  20.324   7.113  11.128
72159ION    NA+42759  44.396  22.721  14.362
72160ION    NA+42760  18.521  14.310   0.887
72161ION    NA+42761   8.768  16.531  12.049
72162ION    NA+42762  19.118  41.045   3.211
72163ION    NA+42763  39.091  12.257  10.287
72164ION    NA+42764  18.047  39.074  14.169
72165ION    NA+42765  16.137  28.835   1.694
72166ION    NA+42766   6.438  19.684  14.094
72167ION    NA+42767  29.983  38.330   0.284
72168ION    NA+42768  37.626  13.793   1.848
72169ION    NA+42769  37.253  34.143   4.317
72170ION    NA+42770   7.712  30.465   4.641
72171ION    NA+42771  39.832  34.001   2.774
72172ION    NA+42772  21.048  37.004  12.555
72173ION    NA+42773  29.113  37.036  10.925
72174ION    NA+42774  25.940  20.395  12.516
72175ION    NA+42775  13.170  11.023  14.385
72176ION    NA+42776  34.985  22.731   0.707
72177ION    NA+42777   0.566  33.864   1.261
72178ION    NA+42778   8.827   3.993  11.618
72179ION    NA+42779  13.583  36.872   3.461
72180ION    NA+42780  35.628  31.894  14.639
72181ION    NA+42781  21.547  13.068   1.985
72182ION    NA+42782  15.836   0.863   3.778
72183ION    NA+42783  34.978  30.395  10.328
72184ION    NA+42784  32.410   3.452   1.487
72185ION    NA+42785  40.483  43.837  10.709
72186ION    NA+42786   7.826  34.521  14.432
72187ION    NA+42787  30.934   9.658   0.028
72188ION    NA+42788  22.927   9.116   2.547
72189ION    NA+42789  32.868  30.190   4.652
72190ION    NA+42790  33.761  39.575  12.018
72191ION    NA+42791   0.143  38.167   0.266
72192ION    NA+42792   0.460  28.869   1.714
72193ION    NA+42793  21.221   6.322  12.153
72194ION    NA+42794  44.336  37.129  10.541
72195ION    NA+42795  20.726  34.523   0.365
72196ION    NA+42796  40.981  35.576   3.224
72197ION    NA+42797  26.702  13.579   2.575
72198ION    NA+42798  40.561  38.970   4.615
72199ION    NA+42799   2.708  28.556  13.330
72200ION    NA+42800  41.848  14.103  11.806
72201ION    NA+42801  40.997  36.102  13.086
72202ION    NA+42802  23.556  26.984   0.767
72203ION    NA+42803  33.123  41.808   0.198
72204ION    NA+42804  41.128   5.359  13.014
72205ION    NA+42805  37.388   8.595   0.938
72206ION    NA+42806  12.568  43.508   2.709
72207ION    NA+42807  15.094   1.636   0.902
72208ION    NA+42808   5.048  24.494   2.711
72209ION    NA+42809  39.390  39.971   3.229
72210ION    NA+42810  21.919  28.446   2.042
72211ION    NA+42811  32.956   9.312  14.414
72212ION    NA+42812   5.017  17.969  13.520
72213ION    NA+42813  16.264  33.559  12.718
72214ION    NA+42814  20.209  33.433  11.436
72215ION    NA+42815  33.467   6.080  11.027
72216ION    NA+42816  42.123  33.810  13.050
72217ION    NA+42817  12.672  28.690   2.434
72218ION    NA+42818  30.561  43.099   0.158
72219ION    NA+42819  21.855   1.519   1.076
72220ION    NA+42820   7.219  30.524  13.912
72221ION    NA+42821  21.984  16.023   2.401
72222ION    NA+42822  25.432   9.748   2.350
72223ION    NA+42823  24.782  14.543   2.757
72224ION    NA+42824  19.960  38.079  10.688
72225ION    NA+42825  34.799   0.328  11.331
72226ION    NA+42826  25.444  31.076  12.017
72227ION    NA+42827  25.801  21.149   4.673
72228ION    NA+42828   2.277  43.947  11.078
72229ION    NA+42829  26.940  24.089   0.628
72230ION    NA+42830  20.803  23.871   3.477
72231ION    NA+42831  36.831  37.127  11.890
72232ION    NA+42832  28.235  32.887  13.384
72233ION    NA+42833  31.504  10.419   4.084
72234ION    NA+42834  28.413  28.812  14.629
72235ION    NA+42835  22.923   7.817  12.049
72236ION    NA+42836  27.938   4.239   2.927
72237ION    NA+42837  25.623  31.580  10.916
72238ION    NA+42838  23.492  11.728  13.455
72239ION    NA+42839  40.626  14.220   9.916
72240ION    NA+42840  18.681  29.511  14.685
72241ION    NA+42841  21.303  33.638  12.125
72242ION    NA+42842  16.668   6.759  13.040
72243ION    NA+42843  17.450  28.049  13.267
72244ION    NA+42844  38.787   5.126   1.056
72245ION    NA+42845  12.509  33.150  12.395
72246ION    NA+42846  24.227  32.480   3.838
72247ION    NA+42847  34.025  26.388  11.605
72248ION    NA+42848  40.739  41.133  13.079
72249ION    NA+42849  29.199  28.167  11.222
72250ION    NA+42850  22.988  36.264  14.128
72251ION    NA+42851  32.324  31.096   1.367
72252ION    NA+42852   2.979  16.170  13.458
72253ION    NA+42853  38.422  36.167  11.668
72254ION    NA+42854  41.458   6.631   0.831
72255ION    NA+42855  27.455  30.013  13.860
72256ION    NA+42856   2.945  21.240   3.516
72257ION    NA+42857   2.751  22.004  12.947
72258ION    NA+42858   0.390  39.489   0.555
72259ION    NA+42859  25.850   8.817   0.831
72260ION    NA+42860   3.893  11.216   0.444
72261ION    NA+42861  27.560   2.411   4.042
72262ION    NA+42862   0.808  32.137   3.198
72263ION    NA+42863   6.558  15.524   2.119
72264ION    NA+42864  25.240  35.690   4.618
72265ION    NA+42865  43.474  29.058   2.323
72266ION    NA+42866  28.286  31.982   4.025
72267ION    NA+42867   6.304  17.989  10.717
72268ION    NA+42868  31.968  28.467   1.767
72269ION    NA+42869  15.468   2.087   0.278
72270ION    NA+42870  17.469   3.159   0.851
72271ION    NA+42871  10.029  30.024  14.532
72272ION    NA+42872  33.950  11.864  12.191
72273ION    NA+42873   4.710  17.842   3.305
72274ION    NA+42874   9.145  38.553  11.140
72275ION    NA+42875   3.804   8.151  13.821
72276ION    NA+42876   3.141  27.014   3.374
72277ION    NA+42877  40.921  28.561   4.040
72278ION    NA+42878  35.171  32.010   5.284
72279ION    NA+42879  31.336  37.603   4.310
72280ION    NA+42880  14.140  41.248  11.087
72281ION    NA+42881  11.358  42.464   0.918
72282ION    NA+42882  26.491  27.715   0.017
72283ION    NA+42883  41.928  20.843  13.284
72284ION    NA+42884   0.888   2.893   0.961
72285ION    NA+42885   0.372   6.192  11.944
72286ION    NA+42886  37.342  41.372  13.303
72287ION    NA+42887  38.395  34.337   0.882
72288ION    NA+42888  21.705  20.082   0.264
72289ION    NA+42889  25.675  44.666  13.100
72290ION    NA+42890  11.874  33.656  12.235
72291ION    NA+42891  22.163  13.138   1.200
72292ION    NA+42892  12.128   1.507  10.777
72293ION    NA+42893  27.620  39.436   1.440
72294ION    NA+42894   6.392   6.816  10.324
72295ION    NA+42895   5.072  13.353  10.932
72296ION    NA+42896  11.558   4.848  14.064
72297ION    NA+42897  10.892  23.581  14.955
72298ION    NA+42898  36.526  17.669   1.832
72299ION    NA+42899  36.759  31.296  14.931
72300ION    NA+42900  42.288   4.348   3.119
72301ION    NA+42901  38.186  10.007  11.306
72302ION    NA+42902  16.839   1.681  11.718
72303ION    NA+42903  42.537   0.028   3.904
72304ION    NA+42904  36.152  12.321  11.725
72305ION    NA+42905  22.607  36.620  10.764
72306ION    NA+42906  10.408  42.332  10.979
72307ION    NA+42907  13.870  38.281   3.303
72308ION    NA+42908   5.793  14.428   1.008
72309ION    NA+42909  40.699   6.210  12.226
72310ION    NA+42910  44.037   2.172   0.379
72311ION    NA+42911   7.375  22.768   0.973
72312ION    NA+42912  22.764  30.136   2.798
72313ION    NA+42913  39.803  43.011  14.820
72314ION    NA+42914   1.658  38.806  13.103
72315ION    NA+42915  17.784  16.670  12.226
72316ION    NA+42916   7.338  24.822  14.565
72317ION    NA+42917  30.012  31.530   3.346
72318ION    NA+42918  10.695  38.835  11.491
72319ION    NA+42919  25.361   2.086  13.075
72320ION    NA+42920  10.090  35.968  11.879
72321ION    NA+42921   0.009  29.517   2.899
72322ION    NA+42922  24.988  26.983   1.912
72323ION    NA+42923  41.264  42.634   1.589
72324ION    NA+42924   0.269   6.690   2.883
72325ION    NA+42925  35.558   4.198  14.951
72326ION    NA+42926  16.222  18.816   4.197
72327ION    NA+42927  27.666  21.287  10.870
72328ION    NA+42928  26.998  14.314   0.090
72329ION    NA+42929  11.605  13.013  13.152
72330ION    NA+42930  35.926  20.460  12.146
72331ION    NA+42931  21.216  22.952   0.990
72332ION    NA+42932  43.983  43.131   0.203
72333ION    NA+42933  14.175  38.890  11.439
72334ION    NA+42934   2.057  39.249   2.838
72335ION    NA+42935  20.112  19.060   4.960
72336ION    NA+42936  12.718   3.846  13.461
72337ION    NA+42937  16.035  18.700  13.569
72338ION    NA+42938  39.257   6.834  13.645
72339ION    NA+42939  34.687  16.299  13.468
72340ION    NA+42940  36.134   5.193   0.327
72341ION    NA+42941  43.041  30.233   0.450
72342ION    NA+42942  13.632   0.383   0.288
72343ION    NA+42943  19.441  43.936   3.942
72344ION    NA+42944   7.080  40.548   1.129
72345ION    NA+42945  36.163   1.461   0.712
72346ION    NA+42946  13.135  32.508  10.729
72347ION    NA+42947   3.685  35.864   1.482
72348ION    NA+42948  26.700   6.727  13.940
72349ION    NA+42949  13.272   3.181  12.943
72350ION    NA+42950  16.979  29.672  13.101
72351ION    NA+42951  18.598  15.389  11.550
72352ION    NA+42952  40.440  37.059   0.400
72353ION    NA+42953  34.296  31.089  12.994
72354ION    NA+42954   1.897   4.941  12.882
72355ION    NA+42955  26.675  20.720  14.584
72356ION    NA+42956  14.811  36.126   1.398
72357ION    NA+42957  27.724  14.955  10.655
72358ION    NA+42958  10.158  14.249   2.846
72359ION    NA+42959  29.485  10.398   2.743
72360ION    NA+42960   4.635  29.975  10.987
72361ION    NA+42961  23.762   3.055   0.817
72362ION    NA+42962  19.426   1.331  14.566
72363ION    NA+42963  25.332   6.438  10.731
72364ION    NA+42964  30.894  21.231   4.036
72365ION    NA+42965  39.879  16.141  13.884
72366ION    NA+42966  43.640  43.152   4.001
72367ION    NA+42967  33.693  41.698  13.888
72368ION    NA+42968  33.332   1.844  14.090
72369ION    NA+42969  25.468  14.255   4.075
72370ION    NA+42970  26.434  10.331   1.807
72371ION    NA+42971  24.859  32.615   2.940
72372ION    NA+42972  34.183  15.104   3.945
72373ION    NA+42973  28.045  25.969  11.750
72374ION    NA+42974  14.935   6.421   1.839
72375ION    NA+42975  35.207  16.107   2.926
72376ION    NA+42976   9.213  28.910  13.839
72377ION    NA+42977  44.233  44.844  13.352
72378ION    NA+42978  11.573  25.200  13.145
72379ION    NA+42979  21.635  10.971  10.561
72380ION    NA+42980  26.341  44.850   1.844
72381ION    NA+42981  40.867  41.765   1.295
72382ION    NA+42982  42.051  37.034   3.272
72383ION    NA+42983   5.318  28.715   3.159
72384ION    NA+42984  25.751  40.236  11.542
72385ION    NA+42985  34.145   1.491   3.002
72386ION    NA+42986  21.224   2.333  12.201
72387ION    NA+42987   1.366  16.535   2.000
72388ION    NA+42988  33.358  21.221   2.403
72389ION    NA+42989   8.994  22.190   9.922
72390ION    NA+42990   4.580  38.617   4.527
72391ION    NA+42991  23.550  25.685   1.401
72392ION    NA+42992  32.130  31.128   3.661
72393ION    NA+42993   2.917  36.424  11.274
72394ION    NA+42994  35.740  23.127   2.194
72395ION    NA+42995  14.753  20.252  12.502
72396ION    NA+42996  30.720  14.339   0.127
72397ION    NA+42997  43.721  33.532  12.343
72398ION    NA+42998  35.945   5.695   3.409
72399ION    NA+42999  37.338  40.815  12.430
72400ION    NA+43000  25.996  13.099  10.634
72401ION    NA+43001   3.221  28.419   3.198
72402ION    NA+43002  30.137  19.797   2.793
72403ION    NA+43003  42.322   8.329   1.777
72404ION    NA+43004  43.405   1.882  13.166
72405ION    NA+43005  10.316  34.430  14.442
72406ION    NA+43006  18.537  20.863   4.075
72407ION    NA+43007  13.151   4.662   2.741
72408ION    NA+43008  35.316  33.996  13.520
72409ION    NA+43009  28.699  27.947  14.601
72410ION    NA+43010  32.204  34.440   3.752
72411ION    NA+43011  37.258  13.547  11.377
72412ION    NA+43012  21.419  18.561  14.219
72413ION    NA+43013  43.732  38.350  14.980
72414ION    NA+43014  16.551  40.811   2.995
72415ION    NA+43015   0.742   4.914  14.314
72416ION    NA+43016  21.268  39.215   0.225
72417ION    NA+43017  19.842  28.405  12.838
72418ION    NA+43018  21.550   4.405  10.857
72419ION    NA+43019  10.215  24.424  14.911
72420ION    NA+43020  35.781   7.699  12.020
72421ION    NA+43021  44.790  30.524   4.574
72422ION    NA+43022  27.954  40.905  10.614
72423ION    NA+43023  36.402  32.559   2.807
72424ION    NA+43024  32.896  42.789   3.615
72425ION    NA+43025   0.662  20.025  13.973
72426ION    NA+43026  30.892  17.447   1.449
72427ION    NA+43027  30.743  41.656  11.104
72428ION    NA+43028  17.285  12.292   3.790
72429ION    NA+43029   5.035  38.855   3.049
72430ION    NA+43030   4.688  28.901  11.079
72431ION    NA+43031  28.824  38.610  13.456
72432ION    NA+43032  17.618  44.691   2.589
72433ION    NA+43033  28.397  34.491   1.058
72434ION    NA+43034  33.867   1.215  13.006
72435ION    NA+43035  20.489  43.291   1.957
72436ION    NA+43036   7.035  38.037   4.823
72437ION    NA+43037  18.343  11.039   1.954
72438ION    NA+43038   9.616  24.689  11.222
72439ION    NA+43039  36.835  20.317  11.156
72440ION    NA+43040  40.499  30.214   2.581
72441ION    NA+43041  18.226  20.098   4.391
72442ION    NA+43042   6.217   6.230   0.342
72443ION    NA+43043  32.782   5.640   1.784
72444ION    NA+43044  18.287  25.625  13.834
72445ION    NA+43045   9.900  30.193   4.463
72446ION    NA+43046  21.148  40.894  12.428
72447ION    NA+43047  21.685   2.803   3.043
72448ION    NA+43048  34.353  18.767  14.409
72449ION    NA+43049  15.907  16.430  10.876
72450ION    NA+43050  32.976  11.612   1.798
72451ION    NA+43051  10.681  25.062  12.601
72452ION    NA+43052  13.299   6.231   3.827
72453ION    NA+43053  27.222   3.100   2.623
72454ION    NA+43054  34.544  41.430   9.766
72455ION    NA+43055   6.678   5.428   4.536
72456ION    NA+43056  15.059  23.534   2.729
72457ION    NA+43057  44.774  40.752   0.695
72458ION    NA+43058  30.242  42.904  14.231
72459ION    NA+43059  11.879  18.273  13.470
72460ION    NA+43060  22.454   2.245   4.096
72461ION    NA+43061  11.186  10.621   1.185
72462ION    NA+43062   7.391  41.028   1.833
72463ION    NA+43063   7.431  39.726   1.632
72464ION    NA+43064  38.884  42.022   2.837
72465ION    NA+43065  12.118  42.234  13.133
72466ION    NA+43066   4.984   2.813  11.755
72467ION    NA+43067  26.435   1.535   3.680
72468ION    NA+43068   7.272  21.593  14.658
72469ION    NA+43069  29.781  40.657  12.971
72470ION    NA+43070  16.714  20.539   1.724
72471ION    NA+43071  22.142  29.483   1.815
72472ION    NA+43072  35.808  15.087   0.667
72473ION    NA+43073  31.407   2.547   4.074
72474ION    NA+43074  39.872  27.956   2.089
72475ION    NA+43075  37.947   1.417   1.387
72476ION    NA+43076   3.833  31.866  13.068
72477ION    NA+43077  11.366  11.934   1.229
72478ION    NA+43078  20.060  13.536  12.016
72479ION    NA+43079  11.683  20.921  10.602
72480ION    NA+43080   6.821  34.077   0.369
72481ION    NA+43081  34.151  38.684   3.216
72482ION    NA+43082  36.231  39.902   3.268
72483ION    NA+43083  35.287  19.533   4.643
72484ION    NA+43084  34.588   6.602  12.833
72485ION    NA+43085   7.839  14.007  12.260
72486ION    NA+43086  40.525  20.322   1.668
72487ION    NA+43087  24.033  16.702  13.529
72488ION    NA+43088  35.209  14.350  13.096
72489ION    NA+43089  13.853   4.821  11.170
72490ION    NA+43090  23.356   2.170   3.670
72491ION    NA+43091  23.518   2.226  12.488
72492ION    NA+43092  41.709   9.056   2.883
72493ION    NA+43093  41.594   2.680  12.314
72494ION    NA+43094  11.219  18.948  11.550
72495ION    NA+43095   3.548  26.590   1.073
72496ION    NA+43096  36.491  23.573  12.409
72497ION    NA+43097  28.511  36.802  13.315
72498ION    NA+43098  30.043   1.930  11.339
72499ION    NA+43099   4.144   7.392   0.676
72500ION    NA+43100  40.027  21.456  13.695
72501ION    NA+43101  13.354  41.538   1.350
72502ION    NA+43102  40.825   7.064  10.789
72503ION    NA+43103   8.625   0.479  14.733
72504ION    NA+43104  14.902   8.436   0.690
72505ION    NA+43105  22.300  37.819  10.537
72506ION    NA+43106  36.499   1.936   5.235
72507ION    NA+43107   0.773  10.664   1.028
72508ION    NA+43108  14.347  44.958  10.405
72509ION    NA+43109  25.391  38.930   2.997
72510ION    NA+43110  22.274  43.331   0.545
72511ION    NA+43111   6.410   0.311   3.461
72512ION    NA+43112  21.600  22.435  10.965
72513ION    NA+43113  20.324  44.335   2.031
72514ION    NA+43114  33.440  19.346  10.839
72515ION    NA+43115  35.031  40.549  14.666
72516ION    NA+43116  39.555   5.470  14.489
72517ION    NA+43117  43.210   1.885   4.509
72518ION    NA+43118   6.646  26.076  11.986
72519ION    NA+43119  23.819   4.476  12.923
72520ION    NA+43120   4.729  12.703   2.866
72521ION    NA+43121  10.693  22.699  11.572
72522ION    NA+43122   6.536  26.961   4.987
72523ION    NA+43123  33.613  22.453   4.751
72524ION    NA+43124   5.882  38.746   1.529
72525ION    NA+43125  42.169  37.702   3.881
72526ION    NA+43126  15.559  24.609  11.514
72527ION    NA+43127  20.775  18.944   0.967
72528ION    NA+43128  12.269  25.578  12.046
72529ION    NA+43129   4.777  18.736  10.727
72530ION    NA+43130   0.974  35.494  11.708
72531ION    NA+43131  38.546  34.117  13.505
72532ION    NA+43132  38.447   0.827   3.117
72533ION    NA+43133  41.438  25.170   3.166
72534ION    NA+43134  20.163   1.118   1.428
72535ION    NA+43135  37.614  44.321   0.521
72536ION    NA+43136  39.382  10.250  14.272
72537ION    NA+43137  36.775  27.908   0.535
72538ION    NA+43138  30.923  24.726  12.428
72539ION    NA+43139  36.247  29.873   0.986
72540ION    NA+43140  22.169  17.524   1.044
72541ION    NA+43141  10.715  41.511   1.595
72542ION    NA+43142  10.796  25.635  13.887
72543ION    NA+43143  28.346  17.160   1.205
72544ION    NA+43144   7.586   6.962  11.401
72545ION    NA+43145   6.759  17.018  14.479
72546ION    NA+43146  29.169  32.812   5.037
72547ION    NA+43147  21.279  39.391   3.407
72548ION    NA+43148  18.628  40.973  13.375
72549ION    NA+43149  17.986  10.705   3.591
72550ION    NA+43150   4.608  39.303   0.620
72551ION    NA+43151  13.715  12.751   2.891
72552ION    NA+43152   2.380  15.632   3.612
72553ION    NA+43153  30.049  15.161   3.989
72554ION    NA+43154   2.918  23.182   1.652
72555ION    NA+43155  43.389  24.263   1.629
72556ION    NA+43156  18.366  13.551   4.355
72557ION    NA+43157   9.621  36.039   2.355
72558ION    NA+43158  22.372  11.498  12.427
72559ION    NA+43159  12.620  21.158   4.640
72560ION    NA+43160  19.782  34.843   3.124
72561ION    NA+43161  43.906   2.902  14.940
72562ION    NA+43162  13.154   5.579   4.644
72563ION    NA+43163   8.013   1.688   2.664
72564ION    NA+43164  11.006  35.761   2.834
72565ION    NA+43165   4.313   2.674   0.377
72566ION    NA+43166  17.095  16.385   3.416
72567ION    NA+43167  25.611  36.585   3.781
72568ION    NA+43168  16.592  14.984   1.874
72569ION    NA+43169  28.372  37.713   2.433
72570ION    NA+43170   5.230  32.060  14.776
72571ION    NA+43171  39.586  31.191   3.648
72572ION    NA+43172  23.406  38.705  12.236
72573ION    NA+43173  38.922  15.264  12.153
72574ION    NA+43174  26.619  35.057  14.346
72575ION    NA+43175  21.606   9.918  11.267
72576ION    NA+43176  30.192  19.528  13.295
72577ION    NA+43177   5.162  42.805  12.349
72578ION    NA+43178  40.532  21.658  12.855
72579ION    CL-43179  31.439  35.685   0.509
72580ION    CL-43180  41.381  38.251  14.383
72581ION    CL-43181  17.906  12.389   2.072
72582ION    CL-43182  23.360  41.274  11.939
72583ION    CL-43183  13.837  11.057  11.555
72584ION    CL-43184   9.781  31.967  14.579
72585ION    CL-43185   3.779  41.425   4.063
72586ION    CL-43186  32.071  38.535   3.278
72587ION    CL-43187  15.398  42.307  13.125
72588ION    CL-43188  10.293  20.569  13.114
72589ION    CL-43189  41.509  11.692   3.216
72590ION    CL-43190  37.791   4.679  13.854
72591ION    CL-43191  32.060   4.989  13.744
72592ION    CL-43192  43.946   0.185  13.315
72593ION    CL-43193  23.942  35.615   4.330
72594ION    CL-43194  42.427  12.071  13.473
72595ION    CL-43195  37.303  31.173  12.336
72596ION    CL-43196  31.174  43.592  11.935
72597ION    CL-43197  11.088  24.096  12.519
72598ION    CL-43198  27.188  41.503  11.692
72599ION    CL-43199  11.973  31.374   4.224
72600ION    CL-43200  10.768  30.361  12.407
72601ION    CL-43201  30.366   1.671  11.143
72602ION    CL-43202  33.840  37.792  12.553
72603ION    CL-43203  10.463  15.035  11.860
72604ION    CL-43204  29.158  29.794   4.981
72605ION    CL-43205  34.400  18.583  10.692
72606ION    CL-43206  15.357  38.655  10.721
72607ION    CL-43207  18.528   3.516  10.775
72608ION    CL-43208  20.621  26.677   3.092
72609ION    CL-43209  31.003  18.676  14.278
72610ION    CL-43210  30.959   3.494   2.756
72611ION    CL-43211  24.474  11.484   4.516
72612ION    CL-43212   9.511  13.145   4.737
72613ION    CL-43213  21.387  24.033  10.273
72614ION    CL-43214  25.674   1.512   1.236
72615ION    CL-43215   2.127  15.522  12.583
72616ION    CL-43216  38.192   9.756   4.929
72617ION    CL-43217   8.894  21.098  11.464
72618ION    CL-43218  40.349  32.493  12.540
72619ION    CL-43219  42.467  28.319  11.548
72620ION    CL-43220  17.977  13.548   4.598
72621ION    CL-43221  10.109  39.433   0.383
72622ION    CL-43222  13.506  32.375  10.933
72623ION    CL-43223  13.088  32.207   2.646
72624ION    CL-43224  24.442  43.924   3.273
72625ION    CL-43225  43.269   0.314  14.080
72626ION    CL-43226   0.071  27.235   5.034
72627ION    CL-43227  28.218  22.072   0.649
72628ION    CL-43228  19.254   6.188   4.941
72629ION    CL-43229  33.400  27.060   1.965
72630ION    CL-43230  17.034   7.769   4.145
72631ION    CL-43231  32.796  10.855  12.846
72632ION    CL-43232   8.319  24.265  13.562
72633ION    CL-43233  24.998   0.580   2.076
72634ION    CL-43234   1.467   7.997   0.554
72635ION    CL-43235   8.432  39.847   3.641
72636ION    CL-43236  35.894  10.789  14.410
72637ION    CL-43237  26.972   1.617  10.392
72638ION    CL-43238  30.053   7.864   3.609
72639ION    CL-43239   3.622  42.586   0.759
72640ION    CL-43240  42.445   3.436  13.875
72641ION    CL-43241  27.975  26.859   4.547
72642ION    CL-43242  30.861  36.053  14.279
72643ION    CL-43243  41.776  21.143  12.086
72644ION    CL-43244  44.638  13.257  10.665
72645ION    CL-43245   1.441  10.259   1.924
72646ION    CL-43246   2.970  20.969  11.256
72647ION    CL-43247  13.773  16.988  13.568
72648ION    CL-43248   8.496  42.046   4.965
72649ION    CL-43249  24.022  16.068   0.228
72650ION    CL-43250  20.800   1.341  13.321
72651ION    CL-43251  29.261  29.057  13.114
72652ION    CL-43252  31.721  11.123  13.671
72653ION    CL-43253  23.669  27.430  12.581
72654ION    CL-43254  35.168  44.954  14.535
72655ION    CL-43255   1.209   4.558   4.001
72656ION    CL-43256  44.100   2.707  12.022
72657ION    CL-43257  27.426  24.747   4.967
72658ION    CL-43258  33.512  27.649  14.710
72659ION    CL-43259  31.141  38.076  13.863
72660ION    CL-43260  23.624  39.458  10.847
72661ION    CL-43261  13.928  13.072   3.132
72662ION    CL-43262  13.660   1.942  11.949
72663ION    CL-43263  37.939  11.332   3.153
72664ION    CL-43264  42.501  37.425  12.290
72665ION    CL-43265  39.919   5.260  14.336
72666ION    CL-43266  39.905   4.023   2.942
72667ION    CL-43267  32.839  19.032   0.868
72668ION    CL-43268  11.682  36.869   0.502
72669ION    CL-43269  16.454  17.093   3.783
72670ION    CL-43270  13.306  30.123   3.369
72671ION    CL-43271   8.468  17.776   0.519
72672ION    CL-43272  38.043  36.400  11.639
72673ION    CL-43273  28.034  17.447   1.025
72674ION    CL-43274  25.697  21.482   5.008
72675ION    CL-43275  28.118  14.508  12.062
72676ION    CL-43276   6.871  33.142   2.130
72677ION    CL-43277  41.333   0.395   3.365
72678ION    CL-43278   0.698   9.590   1.959
72679ION    CL-43279  28.962   8.574   0.289
72680ION    CL-43280  24.267  37.213   0.411
72681ION    CL-43281   9.126  32.578   4.447
72682ION    CL-43282  32.485  36.971   0.756
72683ION    CL-43283  23.267  33.359   1.102
72684ION    CL-43284  42.794  13.022  14.652
72685ION    CL-43285  21.932  10.466   1.497
72686ION    CL-43286  21.714  37.147   1.292
72687ION    CL-43287   3.950  14.197   4.125
72688ION    CL-43288  14.691  29.551   0.834
72689ION    CL-43289  13.339   2.409   0.962
72690ION    CL-43290  30.486  41.505  11.447
72691ION    CL-43291  12.735  44.351  14.788
72692ION    CL-43292  19.827  20.216   2.779
72693ION    CL-43293  36.045  27.360  10.775
72694ION    CL-43294  34.829  24.769  10.704
72695ION    CL-43295   6.746  29.382  13.368
72696ION    CL-43296  20.246  20.319  12.564
72697ION    CL-43297  30.917  22.561  12.513
72698ION    CL-43298  11.290  27.499  12.650
72699ION    CL-43299  32.652  38.084   4.069
72700ION    CL-43300  17.056  11.156   5.187
72701ION    CL-43301  34.552   1.645   2.892
72702ION    CL-43302   7.122  34.050  13.441
72703ION    CL-43303  29.066  13.244   1.043
72704ION    CL-43304  26.777  40.257  10.548
72705ION    CL-43305  30.853   7.636  13.080
72706ION    CL-43306   1.945  44.358   0.859
72707ION    CL-43307  23.486   2.757   0.609
72708ION    CL-43308  29.755  16.978   4.229
72709ION    CL-43309  25.580  40.301  14.343
72710ION    CL-43310   1.453  16.491   2.448
72711ION    CL-43311  21.218  25.594   1.319
72712ION    CL-43312  26.916  44.375   4.247
72713ION    CL-43313   7.532  32.204   1.296
72714ION    CL-43314  12.556   8.867   1.715
72715ION    CL-43315  12.299   1.888  10.615
72716ION    CL-43316  15.060  38.449   2.395
72717ION    CL-43317  10.653  15.768  12.513
72718ION    CL-43318  26.835  40.695  14.207
72719ION    CL-43319  33.858   5.593  14.906
72720ION    CL-43320  25.085  36.306  12.605
72721ION    CL-43321  20.233  40.452  11.458
72722ION    CL-43322  38.127  36.969  12.955
72723ION    CL-43323  12.666  19.418  11.293
72724ION    CL-43324  31.034   8.121  13.973
72725ION    CL-43325   6.790  13.991   0.455
72726ION    CL-43326  10.877  35.465   2.525
72727ION    CL-43327  19.200  21.250  12.022
72728ION    CL-43328  13.148   5.223  12.952
72729ION    CL-43329   9.706  21.612  14.802
72730ION    CL-43330  44.874  29.212  12.388
72731ION    CL-43331   1.879   1.012   2.823
72732ION    CL-43332  42.764  16.698  12.985
72733ION    CL-43333   3.944  26.761   1.199
72734ION    CL-43334  27.276  13.330  13.531
72735ION    CL-43335  42.890  44.195   0.663
72736ION    CL-43336  19.286   4.685   4.191
72737ION    CL-43337  29.728  13.865   0.271
72738ION    CL-43338  40.478   4.506  13.001
72739ION    CL-43339  18.388  24.378  13.149
72740ION    CL-43340  14.019  22.670  11.215
72741ION    CL-43341   3.926  42.256  12.562
72742ION    CL-43342   2.787  22.755   1.571
72743ION    CL-43343  21.823  17.628  14.654
72744ION    CL-43344   4.245  28.271   1.445
72745ION    CL-43345  35.239  18.121  12.978
72746ION    CL-43346   3.386  28.155  11.284
72747ION    CL-43347  25.977  30.216   0.996
72748ION    CL-43348  29.736   7.205   1.537
72749ION    CL-43349  18.311   8.807  13.065
72750ION    CL-43350  44.774  22.052   1.893
72751ION    CL-43351   7.949   9.590  11.075
72752ION    CL-43352  26.383  11.737   1.233
72753ION    CL-43353   4.385  17.897  11.230
72754ION    CL-43354   9.960  17.788   2.788
72755ION    CL-43355  23.858   1.367  14.730
72756ION    CL-43356  36.841   3.705   1.416
72757ION    CL-43357  16.852   1.436   0.366
72758ION    CL-43358  23.090  43.495  13.247
72759ION    CL-43359  44.622   8.869  12.603
72760ION    CL-43360  44.120   2.548   0.134
72761ION    CL-43361  35.088   3.230   1.735
72762ION    CL-43362  18.805  42.441  11.978
72763ION    CL-43363   3.686  30.343   1.989
72764ION    CL-43364  10.801  34.109  11.398
72765ION    CL-43365  36.558   9.072   2.145
72766ION    CL-43366  37.876  16.161  10.665
72767ION    CL-43367  30.376  12.584   3.662
72768ION    CL-43368  23.401   9.874   0.718
72769ION    CL-43369   6.433  10.936  10.631
72770ION    CL-43370  12.527  40.566  13.442
72771ION    CL-43371  43.115  23.979   0.433
72772ION    CL-43372  11.564   3.762   2.743
72773ION    CL-43373   5.129   5.335   0.638
72774ION    CL-43374  26.861   8.790   2.605
72775ION    CL-43375  28.741  31.973   4.057
72776ION    CL-43376   1.243  13.347   1.344
72777ION    CL-43377  41.218  29.671   3.413
72778ION    CL-43378   9.281  12.619  11.879
72779ION    CL-43379  21.193  42.757   0.318
72780ION    CL-43380  39.093  44.180   1.024
72781ION    CL-43381  38.025  33.257   9.931
72782ION    CL-43382  27.865  16.091   0.433
72783ION    CL-43383  24.937  14.127   2.805
72784ION    CL-43384  29.969  38.300   4.160
72785ION    CL-43385   4.469  18.224   3.349
72786ION    CL-43386  28.391   5.862  12.969
72787ION    CL-43387  43.666  36.210   0.535
72788ION    CL-43388  27.180  44.202  13.346
72789ION    CL-43389  22.480   6.056  10.665
72790ION    CL-43390  16.409  36.914   4.106
72791ION    CL-43391   4.786  31.544  13.395
72792ION    CL-43392  22.549  26.613   1.291
72793ION    CL-43393  19.673  11.163  14.358
72794ION    CL-43394  16.212  18.441   3.928
72795ION    CL-43395  18.716  32.188  11.205
72796ION    CL-43396   6.316  44.853   9.927
72797ION    CL-43397  26.690  39.052   2.844
72798ION    CL-43398   4.298  18.660  14.579
72799ION    CL-43399  32.074  38.467   0.360
72800ION    CL-43400  25.480  23.457  13.754
72801ION    CL-43401  42.985   4.416  10.826
72802ION    CL-43402  44.598  12.026   4.865
72803ION    CL-43403   3.586  32.564   2.149
72804ION    CL-43404  40.798  30.107   5.009
72805ION    CL-43405  36.113  18.332  13.416
72806ION    CL-43406  11.756  32.973   2.439
72807ION    CL-43407  31.442  14.696   3.188
72808ION    CL-43408   8.946   2.711   3.766
72809ION    CL-43409   1.815  25.839   4.951
72810ION    CL-43410   6.298   8.298   0.408
72811ION    CL-43411  44.075  22.037  12.618
72812ION    CL-43412  18.049   3.995  14.772
72813ION    CL-43413  11.823  18.001  10.780
72814ION    CL-43414  18.137  35.255   4.128
72815ION    CL-43415  18.622   2.838   2.695
72816ION    CL-43416  43.494   5.339   1.319
72817ION    CL-43417  31.079  24.075   0.435
72818ION    CL-43418  25.569   3.528   4.158
72819ION    CL-43419  27.151  28.367  11.597
72820ION    CL-43420  15.785  27.905  12.352
72821ION    CL-43421  26.913  32.870   3.382
72822ION    CL-43422  38.973   9.201   5.216
72823ION    CL-43423  26.473  35.237   4.996
72824ION    CL-43424  26.920  35.267   0.658
72825ION    CL-43425  11.079  35.704   4.661
72826ION    CL-43426  30.175  40.676  13.193
72827ION    CL-43427   2.676   4.713  14.329
72828ION    CL-43428  20.216  10.582  13.153
72829ION    CL-43429   4.735  35.972   0.947
72830ION    CL-43430  35.902  38.797  13.099
72831ION    CL-43431   0.401   8.556  13.485
72832ION    CL-43432  31.046  20.077  10.715
72833ION    CL-43433   2.794  41.234   0.201
72834ION    CL-43434  15.124   4.882   5.063
72835ION    CL-43435  35.352  40.897  14.792
72836ION    CL-43436  25.101  21.221  14.310
72837ION    CL-43437  44.360  27.284  10.770
72838ION    CL-43438  34.508   7.722  14.760
72839ION    CL-43439  39.582  26.484   9.830
72840ION    CL-43440   1.960  31.692   1.393
72841ION    CL-43441   1.907  39.416   3.223
72842ION    CL-43442  27.742  43.044  11.259
72843ION    CL-43443  23.108  28.104   2.933
72844ION    CL-43444  15.822  23.105   1.281
72845ION    CL-43445   0.539  40.679  13.729
72846ION    CL-43446  22.535  26.469  14.046
72847ION    CL-43447  41.476  35.663  13.853
72848ION    CL-43448  36.631  37.912  10.517
72849ION    CL-43449  39.829  13.458  12.383
72850ION    CL-43450   4.133  13.665   0.387
72851ION    CL-43451  14.379  30.628   1.778
72852ION    CL-43452  41.983  25.901  13.455
72853ION    CL-43453  19.490  34.926  14.225
72854ION    CL-43454  29.277   5.274   0.634
72855ION    CL-43455   9.044  36.408   4.975
72856ION    CL-43456  35.981  24.830  12.650
72857ION    CL-43457  38.964  19.061   0.263
72858ION    CL-43458  22.723  17.716  14.530
72859ION    CL-43459   2.453  29.706   4.106
72860ION    CL-43460   3.580  26.514  12.207
72861ION    CL-43461  31.737  37.685   4.128
72862ION    CL-43462  10.091   9.322  13.871
72863ION    CL-43463  13.336  28.649   0.915
72864ION    CL-43464  10.422  29.838   0.451
72865ION    CL-43465  10.733   8.374   3.352
72866ION    CL-43466  15.461   1.868   0.706
72867ION    CL-43467  37.861  23.496   0.829
72868ION    CL-43468  16.291   6.239  11.108
72869ION    CL-43469  41.879   4.410  12.543
72870ION    CL-43470   3.678  10.186  11.377
72871ION    CL-43471   3.703  33.927  10.596
72872ION    CL-43472  24.943   6.704   3.255
72873ION    CL-43473  23.545   7.093   1.755
72874ION    CL-43474   0.522  39.886   1.924
72875ION    CL-43475   0.958  32.964  14.793
72876ION    CL-43476  40.004  24.317  13.737
72877ION    CL-43477  23.573  15.179   4.409
72878ION    CL-43478  10.076  19.661   4.984
72879ION    CL-43479  27.671  37.264  12.288
72880ION    CL-43480  28.702  18.681  13.431
72881ION    CL-43481  31.091  34.640  12.842
72882ION    CL-43482  26.719  36.643  13.697
72883ION    CL-43483  39.592  15.274  13.415
72884ION    CL-43484  12.577  42.809   3.576
72885ION    CL-43485  27.401  36.314   2.055
72886ION    CL-43486  41.842  38.735  13.571
72887ION    CL-43487   9.889   6.284  11.978
72888ION    CL-43488  43.994   9.339   1.002
72889ION    CL-43489   3.145  30.989   2.527
72890ION    CL-43490  31.073   0.322   3.951
72891ION    CL-43491  27.408  41.999   3.754
72892ION    CL-43492  17.849  31.235   0.673
72893ION    CL-43493  42.144  37.371   3.568
72894ION    CL-43494  13.315  40.644   5.304
72895ION    CL-43495  20.660  36.925   4.524
72896ION    CL-43496  41.980  19.173   1.999
72897ION    CL-43497  35.427  31.930   3.536
72898ION    CL-43498  10.987  28.770   4.984
72899ION    CL-43499  20.992   3.864   4.279
72900ION    CL-43500   7.192  27.963   0.936
72901ION    CL-43501  15.397   9.636   0.949
72902ION    CL-43502  22.933   1.381  14.350
72903ION    CL-43503  26.440   1.815   1.803
72904ION    CL-43504  27.367  13.364   4.462
72905ION    CL-43505  37.844  34.588   2.243
72906ION    CL-43506  20.487  11.245   1.507
72907ION    CL-43507  40.124  43.980  12.190
72908ION    CL-43508  27.246  26.946  13.419
72909ION    CL-43509   2.972  20.825   3.333
72910ION    CL-43510   6.974  15.572   1.959
72911ION    CL-43511  14.756  39.134   3.649
72912ION    CL-43512  10.889  32.118   4.270
72913ION    CL-43513  35.053  44.393  13.431
72914ION    CL-43514   4.052  41.183  11.237
72915ION    CL-43515  40.277  40.517  13.814
72916ION    CL-43516  23.972  34.622  13.000
72917ION    CL-43517  32.929  44.216   0.838
72918ION    CL-43518   1.919   8.100  11.459
72919ION    CL-43519  31.828   6.817  10.339
72920ION    CL-43520   7.804  13.615   2.219
72921ION    CL-43521   9.320  26.427  13.083
72922ION    CL-43522  19.596  13.739  11.121
72923ION    CL-43523  41.505  10.974  14.724
72924ION    CL-43524   8.864   1.980  13.739
72925ION    CL-43525  27.483  23.079  12.371
72926ION    CL-43526  24.005   7.247   4.035
72927ION    CL-43527  30.623  21.313   3.688
72928ION    CL-43528  34.664  42.959   0.540
72929ION    CL-43529  24.226  17.989  14.693
72930ION    CL-43530   7.413  42.845  12.767
72931ION    CL-43531  31.558  23.531   4.173
72932ION    CL-43532  31.708   6.203   1.878
72933ION    CL-43533  30.884  43.787   1.793
72934ION    CL-43534  44.335  42.030  13.795
72935ION    CL-43535   2.667   7.835   1.477
72936ION    CL-43536  32.430  29.613   0.529
72937ION    CL-43537   7.729   1.547   4.078
72938ION    CL-43538   2.865  35.134   0.981
72939ION    CL-43539  32.654   6.076   1.923
72940ION    CL-43540   3.329   3.145   3.354
72941ION    CL-43541  23.317  13.345   2.792
72942ION    CL-43542  36.296  16.009   1.490
72943ION    CL-43543   9.117  32.368  12.100
72944ION    CL-43544   3.776  34.013   4.096
72945ION    CL-43545  21.979  17.999   2.339
72946ION    CL-43546  27.623  18.696  10.931
72947ION    CL-43547  32.341   7.113  11.145
72948ION    CL-43548  33.460  11.182  11.125
72949ION    CL-43549  19.105  25.933   3.466
72950ION    CL-43550  39.366  17.778   0.490
72951ION    CL-43551  32.962   8.653  11.660
72952ION    CL-43552  30.719   4.711   2.166
72953ION    CL-43553  36.582  16.757  11.831
72954ION    CL-43554  12.112  20.183  14.930
72955ION    CL-43555  17.892  14.559  14.277
72956ION    CL-43556  31.134  25.732  13.789
72957ION    CL-43557  19.034   2.750  12.043
72958ION    CL-43558  18.196   7.740  10.690
72959ION    CL-43559  24.028  34.979   2.330
72960ION    CL-43560  33.932   9.898   2.285
72961ION    CL-43561  10.798  33.348  14.952
72962ION    CL-43562  14.778  24.193  10.799
72963ION    CL-43563   4.825  17.033   2.232
72964ION    CL-43564  20.059  31.974   0.047
72965ION    CL-43565  27.507  16.955   4.612
72966ION    CL-43566  36.568  28.158   0.845
72967ION    CL-43567   8.415  27.145   0.580
72968ION    CL-43568  10.997  41.493   3.250
72969ION    CL-43569  10.923   7.060  11.096
72970ION    CL-43570  44.431  17.626  14.651
72971ION    CL-43571  16.811   2.593  13.896
72972ION    CL-43572  43.185  28.371  10.704
72973ION    CL-43573  41.917  33.655  12.689
72974ION    CL-43574  14.332   4.378  12.258
72975ION    CL-43575  43.815  15.817  14.213
72976ION    CL-43576  18.286   1.446   1.798
72977ION    CL-43577  18.737  29.183  14.375
72978ION    CL-43578   2.417  39.048   0.389
72979ION    CL-43579   8.414  19.365   1.899
72980ION    CL-43580  43.715  43.406  14.974
72981ION    CL-43581   2.707  26.764  14.655
72982ION    CL-43582  34.584  37.913  11.887
72983ION    CL-43583   5.768  28.115   0.608
72984ION    CL-43584  11.611   6.034   1.137
72985ION    CL-43585  18.864  32.511   0.889
72986ION    CL-43586  30.134   5.123   0.829
72987ION    CL-43587   7.915   9.121   3.357
72988ION    CL-43588  25.185  41.687   0.857
72989ION    CL-43589  34.377  26.341   9.946
72990ION    CL-43590  20.643  17.507  11.014
72991ION    CL-43591  21.095  41.975   1.700
72992ION    CL-43592   8.460  37.611   0.366
72993ION    CL-43593  32.499   0.802  12.957
72994ION    CL-43594   8.758  23.623   1.949
72995ION    CL-43595  41.767  12.644  11.679
72996ION    CL-43596  17.548  40.743  14.902
72997ION    CL-43597  25.270  21.416  12.692
72998ION    CL-43598  44.344  12.745   1.960
72999ION    CL-43599  17.886   7.132  13.669
73000ION    CL-43600   8.586  35.138  11.403
73001ION    CL-43601  39.020   0.882  14.493
73002ION    CL-43602   3.291  23.645   0.547
73003ION    CL-43603  10.279  39.226  13.323
73004ION    CL-43604  35.404   0.735   1.108
73005ION    CL-43605  22.939  41.321  11.143
73006ION    CL-43606  15.942  19.261  14.830
73007ION    CL-43607  21.197  13.603  14.941
73008ION    CL-43608  19.002  12.622   2.971
73009ION    CL-43609  41.099  43.943   4.307
73010ION    CL-43610  40.483  37.741  10.515
73011ION    CL-43611  42.034  36.068   3.858
73012ION    CL-43612  30.078  22.563  10.808
73013ION    CL-43613  36.921  13.773  12.013
73014ION    CL-43614  40.391   1.997   0.494
73015ION    CL-43615  40.347  17.621   4.834
73016ION    CL-43616  10.676  18.247   0.498
73017ION    CL-43617  27.421  14.348   0.258
73018ION    CL-43618  32.999  16.508  13.769
73019ION    CL-43619   2.565  41.642  12.908
73020ION    CL-43620   1.232  15.011  13.484
73021ION    CL-43621  34.894  31.455  11.656
73022ION    CL-43622  25.923  15.291  11.640
73023ION    CL-43623  39.261  22.265   4.232
73024ION    CL-43624  17.809   3.262   5.061
73025ION    CL-43625  33.587   7.824  12.553
73026ION    CL-43626  34.170  42.907  14.636
73027ION    CL-43627  32.031  35.850   1.335
73028ION    CL-43628  16.024  25.692   2.778
73029ION    CL-43629  30.474  25.808  14.536
73030ION    CL-43630  38.633  22.005  14.756
73031ION    CL-43631  24.303   1.592   0.597
73032ION    CL-43632  23.303  15.685   2.391
73033ION    CL-43633   1.385  11.229   3.342
73034ION    CL-43634  27.492   5.253  12.912
73035ION    CL-43635  34.367  14.983   3.554
73036ION    CL-43636  15.727  31.422   2.818
73037ION    CL-43637  13.694  11.602  12.382
73038ION    CL-43638  32.960  21.047   1.247
73039ION    CL-43639  18.491   1.019   3.380
73040ION    CL-43640  21.115  33.545  14.028
73041ION    CL-43641   8.611  18.907   0.927
73042ION    CL-43642  14.361   5.766   4.350
73043ION    CL-43643  22.704   1.524   2.905
73044ION    CL-43644  21.171  22.397  11.089
73045ION    CL-43645  16.005   2.331   2.435
73046ION    CL-43646  43.462   7.921  12.774
73047ION    CL-43647  19.002  36.926   2.258
73048ION    CL-43648  18.352  19.317  13.503
73049ION    CL-43649  33.684  13.527   3.700
73050ION    CL-43650  14.265  10.836   4.213
73051ION    CL-43651  25.886   3.980   1.989
73052ION    CL-43652  27.646  23.762   2.849
73053ION    CL-43653  20.175  44.759   9.734
73054ION    CL-43654  37.473  36.817   1.284
73055ION    CL-43655  17.823  28.307  13.195
73056ION    CL-43656  16.686  29.939  11.783
73057ION    CL-43657  36.983  24.762  10.529
73058ION    CL-43658  42.059  24.231  12.965
73059ION    CL-43659  10.760  41.891  12.249
73060ION    CL-43660   3.934  13.844   2.352
73061ION    CL-43661  29.433  34.864   2.856
73062ION    CL-43662  12.460  36.643   1.977
73063ION    CL-43663  22.361  28.784  10.555
73064ION    CL-43664   4.235  14.299  11.411
73065ION    CL-43665  42.185  39.614   4.089
73066ION    CL-43666  11.061  12.159  12.992
73067ION    CL-43667  20.423   6.709  11.315
73068ION    CL-43668  37.703  17.796   2.525
73069ION    CL-43669   8.506  44.056   3.621
73070ION    CL-43670  17.824  39.807  11.442
73071ION    CL-43671  12.271   9.853   0.998
73072ION    CL-43672  28.305  13.639  14.484
73073ION    CL-43673  15.872  42.507   0.405
73074ION    CL-43674   8.831  17.797   4.088
73075ION    CL-43675   2.685  43.470  14.476
73076ION    CL-43676  36.284   6.146  14.939
73077ION    CL-43677  28.016  40.899  10.150
73078ION    CL-43678  29.160  37.509   3.567
73079ION    CL-43679  33.930  38.397   0.834
73080ION    CL-43680   4.448  21.776  12.445
73081ION    CL-43681   4.185  33.638  12.895
73082ION    CL-43682   7.247  39.922   1.992
73083ION    CL-43683  30.750  37.547   1.134
73084ION    CL-43684  33.878  28.699   3.264
73085ION    CL-43685  11.083  26.993  14.562
73086ION    CL-43686  37.240   3.428   0.645
73087ION    CL-43687   7.829  10.376   1.758
73088ION    CL-43688   9.799  27.154  11.423
73089ION    CL-43689  30.146  32.180  10.353
73090ION    CL-43690  43.939  31.901  14.267
73091ION    CL-43691  24.586   0.334  13.354
73092ION    CL-43692  23.767   1.984  13.948
73093ION    CL-43693   3.652   4.763  14.683
73094ION    CL-43694  27.455  39.398  13.805
73095ION    CL-43695  35.646  23.000   2.639
73096ION    CL-43696   7.355  23.949   2.611
73097ION    CL-43697  28.207   7.197  11.094
73098ION    CL-43698   5.928  14.865   1.022
73099ION    CL-43699  20.855  40.813  13.913
73100ION    CL-43700  26.670  44.294  12.475
73101ION    CL-43701  23.438  36.828   0.350
73102ION    CL-43702   3.531  24.566   5.123
73103ION    CL-43703  28.162  24.553   4.486
73104ION    CL-43704  20.501  30.043   5.129
73105ION    CL-43705  30.981  27.872  12.512
73106ION    CL-43706  21.588  36.255   0.297
73107ION    CL-43707  25.180  22.994   3.123
73108ION    CL-43708  14.507   3.980  14.795
73109ION    CL-43709  40.859   6.835  10.387
73110ION    CL-43710  20.905  27.812  10.154
73111ION    CL-43711  36.536  38.916   3.186
73112ION    CL-43712   3.121  23.542   1.435
73113ION    CL-43713  12.663  21.315   2.618
73114ION    CL-43714   9.286  41.317   0.699
73115ION    CL-43715  44.060  35.123   2.516
73116ION    CL-43716  44.822  33.017  10.556
73117ION    CL-43717   9.907   8.524   0.843
73118ION    CL-43718   2.942   9.003  13.322
73119ION    CL-43719  25.424  13.236  13.506
73120ION    CL-43720  10.689  38.414   1.591
73121ION    CL-43721  21.525  15.633   3.838
73122ION    CL-43722  16.158   1.894  12.938
73123ION    CL-43723  25.656  41.387  13.494
73124ION    CL-43724  20.604  22.189   3.256
73125ION    CL-43725   3.689  42.448  14.045
73126ION    CL-43726  30.564  19.291   0.671
73127ION    CL-43727  12.534   3.599   0.440
73128ION    CL-43728  23.494   5.481   0.676
73129ION    CL-43729  31.429  11.139  14.627
73130ION    CL-43730  34.267  18.329  14.347
73131ION    CL-43731  25.528  10.413  13.288
73132ION    CL-43732  37.997  37.145  10.937
73133ION    CL-43733  42.748  35.014  13.346
73134ION    CL-43734  44.060  35.424  12.794
73135ION    CL-43735  11.288  13.804   0.348
73136ION    CL-43736  10.900  31.848  13.274
73137ION    CL-43737  33.965  13.903   0.498
73138ION    CL-43738  21.391   1.549   1.025
73139ION    CL-43739   0.457  20.390   1.720
73140ION    CL-43740   2.988  28.431   1.450
73141ION    CL-43741   7.232  27.973  10.941
73142ION    CL-43742  40.757  38.087  13.051
73143ION    CL-43743  36.747  29.570   9.817
73144ION    CL-43744  36.378  41.448  11.604
73145ION    CL-43745  43.092  20.543  11.107
73146ION    CL-43746   8.309  11.367   1.246
73147ION    CL-43747  11.677   4.659   4.369
73148ION    CL-43748  18.444  15.635   0.938
73149ION    CL-43749  21.803  21.993   5.035
73150ION    CL-43750  24.174  18.404   2.401
73151ION    CL-43751  26.894  24.528   0.504
73152ION    CL-43752  16.564  26.950   0.500
73153ION    CL-43753   2.048   0.382  11.212
73154ION    CL-43754   5.501  37.135  14.448
73155ION    CL-43755  31.064   6.903  12.433
73156ION    CL-43756   6.879  28.181  11.853
73157ION    CL-43757  40.094  28.783  12.597
73158ION    CL-43758  41.413  37.883  12.325
73159ION    CL-43759  14.494  31.318  12.631
73160ION    CL-43760  13.070  36.359  14.368
73161ION    CL-43761   4.709  26.099   0.022
73162ION    CL-43762  13.666  27.464  10.306
73163ION    CL-43763  12.620  39.124   3.211
73164ION    CL-43764   3.538  25.084   1.403
73165ION    CL-43765  44.783  27.631  13.579
73166ION    CL-43766  36.521  29.959  13.485
73167ION    CL-43767  42.722  41.382  14.045
73168ION    CL-43768  18.725   1.027   9.850
73169ION    CL-43769   1.912   8.555   5.087
73170ION    CL-43770  17.205   2.980   1.162
73171ION    CL-43771   9.595  25.818  12.340
73172ION    CL-43772   7.810   3.208   1.481
73173ION    CL-43773  27.473  29.373   2.274
73174ION    CL-43774  32.399   9.830  10.394
73175ION    CL-43775  17.640  30.245  14.623
73176ION    CL-43776  18.131  18.793   4.088
73177ION    CL-43777  40.010   2.614  11.675
73178ION    CL-43778  42.012  35.566  14.811
73179ION    CL-43779   8.295   3.053   4.875
73180ION    CL-43780   5.140  28.310   3.081
73181ION    CL-43781  35.242   0.337  11.262
73182ION    CL-43782  29.205  27.607  12.464
73183ION    CL-43783  19.249   8.884   0.956
73184ION    CL-43784   9.520  10.065  11.921
73185ION    CL-43785   0.415  24.600   0.751
73186ION    CL-43786   9.895  41.722  12.337
73187ION    CL-43787  40.305  21.675   1.675
73188ION    CL-43788  25.963  14.964   1.149
73189ION    CL-43789  17.752  14.826  11.481
73190ION    CL-43790  14.752  16.868  14.990
73191ION    CL-43791  12.167   7.059  12.855
73192ION    CL-43792  22.722  18.675   2.787
73193ION    CL-43793   6.139  36.433   0.392
73194ION    CL-43794  31.996  43.713   0.899
73195ION    CL-43795  17.117  41.011   5.050
73196ION    CL-43796  35.339  34.176  11.156
73197ION    CL-43797  26.360  14.646   1.931
73198ION    CL-43798  25.426  10.645  11.270
73199ION    CL-43799   4.022  36.116   1.634
73200ION    CL-43800  12.320  44.498  12.579
73201ION    CL-43801   3.636  44.084   4.062
73202ION    CL-43802  19.466   3.743  13.985
73203ION    CL-43803  32.657   1.224   3.003
73204ION    CL-43804  28.468  22.982   0.981
73205ION    CL-43805  32.202  10.067   0.352
73206ION    CL-43806  12.684  25.007   2.686
73207ION    CL-43807  36.044  29.554   1.222
73208ION    CL-43808  29.922   6.456   0.564
73209ION    CL-43809  23.055  23.602  13.649
73210ION    CL-43810  13.395  17.730   0.238
73211ION    CL-43811  22.741  21.539  11.611
73212ION    CL-43812  25.688  38.979  14.071
73213ION    CL-43813  32.329   0.347   1.010
73214ION    CL-43814  37.083  25.921  13.935
73215ION    CL-43815  14.788  23.314  11.276
73216ION    CL-43816  37.194   7.040  13.473
73217ION    CL-43817   6.197  34.516   3.530
73218ION    CL-43818  10.870  31.851   1.246
73219ION    CL-43819  22.991  42.614  13.382
73220ION    CL-43820  32.920  23.629   0.503
73221ION    CL-43821  27.744  15.470   4.774
73222ION    CL-43822   8.539  24.101  14.190
73223ION    CL-43823   8.148  23.555   3.728
73224ION    CL-43824   1.496  33.878   3.583
73225ION    CL-43825  23.208   3.901   2.229
73226ION    CL-43826  22.062  17.669   4.878
73227ION    CL-43827  44.192  20.203  12.149
73228ION    CL-43828  37.575   6.394  14.383
73229ION    CL-43829  25.818  32.010  12.485
73230ION    CL-43830  14.158  43.725  12.386
73231ION    CL-43831  22.398   9.587   1.400
73232ION    CL-43832  25.231   9.046   3.653
73233ION    CL-43833  14.173  17.797  10.544
73234ION    CL-43834  30.057  18.525  12.247
73235ION    CL-43835  21.144   7.471   2.429
73236ION    CL-43836  38.228   4.557   2.311
73237ION    CL-43837  17.478   7.126   2.813
73238ION    CL-43838  20.326  13.194  12.127
73239ION    CL-43839   2.525   5.949  12.549
73240ION    CL-43840   4.344  39.322   0.248
73241ION    CL-43841  30.859   0.393   5.123
73242ION    CL-43842  36.311  12.601  11.404
73243ION    CL-43843   1.557  36.728  14.083
73244ION    CL-43844  24.669   3.212   3.047
73245ION    CL-43845  34.498  37.312   2.810
73246ION    CL-43846  30.400  29.554  11.466
73247ION    CL-43847  43.539  20.530   4.944
73248ION    CL-43848  22.943  27.568  14.804
73249ION    CL-43849   2.839   0.538  10.594
73250ION    CL-43850  17.199  32.748   2.215
73251ION    CL-43851  20.309  14.736  11.825
73252ION    CL-43852  20.376  32.037  14.221
73253ION    CL-43853  37.836   6.278   1.620
73254ION    CL-43854  13.618  14.976  10.694
73255ION    CL-43855  25.472  19.891   2.640
73256ION    CL-43856  34.421  34.615   3.288
73257ION    CL-43857   4.732   0.423   1.959
73258ION    CL-43858  21.801  18.499  12.963
73259ION    CL-43859  11.680   6.250   4.923
73260ION    CL-43860  41.673  32.260   4.031
73261ION    CL-43861  41.444  27.785  13.975
73262ION    CL-43862  30.754  13.485   3.878
73263ION    CL-43863  21.030  12.179  10.855
73264ION    CL-43864  22.684  12.367  14.751
73265ION    CL-43865   9.572  15.140  14.291
73266ION    CL-43866  20.073   5.239  14.337
73267ION    CL-43867   9.314  43.875   4.182
73268ION    CL-43868  12.905  10.217   0.317
73269ION    CL-43869  24.447  30.916   1.268
73270ION    CL-43870  12.248  38.196  14.004
73271ION    CL-43871  21.695   6.299  13.264
73272ION    CL-43872  41.794   1.261   1.950
73273ION    CL-43873  14.631   6.894  14.574
73274ION    CL-43874  16.237  19.156   4.497
73275ION    CL-43875  16.666   9.609   1.522
73276ION    CL-43876  33.425   0.326   4.349
73277ION    CL-43877  29.639  12.968  11.069
73278ION    CL-43878  34.915  30.523   9.897
73279ION    CL-43879  21.588  30.456   1.219
73280ION    CL-43880   7.361  40.011  14.772
73281ION    CL-43881   3.874   1.765   2.458
73282ION    CL-43882  16.250   3.277   4.712
73283ION    CL-43883  22.483  34.007   1.606
73284ION    CL-43884  20.350   6.173   1.350
73285ION    CL-43885  35.659  35.560  11.822
73286ION    CL-43886  44.748  33.543   4.020
73287ION    CL-43887  33.144  41.671   4.824
73288ION    CL-43888   1.667  17.702  11.588
73289ION    CL-43889  26.627   3.223  12.498
73290ION    CL-43890  38.481  39.165  12.677
73291ION    CL-43891  36.122  22.611  10.855
73292ION    CL-43892  42.879   7.261   0.805
73293ION    CL-43893  31.259  16.991  12.644
73294ION    CL-43894  34.333  36.142   2.230
73295ION    CL-43895  43.706  26.551   3.735
73296ION    CL-43896  22.339   0.637   1.408
73297ION    CL-43897  40.258   6.166  12.364
73298ION    CL-43898  22.994  27.021   3.959
73299ION    CL-43899   8.196  12.734   0.207
73300ION    CL-43900  12.473   9.213  12.322
73301ION    CL-43901  16.167  29.507   0.887
73302ION    CL-43902  17.960  15.787  10.800
73303ION    CL-43903   1.974  34.572  11.586
73304ION    CL-43904  28.471  13.877  13.284
73305ION    CL-43905  41.254  39.179  14.732
73306ION    CL-43906  38.959   0.444  12.220
73307ION    CL-43907   4.239  29.581  13.635
73308ION    CL-43908  26.092  14.216   4.432
73309ION    CL-43909  11.802  42.514   0.901
73310ION    CL-43910   6.409  35.860   3.299
73311ION    CL-43911  43.983  21.256   4.606
73312ION    CL-43912   5.000  34.253  11.613
73313ION    CL-43913  42.821  31.363  14.949
73314ION    CL-43914  13.422  37.326  14.355
73315ION    CL-43915  32.551  20.750  11.569
73316ION    CL-43916  22.419   6.244   3.941
73317ION    CL-43917  38.644   1.053   0.243
73318ION    CL-43918  18.946   7.325   1.936
73319ION    CL-43919   8.059   3.460  10.693
73320ION    CL-43920  31.310  24.793  12.640
73321ION    CL-43921  24.552  15.854  14.327
73322ION    CL-43922  11.554  13.006  12.698
73323ION    CL-43923  26.062  32.381   3.741
73324ION    CL-43924   1.644  16.119  14.777
73325ION    CL-43925  39.720  29.532   1.004
73326ION    CL-43926  37.257  43.552  14.335
73327ION    CL-43927  31.449  38.429  11.708
73328ION    CL-43928   7.645   1.775  13.059
73329ION    CL-43929  12.456   4.170  13.294
73330ION    CL-43930   9.684  27.916  14.401
73331ION    CL-43931   8.845  26.877   2.813
73332ION    CL-43932  15.666   8.903   2.847
73333ION    CL-43933  30.923  17.443   3.590
73334ION    CL-43934   4.664  24.683  11.720
73335ION    CL-43935  34.930   7.654   2.409
73336ION    CL-43936  21.768  29.735   1.765
73337ION    CL-43937  14.344  16.645   2.165
73338ION    CL-43938  18.156  11.409   2.140
73339ION    CL-43939  16.187  40.563   2.882
73340ION    CL-43940   3.994   3.146  13.822
73341ION    CL-43941  32.034  33.968  14.581
73342ION    CL-43942  17.230   5.720  10.701
73343ION    CL-43943  13.150  24.262   0.900
73344ION    CL-43944  27.020  24.215   2.160
73345ION    CL-43945  18.722  22.064  10.627
73346ION    CL-43946  32.383  15.213  13.496
73347ION    CL-43947  35.088   2.605   2.395
73348ION    CL-43948  17.575   0.412   1.375
73349ION    CL-43949  21.797  24.840   2.691
73350ION    CL-43950  28.399   5.598   0.127
73351ION    CL-43951  43.908  42.793   4.150
73352ION    CL-43952   6.066  19.434  13.929
73353ION    CL-43953   4.084  10.052  11.852
73354ION    CL-43954  33.906   4.393  14.987
73355ION    CL-43955  41.765   4.380  13.536
73356ION    CL-43956  39.170  30.812  10.026
73357ION    CL-43957  11.938  41.830  13.066
73358ION    CL-43958  17.339  21.026  10.488
73359ION    CL-43959  43.707  25.646  12.942
73360ION    CL-43960   6.543   6.588  11.528
73361ION    CL-43961  30.117   2.609   2.273
73362ION    CL-43962   5.461  13.226  10.749
73363ION    CL-43963  26.596  13.137   2.635
73364ION    CL-43964  40.460  26.689  10.757
73365ION    CL-43965  23.378   4.586   0.247
73366ION    CL-43966  41.984   9.806   1.182
73367ION    CL-43967  38.352   0.217  14.779
73368ION    CL-43968  11.799  37.607  12.148
73369ION    CL-43969   5.888  16.709  10.418
73370ION    CL-43970  17.018  14.147  14.631
73371ION    CL-43971  13.742  24.625  10.560
73372ION    CL-43972   0.995  12.155  11.315
73373ION    CL-43973  41.231  12.039   1.145
73374ION    CL-43974  40.934  38.430  11.289
73375ION    CL-43975   9.803  29.791   4.292
73376ION    CL-43976  33.638   5.918  12.214
73377ION    CL-43977  40.323  14.706   5.102
73378ION    CL-43978   0.951  43.579  10.697
73379ION    CL-43979  30.426  29.176  14.785
73380ION    CL-43980   0.075  32.570   2.343
73381ION    CL-43981  13.426  12.510   2.609
73382ION    CL-43982   1.846  34.654   3.264
73383ION    CL-43983  14.653  44.589  14.341
73384ION    CL-43984   3.215  32.904  12.442
73385ION    CL-43985  30.655  40.624  13.970
73386ION    CL-43986  14.419  16.722   4.253
73387ION    CL-43987  21.605  24.059  14.301
73388ION    CL-43988  21.496   4.434  11.299
73389ION    CL-43989  20.764  11.850  13.759
73390ION    CL-43990   2.884  13.825  10.761
73391ION    CL-43991  19.834  27.962  11.880
73392ION    CL-43992  16.593  20.612   3.115
73393ION    CL-43993  20.280  13.417  13.101
73394ION    CL-43994   4.659   9.061  14.224
73395ION    CL-43995  31.875  27.894   3.561
73396ION    CL-43996  34.785   7.693  10.550
73397ION    CL-43997  20.766  12.543  13.180
73398ION    CL-43998  21.140  17.497   3.578
73399ION    CL-43999  19.600  39.800  14.986
73400ION    CL-44000  31.450  10.444  12.982
73401ION    CL-44001  22.703  15.282   4.889
73402ION    CL-44002   6.070  18.234  11.015
73403ION    CL-44003  33.930  17.595  11.901
73404ION    CL-44004  12.580  10.233   2.715
73405ION    CL-44005  22.415  15.902   2.336
73406ION    CL-44006  20.551  14.363  14.859
73407ION    CL-44007  12.661  42.002  14.278
73408ION    CL-44008  22.743  15.173  12.014
73409ION    CL-44009  13.708  29.361  12.050
73410ION    CL-44010  10.727  30.029   3.302
73411ION    CL-44011  26.064  44.631  11.755
73412ION    CL-44012  24.479  22.497  12.109
73413ION    CL-44013  22.617  25.627   0.324
73414ION    CL-44014  36.489  27.054  13.352
73415ION    CL-44015  43.332  35.529  13.974
73416ION    CL-44016   7.218  40.786   1.490
73417ION    CL-44017  26.589   8.767  11.367
73418ION    CL-44018  42.779  18.042  12.376
73419ION    CL-44019  33.492  39.838  11.759
73420ION    CL-44020  44.856   9.548   2.738
73421ION    CL-44021  36.746   1.541   4.910
73422ION    CL-44022  17.353  14.129  11.780
73423ION    CL-44023  42.767  31.607   1.720
73424ION    CL-44024  13.197  31.029  12.027
73425ION    CL-44025  27.944  17.993  13.332
73426ION    CL-44026  21.931  32.312   2.834
73427ION    CL-44027  42.575   2.346   2.203
73428ION    CL-44028   2.710  26.434  12.068
73429ION    CL-44029   6.360  13.623   2.625
73430ION    CL-44030  13.567  44.631  14.310
73431ION    CL-44031   3.433   2.248   1.668
73432ION    CL-44032  43.285  28.847   0.772
73433ION    CL-44033   0.813  13.164   3.273
73434ION    CL-44034  39.918   0.533   2.597
73435ION    CL-44035   7.692  36.787  12.399
73436ION    CL-44036  44.956   9.837  13.966
73437ION    CL-44037   9.052  33.530  14.474
73438ION    CL-44038  29.770  37.917   9.713
73439ION    CL-44039  29.648  10.037   4.118
73440ION    CL-44040  10.971  38.170   0.636
73441ION    CL-44041  13.904   4.416  11.354
73442ION    CL-44042  36.069  11.096  11.406
73443ION    CL-44043  12.790  16.327   0.333
73444ION    CL-44044  14.275  19.070  11.876
73445ION    CL-44045  35.957  10.231  12.409
73446ION    CL-44046  34.893  17.828   0.599
73447ION    CL-44047  20.323  10.030   4.888
73448ION    CL-44048  14.726   8.390  10.463
73449ION    CL-44049   9.641  36.040  11.870
73450ION    CL-44050  44.331  34.175  13.346
73451ION    CL-44051  34.014  18.277   0.756
73452ION    CL-44052  36.043  33.657  14.740
73453ION    CL-44053  12.086  22.664  12.766
73454ION    CL-44054  33.356  24.323   3.575
73455ION    CL-44055  26.593   5.326   2.450
73456ION    CL-44056  25.506  14.218   3.622
73457ION    CL-44057  33.145  13.124   2.174
73458ION    CL-44058  37.130  20.071   2.791
73459ION    CL-44059  35.233  40.984   2.603
73460ION    CL-44060  31.788   5.305   3.045
73461ION    CL-44061  25.315  14.519   4.502
73462ION    CL-44062   8.648  10.562  12.156
73463ION    CL-44063  44.354  32.422  13.522
73464ION    CL-44064  20.545  22.278  12.357
73465ION    CL-44065  17.069  13.522  13.852
73466ION    CL-44066  24.712  30.955  14.897
73467ION    CL-44067  32.652   1.937   2.302
73468ION    CL-44068  35.224   9.852   4.760
73469ION    CL-44069  13.660  30.209  11.522
73470ION    CL-44070  33.426  26.387   9.991
73471ION    CL-44071  39.498  34.170   1.652
73472ION    CL-44072  39.294  39.871   0.287
73473ION    CL-44073   5.924  10.842  11.524
73474ION    CL-44074  43.217   7.610  13.692
73475ION    CL-44075  17.626   8.046  14.023
73476ION    CL-44076  22.285  39.314  12.028
73477ION    CL-44077   7.159  20.538  14.007
73478ION    CL-44078  20.956  16.321  13.977
73479ION    CL-44079  35.661  11.656  13.968
73480ION    CL-44080   7.678  44.294   9.920
73481ION    CL-44081  44.583  41.481   3.697
73482ION    CL-44082  19.950   7.407  11.099
73483ION    CL-44083   1.525  40.287   0.232
73484ION    CL-44084  39.873   8.618   3.665
73485ION    CL-44085   1.843  38.199   1.615
73486ION    CL-44086  27.425  35.383   2.421
73487ION    CL-44087  16.751  43.427  11.213
73488ION    CL-44088   8.954  41.308   1.642
73489ION    CL-44089  14.470  38.376   4.235
73490ION    CL-44090   2.544  41.500  10.891
73491ION    CL-44091  22.128  17.917   1.256
73492ION    CL-44092  28.062  15.908   1.275
73493ION    CL-44093  20.770  41.960  10.743
73494ION    CL-44094  34.059  35.270   4.789
73495ION    CL-44095  32.841  35.490   1.441
73496ION    CL-44096  30.324  36.702   1.457
73497ION    CL-44097   6.797  22.150  10.650
73498ION    CL-44098  35.989  15.421   0.421
73499ION    CL-44099  39.083   9.772   1.475
73500ION    CL-44100  16.646  27.619   1.258
73501ION    CL-44101  14.270  35.423  13.779
73502ION    CL-44102   8.476  41.132   4.659
73503ION    CL-44103  38.541  28.557  10.894
73504ION    CL-44104  27.488  17.081   3.335
73505ION    CL-44105  10.135  26.361   3.292
73506ION    CL-44106  33.870  30.960  11.019
73507ION    CL-44107   8.692   0.064  14.581
73508ION    CL-44108  37.518  19.475   0.491
73509ION    CL-44109  15.527  24.283   0.398
73510ION    CL-44110   5.176  14.281  13.353
73511ION    CL-44111   1.225   9.707   1.118
73512ION    CL-44112  15.844  35.129   3.321
73513ION    CL-44113  17.201  29.714  10.455
73514ION    CL-44114  16.530  32.639   5.007
73515ION    CL-44115  21.410  10.957   2.058
73516ION    CL-44116  21.044  39.373  14.872
73517ION    CL-44117  19.687  30.508  12.365
73518ION    CL-44118  38.028  30.492  13.952
73519ION    CL-44119  22.177  20.066   3.315
73520ION    CL-44120   5.410  24.255   2.815
73521ION    CL-44121  39.645  30.747   3.567
73522ION    CL-44122  12.067  10.876   2.145
73523ION    CL-44123   2.946  30.392  14.423
73524ION    CL-44124  33.753   8.247   3.565
73525ION    CL-44125  22.417   6.327   2.461
73526ION    CL-44126  23.381   0.020   3.356
73527ION    CL-44127   9.530  34.037   3.752
73528ION    CL-44128   6.102  36.042   4.850
73529ION    CL-44129  34.063  44.365  13.289
73530ION    CL-44130   1.634  20.962   3.612
73531ION    CL-44131  15.466  28.370  14.453
73532ION    CL-44132  12.691  34.602  10.890
73533ION    CL-44133  10.880  29.107   2.615
73534ION    CL-44134   9.591  25.708   1.443
73535ION    CL-44135  23.024  24.738  11.127
73536ION    CL-44136  10.034  19.845  10.441
73537ION    CL-44137  32.625  13.433   3.764
73538ION    CL-44138  31.661  13.860   3.691
73539ION    CL-44139  31.690  14.617   1.682
73540ION    CL-44140  39.661   0.251   3.521
73541ION    CL-44141   6.652  29.269   1.966
73542ION    CL-44142  32.961  43.385  12.527
73543ION    CL-44143   7.697  24.199  11.653
73544ION    CL-44144  30.960  30.519   3.577
73545ION    CL-44145  30.840  14.069   2.616
73546ION    CL-44146  32.110  11.823  14.369
73547ION    CL-44147  26.053  37.717  12.426
73548ION    CL-44148   6.041   3.015   3.629
73549ION    CL-44149  23.151  27.118  13.935
73550ION    CL-44150  18.146  37.362  11.502
73551ION    CL-44151  16.032  21.212  12.157
73552ION    CL-44152  23.056  14.275  11.082
73553ION    CL-44153  37.235  37.023  11.726
73554ION    CL-44154   2.712  36.571  11.646
73555ION    CL-44155  30.995  43.265  11.005
73556ION    CL-44156  40.438  30.223   0.924
73557ION    CL-44157  41.096  41.208  13.336
73558ION    CL-44158  37.202  28.448  14.435
73559ION    CL-44159  26.542  41.114  11.007
73560ION    CL-44160  15.734   6.515   1.783
73561ION    CL-44161  17.035   2.067  11.588
73562ION    CL-44162  11.624  13.078  13.604
73563ION    CL-44163  41.078  18.077   3.359
73564ION    CL-44164   9.700  22.060  13.849
73565ION    CL-44165  21.929  14.291   5.180
73566ION    CL-44166  22.478  36.895  11.101
73567ION    CL-44167  34.870  16.386   2.838
73568ION    CL-44168  39.870  18.128  13.599
73569ION    CL-44169  11.573   6.954   1.013
73570ION    CL-44170  31.441  12.857  10.401
73571ION    CL-44171   0.443  25.112  14.438
73572ION    CL-44172   2.035  14.874  12.166
73573ION    CL-44173  19.016  28.930   9.691
73574ION    CL-44174   4.584  38.193   4.726
73575ION    CL-44175  40.707  42.308   3.589
73576ION    CL-44176  37.416  23.449   2.094
73577ION    CL-44177  28.161  38.019  11.040
73578ION    CL-44178  10.328  15.872   0.148
73579ION    CL-44179  37.868  11.189  14.194
73580ION    CL-44180  19.908  18.142   2.153
73581ION    CL-44181  15.171  31.750  12.035
73582ION    CL-44182  24.020  36.271   0.503
73583ION    CL-44183  19.163  31.752  13.031
73584ION    CL-44184  12.717  36.770  11.635
73585ION    CL-44185  37.568   6.484   0.504
73586ION    CL-44186   7.922  37.383   4.142
73587ION    CL-44187  11.563  43.844   4.618
73588ION    CL-44188  36.675  39.928   4.102
73589ION    CL-44189  38.932  35.409  13.183
73590ION    CL-44190  16.361  19.242   1.273
73591ION    CL-44191  26.262  37.586   1.763
73592ION    CL-44192  40.976   0.337   0.283
73593ION    CL-44193  17.426  19.105  14.158
73594ION    CL-44194   6.855  11.636  11.935
73595ION    CL-44195  41.138   1.423   4.790
73596ION    CL-44196  21.792   0.206  12.068
73597ION    CL-44197  34.898  15.590  12.431
73598ION    CL-44198   9.063  15.775  11.171
73599ION    CL-44199  18.477  42.899  10.020
73600ION    CL-44200   8.946   0.033   3.626
73601ION    CL-44201  43.549  21.205  14.367
73602ION    CL-44202  15.656  40.183   3.486
73603ION    CL-44203  10.052   4.751   3.707
73604ION    CL-44204  19.447  11.713  11.195
73605ION    CL-44205  33.324   2.334  10.756
73606ION    CL-44206  26.949  38.339   1.968
73607ION    CL-44207   8.428  31.904   3.635
73608ION    CL-44208  22.515  19.420  12.051
73609ION    CL-44209  21.844   4.496  13.003
73610ION    CL-44210  19.704   8.696   2.071
73611ION    CL-44211  33.456  18.904  10.770
73612ION    CL-44212   3.942  10.120  14.759
73613ION    CL-44213  23.019  42.347   3.563
73614ION    CL-44214  34.458  44.295  14.229
73615ION    CL-44215   7.806  19.643   4.196
73616ION    CL-44216  17.725  10.695   4.594
73617ION    CL-44217  10.369   4.291  14.436
73618ION    CL-44218  40.176   2.441   2.777
73619ION    CL-44219  41.846  44.845   0.306
73620ION    CL-44220  23.682  29.623  12.521
73621ION    CL-44221  30.937  43.067  12.955
73622ION    CL-44222  40.127  30.373   2.392
73623ION    CL-44223  24.034  18.537   0.581
73624ION    CL-44224   1.273  21.194   1.096
73625ION    CL-44225  14.072  27.378   3.952
73626ION    CL-44226   7.104   8.694   3.808
73627ION    CL-44227  42.563  17.702  11.127
73628ION    CL-44228  27.672  15.301  10.373
73629ION    CL-44229  39.254  15.197   2.123
73630ION    CL-44230  43.516  43.465  12.604
73631ION    CL-44231  18.241  10.621   1.805
73632ION    CL-44232  38.654   5.979   4.615
73633ION    CL-44233  10.330  22.355   5.125
73634ION    CL-44234   6.652  17.742  10.561
73635ION    CL-44235  37.001  38.478  12.980
73636ION    CL-44236   8.238  13.758   3.283
73637ION    CL-44237  39.250  12.855   3.589
73638ION    CL-44238  18.631   4.506  12.359
73639ION    CL-44239   6.704  31.169  10.881
73640ION    CL-44240  32.918  42.064  13.100
73641ION    CL-44241  28.060  32.841  13.799
73642ION    CL-44242  13.296  40.403  14.071
73643ION    CL-44243  32.604  21.469  14.591
73644ION    CL-44244   4.364  27.070  11.768
73645ION    CL-44245  18.584  25.301  13.927
73646ION    CL-44246   2.232  19.069  12.484
73647ION    CL-44247  19.663  23.024  13.146
73648ION    CL-44248  19.822   1.295   1.658
73649ION    CL-44249   9.570  11.619   2.793
73650ION    CL-44250  30.958   5.903  12.288
73651ION    CL-44251  19.339   8.213  14.974
73652ION    CL-44252  43.640  37.567  13.647
73653ION    CL-44253  22.020   1.658   1.502
73654ION    CL-44254  24.695  33.020   3.072
73655ION    CL-44255  22.322  15.035   1.468
73656ION    CL-44256  23.404  26.107   1.432
73657ION    CL-44257  41.042  28.664  12.891
73658ION    CL-44258   7.588  10.702  14.459
73659ION    CL-44259  44.388  40.379  12.228
73660ION    CL-44260  23.638  25.229   3.591
73661ION    CL-44261  28.885  20.782   9.953
73662ION    CL-44262  18.752  31.598  14.284
73663ION    CL-44263  13.057  28.963  13.391
73664ION    CL-44264   6.813  24.161  10.745
73665ION    CL-44265   3.730  33.284   1.480
73666ION    CL-44266  33.568   8.400   1.635
73667ION    CL-44267  40.448  18.210   2.594
73668ION    CL-44268   6.512  10.040   0.406
73669ION    CL-44269  23.212  36.648  14.172
73670ION    CL-44270  43.366  21.407  10.656
73671ION    CL-44271  38.494  34.112   2.836
73672ION    CL-44272  18.901   8.384   5.056
73673ION    CL-44273   3.898  34.834   5.001
73674ION    CL-44274  11.362   8.130   2.614
73675ION    CL-44275  25.382   5.325  12.583
73676ION    CL-44276  24.071   3.367   0.997
73677ION    CL-44277  11.846   8.528  11.650
73678ION    CL-44278   6.964  14.595  12.420
73679ION    CL-44279  13.628  34.430  10.585
73680ION    CL-44280  44.244  13.848   4.081
73681ION    CL-44281  14.631  39.281   4.974
73682ION    CL-44282  15.618  15.098   4.043
73683ION    CL-44283   9.779  14.398  13.653
73684ION    CL-44284   3.838  39.738  12.388
73685ION    CL-44285  20.663  33.658   2.288
73686ION    CL-44286  15.022  32.987  13.973
73687ION    CL-44287   8.368  28.402   4.316
73688ION    CL-44288   6.508  28.201   1.848
73689ION    CL-44289  22.688  35.327   2.330
73690ION    CL-44290  28.924  12.783  12.606
73691ION    CL-44291  37.477   1.505   4.531
73692ION    CL-44292  38.403  36.221  10.304
73693ION    CL-44293  11.168  33.123   3.262
73694ION    CL-44294  10.428  29.857  14.380
73695ION    CL-44295  16.274  21.313  14.169
73696ION    CL-44296  37.370   9.913  13.872
73697ION    CL-44297  26.635  10.662   2.051
73698ION    CL-44298   3.995  12.623   1.252
73699ION    CL-44299  20.087   3.955   3.370
73700ION    CL-44300  23.551  12.999  11.135
73701ION    CL-44301  27.052   8.932   4.151
73702ION    CL-44302  41.075  19.811  12.036
73703ION    CL-44303  17.488  27.232  12.975
73704ION    CL-44304  16.357  27.152  10.993
73705ION    CL-44305  11.699  36.460  12.303
73706ION    CL-44306  43.178   1.849  14.705
73707ION    CL-44307  15.915  16.832  10.141
73708ION    CL-44308   6.672  10.431  13.352
73709ION    CL-44309  44.401  36.589  12.102
73710ION    CL-44310   2.375  11.824   1.214
73711ION    CL-44311  24.782  43.816  12.055
73712ION    CL-44312   7.685  10.149   3.448
73713ION    CL-44313  40.272  18.859   1.191
73714ION    CL-44314  19.134  30.927   4.948
73715ION    CL-44315  21.178   4.980  13.312
73716ION    CL-44316  18.780  30.173   0.862
73717ION    CL-44317  26.577  14.331  14.915
73718ION    CL-44318  16.905  33.168   5.487
73719ION    CL-44319  44.656  11.170   3.975
73720ION    CL-44320  25.140  25.310   3.812
73721ION    CL-44321   8.807  20.834   2.480
73722ION    CL-44322  44.054  28.276   3.365
73723ION    CL-44323  34.165  17.613   4.578
73724ION    CL-44324  15.265  27.206   1.441
73725ION    CL-44325   3.722  21.570   0.492
73726ION    CL-44326  10.532  35.925  11.978
73727ION    CL-44327   4.277  43.338   5.109
73728ION    CL-44328  12.367   6.936  10.860
73729ION    CL-44329   2.858  34.895   3.613
73730ION    CL-44330  43.261   6.361  12.485
73731ION    CL-44331  21.553  28.766   0.292
73732ION    CL-44332   9.423  20.370   2.960
73733ION    CL-44333  37.918  31.333  13.962
73734ION    CL-44334  21.106  36.593   2.746
73735ION    CL-44335   9.449   5.239  14.788
73736ION    CL-44336  33.444  13.104  12.034
73737ION    CL-44337  34.622   8.769   0.676
73738ION    CL-44338  25.388  11.731   1.448
73739ION    CL-44339  29.417   3.047   0.796
73740ION    CL-44340   5.472  16.927   4.379
73741ION    CL-44341   9.735  11.420  13.088
73742ION    CL-44342  35.576  26.430   1.677
73743ION    CL-44343  23.856  19.074   1.728
73744ION    CL-44344  30.927  32.444  10.357
73745ION    CL-44345  17.221  38.508   2.085
73746ION    CL-44346  18.370  20.525   4.328
73747ION    CL-44347  29.689   2.210  11.330
73748ION    CL-44348  13.178  13.537  11.232
73749ION    CL-44349   0.515  40.746  11.207
73750ION    CL-44350   6.230  38.559   1.740
73751ION    CL-44351  30.031  29.544  13.251
73752ION    CL-44352  36.280  34.162   1.299
73753ION    CL-44353  16.990   9.477  11.518
73754ION    CL-44354  17.148  25.747   0.360
73755ION    CL-44355  22.021  10.079  11.315
73756ION    CL-44356  21.163  29.875   2.992
73757ION    CL-44357  42.592  17.115  13.999
73758ION    CL-44358   6.126  21.217   3.734
73759ION    CL-44359   9.828  44.049   1.431
73760ION    CL-44360  42.160   1.737  14.852
73761ION    CL-44361   3.977   5.194  11.204
73762ION    CL-44362  29.063  33.930   2.872
73763ION    CL-44363   7.787  21.666   1.701
73764ION    CL-44364  36.216  12.074  12.121
73765ION    CL-44365  29.493  35.060   3.835
73766ION    CL-44366  37.977  42.954  12.576
73767ION    CL-44367  28.388   2.796  10.802
73768ION    CL-44368   0.509  41.483  11.714
73769ION    CL-44369  29.909  28.995  12.624
73770ION    CL-44370  14.921  37.470   3.170
73771ION    CL-44371  19.629   3.013  10.483
73772ION    CL-44372  15.149  44.967   2.200
73773ION    CL-44373  36.877  26.645  14.966
73774ION    CL-44374  22.258  11.921  12.526
73775ION    CL-44375  27.365  35.360   4.808
73776ION    CL-44376  28.991  32.560  10.803
73777ION    CL-44377  14.615  16.521  13.125
73778ION    CL-44378  13.921  36.079   4.748
73779ION    CL-44379  41.262  42.685   3.008
73780ION    CL-44380  14.867  31.656  13.763
73781ION    CL-44381  33.741  19.468   3.148
73782ION    CL-44382  43.656   3.664  11.046
73783ION    CL-44383  16.705  26.341  11.592
73784ION    CL-44384   8.559  28.475   2.362
73785ION    CL-44385  24.052  28.889   4.811
73786ION    CL-44386   8.173  11.671  10.877
73787ION    CL-44387  32.947  17.085   4.475
73788ION    CL-44388   0.221   7.703  11.075
73789ION    CL-44389  44.888  38.855   2.787
73790ION    CL-44390  40.057   9.369  10.706
73791ION    CL-44391   8.394  23.522  11.891
73792ION    CL-44392  10.768  33.870   2.030
73793ION    CL-44393  39.531  30.947  13.928
73794ION    CL-44394  17.866  34.895  12.887
73795ION    CL-44395  43.450  24.446  12.863
73796ION    CL-44396  16.442   8.573   4.081
73797ION    CL-44397  40.481  15.486  12.075
73798ION    CL-44398   4.401  35.336  11.786
73799ION    CL-44399  21.008  30.220   1.757
73800ION    CL-44400  42.925   0.196   3.765
73801ION    CL-44401  10.801   5.943   4.831
73802ION    CL-44402   2.374  34.008  12.658
73803ION    CL-44403  26.686  20.788  14.142
73804ION    CL-44404  38.967  34.903  12.320
73805ION    CL-44405  22.103   1.321   0.718
73806ION    CL-44406  32.844  37.494  11.589
73807ION    CL-44407  32.752   3.029  13.302
73808ION    CL-44408   9.439  31.861   0.514
73809ION    CL-44409  22.865   8.230  12.230
73810ION    CL-44410  34.033   4.775   3.216
73811ION    CL-44411   6.149  26.072   0.014
73812ION    CL-44412  28.273  27.001  13.196
73813ION    CL-44413  40.902  17.080  11.720
73814ION    CL-44414  12.209  34.251   0.020
73815ION    CL-44415  16.577  12.138  11.091
73816ION    CL-44416  20.143   0.175  11.723
73817ION    CL-44417   4.896   6.549   4.989
73818ION    CL-44418  17.060  42.761   1.292
73819ION    CL-44419  30.575  32.542   1.336
73820ION    CL-44420  43.570  21.535   2.514
73821ION    CL-44421  39.203  29.240  12.711
73822ION    CL-44422  37.329  18.664  11.719
73823ION    CL-44423  11.597   1.387   0.805
73824ION    CL-44424  41.120  12.896  14.313
73825ION    CL-44425  20.192  27.149   1.442
73826ION    CL-44426  41.345  34.776   1.261
73827ION    CL-44427  37.288  33.064   4.240
73828ION    CL-44428  33.514  24.428   0.407
73829ION    CL-44429  26.239  29.337   1.393
73830ION    CL-44430  27.656  37.373   0.668
73831ION    CL-44431  44.601  44.967   1.219
73832ION    CL-44432  31.935  41.040   0.918
73833ION    CL-44433   4.428  18.688   1.970
73834ION    CL-44434  29.624   7.667  11.479
73835ION    CL-44435  16.424  31.372  12.828
73836ION    CL-44436  12.549   8.653   3.172
73837ION    CL-44437  32.005  24.439   3.820
73838ION    CL-44438  32.586   7.439  13.345
73839ION    CL-44439   0.201  34.052   1.054
73840ION    CL-44440  35.966  23.434   1.915
73841ION    CL-44441  18.479  29.775  14.995
73842ION    CL-44442  37.955  24.662  11.831
73843ION    CL-44443  25.909   2.514  14.985
73844ION    CL-44444  31.587  29.503  12.916
73845ION    CL-44445  28.302   5.312  10.563
73846ION    CL-44446   0.849  21.418  12.233
73847ION    CL-44447  31.675  27.020  13.641
73848ION    CL-44448  38.607  38.643   0.296
73849ION    CL-44449  39.283  20.670   0.960
73850ION    CL-44450   8.925  35.584   0.104
73851ION    CL-44451   1.721  18.095   2.387
73852ION    CL-44452  11.172   2.263  11.677
73853ION    CL-44453  25.507   9.438   2.025
73854ION    CL-44454  13.289  34.472  12.130
73855ION    CL-44455   6.498   0.326   2.279
73856ION    CL-44456   3.200  44.850  13.885
73857ION    CL-44457  43.904   9.954   0.201
73858ION    CL-44458  32.531  38.836  12.993
73859ION    CL-44459  31.847   1.525   0.939
73860ION    CL-44460   1.177  37.087  11.016
73861ION    CL-44461  16.281  43.876   1.388
73862ION    CL-44462  28.494  10.064  14.127
73863ION    CL-44463  13.213  12.529  12.299
73864ION    CL-44464  30.227  34.781  11.595
73865ION    CL-44465  43.030  33.455  10.527
73866ION    CL-44466   2.063   9.381  11.412
73867ION    CL-44467  29.589   9.403  13.009
73868ION    CL-44468  38.355  29.930   2.488
73869ION    CL-44469  12.262  33.963   1.113
73870ION    CL-44470  39.760  16.638   3.657
73871ION    CL-44471  14.541  27.551   3.182
73872ION    CL-44472   6.468  43.026  14.879
73873ION    CL-44473  18.284  44.706   1.382
73874ION    CL-44474  19.162  40.945  11.146
73875ION    CL-44475  26.639  18.243   3.599
73876ION    CL-44476  10.569  36.996   0.748
73877ION    CL-44477  44.455  24.832  13.783
73878ION    CL-44478  15.294  22.250   2.339
73879ION    CL-44479   2.416   5.828  11.562
73880ION    CL-44480   5.507  39.591  11.101
73881ION    CL-44481  23.470  33.443  11.032
73882ION    CL-44482   4.858   4.254   2.761
73883ION    CL-44483  27.777   3.726   1.729
73884ION    CL-44484  33.313   3.479  10.731
73885ION    CL-44485  26.790  27.446  11.166
73886ION    CL-44486   1.005  39.892  12.863
73887ION    CL-44487  15.326  26.964   3.951
73888ION    CL-44488  17.883  30.015   4.601
73889ION    CL-44489  20.706  31.569   4.703
73890ION    CL-44490  25.195  36.781  14.396
73891ION    CL-44491  41.258  23.360   3.654
73892ION    CL-44492   5.130  36.660   0.338
73893ION    CL-44493   4.959  34.402   0.520
73894ION    CL-44494  26.997  33.445  11.938
73895ION    CL-44495   5.024   7.492  11.184
73896ION    CL-44496  19.972  39.274   3.391
73897ION    CL-44497  25.379  35.676   4.187
73898ION    CL-44498   2.354   8.620  12.193
73899ION    CL-44499  35.745  33.987  13.652
73900ION    CL-44500   0.465  10.372   1.161
73901ION    CL-44501   1.203  18.325   0.867
73902ION    CL-44502  34.037   6.400  14.466
73903ION    CL-44503  14.853  22.639   9.904
73904ION    CL-44504  44.141  16.758   4.031
73905ION    CL-44505  44.845  34.457   0.006
73906ION    CL-44506   5.356  21.299   0.136
73907ION    CL-44507  27.574  19.660   2.146
73908ION    CL-44508  44.559  14.642  10.919
73909ION    CL-44509  13.918   9.596  11.229
73910ION    CL-44510  23.608  40.259   2.720
73911ION    CL-44511  33.859   4.008   3.834
73912ION    CL-44512  35.644  29.937   3.936
73913ION    CL-44513  37.397  44.845  13.462
73914ION    CL-44514  27.683  33.222   2.773
73915ION    CL-44515  31.223   8.042   0.867
73916ION    CL-44516  25.850  44.813  12.714
73917ION    CL-44517  41.095   9.322  10.894
73918ION    CL-44518  31.442  16.430   5.157
73919ION    CL-44519   7.794  27.492   5.122
73920ION    CL-44520  28.240   4.538   2.760
73921ION    CL-44521  26.109  17.457  11.789
73922ION    CL-44522  43.927  19.046   2.073
73923ION    CL-44523  12.868  29.783  14.656
73924ION    CL-44524  22.227   9.181   3.513
73925ION    CL-44525  17.840  42.368  10.249
73926ION    CL-44526  20.267   4.950   0.690
73927ION    CL-44527  28.000  42.560  10.422
73928ION    CL-44528  35.834  22.647  14.351
73929ION    CL-44529  10.848   6.805  13.759
73930ION    CL-44530   9.633  34.631   0.961
73931ION    CL-44531  33.942  40.246   2.259
73932ION    CL-44532  23.491   4.197   4.523
73933ION    CL-44533  17.073  23.732  12.995
73934ION    CL-44534  35.507   6.393   1.256
73935ION    CL-44535  24.396   8.901  14.220
73936ION    CL-44536  29.077  20.850   3.134
73937ION    CL-44537   7.334   9.393   1.177
73938ION    CL-44538  42.007  13.953  11.409
73939ION    CL-44539  20.123   4.063   0.662
73940ION    CL-44540  34.453  37.626   0.468
73941ION    CL-44541  41.130  32.939   4.062
73942ION    CL-44542  33.496  38.697   1.805
73943ION    CL-44543  18.919  35.010  13.390
73944ION    CL-44544   3.842   7.178   5.087
73945ION    CL-44545   4.360   4.429  11.721
73946ION    CL-44546  21.087  16.291  12.127
73947ION    CL-44547  25.366  38.893   2.552
73948ION    CL-44548   1.649  17.113  14.887
73949ION    CL-44549   7.827  18.111  12.968
73950ION    CL-44550  18.320   5.250  14.567
73951ION    CL-44551  35.312  37.029  12.497
73952ION    CL-44552   3.646  30.564  10.130
73953ION    CL-44553  42.929  37.982  11.001
73954ION    CL-44554  12.320   9.185   0.163
73955ION    CL-44555  19.417  13.837  13.300
73956ION    CL-44556  15.529  30.633  11.053
73957ION    CL-44557  11.930  18.987   3.629
73958ION    CL-44558  13.824  38.127   0.527
73959ION    CL-44559   9.301  20.672  13.036
73960ION    CL-44560   4.931  20.672  14.671
73961ION    CL-44561  12.636  34.162   3.544
73962ION    CL-44562  41.304  16.881   3.169
73963ION    CL-44563  15.301   5.615   0.542
73964ION    CL-44564  43.835   6.836  11.585
73965ION    CL-44565  12.353  35.200   1.877
73966ION    CL-44566  28.420  12.210  11.960
73967ION    CL-44567  35.639  14.759   0.952
73968ION    CL-44568  10.923  16.286  14.318
73969ION    CL-44569  20.903  12.098  14.745
73970ION    CL-44570  33.922   2.476   2.867
73971ION    CL-44571  25.496  37.958  13.902
73972ION    CL-44572  19.835  40.634  12.357
73973ION    CL-44573  25.908  36.664   1.924
73974ION    CL-44574  30.379   5.210  13.441
73975ION    CL-44575  17.081  42.849   3.273
73976ION    CL-44576  15.002   5.117  10.762
73977ION    CL-44577  42.554  23.174   1.451
73978ION    CL-44578   3.291  17.741   2.652
73979ION    CL-44579   5.136  29.010   1.625
73980ION    CL-44580  41.424  17.159  14.782
73981ION    CL-44581  20.512  27.214   0.497
73982ION    CL-44582  21.715  23.349  11.883
73983ION    CL-44583  35.085  22.344  12.553
73984ION    CL-44584  44.212  36.872   2.571
73985ION    CL-44585  12.327  44.534   0.977
73986ION    CL-44586  24.765   9.874  11.787
73987ION    CL-44587  14.373  20.424   5.014
73988ION    CL-44588  12.686  18.699   0.821
73989ION    CL-44589  22.651  14.293   5.034
73990ION    CL-44590   9.760  40.124   4.923
73991ION    CL-44591  33.715   2.741  13.347
73992ION    CL-44592  36.258  37.091  14.161
73993ION    CL-44593   8.701  11.706   2.230
73994ION    CL-44594  23.238  38.914  11.878
73995ION    CL-44595  37.934  29.522   3.189
73996ION    CL-44596  16.086  31.391  11.852
73997ION    CL-44597  19.817  33.608  11.317
73998ION    CL-44598  37.055   8.549  11.959
73999ION    CL-44599  32.296  21.457   5.024
74000ION    CL-44600  21.725   4.259   3.281
74001ION    CL-44601   4.524  29.115  12.694
74002ION    CL-44602  31.625  31.107  11.970
74003ION    CL-44603  12.523  25.098   0.553
74004ION    CL-44604  14.561   8.376  12.441
74005ION    CL-44605  25.642   6.487  10.405
74006ION    CL-44606  20.367  42.979   2.279
74007ION    CL-44607  12.114  19.194  14.408
74008ION    CL-44608  37.017  26.939   4.487
74009ION    CL-44609  17.374  37.207  14.195
74010ION    CL-44610  20.022  37.637  10.719
74011ION    CL-44611  12.199  22.488   3.309
74012ION    CL-44612  15.208  30.217  13.850
74013ION    CL-44613  17.171   2.203   3.886
74014ION    CL-44614  42.543  21.537  13.852
74015ION    CL-44615  15.286  30.401   0.784
74016ION    CL-44616  43.350  43.042  11.477
74017ION    CL-44617  23.346  32.518   2.716
74018ION    CL-44618  24.779  35.076   0.731
74019ION    CL-44619  25.628  15.427   3.195
74020ION    CL-44620  37.169  16.698   1.092
74021ION    CL-44621  14.613  26.494  11.890
74022ION    CL-44622  21.627   5.335   3.288
74023ION    CL-44623   5.800  32.198   3.639
74024ION    CL-44624  43.714  28.466  14.372
74025ION    CL-44625  15.294  36.551  14.483
74026ION    CL-44626  10.979  29.361  11.541
74027ION    CL-44627  28.695  17.522  12.727
74028ION    CL-44628  23.302   5.497  14.842
74029ION    CL-44629  36.535  16.125   4.268
74030ION    CL-44630  16.432  24.685   0.261
74031ION    CL-44631   7.068  32.081   0.385
74032ION    CL-44632  36.739   0.606   5.107
74033ION    CL-44633  21.199  36.499  14.406
74034ION    CL-44634  43.349  17.973   2.473
74035ION    CL-44635  20.838   1.318  11.167
74036ION    CL-44636   7.015  30.132  13.973
74037ION    CL-44637  38.541  30.960  14.330
74038ION    CL-44638  43.983  23.109   1.614
74039ION    CL-44639  16.204  33.712   2.377
74040ION    CL-44640  12.252  17.609  11.645
74041ION    CL-44641  21.329  23.535  13.772
74042ION    CL-44642  23.663  34.410   3.329
74043ION    CL-44643   4.435  38.876   4.131
74044ION    CL-44644  17.349  36.907  11.944
74045ION    CL-44645  22.240  25.019  11.713
74046ION    CL-44646  36.848  42.117   0.084
74047ION    CL-44647  38.668  13.551   0.909
74048ION    CL-44648  35.331  28.400   2.391
74049ION    CL-44649  19.803   7.906  12.404
74050ION    CL-44650  20.526  25.117   3.286
74051ION    CL-44651   7.557  34.449   1.869
74052ION    CL-44652  24.446   9.536  10.901
74053ION    CL-44653  21.213  12.740   0.447
74054ION    CL-44654   2.536  15.748   1.315
74055ION    CL-44655  13.541  14.595  12.882
74056ION    CL-44656  21.617   8.582   1.932
74057ION    CL-44657  27.827  42.603  12.374
74058ION    CL-44658  16.889  16.018   0.305
74059ION    CL-44659  43.677  22.226   3.609
74060ION    CL-44660  28.291  33.069  12.961
74061ION    CL-44661  29.997  30.355   1.217
74062ION    CL-44662  19.782  31.404  12.214
74063ION    CL-44663  40.391  43.415  10.815
74064ION    CL-44664   4.983  31.613   1.413
74065ION    CL-44665  17.630  42.755   3.985
74066ION    CL-44666  18.654   0.895   4.398
74067ION    CL-44667  36.688  11.415  12.561
74068ION    CL-44668   4.201   3.842   4.198
74069ION    CL-44669  10.919  16.497  11.882
74070ION    CL-44670  15.484   0.988   4.020
74071ION    CL-44671  26.367  42.149  14.729
74072ION    CL-44672  37.123  33.658   1.872
74073ION    CL-44673  41.554  22.559  14.159
74074ION    CL-44674  36.889  22.099   4.900
74075ION    CL-44675  42.240  10.039  14.235
74076ION    CL-44676  39.111  44.172   1.930
74077ION    CL-44677  28.028   7.677   4.547
74078ION    CL-44678  41.214  13.259   4.731
74079ION    CL-44679  23.828  11.101  10.749
74080ION    CL-44680   0.020  10.844  13.962
74081ION    CL-44681  37.869  10.736   0.511
74082ION    CL-44682  12.827  26.738   2.071
74083ION    CL-44683   6.676  20.913   9.730
74084ION    CL-44684   2.146   1.611   1.250
74085ION    CL-44685  36.694  44.021  12.171
74086ION    CL-44686  13.307  37.645  12.529
74087ION    CL-44687  20.824  15.423   4.375
74088ION    CL-44688  18.079  17.599   0.880
74089ION    CL-44689  33.323  42.027  14.861
74090ION    CL-44690  37.167  34.094   4.763
74091ION    CL-44691   4.103  29.160  14.532
74092ION    CL-44692  18.996  17.203   0.831
74093ION    CL-44693  14.237   0.821  12.789
74094ION    CL-44694  12.451   5.903   1.241
74095ION    CL-44695  37.542  26.730  13.567
74096ION    CL-44696  38.084  44.970   1.398
74097ION    CL-44697  20.507  21.171   2.654
74098ION    CL-44698  15.259   3.446  11.578
74099ION    CL-44699  22.783  40.905   1.617
74100ION    CL-44700  23.978   1.774   1.827
74101ION    CL-44701  44.610  25.122   1.972
74102ION    CL-44702  22.996   7.390  11.910
74103ION    CL-44703  24.643   7.030  14.830
74104ION    CL-44704  20.806   8.868  13.721
74105ION    CL-44705  15.328  10.564  10.434
74106ION    CL-44706  39.842  25.298  13.520
74107ION    CL-44707  26.553  16.364  10.696
74108ION    CL-44708  16.588  38.800  11.791
74109ION    CL-44709  10.871  34.152   1.235
74110ION    CL-44710  18.452  10.263  13.921
74111ION    CL-44711  38.241  30.848  10.628
74112ION    CL-44712   5.623  11.151   4.536
74113ION    CL-44713  20.027  11.917   2.162
74114ION    CL-44714  14.834  27.880  13.852
74115ION    CL-44715   3.778  32.449   1.175
74116ION    CL-44716  13.624  31.405  11.146
74117ION    CL-44717  25.727  36.780  12.002
74118ION    CL-44718  11.404   3.667  14.971
74119ION    CL-44719  33.513  16.369   3.803
74120ION    CL-44720  12.178  33.322  12.101
74121ION    CL-44721  35.483  35.553  12.722
74122ION    CL-44722  28.542  19.701  13.893
74123ION    CL-44723  20.864   7.082  10.588
74124ION    CL-44724  22.054  20.997  14.462
74125ION    CL-44725  25.723   8.996   1.231
74126ION    CL-44726  31.545  25.737   0.514
74127ION    CL-44727  15.448   8.453   4.123
74128ION    CL-44728   2.993  17.259   4.304
74129ION    CL-44729  24.084  23.003   0.030
74130ION    CL-44730  22.878  39.074  12.797
74131ION    CL-44731  16.507  38.065  13.515
74132ION    CL-44732  43.711  24.471  14.948
74133ION    CL-44733  31.542  11.592   4.924
74134ION    CL-44734   8.795  10.183  11.243
74135ION    CL-44735  37.825  12.592   4.173
74136ION    CL-44736  43.457  43.519   3.802
74137ION    CL-44737  12.847  27.294   0.824
74138ION    CL-44738  33.978   3.108   4.252
74139ION    CL-44739   2.970  23.983   3.665
74140ION    CL-44740  36.872  24.136   1.204
74141ION    CL-44741  34.862   9.835   3.309
74142ION    CL-44742  30.090   8.435  13.400
74143ION    CL-44743   6.426  16.339   4.666
74144ION    CL-44744  18.645  23.985   1.772
74145ION    CL-44745  16.773  14.870  13.841
74146ION    CL-44746  33.193   5.726  11.116
74147ION    CL-44747  16.017  16.025  10.722
74148ION    CL-44748  20.755  43.226   1.579
74149ION    CL-44749  15.177  39.616  14.327
74150ION    CL-44750   0.560  20.746   0.390
74151ION    CL-44751   3.134   0.576  11.650
74152ION    CL-44752  18.799  14.746  14.290
74153ION    CL-44753  18.974  27.188   3.673
74154ION    CL-44754  25.044  17.275  11.966
74155ION    CL-44755  24.756  12.383  10.646
74156ION    CL-44756  17.583  28.728  10.565
74157ION    CL-44757  41.077  33.131  13.275
74158ION    CL-44758  23.842  41.132  14.368
74159ION    CL-44759   6.798  19.903  14.318
74160ION    CL-44760  44.741  27.474   0.481
74161ION    CL-44761  38.024   2.281   3.346
74162ION    CL-44762  33.514  25.006  14.717
74163ION    CL-44763  15.066  44.086   4.980
74164ION    CL-44764  23.590  14.751  13.447
74165ION    CL-44765   2.149  33.047   1.231
74166ION    CL-44766  24.856  28.614   3.136
74167ION    CL-44767  19.662  16.641  12.871
74168ION    CL-44768   5.371  33.817   3.610
74169ION    CL-44769  29.784  17.434   0.504
74170ION    CL-44770   3.395  40.205   0.970
74171ION    CL-44771  30.204   0.702   4.269
74172ION    CL-44772  39.003   8.202  13.947
74173ION    CL-44773  20.207  12.726  11.012
74174ION    CL-44774  31.062  40.573   4.099
74175ION    CL-44775   5.023  10.685   3.794
74176ION    CL-44776  28.242  29.944   0.808
74177ION    CL-44777  22.698   9.486   2.652
74178ION    CL-44778   1.883  29.437  13.821
74179ION    CL-44779  27.636  24.617  10.776
74180ION    CL-44780  18.103   1.985   3.448
74181ION    CL-44781   5.739  36.401   3.865
74182ION    CL-44782  39.770  28.162  13.706
74183ION    CL-44783   3.149  10.127   0.436
74184ION    CL-44784  27.562  43.209   0.217
74185ION    CL-44785  30.642  42.887  14.033
74186ION    CL-44786   5.688   1.450   3.687
74187ION    CL-44787  41.681  14.236  12.203
74188ION    CL-44788  20.291  43.903   2.149
74189ION    CL-44789  36.426  30.008  14.479
74190ION    CL-44790  44.088  11.570   5.088
74191ION    CL-44791  12.099  12.167   0.202
74192ION    CL-44792  23.126  28.033   1.293
74193ION    CL-44793  24.177   5.877  11.170
74194ION    CL-44794  39.277  10.800   3.817
74195ION    CL-44795  17.093  16.290   1.846
74196ION    CL-44796  23.728  23.488   0.846
74197ION    CL-44797  15.757  26.994  14.483
74198ION    CL-44798  21.883   2.477   3.274
74199ION    CL-44799  41.307   6.445   3.508
74200ION    CL-44800  43.934  16.536  12.852
74201ION    CL-44801   7.758  43.781   0.731
74202ION    CL-44802  42.251  42.397  14.932
74203ION    CL-44803  29.521  24.224   1.232
74204ION    CL-44804  42.023  21.403   3.558
74205ION    CL-44805  18.077  16.395  12.421
74206ION    CL-44806   1.475  21.805   3.099
74207ION    CL-44807  15.389  19.192  12.001
74208ION    CL-44808   4.972  24.518   0.343
74209ION    CL-44809  40.188  12.630  14.561
74210ION    CL-44810   4.781  17.776   1.564
74211ION    CL-44811  30.116  27.381  14.804
74212ION    CL-44812  14.401   6.755   4.210
74213ION    CL-44813  26.685   0.723   4.987
74214ION    CL-44814  35.057   9.823  12.067
74215ION    CL-44815  25.909  18.761  12.400
74216ION    CL-44816  13.174  36.707   3.540
74217ION    CL-44817  28.453   6.166  11.131
74218ION    CL-44818  12.860  31.571   1.884
74219ION    CL-44819   2.368   3.669  14.973
74220ION    CL-44820  25.062  36.958  10.766
74221ION    CL-44821  43.729  12.624   4.175
74222ION    CL-44822  31.035   7.293   4.620
74223ION    CL-44823  38.739  24.429   3.265
74224ION    CL-44824   4.148   9.344   0.993
74225ION    CL-44825  36.496   2.694  11.178
74226ION    CL-44826  41.476  16.069   3.927
74227ION    CL-44827  27.054  28.023   2.225
74228ION    CL-44828  32.271  13.891  13.722
74229ION    CL-44829  16.507  19.210  11.863
74230ION    CL-44830  12.643  40.495  11.367
74231ION    CL-44831  12.495  38.931  14.409
74232ION    CL-44832  37.143  16.359   2.032
74233ION    CL-44833  31.619  19.236   1.422
74234ION    CL-44834  20.899   9.091   9.841
74235ION    CL-44835  32.963  19.220   3.517
74236ION    CL-44836  23.936  11.465  12.588
74237ION    CL-44837   3.295  25.974  10.775
74238ION    CL-44838  26.236  17.235  13.270
74239ION    CL-44839  36.459  13.175  12.529
74240ION    CL-44840  31.319  20.038   3.615
74241ION    CL-44841  36.255  24.546  14.431
74242ION    CL-44842  34.585  16.802   4.775
74243ION    CL-44843  17.051  27.979  13.476
74244ION    CL-44844  44.804  30.384  13.913
74245ION    CL-44845  41.409  19.242  13.913
74246ION    CL-44846  41.786   2.257   1.241
74247ION    CL-44847  21.480   5.840   1.789
74248ION    CL-44848  23.109  18.912   1.275
74249ION    CL-44849   4.700  23.663  14.114
74250ION    CL-44850  26.250   7.851  12.664
74251ION    CL-44851  12.505  12.260   1.111
74252ION    CL-44852  35.520  25.966  13.852
74253ION    CL-44853  29.590  24.475   2.221
74254ION    CL-44854  20.757  19.295   0.679
74255ION    CL-44855  11.126  12.226  10.874
74256ION    CL-44856  19.350   7.508   4.807
74257ION    CL-44857  39.550  39.645   1.121
74258ION    CL-44858  32.264  15.202   4.707
74259ION    CL-44859  24.817  29.484   5.057
74260ION    CL-44860  15.318  43.461  13.902
74261ION    CL-44861  44.007   5.337   2.207
74262ION    CL-44862  18.454  39.241  14.099
74263ION    CL-44863  26.589   2.295   0.461
74264ION    CL-44864  42.784   7.921   4.088
74265ION    CL-44865   1.182  16.600   1.549
74266ION    CL-44866  26.334  43.396   0.639
74267ION    CL-44867  39.328  20.638  14.575
74268ION    CL-44868  28.693  16.861   1.220
74269ION    CL-44869  24.097  34.474   1.147
74270ION    CL-44870  27.355  43.305  10.250
74271ION    CL-44871   4.615  19.313   1.059
74272ION    CL-44872  31.196   1.613   5.170
74273ION    CL-44873  40.264  23.054   3.730
74274ION    CL-44874  40.193  17.590  10.543
74275ION    CL-44875   5.285  22.336   1.441
74276ION    CL-44876  39.995  38.744   2.089
74277ION    CL-44877   0.087  43.032  10.979
74278ION    CL-44878  39.875  35.442  13.515
74279ION    CL-44879   7.533  28.448   3.881
74280ION    CL-44880  26.964  13.591  12.617
74281ION    CL-44881   1.942  20.226   4.560
74282ION    CL-44882  17.023  41.814  10.095
74283ION    CL-44883  39.269  39.967   3.659
74284ION    CL-44884  28.592  28.392  14.612
74285ION    CL-44885  17.720   5.567   4.151
74286ION    CL-44886  27.209  44.713  14.101
74287ION    CL-44887  21.055  24.811   2.020
74288ION    CL-44888  43.021  19.363   4.077
74289ION    CL-44889  14.526  29.473  13.514
74290ION    CL-44890  14.649   1.403  14.485
74291ION    CL-44891  11.055  22.544  14.582
74292ION    CL-44892   9.924  32.447   5.063
74293ION    CL-44893  42.706  15.461   9.918
74294ION    CL-44894  29.781  15.277   3.642
74295ION    CL-44895  10.755   1.880  12.521
74296ION    CL-44896  14.691  41.199   0.752
74297ION    CL-44897   3.912  32.360  11.399
74298ION    CL-44898  24.081   0.563   2.474
74299ION    CL-44899  12.665  26.560   2.946
74300ION    CL-44900  26.742  14.042   2.489
74301ION    CL-44901  19.620  28.019  12.856
74302ION    CL-44902  32.258  35.232   0.157
74303ION    CL-44903  42.575  23.300  14.919
74304ION    CL-44904  15.284  10.854   1.665
74305ION    CL-44905   2.363   3.816   2.724
74306ION    CL-44906  37.075  14.498   0.319
74307ION    CL-44907  27.501   8.788  14.073
74308ION    CL-44908  24.328  42.661   2.060
74309ION    CL-44909  21.863  10.491  14.638
74310ION    CL-44910  28.481  31.144   1.328
74311ION    CL-44911  16.804  11.365  14.152
74312ION    CL-44912  26.266   5.517  13.454
74313ION    CL-44913  23.517  13.688   0.720
74314ION    CL-44914  24.155   8.753   0.763
74315ION    CL-44915   1.854  12.013   3.748
74316ION    CL-44916  32.829  36.783   5.025
74317ION    CL-44917  15.634  34.388   0.661
74318ION    CL-44918  18.965  31.913   4.959
74319ION    CL-44919  24.596  20.495   1.698
74320ION    CL-44920   5.865   9.551  11.385
74321ION    CL-44921  39.919  28.626   0.325
74322ION    CL-44922  32.787  15.157   2.917
74323ION    CL-44923  42.976  24.740  14.060
74324ION    CL-44924  38.774  21.662   3.776
74325ION    CL-44925  11.516  31.582  12.664
74326ION    CL-44926  10.683   5.833   2.278
74327ION    CL-44927   6.818   7.103   0.473
74328ION    CL-44928   3.411  34.339   1.246
74329ION    CL-44929   5.382  13.140   0.425
74330ION    CL-44930  17.906  17.394   5.117
74331ION    CL-44931  39.612  31.432  12.967
74332ION    CL-44932  42.818  41.770   0.467
74333ION    CL-44933  24.657   7.651  11.653
74334ION    CL-44934  44.746  37.827  11.579
74335ION    CL-44935  43.075  24.440   1.889
74336ION    CL-44936  19.532  22.309   4.171
74337ION    CL-44937  23.924   9.799   0.016
74338ION    CL-44938  18.326  28.568   0.048
74339ION    CL-44939  13.752  41.023  11.107
74340ION    CL-44940  34.381  24.285   2.494
74341ION    CL-44941  13.432  38.310   3.218
74342ION    CL-44942  13.215  17.165  11.673
74343ION    CL-44943  40.318  27.134  13.495
74344ION    CL-44944  44.781  40.501   5.210
74345ION    CL-44945   4.652  27.497  14.412
74346ION    CL-44946   6.141   7.195  13.987
74347ION    CL-44947  37.947  19.285   4.125
74348ION    CL-44948  33.043  14.727  14.593
74349ION    CL-44949  10.343  35.162   1.683
74350ION    CL-44950  26.245  13.136   3.665
74351ION    CL-44951  25.535  12.543  14.383
74352ION    CL-44952   9.153  44.020  12.477
74353ION    CL-44953   8.981  34.335   1.483
74354ION    CL-44954  26.588   5.305  14.568
74355ION    CL-44955   4.968  17.478   3.220
74356ION    CL-44956   4.334   6.990   4.011
74357ION    CL-44957  23.468  40.472  11.155
74358ION    CL-44958  14.133  36.623  10.675
74359ION    CL-44959  43.583  17.974  13.087
74360ION    CL-44960  11.489  34.179   1.729
74361ION    CL-44961  39.932  34.378   0.246
74362ION    CL-44962  44.698  17.956   0.425
74363ION    CL-44963  18.562  44.979  12.828
74364ION    CL-44964   0.823  28.491   4.594
74365ION    CL-44965  25.123  18.523   2.695
74366ION    CL-44966  11.389  40.207  10.298
74367ION    CL-44967  35.343  18.434   1.351
74368ION    CL-44968  11.939  30.116   3.874
74369ION    CL-44969  24.856  19.475  13.464
74370ION    CL-44970  18.641  25.759   2.035
74371ION    CL-44971  21.444  41.184   3.689
74372ION    CL-44972  14.517  20.459  13.852
74373ION    CL-44973  14.719   8.337   0.285
74374ION    CL-44974  36.348  12.617   4.058
74375ION    CL-44975  14.311  16.913  12.062
74376ION    CL-44976   6.852  41.993   2.795
74377ION    CL-44977  16.257   4.638   2.078
74378ION    CL-44978  33.978  34.674   0.325
74379ION    CL-44979   6.400  29.596   3.242
74380ION    CL-44980  39.562  21.151   2.858
74381ION    CL-44981  22.459  25.277   1.813
74382ION    CL-44982  12.587  24.956  13.619
74383ION    CL-44983  23.947   4.715   5.116
74384ION    CL-44984  13.665  20.715  12.064
74385ION    CL-44985   2.441   2.520   1.544
74386ION    CL-44986  24.191  14.505  11.576
74387ION    CL-44987  14.589  15.090   0.041
74388ION    CL-44988  30.063  14.539  13.672
74389ION    CL-44989  38.852  43.114  13.818
74390ION    CL-44990   3.602  22.171  11.086
74391ION    CL-44991  40.826  10.494  12.300
74392ION    CL-44992  10.831  10.519   0.930
  45.00000  45.00000  15.00000
